FOO
135168
    1MOL0     O    1   8.067   5.251   6.725  0.1953  0.4647 -0.6258
    1MOL0     C    2   8.058   5.159   6.645  0.6805 -0.3477 -0.6402
    1MOL0     O    3   7.941   5.084   6.626 -0.2979 -0.1686 -0.2352
    1MOL0     C    4   7.824   5.112   6.690 -0.1898 -0.4918 -0.0714
    1MOL0     C    5   7.735   5.014   6.669  1.4006 -0.1263  0.0727
    1MOL0     C    6   7.605   5.033   6.708  0.0111  0.5835  0.8948
    1MOL0     C    7   7.555   5.151   6.757  0.2085  0.3274  0.2750
    1MOL0     O    8   7.427   5.180   6.792 -0.3382  0.8922 -0.2238
    1MOL0     C    9   7.358   5.073   6.865  0.0058  0.1904  0.7062
    1MOL0     C   10   7.240   5.126   6.949 -0.9511  0.2761  1.4196
    1MOL0     C   11   7.148   5.196   6.847  0.3576  0.4245 -0.3766
    1MOL0     C   12   7.021   5.246   6.915  0.1401  0.3798  0.0219
    1MOL0     C   13   6.922   5.150   6.983  0.0444 -0.6439 -0.1082
    1MOL0     C   14   6.848   5.070   6.867 -0.6915  0.6260  0.3660
    1MOL0     C   15   6.774   4.939   6.916  0.1742  0.2555 -0.5516
    1MOL0     C   16   6.642   4.904   6.850  0.0470 -1.2394 -0.0379
    1MOL0     N   17   6.584   4.782   6.887  0.3093  0.0353 -1.1128
    1MOL0     C   18   6.462   4.774   6.946  0.0135 -0.3989 -0.5847
    1MOL0     C   19   6.411   4.657   6.922 -1.1680  0.3485  0.3556
    1MOL0     C   20   6.284   4.605   6.974  0.4400 -0.6899  0.4174
    1MOL0     C   21   6.199   4.567   6.850 -0.3167  0.4288 -0.1872
    1MOL0     C   22   6.059   4.528   6.907  0.3116  0.6085 -0.0688
    1MOL0     C   23   5.952   4.536   6.791  0.0334  0.4393  1.0399
    1MOL0     O   24   6.001   4.472   6.674  0.4156  0.2789  0.2805
    1MOL0     C   25   5.923   4.472   6.561  0.2297 -0.3440 -0.0936
    1MOL0     C   26   5.974   4.409   6.448 -0.0748 -0.0324 -0.1405
    1MOL0     C   27   5.915   4.422   6.320  0.0968  0.1691  0.0145
    1MOL0     C   28   5.798   4.500   6.302  0.5111 -0.8063 -0.1884
    1MOL0     C   29   5.725   4.512   6.173  0.5433  0.3613  0.2551
    1MOL0     O   30   5.625   4.599   6.166  0.0150  0.0830  0.7169
    1MOL0     C   31   5.540   4.615   6.063 -0.4901 -0.3451  0.8625
    1MOL0     C   32   5.407   4.634   6.094  0.2110 -0.8856 -0.7636
    1MOL0     C   33   5.306   4.650   6.008  1.1500  0.6395 -1.0170
    1MOL0     C   34   5.334   4.669   5.878 -0.0564 -0.1029  0.6102
    1MOL0     O   35   5.235   4.696   5.781 -0.1010  1.1783 -0.1455
    1MOL0     C   36   5.102   4.713   5.817  0.2663  0.5894  0.3295
    1MOL0     C   37   5.033   4.577   5.844 -0.1005 -0.8074  0.4980
    1MOL0     C   38   4.883   4.607   5.879 -0.5073  0.6775 -0.3777
    1MOL0     C   39   4.804   4.477   5.909  0.0168  0.1283  0.6699
    1MOL0     C   40   4.680   4.511   5.979  0.3630  0.6034 -0.2137
    1MOL0     C   41   4.596   4.388   5.991 -0.2633  0.3104 -0.1409
    1MOL0     C   42   4.454   4.422   6.048 -0.0180  0.4366  0.1198
    1MOL0     C   43   4.365   4.300   6.067 -1.6170 -0.2937  0.0694
    1MOL0    Cl   44   4.222   4.350   6.151  0.4571 -0.2858 -0.0209
    1MOL0     C   45   5.471   4.648   5.841  0.6037  0.3749  0.6859
    1MOL0     C   46   5.575   4.620   5.933  0.2649  0.4235  0.1543
    1MOL0     O   47   5.749   4.434   6.081 -0.8810  0.4763  0.2297
    1MOL0     C   48   5.743   4.562   6.417 -0.0489 -0.8860 -0.6448
    1MOL0     C   49   5.808   4.547   6.545  0.1194 -0.7832 -0.1576
    1MOL0     N   50   6.506   4.593   6.839  0.5684  0.0424  0.0662
    1MOL0     N   51   6.608   4.670   6.822  0.1031 -0.0286 -0.9134
    1MOL0     C   52   7.642   5.257   6.763  0.6738 -0.1114 -0.9177
    1MOL0     C   53   7.780   5.237   6.737 -0.3518  0.3020 -0.5293
    1MOL0     C   54   8.172   5.129   6.558 -0.5034  0.5358  0.5346
    1MOL0     C   55   8.163   5.034   6.455 -0.8417 -0.5660 -0.1980
    1MOL0     C   56   8.273   5.005   6.367  0.5794  0.7458  0.2503
    1MOL0     C   57   8.399   5.074   6.383  0.0053  0.2495 -0.1534
    1MOL0     O   58   8.499   5.039   6.297  0.2761  0.2196 -0.1419
    1MOL0     C   59   8.633   5.047   6.332  0.4133 -0.1216  0.7100
    1MOL0     C   60   8.744   5.036   6.218  0.6802  1.1237  0.0333
    1MOL0     C   61   8.730   4.890   6.179  0.6756 -0.4327  0.3442
    1MOL0     C   62   8.834   4.842   6.081  0.1535 -0.6318 -0.2440
    1MOL0     C   63   8.966   4.876   6.133 -0.7698  0.4435  0.6246
    1MOL0     C   64   9.081   4.897   6.180 -0.3282  0.0130 -1.2671
    1MOL0     C   65   8.404   5.171   6.484 -0.1920 -0.2207 -1.0275
    1MOL0     C   66   8.297   5.199   6.569  0.2402 -0.1517  0.9215
    1MOL0     H   67   7.762   4.917   6.628 -1.8959 -1.5498  0.9455
    1MOL0     H   68   7.526   4.959   6.698 -0.5711  1.0992  1.6045
    1MOL0     H   69   7.433   5.025   6.928 -0.3925  1.4559  2.2158
    1MOL0     H   70   7.316   5.003   6.792  0.4185  0.6196  0.0391
    1MOL0     H   71   7.284   5.198   7.018  1.6452  2.2118 -1.9590
    1MOL0     H   72   7.198   5.034   6.991  0.1063 -0.5877  0.6718
    1MOL0     H   73   7.122   5.137   6.758 -0.5630  0.3776 -0.0854
    1MOL0     H   74   7.193   5.289   6.810 -2.2076  1.0216 -2.2111
    1MOL0     H   75   7.046   5.326   6.985 -2.6164  1.3664 -0.0015
    1MOL0     H   76   6.960   5.293   6.838 -3.1315 -1.4650  1.3120
    1MOL0     H   77   6.854   5.201   7.051 -0.7427 -0.9981 -0.6210
    1MOL0     H   78   6.975   5.075   7.043  2.3142  1.7150  1.0585
    1MOL0     H   79   6.911   5.039   6.783  0.4719 -0.8274  1.7139
    1MOL0     H   80   6.779   5.143   6.823  0.1117  0.4869 -1.2042
    1MOL0     H   81   6.843   4.857   6.893  0.3418 -0.1040  1.1107
    1MOL0     H   82   6.752   4.937   7.023 -1.5537  1.4638 -0.8399
    1MOL0     H   83   6.665   4.892   6.744  1.9947 -3.6802  0.5576
    1MOL0     H   84   6.569   4.985   6.867  0.0346 -0.9753 -1.2562
    1MOL0     H   85   6.401   4.847   6.998 -0.5157  0.9247 -2.9585
    1MOL0     H   86   6.243   4.681   7.042 -0.7327  1.5303 -2.5708
    1MOL0     H   87   6.292   4.507   7.023 -1.2940 -1.7993 -1.3541
    1MOL0     H   88   6.241   4.476   6.806 -0.8670  0.0198  0.1273
    1MOL0     H   89   6.191   4.638   6.767  3.5364 -0.8223 -1.8699
    1MOL0     H   90   6.059   4.422   6.932 -2.3392  0.1001 -1.8173
    1MOL0     H   91   6.036   4.585   6.998 -2.2364 -2.7052  1.5881
    1MOL0     H   92   5.930   4.640   6.766 -3.1585  0.0853  1.9131
    1MOL0     H   93   5.860   4.483   6.818  0.3436 -0.3807  0.5471
    1MOL0     H   94   6.059   4.341   6.458  2.5463  2.2895 -4.1926
    1MOL0     H   95   5.962   4.374   6.235  2.4950  0.0408  1.3333
    1MOL0     H   96   5.389   4.627   6.201 -0.2855  1.6504 -0.6231
    1MOL0     H   97   5.209   4.640   6.054  1.8267  1.6094  0.7197
    1MOL0     H   98   5.053   4.756   5.730 -1.0824 -0.8533  0.3459
    1MOL0     H   99   5.086   4.787   5.896  0.2700  1.6925 -0.6869
    1MOL0     H  100   5.082   4.528   5.928 -3.4179 -0.0095  3.1574
    1MOL0     H  101   5.034   4.503   5.764  1.1694 -0.6597  0.3682
    1MOL0     H  102   4.836   4.669   5.802  1.5802  0.9368 -1.5120
    1MOL0     H  103   4.889   4.665   5.971  0.9859 -0.0819  0.0438
    1MOL0     H  104   4.780   4.423   5.817 -2.4835 -1.0464  1.9035
    1MOL0     H  105   4.856   4.412   5.979 -0.0420 -0.2710  0.3509
    1MOL0     H  106   4.624   4.587   5.924 -1.8266  0.7815  2.0729
    1MOL0     H  107   4.711   4.559   6.072  3.4995 -0.3941 -0.6241
    1MOL0     H  108   4.645   4.319   6.061 -1.9923 -1.5161 -0.6383
    1MOL0     H  109   4.598   4.337   5.895  2.0886  3.0034 -1.6665
    1MOL0     H  110   4.471   4.476   6.141 -2.2046  2.7243 -0.6859
    1MOL0     H  111   4.398   4.486   5.980 -0.9929  1.2890  1.6773
    1MOL0     H  112   4.412   4.220   6.125  1.4651 -0.8049 -2.8026
    1MOL0     H  113   4.349   4.258   5.967  0.0109 -0.7613 -0.0334
    1MOL0     H  114   5.495   4.668   5.737 -1.0613  1.3310  0.4555
    1MOL0     H  115   5.680   4.599   5.915  0.2316 -2.8678  2.8357
    1MOL0     H  116   5.652   4.622   6.410  0.0724 -0.6869 -0.5305
    1MOL0     H  117   5.781   4.603   6.634  2.7223  1.7956 -0.8411
    1MOL0     H  118   7.607   5.355   6.797 -0.0893 -1.1888  1.6619
    1MOL0     H  119   7.847   5.323   6.742 -1.2134  1.1081 -2.0034
    1MOL0     H  120   8.066   4.991   6.431  0.4255 -1.3332 -5.0133
    1MOL0     H  121   8.256   4.930   6.291  1.1972 -0.5539  1.3434
    1MOL0     H  122   8.660   4.972   6.407  3.6662 -2.0499 -2.0639
    1MOL0     H  123   8.646   5.146   6.376 -4.4778  0.8741  0.4512
    1MOL0     H  124   8.725   5.108   6.138 -0.3838  1.0325  0.1875
    1MOL0     H  125   8.839   5.062   6.266  1.9711 -1.6722 -0.7940
    1MOL0     H  126   8.633   4.868   6.135  0.8802  1.0419 -0.8942
    1MOL0     H  127   8.723   4.827   6.269 -0.5699  2.4373  2.3929
    1MOL0     H  128   8.834   4.734   6.063  2.4801 -0.6706 -0.4003
    1MOL0     H  129   8.817   4.892   5.985 -1.1795 -2.3821 -0.9762
    1MOL0     H  130   9.186   4.916   6.191  0.3030 -1.3651 -3.9535
    1MOL0     H  131   8.491   5.223   6.522 -1.1304  0.4481  0.2667
    1MOL0     H  132   8.305   5.281   6.639 -1.4911  2.7102 -1.9226
    2MOL0     O  133   6.784   8.364   7.966 -0.1642  0.0714 -0.3360
    2MOL0     C  134   6.779   8.253   7.921 -0.5557  0.7055 -0.3726
    2MOL0     O  135   6.878   8.163   7.924 -0.1355  0.5392 -0.6725
    2MOL0     C  136   7.006   8.196   7.964  0.0586 -0.4242 -0.2461
    2MOL0     C  137   7.097   8.165   7.875  0.0262 -0.4462  0.6512
    2MOL0     C  138   7.226   8.201   7.896 -0.3429  0.1283  0.5324
    2MOL0     C  139   7.266   8.270   8.013 -0.2830 -0.2753 -0.3447
    2MOL0     O  140   7.398   8.315   8.031 -0.3431 -0.2491 -0.3022
    2MOL0     C  141   7.505   8.240   7.966  0.1068 -0.1197  0.6187
    2MOL0     C  142   7.640   8.265   8.027  0.2965 -0.4950 -0.3055
    2MOL0     C  143   7.758   8.205   7.961  0.1339  0.4254  1.0699
    2MOL0     C  144   7.884   8.252   8.030 -0.1577 -0.1579  0.1819
    2MOL0     C  145   8.007   8.161   7.988  0.0891  0.1442 -0.1260
    2MOL0     C  146   8.142   8.226   8.037  0.4918  0.2655 -0.3079
    2MOL0     C  147   8.248   8.123   8.030 -1.0546 -0.5486 -0.9350
    2MOL0     C  148   8.372   8.191   8.079 -0.1756  0.5345  0.4265
    2MOL0     N  149   8.395   8.187   8.228  0.4112 -0.6264 -0.2457
    2MOL0     C  150   8.392   8.085   8.321  0.2879  0.1106  0.3261
    2MOL0     C  151   8.407   8.143   8.446 -0.8604 -0.3951  0.4809
    2MOL0     C  152   8.391   8.065   8.570 -0.0405 -0.1554  0.0585
    2MOL0     C  153   8.255   8.106   8.622 -0.6255 -0.4797 -0.3502
    2MOL0     C  154   8.223   8.006   8.728 -0.2831 -0.5027  0.3580
    2MOL0     C  155   8.088   8.026   8.794  0.1258  0.0101 -0.4390
    2MOL0     O  156   7.984   7.970   8.713 -0.0426 -0.2671 -0.1391
    2MOL0     C  157   7.856   7.998   8.752  0.4168  0.7717 -0.0850
    2MOL0     C  158   7.759   7.944   8.669 -0.3134 -0.1400 -0.2497
    2MOL0     C  159   7.624   7.981   8.671  0.2041 -0.5985 -0.4874
    2MOL0     C  160   7.566   8.048   8.786 -0.5126 -0.5300 -0.9458
    2MOL0     C  161   7.423   8.074   8.794  0.3651 -0.5620  0.5453
    2MOL0     O  162   7.346   8.015   8.705  0.7362 -0.9389  0.7217
    2MOL0     C  163   7.205   8.016   8.700 -0.1694  0.2649 -0.6569
    2MOL0     C  164   7.111   8.109   8.755  0.4314  0.9454 -0.7819
    2MOL0     C  165   6.976   8.082   8.750 -0.3111 -0.4749  0.3402
    2MOL0     C  166   6.921   7.970   8.677 -0.0885  0.1478 -0.7348
    2MOL0     O  167   6.781   7.952   8.664  0.1485  0.0502  0.1504
    2MOL0     C  168   6.694   8.060   8.676  0.0774 -0.7799 -0.1379
    2MOL0     C  169   6.555   8.020   8.619 -0.6648 -0.5189  0.2796
    2MOL0     C  170   6.448   8.117   8.655  0.1549 -0.5222  0.1782
    2MOL0     C  171   6.468   8.255   8.578 -0.0996 -0.7401  0.0118
    2MOL0     C  172   6.345   8.345   8.622 -0.7679 -0.0660 -0.7851
    2MOL0     C  173   6.226   8.314   8.529 -0.1270  0.4174 -0.9233
    2MOL0     C  174   6.085   8.355   8.582 -0.5781 -0.0499  0.1441
    2MOL0     C  175   6.053   8.501   8.565 -0.9418 -1.2458 -0.0380
    2MOL0    Cl  176   5.884   8.516   8.572 -0.0554  0.4323 -0.2949
    2MOL0     C  177   7.014   7.880   8.629  0.6749  0.4024  0.1802
    2MOL0     C  178   7.149   7.903   8.636 -1.0659  0.1700 -0.1672
    2MOL0     O  179   7.376   8.126   8.893 -0.1104  0.0900  0.1282
    2MOL0     C  180   7.661   8.087   8.883  0.1335  0.5367 -0.3949
    2MOL0     C  181   7.799   8.064   8.867  0.4259 -0.6054  0.4634
    2MOL0     N  182   8.417   8.274   8.422  0.1794  0.1822 -0.1238
    2MOL0     N  183   8.407   8.299   8.294 -0.7362  0.5628  0.1662
    2MOL0     C  184   7.161   8.303   8.106  0.5145 -0.0170 -0.0435
    2MOL0     C  185   7.028   8.276   8.080 -0.6219  0.7384  0.5315
    2MOL0     C  186   6.647   8.200   7.880 -0.0642 -0.2412 -0.4573
    2MOL0     C  187   6.539   8.288   7.872 -0.0917 -1.3494 -0.6140
    2MOL0     C  188   6.414   8.243   7.831  0.1396  0.7380 -0.7422
    2MOL0     C  189   6.389   8.112   7.801 -1.0519  0.4243 -0.3646
    2MOL0     O  190   6.274   8.058   7.761 -0.0031  0.1058  0.1991
    2MOL0     C  191   6.162   8.144   7.729  0.4250 -0.4472  0.4099
    2MOL0     C  192   6.063   8.059   7.642  0.1516  0.0591  0.2480
    2MOL0     C  193   5.991   7.954   7.717  0.5869  0.2880 -0.3094
    2MOL0     C  194   5.877   7.893   7.641  0.2025  0.3030 -0.7273
    2MOL0     C  195   5.914   7.827   7.512 -0.1948  0.2163 -0.9151
    2MOL0     C  196   5.938   7.771   7.411  0.5637 -0.0860 -0.7357
    2MOL0     C  197   6.496   8.024   7.809 -0.0055 -0.3357  1.5525
    2MOL0     C  198   6.625   8.065   7.845 -0.0500 -0.9118 -0.4119
    2MOL0     H  199   7.044   8.115   7.795 -1.7840 -0.1018  1.5786
    2MOL0     H  200   7.292   8.170   7.816 -0.9476  0.2564 -0.0194
    2MOL0     H  201   7.489   8.288   7.869  0.5666 -0.0302  0.5861
    2MOL0     H  202   7.487   8.133   7.955 -0.6083  0.1996 -1.7734
    2MOL0     H  203   7.630   8.228   8.130  0.3348  1.2184  0.3524
    2MOL0     H  204   7.651   8.373   8.037  0.3007 -0.4458 -0.8398
    2MOL0     H  205   7.764   8.235   7.856  2.3292 -0.5317  0.8650
    2MOL0     H  206   7.752   8.095   7.963 -0.7589  0.3218 -2.1114
    2MOL0     H  207   7.893   8.358   8.005  1.5241 -0.6043 -1.3708
    2MOL0     H  208   7.864   8.253   8.137  0.5596  1.8374  0.3394
    2MOL0     H  209   8.004   8.165   7.879  1.7560  2.4782 -0.1713
    2MOL0     H  210   8.000   8.057   8.020  4.7495  0.1886  1.8694
    2MOL0     H  211   8.129   8.263   8.139 -0.3048 -0.5326 -0.1018
    2MOL0     H  212   8.169   8.308   7.970 -0.5649 -0.6913 -2.0104
    2MOL0     H  213   8.212   8.044   8.096 -0.1799 -0.3021 -0.1436
    2MOL0     H  214   8.270   8.090   7.928 -0.9110 -2.0557 -0.4401
    2MOL0     H  215   8.388   8.290   8.035  2.9158  0.2921  0.7698
    2MOL0     H  216   8.458   8.142   8.031 -1.4904 -1.4262 -0.0200
    2MOL0     H  217   8.373   7.980   8.301 -1.9655  0.7224 -1.2052
    2MOL0     H  218   8.479   8.084   8.633 -0.3178  1.3867  0.0215
    2MOL0     H  219   8.393   7.957   8.554  1.2438  0.0266 -1.2395
    2MOL0     H  220   8.172   8.109   8.551  1.5437  1.4983 -2.9699
    2MOL0     H  221   8.252   8.211   8.653  1.1042 -0.7771  1.0111
    2MOL0     H  222   8.229   7.902   8.696  0.4254 -0.9316  1.8261
    2MOL0     H  223   8.301   8.021   8.802  0.4708 -1.3114 -0.2532
    2MOL0     H  224   8.064   8.129   8.824 -0.3465 -0.7376  2.0159
    2MOL0     H  225   8.093   7.974   8.890 -2.2812 -0.0520 -0.2665
    2MOL0     H  226   7.784   7.878   8.587 -0.6013 -0.3144 -0.2004
    2MOL0     H  227   7.551   7.948   8.599  0.7795 -0.2126 -1.2622
    2MOL0     H  228   7.138   8.206   8.795  0.4232  0.6285  0.0321
    2MOL0     H  229   6.910   8.157   8.793  2.8036  1.0227  2.9460
    2MOL0     H  230   6.736   8.143   8.618 -0.7036 -0.6489 -0.5238
    2MOL0     H  231   6.679   8.099   8.777 -0.2617  0.9381 -0.8124
    2MOL0     H  232   6.540   7.918   8.657 -0.3150 -1.4898 -1.9772
    2MOL0     H  233   6.562   8.013   8.510 -2.4600 -0.2826  0.1244
    2MOL0     H  234   6.450   8.133   8.763 -1.2463 -0.5392  0.2292
    2MOL0     H  235   6.353   8.071   8.628  0.1100 -0.6759  0.6040
    2MOL0     H  236   6.564   8.303   8.595 -0.1344 -0.5121 -0.4243
    2MOL0     H  237   6.477   8.232   8.471  1.8957  1.9848 -0.5095
    2MOL0     H  238   6.374   8.451   8.616  0.0990 -0.2004  0.5950
    2MOL0     H  239   6.328   8.330   8.729  0.6393  1.9218 -0.2087
    2MOL0     H  240   6.225   8.204   8.529  0.0449  0.4171 -0.5421
    2MOL0     H  241   6.237   8.353   8.427 -0.3193  1.5965 -0.4966
    2MOL0     H  242   6.023   8.289   8.520  0.7517  0.8060 -2.2282
    2MOL0     H  243   6.072   8.326   8.687 -1.7215  3.3915  1.1031
    2MOL0     H  244   6.089   8.531   8.467  0.3317 -3.6041 -0.3454
    2MOL0     H  245   6.101   8.562   8.642 -1.8516  1.5614 -1.5634
    2MOL0     H  246   6.983   7.790   8.577 -1.5061 -0.1136  2.2063
    2MOL0     H  247   7.220   7.834   8.592 -1.0116  0.3169 -0.3103
    2MOL0     H  248   7.628   8.139   8.972  0.2183  0.4467 -0.3108
    2MOL0     H  249   7.869   8.099   8.941 -0.5335 -0.2033  1.1988
    2MOL0     H  250   7.185   8.375   8.184 -0.4507  1.4037 -1.0015
    2MOL0     H  251   6.948   8.305   8.148 -0.2185 -2.8068  2.7842
    2MOL0     H  252   6.539   8.393   7.901 -1.2762 -1.5200  0.0572
    2MOL0     H  253   6.337   8.319   7.825 -2.1266 -1.4752 -1.1769
    2MOL0     H  254   6.198   8.228   7.669  4.5125 -2.0426  0.2405
    2MOL0     H  255   6.116   8.175   7.823  1.0157  0.5617  0.3806
    2MOL0     H  256   5.995   8.141   7.615  2.1746  2.3515  1.6463
    2MOL0     H  257   6.117   8.017   7.557 -3.3682 -2.4960 -0.9725
    2MOL0     H  258   5.943   7.991   7.808  0.6333 -1.9044  0.6977
    2MOL0     H  259   6.063   7.876   7.745 -1.4794 -1.0763  1.6401
    2MOL0     H  260   5.832   7.822   7.711 -0.5281  0.3736 -1.1227
    2MOL0     H  261   5.794   7.962   7.630 -1.7211 -1.7358  0.1532
    2MOL0     H  262   5.959   7.718   7.320 -1.4005  2.0766 -2.6063
    2MOL0     H  263   6.478   7.923   7.774 -0.7738  0.4423 -0.4283
    2MOL0     H  264   6.707   7.996   7.863 -0.5524 -1.1346  1.2398
    3MOL0     O  265   1.562   2.133   6.476 -0.6574  0.5603 -0.2785
    3MOL0     C  266   1.557   2.017   6.435 -0.3851 -0.0916 -0.1318
    3MOL0     O  267   1.458   1.951   6.368 -0.2024 -1.1996  0.2168
    3MOL0     C  268   1.328   1.999   6.373  0.4761 -1.1787  0.4930
    3MOL0     C  269   1.240   1.912   6.420 -0.3281 -0.6770 -1.0414
    3MOL0     C  270   1.108   1.954   6.430  0.4842 -0.2307 -0.6533
    3MOL0     C  271   1.064   2.077   6.375 -0.4540 -0.3528  0.0630
    3MOL0     O  272   0.944   2.119   6.408 -0.3018  0.0698 -0.3156
    3MOL0     C  273   0.900   2.251   6.377  0.6127  0.1646 -0.0759
    3MOL0     C  274   0.762   2.267   6.435 -0.4419 -0.4149 -0.4195
    3MOL0     C  275   0.687   2.403   6.391  0.0538 -0.7925 -0.5417
    3MOL0     C  276   0.546   2.420   6.470 -0.4993 -0.2428  0.5553
    3MOL0     C  277   0.462   2.540   6.422 -0.5745  0.2084 -1.3201
    3MOL0     C  278   0.333   2.532   6.512 -0.4474 -0.0532 -0.2595
    3MOL0     C  279   0.249   2.663   6.506  0.7631 -0.0786  0.0145
    3MOL0     C  280   0.140   2.665   6.611  0.4420 -1.2543  0.3450
    3MOL0     N  281   0.078   2.796   6.643 -0.0828  0.4998  0.8489
    3MOL0     C  282   0.028   2.891   6.556 -0.4413  0.4283 -0.5452
    3MOL0     C  283  -0.023   2.981   6.642 -0.1905 -0.1125 -0.2570
    3MOL0     C  284  -0.077   3.110   6.601  0.3215 -0.1691  0.8744
    3MOL0     C  285  -0.234   3.115   6.617  0.0576  0.4097 -0.2073
    3MOL0     C  286  -0.276   3.091   6.768 -0.7887  0.7770 -0.3654
    3MOL0     C  287  -0.406   3.154   6.794 -0.3871 -0.7200  0.4404
    3MOL0     O  288  -0.437   3.132   6.935  0.0868 -0.0469  0.1235
    3MOL0     C  289  -0.558   3.172   6.975 -0.3015  0.3155  0.5247
    3MOL0     C  290  -0.597   3.168   7.110  0.1466 -0.5816  0.1677
    3MOL0     C  291  -0.721   3.199   7.156 -0.2571  0.4585  0.1244
    3MOL0     C  292  -0.818   3.243   7.059 -0.5602  0.6128 -0.3352
    3MOL0     C  293  -0.959   3.265   7.103  0.2468  0.9658 -0.1644
    3MOL0     O  294  -0.993   3.205   7.221 -0.2019 -0.9524  0.5174
    3MOL0     C  295  -1.117   3.228   7.262  0.2129 -0.6668  0.3978
    3MOL0     C  296  -1.231   3.194   7.178  0.4892 -1.4983  0.3531
    3MOL0     C  297  -1.357   3.219   7.231  0.6468 -0.5792 -0.4139
    3MOL0     C  298  -1.376   3.291   7.356  0.7579  0.5667 -0.0783
    3MOL0     O  299  -1.507   3.311   7.388 -0.2559 -0.3353 -0.2093
    3MOL0     C  300  -1.530   3.362   7.518 -0.2527  0.0490 -0.1950
    3MOL0     C  301  -1.665   3.340   7.575 -0.4186 -0.1957  0.1602
    3MOL0     C  302  -1.778   3.428   7.499  0.1392 -0.2466  0.2257
    3MOL0     C  303  -1.914   3.392   7.554  0.6349  0.3179 -0.2731
    3MOL0     C  304  -2.021   3.492   7.516  0.3116 -0.0825 -0.6917
    3MOL0     C  305  -2.092   3.488   7.381 -0.6657  0.2036 -0.2315
    3MOL0     C  306  -2.206   3.589   7.383 -1.1173  0.4719 -0.0840
    3MOL0     C  307  -2.148   3.735   7.368  0.4705 -0.2809 -0.3379
    3MOL0    Cl  308  -2.278   3.849   7.343  0.4914 -0.1967 -0.6232
    3MOL0     C  309  -1.264   3.326   7.438 -0.5728  0.4614  0.1493
    3MOL0     C  310  -1.141   3.297   7.383  0.2091  0.3343 -0.2860
    3MOL0     O  311  -1.029   3.346   7.041  0.2156  0.1336 -0.3314
    3MOL0     C  312  -0.777   3.264   6.925 -0.2667 -0.7036  0.3761
    3MOL0     C  313  -0.651   3.229   6.889  0.7917  0.5041 -0.6687
    3MOL0     N  314  -0.004   2.948   6.771 -0.2743  0.1439 -0.4716
    3MOL0     N  315   0.062   2.837   6.767 -0.3423  0.4108  0.2605
    3MOL0     C  316   1.158   2.154   6.306  0.7481 -0.2530  0.3577
    3MOL0     C  317   1.290   2.114   6.308 -0.9043  0.6075  1.0755
    3MOL0     C  318   1.675   1.935   6.451  0.1725  0.5172  0.9166
    3MOL0     C  319   1.801   1.994   6.480 -0.1114  0.0518 -0.3181
    3MOL0     C  320   1.915   1.920   6.491  0.6995 -0.1295 -0.5944
    3MOL0     C  321   1.913   1.784   6.478  0.4512 -0.2994 -0.6695
    3MOL0     O  322   2.032   1.711   6.467 -0.2370 -0.2163 -0.1701
    3MOL0     C  323   2.035   1.574   6.426 -0.3101  0.5418 -0.3854
    3MOL0     C  324   2.174   1.518   6.411 -0.1099 -0.5124 -0.3698
    3MOL0     C  325   2.252   1.531   6.544 -0.8501 -0.7467  0.1877
    3MOL0     C  326   2.392   1.486   6.514 -0.2321 -0.7627 -0.2982
    3MOL0     C  327   2.465   1.437   6.632 -0.0728 -0.0277  0.3445
    3MOL0     C  328   2.528   1.386   6.726 -0.8621 -0.3221 -0.3581
    3MOL0     C  329   1.787   1.718   6.454 -0.3203 -1.0073  0.8143
    3MOL0     C  330   1.670   1.793   6.442  0.3603  0.0347  0.1724
    3MOL0     H  331   1.270   1.821   6.470  0.1457 -0.0438 -0.1332
    3MOL0     H  332   1.044   1.896   6.495  1.9294 -0.5713  0.4960
    3MOL0     H  333   0.892   2.262   6.268  0.8379 -0.4753 -0.1580
    3MOL0     H  334   0.963   2.328   6.422  1.2123 -1.0292  1.2020
    3MOL0     H  335   0.762   2.264   6.544 -0.9268 -2.1855 -0.4468
    3MOL0     H  336   0.696   2.186   6.403 -0.8412 -0.9796  1.6860
    3MOL0     H  337   0.662   2.399   6.285 -0.3857 -0.3307 -0.4543
    3MOL0     H  338   0.750   2.489   6.417  1.6411 -2.4243  1.4505
    3MOL0     H  339   0.485   2.331   6.449  1.9616 -1.2744 -3.1824
    3MOL0     H  340   0.562   2.424   6.578  0.7150 -2.1118  0.4987
    3MOL0     H  341   0.432   2.540   6.317  0.0939 -1.3890 -1.5357
    3MOL0     H  342   0.521   2.629   6.444 -0.1561 -0.3483 -0.0879
    3MOL0     H  343   0.360   2.513   6.617 -2.9938 -0.2343  0.4231
    3MOL0     H  344   0.265   2.449   6.489 -1.5858  0.6089  0.6020
    3MOL0     H  345   0.316   2.747   6.528  2.6867 -0.5553 -3.2888
    3MOL0     H  346   0.203   2.673   6.407  2.5439 -2.4456 -1.1544
    3MOL0     H  347   0.167   2.620   6.707  2.5145  2.3717  1.6755
    3MOL0     H  348   0.062   2.606   6.564  0.8145 -2.9990  1.7990
    3MOL0     H  349   0.025   2.893   6.447  0.4532  0.3945 -0.5796
    3MOL0     H  350  -0.047   3.133   6.499  1.7474 -0.6147  1.1720
    3MOL0     H  351  -0.021   3.184   6.659 -0.8276 -1.3207  3.6277
    3MOL0     H  352  -0.282   3.044   6.549  0.0950 -0.5606  0.7364
    3MOL0     H  353  -0.260   3.215   6.581  2.2898  1.2260  0.2914
    3MOL0     H  354  -0.284   2.985   6.794  3.2760  0.2599 -0.5539
    3MOL0     H  355  -0.209   3.142   6.838 -0.0727  1.2543 -1.3904
    3MOL0     H  356  -0.479   3.102   6.731 -0.4934 -1.8086  1.4427
    3MOL0     H  357  -0.404   3.260   6.766 -0.1905 -0.0580  2.7564
    3MOL0     H  358  -0.525   3.128   7.180 -2.1966 -1.4001  2.2655
    3MOL0     H  359  -0.751   3.177   7.258 -1.9903  1.3070 -0.1810
    3MOL0     H  360  -1.220   3.146   7.081  1.5575 -0.8885  0.1512
    3MOL0     H  361  -1.448   3.195   7.177 -0.7659 -0.1335  1.6310
    3MOL0     H  362  -1.509   3.469   7.520  2.1506 -0.3645  1.1769
    3MOL0     H  363  -1.469   3.308   7.591 -1.3254 -1.5195 -0.4056
    3MOL0     H  364  -1.668   3.360   7.682  0.5552 -1.7125  0.5012
    3MOL0     H  365  -1.672   3.232   7.558  1.9943 -0.1679 -1.6015
    3MOL0     H  366  -1.784   3.405   7.392  1.8298  0.1907 -0.0000
    3MOL0     H  367  -1.750   3.532   7.519  0.9297 -0.2409 -0.8108
    3MOL0     H  368  -1.950   3.294   7.521 -1.6305  0.9237  0.2976
    3MOL0     H  369  -1.890   3.391   7.661 -2.1183 -0.2522  0.3946
    3MOL0     H  370  -1.976   3.591   7.531  0.8873 -0.1046 -2.0759
    3MOL0     H  371  -2.108   3.485   7.581 -0.1574  2.3702 -0.9545
    3MOL0     H  372  -2.118   3.383   7.370  0.0965  0.0170 -0.3244
    3MOL0     H  373  -2.030   3.512   7.295  1.2068 -3.1165  0.0269
    3MOL0     H  374  -2.264   3.560   7.295  0.7770 -0.8601 -0.9796
    3MOL0     H  375  -2.273   3.587   7.469 -1.3270  2.4235 -0.1661
    3MOL0     H  376  -2.070   3.744   7.292 -1.3892  2.1561 -2.1467
    3MOL0     H  377  -2.099   3.757   7.463  0.4431  0.5757 -0.5125
    3MOL0     H  378  -1.260   3.380   7.532  1.1184 -1.7259  1.4563
    3MOL0     H  379  -1.053   3.323   7.440  0.9535 -0.6732 -0.9548
    3MOL0     H  380  -0.850   3.286   6.849 -2.8038 -0.6171  2.6848
    3MOL0     H  381  -0.632   3.229   6.782  2.4707  0.1186 -0.3980
    3MOL0     H  382   1.125   2.247   6.259  1.9328 -0.0785 -0.1748
    3MOL0     H  383   1.368   2.167   6.255  1.3366 -3.3096  0.0824
    3MOL0     H  384   1.807   2.101   6.497  0.9355 -0.1806  0.9728
    3MOL0     H  385   2.016   1.957   6.503  0.7542 -0.1313 -1.0261
    3MOL0     H  386   1.986   1.574   6.328  0.6302  2.9774 -0.9358
    3MOL0     H  387   1.981   1.509   6.494  2.3930 -0.0839  1.3264
    3MOL0     H  388   2.165   1.413   6.383 -1.3870 -1.1851  2.2444
    3MOL0     H  389   2.228   1.576   6.335 -0.2022  2.0669  1.3860
    3MOL0     H  390   2.214   1.469   6.626 -1.5194  0.4375  0.8008
    3MOL0     H  391   2.261   1.633   6.581  1.1014 -0.6720 -0.4172
    3MOL0     H  392   2.385   1.409   6.437 -1.1098 -1.2333  0.2324
    3MOL0     H  393   2.452   1.558   6.457 -0.2508 -0.3626  0.1797
    3MOL0     H  394   2.565   1.342   6.816  0.5657 -1.2913 -1.3727
    3MOL0     H  395   1.778   1.610   6.441 -3.3048 -0.5077 -3.1763
    3MOL0     H  396   1.573   1.744   6.437  0.2785  0.1739  0.4081
    4MOL0     O  397   6.641   4.440   4.142 -0.1446  0.3384 -0.6913
    4MOL0     C  398   6.669   4.412   4.258  0.4775 -0.1802  0.2413
    4MOL0     O  399   6.598   4.345   4.355  0.1117 -0.0265  0.3494
    4MOL0     C  400   6.465   4.323   4.335 -0.6099  0.1808  0.7376
    4MOL0     C  401   6.408   4.224   4.412 -1.0821  0.0339  0.0132
    4MOL0     C  402   6.274   4.183   4.396  0.1744 -0.1044 -0.5035
    4MOL0     C  403   6.193   4.247   4.301  0.7425  0.1039  0.1299
    4MOL0     O  404   6.065   4.188   4.284 -0.1628 -0.3449 -0.1685
    4MOL0     C  405   5.987   4.235   4.174 -0.2942 -0.4396  0.0257
    4MOL0     C  406   5.850   4.170   4.189  0.0265 -0.2685  1.2172
    4MOL0     C  407   5.750   4.232   4.093 -1.3135 -0.0661  0.2933
    4MOL0     C  408   5.622   4.148   4.085  0.1724 -0.0041 -0.5309
    4MOL0     C  409   5.513   4.227   4.009 -0.2885 -0.0209  0.6570
    4MOL0     C  410   5.530   4.231   3.860 -0.4205  0.4997 -0.0157
    4MOL0     C  411   5.539   4.101   3.790  0.8756 -0.0970  0.2729
    4MOL0     C  412   5.411   4.027   3.802  0.4648 -0.1940 -0.0794
    4MOL0     N  413   5.300   4.093   3.728  0.2613 -0.0800 -1.0671
    4MOL0     C  414   5.268   4.081   3.595  1.0881 -0.3454 -0.7560
    4MOL0     C  415   5.145   4.135   3.584 -0.1702  0.1702  0.1183
    4MOL0     C  416   5.066   4.153   3.454  0.1423  0.4937  0.4144
    4MOL0     C  417   4.983   4.029   3.428 -0.0125  0.1694  0.3560
    4MOL0     C  418   4.905   4.027   3.286  0.1989  0.2458 -0.9345
    4MOL0     C  419   4.778   3.943   3.297  0.4381  0.2900 -0.2462
    4MOL0     O  420   4.682   4.000   3.202  0.8828  0.7072  0.3681
    4MOL0     C  421   4.550   3.955   3.185  0.5839 -0.7062 -0.5330
    4MOL0     C  422   4.481   4.013   3.083  0.1800 -0.2440 -0.1891
    4MOL0     C  423   4.354   3.978   3.056  0.0335  0.5367 -0.5892
    4MOL0     C  424   4.287   3.889   3.139  0.0006  0.2599  0.1118
    4MOL0     C  425   4.147   3.849   3.113 -0.2756 -0.2815 -0.5406
    4MOL0     O  426   4.071   3.909   3.006  0.5067 -0.1616 -0.5459
    4MOL0     C  427   3.954   3.870   2.955  0.3162  0.7594  0.8257
    4MOL0     C  428   3.868   3.775   3.016  0.2472  0.8000  0.2680
    4MOL0     C  429   3.747   3.733   2.957  0.1643  0.3067  0.6782
    4MOL0     C  430   3.708   3.784   2.841 -0.1172 -0.8468  0.3308
    4MOL0     O  431   3.593   3.735   2.787  0.0726 -1.0015  0.4413
    4MOL0     C  432   3.494   3.837   2.757  0.2757  0.6195  0.4857
    4MOL0     C  433   3.354   3.771   2.746 -0.3240  0.0182  0.1596
    4MOL0     C  434   3.298   3.745   2.890  0.4813  0.3158 -0.4211
    4MOL0     C  435   3.158   3.693   2.874  0.2231 -0.0266  0.4460
    4MOL0     C  436   3.072   3.705   2.996  0.7184  0.5626  0.4886
    4MOL0     C  437   2.928   3.676   2.949 -0.5503 -0.5704 -0.3072
    4MOL0     C  438   2.846   3.669   3.077 -0.4228 -0.0428  0.4141
    4MOL0     C  439   2.706   3.660   3.028 -0.9483 -0.2949 -0.4445
    4MOL0    Cl  440   2.609   3.664   3.180 -0.3728 -0.5699 -0.1394
    4MOL0     C  441   3.784   3.885   2.776 -0.2762  0.7882 -0.1148
    4MOL0     C  442   3.906   3.932   2.839 -0.6954  0.7678  0.0925
    4MOL0     O  443   4.105   3.756   3.181 -0.5637 -0.3233 -0.6439
    4MOL0     C  444   4.352   3.827   3.246 -0.8085  0.7242  0.0191
    4MOL0     C  445   4.484   3.862   3.274 -0.3648  0.1241 -0.6801
    4MOL0     N  446   5.111   4.190   3.711  0.1123 -0.1438  0.8275
    4MOL0     N  447   5.208   4.170   3.792 -0.0541  0.2635 -0.2697
    4MOL0     C  448   6.248   4.352   4.231  0.3973 -0.2635  0.8000
    4MOL0     C  449   6.374   4.392   4.249 -1.1747  0.1932  0.4062
    4MOL0     C  450   6.805   4.457   4.306  0.2964  0.1268  0.1467
    4MOL0     C  451   6.856   4.425   4.432  1.3689 -0.4545  0.4450
    4MOL0     C  452   6.991   4.455   4.468  0.9452 -0.2163 -0.1011
    4MOL0     C  453   7.067   4.535   4.385  0.6765 -1.1123 -1.1748
    4MOL0     O  454   7.188   4.588   4.417  0.1100  0.2168  0.5731
    4MOL0     C  455   7.263   4.549   4.533  0.0583  0.4051 -0.2409
    4MOL0     C  456   7.386   4.637   4.570  0.6256 -0.0873  0.3493
    4MOL0     C  457   7.486   4.656   4.454  0.8250  0.0759 -0.6338
    4MOL0     C  458   7.591   4.759   4.470  0.5373  0.0539  0.0932
    4MOL0     C  459   7.622   4.828   4.344 -0.1537  0.3096 -0.7371
    4MOL0     C  460   7.662   4.898   4.256  0.3359  1.0722  0.5883
    4MOL0     C  461   7.027   4.553   4.254  0.1544  0.2710 -0.3866
    4MOL0     C  462   6.897   4.515   4.219 -0.1040  0.2167 -0.6850
    4MOL0     H  463   6.467   4.169   4.485 -1.1068 -2.8288 -1.9438
    4MOL0     H  464   6.241   4.098   4.455 -0.8160 -0.5085 -1.5900
    4MOL0     H  465   6.036   4.218   4.078 -1.1290  0.2128 -0.5343
    4MOL0     H  466   5.969   4.343   4.170 -3.4536 -0.8033  1.2860
    4MOL0     H  467   5.827   4.165   4.296 -0.8226 -0.5168  1.0356
    4MOL0     H  468   5.858   4.070   4.144 -1.1431 -0.1158  0.6410
    4MOL0     H  469   5.792   4.246   3.993  1.2916  0.2519  1.3521
    4MOL0     H  470   5.724   4.330   4.132 -0.9162  0.1489  0.0214
    4MOL0     H  471   5.641   4.053   4.034  0.5228  0.3195 -1.0139
    4MOL0     H  472   5.585   4.135   4.187  1.9068  1.0577  0.2787
    4MOL0     H  473   5.522   4.321   4.065  3.2916 -1.0064  2.0294
    4MOL0     H  474   5.413   4.187   4.027 -0.0363  0.1433  2.7358
    4MOL0     H  475   5.620   4.288   3.833  0.6169 -1.5571 -1.0953
    4MOL0     H  476   5.460   4.303   3.818 -1.5178 -0.6648 -0.2389
    4MOL0     H  477   5.563   4.128   3.687 -1.7669 -1.0182 -0.6429
    4MOL0     H  478   5.605   4.021   3.828 -1.6928 -1.9286  1.1707
    4MOL0     H  479   5.393   4.019   3.910  0.9150  3.6034  0.4165
    4MOL0     H  480   5.412   3.926   3.761 -1.0204 -1.6336  3.0707
    4MOL0     H  481   5.327   4.035   3.516  2.0898  0.8108 -0.7229
    4MOL0     H  482   5.125   4.181   3.366  0.0595 -0.0238  0.1890
    4MOL0     H  483   5.010   4.246   3.459  1.2531  1.3881 -2.0503
    4MOL0     H  484   4.922   4.026   3.519  2.1465  0.9618  1.9263
    4MOL0     H  485   5.057   3.949   3.419 -2.2189 -1.7484 -5.0401
    4MOL0     H  486   4.894   4.133   3.263 -0.1822  0.3486 -0.3171
    4MOL0     H  487   4.978   4.004   3.209  2.8846  2.7415  0.6700
    4MOL0     H  488   4.752   3.935   3.403 -3.2902  0.1128 -1.0396
    4MOL0     H  489   4.790   3.841   3.259 -1.1366  0.6022 -1.7008
    4MOL0     H  490   4.554   4.052   3.013 -1.1568  1.1397 -0.8836
    4MOL0     H  491   4.317   4.027   2.967 -2.9332  2.2994  1.4328
    4MOL0     H  492   3.896   3.721   3.105  2.1816 -0.1941 -0.8729
    4MOL0     H  493   3.691   3.662   3.016 -1.9216  1.7899  0.6085
    4MOL0     H  494   3.520   3.884   2.662 -1.0394 -1.3903 -0.9337
    4MOL0     H  495   3.500   3.910   2.839 -0.8112  0.1382  1.0054
    4MOL0     H  496   3.382   3.678   2.695  2.8399  1.4193 -0.9493
    4MOL0     H  497   3.280   3.828   2.690 -0.2935  1.3122  1.4020
    4MOL0     H  498   3.291   3.832   2.956 -1.0730 -1.0568  1.3808
    4MOL0     H  499   3.375   3.683   2.937  1.9769  0.2818 -2.7690
    4MOL0     H  500   3.120   3.758   2.794 -0.4797  1.0078  1.5803
    4MOL0     H  501   3.165   3.587   2.848 -1.2032 -0.7932  2.9112
    4MOL0     H  502   3.074   3.811   3.025 -1.7509  0.5468  0.9282
    4MOL0     H  503   3.113   3.641   3.074  1.9988  1.4468  0.5840
    4MOL0     H  504   2.921   3.582   2.893  1.1466 -0.6874 -0.3935
    4MOL0     H  505   2.895   3.762   2.891  1.3377  0.3148 -0.1421
    4MOL0     H  506   2.872   3.576   3.128 -0.2399 -0.6379 -0.7192
    4MOL0     H  507   2.861   3.757   3.139 -2.7232  0.1955  0.7146
    4MOL0     H  508   2.695   3.571   2.966 -0.6909 -0.4112 -0.3267
    4MOL0     H  509   2.676   3.743   2.965  0.3031  0.7226  0.2527
    4MOL0     H  510   3.765   3.931   2.680  1.3033  0.6340 -0.5379
    4MOL0     H  511   3.970   4.009   2.797  2.4991 -1.8559 -0.2563
    4MOL0     H  512   4.313   3.756   3.317 -1.7620  2.8955  1.7896
    4MOL0     H  513   4.528   3.827   3.367 -0.2369 -1.6763 -1.3849
    4MOL0     H  514   6.188   4.406   4.158  1.8595 -0.4935 -0.6419
    4MOL0     H  515   6.413   4.472   4.187 -1.6253  0.2271  0.1594
    4MOL0     H  516   6.801   4.367   4.506  1.9781  0.6793  1.8578
    4MOL0     H  517   7.018   4.425   4.569 -1.5405  0.6252  0.9001
    4MOL0     H  518   7.294   4.448   4.507  0.9339  0.8321 -0.9385
    4MOL0     H  519   7.207   4.547   4.626  0.4430  0.1123 -0.0123
    4MOL0     H  520   7.346   4.736   4.595  0.3130 -0.3496  0.9025
    4MOL0     H  521   7.446   4.603   4.655  1.4874 -0.1137 -0.2653
    4MOL0     H  522   7.435   4.689   4.363 -2.4587  0.8279  1.3056
    4MOL0     H  523   7.529   4.556   4.440 -1.3653 -0.7028 -2.5458
    4MOL0     H  524   7.555   4.833   4.542  0.5748  0.6021 -0.4436
    4MOL0     H  525   7.688   4.726   4.508  1.7674 -3.2330 -4.9973
    4MOL0     H  526   7.690   4.971   4.182  0.9411  0.0307 -0.2445
    4MOL0     H  527   7.084   4.595   4.172  1.6656 -2.8019 -1.0414
    4MOL0     H  528   6.880   4.534   4.114 -0.2006 -0.6273 -0.8315
    5MOL0     O  529   9.388   0.761  10.611 -0.3303 -0.4074 -0.6000
    5MOL0     C  530   9.420   0.879  10.631 -0.2387 -0.6559 -0.0494
    5MOL0     O  531   9.347   0.986  10.598  0.2227  0.0823 -0.0457
    5MOL0     C  532   9.247   0.968  10.514  0.3152  0.2399 -0.1076
    5MOL0     C  533   9.122   1.012  10.554 -0.2150  0.0709  0.1268
    5MOL0     C  534   9.016   1.025  10.464 -0.6395  0.0805  0.2256
    5MOL0     C  535   9.033   0.983  10.332  0.7332 -0.4113  0.1647
    5MOL0     O  536   8.923   0.986  10.253 -0.4270 -0.0900 -0.8984
    5MOL0     C  537   8.926   0.960  10.115  0.1933  0.1467  0.2508
    5MOL0     C  538   8.796   0.984  10.042 -0.5818  0.1724  0.0969
    5MOL0     C  539   8.768   1.137  10.030  0.4315 -1.1052  0.3939
    5MOL0     C  540   8.645   1.154   9.940  0.2673  0.2425  1.1604
    5MOL0     C  541   8.600   1.296   9.913 -0.2104 -0.0525  0.1993
    5MOL0     C  542   8.471   1.298   9.829  0.1209 -0.7239 -0.0873
    5MOL0     C  543   8.435   1.445   9.807  0.8819  0.0775  0.0019
    5MOL0     C  544   8.313   1.458   9.714  0.1573 -0.3054  0.4346
    5MOL0     N  545   8.185   1.387   9.751 -0.3002 -0.0612 -0.5289
    5MOL0     C  546   8.132   1.376   9.881  0.2047 -0.4160  0.3480
    5MOL0     C  547   8.007   1.322   9.860  0.3178 -0.6994 -0.7766
    5MOL0     C  548   7.912   1.307   9.976  0.1168  0.1973  0.3413
    5MOL0     C  549   7.855   1.448  10.028  0.1790 -1.2129  0.5312
    5MOL0     C  550   7.797   1.534   9.908  0.4730 -0.3511  0.6881
    5MOL0     C  551   7.729   1.665   9.953 -0.1043  0.0360  0.2467
    5MOL0     O  552   7.806   1.744  10.051  0.2812  0.3548 -0.4456
    5MOL0     C  553   7.742   1.789  10.161 -0.4934  0.3782  0.8185
    5MOL0     C  554   7.617   1.853  10.152 -0.5741 -0.2492 -0.4559
    5MOL0     C  555   7.570   1.914  10.269 -0.1356  0.4425 -0.6032
    5MOL0     C  556   7.635   1.894  10.401  0.0097 -0.2427 -0.3984
    5MOL0     C  557   7.570   1.945  10.524  0.5574  0.1931  0.0899
    5MOL0     O  558   7.475   2.037  10.510  0.1077 -0.7302 -0.3653
    5MOL0     C  559   7.420   2.085  10.622  0.0473  0.8024  0.2290
    5MOL0     C  560   7.276   2.096  10.625  0.6139  0.2521  0.7121
    5MOL0     C  561   7.210   2.143  10.736  0.2593 -0.4928  0.2659
    5MOL0     C  562   7.275   2.188  10.846 -0.3411  0.9530  0.2447
    5MOL0     O  563   7.215   2.230  10.959  0.4523 -0.3609 -0.0593
    5MOL0     C  564   7.211   2.375  10.953 -0.9702 -0.3021  0.4263
    5MOL0     C  565   7.102   2.429  10.859  0.2218 -0.6434  0.6392
    5MOL0     C  566   6.958   2.413  10.919  0.3822 -0.3450  1.0743
    5MOL0     C  567   6.848   2.487  10.849 -0.2748 -0.7735  0.7672
    5MOL0     C  568   6.713   2.451  10.912  0.1274  0.2418 -0.6244
    5MOL0     C  569   6.613   2.531  10.830 -0.1403 -0.0378 -0.5212
    5MOL0     C  570   6.471   2.509  10.888  0.2707 -0.3241  0.4293
    5MOL0     C  571   6.364   2.603  10.829  0.1036  0.0395  1.1781
    5MOL0    Cl  572   6.207   2.577  10.902 -0.1893 -0.3210 -0.1133
    5MOL0     C  573   7.414   2.186  10.847 -0.0033  0.8458 -0.0238
    5MOL0     C  574   7.484   2.126  10.740  0.6883  0.6521  1.2826
    5MOL0     O  575   7.611   1.894  10.632 -0.0435  0.3616 -0.4530
    5MOL0     C  576   7.745   1.806  10.405 -0.4111  0.3189  1.0178
    5MOL0     C  577   7.796   1.753  10.284 -0.5490  0.4300 -0.4113
    5MOL0     N  578   7.983   1.304   9.732  0.6794 -0.6172  0.1499
    5MOL0     N  579   8.086   1.331   9.666 -0.3884 -0.7120 -0.5315
    5MOL0     C  580   9.158   0.936  10.290  0.3787  0.0186 -0.4862
    5MOL0     C  581   9.270   0.939  10.375 -0.0338  0.4222  0.4431
    5MOL0     C  582   9.560   0.908  10.692 -0.1473  0.1313  0.2770
    5MOL0     C  583   9.590   1.038  10.744  0.6076  0.7556  0.0890
    5MOL0     C  584   9.723   1.064  10.783 -0.1647  0.8273  0.0829
    5MOL0     C  585   9.816   0.958  10.792 -0.4204  0.1977 -0.5219
    5MOL0     O  586   9.946   0.969  10.836 -0.0405  0.2541  0.1699
    5MOL0     C  587  10.019   1.071  10.764  0.5178 -0.2560  0.6935
    5MOL0     C  588  10.162   1.067  10.814  0.0832 -0.2484 -0.1381
    5MOL0     C  589  10.243   1.180  10.771  0.8964  0.0164  0.2649
    5MOL0     C  590  10.261   1.205  10.619 -1.4788 -0.7889  0.3499
    5MOL0     C  591  10.338   1.099  10.552 -1.2829 -0.1586  0.2075
    5MOL0     C  592  10.413   1.007  10.521  0.6031 -0.5351 -0.3172
    5MOL0     C  593   9.772   0.825  10.766  0.7698 -0.7995 -0.4074
    5MOL0     C  594   9.647   0.801  10.707  0.2511  0.0277 -0.5306
    5MOL0     H  595   9.123   1.051  10.655 -0.4881  1.1509 -0.2792
    5MOL0     H  596   8.922   1.060  10.506 -1.8346 -1.6653 -0.8516
    5MOL0     H  597   8.964   0.860  10.090  2.1454  0.6847  0.8206
    5MOL0     H  598   8.998   1.029  10.069  2.1207 -1.4324  0.7564
    5MOL0     H  599   8.708   0.940  10.091 -1.0007  0.0873 -0.7131
    5MOL0     H  600   8.803   0.933   9.946  1.0996  0.0067  0.2824
    5MOL0     H  601   8.853   1.195   9.994  1.3382 -0.6410  3.0456
    5MOL0     H  602   8.757   1.171  10.134  1.7566 -0.0606  0.2093
    5MOL0     H  603   8.652   1.097   9.847 -0.2395  1.7462  0.1663
    5MOL0     H  604   8.567   1.108  10.001 -1.8241 -0.2017 -1.6831
    5MOL0     H  605   8.668   1.343   9.841  1.6671 -1.1094  1.2060
    5MOL0     H  606   8.610   1.353  10.006 -0.1943  1.6951 -0.8245
    5MOL0     H  607   8.394   1.244   9.885  1.0285 -1.7701  0.1929
    5MOL0     H  608   8.484   1.259   9.728 -3.5854  0.0239 -1.0144
    5MOL0     H  609   8.409   1.481   9.907 -4.0710 -3.6834  0.4214
    5MOL0     H  610   8.513   1.506   9.759  2.3576 -0.2144  1.8876
    5MOL0     H  611   8.347   1.422   9.616  2.5027 -0.2997  1.1955
    5MOL0     H  612   8.292   1.563   9.693  1.9498  0.0928  0.4961
    5MOL0     H  613   8.174   1.415   9.973  3.4901  0.7381 -1.4806
    5MOL0     H  614   7.975   1.261  10.053 -1.2649 -0.1200  1.3288
    5MOL0     H  615   7.833   1.238   9.943 -0.3961  0.8449  0.1884
    5MOL0     H  616   7.939   1.500  10.075 -0.1110 -1.5194  1.4158
    5MOL0     H  617   7.780   1.439  10.107 -0.4603  1.1301  0.2547
    5MOL0     H  618   7.883   1.558   9.845 -0.3330  0.1371 -0.2491
    5MOL0     H  619   7.736   1.469   9.845  2.7912 -2.2922  0.3059
    5MOL0     H  620   7.634   1.630   9.993  0.6477 -1.3122  0.9302
    5MOL0     H  621   7.704   1.727   9.866 -1.3105 -0.2567  0.3671
    5MOL0     H  622   7.566   1.874  10.059  0.5951  2.9790 -0.4981
    5MOL0     H  623   7.476   1.967  10.263 -0.5486 -0.4760 -5.0529
    5MOL0     H  624   7.228   2.065  10.533  3.8873 -2.2196 -0.3240
    5MOL0     H  625   7.103   2.161  10.735  0.4013  0.4030 -0.3860
    5MOL0     H  626   7.304   2.421  10.919 -1.5797 -0.5444 -1.6600
    5MOL0     H  627   7.181   2.405  11.054  0.9205 -0.2705  1.0285
    5MOL0     H  628   7.098   2.374  10.765 -0.5123  1.2176 -0.4594
    5MOL0     H  629   7.120   2.536  10.845 -1.9341 -0.0191  2.1322
    5MOL0     H  630   6.954   2.449  11.022 -1.9583 -0.9532  1.2418
    5MOL0     H  631   6.937   2.306  10.909 -1.9663  0.1303  0.2679
    5MOL0     H  632   6.869   2.595  10.851  2.6738 -1.1452 -1.7734
    5MOL0     H  633   6.849   2.464  10.742  3.3922  1.9894  0.0268
    5MOL0     H  634   6.709   2.491  11.013 -1.5336 -0.4292 -0.4024
    5MOL0     H  635   6.695   2.344  10.921 -0.0448  0.3123 -0.1319
    5MOL0     H  636   6.624   2.497  10.727  0.4168 -1.1242 -0.1302
    5MOL0     H  637   6.647   2.634  10.840 -0.0776 -0.0910 -0.1449
    5MOL0     H  638   6.431   2.412  10.857  0.0678  0.0089 -0.3768
    5MOL0     H  639   6.478   2.525  10.996  0.8681  2.1532  0.0827
    5MOL0     H  640   6.357   2.601  10.720  0.7514 -0.9132  1.1380
    5MOL0     H  641   6.395   2.703  10.859  1.3511 -0.0103  0.1379
    5MOL0     H  642   7.472   2.213  10.935 -1.8700 -2.9172  2.6246
    5MOL0     H  643   7.591   2.127  10.722  1.1370 -0.8060  3.4879
    5MOL0     H  644   7.776   1.779  10.505  1.4950  2.5387  1.1364
    5MOL0     H  645   7.881   1.686  10.299 -0.9005 -0.0743 -0.6263
    5MOL0     H  646   9.168   0.915  10.184  1.8962 -0.0330 -0.3544
    5MOL0     H  647   9.365   0.910  10.332  0.2378  2.6018 -0.5721
    5MOL0     H  648   9.511   1.111  10.755  0.6157  0.7308  0.3136
    5MOL0     H  649   9.771   1.156  10.815 -0.3255 -0.0629  3.2670
    5MOL0     H  650   9.987   1.175  10.776  0.8112 -0.3257  2.2987
    5MOL0     H  651  10.017   1.047  10.657 -1.2346 -1.2319  0.9063
    5MOL0     H  652  10.153   1.063  10.923  0.8808 -2.2832 -0.1052
    5MOL0     H  653  10.203   0.973  10.779 -1.2646 -0.1893 -2.0385
    5MOL0     H  654  10.340   1.161  10.817  0.5876  2.3063  2.0269
    5MOL0     H  655  10.207   1.273  10.817 -1.4520 -1.4125  1.4942
    5MOL0     H  656  10.164   1.210  10.569 -1.7462  1.1821  0.9430
    5MOL0     H  657  10.318   1.297  10.598 -1.3836 -0.9017  0.1123
    5MOL0     H  658  10.483   0.927  10.506 -0.7285 -1.6615 -0.6493
    5MOL0     H  659   9.853   0.752  10.762  1.7221  0.2330 -0.3366
    5MOL0     H  660   9.625   0.697  10.683  0.9538 -0.4273  0.7011
    6MOL0     O  661   6.223   3.326   4.388  0.0637  0.9293 -0.0611
    6MOL0     C  662   6.244   3.385   4.491 -0.5292  0.0818 -0.5436
    6MOL0     O  663   6.165   3.375   4.600  0.6000  0.1442 -0.4712
    6MOL0     C  664   6.050   3.305   4.587  0.9193 -0.2178  0.2262
    6MOL0     C  665   5.936   3.354   4.529 -0.9357  0.1059 -0.1079
    6MOL0     C  666   5.823   3.273   4.529 -0.3147 -0.2623  0.4923
    6MOL0     C  667   5.819   3.154   4.596 -0.1752 -0.2587 -0.1467
    6MOL0     O  668   5.704   3.090   4.607  0.0261  0.5725  0.1450
    6MOL0     C  669   5.654   3.035   4.478  0.5897 -0.0893 -0.2376
    6MOL0     C  670   5.540   2.943   4.511 -0.3285  0.8960  0.1629
    6MOL0     C  671   5.424   3.023   4.575 -0.1130 -0.7516  0.9256
    6MOL0     C  672   5.316   3.038   4.466 -0.2108 -0.3983  0.0216
    6MOL0     C  673   5.234   2.919   4.445  0.3404 -0.2313  0.1711
    6MOL0     C  674   5.122   2.950   4.347  0.5805 -0.4156  0.7735
    6MOL0     C  675   5.167   2.959   4.203  0.2531  0.3874 -0.4988
    6MOL0     C  676   5.070   3.048   4.111  0.1064 -0.0841  0.5498
    6MOL0     N  677   4.932   3.005   4.097  0.2025  0.0845 -0.2712
    6MOL0     C  678   4.819   3.028   4.183 -0.2737  0.1580  0.2813
    6MOL0     C  679   4.705   2.974   4.116 -0.4260 -1.0621  0.5715
    6MOL0     C  680   4.566   2.992   4.155  0.5448 -0.6193  0.4946
    6MOL0     C  681   4.465   3.025   4.044 -0.6596  0.4353  1.0156
    6MOL0     C  682   4.320   3.037   4.100 -0.0526  0.1766 -0.2296
    6MOL0     C  683   4.212   3.055   3.994 -1.3573  0.2477 -0.3851
    6MOL0     O  684   4.090   3.085   4.059 -0.1299  0.5339  0.7092
    6MOL0     C  685   3.975   3.119   3.980  0.2886  0.3438 -0.3562
    6MOL0     C  686   3.859   3.121   4.058 -0.4483  0.4129 -0.3241
    6MOL0     C  687   3.737   3.131   3.994 -0.3226  0.1207 -0.0198
    6MOL0     C  688   3.727   3.157   3.854 -0.0650 -0.6839 -0.6419
    6MOL0     C  689   3.594   3.175   3.786 -0.6224  0.2982 -0.3343
    6MOL0     O  690   3.478   3.109   3.825 -0.5470  0.1747 -0.1997
    6MOL0     C  691   3.361   3.162   3.780  0.7339 -0.1506  0.3894
    6MOL0     C  692   3.338   3.156   3.641 -0.1123 -0.1221  0.8144
    6MOL0     C  693   3.205   3.174   3.590 -0.2875  0.5793  0.2290
    6MOL0     C  694   3.108   3.213   3.677 -0.0681 -0.5708  0.0060
    6MOL0     O  695   2.980   3.245   3.626  0.1879  0.0262  0.4960
    6MOL0     C  696   2.866   3.291   3.695  0.2460  0.5006  0.5295
    6MOL0     C  697   2.745   3.320   3.595  0.2304 -0.3352  0.2844
    6MOL0     C  698   2.610   3.342   3.673 -0.8384  1.6059 -0.4452
    6MOL0     C  699   2.499   3.317   3.572 -0.0428 -0.3649  0.3981
    6MOL0     C  700   2.377   3.375   3.631 -0.4490  0.2791  0.1031
    6MOL0     C  701   2.263   3.388   3.531 -1.2299  0.6848 -0.0281
    6MOL0     C  702   2.132   3.423   3.590  0.4089  0.2466  0.2175
    6MOL0     C  703   2.029   3.439   3.478 -0.3436 -0.8465  0.4526
    6MOL0    Cl  704   1.887   3.480   3.561  0.2038  0.1478  0.3013
    6MOL0     C  705   3.136   3.248   3.810 -0.0313 -0.5445 -0.8489
    6MOL0     C  706   3.257   3.210   3.857  0.0475 -1.1841 -0.0872
    6MOL0     O  707   3.596   3.265   3.697  0.0344  0.0385  0.5898
    6MOL0     C  708   3.852   3.150   3.782  1.0991 -0.4685 -0.4340
    6MOL0     C  709   3.969   3.130   3.843 -0.4398  0.3549  0.3226
    6MOL0     N  710   4.758   2.916   3.996 -0.1355 -0.3100 -0.3408
    6MOL0     N  711   4.884   2.935   3.985 -0.1277  0.1874 -0.2971
    6MOL0     C  712   5.929   3.103   4.662  0.3586 -0.4159  0.1917
    6MOL0     C  713   6.048   3.181   4.644 -0.3738 -0.3282  0.3007
    6MOL0     C  714   6.381   3.449   4.508 -0.2211  0.0636 -0.2207
    6MOL0     C  715   6.460   3.491   4.397 -0.2095  0.5448  0.0845
    6MOL0     C  716   6.598   3.529   4.418  0.2990  0.6502  0.5708
    6MOL0     C  717   6.654   3.545   4.542  0.2673 -0.1535  0.0285
    6MOL0     O  718   6.780   3.595   4.565  1.2696 -0.3689 -0.0542
    6MOL0     C  719   6.867   3.638   4.459 -0.2626  0.1836  0.5857
    6MOL0     C  720   6.946   3.536   4.379 -0.5611 -0.0292  0.3131
    6MOL0     C  721   7.009   3.602   4.262  0.0935  0.2112  0.1049
    6MOL0     C  722   7.078   3.506   4.159 -0.3144  0.0750 -0.0358
    6MOL0     C  723   6.981   3.456   4.064 -0.0227 -0.3882  0.5993
    6MOL0     C  724   6.891   3.433   3.985  0.6781 -0.4036 -0.8650
    6MOL0     C  725   6.570   3.510   4.651 -0.1785 -0.3956 -0.3562
    6MOL0     C  726   6.443   3.457   4.636 -0.4731 -0.1677  0.4534
    6MOL0     H  727   5.936   3.455   4.489  4.4002  0.7810  0.8349
    6MOL0     H  728   5.731   3.307   4.483  0.2141 -0.1743 -0.5241
    6MOL0     H  729   5.732   2.976   4.428 -1.6047 -3.6287  0.1849
    6MOL0     H  730   5.626   3.123   4.419 -1.3123 -0.8729 -0.5576
    6MOL0     H  731   5.573   2.847   4.552  0.9226  0.7448 -1.0795
    6MOL0     H  732   5.506   2.915   4.411 -1.8841  1.2253  0.5850
    6MOL0     H  733   5.473   3.115   4.609  1.1637 -0.8420 -0.5631
    6MOL0     H  734   5.373   2.964   4.652  1.3868 -1.9310  1.0645
    6MOL0     H  735   5.248   3.114   4.505 -0.0609 -0.8923  1.2909
    6MOL0     H  736   5.359   3.067   4.370 -1.1706  0.2326 -0.2288
    6MOL0     H  737   5.177   2.893   4.535 -3.0020  0.4667 -1.5674
    6MOL0     H  738   5.293   2.833   4.413  1.5012  0.8007 -0.5599
    6MOL0     H  739   5.070   3.045   4.362 -0.9749 -1.1253  0.0942
    6MOL0     H  740   5.064   2.858   4.356  2.6018 -1.7169  1.3441
    6MOL0     H  741   5.261   3.015   4.204  0.8472 -0.5805  0.7069
    6MOL0     H  742   5.180   2.855   4.170 -6.0796 -1.6641  2.0471
    6MOL0     H  743   5.111   3.038   4.010 -1.5033  0.0098 -0.1400
    6MOL0     H  744   5.076   3.151   4.147 -0.3433 -0.7640  2.6792
    6MOL0     H  745   4.810   3.103   4.262 -0.4408  0.4432 -0.0044
    6MOL0     H  746   4.549   3.070   4.230 -1.6329 -0.3044 -0.2372
    6MOL0     H  747   4.531   2.899   4.200 -0.0921  0.3100  1.9772
    6MOL0     H  748   4.467   2.950   3.965  3.5023  1.4484 -0.0655
    6MOL0     H  749   4.491   3.120   3.995 -2.6328 -0.0712 -1.1908
    6MOL0     H  750   4.296   2.951   4.163  0.2566 -2.2088 -3.1392
    6MOL0     H  751   4.311   3.128   4.160 -1.3664 -1.3866  2.0673
    6MOL0     H  752   4.204   2.966   3.930  3.8171  0.0192 -1.1226
    6MOL0     H  753   4.235   3.134   3.921  1.4904 -1.2019 -1.2205
    6MOL0     H  754   3.854   3.104   4.165 -0.1868 -0.8255 -0.4954
    6MOL0     H  755   3.651   3.115   4.059 -0.4024  2.8804  0.6765
    6MOL0     H  756   3.406   3.115   3.567 -0.5905 -1.3107  1.0155
    6MOL0     H  757   3.177   3.162   3.485  2.0528  1.0908 -0.5177
    6MOL0     H  758   2.875   3.384   3.752 -0.8522 -0.0668  1.7009
    6MOL0     H  759   2.840   3.214   3.768  2.4573 -1.5399 -0.6899
    6MOL0     H  760   2.741   3.233   3.529 -1.3361 -0.1120  0.0593
    6MOL0     H  761   2.765   3.404   3.529  2.4667 -0.1141  1.1456
    6MOL0     H  762   2.600   3.442   3.714  0.5023  2.9366 -3.0956
    6MOL0     H  763   2.606   3.267   3.752 -0.4437  2.1939  0.1433
    6MOL0     H  764   2.532   3.376   3.486  0.3844  1.5126  1.7696
    6MOL0     H  765   2.488   3.214   3.537  1.1465 -0.2761 -0.2872
    6MOL0     H  766   2.397   3.480   3.653 -0.4500  0.7111 -1.7663
    6MOL0     H  767   2.347   3.330   3.726  0.2494  0.6445  0.4970
    6MOL0     H  768   2.250   3.283   3.502 -0.8897 -1.0052  4.9545
    6MOL0     H  769   2.299   3.452   3.450  0.1829 -0.4340 -0.3260
    6MOL0     H  770   2.101   3.346   3.661 -1.5226  0.5177 -0.2683
    6MOL0     H  771   2.134   3.515   3.649 -2.0551 -1.2539  2.8926
    6MOL0     H  772   2.022   3.350   3.414  2.5144 -0.2541 -0.8359
    6MOL0     H  773   2.063   3.520   3.413  2.4568 -1.6629  0.7503
    6MOL0     H  774   3.061   3.307   3.863  0.6937  1.4853 -1.9633
    6MOL0     H  775   3.265   3.222   3.964  0.5011 -2.2490  0.0109
    6MOL0     H  776   3.852   3.161   3.674  0.2922  0.3029 -0.3706
    6MOL0     H  777   4.058   3.132   3.780 -0.0836  2.0634  0.8319
    6MOL0     H  778   5.929   3.005   4.709  2.6791 -0.5320  0.0578
    6MOL0     H  779   6.138   3.142   4.691 -0.3429  1.4038  1.8129
    6MOL0     H  780   6.413   3.498   4.300 -2.4503 -2.8166  0.7521
    6MOL0     H  781   6.651   3.553   4.326  1.7582  1.6249  1.6257
    6MOL0     H  782   6.941   3.707   4.501 -0.2317 -1.2980  3.1551
    6MOL0     H  783   6.806   3.700   4.392  0.5252  0.0919 -0.2428
    6MOL0     H  784   7.029   3.491   4.433  1.4083 -1.1264 -3.2705
    6MOL0     H  785   6.886   3.450   4.347  2.8639 -2.3540 -0.4598
    6MOL0     H  786   7.096   3.659   4.295  0.0190  0.9472 -0.9271
    6MOL0     H  787   6.937   3.674   4.223  0.4115  0.8116  0.6066
    6MOL0     H  788   7.160   3.558   4.108 -0.1320 -0.3061 -0.1351
    6MOL0     H  789   7.137   3.430   4.210  1.4933  0.7979 -0.9766
    6MOL0     H  790   6.810   3.419   3.917 -0.0813 -0.5535  0.0496
    6MOL0     H  791   6.614   3.520   4.750  3.3568 -2.2953 -1.5292
    6MOL0     H  792   6.395   3.399   4.714 -0.3511 -0.4747  0.3067
    7MOL0     O  793   5.016   5.966   8.734  0.2002  0.0727 -0.1394
    7MOL0     C  794   5.020   6.081   8.777 -0.1832 -0.8419  0.9516
    7MOL0     O  795   5.121   6.142   8.845 -0.5081 -0.1070  0.2149
    7MOL0     C  796   5.238   6.065   8.865  0.2887 -0.2336  0.1267
    7MOL0     C  797   5.330   6.055   8.759 -0.2016 -0.6206 -0.9379
    7MOL0     C  798   5.452   5.995   8.792 -0.9953  0.8232  0.2755
    7MOL0     C  799   5.483   5.920   8.906  0.1803  0.0397  0.3693
    7MOL0     O  800   5.603   5.852   8.902  0.3798  0.0313 -0.2640
    7MOL0     C  801   5.662   5.851   9.027  0.4052 -0.5263  0.0398
    7MOL0     C  802   5.784   5.761   9.023  0.3530 -0.7391  0.0116
    7MOL0     C  803   5.867   5.737   9.153  0.5912  0.0074 -0.5902
    7MOL0     C  804   5.775   5.695   9.270  0.1000 -0.7485  0.2153
    7MOL0     C  805   5.855   5.657   9.383  0.0406 -0.5347 -0.8264
    7MOL0     C  806   5.756   5.668   9.506 -0.2567 -0.1507  0.2029
    7MOL0     C  807   5.811   5.613   9.643  0.3582 -0.3007 -0.9549
    7MOL0     C  808   5.885   5.478   9.641 -0.3338  0.4450 -0.2926
    7MOL0     N  809   5.887   5.423   9.775  0.1803 -0.6902 -0.5276
    7MOL0     C  810   5.784   5.334   9.831 -0.8727  0.1467  0.0796
    7MOL0     C  811   5.842   5.288   9.946  0.3422 -0.3023 -0.1743
    7MOL0     C  812   5.773   5.199  10.044  0.0519 -0.2690 -0.3892
    7MOL0     C  813   5.783   5.048   9.992 -0.4017 -0.0846  0.1259
    7MOL0     C  814   5.765   4.955  10.114 -0.6485  0.0419  0.5774
    7MOL0     C  815   5.650   4.860  10.103  0.8014  0.2007  0.1517
    7MOL0     O  816   5.633   4.773  10.224 -0.0052  0.1577 -0.3852
    7MOL0     C  817   5.582   4.652  10.191 -0.2185 -0.4015 -0.7208
    7MOL0     C  818   5.436   4.637  10.210 -0.3621 -0.4943  1.4071
    7MOL0     C  819   5.373   4.519  10.162  0.1823 -0.2274 -0.2110
    7MOL0     C  820   5.447   4.420  10.104  0.9207 -0.4101  0.0971
    7MOL0     C  821   5.370   4.302  10.047  0.6351  0.4711  0.5041
    7MOL0     O  822   5.423   4.185  10.061 -0.3954  0.2601  0.5509
    7MOL0     C  823   5.373   4.072  10.000  0.6114 -0.5143 -0.0675
    7MOL0     C  824   5.312   4.076   9.870 -0.6983  0.5229 -0.5356
    7MOL0     C  825   5.264   3.954   9.808 -0.4895  0.1920 -0.1176
    7MOL0     C  826   5.273   3.830   9.885  1.1190 -0.1067  0.7721
    7MOL0     O  827   5.221   3.703   9.861  0.3777  0.4541 -0.0210
    7MOL0     C  828   5.161   3.671   9.736 -0.1648 -0.5873  0.2333
    7MOL0     C  829   5.117   3.521   9.731  0.7924  0.3764  0.6796
    7MOL0     C  830   5.065   3.475   9.593  0.4777 -0.0726 -0.8808
    7MOL0     C  831   5.007   3.332   9.568 -0.2693  0.7098  0.3969
    7MOL0     C  832   4.917   3.283   9.670  0.1686  0.3988 -0.3492
    7MOL0     C  833   4.835   3.157   9.628  0.5647 -0.7726  0.0713
    7MOL0     C  834   4.735   3.114   9.735  0.1959  0.3151  0.3996
    7MOL0     C  835   4.618   3.210   9.770  0.1445  0.7930  0.3494
    7MOL0    Cl  836   4.508   3.238   9.625  0.0654 -0.5806  0.0140
    7MOL0     C  837   5.344   3.837  10.005 -0.3560  0.0976  0.7225
    7MOL0     C  838   5.393   3.947  10.063  0.0296 -0.8305  0.3353
    7MOL0     O  839   5.253   4.323  10.019  0.0157  0.5067 -0.2833
    7MOL0     C  840   5.583   4.434  10.086  0.4478 -0.5274 -0.8639
    7MOL0     C  841   5.652   4.548  10.132 -0.3966 -0.0532 -1.4308
    7MOL0     N  842   5.957   5.352   9.977 -0.6640 -0.0771  0.8542
    7MOL0     N  843   5.987   5.430   9.873 -0.4605 -0.2518  0.0378
    7MOL0     C  844   5.388   5.926   9.009  0.1054  0.0822 -0.0536
    7MOL0     C  845   5.263   5.992   8.989 -0.4124 -0.2524 -0.3722
    7MOL0     C  846   4.898   6.161   8.747  0.3974 -0.5425  1.0027
    7MOL0     C  847   4.789   6.111   8.671  0.5438  0.6553  0.9084
    7MOL0     C  848   4.678   6.196   8.654 -0.6755  0.0789  0.1753
    7MOL0     C  849   4.684   6.325   8.701 -0.5388  0.1650  0.2319
    7MOL0     O  850   4.585   6.419   8.696  0.3185  0.3673  1.0043
    7MOL0     C  851   4.444   6.372   8.670 -0.1006 -0.5823 -0.2256
    7MOL0     C  852   4.354   6.490   8.696  0.4296  0.7403 -1.1310
    7MOL0     C  853   4.204   6.455   8.671 -0.7431 -1.0625  0.1104
    7MOL0     C  854   4.112   6.562   8.622  0.4920 -0.1748 -0.1120
    7MOL0     C  855   4.106   6.660   8.734 -0.5579 -0.6471 -0.6183
    7MOL0     C  856   4.101   6.729   8.838 -0.4057  0.7795  0.2939
    7MOL0     C  857   4.799   6.369   8.765 -0.5012  0.3673  0.6836
    7MOL0     C  858   4.901   6.287   8.790 -0.8440 -0.2197 -0.0466
    7MOL0     H  859   5.308   6.086   8.657  0.5183 -1.3059 -1.3118
    7MOL0     H  860   5.523   6.005   8.711 -0.7874 -1.0276  0.1794
    7MOL0     H  861   5.587   5.806   9.092 -0.4020  1.0964  0.2811
    7MOL0     H  862   5.694   5.947   9.070  0.8091 -1.7618  2.7039
    7MOL0     H  863   5.849   5.807   8.948 -0.1027 -1.2974 -0.7411
    7MOL0     H  864   5.747   5.663   8.992 -1.8624  0.1582 -0.4313
    7MOL0     H  865   5.925   5.825   9.180 -1.0894  1.7137 -2.2416
    7MOL0     H  866   5.934   5.651   9.143  0.5133  0.1517 -2.6969
    7MOL0     H  867   5.716   5.783   9.298  1.1820 -1.2826  5.0062
    7MOL0     H  868   5.717   5.607   9.241 -1.9439  0.7448 -0.4840
    7MOL0     H  869   5.941   5.724   9.394  0.9752 -1.3568 -2.7037
    7MOL0     H  870   5.886   5.553   9.376 -0.5966 -0.7910  0.0156
    7MOL0     H  871   5.663   5.617   9.477  0.6654 -1.3276 -0.7866
    7MOL0     H  872   5.726   5.773   9.515 -0.3284 -0.0549 -0.9956
    7MOL0     H  873   5.875   5.694   9.679 -0.6107 -0.3546  0.9982
    7MOL0     H  874   5.732   5.599   9.717 -0.9561 -1.1147 -2.4417
    7MOL0     H  875   5.986   5.497   9.601 -0.3549 -0.5114 -0.8191
    7MOL0     H  876   5.831   5.411   9.574 -2.6487  0.5361  1.3743
    7MOL0     H  877   5.694   5.311   9.775  0.3440  2.3767 -3.1418
    7MOL0     H  878   5.678   5.240  10.080  0.3415 -0.7279  0.9224
    7MOL0     H  879   5.811   5.216  10.145 -3.1993  0.1071  0.9185
    7MOL0     H  880   5.879   5.024   9.945  0.6779  1.5365  1.4004
    7MOL0     H  881   5.702   5.027   9.922  1.0305 -1.3688 -1.2163
    7MOL0     H  882   5.855   4.894  10.122 -1.4690 -1.3666 -0.4529
    7MOL0     H  883   5.761   5.016  10.205  0.9062  5.2447 -2.4265
    7MOL0     H  884   5.655   4.800  10.011 -0.4401 -0.5612  0.5517
    7MOL0     H  885   5.558   4.918  10.095  1.5727  1.7924  2.1560
    7MOL0     H  886   5.382   4.725  10.244  0.0585  0.9936 -1.4533
    7MOL0     H  887   5.267   4.505  10.182  0.4064  0.3073  1.5750
    7MOL0     H  888   5.313   4.163   9.805  3.7557  0.3969 -0.9409
    7MOL0     H  889   5.210   3.948   9.715  1.2968 -0.9485 -1.1332
    7MOL0     H  890   5.217   3.695   9.645 -1.9819 -1.7315 -1.2609
    7MOL0     H  891   5.073   3.734   9.729 -0.4126 -1.0706 -1.4128
    7MOL0     H  892   5.035   3.499   9.801  2.1786 -0.5085  2.0923
    7MOL0     H  893   5.201   3.457   9.761  0.8620 -0.5584 -1.3446
    7MOL0     H  894   5.145   3.492   9.521  2.6474  0.3975  1.5170
    7MOL0     H  895   4.982   3.535   9.553 -1.3721 -1.4312  0.7472
    7MOL0     H  896   4.964   3.338   9.468  1.8149  2.0115 -0.4891
    7MOL0     H  897   5.091   3.262   9.565 -1.4811 -0.7787  0.2943
    7MOL0     H  898   4.847   3.364   9.692  0.2409 -0.0509  1.7140
    7MOL0     H  899   4.968   3.259   9.763  0.1255 -0.3922 -0.5199
    7MOL0     H  900   4.903   3.077   9.596  2.9532  1.2492 -0.1792
    7MOL0     H  901   4.780   3.188   9.538  0.6277 -0.3099  0.1889
    7MOL0     H  902   4.684   3.029   9.689  1.8177 -0.5125  0.0556
    7MOL0     H  903   4.779   3.078   9.829 -1.9669 -0.5012  1.1612
    7MOL0     H  904   4.647   3.303   9.820  2.2573 -0.1124  0.9172
    7MOL0     H  905   4.565   3.158   9.851 -0.6114 -0.7390 -1.0869
    7MOL0     H  906   5.348   3.755  10.076  0.9207  1.0238  1.7558
    7MOL0     H  907   5.444   3.951  10.159 -0.2815  0.4544  0.4659
    7MOL0     H  908   5.647   4.358  10.041  3.8025 -0.7734  3.6368
    7MOL0     H  909   5.758   4.567  10.128 -0.4406  1.6449  1.6798
    7MOL0     H  910   5.394   5.884   9.109 -2.0021  1.3447  0.6702
    7MOL0     H  911   5.184   5.983   9.063 -2.7113  0.5260 -2.5701
    7MOL0     H  912   4.797   6.008   8.637  0.0867  0.8993  0.0196
    7MOL0     H  913   4.592   6.152   8.604 -0.6380  0.1315  0.0639
    7MOL0     H  914   4.439   6.278   8.725  2.6337 -0.1191  1.0211
    7MOL0     H  915   4.433   6.348   8.564 -2.1824 -1.0615  0.0502
    7MOL0     H  916   4.376   6.519   8.799  0.4481  3.4739 -1.8079
    7MOL0     H  917   4.380   6.581   8.640 -1.1638  0.6980 -2.0205
    7MOL0     H  918   4.154   6.414   8.759 -2.7089  1.2365  0.1635
    7MOL0     H  919   4.198   6.371   8.601  0.4139 -0.7503 -0.3950
    7MOL0     H  920   4.143   6.595   8.523 -1.2694 -0.5401 -0.8269
    7MOL0     H  921   4.008   6.527   8.618  0.5058 -0.7562  2.5624
    7MOL0     H  922   4.095   6.777   8.933  1.4180 -4.0924  3.2279
    7MOL0     H  923   4.801   6.474   8.789 -1.3303 -0.2156  3.8139
    7MOL0     H  924   4.989   6.325   8.842 -1.4586  0.9311  0.1821
    8MOL0     O  925   4.187  10.563   2.464 -0.5032  0.0656 -0.3265
    8MOL0     C  926   4.168  10.645   2.376 -0.7166 -0.4082  1.2860
    8MOL0     O  927   4.052  10.683   2.317  0.8271 -0.2217 -0.1462
    8MOL0     C  928   3.938  10.625   2.370  0.2998 -0.0052 -0.4270
    8MOL0     C  929   3.916  10.486   2.393  0.3747  0.0190  0.5458
    8MOL0     C  930   3.780  10.440   2.407 -0.4467 -0.2732 -0.6388
    8MOL0     C  931   3.673  10.519   2.395  0.0438 -0.4304 -0.1295
    8MOL0     O  932   3.552  10.452   2.383 -0.4771  0.0120  0.3770
    8MOL0     C  933   3.538  10.399   2.255 -0.1570  0.2853 -0.8889
    8MOL0     C  934   3.395  10.340   2.228 -0.0731 -0.6469 -0.4985
    8MOL0     C  935   3.285  10.440   2.244 -0.2752 -0.5983 -0.1113
    8MOL0     C  936   3.144  10.380   2.205 -0.3599  0.4833 -0.0419
    8MOL0     C  937   3.031  10.477   2.164  0.3566 -0.2739 -0.1980
    8MOL0     C  938   2.901  10.407   2.138  0.8842  0.5216  0.1826
    8MOL0     C  939   2.885  10.339   1.992 -0.3856  0.5583 -0.5067
    8MOL0     C  940   2.866  10.184   2.006  0.3742  0.1060 -0.2034
    8MOL0     N  941   2.990  10.106   2.040  0.1310 -0.5004 -0.3936
    8MOL0     C  942   3.096  10.065   1.960 -0.2112  0.4542 -0.0559
    8MOL0     C  943   3.178  10.001   2.048  0.1268 -0.2416  0.3066
    8MOL0     C  944   3.302   9.925   2.000 -0.6792 -0.5195 -0.4388
    8MOL0     C  945   3.402   9.881   2.117  0.1995 -0.0033  0.4804
    8MOL0     C  946   3.524   9.827   2.044 -0.4985 -0.5978  0.3223
    8MOL0     C  947   3.651   9.817   2.136  0.3076  0.5636  0.6304
    8MOL0     O  948   3.698   9.938   2.189  0.8087  0.2307  0.3129
    8MOL0     C  949   3.823   9.935   2.235 -0.1793  0.1128  0.5541
    8MOL0     C  950   3.882  10.060   2.258  0.1871  1.0537 -0.3110
    8MOL0     C  951   4.011  10.088   2.305 -0.2171  0.5093 -0.4712
    8MOL0     C  952   4.092   9.977   2.333 -0.2104  0.4097 -0.3777
    8MOL0     C  953   4.234   9.998   2.370 -0.5698 -0.4026  0.2237
    8MOL0     O  954   4.314   9.890   2.403 -0.1635  0.6575 -0.3500
    8MOL0     C  955   4.453   9.898   2.417  0.1885  0.4343  0.3319
    8MOL0     C  956   4.521   9.780   2.443  0.5586  0.5239  0.1264
    8MOL0     C  957   4.663   9.782   2.449  0.0518  0.4239  0.7911
    8MOL0     C  958   4.738   9.902   2.432 -0.7046 -0.3215  0.4190
    8MOL0     O  959   4.873   9.884   2.446  0.0867 -0.6899 -0.4643
    8MOL0     C  960   4.975   9.986   2.409 -0.1186 -0.0716  0.3821
    8MOL0     C  961   5.108   9.926   2.414 -0.3378 -0.2764 -0.8411
    8MOL0     C  962   5.131   9.808   2.321  1.3915 -0.1421 -0.7049
    8MOL0     C  963   5.273   9.768   2.329  0.1014  0.1011 -0.2883
    8MOL0     C  964   5.306   9.662   2.215  0.5883  0.5760 -0.0318
    8MOL0     C  965   5.457   9.637   2.212 -0.1492 -0.6006  0.2160
    8MOL0     C  966   5.489   9.534   2.107 -0.1476 -0.6420 -0.7128
    8MOL0     C  967   5.637   9.510   2.111  1.2042 -0.5630 -0.4098
    8MOL0    Cl  968   5.683   9.437   2.267 -0.2404 -0.2123 -0.2468
    8MOL0     C  969   4.673  10.006   2.398  0.2183 -0.9410  0.2935
    8MOL0     C  970   4.533  10.015   2.394 -0.5734 -0.6529 -0.2296
    8MOL0     O  971   4.279  10.112   2.365  0.2107 -0.1568 -0.3344
    8MOL0     C  972   4.023   9.852   2.342 -0.3103  0.4782 -0.2584
    8MOL0     C  973   3.896   9.830   2.299  0.0001  0.0872 -0.3960
    8MOL0     N  974   3.121  10.006   2.171  0.6569  0.5889  0.2582
    8MOL0     N  975   3.015  10.072   2.173  0.0287  0.4375  0.0356
    8MOL0     C  976   3.691  10.662   2.387  0.1616 -0.1418 -0.6597
    8MOL0     C  977   3.826  10.714   2.380  0.2233  0.4876 -0.4785
    8MOL0     C  978   4.294  10.719   2.323 -0.2535 -0.5801  1.3184
    8MOL0     C  979   4.287  10.821   2.220  0.0033 -0.2478 -0.5139
    8MOL0     C  980   4.402  10.870   2.172 -0.2867 -0.2764  0.8724
    8MOL0     C  981   4.523  10.844   2.227 -0.3604 -0.1783 -0.3510
    8MOL0     O  982   4.642  10.908   2.206 -0.1595 -0.6579 -0.7893
    8MOL0     C  983   4.662  10.996   2.093  0.2516 -0.2871 -0.4587
    8MOL0     C  984   4.806  11.022   2.065 -0.0848 -0.9946 -0.6265
    8MOL0     C  985   4.871  11.131   2.161 -0.0748  0.5765 -0.4310
    8MOL0     C  986   5.015  11.165   2.137 -0.2760 -0.3066 -0.3816
    8MOL0     C  987   5.032  11.289   2.053  0.5557  0.4549 -0.7393
    8MOL0     C  988   5.015  11.361   1.954  0.3703 -0.0424 -0.9617
    8MOL0     C  989   4.539  10.751   2.327  0.9812  0.7532 -0.1118
    8MOL0     C  990   4.421  10.684   2.369 -0.2962  1.6496 -0.1138
    8MOL0     H  991   4.000  10.417   2.394  1.2843  1.1133  0.5483
    8MOL0     H  992   3.761  10.334   2.424  2.8925 -1.4246 -2.9547
    8MOL0     H  993   3.610  10.317   2.245 -1.0103 -1.0572  2.5892
    8MOL0     H  994   3.547  10.478   2.179 -4.3173 -0.0290 -1.9485
    8MOL0     H  995   3.375  10.252   2.290 -1.4681 -0.6917 -0.9689
    8MOL0     H  996   3.395  10.299   2.126 -2.4183 -1.8854 -0.0792
    8MOL0     H  997   3.311  10.525   2.180 -1.2350  0.0796  0.3664
    8MOL0     H  998   3.283  10.467   2.350  0.2337 -1.8820  0.2438
    8MOL0     H  999   3.157  10.309   2.123 -2.6229  0.5289 -0.4868
    8MOL0     H 1000   3.111  10.326   2.294  4.2602 -2.1579  0.4185
    8MOL0     H 1001   3.056  10.536   2.076 -2.0274 -1.5898 -1.8760
    8MOL0     H 1002   3.012  10.536   2.254 -2.8785 -3.2068  1.2648
    8MOL0     H 1003   2.822  10.482   2.144  1.9207  1.6033  0.8059
    8MOL0     H 1004   2.893  10.332   2.218 -1.0936 -0.5139 -0.8960
    8MOL0     H 1005   2.812  10.392   1.930 -0.2837  0.6072 -0.5871
    8MOL0     H 1006   2.981  10.344   1.939 -0.5486  0.5388 -0.8034
    8MOL0     H 1007   2.830  10.158   1.906  2.8902  2.3697 -1.8345
    8MOL0     H 1008   2.792  10.166   2.084 -2.6742  0.3024 -2.8648
    8MOL0     H 1009   3.098  10.049   1.853  3.5130  2.5891 -0.4737
    8MOL0     H 1010   3.354   9.994   1.934 -2.6529 -0.0295 -1.5829
    8MOL0     H 1011   3.277   9.833   1.946 -2.9404  0.1254 -0.6175
    8MOL0     H 1012   3.361   9.805   2.185  3.1252 -1.0017  1.2756
    8MOL0     H 1013   3.437   9.964   2.179 -3.0172 -0.3385  2.9901
    8MOL0     H 1014   3.503   9.726   2.008 -1.0718  0.7546 -3.6311
    8MOL0     H 1015   3.549   9.895   1.962 -1.7801  0.2736  0.6112
    8MOL0     H 1016   3.730   9.768   2.077 -0.1355  0.2179  0.3212
    8MOL0     H 1017   3.632   9.741   2.212 -0.8831  1.0487  0.8302
    8MOL0     H 1018   3.818  10.142   2.226 -0.6878  0.6808  0.4294
    8MOL0     H 1019   4.053  10.188   2.303  1.7295 -0.2220  0.5692
    8MOL0     H 1020   4.474   9.689   2.478  1.2785  0.8350  2.0102
    8MOL0     H 1021   4.720   9.691   2.464  0.2376  0.5316  0.7476
    8MOL0     H 1022   4.981  10.063   2.487  2.2577 -3.2764  3.7326
    8MOL0     H 1023   4.952  10.018   2.307  0.5682 -0.3888  0.1217
    8MOL0     H 1024   5.133   9.890   2.514 -0.1847  0.3816 -0.6374
    8MOL0     H 1025   5.173  10.010   2.387  1.0268 -1.4391 -1.3110
    8MOL0     H 1026   5.097   9.828   2.219 -0.1706  0.8196 -0.0436
    8MOL0     H 1027   5.079   9.717   2.353  0.2247  0.1405 -1.7068
    8MOL0     H 1028   5.337   9.856   2.317  1.7450 -0.9846  0.1597
    8MOL0     H 1029   5.297   9.735   2.430 -0.3169  1.6672  0.3431
    8MOL0     H 1030   5.284   9.692   2.112 -0.0979 -1.6888 -0.5984
    8MOL0     H 1031   5.260   9.564   2.232  3.9409 -1.1126  0.1000
    8MOL0     H 1032   5.489   9.600   2.310  0.4385 -0.7221 -0.0171
    8MOL0     H 1033   5.517   9.726   2.190  1.2559 -1.9470 -1.7271
    8MOL0     H 1034   5.444   9.437   2.130  0.0209 -0.3132  1.1314
    8MOL0     H 1035   5.456   9.563   2.006  1.1423  0.7093 -0.7791
    8MOL0     H 1036   5.687   9.607   2.098 -3.8266  2.8016  2.2240
    8MOL0     H 1037   5.669   9.445   2.029  1.8490 -1.3901  0.4745
    8MOL0     H 1038   4.727  10.092   2.360  2.9598 -2.1168  1.3021
    8MOL0     H 1039   4.501  10.105   2.341  3.2588  0.2673 -1.2634
    8MOL0     H 1040   4.082   9.768   2.378 -0.8402 -0.9603 -2.4961
    8MOL0     H 1041   3.851   9.733   2.317  1.6078 -0.6068  0.0788
    8MOL0     H 1042   3.611  10.734   2.378  1.3323  1.0739 -1.8704
    8MOL0     H 1043   3.858  10.816   2.360 -0.2027  0.7490  0.1359
    8MOL0     H 1044   4.190  10.851   2.183 -1.7140 -1.8554  2.3455
    8MOL0     H 1045   4.402  10.944   2.092 -0.0766  0.7957  1.8397
    8MOL0     H 1046   4.623  11.093   2.127  1.4479 -0.8529  2.8879
    8MOL0     H 1047   4.615  10.960   2.001  0.6343 -0.5516 -0.5519
    8MOL0     H 1048   4.861  10.933   2.099  2.1909  0.6697  0.3053
    8MOL0     H 1049   4.838  11.039   1.962 -1.6384 -2.2584 -1.3554
    8MOL0     H 1050   4.856  11.100   2.265  1.3979 -1.7782 -0.8357
    8MOL0     H 1051   4.809  11.221   2.150  1.7688  2.4215  2.7649
    8MOL0     H 1052   5.070  11.175   2.231  1.2724 -1.5889 -1.0895
    8MOL0     H 1053   5.061  11.080   2.086  3.9921  1.1777  0.5930
    8MOL0     H 1054   4.992  11.418   1.866 -1.0428 -0.1364 -0.6798
    8MOL0     H 1055   4.640  10.735   2.365  1.2056 -1.4896 -1.4881
    8MOL0     H 1056   4.432  10.608   2.445  0.3735  1.4924 -0.3632
    9MOL0     O 1057   2.532   8.808   7.631  0.3132  0.3322  0.1577
    9MOL0     C 1058   2.576   8.804   7.745  0.3148  0.7086 -0.1836
    9MOL0     O 1059   2.497   8.786   7.855 -0.8018  0.8044  0.3721
    9MOL0     C 1060   2.364   8.763   7.857  0.1130 -0.3524 -0.0476
    9MOL0     C 1061   2.310   8.728   7.981  0.4908 -0.0287 -0.6259
    9MOL0     C 1062   2.175   8.703   7.997  0.4283  0.0148  0.0352
    9MOL0     C 1063   2.079   8.714   7.895 -0.1479  0.1640  0.8477
    9MOL0     O 1064   1.949   8.681   7.912 -0.3725 -0.4431  0.3018
    9MOL0     C 1065   1.913   8.602   8.019  0.0365  0.4749  0.2110
    9MOL0     C 1066   1.781   8.534   7.999 -0.5504 -0.2618 -0.2127
    9MOL0     C 1067   1.749   8.452   8.123  0.5087  0.5656  0.3854
    9MOL0     C 1068   1.627   8.363   8.116  0.6321  0.7233  0.2752
    9MOL0     C 1069   1.611   8.281   8.252  0.3435  0.5607  0.5738
    9MOL0     C 1070   1.497   8.171   8.243 -0.6239  0.2145 -0.3358
    9MOL0     C 1071   1.363   8.216   8.181 -0.5395 -0.3882 -0.3671
    9MOL0     C 1072   1.297   8.338   8.247 -0.4384  0.7027 -0.1731
    9MOL0     N 1073   1.198   8.312   8.346 -0.1402  1.2622 -0.4462
    9MOL0     C 1074   1.083   8.249   8.310 -0.8147 -0.7622 -0.4612
    9MOL0     C 1075   1.034   8.204   8.428 -0.6664 -0.3094  0.3316
    9MOL0     C 1076   0.909   8.128   8.432  0.3872  0.3751  0.0669
    9MOL0     C 1077   0.807   8.169   8.327 -0.3114 -0.6400  0.1913
    9MOL0     C 1078   0.671   8.098   8.348  0.0820 -0.1835 -0.4145
    9MOL0     C 1079   0.581   8.174   8.448 -0.8114  0.8434  1.9346
    9MOL0     O 1080   0.448   8.109   8.451  0.2330 -0.1902  0.0914
    9MOL0     C 1081   0.334   8.174   8.499  0.1951  0.0807  0.1221
    9MOL0     C 1082   0.337   8.283   8.589 -0.2291  0.1086 -0.6402
    9MOL0     C 1083   0.214   8.353   8.624  0.0305  1.0443 -0.2572
    9MOL0     C 1084   0.092   8.317   8.569  0.1832  0.7527  0.0442
    9MOL0     C 1085  -0.037   8.376   8.599  0.6178 -0.2279 -0.5998
    9MOL0     O 1086  -0.136   8.294   8.572  1.3924  0.0438 -0.3510
    9MOL0     C 1087  -0.261   8.354   8.572  0.0427  0.7404  0.7433
    9MOL0     C 1088  -0.300   8.420   8.449 -0.5312  0.1891  0.3693
    9MOL0     C 1089  -0.434   8.456   8.429 -0.4373  0.1481  0.5543
    9MOL0     C 1090  -0.529   8.447   8.535  1.1108 -0.2019 -0.4163
    9MOL0     O 1091  -0.666   8.499   8.522 -0.7997  0.6693 -0.5275
    9MOL0     C 1092  -0.712   8.482   8.393  0.3087  0.5131  0.2482
    9MOL0     C 1093  -0.868   8.479   8.387  0.2045 -0.2911 -0.2445
    9MOL0     C 1094  -0.920   8.615   8.413  0.2848 -0.4104 -0.8781
    9MOL0     C 1095  -1.072   8.603   8.398 -0.9103  0.5824 -0.2597
    9MOL0     C 1096  -1.130   8.747   8.407 -0.9840 -0.1800  0.2105
    9MOL0     C 1097  -1.280   8.760   8.373  0.5835 -0.2325  0.5309
    9MOL0     C 1098  -1.331   8.723   8.234  0.3298 -0.1546 -0.3537
    9MOL0     C 1099  -1.481   8.706   8.215 -0.3745 -0.4303  0.0247
    9MOL0    Cl 1100  -1.550   8.868   8.227  0.1509  0.4222 -0.0061
    9MOL0     C 1101  -0.484   8.394   8.661  0.4662  0.1047  0.1559
    9MOL0     C 1102  -0.356   8.341   8.677 -0.6491 -0.4992  0.6843
    9MOL0     O 1103  -0.036   8.495   8.639 -0.0427  0.2143  0.0526
    9MOL0     C 1104   0.095   8.212   8.470  0.7770 -0.1791  0.1910
    9MOL0     C 1105   0.210   8.134   8.450 -1.0624 -0.7662 -0.1979
    9MOL0     N 1106   1.124   8.224   8.528 -0.4121  0.0743 -0.7489
    9MOL0     N 1107   1.227   8.279   8.479  0.4315  0.1326  0.3041
    9MOL0     C 1108   2.132   8.737   7.767  0.0050 -0.0352  0.1111
    9MOL0     C 1109   2.274   8.759   7.746  0.3491  1.5164  0.0907
    9MOL0     C 1110   2.715   8.837   7.777 -0.1789 -0.1493  0.1662
    9MOL0     C 1111   2.751   8.872   7.912 -1.0571  0.6075 -0.1754
    9MOL0     C 1112   2.882   8.907   7.933  0.5270  0.5183  0.0226
    9MOL0     C 1113   2.978   8.915   7.838 -0.0030  0.5391 -0.5895
    9MOL0     O 1114   3.107   8.949   7.863 -0.4554 -0.6611  0.4650
    9MOL0     C 1115   3.172   9.050   7.791  0.1752 -0.5310  0.2445
    9MOL0     C 1116   3.218   9.151   7.898 -0.3829  0.2606 -0.9002
    9MOL0     C 1117   3.347   9.100   7.966  0.4930 -0.8973  0.4275
    9MOL0     C 1118   3.331   8.995   8.080 -0.1330  0.3866  0.4521
    9MOL0     C 1119   3.460   8.933   8.108  0.2274  0.2304  0.2987
    9MOL0     C 1120   3.565   8.876   8.135 -0.0691  0.1286  0.2890
    9MOL0     C 1121   2.950   8.878   7.712 -0.6535 -0.8720  0.0944
    9MOL0     C 1122   2.821   8.838   7.672  0.1212  0.1689  0.0416
    9MOL0     H 1123   2.370   8.722   8.072  0.3402 -1.4940 -0.5865
    9MOL0     H 1124   2.141   8.680   8.097  2.0879 -2.5058  0.1078
    9MOL0     H 1125   1.899   8.661   8.111 -2.2899 -0.5197  0.5802
    9MOL0     H 1126   1.987   8.523   8.032 -1.3403 -0.8719  0.1332
    9MOL0     H 1127   1.778   8.474   7.908 -1.7664 -4.1747  2.1817
    9MOL0     H 1128   1.695   8.601   7.988 -1.8106 -1.1188  3.3712
    9MOL0     H 1129   1.736   8.532   8.196  2.0781  2.6292 -1.4824
    9MOL0     H 1130   1.834   8.389   8.151 -1.4225 -4.1992 -3.0471
    9MOL0     H 1131   1.533   8.409   8.082  0.8942 -0.3482 -2.0474
    9MOL0     H 1132   1.646   8.289   8.038 -0.4583  3.3356 -2.7113
    9MOL0     H 1133   1.610   8.344   8.341  0.7369 -0.6554  1.4757
    9MOL0     H 1134   1.709   8.234   8.270  1.3760  2.2129 -0.4653
    9MOL0     H 1135   1.491   8.136   8.347  0.6298  0.5854 -0.1134
    9MOL0     H 1136   1.534   8.080   8.194  1.2332  1.2089 -0.8987
    9MOL0     H 1137   1.382   8.227   8.074  2.9564  3.8932  0.4127
    9MOL0     H 1138   1.294   8.132   8.192  0.2880 -1.1315 -0.7432
    9MOL0     H 1139   1.241   8.391   8.169 -1.2527  1.5774  0.9798
    9MOL0     H 1140   1.376   8.403   8.286  0.0620  0.0645 -0.1088
    9MOL0     H 1141   1.045   8.232   8.210 -1.9890 -0.8171 -0.0232
    9MOL0     H 1142   0.860   8.142   8.529 -0.2576  2.4543 -0.5042
    9MOL0     H 1143   0.943   8.024   8.424  2.0504  0.9296 -0.5462
    9MOL0     H 1144   0.839   8.131   8.229 -0.0410 -2.3690  0.9237
    9MOL0     H 1145   0.789   8.277   8.321  1.5893 -0.2133  1.5030
    9MOL0     H 1146   0.625   8.101   8.248  1.6561  0.3006 -1.1570
    9MOL0     H 1147   0.695   7.996   8.379 -1.0290 -0.2789  0.1725
    9MOL0     H 1148   0.568   8.277   8.414 -0.2747  0.4075  0.3461
    9MOL0     H 1149   0.630   8.179   8.546  0.4661 -2.1874  1.5600
    9MOL0     H 1150   0.432   8.312   8.630 -0.4728  1.9165 -1.2633
    9MOL0     H 1151   0.219   8.428   8.703  2.2617  2.3406 -1.5081
    9MOL0     H 1152  -0.226   8.440   8.371 -1.8230  0.4667 -0.8288
    9MOL0     H 1153  -0.459   8.505   8.336 -1.1009 -1.0564  0.0636
    9MOL0     H 1154  -0.670   8.396   8.341 -1.4045  0.0314 -0.3887
    9MOL0     H 1155  -0.682   8.565   8.329  2.7950 -0.1797  0.4039
    9MOL0     H 1156  -0.906   8.415   8.468 -3.4504  2.1264  0.2242
    9MOL0     H 1157  -0.898   8.436   8.292  0.1345  2.5925 -1.6429
    9MOL0     H 1158  -0.882   8.692   8.345 -2.6558  1.6464 -0.3668
    9MOL0     H 1159  -0.889   8.650   8.512 -1.3853  0.3689 -0.5941
    9MOL0     H 1160  -1.097   8.551   8.305  0.4282  0.3239 -0.4953
    9MOL0     H 1161  -1.118   8.539   8.474  2.5015 -0.5063  1.0806
    9MOL0     H 1162  -1.077   8.810   8.335  0.4252 -1.4194  0.1065
    9MOL0     H 1163  -1.117   8.784   8.509 -0.1364 -0.9119  0.3744
    9MOL0     H 1164  -1.312   8.863   8.391 -0.3598 -0.2776 -0.6944
    9MOL0     H 1165  -1.333   8.694   8.443 -1.8157  0.3356 -0.6307
    9MOL0     H 1166  -1.300   8.793   8.155 -0.7497  1.0339  0.2335
    9MOL0     H 1167  -1.279   8.629   8.212  2.6632  1.6318 -3.3269
    9MOL0     H 1168  -1.531   8.644   8.291 -1.5910  0.1351 -0.2954
    9MOL0     H 1169  -1.498   8.673   8.113  1.2898  1.5497 -0.9662
    9MOL0     H 1170  -0.561   8.369   8.734 -0.4312 -1.6276 -1.2930
    9MOL0     H 1171  -0.312   8.304   8.769  0.0136  1.0454  1.0104
    9MOL0     H 1172   0.005   8.184   8.418  0.6332 -1.4991  1.1102
    9MOL0     H 1173   0.215   8.052   8.379  0.1761 -0.3304 -0.6433
    9MOL0     H 1174   2.061   8.743   7.685  0.5033  0.6875 -0.2816
    9MOL0     H 1175   2.315   8.769   7.645 -2.2077  0.1272 -1.1821
    9MOL0     H 1176   2.676   8.883   7.989 -1.1942 -0.3339 -0.1582
    9MOL0     H 1177   2.912   8.942   8.031 -1.9175 -0.7364  1.3126
    9MOL0     H 1178   3.110   9.099   7.715  1.2195 -0.1037 -0.3534
    9MOL0     H 1179   3.248   8.999   7.731 -0.9177 -0.3277 -1.3857
    9MOL0     H 1180   3.250   9.243   7.847 -0.2881  0.8419  0.1725
    9MOL0     H 1181   3.138   9.163   7.971 -0.2982  3.1872 -1.1657
    9MOL0     H 1182   3.405   9.180   8.013 -0.4213 -0.3146  0.5935
    9MOL0     H 1183   3.413   9.061   7.888 -0.1058  0.7248 -0.9707
    9MOL0     H 1184   3.297   9.050   8.168 -1.1703 -0.1762  0.4223
    9MOL0     H 1185   3.257   8.923   8.042  0.7529 -0.2556 -0.0911
    9MOL0     H 1186   3.663   8.838   8.156 -0.0836 -1.9156 -2.7932
    9MOL0     H 1187   3.029   8.901   7.641 -2.2841  2.1602 -0.9511
    9MOL0     H 1188   2.797   8.818   7.568  1.4244  3.3818 -0.9992
   10MOL0     O 1189   0.498   3.376   5.062 -0.4368  0.2813 -0.7746
   10MOL0     C 1190   0.519   3.260   5.083 -0.0965 -0.0557  1.0997
   10MOL0     O 1191   0.423   3.167   5.105  0.4776  0.3403 -0.3582
   10MOL0     C 1192   0.287   3.199   5.074 -0.7725  0.3078 -0.5265
   10MOL0     C 1193   0.241   3.287   4.977  0.9025 -0.4706 -0.5285
   10MOL0     C 1194   0.107   3.310   4.961  0.3382 -0.5632 -0.2953
   10MOL0     C 1195   0.010   3.229   5.026 -0.8909 -0.0604  0.4759
   10MOL0     O 1196  -0.125   3.245   5.010  0.5931  0.3733  0.6764
   10MOL0     C 1197  -0.208   3.268   5.123 -0.3535 -0.8365 -0.0946
   10MOL0     C 1198  -0.341   3.217   5.105 -0.0359 -0.4680 -0.4818
   10MOL0     C 1199  -0.441   3.247   5.208  0.6586 -0.8024 -0.6069
   10MOL0     C 1200  -0.586   3.218   5.166 -0.2032 -0.4857 -0.4118
   10MOL0     C 1201  -0.691   3.244   5.277  0.4648 -0.5556  0.5724
   10MOL0     C 1202  -0.836   3.224   5.234  0.9605  0.5308  0.0854
   10MOL0     C 1203  -0.924   3.261   5.353  0.2534  0.2986  0.4336
   10MOL0     C 1204  -1.074   3.257   5.305 -0.3938 -0.0325  0.2392
   10MOL0     N 1205  -1.163   3.221   5.410  0.5016  0.5649 -0.0098
   10MOL0     C 1206  -1.181   3.301   5.519 -0.1227 -0.3418  0.1671
   10MOL0     C 1207  -1.250   3.223   5.599  0.0745 -0.6984 -0.7411
   10MOL0     C 1208  -1.294   3.263   5.742  0.2966  0.4342 -0.1974
   10MOL0     C 1209  -1.321   3.146   5.837  0.8167  0.4546 -0.1486
   10MOL0     C 1210  -1.365   3.174   5.980 -0.0576 -0.3112 -0.1740
   10MOL0     C 1211  -1.397   3.044   6.042 -0.0340 -0.5381 -0.3839
   10MOL0     O 1212  -1.465   3.061   6.169  0.2372 -0.8797 -0.1081
   10MOL0     C 1213  -1.595   3.043   6.169  0.1715 -0.2353 -1.0172
   10MOL0     C 1214  -1.679   3.099   6.075  0.9523  0.9687  0.3981
   10MOL0     C 1215  -1.818   3.087   6.089  0.2158 -0.3000 -0.5075
   10MOL0     C 1216  -1.873   3.023   6.200  0.9009 -0.1544  0.4470
   10MOL0     C 1217  -2.019   3.030   6.226  0.0371  0.0453  0.4997
   10MOL0     O 1218  -2.062   2.993   6.346  0.3181  0.3766  0.4272
   10MOL0     C 1219  -2.199   3.000   6.365 -0.9893 -0.1745  0.2813
   10MOL0     C 1220  -2.237   3.069   6.475  0.4177  0.4655  0.5390
   10MOL0     C 1221  -2.367   3.068   6.530 -0.4254  0.3672  0.1030
   10MOL0     C 1222  -2.458   3.000   6.456  0.0742 -0.1802 -0.0691
   10MOL0     O 1223  -2.605   3.006   6.485 -0.2232 -0.4255  0.0859
   10MOL0     C 1224  -2.645   2.965   6.622 -0.1579  0.3827 -0.3307
   10MOL0     C 1225  -2.789   2.894   6.619 -0.4455  1.0975  0.1032
   10MOL0     C 1226  -2.801   2.763   6.549 -0.4075 -1.0294  0.4965
   10MOL0     C 1227  -2.952   2.722   6.516  0.7492  0.7602  0.1429
   10MOL0     C 1228  -2.952   2.582   6.455 -0.1708 -0.0240 -0.1061
   10MOL0     C 1229  -2.975   2.473   6.558  0.7068 -0.7537  1.2781
   10MOL0     C 1230  -2.925   2.334   6.509 -0.4698  0.4789 -0.1270
   10MOL0     C 1231  -2.971   2.225   6.610 -1.1822  0.3552  0.7241
   10MOL0    Cl 1232  -3.150   2.228   6.634  0.4996 -0.1227  0.0122
   10MOL0     C 1233  -2.426   2.943   6.332  0.3370 -0.2856 -0.1702
   10MOL0     C 1234  -2.297   2.932   6.290 -0.3948 -0.1001  0.3452
   10MOL0     O 1235  -2.095   3.063   6.132  0.3133  0.0658 -0.8472
   10MOL0     C 1236  -1.790   2.964   6.292  0.0824  0.1560 -0.2642
   10MOL0     C 1237  -1.651   2.979   6.281  0.2493 -0.1222 -0.0035
   10MOL0     N 1238  -1.266   3.096   5.554  0.8015 -0.0961 -0.3343
   10MOL0     N 1239  -1.220   3.095   5.438  0.1775  0.4068  0.7400
   10MOL0     C 1240   0.053   3.134   5.113 -0.4598 -0.2070 -0.5620
   10MOL0     C 1241   0.193   3.114   5.135  0.1855 -0.0369 -0.2330
   10MOL0     C 1242   0.659   3.210   5.102 -0.6237  0.0270  0.2225
   10MOL0     C 1243   0.768   3.292   5.070  0.0761 -0.5345 -0.3168
   10MOL0     C 1244   0.901   3.245   5.085 -0.1355  0.6916  0.5819
   10MOL0     C 1245   0.923   3.115   5.129 -0.9090  0.1537 -0.7218
   10MOL0     O 1246   1.055   3.069   5.132  0.4752 -0.3062 -0.4681
   10MOL0     C 1247   1.090   2.941   5.203  1.1128  0.2039  1.0371
   10MOL0     C 1248   1.245   2.943   5.225 -1.1768  0.5631  0.3667
   10MOL0     C 1249   1.310   2.903   5.090 -0.2276  0.0154 -0.4380
   10MOL0     C 1250   1.461   2.892   5.107 -0.7145  0.2766 -0.6558
   10MOL0     C 1251   1.502   2.769   5.176 -0.6718 -0.0909 -0.1050
   10MOL0     C 1252   1.549   2.683   5.249  0.5131 -0.3294 -0.0660
   10MOL0     C 1253   0.815   3.036   5.158 -0.0137  0.3895  0.1966
   10MOL0     C 1254   0.684   3.082   5.143  0.5593  0.7066 -0.0782
   10MOL0     H 1255   0.305   3.351   4.916  2.1014  0.8750  1.9851
   10MOL0     H 1256   0.070   3.380   4.887 -2.7179 -1.8082 -0.0845
   10MOL0     H 1257  -0.217   3.376   5.139 -1.9262 -1.1024  0.9879
   10MOL0     H 1258  -0.169   3.221   5.213  1.1531  1.0411  0.3170
   10MOL0     H 1259  -0.348   3.108   5.112 -0.8861 -0.3897  0.1923
   10MOL0     H 1260  -0.382   3.250   5.009 -2.0317 -3.0521 -0.6258
   10MOL0     H 1261  -0.444   3.344   5.258 -1.1087 -1.0172 -0.2140
   10MOL0     H 1262  -0.422   3.182   5.294  2.9774  1.0334  0.3710
   10MOL0     H 1263  -0.605   3.276   5.075  0.0603 -1.5025 -1.1405
   10MOL0     H 1264  -0.596   3.115   5.131 -0.2404  0.6471 -4.1264
   10MOL0     H 1265  -0.683   3.335   5.337 -0.8284 -1.2787  1.9073
   10MOL0     H 1266  -0.663   3.174   5.357  2.4318  1.4999  1.7913
   10MOL0     H 1267  -0.849   3.118   5.210  1.6801  0.5066 -0.2000
   10MOL0     H 1268  -0.850   3.286   5.146 -0.5817  1.2795  0.8121
   10MOL0     H 1269  -0.906   3.195   5.438  2.2079 -0.2345 -0.3330
   10MOL0     H 1270  -0.890   3.358   5.389 -0.2872  0.2934  0.9725
   10MOL0     H 1271  -1.077   3.189   5.220 -3.1494  1.7055 -1.1716
   10MOL0     H 1272  -1.104   3.351   5.258 -2.2050 -1.7796 -2.3236
   10MOL0     H 1273  -1.146   3.403   5.534  0.5229 -0.4636 -0.4298
   10MOL0     H 1274  -1.380   3.331   5.748 -1.6803 -1.9210 -0.1643
   10MOL0     H 1275  -1.214   3.317   5.793 -0.5244 -1.1286  3.0434
   10MOL0     H 1276  -1.228   3.089   5.840 -0.0132 -0.9848 -0.5258
   10MOL0     H 1277  -1.395   3.079   5.792 -1.5476  1.3166  2.1651
   10MOL0     H 1278  -1.287   3.232   6.031  0.4530  1.4595 -2.7686
   10MOL0     H 1279  -1.457   3.233   5.972 -0.7789 -1.2951  0.6562
   10MOL0     H 1280  -1.309   2.985   6.069  0.0953  0.9386  2.8217
   10MOL0     H 1281  -1.462   2.985   5.976 -1.0325  0.5444 -0.3800
   10MOL0     H 1282  -1.641   3.147   5.986 -0.3049  2.4453  0.6273
   10MOL0     H 1283  -1.878   3.139   6.015 -0.0160  0.6479  0.3151
   10MOL0     H 1284  -2.152   3.122   6.517  1.6950 -0.3064 -0.9651
   10MOL0     H 1285  -2.403   3.125   6.615 -2.1893 -0.7608  0.1644
   10MOL0     H 1286  -2.628   3.046   6.694  4.2060  1.6619 -2.4359
   10MOL0     H 1287  -2.582   2.881   6.655 -0.2405 -0.1748 -1.5536
   10MOL0     H 1288  -2.847   2.974   6.573 -0.5097  0.7585 -0.4090
   10MOL0     H 1289  -2.834   2.867   6.715  0.2896 -0.1655  0.1150
   10MOL0     H 1290  -2.752   2.690   6.614 -0.3639 -1.4110  0.0385
   10MOL0     H 1291  -2.745   2.777   6.457 -1.6064 -1.1205 -0.2673
   10MOL0     H 1292  -3.013   2.726   6.607  0.1364  0.5952 -0.2567
   10MOL0     H 1293  -2.996   2.796   6.448 -3.6731 -0.5913  1.1722
   10MOL0     H 1294  -2.864   2.558   6.394  0.2146 -3.8905  1.7170
   10MOL0     H 1295  -3.034   2.581   6.382  1.2281 -0.6522 -1.7319
   10MOL0     H 1296  -3.080   2.471   6.591 -0.1264 -1.5902 -1.1811
   10MOL0     H 1297  -2.931   2.508   6.652 -0.2560 -0.0459  1.4788
   10MOL0     H 1298  -2.962   2.305   6.411  0.0822  0.1308 -0.2346
   10MOL0     H 1299  -2.817   2.337   6.498 -0.2144  3.5254  1.8454
   10MOL0     H 1300  -2.924   2.242   6.707 -0.3944  2.9908 -0.0472
   10MOL0     H 1301  -2.951   2.131   6.557 -1.0800  0.8418 -0.1247
   10MOL0     H 1302  -2.497   2.895   6.266  0.4605  0.7166 -1.0641
   10MOL0     H 1303  -2.272   2.875   6.201  1.0500 -2.0127  1.8941
   10MOL0     H 1304  -1.830   2.906   6.376  4.6529 -1.7467  0.9111
   10MOL0     H 1305  -1.577   2.948   6.354 -0.4528 -1.9191 -0.0086
   10MOL0     H 1306  -0.018   3.073   5.168  0.3635 -0.5918  0.0877
   10MOL0     H 1307   0.236   3.045   5.207  0.7002  0.7436  0.2208
   10MOL0     H 1308   0.742   3.394   5.041 -1.5025 -0.8751 -0.2061
   10MOL0     H 1309   0.991   3.303   5.070  1.5012 -1.9034 -0.4080
   10MOL0     H 1310   1.073   2.860   5.132  3.8781  2.6284 -2.8057
   10MOL0     H 1311   1.043   2.930   5.301 -0.7126 -5.4040 -0.1272
   10MOL0     H 1312   1.266   3.048   5.244 -1.6830  0.6316  0.5653
   10MOL0     H 1313   1.274   2.884   5.313 -1.2656  2.8085  1.9960
   10MOL0     H 1314   1.290   2.977   5.012  1.4818  0.4600 -0.4889
   10MOL0     H 1315   1.267   2.806   5.062 -1.3061  0.2921  0.2154
   10MOL0     H 1316   1.507   2.876   5.009 -0.4136 -4.3182  0.0037
   10MOL0     H 1317   1.491   2.978   5.167 -2.8657  1.2216 -0.8598
   10MOL0     H 1318   1.576   2.614   5.326  1.2664 -1.7551 -1.5377
   10MOL0     H 1319   0.816   2.931   5.185 -2.2377  0.2330 -0.1393
   10MOL0     H 1320   0.597   3.018   5.156 -0.2885  1.8603  0.1654
   11MOL0     O 1321   2.044  11.039  10.371  0.2370 -0.9226 -0.6902
   11MOL0     C 1322   2.094  11.124  10.457 -0.4638  0.7907  0.0829
   11MOL0     O 1323   2.041  11.159  10.574 -0.2918 -0.3554 -0.4058
   11MOL0     C 1324   1.934  11.079  10.620 -0.1619  0.2827 -1.0559
   11MOL0     C 1325   1.812  11.134  10.648 -0.9435 -0.6817  0.1059
   11MOL0     C 1326   1.700  11.058  10.685  0.2053  0.8289  0.2150
   11MOL0     C 1327   1.716  10.928  10.727 -0.0654  0.5377 -0.3607
   11MOL0     O 1328   1.607  10.858  10.770 -0.2280 -0.6331 -0.1375
   11MOL0     C 1329   1.629  10.754  10.863 -0.0904 -0.0497  0.8135
   11MOL0     C 1330   1.494  10.682  10.893 -0.6652  0.4254 -0.1813
   11MOL0     C 1331   1.368  10.777  10.915 -0.7164  0.4350  0.1188
   11MOL0     C 1332   1.253  10.705  10.982 -0.4318  0.0932 -0.3702
   11MOL0     C 1333   1.122  10.786  10.957  0.1255  0.4546 -0.4396
   11MOL0     C 1334   1.016  10.748  11.060 -0.6307 -0.1030 -0.3085
   11MOL0     C 1335   0.904  10.847  11.044  0.5555  0.3668 -0.6014
   11MOL0     C 1336   0.816  10.844  11.177 -0.2332  0.4053 -0.6589
   11MOL0     N 1337   0.684  10.899  11.162 -1.0501 -0.3788  0.5845
   11MOL0     C 1338   0.598  10.917  11.268 -1.0325 -0.7084 -0.3418
   11MOL0     C 1339   0.476  10.936  11.210 -0.9598 -0.2767  0.2541
   11MOL0     C 1340   0.341  10.951  11.281 -1.0361  1.2214 -0.1792
   11MOL0     C 1341   0.319  10.838  11.380 -0.8867 -0.8810  0.8042
   11MOL0     C 1342   0.185  10.836  11.439 -0.4103  0.0042  0.7590
   11MOL0     C 1343   0.167  10.744  11.557 -0.2534 -0.3818  0.1785
   11MOL0     O 1344   0.111  10.805  11.670  0.9668  0.3719  0.3071
   11MOL0     C 1345  -0.005  10.756  11.716 -0.0625 -0.6127 -0.9260
   11MOL0     C 1346  -0.120  10.756  11.637  0.4764 -0.1730 -0.9608
   11MOL0     C 1347  -0.248  10.717  11.681 -0.1164  0.3486 -0.3512
   11MOL0     C 1348  -0.266  10.688  11.816  0.1170 -0.1943 -0.1571
   11MOL0     C 1349  -0.402  10.668  11.879  0.3684  0.6275  0.2416
   11MOL0     O 1350  -0.411  10.661  12.016  0.9804 -0.5050 -0.2659
   11MOL0     C 1351  -0.534  10.693  12.073 -0.7884 -0.5298 -0.1542
   11MOL0     C 1352  -0.582  10.611  12.178 -0.7445  0.2915  0.2577
   11MOL0     C 1353  -0.700  10.636  12.244 -0.5935 -0.4669 -0.4529
   11MOL0     C 1354  -0.784  10.738  12.193  0.2935 -0.2890 -1.0575
   11MOL0     O 1355  -0.910  10.745  12.253  0.8574 -0.1827 -0.2172
   11MOL0     C 1356  -0.980  10.870  12.263  0.4451 -0.7357 -0.0009
   11MOL0     C 1357  -1.104  10.856  12.360 -0.5308 -0.2740 -0.0980
   11MOL0     C 1358  -1.178  10.990  12.353 -1.0195  1.0922 -0.6501
   11MOL0     C 1359  -1.290  10.987  12.448 -0.0520 -0.3307 -0.2753
   11MOL0     C 1360  -1.366  11.117  12.444  0.2150  0.3564 -0.2053
   11MOL0     C 1361  -1.510  11.098  12.497  0.0868 -0.8810  0.7276
   11MOL0     C 1362  -1.591  11.233  12.507 -0.2690 -0.0111 -0.5996
   11MOL0     C 1363  -1.708  11.217  12.602  0.7239 -0.3073 -0.5731
   11MOL0    Cl 1364  -1.782  11.364  12.616  0.0215 -0.1363 -0.2351
   11MOL0     C 1365  -0.746  10.819  12.083 -0.3571 -0.8716  0.0823
   11MOL0     C 1366  -0.616  10.798  12.023 -0.0041  0.5108 -0.4799
   11MOL0     O 1367  -0.494  10.670  11.804 -0.6083  0.6819  0.1746
   11MOL0     C 1368  -0.147  10.685  11.903 -0.3176 -0.4499  0.2077
   11MOL0     C 1369  -0.021  10.720  11.852  0.2182  0.0518 -0.1847
   11MOL0     N 1370   0.501  10.948  11.069  0.3442 -0.4534 -0.6569
   11MOL0     N 1371   0.627  10.929  11.042  0.1192  0.4976  0.5618
   11MOL0     C 1372   1.843  10.868  10.696  0.1284  0.2358 -1.6750
   11MOL0     C 1373   1.948  10.946  10.651  0.3456  0.7288  0.2134
   11MOL0     C 1374   2.233  11.172  10.432 -0.2732  0.2281 -0.3494
   11MOL0     C 1375   2.272  11.294  10.486  0.9259 -0.7758  0.8575
   11MOL0     C 1376   2.405  11.339  10.469 -0.4527  0.8822  0.1971
   11MOL0     C 1377   2.499  11.258  10.395  0.0439  0.3147 -0.3276
   11MOL0     O 1378   2.631  11.304  10.380  0.0333  0.3233  0.2510
   11MOL0     C 1379   2.726  11.205  10.341  0.9142  0.1833  1.1310
   11MOL0     C 1380   2.862  11.272  10.349 -0.0981 -0.0352 -0.8992
   11MOL0     C 1381   2.910  11.293  10.495 -0.3505 -0.2327  0.1413
   11MOL0     C 1382   2.822  11.391  10.578 -0.2553 -0.4128 -0.2095
   11MOL0     C 1383   2.880  11.423  10.705 -0.0385 -0.1703  0.2284
   11MOL0     C 1384   2.955  11.446  10.800 -0.3390  0.0468 -0.0565
   11MOL0     C 1385   2.450  11.137  10.331  0.9364  0.4547 -0.0968
   11MOL0     C 1386   2.310  11.098  10.352 -0.0728  0.3434  0.4706
   11MOL0     H 1387   1.785  11.238  10.628  2.2036  0.2868  0.4305
   11MOL0     H 1388   1.601  11.099  10.699 -0.3629 -0.8113  1.2884
   11MOL0     H 1389   1.664  10.802  10.955  1.7963  1.1739 -0.4629
   11MOL0     H 1390   1.702  10.679  10.833 -0.4139  0.1551 -0.5359
   11MOL0     H 1391   1.514  10.624  10.984 -4.8290 -0.2826  0.4765
   11MOL0     H 1392   1.475  10.606  10.817 -0.2442 -2.3522  2.3013
   11MOL0     H 1393   1.337  10.809  10.815 -0.5234 -2.6567 -1.0283
   11MOL0     H 1394   1.402  10.864  10.971  2.6138  1.3368 -2.8883
   11MOL0     H 1395   1.244  10.600  10.953  0.1928  0.7668 -3.3646
   11MOL0     H 1396   1.286  10.715  11.086 -1.8273  0.9033  0.0119
   11MOL0     H 1397   1.079  10.766  10.858 -1.0469  0.9201 -0.0381
   11MOL0     H 1398   1.162  10.887  10.970  3.8149 -1.1637  3.0875
   11MOL0     H 1399   1.058  10.759  11.161 -1.3380  1.4874 -0.1616
   11MOL0     H 1400   0.975  10.648  11.039 -0.9674 -0.3625  1.3642
   11MOL0     H 1401   0.945  10.949  11.037  0.6199  0.5788  1.9427
   11MOL0     H 1402   0.842  10.822  10.957 -0.0949 -2.0188  0.4861
   11MOL0     H 1403   0.873  10.886  11.260  0.7321 -0.9125 -0.6165
   11MOL0     H 1404   0.804  10.743  11.216  0.1276  0.2617 -0.9047
   11MOL0     H 1405   0.626  10.911  11.372  4.2450  0.0341 -1.4502
   11MOL0     H 1406   0.262  10.954  11.206 -1.2440 -2.6865 -0.3177
   11MOL0     H 1407   0.343  11.051  11.326  1.6316  2.3196 -2.4003
   11MOL0     H 1408   0.399  10.862  11.451  1.1789 -0.1784 -1.6282
   11MOL0     H 1409   0.329  10.738  11.337 -0.0243 -1.8692  3.1268
   11MOL0     H 1410   0.155  10.936  11.469  0.9962 -0.1492  2.9117
   11MOL0     H 1411   0.123  10.802  11.355 -2.3714  4.0724  0.3579
   11MOL0     H 1412   0.261  10.701  11.591 -1.4720 -1.4168  2.4479
   11MOL0     H 1413   0.114  10.650  11.538 -1.5464  0.2919  0.3641
   11MOL0     H 1414  -0.111  10.797  11.537 -0.1638 -0.4033 -1.1173
   11MOL0     H 1415  -0.328  10.720  11.608  0.6007  1.1772 -1.1162
   11MOL0     H 1416  -0.517  10.527  12.201 -0.4467  1.2140  3.1918
   11MOL0     H 1417  -0.738  10.569  12.319  0.9742 -1.3477 -0.4098
   11MOL0     H 1418  -1.012  10.898  12.162  0.9961 -1.3532 -0.3571
   11MOL0     H 1419  -0.911  10.948  12.296  2.7008 -1.8238 -1.7918
   11MOL0     H 1420  -1.063  10.828  12.457 -0.7953 -1.5330 -0.3327
   11MOL0     H 1421  -1.171  10.774  12.335 -0.7493  0.5649 -2.4885
   11MOL0     H 1422  -1.210  10.994  12.249 -2.9902  0.4074 -0.1005
   11MOL0     H 1423  -1.112  11.076  12.372  1.1924 -0.5580 -0.4130
   11MOL0     H 1424  -1.354  10.898  12.438 -1.5412  0.6463  0.1661
   11MOL0     H 1425  -1.253  10.975  12.550  3.1813 -0.7281 -1.3738
   11MOL0     H 1426  -1.383  11.156  12.343  0.3490 -1.8035 -1.1042
   11MOL0     H 1427  -1.313  11.185  12.511 -0.5623  0.2550  0.5303
   11MOL0     H 1428  -1.511  11.035  12.586  0.5203  1.1967  2.2776
   11MOL0     H 1429  -1.562  11.030  12.429  3.2021 -0.5741 -2.2506
   11MOL0     H 1430  -1.525  11.310  12.547  1.6635 -1.8931  0.0420
   11MOL0     H 1431  -1.636  11.273  12.416  1.1101 -0.7113 -1.6331
   11MOL0     H 1432  -1.685  11.198  12.707 -2.7410  1.2912  0.6285
   11MOL0     H 1433  -1.780  11.142  12.571  2.8999 -2.2858 -1.1394
   11MOL0     H 1434  -0.817  10.894  12.049  1.3107 -0.3040 -2.3579
   11MOL0     H 1435  -0.598  10.863  11.938  0.4998  0.7895 -0.1634
   11MOL0     H 1436  -0.162  10.666  12.009 -1.8749  4.1567  1.0532
   11MOL0     H 1437   0.063  10.720  11.920  0.8316 -0.8060 -0.9255
   11MOL0     H 1438   1.865  10.763  10.709  0.9470  0.6459  0.7560
   11MOL0     H 1439   2.049  10.906  10.642  0.2261  0.4002  0.3092
   11MOL0     H 1440   2.200  11.351  10.545  1.6584  0.4784  0.5859
   11MOL0     H 1441   2.452  11.427  10.511 -1.5469  1.3883  0.3848
   11MOL0     H 1442   2.712  11.190  10.234  0.4095 -2.4531  1.4802
   11MOL0     H 1443   2.712  11.113  10.399 -1.9413  0.1487  0.5460
   11MOL0     H 1444   2.937  11.212  10.298  1.0487 -3.4874  4.0241
   11MOL0     H 1445   2.854  11.374  10.312  1.7035 -0.2756 -2.0787
   11MOL0     H 1446   3.010  11.336  10.492 -0.2704 -0.4929 -1.6428
   11MOL0     H 1447   2.924  11.202  10.554  0.1419 -1.8531 -2.3522
   11MOL0     H 1448   2.816  11.480  10.514  1.9385 -1.3028 -1.7904
   11MOL0     H 1449   2.726  11.351  10.609 -1.1593 -0.5610 -2.9178
   11MOL0     H 1450   3.023  11.487  10.872 -0.1256  2.7683 -1.6492
   11MOL0     H 1451   2.512  11.081  10.261  1.6335 -0.7096  1.3804
   11MOL0     H 1452   2.261  11.024  10.290 -2.6547  4.2181 -2.6367
   12MOL0     O 1453   6.439   4.555   9.305  0.4462  0.6224  0.7091
   12MOL0     C 1454   6.555   4.548   9.266 -0.3727 -0.1101 -1.0759
   12MOL0     O 1455   6.620   4.634   9.184 -0.2982  0.3805  0.2469
   12MOL0     C 1456   6.545   4.740   9.149  0.2403  1.1343 -0.6513
   12MOL0     C 1457   6.525   4.747   9.011 -0.1498  0.0687 -0.5390
   12MOL0     C 1458   6.441   4.850   8.956  0.6986  1.2625  0.8177
   12MOL0     C 1459   6.371   4.936   9.038 -0.0343 -0.8441  0.9066
   12MOL0     O 1460   6.292   5.029   8.974  0.1550 -0.2263 -0.5228
   12MOL0     C 1461   6.203   5.110   9.060 -0.5558 -0.0875  0.0518
   12MOL0     C 1462   6.135   5.214   8.964 -0.6864  0.7286 -0.5387
   12MOL0     C 1463   6.025   5.297   9.032 -0.5074 -0.4107  0.5701
   12MOL0     C 1464   6.009   5.436   8.961  0.3421 -0.0873 -0.5972
   12MOL0     C 1465   5.958   5.438   8.818  0.9452  0.3063  0.9696
   12MOL0     C 1466   5.965   5.580   8.759 -0.1013  0.2401 -0.9375
   12MOL0     C 1467   5.860   5.619   8.656  0.0694  1.1139  0.6908
   12MOL0     C 1468   5.903   5.555   8.519 -0.1511 -0.4715  0.2650
   12MOL0     N 1469   5.793   5.548   8.415 -0.0286 -0.3993 -0.2216
   12MOL0     C 1470   5.692   5.451   8.420  0.2512 -0.8577  1.1481
   12MOL0     C 1471   5.626   5.469   8.300 -0.4179  0.9178 -0.0549
   12MOL0     C 1472   5.496   5.409   8.250 -0.0989 -0.2201 -0.2680
   12MOL0     C 1473   5.484   5.260   8.289  1.2971  0.4344 -0.6615
   12MOL0     C 1474   5.388   5.180   8.209 -0.4536  0.3054  0.4556
   12MOL0     C 1475   5.245   5.239   8.186 -0.7219 -0.2966  0.5454
   12MOL0     O 1476   5.177   5.283   8.306  0.1309 -0.0980  0.5720
   12MOL0     C 1477   5.080   5.193   8.353  0.1079 -0.0262  0.2183
   12MOL0     C 1478   4.947   5.229   8.339  0.7119 -1.2458  0.1623
   12MOL0     C 1479   4.842   5.165   8.411  0.0082  0.0449 -1.0294
   12MOL0     C 1480   4.871   5.045   8.482  0.5496  0.0293  0.3368
   12MOL0     C 1481   4.762   4.962   8.544  0.2966  1.0784  0.0109
   12MOL0     O 1482   4.796   4.830   8.583 -0.7430 -1.2351 -0.0162
   12MOL0     C 1483   4.712   4.766   8.660  0.5069  0.5854  0.1944
   12MOL0     C 1484   4.606   4.697   8.601  0.8607 -0.1436 -0.6209
   12MOL0     C 1485   4.537   4.606   8.680  0.0934  0.3557 -0.3840
   12MOL0     C 1486   4.568   4.579   8.810 -1.2988  0.0799  0.2026
   12MOL0     O 1487   4.504   4.489   8.900 -0.0888  0.3691  0.8686
   12MOL0     C 1488   4.358   4.461   8.882 -0.3701 -0.1735  0.3452
   12MOL0     C 1489   4.309   4.357   8.991 -0.1828 -0.4564 -0.0084
   12MOL0     C 1490   4.327   4.221   8.926 -0.1214 -0.0955  0.7819
   12MOL0     C 1491   4.326   4.109   9.031 -0.3992  0.8251  0.1362
   12MOL0     C 1492   4.352   3.967   8.965  0.1880 -0.2972 -0.8542
   12MOL0     C 1493   4.232   3.894   8.913 -0.4141  0.1556  0.0569
   12MOL0     C 1494   4.267   3.764   8.840 -0.0001  0.0821 -0.7951
   12MOL0     C 1495   4.280   3.644   8.934 -0.9588  0.1214 -0.0614
   12MOL0    Cl 1496   4.113   3.595   8.983  0.4832  0.4187  0.0811
   12MOL0     C 1497   4.682   4.642   8.870  0.4094  0.7847  0.8331
   12MOL0     C 1498   4.754   4.726   8.792  0.3188 -0.3465  0.5297
   12MOL0     O 1499   4.652   5.011   8.552 -0.0155 -0.0437  0.3359
   12MOL0     C 1500   5.007   5.012   8.492  0.3516 -0.3931  0.8726
   12MOL0     C 1501   5.114   5.083   8.429  0.7574 -0.2363 -0.1862
   12MOL0     N 1502   5.705   5.567   8.231  0.8486  0.5725 -0.2338
   12MOL0     N 1503   5.803   5.614   8.299  0.3642  0.4132 -0.7311
   12MOL0     C 1504   6.380   4.927   9.177  0.0540  0.8983 -0.3537
   12MOL0     C 1505   6.466   4.826   9.232  1.0982 -0.1027  0.1749
   12MOL0     C 1506   6.636   4.436   9.317  0.0273 -0.4833 -0.2762
   12MOL0     C 1507   6.596   4.365   9.431  0.2496 -0.0294 -0.0459
   12MOL0     C 1508   6.664   4.256   9.488 -0.4435  0.6795  1.0320
   12MOL0     C 1509   6.794   4.228   9.442  0.3290 -0.8620 -0.2574
   12MOL0     O 1510   6.867   4.124   9.487 -0.8366 -0.1244  0.2806
   12MOL0     C 1511   6.844   4.064   9.612  0.3066 -0.6359 -0.0854
   12MOL0     C 1512   6.743   3.950   9.620 -0.3963  1.0235 -0.1504
   12MOL0     C 1513   6.819   3.814   9.585  0.6823 -0.1581 -0.1506
   12MOL0     C 1514   6.883   3.809   9.448 -0.2004 -0.1348 -0.3031
   12MOL0     C 1515   6.940   3.680   9.415  0.8012  0.2526 -0.4044
   12MOL0     C 1516   6.995   3.576   9.388  0.0032  0.2239  1.1412
   12MOL0     C 1517   6.840   4.303   9.331 -0.9388 -0.8647  0.0938
   12MOL0     C 1518   6.763   4.399   9.261 -0.5764  0.3999  0.2023
   12MOL0     H 1519   6.593   4.687   8.952 -0.4395  1.2658 -2.1644
   12MOL0     H 1520   6.425   4.858   8.849 -1.3203  1.1097  1.0684
   12MOL0     H 1521   6.271   5.161   9.129  0.2568 -0.3332 -0.5498
   12MOL0     H 1522   6.130   5.044   9.107 -1.2428  3.1257  4.0762
   12MOL0     H 1523   6.092   5.160   8.879  0.1676 -0.8794  0.0306
   12MOL0     H 1524   6.214   5.279   8.926  1.7841 -2.2504 -0.8383
   12MOL0     H 1525   6.051   5.314   9.137 -2.6092 -1.3423  1.2865
   12MOL0     H 1526   5.933   5.239   9.033 -1.4839  1.0413 -0.6280
   12MOL0     H 1527   5.928   5.486   9.014 -1.4681 -2.8833 -0.4922
   12MOL0     H 1528   6.104   5.489   8.973 -0.2699  1.2857 -1.5570
   12MOL0     H 1529   5.858   5.395   8.825  0.7541  0.5250 -0.1382
   12MOL0     H 1530   6.016   5.371   8.754  1.7955  1.3474  0.6201
   12MOL0     H 1531   6.065   5.596   8.718  0.2008  3.0287  0.6113
   12MOL0     H 1532   5.954   5.650   8.843  0.7769 -1.3411  0.5785
   12MOL0     H 1533   5.761   5.582   8.681 -0.0289 -1.1423 -2.4080
   12MOL0     H 1534   5.854   5.726   8.635  0.3190  0.6850 -1.8530
   12MOL0     H 1535   5.942   5.453   8.530 -1.6132 -1.5916 -3.5008
   12MOL0     H 1536   5.987   5.607   8.473  0.8252 -0.0354  2.4004
   12MOL0     H 1537   5.667   5.394   8.508  0.5773 -1.5021  0.8294
   12MOL0     H 1538   5.477   5.424   8.143  0.0639  0.6311 -0.1890
   12MOL0     H 1539   5.411   5.456   8.301  0.5508  3.5602 -2.3033
   12MOL0     H 1540   5.469   5.250   8.397  1.3615 -2.3193 -0.8443
   12MOL0     H 1541   5.580   5.207   8.283 -0.1267 -2.7051  1.5992
   12MOL0     H 1542   5.435   5.155   8.113  0.8094  0.5480  0.9827
   12MOL0     H 1543   5.376   5.082   8.256 -0.5894 -0.6735 -1.5524
   12MOL0     H 1544   5.194   5.162   8.128  0.6512 -0.6407 -0.2731
   12MOL0     H 1545   5.245   5.323   8.116 -1.1536  0.7400  1.7659
   12MOL0     H 1546   4.940   5.318   8.278  2.0880 -0.0991  1.5719
   12MOL0     H 1547   4.743   5.208   8.422 -0.5650 -1.9287  4.8772
   12MOL0     H 1548   4.569   4.723   8.502  1.6512  0.2283 -0.8270
   12MOL0     H 1549   4.449   4.562   8.633  2.1584 -2.5355 -1.8492
   12MOL0     H 1550   4.316   4.436   8.784 -0.5612  2.1179 -0.2090
   12MOL0     H 1551   4.313   4.556   8.911 -1.1186 -0.4932  0.2479
   12MOL0     H 1552   4.204   4.380   9.009  0.0007 -0.0939  0.6030
   12MOL0     H 1553   4.366   4.372   9.083 -0.6591  1.8583 -0.0339
   12MOL0     H 1554   4.428   4.211   8.884 -0.4058  3.2165 -1.0593
   12MOL0     H 1555   4.250   4.202   8.851  0.2277 -1.6620  0.7961
   12MOL0     H 1556   4.412   4.124   9.098 -0.3513 -0.9286  0.5245
   12MOL0     H 1557   4.231   4.105   9.084 -2.1072  0.3880 -2.7746
   12MOL0     H 1558   4.395   3.910   9.047 -1.3966 -0.0711  0.1715
   12MOL0     H 1559   4.421   3.975   8.881 -2.3190  1.3044 -2.9377
   12MOL0     H 1560   4.186   3.955   8.836 -1.7032  1.0755  1.4985
   12MOL0     H 1561   4.147   3.893   8.982 -1.2466 -2.8666 -0.8490
   12MOL0     H 1562   4.185   3.739   8.773  0.2595  0.5317 -1.2843
   12MOL0     H 1563   4.359   3.761   8.781  0.0921  1.2182 -0.7302
   12MOL0     H 1564   4.333   3.683   9.021  1.3757 -2.1349 -0.3452
   12MOL0     H 1565   4.340   3.560   8.896 -1.3927 -1.4676  2.5215
   12MOL0     H 1566   4.702   4.617   8.974 -1.2834  1.1974  1.2995
   12MOL0     H 1567   4.840   4.782   8.829  0.9882 -0.7153 -0.4411
   12MOL0     H 1568   5.029   4.914   8.534  1.7819 -1.8959 -2.8722
   12MOL0     H 1569   5.214   5.043   8.442  0.7553 -0.2283 -0.1464
   12MOL0     H 1570   6.327   4.984   9.252 -3.8717 -0.7771 -1.5928
   12MOL0     H 1571   6.476   4.813   9.339 -3.1936 -4.0699  0.4088
   12MOL0     H 1572   6.502   4.393   9.478  0.4540 -1.0629  1.0223
   12MOL0     H 1573   6.616   4.196   9.564  0.0067 -0.3037  0.5584
   12MOL0     H 1574   6.805   4.144   9.676  2.8750 -0.1070  0.9333
   12MOL0     H 1575   6.943   4.050   9.657  1.1701  1.5756 -1.1963
   12MOL0     H 1576   6.702   3.941   9.720 -1.2262  0.0780 -0.5663
   12MOL0     H 1577   6.666   3.975   9.546  0.7293  1.6776 -1.1476
   12MOL0     H 1578   6.751   3.730   9.601 -1.7019  1.3769 -1.6587
   12MOL0     H 1579   6.896   3.793   9.660  1.3254  2.9078  0.1947
   12MOL0     H 1580   6.806   3.839   9.376  0.7840 -0.0376 -1.3449
   12MOL0     H 1581   6.965   3.882   9.450  0.3240 -0.6475 -1.9388
   12MOL0     H 1582   7.053   3.486   9.382 -1.4934 -0.6632 -1.4142
   12MOL0     H 1583   6.939   4.271   9.300 -1.2067  0.5329 -2.4271
   12MOL0     H 1584   6.808   4.464   9.187 -2.1339 -2.7583 -3.8804
   13MOL0     O 1585   5.678   9.809   5.704 -0.5215  0.9324  0.5730
   13MOL0     C 1586   5.705   9.797   5.826  0.1950  0.3301 -0.1194
   13MOL0     O 1587   5.622   9.834   5.925  0.1471  0.2346  0.2752
   13MOL0     C 1588   5.507   9.911   5.908 -0.1813 -0.1819 -0.9616
   13MOL0     C 1589   5.418   9.910   6.016 -0.0294 -0.6065 -0.3794
   13MOL0     C 1590   5.304   9.982   6.013  0.0804 -0.0300 -0.4988
   13MOL0     C 1591   5.270  10.056   5.901 -1.4213 -0.4218  0.3047
   13MOL0     O 1592   5.160  10.139   5.908  0.9230 -0.0369  0.6541
   13MOL0     C 1593   5.034  10.071   5.911 -0.1475  0.5484 -0.4590
   13MOL0     C 1594   4.935  10.147   5.832  1.0544 -0.3889  0.0118
   13MOL0     C 1595   4.801  10.078   5.786 -0.0324 -0.2249  0.5297
   13MOL0     C 1596   4.701  10.089   5.899  0.5092  0.3700 -0.5818
   13MOL0     C 1597   4.574  10.031   5.849  0.0931  0.7679  0.4418
   13MOL0     C 1598   4.461  10.043   5.949 -0.1608  0.2978  0.1498
   13MOL0     C 1599   4.335   9.972   5.905  0.3603  0.8767 -0.3387
   13MOL0     C 1600   4.218  10.018   5.982  0.5095 -0.1886  0.5749
   13MOL0     N 1601   4.099   9.964   5.936 -0.4348 -0.2301  0.6824
   13MOL0     C 1602   4.070   9.951   5.799  0.1521  0.4436  0.4879
   13MOL0     C 1603   3.974   9.860   5.788 -0.3303 -0.8591  0.0517
   13MOL0     C 1604   3.911   9.826   5.665  0.1282  0.1721 -0.0913
   13MOL0     C 1605   3.998   9.742   5.563 -0.2705 -0.4050  0.7530
   13MOL0     C 1606   3.923   9.701   5.428  0.0078  0.1984 -1.0958
   13MOL0     C 1607   3.787   9.637   5.454 -0.5970  0.3553 -0.3484
   13MOL0     O 1608   3.736   9.593   5.329  0.2767  0.5011 -0.1883
   13MOL0     C 1609   3.609   9.549   5.314  0.7272  0.0793 -0.1480
   13MOL0     C 1610   3.572   9.501   5.189  0.4775  0.9870  1.1116
   13MOL0     C 1611   3.435   9.470   5.163  0.1316  0.2046  0.0019
   13MOL0     C 1612   3.342   9.473   5.270  0.4045 -0.2634 -0.5034
   13MOL0     C 1613   3.210   9.426   5.245  1.0434  0.4694  0.0957
   13MOL0     O 1614   3.138   9.372   5.352 -0.0513 -0.3635  0.3601
   13MOL0     C 1615   3.008   9.333   5.332 -0.0727  0.7359 -0.0271
   13MOL0     C 1616   2.911   9.432   5.337  0.3542  0.2850 -0.3318
   13MOL0     C 1617   2.776   9.401   5.335 -0.5778 -0.2793  0.0272
   13MOL0     C 1618   2.739   9.267   5.302  1.3443 -0.6026 -0.4862
   13MOL0     O 1619   2.604   9.248   5.276 -0.0229 -0.2947  0.7514
   13MOL0     C 1620   2.554   9.134   5.338 -0.7112 -0.3661  0.2851
   13MOL0     C 1621   2.401   9.142   5.327  0.6213 -0.0295  0.2200
   13MOL0     C 1622   2.351   9.175   5.184 -0.3388 -0.7880  0.3864
   13MOL0     C 1623   2.200   9.167   5.177 -0.0000  0.0203  0.3597
   13MOL0     C 1624   2.126   9.288   5.240 -0.7477  0.4308  0.4434
   13MOL0     C 1625   1.974   9.255   5.240 -0.4587 -0.1037  0.0664
   13MOL0     C 1626   1.910   9.384   5.292 -0.0470  0.2940  0.1587
   13MOL0     C 1627   1.756   9.387   5.264 -1.4839 -0.1024 -0.1460
   13MOL0    Cl 1628   1.662   9.312   5.401 -0.2668  0.2472  0.3438
   13MOL0     C 1629   2.838   9.169   5.297 -0.5614  0.8775  0.4445
   13MOL0     C 1630   2.974   9.197   5.315 -0.0475  1.4177  0.7695
   13MOL0     O 1631   3.167   9.422   5.127 -0.6801 -0.2374 -0.3961
   13MOL0     C 1632   3.386   9.525   5.389  1.0621 -0.7094 -0.7212
   13MOL0     C 1633   3.511   9.566   5.414 -0.2498 -0.8578  0.1750
   13MOL0     N 1634   3.936   9.826   5.912  1.0594  0.1517 -0.4514
   13MOL0     N 1635   4.011   9.886   6.004 -0.5400  0.6885  0.1337
   13MOL0     C 1636   5.351  10.058   5.796 -0.4299  0.6061 -0.7286
   13MOL0     C 1637   5.475   9.989   5.796  0.2151 -0.4844 -0.9371
   13MOL0     C 1638   5.833   9.736   5.872  0.8031 -0.3156 -0.1930
   13MOL0     C 1639   5.927   9.704   5.770 -0.8202 -0.4013 -0.1550
   13MOL0     C 1640   6.046   9.655   5.802 -0.7625 -0.0482  0.6340
   13MOL0     C 1641   6.076   9.615   5.932  0.1280 -0.0746 -0.3939
   13MOL0     O 1642   6.198   9.565   5.951  0.0083 -0.2016 -0.5015
   13MOL0     C 1643   6.259   9.542   6.080 -0.3274 -0.2875 -0.2345
   13MOL0     C 1644   6.292   9.665   6.152  0.4852 -0.2865 -0.8487
   13MOL0     C 1645   6.369   9.756   6.056  0.5153 -0.2770 -0.0717
   13MOL0     C 1646   6.430   9.875   6.125  0.3350  0.6781 -0.0834
   13MOL0     C 1647   6.502   9.969   6.038 -0.3055  0.2995 -0.1757
   13MOL0     C 1648   6.556  10.032   5.951  0.1052  0.1611 -0.5510
   13MOL0     C 1649   5.979   9.636   6.039  0.3505  0.3789  0.9426
   13MOL0     C 1650   5.856   9.696   6.007  0.1184 -0.0326  0.6800
   13MOL0     H 1651   5.435   9.850   6.105 -1.7973 -0.2521  0.2276
   13MOL0     H 1652   5.247   9.999   6.104 -1.4706 -0.1789 -1.4102
   13MOL0     H 1653   5.002  10.052   6.014  0.2232 -4.0750 -0.9812
   13MOL0     H 1654   5.047   9.970   5.868 -0.6689 -0.4975  1.7097
   13MOL0     H 1655   4.981  10.166   5.734 -3.9321  2.9268 -2.0964
   13MOL0     H 1656   4.903  10.241   5.878 -2.2333 -1.1345 -0.5007
   13MOL0     H 1657   4.815   9.970   5.776 -6.3458 -1.2477 -1.0313
   13MOL0     H 1658   4.764  10.130   5.697  0.3836  4.4555  2.7816
   13MOL0     H 1659   4.730  10.029   5.986 -1.6909  1.0642  0.6854
   13MOL0     H 1660   4.692  10.191   5.937  0.8310  0.0057  0.4914
   13MOL0     H 1661   4.587   9.926   5.821  0.7121  0.8356  0.4536
   13MOL0     H 1662   4.551  10.089   5.759  0.8957  0.5861  0.1081
   13MOL0     H 1663   4.442  10.150   5.956  3.2409  0.9799  0.7171
   13MOL0     H 1664   4.495  10.005   6.046  1.2221 -0.6307 -0.6514
   13MOL0     H 1665   4.321  10.006   5.802  1.7221  1.7399 -0.2612
   13MOL0     H 1666   4.345   9.864   5.894  3.6540  1.0228  0.0240
   13MOL0     H 1667   4.204  10.126   5.970 -0.9262 -0.6040 -2.2777
   13MOL0     H 1668   4.235   9.990   6.087  1.8270 -0.7467  0.2347
   13MOL0     H 1669   4.118   9.996   5.713  0.0471 -1.8093 -0.8278
   13MOL0     H 1670   3.881   9.911   5.602  0.5299 -0.8202 -1.6746
   13MOL0     H 1671   3.823   9.769   5.697  0.7921 -1.7017 -1.4091
   13MOL0     H 1672   4.048   9.661   5.616  2.7714 -0.4602 -1.8656
   13MOL0     H 1673   4.086   9.791   5.519 -0.7989 -0.3716 -0.2969
   13MOL0     H 1674   3.909   9.794   5.373  0.3075  1.4648  0.8679
   13MOL0     H 1675   3.980   9.617   5.388  1.4883  0.7436 -0.1964
   13MOL0     H 1676   3.726   9.717   5.496 -2.0306  0.7075 -2.8715
   13MOL0     H 1677   3.781   9.558   5.528 -2.1481  1.9546  1.3305
   13MOL0     H 1678   3.653   9.477   5.121  0.0914  1.7894  0.3453
   13MOL0     H 1679   3.403   9.426   5.069  0.1702 -2.8252  1.2844
   13MOL0     H 1680   2.954   9.525   5.372 -0.7397  0.1454  1.5275
   13MOL0     H 1681   2.703   9.473   5.371  2.1513  1.4763  2.5841
   13MOL0     H 1682   2.579   9.142   5.445 -2.1774  1.1959  0.5437
   13MOL0     H 1683   2.606   9.047   5.297 -1.0601 -1.5246  2.1602
   13MOL0     H 1684   2.362   9.218   5.396 -0.2784 -0.5489  0.3144
   13MOL0     H 1685   2.347   9.050   5.351 -1.5755  1.1778  0.1490
   13MOL0     H 1686   2.398   9.107   5.113 -1.0557 -0.5093 -0.3707
   13MOL0     H 1687   2.380   9.277   5.154 -1.4081  0.0677  2.1131
   13MOL0     H 1688   2.169   9.149   5.074 -0.9460  0.5846  0.5386
   13MOL0     H 1689   2.185   9.076   5.236  2.5645 -0.0387  1.0578
   13MOL0     H 1690   2.144   9.367   5.166 -0.5282  2.0717  2.1756
   13MOL0     H 1691   2.167   9.315   5.338  0.4034 -0.3018  0.1812
   13MOL0     H 1692   1.956   9.162   5.294  0.2759 -0.8453 -0.9060
   13MOL0     H 1693   1.944   9.247   5.135 -2.1083 -0.6318  0.5553
   13MOL0     H 1694   1.922   9.394   5.400 -0.3903 -1.7328  0.4257
   13MOL0     H 1695   1.955   9.464   5.233  1.0054 -1.9765 -2.3340
   13MOL0     H 1696   1.722   9.360   5.164 -2.5961  4.5444 -1.2423
   13MOL0     H 1697   1.746   9.495   5.250 -0.5042  0.3890  2.3780
   13MOL0     H 1698   2.818   9.066   5.271 -1.8704  1.3879 -0.7273
   13MOL0     H 1699   3.046   9.116   5.309 -3.4233 -1.8515 -4.2548
   13MOL0     H 1700   3.311   9.527   5.468 -0.3928  0.9240 -2.0595
   13MOL0     H 1701   3.531   9.602   5.515 -1.2590  0.5046 -0.0739
   13MOL0     H 1702   5.329  10.105   5.700  0.5254  0.5147 -1.0003
   13MOL0     H 1703   5.537   9.983   5.707  2.8622 -0.8619  0.7953
   13MOL0     H 1704   5.915   9.734   5.666 -0.7556  3.2242  0.7701
   13MOL0     H 1705   6.122   9.658   5.724  0.9846  3.4606  2.2586
   13MOL0     H 1706   6.351   9.491   6.049 -0.7072 -1.0072 -0.2001
   13MOL0     H 1707   6.207   9.474   6.148  0.8786 -2.4613 -1.3639
   13MOL0     H 1708   6.203   9.717   6.189  1.8091  0.9775  0.7659
   13MOL0     H 1709   6.356   9.652   6.240 -3.2611  0.1384  2.2021
   13MOL0     H 1710   6.319   9.789   5.965  1.7486 -0.5729 -0.8728
   13MOL0     H 1711   6.450   9.692   6.020  1.0769  1.4730 -2.1429
   13MOL0     H 1712   6.355   9.924   6.188  1.0571 -0.0114  1.3602
   13MOL0     H 1713   6.511   9.830   6.184 -1.5029 -1.4333  0.9899
   13MOL0     H 1714   6.582  10.101   5.874 -0.5204 -0.0469 -0.9568
   13MOL0     H 1715   6.001   9.600   6.139  3.7453 -1.3531 -0.2469
   13MOL0     H 1716   5.780   9.722   6.080 -0.2173  1.1731 -0.0652
   14MOL0     O 1717   7.191   2.098   1.339 -0.1327 -0.3186  0.4472
   14MOL0     C 1718   7.154   1.977   1.340 -1.3141 -0.4547  0.2316
   14MOL0     O 1719   7.027   1.930   1.369 -0.1156  0.1967  0.1355
   14MOL0     C 1720   6.918   2.017   1.384  0.1800 -0.0658 -0.7439
   14MOL0     C 1721   6.803   1.959   1.433 -0.0651 -0.2367  0.0104
   14MOL0     C 1722   6.684   2.031   1.445  0.4131  0.5544 -0.7301
   14MOL0     C 1723   6.668   2.165   1.414  0.2713 -0.3072  0.0845
   14MOL0     O 1724   6.556   2.246   1.438  0.2167 -0.3084  0.1193
   14MOL0     C 1725   6.440   2.200   1.507  0.6445 -0.4167  0.3318
   14MOL0     C 1726   6.444   2.205   1.660 -0.2658  0.3563 -0.1856
   14MOL0     C 1727   6.316   2.150   1.721 -1.0291  0.0050 -0.1666
   14MOL0     C 1728   6.209   2.257   1.736  0.0517 -0.0576 -0.0733
   14MOL0     C 1729   6.093   2.212   1.824 -0.7076 -0.2638  0.0283
   14MOL0     C 1730   5.983   2.317   1.854  0.1885  0.2795  0.0055
   14MOL0     C 1731   5.880   2.259   1.960  0.3878 -0.3219 -0.3320
   14MOL0     C 1732   5.749   2.343   1.962  0.8881  0.0072  0.0276
   14MOL0     N 1733   5.663   2.306   1.850 -0.0505  0.5406  0.1942
   14MOL0     C 1734   5.538   2.361   1.819  0.7662 -0.2916 -0.1784
   14MOL0     C 1735   5.505   2.316   1.698 -0.7252 -0.3777  0.7951
   14MOL0     C 1736   5.386   2.364   1.613  0.4845  0.9133 -0.3383
   14MOL0     C 1737   5.253   2.293   1.660 -0.7024 -0.5110 -0.6219
   14MOL0     C 1738   5.186   2.372   1.777  0.6210  0.2760  0.5457
   14MOL0     C 1739   5.027   2.328   1.782 -0.9834 -0.7218  0.2641
   14MOL0     O 1740   5.028   2.193   1.806  0.4126  0.3782 -0.4288
   14MOL0     C 1741   4.907   2.122   1.806 -0.3588 -0.4497 -0.1118
   14MOL0     C 1742   4.784   2.188   1.837  0.0465 -0.1757  0.4650
   14MOL0     C 1743   4.659   2.119   1.827 -0.8305  0.4324 -0.2631
   14MOL0     C 1744   4.659   1.983   1.787  0.1390  0.0176 -0.1784
   14MOL0     C 1745   4.528   1.920   1.760  0.1031  0.4349  0.0334
   14MOL0     O 1746   4.413   1.976   1.813 -0.3623  0.2806  0.2498
   14MOL0     C 1747   4.298   1.900   1.804 -0.1549 -0.2411 -0.1433
   14MOL0     C 1748   4.241   1.879   1.677  0.1398  0.1053 -0.2497
   14MOL0     C 1749   4.116   1.819   1.668 -0.3039 -0.1248 -0.0298
   14MOL0     C 1750   4.057   1.763   1.790  0.3825 -0.1339 -0.7763
   14MOL0     O 1751   3.926   1.711   1.804 -0.4760 -0.0730  0.0336
   14MOL0     C 1752   3.869   1.693   1.676 -0.8492 -0.1199 -0.3186
   14MOL0     C 1753   3.751   1.601   1.672 -0.4510  0.4555  0.0653
   14MOL0     C 1754   3.645   1.656   1.783 -0.1819  0.2573  0.4875
   14MOL0     C 1755   3.515   1.581   1.771 -0.2704  0.0747 -0.8530
   14MOL0     C 1756   3.413   1.637   1.873 -0.5236  0.3372 -0.0122
   14MOL0     C 1757   3.277   1.554   1.891 -0.2777  0.1441  0.8443
   14MOL0     C 1758   3.190   1.614   1.993 -0.2277 -0.2013 -1.2767
   14MOL0     C 1759   3.083   1.512   2.027  0.4155  0.1868 -0.2804
   14MOL0    Cl 1760   2.978   1.586   2.160 -0.2415 -0.5656  0.4046
   14MOL0     C 1761   4.125   1.782   1.906  0.7013 -0.3534  0.1613
   14MOL0     C 1762   4.242   1.843   1.916 -0.3334  0.9005 -0.5528
   14MOL0     O 1763   4.530   1.817   1.689 -0.3628  0.1717 -0.1621
   14MOL0     C 1764   4.780   1.917   1.778  0.3005  0.5208 -1.0525
   14MOL0     C 1765   4.901   1.985   1.788  0.0778  0.1018 -0.5755
   14MOL0     N 1766   5.598   2.236   1.655 -0.0196 -0.1382  0.0391
   14MOL0     N 1767   5.700   2.230   1.745  0.5343  0.0881  0.1775
   14MOL0     C 1768   6.782   2.218   1.360 -0.6945  0.4075  1.2006
   14MOL0     C 1769   6.901   2.148   1.336  0.6283 -0.4769  0.2473
   14MOL0     C 1770   7.259   1.879   1.301  0.1593  1.1496 -0.2071
   14MOL0     C 1771   7.383   1.927   1.249 -0.6510 -0.3320 -0.1537
   14MOL0     C 1772   7.486   1.839   1.211  0.4205  0.6372  0.1849
   14MOL0     C 1773   7.472   1.698   1.228  1.0153  0.6641 -0.6433
   14MOL0     O 1774   7.560   1.597   1.184 -0.4521  0.4803 -0.2926
   14MOL0     C 1775   7.684   1.649   1.122  0.0115  0.1545 -0.3781
   14MOL0     C 1776   7.785   1.703   1.223 -0.7300 -0.1861 -0.0858
   14MOL0     C 1777   7.913   1.725   1.147 -1.2076 -0.5089  0.8702
   14MOL0     C 1778   8.029   1.780   1.233 -0.9124 -0.2257  0.5133
   14MOL0     C 1779   8.139   1.816   1.143 -0.2190  0.7803 -0.4324
   14MOL0     C 1780   8.229   1.837   1.063 -0.5921 -1.2158  0.6171
   14MOL0     C 1781   7.344   1.646   1.280 -0.6948 -0.1019 -0.4553
   14MOL0     C 1782   7.245   1.743   1.324 -0.0303  0.3072 -0.1955
   14MOL0     H 1783   6.807   1.856   1.467 -0.8148 -0.1796  0.2976
   14MOL0     H 1784   6.605   1.968   1.485  1.5774 -1.0314 -0.7890
   14MOL0     H 1785   6.419   2.099   1.470  2.4419 -1.6400  2.4032
   14MOL0     H 1786   6.355   2.259   1.472  0.3809 -0.1506  1.3834
   14MOL0     H 1787   6.474   2.302   1.700 -1.6653  0.0718  1.6432
   14MOL0     H 1788   6.519   2.126   1.673 -2.8905 -2.0226  1.5185
   14MOL0     H 1789   6.354   2.135   1.823 -0.5934 -0.0245 -0.3320
   14MOL0     H 1790   6.293   2.050   1.684  1.2608  0.1414 -2.1779
   14MOL0     H 1791   6.257   2.335   1.796  0.3248 -0.5807  0.4016
   14MOL0     H 1792   6.189   2.308   1.641 -0.3919 -2.2218 -1.1931
   14MOL0     H 1793   6.142   2.179   1.916  2.7894  2.2160 -0.7397
   14MOL0     H 1794   6.053   2.128   1.767  1.5031 -1.3353 -0.0524
   14MOL0     H 1795   5.935   2.333   1.758 -1.8775 -1.3114  0.6990
   14MOL0     H 1796   6.023   2.415   1.881 -2.2983  1.9116 -1.8860
   14MOL0     H 1797   5.839   2.161   1.933 -0.5308 -0.4797  1.4535
   14MOL0     H 1798   5.925   2.244   2.058  0.1256  0.6731 -0.0531
   14MOL0     H 1799   5.785   2.446   1.954 -0.6712  0.4460 -2.6048
   14MOL0     H 1800   5.697   2.330   2.057  1.6434 -0.6264  0.3619
   14MOL0     H 1801   5.490   2.439   1.876  0.2391 -0.2103 -0.7294
   14MOL0     H 1802   5.408   2.344   1.508  0.1221  1.2371 -0.4771
   14MOL0     H 1803   5.367   2.471   1.612 -1.0377  0.7961  2.7617
   14MOL0     H 1804   5.270   2.189   1.689  2.0006 -0.1813 -0.8193
   14MOL0     H 1805   5.188   2.287   1.571 -0.0906 -0.2953 -1.0915
   14MOL0     H 1806   5.237   2.342   1.869  2.4812  3.2560  0.6418
   14MOL0     H 1807   5.203   2.479   1.759 -0.7643 -0.0663 -4.1640
   14MOL0     H 1808   4.969   2.337   1.690 -2.2277 -0.3836  1.0516
   14MOL0     H 1809   4.974   2.373   1.867 -0.4855 -2.4228  1.5422
   14MOL0     H 1810   4.785   2.293   1.865  0.0858  0.7550 -2.6536
   14MOL0     H 1811   4.566   2.172   1.844  0.2779  1.8227  2.0122
   14MOL0     H 1812   4.283   1.933   1.592  1.5753 -0.6791 -0.0744
   14MOL0     H 1813   4.051   1.814   1.581 -0.4542 -3.1638  0.1468
   14MOL0     H 1814   3.948   1.646   1.617  2.5065  2.9821  1.3077
   14MOL0     H 1815   3.844   1.791   1.632 -0.5398 -0.5179 -1.4203
   14MOL0     H 1816   3.789   1.503   1.701 -0.8626 -0.2388 -1.6000
   14MOL0     H 1817   3.702   1.601   1.574  1.2293  1.9326 -0.8244
   14MOL0     H 1818   3.631   1.764   1.772  1.1688  0.4787  0.8501
   14MOL0     H 1819   3.684   1.643   1.885 -1.3728  2.5242  1.2897
   14MOL0     H 1820   3.483   1.603   1.669  1.3129  2.7443 -0.8857
   14MOL0     H 1821   3.533   1.474   1.774  1.7656  0.2724 -3.0759
   14MOL0     H 1822   3.397   1.739   1.838 -0.6371  0.0339 -0.8787
   14MOL0     H 1823   3.456   1.650   1.973 -0.6562 -0.7989  0.2037
   14MOL0     H 1824   3.310   1.453   1.918  0.0921  0.1706  0.5013
   14MOL0     H 1825   3.225   1.553   1.794 -0.4252  1.3805  0.8987
   14MOL0     H 1826   3.243   1.634   2.086 -0.9848  1.7286 -1.2039
   14MOL0     H 1827   3.145   1.709   1.961  2.1894  1.3595 -0.3113
   14MOL0     H 1828   3.135   1.423   2.065  0.5062  0.0203 -0.7921
   14MOL0     H 1829   3.019   1.488   1.941 -1.8769 -0.4907  1.4849
   14MOL0     H 1830   4.085   1.747   2.000  2.0544 -0.7914  0.6060
   14MOL0     H 1831   4.296   1.849   2.010  2.0026 -2.6210 -1.4754
   14MOL0     H 1832   4.780   1.810   1.763  0.2150 -0.3733  3.6794
   14MOL0     H 1833   5.002   1.947   1.774  1.0911  2.4110 -0.1223
   14MOL0     H 1834   6.776   2.321   1.325  3.6416  0.4011 -0.2131
   14MOL0     H 1835   6.985   2.199   1.292  0.6479  0.4155  1.2676
   14MOL0     H 1836   7.394   2.027   1.209  1.6422 -0.5513 -0.1875
   14MOL0     H 1837   7.569   1.884   1.159 -1.6642  1.7938 -2.3761
   14MOL0     H 1838   7.665   1.721   1.042 -1.2337  1.0620  0.6871
   14MOL0     H 1839   7.736   1.561   1.083 -0.2768  1.0886 -3.0312
   14MOL0     H 1840   7.756   1.802   1.260 -1.6314 -0.0641 -1.0847
   14MOL0     H 1841   7.787   1.633   1.307 -0.0992 -1.7744 -1.3911
   14MOL0     H 1842   7.896   1.786   1.058  1.6109 -2.4092 -1.1712
   14MOL0     H 1843   7.949   1.631   1.103 -2.5424  0.0260 -1.5311
   14MOL0     H 1844   7.982   1.864   1.286 -2.7465 -0.7607 -0.1980
   14MOL0     H 1845   8.067   1.707   1.305  2.5209 -1.0293 -1.8699
   14MOL0     H 1846   8.314   1.848   0.998 -0.9945  0.5265  0.3176
   14MOL0     H 1847   7.332   1.540   1.304  2.6654 -0.6047 -0.4562
   14MOL0     H 1848   7.153   1.720   1.376 -0.0101  1.6908  0.5014
   15MOL0     O 1849   7.921   8.719   2.056  0.0376  0.4865 -0.8189
   15MOL0     C 1850   8.007   8.659   1.997  0.6027 -0.3803  0.6774
   15MOL0     O 1851   8.013   8.525   1.988 -0.6652 -0.8723 -0.4993
   15MOL0     C 1852   7.930   8.443   2.063  0.0175 -0.0926 -0.3767
   15MOL0     C 1853   7.985   8.385   2.180  0.9119 -0.2155  0.1140
   15MOL0     C 1854   7.913   8.299   2.257 -0.5226 -0.4175  0.7781
   15MOL0     C 1855   7.783   8.261   2.219  0.9449  0.1008 -0.2775
   15MOL0     O 1856   7.693   8.176   2.288 -0.5487  0.0020  0.6023
   15MOL0     C 1857   7.735   8.100   2.399  0.1473 -0.4880  0.4853
   15MOL0     C 1858   7.635   7.993   2.431  0.5634 -0.0703 -0.4988
   15MOL0     C 1859   7.511   8.050   2.499  1.0207 -0.8018 -0.0409
   15MOL0     C 1860   7.401   7.953   2.525  0.3477  0.4715 -0.4132
   15MOL0     C 1861   7.293   8.011   2.614  0.1831 -0.2696 -0.4715
   15MOL0     C 1862   7.167   7.922   2.609  0.1203 -1.1360 -0.3741
   15MOL0     C 1863   7.186   7.775   2.651  0.2311 -0.7095 -0.1235
   15MOL0     C 1864   7.052   7.695   2.632  0.2794 -0.0597 -0.6462
   15MOL0     N 1865   6.945   7.750   2.717 -0.5438  0.6254 -0.2291
   15MOL0     C 1866   6.955   7.762   2.853  0.1056 -0.3340 -0.3675
   15MOL0     C 1867   6.843   7.826   2.890  0.5857 -0.8055  0.1574
   15MOL0     C 1868   6.801   7.870   3.023 -0.1605 -0.1570  0.8933
   15MOL0     C 1869   6.661   7.806   3.062 -0.8548  0.0708 -0.2665
   15MOL0     C 1870   6.631   7.863   3.201 -0.3055  0.3245  0.7000
   15MOL0     C 1871   6.496   7.813   3.239  0.3874 -0.0691 -1.1311
   15MOL0     O 1872   6.477   7.674   3.235 -0.3975  0.0982  0.0371
   15MOL0     C 1873   6.355   7.628   3.274  0.6531  0.6113  0.4556
   15MOL0     C 1874   6.231   7.698   3.272  0.0030  0.1238 -0.6999
   15MOL0     C 1875   6.116   7.637   3.317  0.3700  0.1564  0.3309
   15MOL0     C 1876   6.109   7.503   3.367  0.1967 -0.7553  1.1409
   15MOL0     C 1877   5.986   7.457   3.422  1.5045 -0.0270 -0.4532
   15MOL0     O 1878   5.972   7.320   3.459 -0.6689  0.5719  0.0865
   15MOL0     C 1879   5.856   7.252   3.483 -0.1396 -0.5592  0.9612
   15MOL0     C 1880   5.794   7.256   3.604  0.0392  0.4589 -0.4179
   15MOL0     C 1881   5.685   7.177   3.647  0.2883 -0.1326 -0.2146
   15MOL0     C 1882   5.632   7.089   3.556  0.3517  0.6731  0.2094
   15MOL0     O 1883   5.530   6.995   3.596 -0.3993 -0.8211  0.3355
   15MOL0     C 1884   5.567   6.858   3.555  0.4804  0.2353 -0.7681
   15MOL0     C 1885   5.493   6.755   3.646  0.5096 -0.2600  0.1518
   15MOL0     C 1886   5.349   6.787   3.686  0.2680 -0.1522 -0.5745
   15MOL0     C 1887   5.269   6.771   3.548 -0.3538 -0.1449 -0.5028
   15MOL0     C 1888   5.237   6.623   3.525 -0.9358  0.2105  0.8335
   15MOL0     C 1889   5.105   6.605   3.451  0.5702  0.3342  0.0252
   15MOL0     C 1890   5.085   6.468   3.391 -0.2251  0.0531  0.1253
   15MOL0     C 1891   4.945   6.462   3.337  0.4274  1.3731  0.2369
   15MOL0    Cl 1892   4.942   6.329   3.229 -0.4982 -0.0149  0.3463
   15MOL0     C 1893   5.691   7.080   3.426 -0.5146 -0.0749 -0.1050
   15MOL0     C 1894   5.802   7.162   3.390  0.4563 -0.9750 -0.2835
   15MOL0     O 1895   5.890   7.533   3.436 -0.8352 -0.1618  0.4651
   15MOL0     C 1896   6.229   7.433   3.370  0.4033  1.2794  1.1881
   15MOL0     C 1897   6.347   7.491   3.318 -0.3953  0.8619  0.1891
   15MOL0     N 1898   6.776   7.865   2.770  0.4383  0.1261 -0.2156
   15MOL0     N 1899   6.838   7.820   2.662 -0.2017  0.2478 -1.2141
   15MOL0     C 1900   7.723   8.317   2.095 -0.1402 -0.1335  0.5621
   15MOL0     C 1901   7.799   8.408   2.013 -0.2103  0.0503 -0.7672
   15MOL0     C 1902   8.102   8.738   1.897  0.3281 -0.1370  0.0234
   15MOL0     C 1903   8.111   8.879   1.903 -0.3679  0.0199 -0.4437
   15MOL0     C 1904   8.184   8.940   1.805 -0.4024  0.1856 -1.4186
   15MOL0     C 1905   8.247   8.869   1.699  0.1361 -0.1198 -0.2827
   15MOL0     O 1906   8.312   8.957   1.611  0.3216  0.2885 -0.9464
   15MOL0     C 1907   8.365   8.908   1.492 -0.5778 -0.0425 -0.6064
   15MOL0     C 1908   8.419   9.009   1.389  0.1949 -0.1613 -0.0205
   15MOL0     C 1909   8.495   9.127   1.462  0.5813 -0.2367 -1.2776
   15MOL0     C 1910   8.573   9.214   1.360  0.6480  0.1050  0.4879
   15MOL0     C 1911   8.675   9.288   1.436  1.0412  0.5438 -0.4737
   15MOL0     C 1912   8.756   9.353   1.497 -0.0088  0.3716 -0.1509
   15MOL0     C 1913   8.221   8.735   1.689 -0.0211 -0.5269  1.0164
   15MOL0     C 1914   8.151   8.667   1.786  0.6076 -0.8534  0.2577
   15MOL0     H 1915   8.088   8.405   2.208  0.3860  0.0064  2.0386
   15MOL0     H 1916   7.963   8.237   2.331  0.2606 -2.3619 -1.2525
   15MOL0     H 1917   7.755   8.156   2.491 -0.9483  0.1229  0.3718
   15MOL0     H 1918   7.836   8.064   2.376  0.2716  0.7765 -1.1203
   15MOL0     H 1919   7.671   7.907   2.487  0.8848  0.5696  0.2836
   15MOL0     H 1920   7.601   7.949   2.336 -0.3698  2.1542 -1.2739
   15MOL0     H 1921   7.473   8.128   2.432  1.0197  0.0872  0.9726
   15MOL0     H 1922   7.534   8.094   2.596 -0.5344 -0.9186  0.4112
   15MOL0     H 1923   7.345   7.933   2.433  2.4093  3.9444 -2.6834
   15MOL0     H 1924   7.448   7.863   2.565  0.8627  1.4683  1.3350
   15MOL0     H 1925   7.279   8.117   2.590  0.7507 -0.2791 -0.8849
   15MOL0     H 1926   7.323   8.004   2.719 -0.1300  0.0460 -0.3559
   15MOL0     H 1927   7.120   7.915   2.510 -0.1295 -1.5553 -0.2300
   15MOL0     H 1928   7.098   7.971   2.678 -0.8052 -0.2982 -1.8409
   15MOL0     H 1929   7.260   7.730   2.583  1.7915  3.1725 -1.2905
   15MOL0     H 1930   7.234   7.773   2.750  1.0217  0.1708 -0.4763
   15MOL0     H 1931   7.063   7.592   2.668 -0.6536  0.6608  1.8902
   15MOL0     H 1932   7.026   7.695   2.525  0.6498  1.4221 -0.7585
   15MOL0     H 1933   7.025   7.714   2.922  0.0146 -0.6609 -0.4987
   15MOL0     H 1934   6.810   7.979   3.022  1.2525 -0.2472  1.3212
   15MOL0     H 1935   6.879   7.828   3.089 -1.1488 -2.7055  0.5678
   15MOL0     H 1936   6.672   7.698   3.075 -0.9243  0.1227  0.2330
   15MOL0     H 1937   6.582   7.832   2.991 -1.1632  0.3371  0.1695
   15MOL0     H 1938   6.699   7.830   3.280  0.0889  0.4769  0.4308
   15MOL0     H 1939   6.617   7.971   3.188 -0.3829  0.1443 -1.0425
   15MOL0     H 1940   6.424   7.859   3.171 -1.1794  0.4236  0.7733
   15MOL0     H 1941   6.473   7.848   3.340 -1.8530  1.3903 -2.0493
   15MOL0     H 1942   6.220   7.800   3.237 -0.0673  0.1589 -0.5746
   15MOL0     H 1943   6.024   7.694   3.314 -0.6214 -1.3831  0.7626
   15MOL0     H 1944   5.832   7.326   3.678 -1.4560  0.9569 -0.0817
   15MOL0     H 1945   5.632   7.189   3.741 -0.8268  2.0098 -1.0550
   15MOL0     H 1946   5.674   6.837   3.558  0.2237 -2.3702 -3.8987
   15MOL0     H 1947   5.548   6.840   3.449  0.7831 -2.7736 -0.3951
   15MOL0     H 1948   5.553   6.747   3.737  0.6736  1.8599  0.2884
   15MOL0     H 1949   5.501   6.652   3.610 -2.2739 -1.7805  3.3600
   15MOL0     H 1950   5.330   6.888   3.723 -1.3069  0.0498 -1.8202
   15MOL0     H 1951   5.304   6.723   3.762 -0.4026 -1.3361 -1.9097
   15MOL0     H 1952   5.185   6.840   3.559  0.8643  1.6220 -1.8810
   15MOL0     H 1953   5.320   6.813   3.461  2.4596 -2.2063 -0.0057
   15MOL0     H 1954   5.228   6.578   3.624  3.1288  1.5729  2.0280
   15MOL0     H 1955   5.323   6.580   3.472  0.0394  1.4193  1.3741
   15MOL0     H 1956   5.098   6.681   3.372 -1.1962  1.4103  1.1474
   15MOL0     H 1957   5.024   6.617   3.523  0.9265 -1.7183  0.8149
   15MOL0     H 1958   5.151   6.454   3.305 -1.0653 -1.1041 -0.3640
   15MOL0     H 1959   5.099   6.382   3.458  0.2856 -1.1191 -1.4279
   15MOL0     H 1960   4.908   6.547   3.280  0.1749  0.1098 -1.5282
   15MOL0     H 1961   4.870   6.449   3.416 -0.8600  2.9227 -0.6779
   15MOL0     H 1962   5.652   7.003   3.361  0.4033  0.6147 -1.5198
   15MOL0     H 1963   5.856   7.149   3.297  2.2889  0.3569  0.5150
   15MOL0     H 1964   6.226   7.335   3.416  2.2822  1.7567  2.4476
   15MOL0     H 1965   6.440   7.435   3.316 -0.8779  0.0244  0.3231
   15MOL0     H 1966   7.628   8.268   2.076 -0.7597  0.4045  2.1345
   15MOL0     H 1967   7.767   8.439   1.914  0.7638  2.5023 -0.3852
   15MOL0     H 1968   8.069   8.947   1.977  0.4592 -1.6818  1.7118
   15MOL0     H 1969   8.187   9.048   1.800 -0.3357  0.1414 -2.4509
   15MOL0     H 1970   8.281   8.858   1.443  0.2953 -2.9071  0.5779
   15MOL0     H 1971   8.440   8.830   1.504  0.5130  0.8557 -1.3346
   15MOL0     H 1972   8.477   8.967   1.306  0.4135 -1.4481  0.7604
   15MOL0     H 1973   8.335   9.059   1.340 -0.2795 -0.7870  0.1456
   15MOL0     H 1974   8.574   9.092   1.529 -1.6455  0.0833  1.6886
   15MOL0     H 1975   8.422   9.188   1.516 -0.1050  0.8771 -3.3417
   15MOL0     H 1976   8.624   9.160   1.280 -2.9163 -1.6709 -0.8206
   15MOL0     H 1977   8.498   9.284   1.321 -0.6939 -1.5855 -0.0860
   15MOL0     H 1978   8.828   9.406   1.556 -0.6078  0.6301  0.3578
   15MOL0     H 1979   8.258   8.670   1.610  1.0444  0.6399  0.5114
   15MOL0     H 1980   8.131   8.561   1.775  1.4997 -0.8195 -2.3590
   16MOL0     O 1981   0.029   9.318   2.439  0.4367  0.2884 -0.5063
   16MOL0     C 1982  -0.067   9.329   2.360  0.5292 -0.2576 -0.1539
   16MOL0     O 1983  -0.056   9.395   2.241 -0.1179  0.2827  0.1754
   16MOL0     C 1984   0.075   9.401   2.195 -0.4346 -0.5647  0.4132
   16MOL0     C 1985   0.101   9.314   2.091  0.2339  0.0594  0.5724
   16MOL0     C 1986   0.224   9.305   2.032 -0.1823  0.0433 -0.4671
   16MOL0     C 1987   0.322   9.392   2.083 -0.0647 -0.3374 -0.0092
   16MOL0     O 1988   0.450   9.383   2.032  0.9444 -0.8190  0.2705
   16MOL0     C 1989   0.467   9.491   1.934 -0.2832 -0.1344 -1.0401
   16MOL0     C 1990   0.599   9.471   1.858  0.8595  0.3668 -0.9138
   16MOL0     C 1991   0.605   9.574   1.747 -0.2681  0.1958 -0.6568
   16MOL0     C 1992   0.744   9.600   1.697  0.3628 -0.8401  0.1936
   16MOL0     C 1993   0.747   9.692   1.576  0.3745 -0.4757  0.6794
   16MOL0     C 1994   0.695   9.832   1.603  0.5358 -0.4129  0.4944
   16MOL0     C 1995   0.705   9.924   1.480  0.1432 -0.2827  0.5731
   16MOL0     C 1996   0.647  10.058   1.519  0.4099  0.1374  0.3097
   16MOL0     N 1997   0.621  10.136   1.397 -0.4123 -0.7424 -0.1705
   16MOL0     C 1998   0.616  10.281   1.411 -0.0652  0.5203 -0.0277
   16MOL0     C 1999   0.549  10.321   1.302 -0.2327 -0.7207  0.1588
   16MOL0     C 2000   0.516  10.465   1.263  1.1952  0.6387 -0.5214
   16MOL0     C 2001   0.369  10.492   1.255  1.2473  0.1455 -0.3685
   16MOL0     C 2002   0.344  10.638   1.227  0.7297 -1.1313  0.1559
   16MOL0     C 2003   0.293  10.675   1.087 -0.8021 -0.8505 -0.0972
   16MOL0     O 2004   0.297  10.823   1.065 -0.7672  0.3535 -0.0222
   16MOL0     C 2005   0.205  10.909   1.119 -0.2679 -0.2303 -0.0199
   16MOL0     C 2006   0.090  10.872   1.195  0.3016  0.1912  0.1573
   16MOL0     C 2007  -0.001  10.956   1.248  1.2639 -0.3019  0.0501
   16MOL0     C 2008   0.021  11.097   1.228 -0.0783  0.3009  0.0944
   16MOL0     C 2009  -0.076  11.198   1.277  0.4400 -1.1811  0.3420
   16MOL0     O 2010  -0.204  11.149   1.314 -0.1720 -0.0502 -0.5317
   16MOL0     C 2011  -0.299  11.240   1.359  0.5295 -0.2821 -0.0341
   16MOL0     C 2012  -0.424  11.229   1.295 -0.0573  0.5913 -0.7073
   16MOL0     C 2013  -0.517  11.323   1.325 -0.5668 -0.0931  0.0047
   16MOL0     C 2014  -0.511  11.410   1.431 -0.7731 -0.0267 -0.0414
   16MOL0     O 2015  -0.630  11.470   1.464 -0.8679  0.0786  0.6558
   16MOL0     C 2016  -0.630  11.564   1.573  0.9344 -0.7584 -1.2961
   16MOL0     C 2017  -0.564  11.691   1.526  0.4268 -1.3215 -0.4710
   16MOL0     C 2018  -0.634  11.758   1.407 -0.3563  1.0187 -0.2799
   16MOL0     C 2019  -0.757  11.833   1.442  0.0554  0.0177  0.5698
   16MOL0     C 2020  -0.803  11.910   1.319 -0.8292  0.0348 -0.1020
   16MOL0     C 2021  -0.940  11.978   1.358 -0.2686 -0.4878 -0.1499
   16MOL0     C 2022  -0.981  12.086   1.251 -0.4397  0.4150 -0.8979
   16MOL0     C 2023  -1.118  12.157   1.260  0.1483  0.4619 -0.4419
   16MOL0    Cl 2024  -1.250  12.046   1.199  0.5817 -0.0755 -0.1665
   16MOL0     C 2025  -0.387  11.414   1.496  0.4287 -0.7368 -1.1019
   16MOL0     C 2026  -0.279  11.331   1.462  0.3912  1.1697  0.3912
   16MOL0     O 2027  -0.050  11.320   1.268 -0.2201  0.1639  0.3327
   16MOL0     C 2028   0.121  11.137   1.140 -0.1690  0.5900  0.6799
   16MOL0     C 2029   0.216  11.041   1.091 -0.5691 -1.1400  0.4849
   16MOL0     N 2030   0.499  10.208   1.236  1.2455  0.3599 -0.2700
   16MOL0     N 2031   0.533  10.096   1.300  0.2818  0.4081  0.4850
   16MOL0     C 2032   0.301   9.485   2.183  0.7187  0.3099  0.4378
   16MOL0     C 2033   0.170   9.490   2.240 -0.5982 -0.3856  0.1932
   16MOL0     C 2034  -0.186   9.256   2.397  0.9430 -0.3665 -0.2219
   16MOL0     C 2035  -0.200   9.182   2.516 -0.6836 -0.3021  0.2595
   16MOL0     C 2036  -0.316   9.117   2.540 -0.0008 -1.1987 -0.3863
   16MOL0     C 2037  -0.420   9.105   2.452 -0.0038 -0.6744 -0.2064
   16MOL0     O 2038  -0.519   9.003   2.457  0.1774 -0.4756  0.4909
   16MOL0     C 2039  -0.533   8.935   2.582  0.2848  0.0889  0.4613
   16MOL0     C 2040  -0.423   8.821   2.585  0.1326 -0.5139 -0.2230
   16MOL0     C 2041  -0.420   8.737   2.710 -0.0542  0.7531  0.6113
   16MOL0     C 2042  -0.557   8.712   2.768 -0.3266  0.2242  0.8930
   16MOL0     C 2043  -0.548   8.619   2.873 -0.4278  0.2111 -0.1744
   16MOL0     C 2044  -0.541   8.550   2.970  0.4371 -0.4099 -0.0980
   16MOL0     C 2045  -0.398   9.170   2.334  0.7507  0.4280  0.6864
   16MOL0     C 2046  -0.291   9.245   2.305  0.0027  0.2752 -0.1662
   16MOL0     H 2047   0.018   9.254   2.058  1.9552 -0.4284 -3.4685
   16MOL0     H 2048   0.247   9.239   1.949  2.1943  2.3817 -1.8542
   16MOL0     H 2049   0.478   9.585   1.989 -1.7651 -0.7235  0.3189
   16MOL0     H 2050   0.376   9.503   1.874 -1.8225 -1.4977  0.8987
   16MOL0     H 2051   0.614   9.370   1.818 -0.6485  0.2212 -1.1805
   16MOL0     H 2052   0.681   9.492   1.927 -0.1243  2.2904 -0.2441
   16MOL0     H 2053   0.559   9.670   1.772 -1.2166 -0.2716 -0.5493
   16MOL0     H 2054   0.542   9.546   1.662 -0.9997 -2.5747  0.6730
   16MOL0     H 2055   0.803   9.646   1.777 -0.6931  1.4010 -0.2350
   16MOL0     H 2056   0.785   9.501   1.677 -0.9315 -1.2521 -0.5783
   16MOL0     H 2057   0.679   9.655   1.499  0.0076 -1.2309  1.3585
   16MOL0     H 2058   0.845   9.698   1.527  0.7109  0.9404  1.4458
   16MOL0     H 2059   0.758   9.865   1.686  0.9401  3.1923 -1.0660
   16MOL0     H 2060   0.591   9.819   1.635  0.7417 -1.9995  0.6150
   16MOL0     H 2061   0.808   9.922   1.444 -0.9185  1.0537 -3.0158
   16MOL0     H 2062   0.649   9.876   1.399 -1.3322  0.0711  1.3570
   16MOL0     H 2063   0.719  10.109   1.584  0.9505  2.4194 -1.9255
   16MOL0     H 2064   0.551  10.055   1.572  0.7280 -0.1063  0.8805
   16MOL0     H 2065   0.673  10.323   1.494 -1.2303 -2.9280  2.7854
   16MOL0     H 2066   0.571  10.481   1.170 -1.3788  1.9110 -1.9333
   16MOL0     H 2067   0.554  10.534   1.339 -0.5279  0.2335  0.8032
   16MOL0     H 2068   0.303  10.460   1.337 -0.1879 -2.9152 -2.5257
   16MOL0     H 2069   0.326  10.425   1.180 -0.1644 -0.4186  0.8848
   16MOL0     H 2070   0.265  10.681   1.289 -0.2370  2.3975 -3.1785
   16MOL0     H 2071   0.439  10.690   1.242  1.3322 -2.5949  1.8133
   16MOL0     H 2072   0.189  10.645   1.068  0.5124 -4.4212 -2.4842
   16MOL0     H 2073   0.360  10.641   1.009  0.0462  0.2688  0.1175
   16MOL0     H 2074   0.074  10.769   1.223 -1.2614  0.6361  0.9914
   16MOL0     H 2075  -0.099  10.926   1.282  0.6069  1.2067 -0.4503
   16MOL0     H 2076  -0.435  11.163   1.209  1.0273  0.0442 -0.4478
   16MOL0     H 2077  -0.607  11.297   1.271 -0.9220 -0.8452  0.9299
   16MOL0     H 2078  -0.579  11.524   1.660  0.9511  1.3709 -0.2592
   16MOL0     H 2079  -0.733  11.590   1.600  2.4148  0.9883  3.7986
   16MOL0     H 2080  -0.460  11.672   1.498  0.7732  2.0497 -1.9867
   16MOL0     H 2081  -0.566  11.764   1.608  1.6951  1.4923 -2.7343
   16MOL0     H 2082  -0.661  11.688   1.327 -0.7672  0.2038  0.5512
   16MOL0     H 2083  -0.559  11.826   1.364 -1.4061  0.3875 -3.3742
   16MOL0     H 2084  -0.841  11.770   1.473 -0.2519 -0.6159 -1.3832
   16MOL0     H 2085  -0.729  11.904   1.520 -1.2174 -0.0436  1.1086
   16MOL0     H 2086  -0.817  11.852   1.227 -1.3931  0.6361 -0.4064
   16MOL0     H 2087  -0.740  11.998   1.304 -2.2379  1.6832  2.6962
   16MOL0     H 2088  -0.931  12.024   1.457 -0.4338 -2.0358  0.6016
   16MOL0     H 2089  -1.014  11.898   1.362  0.1850 -0.8722  0.8039
   16MOL0     H 2090  -0.905  12.163   1.264  1.1080 -1.3837  1.5525
   16MOL0     H 2091  -0.961  12.036   1.156  0.6086  0.8744 -0.9229
   16MOL0     H 2092  -1.119  12.249   1.202  2.3853  1.4216  0.8903
   16MOL0     H 2093  -1.136  12.181   1.365  5.1654 -0.8242  1.0280
   16MOL0     H 2094  -0.383  11.484   1.579  0.5084 -2.6064  0.5378
   16MOL0     H 2095  -0.179  11.337   1.504  1.2516  0.3076 -1.4273
   16MOL0     H 2096   0.146  11.239   1.112  1.1257  0.3909  1.0592
   16MOL0     H 2097   0.303  11.076   1.036 -1.2961 -1.4419 -0.9014
   16MOL0     H 2098   0.378   9.554   2.215  2.4462 -1.3335 -0.0067
   16MOL0     H 2099   0.153   9.574   2.307  1.6108  2.6857 -2.7495
   16MOL0     H 2100  -0.118   9.162   2.583 -0.1417 -1.9861 -0.8420
   16MOL0     H 2101  -0.315   9.065   2.635 -0.2396  0.9408  0.8403
   16MOL0     H 2102  -0.634   8.893   2.579  1.0059 -1.6845  0.3367
   16MOL0     H 2103  -0.519   9.008   2.663 -0.1457  1.2875 -0.5006
   16MOL0     H 2104  -0.447   8.754   2.502 -0.6565 -1.2653  0.5940
   16MOL0     H 2105  -0.326   8.865   2.558 -0.7865 -0.3876 -3.7521
   16MOL0     H 2106  -0.357   8.779   2.789 -1.4763 -1.8165  3.3432
   16MOL0     H 2107  -0.385   8.635   2.692  2.0726  1.4093  0.7975
   16MOL0     H 2108  -0.589   8.807   2.812  3.1944  0.2240  3.9170
   16MOL0     H 2109  -0.633   8.680   2.696 -0.0719  1.9346 -0.2152
   16MOL0     H 2110  -0.538   8.491   3.060 -0.5105 -1.3717 -0.6761
   16MOL0     H 2111  -0.472   9.143   2.260  0.0517  1.9006  0.8227
   16MOL0     H 2112  -0.292   9.302   2.213 -2.1535 -1.2608 -1.1553
   17MOL0     O 2113  10.163   8.945   6.170 -0.4458 -0.0533 -0.4087
   17MOL0     C 2114  10.260   8.892   6.113  0.4632 -0.7354  0.3315
   17MOL0     O 2115  10.276   8.871   5.974 -0.0203 -1.0987 -0.0561
   17MOL0     C 2116  10.181   8.895   5.877  0.7607  0.1325 -0.4628
   17MOL0     C 2117  10.057   8.964   5.894  0.4262 -0.3009 -0.1501
   17MOL0     C 2118   9.963   8.969   5.794 -0.1626  0.0044  0.6522
   17MOL0     C 2119   9.995   8.931   5.667  0.4963 -0.7008  0.8301
   17MOL0     O 2120   9.916   8.953   5.553 -0.2328 -0.2366 -0.3249
   17MOL0     C 2121   9.794   9.025   5.568 -0.4210 -0.2800 -0.1507
   17MOL0     C 2122   9.759   9.099   5.441  0.7716 -0.1737  0.2294
   17MOL0     C 2123   9.633   9.188   5.448 -0.0987 -0.2461  0.5093
   17MOL0     C 2124   9.613   9.290   5.335  0.1529  0.2571 -0.1842
   17MOL0     C 2125   9.477   9.351   5.361 -0.3583 -1.1964  0.8197
   17MOL0     C 2126   9.477   9.479   5.271  0.3878 -0.7468 -0.3162
   17MOL0     C 2127   9.335   9.494   5.213  0.1065  0.5287  0.4267
   17MOL0     C 2128   9.327   9.614   5.121  0.0003  0.3613 -0.6298
   17MOL0     N 2129   9.188   9.627   5.082 -0.0703 -0.0785 -0.2113
   17MOL0     C 2130   9.122   9.535   5.002 -0.8333  0.2964 -0.2287
   17MOL0     C 2131   8.998   9.578   4.981 -0.1311 -0.6422 -0.6342
   17MOL0     C 2132   8.893   9.508   4.905 -0.5107 -0.7011 -0.5778
   17MOL0     C 2133   8.753   9.572   4.925  0.7209  0.4096 -0.8502
   17MOL0     C 2134   8.683   9.523   5.046 -0.0807 -0.9720 -0.2413
   17MOL0     C 2135   8.545   9.592   5.071  0.2169  0.0476 -0.0851
   17MOL0     O 2136   8.481   9.522   5.178  0.3302 -0.5942  0.2973
   17MOL0     C 2137   8.354   9.562   5.200  0.0595 -0.0089 -0.3397
   17MOL0     C 2138   8.242   9.483   5.158  0.0801  0.9945 -0.6559
   17MOL0     C 2139   8.104   9.524   5.177  0.2644  0.0996  0.8982
   17MOL0     C 2140   8.074   9.640   5.258  0.2577  0.0598 -0.4648
   17MOL0     C 2141   7.936   9.680   5.285  0.4670 -0.2067 -0.3163
   17MOL0     O 2142   7.847   9.583   5.275 -0.4640 -0.7037  0.0742
   17MOL0     C 2143   7.715   9.620   5.282 -0.0450 -0.4379 -0.2316
   17MOL0     C 2144   7.666   9.666   5.406  0.1244  0.3185 -0.1311
   17MOL0     C 2145   7.528   9.694   5.427 -0.3993  0.4404  0.4281
   17MOL0     C 2146   7.440   9.674   5.322  0.5502 -0.5284 -0.0163
   17MOL0     O 2147   7.306   9.704   5.354 -0.0897  0.0784  0.3366
   17MOL0     C 2148   7.226   9.765   5.252 -0.6923 -0.3477  0.5604
   17MOL0     C 2149   7.142   9.877   5.317 -0.7533  0.5272 -0.0299
   17MOL0     C 2150   7.038   9.828   5.410  0.1358  0.0011 -0.0707
   17MOL0     C 2151   6.940   9.938   5.448  0.5679 -0.7621  0.6032
   17MOL0     C 2152   6.828   9.872   5.537 -0.2152  0.1966 -0.2716
   17MOL0     C 2153   6.706   9.972   5.545  0.0951  0.3931 -0.0141
   17MOL0     C 2154   6.616   9.913   5.645  0.2634 -0.0851 -0.9473
   17MOL0     C 2155   6.525   9.807   5.571  0.1400  0.6295  0.4260
   17MOL0    Cl 2156   6.391   9.775   5.683 -0.4785  0.2302  0.3709
   17MOL0     C 2157   7.497   9.633   5.194  0.1593 -0.0978 -0.0486
   17MOL0     C 2158   7.628   9.602   5.178 -0.1671 -0.5562 -0.9008
   17MOL0     O 2159   7.908   9.795   5.304 -0.1782  0.1268 -0.2614
   17MOL0     C 2160   8.190   9.710   5.295  0.3611  0.7285 -0.5227
   17MOL0     C 2161   8.321   9.680   5.262 -0.5772 -0.6612 -0.1174
   17MOL0     N 2162   9.000   9.692   5.056  0.5390  0.2063 -0.3431
   17MOL0     N 2163   9.110   9.733   5.117  0.3898 -0.7438  0.2684
   17MOL0     C 2164  10.120   8.872   5.648 -0.1285  0.0214  0.2864
   17MOL0     C 2165  10.204   8.852   5.753 -0.3520  0.4665  0.1849
   17MOL0     C 2166  10.373   8.839   6.198 -0.5844 -0.2545  0.1978
   17MOL0     C 2167  10.366   8.835   6.330  0.2432 -1.1478  0.4398
   17MOL0     C 2168  10.472   8.790   6.412  0.2915  0.2610  0.6122
   17MOL0     C 2169  10.589   8.751   6.352  0.3730 -0.3128 -0.2254
   17MOL0     O 2170  10.691   8.713   6.439 -0.5855  0.0475  0.2961
   17MOL0     C 2171  10.812   8.656   6.388  0.2085  0.2805 -0.1496
   17MOL0     C 2172  10.909   8.769   6.351  0.2021 -0.9327 -0.1182
   17MOL0     C 2173  11.045   8.727   6.300  0.4059  0.2135  1.1937
   17MOL0     C 2174  11.043   8.672   6.152  0.1476  0.3443 -0.2921
   17MOL0     C 2175  11.170   8.715   6.087  0.6795  0.2586 -0.8590
   17MOL0     C 2176  11.278   8.752   6.050  0.3470 -0.4121  0.4394
   17MOL0     C 2177  10.600   8.753   6.216  0.7331  0.3450 -1.0497
   17MOL0     C 2178  10.493   8.790   6.136  0.9895  0.1213 -0.5039
   17MOL0     H 2179  10.042   9.019   5.986  1.6890  0.7289 -0.5235
   17MOL0     H 2180   9.871   9.025   5.809 -0.7923  0.0086 -2.5200
   17MOL0     H 2181   9.809   9.099   5.647  2.9939 -1.2779  0.3032
   17MOL0     H 2182   9.713   8.956   5.592 -0.9718 -0.3792 -2.1114
   17MOL0     H 2183   9.735   9.018   5.371  1.4701 -0.3650  0.1979
   17MOL0     H 2184   9.847   9.148   5.397  0.2332 -1.1266 -2.0767
   17MOL0     H 2185   9.633   9.239   5.545  1.4542  0.2093  0.3019
   17MOL0     H 2186   9.545   9.123   5.452  0.6864 -1.3280  0.6863
   17MOL0     H 2187   9.692   9.366   5.338  0.8132 -0.3275 -1.6437
   17MOL0     H 2188   9.615   9.241   5.237  0.4207 -1.0980  0.4749
   17MOL0     H 2189   9.454   9.380   5.464  2.5441  0.5636  1.1149
   17MOL0     H 2190   9.405   9.276   5.330 -0.8673 -0.4227  0.0815
   17MOL0     H 2191   9.547   9.465   5.188  3.4937 -3.3272  2.4707
   17MOL0     H 2192   9.503   9.568   5.330  0.1328 -1.2524  0.5767
   17MOL0     H 2193   9.322   9.404   5.152 -0.3705  0.4058  0.7045
   17MOL0     H 2194   9.260   9.511   5.291 -0.3009 -0.9802  0.3795
   17MOL0     H 2195   9.399   9.613   5.038  0.6936  0.3902 -0.0367
   17MOL0     H 2196   9.357   9.706   5.172  3.5939  0.7719 -3.1006
   17MOL0     H 2197   9.166   9.441   4.970 -1.3138  0.0577 -0.1905
   17MOL0     H 2198   8.891   9.401   4.931 -3.4050 -0.3673  0.9091
   17MOL0     H 2199   8.916   9.522   4.799 -1.1596  2.7829 -0.3637
   17MOL0     H 2200   8.683   9.551   4.844 -1.4964  1.9353  0.5481
   17MOL0     H 2201   8.760   9.682   4.923  0.1103  0.4668 -2.8407
   17MOL0     H 2202   8.668   9.416   5.035 -1.5833 -1.2368  3.2658
   17MOL0     H 2203   8.734   9.555   5.137  1.3594  1.2123 -1.7005
   17MOL0     H 2204   8.483   9.602   4.981 -0.5057  1.2815  0.5198
   17MOL0     H 2205   8.558   9.699   5.093  0.0866  0.2080 -0.7654
   17MOL0     H 2206   8.264   9.389   5.108 -0.5589  0.2395  0.4255
   17MOL0     H 2207   8.029   9.458   5.136  2.8621 -1.7941 -1.1300
   17MOL0     H 2208   7.731   9.676   5.493 -1.6893  3.5439  1.0645
   17MOL0     H 2209   7.494   9.715   5.527 -0.6750 -0.7665  0.5992
   17MOL0     H 2210   7.168   9.694   5.193  1.1244 -0.9885 -0.5255
   17MOL0     H 2211   7.292   9.823   5.188 -0.1977  0.9138  2.1352
   17MOL0     H 2212   7.104   9.925   5.226  0.7338 -0.3171 -1.1542
   17MOL0     H 2213   7.209   9.945   5.371 -1.8597  0.1245  1.9400
   17MOL0     H 2214   7.092   9.786   5.496 -1.6110  0.4556  1.2975
   17MOL0     H 2215   6.997   9.740   5.361  1.4832 -0.9032  0.3717
   17MOL0     H 2216   6.978  10.030   5.493  2.7359 -1.3636  0.0819
   17MOL0     H 2217   6.901   9.963   5.349  0.4918  2.0854  1.2825
   17MOL0     H 2218   6.874   9.860   5.636  2.1353 -0.4276 -1.3667
   17MOL0     H 2219   6.818   9.770   5.498  1.0298 -0.5874  1.3591
   17MOL0     H 2220   6.657   9.978   5.447  1.8020 -3.9942 -1.4249
   17MOL0     H 2221   6.744  10.070   5.575  0.2999  0.8758 -1.7239
   17MOL0     H 2222   6.663   9.856   5.726  2.5551  0.1882 -2.0214
   17MOL0     H 2223   6.553   9.993   5.685 -1.0578 -0.9501 -1.1943
   17MOL0     H 2224   6.582   9.722   5.533  0.2595  0.0215  1.8929
   17MOL0     H 2225   6.473   9.870   5.498 -0.4154 -1.0708 -0.6942
   17MOL0     H 2226   7.427   9.628   5.112 -0.0406  0.0192  0.1140
   17MOL0     H 2227   7.660   9.569   5.080  0.1658  0.6287 -1.2130
   17MOL0     H 2228   8.180   9.799   5.356  1.9910 -0.6649  1.9399
   17MOL0     H 2229   8.402   9.739   5.304  1.7285 -2.3372 -1.9449
   17MOL0     H 2230  10.145   8.822   5.555  1.6389 -0.5290  1.0252
   17MOL0     H 2231  10.285   8.785   5.725  0.0383  1.4123 -1.0125
   17MOL0     H 2232  10.274   8.875   6.370  0.0992  0.1930 -1.1089
   17MOL0     H 2233  10.466   8.798   6.520  0.4312 -0.6566  0.6931
   17MOL0     H 2234  10.804   8.581   6.310  3.0278 -1.4619  1.0759
   17MOL0     H 2235  10.853   8.594   6.469 -0.9901 -1.1198 -0.5781
   17MOL0     H 2236  10.850   8.835   6.287 -0.7550 -0.2184  1.4289
   17MOL0     H 2237  10.931   8.835   6.436  1.0167  0.1883 -1.1710
   17MOL0     H 2238  11.084   8.651   6.368 -0.3562 -1.7384 -0.4280
   17MOL0     H 2239  11.108   8.815   6.307  1.8713 -0.8610  1.9535
   17MOL0     H 2240  11.028   8.564   6.153  0.8901  0.2186  1.3311
   17MOL0     H 2241  10.964   8.714   6.090  1.4434  0.0911 -2.2097
   17MOL0     H 2242  11.369   8.784   6.002 -0.6138  1.4654 -0.2526
   17MOL0     H 2243  10.690   8.717   6.168  0.3798 -0.3980 -1.1694
   17MOL0     H 2244  10.500   8.789   6.028 -0.9675 -3.0594 -0.7280
   18MOL0     O 2245   5.643   1.315   0.461 -0.9776  0.1334  0.1080
   18MOL0     C 2246   5.612   1.421   0.408 -0.0712  0.1989 -0.0529
   18MOL0     O 2247   5.479   1.459   0.366 -0.7364  0.2111 -0.8735
   18MOL0     C 2248   5.369   1.394   0.426  0.6770  0.7296  0.0131
   18MOL0     C 2249   5.254   1.423   0.358  0.7311 -1.3313  0.0536
   18MOL0     C 2250   5.131   1.367   0.404 -0.3844  0.7542  0.2747
   18MOL0     C 2251   5.124   1.271   0.511 -1.3878 -0.5649  0.1794
   18MOL0     O 2252   5.025   1.189   0.554 -0.2950  0.1459 -1.1646
   18MOL0     C 2253   4.897   1.226   0.518 -0.5719  0.5634  0.2787
   18MOL0     C 2254   4.802   1.137   0.589 -0.1437  0.0059 -0.6020
   18MOL0     C 2255   4.653   1.186   0.585 -0.1913  0.6557  0.7272
   18MOL0     C 2256   4.587   1.164   0.439  0.2187  0.2110 -0.3535
   18MOL0     C 2257   4.464   1.252   0.429 -1.0838  0.5161  0.7040
   18MOL0     C 2258   4.342   1.213   0.508 -0.2873  0.6346  0.0843
   18MOL0     C 2259   4.221   1.282   0.464  0.5014 -0.5880  1.0694
   18MOL0     C 2260   4.080   1.214   0.494  0.4906  0.4048 -0.3633
   18MOL0     N 2261   3.982   1.268   0.399  0.1395 -1.2418  0.3167
   18MOL0     C 2262   3.920   1.192   0.301 -0.4576 -0.0692  1.0700
   18MOL0     C 2263   3.809   1.259   0.269  0.7902  0.5022 -0.0305
   18MOL0     C 2264   3.710   1.226   0.169  0.0829 -0.2535  0.5896
   18MOL0     C 2265   3.595   1.143   0.227  0.2380 -0.2184 -0.9382
   18MOL0     C 2266   3.488   1.247   0.279 -0.4158 -0.0533 -0.2340
   18MOL0     C 2267   3.368   1.181   0.356  0.6414  0.0058 -0.5126
   18MOL0     O 2268   3.285   1.099   0.272  0.0558 -0.0535 -0.0974
   18MOL0     C 2269   3.190   1.013   0.323  0.0928  0.4583 -0.1880
   18MOL0     C 2270   3.145   0.914   0.234  0.1695  0.3165 -0.4797
   18MOL0     C 2271   3.033   0.830   0.265 -0.4061  0.3572  0.1183
   18MOL0     C 2272   2.983   0.836   0.395 -1.0774  0.1596  0.3818
   18MOL0     C 2273   2.886   0.740   0.447  0.6855  0.0037  0.0945
   18MOL0     O 2274   2.837   0.641   0.360 -0.4066 -0.1445 -0.3482
   18MOL0     C 2275   2.716   0.573   0.400 -0.5091 -0.0457 -0.3091
   18MOL0     C 2276   2.595   0.641   0.390  0.0892  0.4910  0.1790
   18MOL0     C 2277   2.484   0.581   0.439  0.1332 -0.7180 -0.2648
   18MOL0     C 2278   2.489   0.457   0.499 -0.3240  0.4129  0.2433
   18MOL0     O 2279   2.372   0.392   0.528 -0.3125 -0.1362  0.6453
   18MOL0     C 2280   2.362   0.347   0.664 -0.5295  1.2242  0.1171
   18MOL0     C 2281   2.211   0.314   0.687  0.8551  0.4812  0.3150
   18MOL0     C 2282   2.190   0.289   0.833 -0.1420 -0.9509  1.2611
   18MOL0     C 2283   2.046   0.245   0.827  0.7755  0.4470 -0.5012
   18MOL0     C 2284   1.994   0.225   0.972 -0.3536 -0.4485  0.4958
   18MOL0     C 2285   1.864   0.166   0.985 -0.4440  0.3919  0.5659
   18MOL0     C 2286   1.796   0.215   1.113  0.4236  0.1241 -0.6208
   18MOL0     C 2287   1.882   0.177   1.238  0.5604 -0.0682 -0.8185
   18MOL0    Cl 2288   1.901  -0.001   1.238  0.0776 -0.3939 -0.0122
   18MOL0     C 2289   2.608   0.382   0.517 -0.2075  0.0936  0.3082
   18MOL0     C 2290   2.721   0.444   0.463  0.2205  0.0320  1.1866
   18MOL0     O 2291   2.837   0.755   0.556 -0.0024 -0.2375 -0.1343
   18MOL0     C 2292   3.022   0.942   0.479  1.2679 -0.4868 -0.8835
   18MOL0     C 2293   3.126   1.028   0.445 -0.4350  0.8136  0.7102
   18MOL0     N 2294   3.794   1.363   0.351 -0.1771  0.2928  0.4039
   18MOL0     N 2295   3.891   1.361   0.438 -0.0922  0.2601 -0.3030
   18MOL0     C 2296   5.243   1.248   0.576 -0.1307 -0.4277  0.0155
   18MOL0     C 2297   5.361   1.316   0.540 -0.9698 -0.0472 -0.0422
   18MOL0     C 2298   5.711   1.513   0.361 -0.1313  0.1097  0.0949
   18MOL0     C 2299   5.840   1.474   0.336  0.1090  0.3823 -0.8146
   18MOL0     C 2300   5.935   1.563   0.295  0.2215 -0.2789  1.1364
   18MOL0     C 2301   5.909   1.699   0.304  1.1694 -0.0137 -0.1304
   18MOL0     O 2302   6.004   1.799   0.276 -0.1682  0.2707 -0.4130
   18MOL0     C 2303   6.144   1.778   0.300  0.1207 -0.6930 -0.9198
   18MOL0     C 2304   6.219   1.877   0.214  0.7245 -0.1944  0.6002
   18MOL0     C 2305   6.361   1.896   0.267 -0.2029 -0.9880  0.4428
   18MOL0     C 2306   6.438   1.769   0.278  0.3243  0.2026  0.2753
   18MOL0     C 2307   6.572   1.801   0.322  0.2905 -0.3716 -0.2327
   18MOL0     C 2308   6.681   1.824   0.352  0.6344  0.3692 -0.4118
   18MOL0     C 2309   5.777   1.738   0.338  0.0204  0.3332 -0.0675
   18MOL0     C 2310   5.680   1.651   0.369 -0.1597 -0.1873  0.5004
   18MOL0     H 2311   5.255   1.493   0.275 -1.4067 -0.9188  0.2997
   18MOL0     H 2312   5.043   1.391   0.344 -0.3515 -1.2712 -0.6801
   18MOL0     H 2313   4.889   1.211   0.410  2.9672  0.5626 -0.1040
   18MOL0     H 2314   4.886   1.333   0.540  0.5780  1.0769 -1.3879
   18MOL0     H 2315   4.843   1.124   0.690 -3.3885  1.0939  0.9939
   18MOL0     H 2316   4.798   1.035   0.548 -1.7461  0.6676 -2.1980
   18MOL0     H 2317   4.652   1.291   0.613 -0.0174  1.1347 -0.9923
   18MOL0     H 2318   4.592   1.137   0.662 -1.0304 -2.0060 -1.4728
   18MOL0     H 2319   4.661   1.179   0.360  0.0894 -0.7615 -0.6702
   18MOL0     H 2320   4.553   1.063   0.418 -1.7718  0.9746 -1.0749
   18MOL0     H 2321   4.440   1.254   0.322 -1.2449  0.6454  0.7414
   18MOL0     H 2322   4.495   1.354   0.452  1.0642  0.5596 -1.9126
   18MOL0     H 2323   4.365   1.230   0.614 -1.2045 -0.9862  0.5879
   18MOL0     H 2324   4.319   1.106   0.499 -3.5004  1.2478 -0.0965
   18MOL0     H 2325   4.221   1.388   0.490  3.9583  0.2094 -1.5422
   18MOL0     H 2326   4.232   1.294   0.356  1.9327 -1.1426  1.1351
   18MOL0     H 2327   4.045   1.235   0.595 -0.3275 -1.9707 -0.0781
   18MOL0     H 2328   4.082   1.104   0.495 -0.3521  0.3834  0.3500
   18MOL0     H 2329   3.977   1.124   0.239  1.7577  1.6878  1.0494
   18MOL0     H 2330   3.748   1.168   0.084 -2.3425 -0.9628 -0.0789
   18MOL0     H 2331   3.678   1.319   0.122  3.7249  0.9274  0.1709
   18MOL0     H 2332   3.630   1.077   0.306 -2.0444 -0.1082  0.2341
   18MOL0     H 2333   3.542   1.079   0.156  1.5669 -0.3710 -1.8336
   18MOL0     H 2334   3.539   1.311   0.352  0.5906 -1.7027  0.5541
   18MOL0     H 2335   3.446   1.314   0.203 -1.8921 -0.5869  0.0718
   18MOL0     H 2336   3.298   1.251   0.404  1.2298 -0.9650  1.9467
   18MOL0     H 2337   3.415   1.119   0.433 -0.3491  0.4338  0.4632
   18MOL0     H 2338   3.199   0.908   0.140  0.2151 -0.7589 -0.3963
   18MOL0     H 2339   2.999   0.762   0.188 -0.2277 -1.1705  1.3450
   18MOL0     H 2340   2.599   0.738   0.340  1.2542  0.9793  1.1568
   18MOL0     H 2341   2.394   0.641   0.437 -0.0741 -1.0338 -1.5791
   18MOL0     H 2342   2.391   0.421   0.739  0.3912  1.9204 -0.8973
   18MOL0     H 2343   2.429   0.262   0.679 -0.2355  0.8893 -2.5823
   18MOL0     H 2344   2.180   0.234   0.618  0.4848 -0.4607  1.5297
   18MOL0     H 2345   2.154   0.404   0.664 -3.2804 -1.8965  0.2962
   18MOL0     H 2346   2.211   0.381   0.890 -2.7209  0.6064 -0.1160
   18MOL0     H 2347   2.244   0.201   0.868  3.1507 -0.5903 -2.2649
   18MOL0     H 2348   1.983   0.323   0.784  0.6945  1.2971  1.0814
   18MOL0     H 2349   2.033   0.147   0.780 -1.1220 -0.1883  1.2360
   18MOL0     H 2350   2.000   0.317   1.031 -1.1338 -1.1870  1.7815
   18MOL0     H 2351   2.070   0.156   1.010  2.0457  1.8869  0.2045
   18MOL0     H 2352   1.861   0.057   0.980 -1.8102  0.4650 -2.7542
   18MOL0     H 2353   1.797   0.199   0.905  0.9240  3.2103  0.4803
   18MOL0     H 2354   1.780   0.323   1.109 -2.0101 -0.2053 -0.9398
   18MOL0     H 2355   1.696   0.172   1.125 -0.0528  1.2164 -0.5995
   18MOL0     H 2356   1.833   0.211   1.330  1.3893 -0.3919 -0.2452
   18MOL0     H 2357   1.976   0.234   1.242 -0.7316  2.1977  2.6685
   18MOL0     H 2358   2.603   0.289   0.572 -0.3786 -0.8397 -1.2313
   18MOL0     H 2359   2.821   0.401   0.466  0.3341 -0.0607 -1.4793
   18MOL0     H 2360   2.963   0.948   0.569 -1.0960 -0.4819 -2.3643
   18MOL0     H 2361   3.160   1.095   0.523  0.9821  1.0017 -0.0461
   18MOL0     H 2362   5.236   1.185   0.664 -0.7487 -0.9875 -0.4257
   18MOL0     H 2363   5.459   1.307   0.584  0.3990  1.9217 -2.4269
   18MOL0     H 2364   5.849   1.366   0.343  1.4522  0.3726 -2.3032
   18MOL0     H 2365   6.028   1.525   0.252 -0.4964 -1.2038  0.3475
   18MOL0     H 2366   6.174   1.680   0.262 -1.8340 -1.9051  0.5092
   18MOL0     H 2367   6.173   1.789   0.405 -1.9856 -0.0409 -0.3621
   18MOL0     H 2368   6.202   1.850   0.109  1.3958  1.4381  0.0402
   18MOL0     H 2369   6.177   1.977   0.227  2.4167  0.6454 -0.0690
   18MOL0     H 2370   6.358   1.934   0.369 -0.0344 -0.7799  0.3687
   18MOL0     H 2371   6.411   1.966   0.199 -0.4375  0.4633  1.7205
   18MOL0     H 2372   6.385   1.704   0.348 -1.8481 -0.8213 -2.1682
   18MOL0     H 2373   6.453   1.712   0.186  3.2866 -0.3797  1.0004
   18MOL0     H 2374   6.780   1.849   0.384 -0.1408  1.9896  0.8670
   18MOL0     H 2375   5.753   1.844   0.331  0.4245  0.3120 -3.1568
   18MOL0     H 2376   5.584   1.693   0.397  0.0212  2.2244 -2.0036
   19MOL0     O 2377   5.652   9.290  10.012  1.1844 -0.6446 -0.1390
   19MOL0     C 2378   5.699   9.171  10.007  0.8717 -1.0962 -0.1661
   19MOL0     O 2379   5.637   9.062   9.957  0.6995 -0.3340  0.3305
   19MOL0     C 2380   5.510   9.065   9.898  0.5183 -0.2263 -0.3090
   19MOL0     C 2381   5.498   8.981   9.786  0.6638 -0.2358 -0.3470
   19MOL0     C 2382   5.378   8.972   9.723  0.6214  1.0422  0.4850
   19MOL0     C 2383   5.273   9.058   9.753 -0.5074 -0.0996  0.2618
   19MOL0     O 2384   5.163   9.061   9.665 -0.6240  1.0521 -0.6200
   19MOL0     C 2385   5.091   9.186   9.655  0.3862 -0.3637 -0.4402
   19MOL0     C 2386   4.958   9.181   9.729  0.0310  0.2001 -0.1103
   19MOL0     C 2387   4.842   9.127   9.652  1.3052 -0.6482  0.1533
   19MOL0     C 2388   4.697   9.159   9.712 -0.1950  0.0552 -0.4266
   19MOL0     C 2389   4.582   9.111   9.617 -0.4502 -0.8615 -0.1645
   19MOL0     C 2390   4.452   9.178   9.659  0.3783  0.2061 -0.3591
   19MOL0     C 2391   4.414   9.146   9.802 -0.2659 -0.9525 -0.3174
   19MOL0     C 2392   4.278   9.211   9.841 -0.1253  0.0020 -0.0051
   19MOL0     N 2393   4.234   9.188   9.980 -0.3354  1.2337  0.1139
   19MOL0     C 2394   4.300   9.210  10.098  0.1107 -0.5129  0.3563
   19MOL0     C 2395   4.214   9.186  10.194  0.6296 -1.2630 -0.3991
   19MOL0     C 2396   4.237   9.191  10.354  0.7211  0.9851  0.2420
   19MOL0     C 2397   4.196   9.059  10.422 -0.2172  0.0217  0.1960
   19MOL0     C 2398   4.245   9.062  10.572  0.5171 -0.6436 -0.3020
   19MOL0     C 2399   4.144   8.982  10.649  0.7041  0.1632 -0.3030
   19MOL0     O 2400   4.033   9.059  10.692 -0.2878 -0.9096  0.3372
   19MOL0     C 2401   3.908   9.008  10.686 -0.7910  0.0050 -0.9067
   19MOL0     C 2402   3.868   8.872  10.688 -0.7898 -0.0647 -0.4125
   19MOL0     C 2403   3.739   8.833  10.670  0.6390 -0.7778  0.0157
   19MOL0     C 2404   3.640   8.927  10.675  0.0378  0.1897  0.3706
   19MOL0     C 2405   3.500   8.898  10.658  0.1629  1.3603  0.3833
   19MOL0     O 2406   3.470   8.782  10.598  0.4565  0.4526 -0.1524
   19MOL0     C 2407   3.338   8.760  10.560 -0.6992  0.1358 -0.3921
   19MOL0     C 2408   3.295   8.627  10.564  0.0752 -0.4338 -0.5833
   19MOL0     C 2409   3.176   8.587  10.504  0.4030 -0.8057  0.8918
   19MOL0     C 2410   3.088   8.681  10.446 -0.1504 -0.3283 -0.0911
   19MOL0     O 2411   2.969   8.653  10.388  0.4011 -0.6673 -0.0847
   19MOL0     C 2412   2.903   8.532  10.418  0.4748 -0.1145  0.2177
   19MOL0     C 2413   2.768   8.542  10.345  0.6853  0.3211 -0.4134
   19MOL0     C 2414   2.696   8.406  10.343  0.1605 -0.1605 -0.2837
   19MOL0     C 2415   2.566   8.397  10.261 -0.2607 -0.6176 -0.2798
   19MOL0     C 2416   2.586   8.388  10.112 -0.1201  0.1772  0.4239
   19MOL0     C 2417   2.458   8.399  10.030 -0.1711  0.4882 -0.5392
   19MOL0     C 2418   2.502   8.339   9.898 -0.0289  0.5885  0.1211
   19MOL0     C 2419   2.379   8.306   9.815 -1.1063 -0.1734  0.7967
   19MOL0    Cl 2420   2.324   8.151   9.884 -0.2472 -0.0570  0.0122
   19MOL0     C 2421   3.124   8.817  10.450 -0.1942 -0.0077  0.0191
   19MOL0     C 2422   3.247   8.853  10.504  0.5820 -0.2036  0.2084
   19MOL0     O 2423   3.419   8.968  10.720 -0.3066  0.2590 -0.1620
   19MOL0     C 2424   3.675   9.063  10.707  0.4167 -0.2247  0.7988
   19MOL0     C 2425   3.806   9.101  10.698 -0.5209 -0.2889  0.2162
   19MOL0     N 2426   4.100   9.138  10.137  0.1238  0.2192  0.0431
   19MOL0     N 2427   4.116   9.127  10.007  0.4331 -0.7490 -0.0703
   19MOL0     C 2428   5.285   9.133   9.870 -0.8077 -0.7594  0.4661
   19MOL0     C 2429   5.404   9.136   9.945 -0.5003  0.3568 -0.4958
   19MOL0     C 2430   5.840   9.155  10.030  0.1078 -0.4308 -0.6434
   19MOL0     C 2431   5.919   9.263  10.065 -0.1044 -0.4602  0.3122
   19MOL0     C 2432   6.062   9.255  10.094  0.4759 -0.3012  0.2219
   19MOL0     C 2433   6.129   9.137  10.050 -0.2907 -1.0257 -1.0760
   19MOL0     O 2434   6.266   9.128  10.058  0.1498 -0.3209  0.8217
   19MOL0     C 2435   6.343   9.239  10.108  0.0538 -0.1095 -0.1328
   19MOL0     C 2436   6.495   9.244  10.078  0.5161 -0.2782 -0.3958
   19MOL0     C 2437   6.556   9.378  10.116  0.1198 -0.8151  0.8173
   19MOL0     C 2438   6.695   9.383  10.043  0.3623  0.3772 -0.4623
   19MOL0     C 2439   6.687   9.394   9.902 -0.5262  0.5800  0.0602
   19MOL0     C 2440   6.703   9.422   9.782 -0.0716  0.0092  0.3643
   19MOL0     C 2441   6.050   9.030  10.008 -0.8237 -0.6928  0.0384
   19MOL0     C 2442   5.909   9.030  10.003 -0.7484 -1.0950 -0.1679
   19MOL0     H 2443   5.585   8.919   9.762  1.9275  1.2234  0.2714
   19MOL0     H 2444   5.363   8.915   9.632  1.3893  0.5576  0.6488
   19MOL0     H 2445   5.065   9.208   9.551  0.7764 -1.4744 -0.7799
   19MOL0     H 2446   5.152   9.271   9.689 -0.2499 -1.0374  2.7228
   19MOL0     H 2447   4.928   9.284   9.751 -1.8490  0.1824 -2.2448
   19MOL0     H 2448   4.976   9.127   9.822 -1.7651 -2.2057 -1.0492
   19MOL0     H 2449   4.848   9.018   9.649  1.3650 -0.6442 -2.4771
   19MOL0     H 2450   4.846   9.156   9.547 -0.0696 -0.5045  0.1202
   19MOL0     H 2451   4.686   9.115   9.811 -0.5881 -1.3705 -1.0852
   19MOL0     H 2452   4.691   9.268   9.724  0.5586 -0.0922  1.6658
   19MOL0     H 2453   4.573   9.002   9.621 -0.5708 -0.8220  0.9345
   19MOL0     H 2454   4.601   9.147   9.515 -1.3093  0.8312  0.2507
   19MOL0     H 2455   4.378   9.155   9.582  0.4449  0.4998 -0.5101
   19MOL0     H 2456   4.470   9.285   9.650  0.2632  0.0837 -2.6452
   19MOL0     H 2457   4.413   9.039   9.821 -0.6082 -0.5295  2.4816
   19MOL0     H 2458   4.488   9.192   9.869  1.0892  0.9537 -2.9398
   19MOL0     H 2459   4.193   9.194   9.775  2.5290  0.1467 -3.7429
   19MOL0     H 2460   4.287   9.320   9.841  0.0542 -0.0097  0.2453
   19MOL0     H 2461   4.402   9.243  10.115 -0.8498  2.2435  1.3523
   19MOL0     H 2462   4.178   9.267  10.406  2.5849  2.2804  0.5636
   19MOL0     H 2463   4.338   9.209  10.391 -0.0122 -1.0644  3.6156
   19MOL0     H 2464   4.247   8.977  10.372  0.5896  0.7077 -0.1436
   19MOL0     H 2465   4.088   9.044  10.421 -0.0629 -2.2085  2.9141
   19MOL0     H 2466   4.344   9.015  10.578  1.7803  1.9289  0.3119
   19MOL0     H 2467   4.264   9.164  10.607  0.9639  0.0033 -2.3082
   19MOL0     H 2468   4.201   8.955  10.738 -0.8307 -1.0641  0.3611
   19MOL0     H 2469   4.111   8.895  10.591 -1.7903 -0.4638  1.8905
   19MOL0     H 2470   3.941   8.794  10.701  0.4279  1.4121  2.5778
   19MOL0     H 2471   3.718   8.727  10.658 -0.9805 -0.3821 -0.8840
   19MOL0     H 2472   3.359   8.543  10.589 -2.6327 -2.2779  0.6644
   19MOL0     H 2473   3.138   8.485  10.511  0.8107 -0.9653  0.8428
   19MOL0     H 2474   2.884   8.523  10.525  2.1290  0.2309  0.5743
   19MOL0     H 2475   2.962   8.448  10.379  0.8376 -0.0277  0.5732
   19MOL0     H 2476   2.792   8.577  10.245 -0.7383  1.5442 -0.3694
   19MOL0     H 2477   2.706   8.620  10.392  1.5687  0.2812  0.8835
   19MOL0     H 2478   2.665   8.388  10.447  1.4865 -0.1292  0.1291
   19MOL0     H 2479   2.770   8.333  10.310 -0.1194 -0.7789  0.4095
   19MOL0     H 2480   2.508   8.311  10.297 -1.0484 -0.1522 -0.4116
   19MOL0     H 2481   2.502   8.483  10.281 -1.0672 -0.6832 -2.3543
   19MOL0     H 2482   2.624   8.286  10.112 -1.9240 -0.5472  0.8039
   19MOL0     H 2483   2.657   8.464  10.079 -1.4552  2.1382  1.8014
   19MOL0     H 2484   2.420   8.501  10.015 -0.6283  0.3792 -0.1374
   19MOL0     H 2485   2.384   8.333  10.075  1.6356 -2.1332 -1.1450
   19MOL0     H 2486   2.560   8.419   9.851 -1.8770  1.1946 -1.2765
   19MOL0     H 2487   2.561   8.248   9.910  1.4029  1.6686  1.7264
   19MOL0     H 2488   2.407   8.304   9.709 -0.3746  3.5681  0.8080
   19MOL0     H 2489   2.297   8.378   9.822 -1.5755 -0.8636  2.9364
   19MOL0     H 2490   3.057   8.898  10.422  1.2847  0.8633 -1.1390
   19MOL0     H 2491   3.289   8.953  10.497 -0.6767  0.2710 -1.4097
   19MOL0     H 2492   3.600   9.139  10.729  1.3381  0.7024  0.8068
   19MOL0     H 2493   3.818   9.208  10.689 -0.9281 -0.3787 -1.9264
   19MOL0     H 2494   5.197   9.192   9.896 -0.4877  0.9837 -2.0750
   19MOL0     H 2495   5.415   9.195  10.036  0.4902  1.2495 -1.1698
   19MOL0     H 2496   5.879   9.363  10.075  2.6304  0.7280  0.4108
   19MOL0     H 2497   6.118   9.339  10.133  2.7753 -1.2608 -0.8474
   19MOL0     H 2498   6.319   9.237  10.215 -2.5409 -0.7204 -0.6652
   19MOL0     H 2499   6.307   9.333  10.064 -0.1168  0.6354  1.5195
   19MOL0     H 2500   6.552   9.172  10.138  0.6660  2.1764  2.6975
   19MOL0     H 2501   6.504   9.218   9.972  3.6297 -2.6714  0.2871
   19MOL0     H 2502   6.557   9.395  10.225  0.9301  1.8063  0.4820
   19MOL0     H 2503   6.496   9.460  10.077  1.0523 -0.7358 -0.4945
   19MOL0     H 2504   6.754   9.466  10.085  1.0619 -0.3523  0.0222
   19MOL0     H 2505   6.743   9.286  10.052 -0.3036  0.0032 -0.8812
   19MOL0     H 2506   6.713   9.456   9.680 -0.6811  0.8615  0.5743
   19MOL0     H 2507   6.095   8.941   9.966  2.4178  0.8237  0.0164
   19MOL0     H 2508   5.858   8.937   9.982 -0.0484 -1.4783 -0.2052
   20MOL0     O 2509   2.461   3.742   9.212 -1.0365  0.2450 -0.6939
   20MOL0     C 2510   2.419   3.777   9.326 -0.4201  0.3703 -0.0914
   20MOL0     O 2511   2.481   3.764   9.447  0.8788  0.4994  0.0127
   20MOL0     C 2512   2.610   3.715   9.446  0.0821 -0.4672 -0.2132
   20MOL0     C 2513   2.634   3.587   9.403 -0.1662  0.0562 -0.5663
   20MOL0     C 2514   2.756   3.520   9.417 -0.1708  0.2479 -0.6500
   20MOL0     C 2515   2.870   3.589   9.470 -0.0991 -0.3671 -0.6499
   20MOL0     O 2516   2.995   3.542   9.479 -0.0456  0.4490 -0.0870
   20MOL0     C 2517   3.034   3.428   9.399  1.1597 -0.3758 -0.1618
   20MOL0     C 2518   3.187   3.429   9.408 -0.2138  0.3068  0.7743
   20MOL0     C 2519   3.233   3.406   9.553  0.1452  0.3775 -0.7889
   20MOL0     C 2520   3.370   3.340   9.563  0.2224 -0.8671 -0.5867
   20MOL0     C 2521   3.385   3.264   9.698 -0.4135 -0.5711  0.5177
   20MOL0     C 2522   3.497   3.158   9.692  0.2021 -0.1443 -0.1689
   20MOL0     C 2523   3.551   3.093   9.822 -0.4036 -0.5016  0.0439
   20MOL0     C 2524   3.600   3.192   9.921  0.1587 -0.7442 -0.1050
   20MOL0     N 2525   3.693   3.114   9.999  0.1732 -0.5437  0.3336
   20MOL0     C 2526   3.825   3.094   9.965  0.0706 -0.0356 -0.1017
   20MOL0     C 2527   3.879   3.019  10.062  0.8144 -0.4159 -0.1426
   20MOL0     C 2528   4.013   2.954  10.069  1.0966 -0.0304 -0.0720
   20MOL0     C 2529   4.071   2.948  10.211 -0.0590  0.8269  0.5008
   20MOL0     C 2530   4.203   2.870  10.223  0.1153 -0.3432  0.4254
   20MOL0     C 2531   4.300   2.917  10.111 -0.8818 -0.8920 -0.1184
   20MOL0     O 2532   4.317   3.060  10.115  0.2864 -0.3615  0.1242
   20MOL0     C 2533   4.440   3.119  10.093  0.1750  0.8000 -0.1029
   20MOL0     C 2534   4.561   3.049  10.116 -0.3060  0.2183 -0.7180
   20MOL0     C 2535   4.686   3.109  10.110  0.9686  0.7244 -0.4583
   20MOL0     C 2536   4.702   3.247  10.103 -0.1672 -0.4839 -0.3175
   20MOL0     C 2537   4.836   3.319  10.117  0.0119 -0.5890  0.2226
   20MOL0     O 2538   4.949   3.249  10.146  0.2444 -0.0322  0.0175
   20MOL0     C 2539   5.068   3.310  10.172 -0.2351  0.4000  1.2069
   20MOL0     C 2540   5.117   3.397  10.080  0.1982 -0.3789  0.7298
   20MOL0     C 2541   5.235   3.472  10.119 -0.4727 -0.1171  0.4423
   20MOL0     C 2542   5.280   3.459  10.255  0.3056  0.4776  0.5465
   20MOL0     O 2543   5.390   3.537  10.290 -0.0330  0.4053  0.2537
   20MOL0     C 2544   5.458   3.530  10.413 -0.0293  0.4490 -0.8275
   20MOL0     C 2545   5.554   3.648  10.422  0.0979 -0.4622 -0.4331
   20MOL0     C 2546   5.664   3.643  10.329  0.0445  0.3406 -0.0123
   20MOL0     C 2547   5.778   3.548  10.368 -1.6410 -0.3283  0.5775
   20MOL0     C 2548   5.875   3.530  10.250 -0.1124  1.0137  0.4158
   20MOL0     C 2549   5.821   3.454  10.131  0.4780 -0.2553 -0.0805
   20MOL0     C 2550   5.943   3.393  10.050  0.4265  0.1170 -0.0705
   20MOL0     C 2551   5.918   3.319   9.911  0.6041 -0.4839  0.7449
   20MOL0    Cl 2552   5.866   3.144   9.945  0.0620 -0.2637  0.0223
   20MOL0     C 2553   5.231   3.364  10.342  0.2738  0.4229  0.2795
   20MOL0     C 2554   5.125   3.281  10.297 -0.2456 -0.0625 -0.7237
   20MOL0     O 2555   4.841   3.434  10.098  0.2398 -0.5773 -0.0430
   20MOL0     C 2556   4.578   3.324  10.093 -0.2475  0.1653  0.4702
   20MOL0     C 2557   4.454   3.259  10.093  0.2829  0.7196  0.9020
   20MOL0     N 2558   3.779   2.995  10.148  0.1803 -0.7408  0.1381
   20MOL0     N 2559   3.668   3.052  10.117  0.2285 -0.5231  0.0092
   20MOL0     C 2560   2.845   3.722   9.509 -0.0077 -0.6194  0.2442
   20MOL0     C 2561   2.716   3.784   9.509  0.0699 -0.0496  0.2722
   20MOL0     C 2562   2.296   3.861   9.317  0.9588  0.5828 -1.3774
   20MOL0     C 2563   2.225   3.883   9.193 -0.0926  0.2796 -0.0345
   20MOL0     C 2564   2.108   3.955   9.192 -0.7021 -0.4617 -0.3568
   20MOL0     C 2565   2.053   4.012   9.310  0.2992  0.6701  0.1233
   20MOL0     O 2566   1.946   4.091   9.296  0.1504  0.2494  0.0095
   20MOL0     C 2567   1.967   4.232   9.330  0.6979  0.2955 -0.4650
   20MOL0     C 2568   1.855   4.309   9.247 -0.0982 -0.3172  0.7419
   20MOL0     C 2569   1.715   4.291   9.285  0.0295 -0.3628  0.3175
   20MOL0     C 2570   1.614   4.342   9.177 -0.2320  0.6108 -0.4216
   20MOL0     C 2571   1.479   4.346   9.236  0.4745  0.5768  0.2528
   20MOL0     C 2572   1.374   4.315   9.277 -0.0815 -1.0204  0.6632
   20MOL0     C 2573   2.120   3.995   9.424 -0.2442 -0.2481 -1.0196
   20MOL0     C 2574   2.237   3.917   9.435 -0.3669 -0.6014  0.6096
   20MOL0     H 2575   2.545   3.543   9.360 -0.5664  0.0649  0.2289
   20MOL0     H 2576   2.764   3.420   9.377 -1.3849 -0.6809  1.2875
   20MOL0     H 2577   2.984   3.420   9.302 -3.6846 -1.3760  2.0994
   20MOL0     H 2578   2.995   3.335   9.442  2.5749 -1.8770 -1.9363
   20MOL0     H 2579   3.237   3.516   9.363  1.1030 -0.2581  1.0854
   20MOL0     H 2580   3.228   3.348   9.347 -0.7805  1.5947 -1.4182
   20MOL0     H 2581   3.154   3.344   9.595  0.0200 -0.2463 -1.9095
   20MOL0     H 2582   3.235   3.501   9.608  2.8890  0.5453 -1.0408
   20MOL0     H 2583   3.380   3.281   9.471 -1.4572  0.9779 -2.0499
   20MOL0     H 2584   3.447   3.418   9.554  0.7215 -1.4033 -1.0988
   20MOL0     H 2585   3.288   3.221   9.725 -1.5005  2.9792  3.1229
   20MOL0     H 2586   3.413   3.339   9.772  0.6764  0.9858 -1.3695
   20MOL0     H 2587   3.582   3.201   9.639  3.5293 -4.2087  1.3214
   20MOL0     H 2588   3.466   3.082   9.619  0.5669  2.0887 -2.8047
   20MOL0     H 2589   3.472   3.028   9.861 -3.6733  1.6557 -2.3626
   20MOL0     H 2590   3.636   3.032   9.790  0.3136 -0.3781  1.6555
   20MOL0     H 2591   3.514   3.232   9.975  0.7986  1.6503 -0.7687
   20MOL0     H 2592   3.650   3.277   9.874  0.2218 -0.2022  0.9263
   20MOL0     H 2593   3.873   3.129   9.874  0.2217 -0.2749 -0.1145
   20MOL0     H 2594   4.070   3.013   9.997  0.0412  2.4216  1.0093
   20MOL0     H 2595   4.007   2.850  10.035  0.7532  0.0945 -0.3906
   20MOL0     H 2596   3.991   2.912  10.275  1.6013 -1.7062  1.2921
   20MOL0     H 2597   4.088   3.050  10.246 -1.7018  2.0702 -2.0067
   20MOL0     H 2598   4.260   2.887  10.315  1.2803  1.7516 -0.6126
   20MOL0     H 2599   4.189   2.761  10.224 -0.0168 -0.3453 -0.9283
   20MOL0     H 2600   4.255   2.890  10.015  0.0435 -0.3057 -0.7346
   20MOL0     H 2601   4.392   2.858  10.114  0.4849  0.6304 -4.0118
   20MOL0     H 2602   4.571   2.942  10.129  1.9459  0.2898 -1.5004
   20MOL0     H 2603   4.777   3.051  10.115  0.0238 -0.7784  0.0125
   20MOL0     H 2604   5.061   3.424   9.990 -0.9607  1.4693  1.9424
   20MOL0     H 2605   5.283   3.548  10.058 -0.8265 -1.4496 -1.5735
   20MOL0     H 2606   5.517   3.438  10.418 -2.0713 -1.0231 -2.3232
   20MOL0     H 2607   5.381   3.535  10.491 -2.5055  2.4318 -3.1672
   20MOL0     H 2608   5.603   3.649  10.520 -1.3715 -0.6064  0.3371
   20MOL0     H 2609   5.491   3.738  10.422 -1.6128 -1.5619  1.2067
   20MOL0     H 2610   5.698   3.747  10.335  0.2308  0.2030  2.3166
   20MOL0     H 2611   5.630   3.620  10.228  0.6467 -2.5832  0.3743
   20MOL0     H 2612   5.837   3.593  10.448 -1.7170  2.3015 -0.7277
   20MOL0     H 2613   5.749   3.449  10.405  2.5728 -1.9906  0.0023
   20MOL0     H 2614   5.963   3.480  10.292 -0.1954  0.3360 -0.1883
   20MOL0     H 2615   5.911   3.628  10.218  0.8017  0.4447 -0.3452
   20MOL0     H 2616   5.783   3.538  10.072  1.9535  1.0920  0.8299
   20MOL0     H 2617   5.743   3.383  10.160  1.2128  0.3879  4.0034
   20MOL0     H 2618   6.016   3.473  10.036  0.9974 -0.8585 -3.5783
   20MOL0     H 2619   5.993   3.321  10.115 -1.6771 -0.9963  0.3940
   20MOL0     H 2620   6.011   3.308   9.855  0.2443 -3.1219  0.5164
   20MOL0     H 2621   5.844   3.378   9.857  3.4120  2.7741  0.0929
   20MOL0     H 2622   5.252   3.360  10.448 -2.1304 -1.6752  0.7775
   20MOL0     H 2623   5.073   3.198  10.345 -0.2856  0.6655  0.5263
   20MOL0     H 2624   4.580   3.432  10.084 -0.1007  0.3764  2.4942
   20MOL0     H 2625   4.362   3.316  10.101  0.2417  1.1804 -1.8337
   20MOL0     H 2626   2.931   3.774   9.550 -0.0527  0.1763 -0.6394
   20MOL0     H 2627   2.701   3.881   9.555 -2.6484  0.0181 -0.5730
   20MOL0     H 2628   2.254   3.835   9.100 -0.6223 -0.9212  0.3944
   20MOL0     H 2629   2.067   3.980   9.095  2.7315  0.0048 -1.8450
   20MOL0     H 2630   2.069   4.270   9.316  0.6295  0.9400  0.6648
   20MOL0     H 2631   1.942   4.250   9.435 -1.5217 -2.1638 -0.4450
   20MOL0     H 2632   1.877   4.416   9.250  2.8042 -0.7885 -0.1990
   20MOL0     H 2633   1.865   4.279   9.142 -2.9268 -0.5209  0.4626
   20MOL0     H 2634   1.686   4.342   9.378  1.0481  0.9406 -0.0534
   20MOL0     H 2635   1.703   4.185   9.312 -0.0297 -1.0563 -2.2263
   20MOL0     H 2636   1.647   4.441   9.143 -1.2553  0.5172 -1.7567
   20MOL0     H 2637   1.613   4.274   9.092  0.1621 -0.9366  0.7567
   20MOL0     H 2638   1.276   4.282   9.306  0.0695  0.1393  2.6992
   20MOL0     H 2639   2.088   4.025   9.523  1.8564 -1.4944  0.1138
   20MOL0     H 2640   2.276   3.899   9.535  1.4554  1.5666  0.3782
   21MOL0     O 2641   1.123   8.244   7.323 -0.3735 -1.1049  0.1886
   21MOL0     C 2642   1.113   8.300   7.428  1.0351 -0.2150  0.0490
   21MOL0     O 2643   1.002   8.333   7.494  0.3368 -0.2780  0.3606
   21MOL0     C 2644   0.872   8.307   7.444 -0.2297  0.2746 -0.7193
   21MOL0     C 2645   0.826   8.361   7.327 -0.8051  0.3068  0.2551
   21MOL0     C 2646   0.704   8.315   7.278  0.2176  0.2525  0.4053
   21MOL0     C 2647   0.625   8.223   7.349 -0.0327  0.0400  0.9711
   21MOL0     O 2648   0.500   8.188   7.289 -0.1951 -0.2424  0.3546
   21MOL0     C 2649   0.464   8.229   7.158  0.5571 -0.1547 -0.0202
   21MOL0     C 2650   0.321   8.175   7.137 -0.2744 -0.4046 -0.3602
   21MOL0     C 2651   0.223   8.241   7.232  0.1569 -0.7014 -0.1630
   21MOL0     C 2652   0.082   8.250   7.189  0.1875  0.9203  0.6213
   21MOL0     C 2653   0.011   8.113   7.202 -0.5870  0.9977 -0.0814
   21MOL0     C 2654  -0.137   8.098   7.159 -0.7041  0.4869  0.3945
   21MOL0     C 2655  -0.236   8.201   7.220 -0.1557  0.5454 -0.4649
   21MOL0     C 2656  -0.266   8.187   7.367 -0.5858  0.1623 -0.1590
   21MOL0     N 2657  -0.310   8.051   7.409 -0.2280 -0.7677  0.1544
   21MOL0     C 2658  -0.416   7.982   7.347 -0.5201  0.4274 -0.1735
   21MOL0     C 2659  -0.413   7.854   7.399  0.8112 -0.3868  0.2682
   21MOL0     C 2660  -0.500   7.734   7.375  0.7471  0.0555  0.2560
   21MOL0     C 2661  -0.654   7.771   7.356 -0.2183  0.6379 -0.6521
   21MOL0     C 2662  -0.729   7.651   7.317  0.2328 -0.6398  0.1909
   21MOL0     C 2663  -0.885   7.663   7.332  0.3028 -0.2830 -0.8370
   21MOL0     O 2664  -0.936   7.775   7.259 -0.5592 -0.6829 -0.2173
   21MOL0     C 2665  -1.071   7.793   7.265 -0.2442  0.1329 -0.2888
   21MOL0     C 2666  -1.169   7.723   7.340  0.3931  0.1179 -0.2496
   21MOL0     C 2667  -1.306   7.757   7.313 -0.0980  0.1179  0.2091
   21MOL0     C 2668  -1.337   7.856   7.224  0.3022  0.3942 -0.2337
   21MOL0     C 2669  -1.478   7.888   7.204  0.4707 -0.0958  0.2112
   21MOL0     O 2670  -1.500   7.967   7.095 -0.0741 -0.0588  0.9161
   21MOL0     C 2671  -1.619   8.030   7.066 -0.8457 -0.4408  0.9150
   21MOL0     C 2672  -1.746   8.032   7.136  0.1304 -0.0464  0.3608
   21MOL0     C 2673  -1.857   8.111   7.086 -0.2156 -0.3109  0.2953
   21MOL0     C 2674  -1.849   8.185   6.970  0.3907  1.2022  0.1049
   21MOL0     O 2675  -1.964   8.245   6.916 -0.2505  0.0668 -0.1412
   21MOL0     C 2676  -2.000   8.380   6.969  0.4433 -0.1917  0.0858
   21MOL0     C 2677  -2.140   8.382   7.030 -0.1676  0.4381 -0.1199
   21MOL0     C 2678  -2.154   8.482   7.151  0.4763  0.8138 -0.1349
   21MOL0     C 2679  -2.292   8.456   7.197 -0.0177 -0.1839 -0.7620
   21MOL0     C 2680  -2.336   8.554   7.308  0.0432  0.9167 -0.4537
   21MOL0     C 2681  -2.335   8.703   7.264 -0.1143 -0.4827 -0.3144
   21MOL0     C 2682  -2.408   8.798   7.361  0.8340  0.8442  1.0548
   21MOL0     C 2683  -2.347   8.805   7.494  0.2962  0.3706  0.3192
   21MOL0    Cl 2684  -2.427   8.682   7.617  0.0330 -0.1800  0.1497
   21MOL0     C 2685  -1.731   8.176   6.903  0.6291  0.0941 -0.0321
   21MOL0     C 2686  -1.616   8.096   6.940  0.7318 -0.7144  0.4228
   21MOL0     O 2687  -1.566   7.844   7.283  0.0312 -0.6756 -0.2396
   21MOL0     C 2688  -1.235   7.932   7.164  0.5948 -0.3208 -0.8016
   21MOL0     C 2689  -1.104   7.902   7.185  0.0646  0.4924 -0.6868
   21MOL0     N 2690  -0.321   7.852   7.495 -0.5590 -0.0363  1.0434
   21MOL0     N 2691  -0.257   7.967   7.496  0.5834  0.3975  0.2676
   21MOL0     C 2692   0.673   8.174   7.473 -0.1563  0.1396  0.2355
   21MOL0     C 2693   0.794   8.218   7.523  0.5619  0.2651 -0.5409
   21MOL0     C 2694   1.248   8.321   7.499 -0.3890  0.6878 -0.1494
   21MOL0     C 2695   1.257   8.387   7.630  0.4562  0.3746 -1.1659
   21MOL0     C 2696   1.386   8.392   7.689  0.0423  0.5513 -1.1230
   21MOL0     C 2697   1.502   8.354   7.628  0.1222  0.1554 -0.5085
   21MOL0     O 2698   1.615   8.383   7.698  0.1130  0.5886 -0.2897
   21MOL0     C 2699   1.738   8.372   7.628 -0.3796  0.0351 -0.0722
   21MOL0     C 2700   1.784   8.489   7.545 -0.0240  0.0738  0.4120
   21MOL0     C 2701   1.932   8.479   7.487  0.7584  0.6451 -0.5089
   21MOL0     C 2702   1.968   8.592   7.396 -0.5723 -0.6849 -0.7836
   21MOL0     C 2703   1.906   8.571   7.266 -0.2291  0.7441  0.3818
   21MOL0     C 2704   1.871   8.546   7.149  0.0856  0.0782 -0.5365
   21MOL0     C 2705   1.495   8.299   7.504  0.8978  0.5344  0.7263
   21MOL0     C 2706   1.371   8.274   7.446 -0.7454 -0.3567 -0.2583
   21MOL0     H 2707   0.883   8.435   7.272 -1.1214  0.1024 -0.3613
   21MOL0     H 2708   0.674   8.370   7.189 -0.4340  0.1847  0.5750
   21MOL0     H 2709   0.525   8.175   7.086  0.9636 -0.3830  0.4877
   21MOL0     H 2710   0.464   8.335   7.132 -0.4935 -0.4021 -1.1292
   21MOL0     H 2711   0.316   8.066   7.148 -2.0607 -0.2285  1.2433
   21MOL0     H 2712   0.290   8.195   7.034  0.4663  0.8019 -0.3627
   21MOL0     H 2713   0.261   8.343   7.246  2.7381 -1.9026  2.5099
   21MOL0     H 2714   0.219   8.201   7.334 -2.2061  2.2923  1.0640
   21MOL0     H 2715   0.032   8.314   7.261  0.8663  0.9198  1.1073
   21MOL0     H 2716   0.076   8.286   7.087  2.2402 -2.0654 -0.7106
   21MOL0     H 2717   0.020   8.087   7.308 -1.6790  0.2292 -0.1667
   21MOL0     H 2718   0.074   8.033   7.161 -1.1648  0.0390  0.8347
   21MOL0     H 2719  -0.167   8.001   7.199 -0.4661 -0.2219 -1.1082
   21MOL0     H 2720  -0.140   8.103   7.050  2.6177  0.7246  0.1992
   21MOL0     H 2721  -0.177   8.292   7.203  1.0670 -0.0711  0.3394
   21MOL0     H 2722  -0.327   8.202   7.160  0.5055  0.5761 -1.4989
   21MOL0     H 2723  -0.349   8.256   7.386 -0.1084  1.6355 -2.8680
   21MOL0     H 2724  -0.182   8.213   7.432  1.1875  0.4177 -2.4050
   21MOL0     H 2725  -0.489   8.020   7.276 -0.3808  2.5988  0.7736
   21MOL0     H 2726  -0.493   7.662   7.457 -2.2745 -1.0607 -0.3177
   21MOL0     H 2727  -0.466   7.691   7.280  1.7995 -1.7091  1.3705
   21MOL0     H 2728  -0.659   7.849   7.279  1.2955  1.3438 -0.0850
   21MOL0     H 2729  -0.695   7.806   7.451  1.1823  1.7064 -0.4142
   21MOL0     H 2730  -0.704   7.628   7.213  0.7930  0.9875 -0.0573
   21MOL0     H 2731  -0.706   7.561   7.375 -0.8478 -3.3132 -3.2061
   21MOL0     H 2732  -0.903   7.673   7.439  2.7946  0.3049 -0.4135
   21MOL0     H 2733  -0.931   7.578   7.281  1.6307 -2.3069  1.1581
   21MOL0     H 2734  -1.126   7.652   7.409  0.2309 -1.1892 -1.4468
   21MOL0     H 2735  -1.379   7.690   7.359  0.9576 -0.6469  0.8262
   21MOL0     H 2736  -1.774   7.983   7.229 -2.1851 -0.6974 -0.5909
   21MOL0     H 2737  -1.945   8.104   7.149  1.7082 -0.3719  3.1180
   21MOL0     H 2738  -1.995   8.458   6.892 -0.2663 -1.1300 -0.9452
   21MOL0     H 2739  -1.930   8.413   7.046  1.0338  2.0652 -1.3198
   21MOL0     H 2740  -2.151   8.285   7.079  2.1780  2.0810  4.2571
   21MOL0     H 2741  -2.220   8.396   6.957 -2.0090  1.8044  2.0084
   21MOL0     H 2742  -2.134   8.588   7.129  1.0404  1.0664  1.4295
   21MOL0     H 2743  -2.083   8.453   7.229  0.5311 -0.3964 -0.6242
   21MOL0     H 2744  -2.365   8.460   7.115  0.0696 -2.8174 -1.0404
   21MOL0     H 2745  -2.301   8.356   7.240  0.0376 -0.0199 -0.3601
   21MOL0     H 2746  -2.275   8.541   7.398 -0.9266  0.1067  0.0993
   21MOL0     H 2747  -2.434   8.520   7.341  0.5975  0.2608  0.5808
   21MOL0     H 2748  -2.368   8.705   7.160 -0.1928 -0.8081 -0.2957
   21MOL0     H 2749  -2.231   8.736   7.269 -0.0289 -0.8880  1.3653
   21MOL0     H 2750  -2.410   8.900   7.320 -3.1636  1.2670  1.9023
   21MOL0     H 2751  -2.514   8.770   7.356  0.8112  1.1252 -0.9127
   21MOL0     H 2752  -2.366   8.906   7.532 -0.6399  0.0251  0.7917
   21MOL0     H 2753  -2.241   8.785   7.481  0.1871  1.3188 -3.2704
   21MOL0     H 2754  -1.736   8.217   6.803  0.0845  0.1922  0.0336
   21MOL0     H 2755  -1.530   8.074   6.878 -0.4778 -2.5354 -0.6766
   21MOL0     H 2756  -1.253   8.014   7.095  2.7780  2.2784  1.5002
   21MOL0     H 2757  -1.039   7.956   7.118  0.6234  0.7796  0.0675
   21MOL0     H 2758   0.611   8.108   7.533 -1.6425  2.1554  1.0347
   21MOL0     H 2759   0.846   8.186   7.612  0.6660  1.6161 -0.0915
   21MOL0     H 2760   1.175   8.434   7.683  2.4750  3.2653 -0.3578
   21MOL0     H 2761   1.385   8.443   7.785  2.4693  0.6992 -1.1195
   21MOL0     H 2762   1.737   8.285   7.561  0.6254  0.5771 -0.8238
   21MOL0     H 2763   1.813   8.349   7.704 -1.0226  5.0594  2.4665
   21MOL0     H 2764   1.711   8.510   7.467 -1.2534  0.6622  1.6809
   21MOL0     H 2765   1.781   8.562   7.627 -1.3428 -0.6815  1.0595
   21MOL0     H 2766   1.933   8.381   7.438 -0.0228 -1.5149  3.3359
   21MOL0     H 2767   2.004   8.485   7.569 -0.2003 -0.7228  0.4702
   21MOL0     H 2768   1.928   8.684   7.439 -1.9511 -1.4216 -0.4006
   21MOL0     H 2769   2.077   8.597   7.385 -0.6092 -1.5686 -1.7692
   21MOL0     H 2770   1.837   8.504   7.057 -2.1171 -1.4214  0.8574
   21MOL0     H 2771   1.575   8.254   7.446 -0.3133  0.6402 -1.0985
   21MOL0     H 2772   1.373   8.227   7.348 -3.4831  2.1795 -1.7213
   22MOL0     O 2773   5.063  11.185   4.339 -0.2049 -0.0851 -0.5719
   22MOL0     C 2774   4.974  11.239   4.402 -0.3977  0.0017 -0.4166
   22MOL0     O 2775   4.966  11.371   4.426  0.4785 -0.2736  0.9425
   22MOL0     C 2776   5.087  11.438   4.402 -0.0779 -0.2593  0.1180
   22MOL0     C 2777   5.171  11.453   4.511  0.1911 -0.3235  0.5347
   22MOL0     C 2778   5.281  11.541   4.488  0.1958  0.1284 -0.2439
   22MOL0     C 2779   5.312  11.595   4.366 -0.1416 -0.5708  0.0271
   22MOL0     O 2780   5.424  11.681   4.348  0.8472 -0.5368  0.4132
   22MOL0     C 2781   5.502  11.675   4.228  0.1322  0.6325  0.2183
   22MOL0     C 2782   5.624  11.756   4.233  0.1132  0.4092  0.4530
   22MOL0     C 2783   5.630  11.867   4.343 -0.9116 -1.1624 -0.2460
   22MOL0     C 2784   5.771  11.930   4.346 -0.2336  0.1608  0.2488
   22MOL0     C 2785   5.865  11.851   4.433 -0.7533 -0.2417 -0.2767
   22MOL0     C 2786   6.002  11.919   4.456 -0.3819  0.4794  0.1484
   22MOL0     C 2787   6.088  11.930   4.318  0.3604 -0.5406 -0.9044
   22MOL0     C 2788   6.218  12.008   4.331  0.0232 -0.5516 -0.4983
   22MOL0     N 2789   6.269  12.007   4.192  0.0278 -0.7597  0.2517
   22MOL0     C 2790   6.220  12.062   4.085 -0.6815 -0.5149  0.3565
   22MOL0     C 2791   6.304  12.032   3.983  1.1410 -0.0648  0.2037
   22MOL0     C 2792   6.300  12.073   3.838 -0.6656 -0.0575 -1.3980
   22MOL0     C 2793   6.269  11.948   3.752  0.0784 -0.5148  0.2694
   22MOL0     C 2794   6.117  11.918   3.775 -0.0522  0.4616  0.1666
   22MOL0     C 2795   6.026  12.031   3.722  0.7266 -0.2307  0.6325
   22MOL0     O 2796   5.966  12.086   3.845  0.1966 -0.1965 -0.4136
   22MOL0     C 2797   5.835  12.059   3.876  0.0441  0.1666  0.3664
   22MOL0     C 2798   5.764  11.945   3.833 -0.7497 -0.5460  0.1371
   22MOL0     C 2799   5.628  11.937   3.875 -1.0917 -0.2747 -0.1648
   22MOL0     C 2800   5.565  12.039   3.960 -0.3596  0.2587  0.3523
   22MOL0     C 2801   5.424  12.023   4.016 -0.3128  0.0438  0.3314
   22MOL0     O 2802   5.348  11.925   3.953 -0.1816  0.4775  0.3141
   22MOL0     C 2803   5.221  11.926   3.981 -0.0198 -0.3306 -1.0275
   22MOL0     C 2804   5.190  11.874   4.108 -1.0391  0.6955  0.6180
   22MOL0     C 2805   5.056  11.841   4.144  0.6960  0.2251  0.8512
   22MOL0     C 2806   4.948  11.866   4.048 -0.4200  0.3968  0.1295
   22MOL0     O 2807   4.824  11.809   4.042  0.5384 -0.5079 -0.6551
   22MOL0     C 2808   4.790  11.718   4.157 -0.0156 -0.0963  0.2172
   22MOL0     C 2809   4.655  11.650   4.148  0.8557 -0.3847 -0.0849
   22MOL0     C 2810   4.619  11.564   4.278 -0.6278  0.2116  0.5393
   22MOL0     C 2811   4.486  11.477   4.272 -0.9788 -1.1866 -0.0225
   22MOL0     C 2812   4.455  11.423   4.409  0.7683 -0.2772 -0.2428
   22MOL0     C 2813   4.329  11.331   4.415 -0.0914 -1.1399 -0.5483
   22MOL0     C 2814   4.187  11.401   4.446  0.6315  0.8723  0.1048
   22MOL0     C 2815   4.078  11.291   4.463  0.2610 -0.7660 -0.1871
   22MOL0    Cl 2816   4.092  11.193   4.620  0.0425  0.0521  0.1016
   22MOL0     C 2817   4.989  11.918   3.923  0.2051 -0.1538  0.1528
   22MOL0     C 2818   5.117  11.951   3.896  0.4706  0.1264  0.4118
   22MOL0     O 2819   5.385  12.104   4.098 -0.2405 -0.5790  0.2655
   22MOL0     C 2820   5.638  12.149   3.985 -0.2031  0.1377 -0.0749
   22MOL0     C 2821   5.770  12.163   3.943 -0.2075 -0.1333 -0.0253
   22MOL0     N 2822   6.415  11.968   4.030  0.2772  0.0807  0.3537
   22MOL0     N 2823   6.393  11.954   4.155 -1.1991 -0.8091 -0.2980
   22MOL0     C 2824   5.221  11.573   4.263 -0.5020 -0.5318 -0.6955
   22MOL0     C 2825   5.122  11.479   4.274  0.2616  0.3810 -0.2153
   22MOL0     C 2826   4.859  11.157   4.457  0.0312 -0.3719  0.4326
   22MOL0     C 2827   4.855  11.017   4.432 -1.0678  0.1865 -1.0758
   22MOL0     C 2828   4.758  10.938   4.488 -0.6311  0.3001 -0.6836
   22MOL0     C 2829   4.650  11.003   4.550  0.1683  0.3054 -0.6217
   22MOL0     O 2830   4.546  10.933   4.604 -0.1122 -0.1679 -0.0438
   22MOL0     C 2831   4.438  10.912   4.518  0.0332 -0.5520  0.6018
   22MOL0     C 2832   4.336  10.822   4.582 -0.6964  0.1170 -0.1236
   22MOL0     C 2833   4.303  10.860   4.722  0.7342 -0.2517 -0.5072
   22MOL0     C 2834   4.224  10.740   4.787  0.4109  0.1276  0.4245
   22MOL0     C 2835   4.118  10.683   4.699 -0.2909 -0.3167  0.4149
   22MOL0     C 2836   4.018  10.643   4.645  0.5997  0.0295  0.0604
   22MOL0     C 2837   4.649  11.141   4.564  0.7833 -0.1915 -0.4627
   22MOL0     C 2838   4.747  11.223   4.517  0.2314  0.0351  1.3427
   22MOL0     H 2839   5.144  11.414   4.608  2.1854  0.0239  1.2898
   22MOL0     H 2840   5.351  11.574   4.565  2.3026  0.1276 -2.0530
   22MOL0     H 2841   5.449  11.721   4.144 -0.6889 -0.8010 -0.0831
   22MOL0     H 2842   5.529  11.572   4.204  1.5262  1.1166 -0.4472
   22MOL0     H 2843   5.642  11.785   4.129 -1.5911 -1.7708 -0.5302
   22MOL0     H 2844   5.700  11.684   4.266  0.5270  0.7140  0.1608
   22MOL0     H 2845   5.606  11.828   4.443  2.1175 -0.7000  0.7846
   22MOL0     H 2846   5.557  11.946   4.321 -0.4264  0.4400  3.1960
   22MOL0     H 2847   5.805  11.926   4.242 -3.1268  0.3564 -0.8022
   22MOL0     H 2848   5.765  12.035   4.378  0.0634  1.4750 -3.5063
   22MOL0     H 2849   5.886  11.748   4.400  0.9448 -0.5048  1.4669
   22MOL0     H 2850   5.828  11.855   4.536 -1.3138  1.4004 -0.5101
   22MOL0     H 2851   6.057  11.857   4.527  0.7414  0.9518 -0.2795
   22MOL0     H 2852   5.981  12.017   4.499  0.4619  2.0680 -2.7927
   22MOL0     H 2853   6.105  11.832   4.273 -1.5829 -0.5793 -1.6380
   22MOL0     H 2854   6.016  11.991   4.263 -2.0024 -0.4861  2.0262
   22MOL0     H 2855   6.296  11.972   4.399  2.1676  1.4996 -1.7211
   22MOL0     H 2856   6.206  12.112   4.360  0.7167 -0.7933  0.7376
   22MOL0     H 2857   6.132  12.124   4.073 -1.9290 -2.4289 -0.9101
   22MOL0     H 2858   6.399  12.110   3.808 -0.5461  1.5254  0.7168
   22MOL0     H 2859   6.225  12.151   3.833 -2.3635 -1.2823  1.8249
   22MOL0     H 2860   6.334  11.865   3.783 -0.2952 -0.6381  0.7390
   22MOL0     H 2861   6.296  11.963   3.647  0.0396  2.5606  0.6044
   22MOL0     H 2862   6.104  11.828   3.713 -3.1402  0.9029 -0.0144
   22MOL0     H 2863   6.084  11.888   3.875 -0.4142  1.5408  0.3801
   22MOL0     H 2864   5.949  11.990   3.656  1.0302  2.2578 -1.4365
   22MOL0     H 2865   6.095  12.095   3.666 -0.4097 -0.0460 -0.6092
   22MOL0     H 2866   5.804  11.857   3.783  1.8420 -0.2504  1.5042
   22MOL0     H 2867   5.583  11.844   3.842  1.4130 -1.3072 -0.8562
   22MOL0     H 2868   5.272  11.840   4.170 -0.7905  0.9712  0.4430
   22MOL0     H 2869   5.020  11.785   4.230 -0.8411 -2.9711 -1.6246
   22MOL0     H 2870   4.810  11.772   4.251 -0.0016  1.6830 -0.7556
   22MOL0     H 2871   4.862  11.636   4.160 -0.5521 -0.6164 -0.7434
   22MOL0     H 2872   4.648  11.584   4.061  3.1620  0.3117 -0.8839
   22MOL0     H 2873   4.576  11.722   4.126 -0.0607 -1.6814 -1.1689
   22MOL0     H 2874   4.603  11.629   4.365  0.0073 -2.5232  2.8712
   22MOL0     H 2875   4.705  11.503   4.305 -0.3447  0.5290  0.3558
   22MOL0     H 2876   4.405  11.535   4.225  0.8169 -0.9511 -3.0798
   22MOL0     H 2877   4.500  11.397   4.199 -2.8926 -0.3782 -1.3908
   22MOL0     H 2878   4.433  11.518   4.460 -2.5604 -0.7748 -0.5316
   22MOL0     H 2879   4.547  11.375   4.445  1.8842  1.1520 -1.0421
   22MOL0     H 2880   4.337  11.245   4.483 -0.2273 -0.7656 -0.0482
   22MOL0     H 2881   4.327  11.280   4.318  0.9374 -1.6073 -0.3392
   22MOL0     H 2882   4.193  11.442   4.547 -0.7370 -0.4488  0.7684
   22MOL0     H 2883   4.139  11.466   4.373 -2.4043 -0.8273  0.4257
   22MOL0     H 2884   4.093  11.222   4.379  1.9865 -0.8901  0.1682
   22MOL0     H 2885   3.981  11.340   4.468  0.5090 -0.3429  0.9092
   22MOL0     H 2886   4.916  11.939   3.845  0.5849 -1.1407 -0.4962
   22MOL0     H 2887   5.144  11.962   3.792 -1.5359 -0.3584 -0.1919
   22MOL0     H 2888   5.604  12.234   4.043  2.5871  1.3501 -0.0312
   22MOL0     H 2889   5.824  12.253   3.972 -1.2694  0.8841 -1.1058
   22MOL0     H 2890   5.237  11.600   4.159  2.1205  2.9563  0.4295
   22MOL0     H 2891   5.045  11.462   4.200  2.0257 -1.5064 -1.7367
   22MOL0     H 2892   4.943  10.980   4.380  0.1543  0.7632  0.4795
   22MOL0     H 2893   4.757  10.831   4.473 -3.7413  0.4975 -2.7206
   22MOL0     H 2894   4.461  10.857   4.426 -0.7869  0.6875 -0.3980
   22MOL0     H 2895   4.394  11.008   4.486  1.1743 -0.7496 -1.8212
   22MOL0     H 2896   4.240  10.832   4.531 -0.7473 -4.1563 -1.2580
   22MOL0     H 2897   4.368  10.717   4.580  0.0402  0.3442 -0.3040
   22MOL0     H 2898   4.250  10.955   4.732  3.6284  1.5329 -1.0043
   22MOL0     H 2899   4.391  10.880   4.783 -0.9393 -0.3251  2.0745
   22MOL0     H 2900   4.293  10.661   4.817  0.8559 -0.3799 -1.7863
   22MOL0     H 2901   4.185  10.780   4.881  2.0010  3.1925 -0.0926
   22MOL0     H 2902   3.925  10.613   4.603 -0.1539  0.7274  1.1673
   22MOL0     H 2903   4.560  11.186   4.608  1.4807  1.0581 -0.2998
   22MOL0     H 2904   4.739  11.331   4.520  2.2767  0.2161  1.0469
   23MOL0     O 2905   7.611   8.170   6.152  0.2524 -0.3528  0.8019
   23MOL0     C 2906   7.698   8.240   6.204  0.3969  0.1256  0.4303
   23MOL0     O 2907   7.687   8.312   6.324  0.4024 -0.0999  0.2691
   23MOL0     C 2908   7.566   8.322   6.399 -0.4553  0.0182 -0.1775
   23MOL0     C 2909   7.457   8.232   6.397 -1.1564  1.4453 -0.3463
   23MOL0     C 2910   7.350   8.246   6.479 -1.1671 -0.2578 -1.0028
   23MOL0     C 2911   7.356   8.347   6.577  0.7833 -0.6187 -0.6684
   23MOL0     O 2912   7.251   8.361   6.666  0.3756 -0.0790  0.1335
   23MOL0     C 2913   7.235   8.486   6.745 -0.6725 -0.1891 -1.0127
   23MOL0     C 2914   7.186   8.608   6.668 -0.4900  0.7038  0.1590
   23MOL0     C 2915   7.060   8.577   6.582 -0.4393 -0.0225  0.0571
   23MOL0     C 2916   6.956   8.509   6.672  0.1766 -0.2510 -0.7421
   23MOL0     C 2917   6.824   8.511   6.599  0.1936 -0.1765 -0.2010
   23MOL0     C 2918   6.728   8.408   6.656 -0.4391  0.3339  0.0944
   23MOL0     C 2919   6.588   8.424   6.598 -1.1340 -0.7268 -1.6983
   23MOL0     C 2920   6.592   8.412   6.448 -1.0491 -1.3355 -0.6952
   23MOL0     N 2921   6.466   8.434   6.382  0.4223 -0.6717 -0.2345
   23MOL0     C 2922   6.388   8.545   6.381 -0.2549 -0.6922  0.2080
   23MOL0     C 2923   6.300   8.528   6.284 -0.4906 -0.3798 -0.3688
   23MOL0     C 2924   6.195   8.633   6.243  0.2233  0.2322  0.1773
   23MOL0     C 2925   6.084   8.633   6.354 -0.0308 -0.5291 -1.2005
   23MOL0     C 2926   5.992   8.518   6.326 -0.1410  1.2771  0.5345
   23MOL0     C 2927   5.866   8.569   6.258  0.1648  0.3489  0.0123
   23MOL0     O 2928   5.778   8.646   6.349 -0.2726 -0.2638  0.7126
   23MOL0     C 2929   5.643   8.619   6.334  0.8124  0.0786 -0.5040
   23MOL0     C 2930   5.582   8.591   6.213  0.2802 -1.0865 -0.2709
   23MOL0     C 2931   5.438   8.579   6.203 -0.7989  0.2734 -0.0725
   23MOL0     C 2932   5.363   8.589   6.318  0.0530  0.4594  0.1794
   23MOL0     C 2933   5.221   8.554   6.308  0.6307 -0.4780  0.6047
   23MOL0     O 2934   5.167   8.509   6.184  1.0430  0.1219  0.4944
   23MOL0     C 2935   5.028   8.489   6.171  0.6953 -0.4021 -0.5588
   23MOL0     C 2936   4.967   8.575   6.079 -0.0249 -0.6526 -0.0815
   23MOL0     C 2937   4.824   8.571   6.053 -0.2121  0.1731 -0.4124
   23MOL0     C 2938   4.750   8.467   6.125 -0.4612 -0.3291  0.1795
   23MOL0     O 2939   4.613   8.453   6.112 -0.8121 -0.7346 -0.2985
   23MOL0     C 2940   4.538   8.570   6.083  1.0361 -0.4054 -0.8476
   23MOL0     C 2941   4.405   8.531   6.150 -0.1113 -0.1781  0.2903
   23MOL0     C 2942   4.313   8.652   6.163  0.1666  0.1503  0.0566
   23MOL0     C 2943   4.168   8.614   6.192  0.1526  0.1946  0.6174
   23MOL0     C 2944   4.088   8.727   6.244 -0.0308 -0.3385  0.1638
   23MOL0     C 2945   3.944   8.688   6.262  0.6208  0.0520  0.1517
   23MOL0     C 2946   3.859   8.794   6.326 -0.6723  0.2743  0.7394
   23MOL0     C 2947   3.707   8.780   6.290  0.8524 -0.0852 -0.2000
   23MOL0    Cl 2948   3.669   8.859   6.146  0.4119 -0.2141 -0.0927
   23MOL0     C 2949   4.814   8.395   6.228 -0.5921 -0.4198  0.3728
   23MOL0     C 2950   4.953   8.402   6.250  0.4522  1.0151  0.1676
   23MOL0     O 2951   5.155   8.580   6.407 -0.1796  0.0530 -0.7551
   23MOL0     C 2952   5.428   8.608   6.440 -0.8413  0.0260 -0.3484
   23MOL0     C 2953   5.563   8.621   6.447  0.2251 -0.2217  0.3549
   23MOL0     N 2954   6.319   8.409   6.216  0.1574 -0.0490  1.2580
   23MOL0     N 2955   6.421   8.350   6.279  0.4082 -0.8665  0.6048
   23MOL0     C 2956   7.464   8.438   6.578 -0.0898  0.5168  0.3116
   23MOL0     C 2957   7.561   8.428   6.485 -0.0196  0.1165 -0.3817
   23MOL0     C 2958   7.831   8.249   6.137  0.1910 -0.0378 -1.0529
   23MOL0     C 2959   7.866   8.175   6.024  0.1218  0.0380  0.1865
   23MOL0     C 2960   7.998   8.182   5.977 -0.1253  0.2787 -0.2201
   23MOL0     C 2961   8.083   8.282   6.018  0.0285 -0.3170 -0.1253
   23MOL0     O 2962   8.197   8.297   5.946 -0.4295  0.2314 -0.1582
   23MOL0     C 2963   8.274   8.419   5.953 -1.0982 -0.0843  0.4310
   23MOL0     C 2964   8.363   8.435   5.836  0.0827 -0.2385 -0.2173
   23MOL0     C 2965   8.470   8.543   5.846  0.5556 -0.5044  0.0960
   23MOL0     C 2966   8.418   8.686   5.837 -0.7553  0.1706  0.3811
   23MOL0     C 2967   8.533   8.774   5.805 -0.4179  0.0495 -0.7452
   23MOL0     C 2968   8.627   8.854   5.800 -0.0295 -0.4003  0.1633
   23MOL0     C 2969   8.052   8.365   6.126  0.1936 -0.0438  0.8456
   23MOL0     C 2970   7.930   8.348   6.183 -0.0761  0.5938  1.0075
   23MOL0     H 2971   7.466   8.136   6.347  0.3406  1.0230  0.6708
   23MOL0     H 2972   7.257   8.190   6.475 -0.6306 -1.1540 -1.1303
   23MOL0     H 2973   7.328   8.513   6.797 -0.7571 -0.4054 -0.7521
   23MOL0     H 2974   7.167   8.470   6.828  1.6640 -2.0286  0.6966
   23MOL0     H 2975   7.264   8.633   6.596 -1.0353  0.9793 -0.3446
   23MOL0     H 2976   7.169   8.692   6.737 -0.4906  0.4740  0.4367
   23MOL0     H 2977   7.087   8.519   6.493  1.8683 -4.2440  3.1168
   23MOL0     H 2978   7.025   8.674   6.548  0.1437 -1.3538 -5.1373
   23MOL0     H 2979   6.990   8.406   6.684 -0.8150 -0.4719  0.3150
   23MOL0     H 2980   6.957   8.561   6.769  3.3119 -1.6525  0.1130
   23MOL0     H 2981   6.842   8.484   6.495 -2.2873 -2.5027 -0.1179
   23MOL0     H 2982   6.790   8.615   6.591  3.4336  0.8305 -3.1984
   23MOL0     H 2983   6.719   8.418   6.765  0.2590 -0.7796  0.2649
   23MOL0     H 2984   6.759   8.304   6.643  3.4999  1.0083  2.4402
   23MOL0     H 2985   6.531   8.344   6.647  0.1636  0.0144  1.2707
   23MOL0     H 2986   6.562   8.527   6.624  1.9130 -0.5894  1.6180
   23MOL0     H 2987   6.640   8.318   6.420  2.6121 -0.2917  1.4685
   23MOL0     H 2988   6.657   8.488   6.404 -1.2790 -0.5701  0.2424
   23MOL0     H 2989   6.397   8.629   6.448 -2.4499 -0.9760  0.9670
   23MOL0     H 2990   6.156   8.619   6.142 -0.8857 -0.8554  0.7162
   23MOL0     H 2991   6.250   8.727   6.252  0.7953 -0.0708 -0.1027
   23MOL0     H 2992   6.040   8.733   6.360  2.3475  0.5202  2.0429
   23MOL0     H 2993   6.119   8.608   6.454 -0.8206  0.8328 -0.5513
   23MOL0     H 2994   6.053   8.455   6.261 -0.5740  2.6183 -1.2883
   23MOL0     H 2995   5.958   8.468   6.416  1.6718  0.0700  0.5942
   23MOL0     H 2996   5.824   8.483   6.205 -1.2245 -1.6642  3.9540
   23MOL0     H 2997   5.891   8.638   6.177 -0.8231  2.0270  1.0735
   23MOL0     H 2998   5.647   8.592   6.126  0.8800 -1.2776  0.1634
   23MOL0     H 2999   5.402   8.560   6.103 -1.9414 -2.2962  0.7527
   23MOL0     H 3000   5.035   8.644   6.031  1.1552 -1.5166  0.3036
   23MOL0     H 3001   4.779   8.623   5.970  1.3105  2.6463  0.2146
   23MOL0     H 3002   4.505   8.600   5.983  0.4066 -0.7801 -0.7563
   23MOL0     H 3003   4.581   8.654   6.139 -2.2911  0.6509  0.3744
   23MOL0     H 3004   4.424   8.494   6.251  0.6059 -2.8736 -0.7576
   23MOL0     H 3005   4.372   8.443   6.094 -0.2770 -0.1113  0.2818
   23MOL0     H 3006   4.304   8.693   6.062  0.4233 -2.0937 -0.9561
   23MOL0     H 3007   4.362   8.723   6.230  1.9557 -0.1771 -0.8484
   23MOL0     H 3008   4.127   8.588   6.094 -0.9622  1.8051  0.6140
   23MOL0     H 3009   4.169   8.529   6.262  1.0544 -2.0562 -1.9440
   23MOL0     H 3010   4.088   8.801   6.163 -0.1897  0.2111  0.6557
   23MOL0     H 3011   4.125   8.769   6.337  0.5171  2.0641 -1.0615
   23MOL0     H 3012   3.944   8.596   6.321  3.8003  0.8411  1.6265
   23MOL0     H 3013   3.895   8.670   6.166 -1.3583 -0.7849  1.2673
   23MOL0     H 3014   3.874   8.790   6.434  3.3696 -0.2948  0.3029
   23MOL0     H 3015   3.897   8.893   6.299 -2.5662  0.4744 -1.5607
   23MOL0     H 3016   3.643   8.825   6.367 -0.8206 -3.3034  0.4668
   23MOL0     H 3017   3.677   8.675   6.294  0.4547  0.0093 -0.6483
   23MOL0     H 3018   4.753   8.338   6.296 -0.2731 -1.8144 -0.4625
   23MOL0     H 3019   5.003   8.360   6.336  1.0117  0.8697 -0.2188
   23MOL0     H 3020   5.370   8.598   6.532  0.6866 -0.0968  0.6385
   23MOL0     H 3021   5.609   8.647   6.542 -1.7009 -0.6435  1.4550
   23MOL0     H 3022   7.467   8.517   6.652 -1.1608  1.8772 -1.0392
   23MOL0     H 3023   7.644   8.499   6.484  0.3975 -0.3616 -1.9741
   23MOL0     H 3024   7.792   8.110   5.977  1.2351 -1.5245  0.4933
   23MOL0     H 3025   8.037   8.117   5.899  3.2826 -0.1763  1.6560
   23MOL0     H 3026   8.328   8.413   6.048 -1.6093 -0.6531  0.6952
   23MOL0     H 3027   8.210   8.508   5.953  0.9616  1.5306 -1.9569
   23MOL0     H 3028   8.422   8.344   5.819 -0.3285 -0.7031  0.7623
   23MOL0     H 3029   8.297   8.443   5.750 -2.4423 -1.3986  1.5143
   23MOL0     H 3030   8.557   8.507   5.791  1.8907 -0.5336  2.1297
   23MOL0     H 3031   8.514   8.527   5.945  1.6069  1.4120 -0.0240
   23MOL0     H 3032   8.346   8.690   5.754 -1.4404  0.7380  0.9898
   23MOL0     H 3033   8.369   8.719   5.929 -3.1274 -2.0166  0.0129
   23MOL0     H 3034   8.709   8.923   5.809  0.3457 -0.2423 -3.2101
   23MOL0     H 3035   8.120   8.442   6.162  0.9111 -0.0092 -0.5165
   23MOL0     H 3036   7.906   8.401   6.275  0.1105  1.6873  0.4494
   24MOL0     O 3037   3.417  11.179   2.820  0.7676  0.0889 -1.1378
   24MOL0     C 3038   3.460  11.293   2.838  0.2901  0.5097 -0.6007
   24MOL0     O 3039   3.425  11.395   2.755 -0.8122 -0.2754  0.0830
   24MOL0     C 3040   3.329  11.360   2.662  0.8085 -0.3822 -0.0989
   24MOL0     C 3041   3.375  11.339   2.535 -0.3438 -0.0408 -0.3169
   24MOL0     C 3042   3.290  11.310   2.435  0.3134  0.0513 -0.2337
   24MOL0     C 3043   3.152  11.301   2.459 -0.9563  0.2680 -0.6257
   24MOL0     O 3044   3.072  11.252   2.354 -0.0408 -0.1356  0.0321
   24MOL0     C 3045   2.929  11.253   2.380 -0.0804  0.5254 -0.4689
   24MOL0     C 3046   2.851  11.230   2.251 -0.3004  0.3262 -0.9026
   24MOL0     C 3047   2.712  11.181   2.254 -0.6092  0.9799 -0.3990
   24MOL0     C 3048   2.643  11.172   2.109  1.1237  0.1346 -0.0069
   24MOL0     C 3049   2.497  11.126   2.116 -0.6144  0.1298 -0.4509
   24MOL0     C 3050   2.453  11.073   1.978 -0.4290  0.5600  0.2903
   24MOL0     C 3051   2.327  10.987   2.004 -0.0861  0.3737  0.1701
   24MOL0     C 3052   2.267  10.916   1.879  0.0625 -0.0227  0.3842
   24MOL0     N 3053   2.125  10.879   1.900  0.1192 -0.0417  0.0238
   24MOL0     C 3054   2.071  10.760   1.954  0.4707  0.2963 -0.0294
   24MOL0     C 3055   1.937  10.771   1.942  0.7763 -0.4266 -0.3357
   24MOL0     C 3056   1.832  10.692   2.013  0.0335 -0.1580  0.5020
   24MOL0     C 3057   1.707  10.676   1.931  0.0127  0.7136 -0.1807
   24MOL0     C 3058   1.609  10.595   2.023  0.0230 -0.3269 -0.2345
   24MOL0     C 3059   1.484  10.546   1.952 -0.5164  1.1299 -0.2800
   24MOL0     O 3060   1.380  10.477   2.037 -0.3981 -0.6474  0.0786
   24MOL0     C 3061   1.259  10.449   1.973 -0.2628  0.2951  0.1120
   24MOL0     C 3062   1.240  10.454   1.830  0.5146  0.1744 -0.1835
   24MOL0     C 3063   1.112  10.423   1.779 -0.6056  0.1496 -0.2500
   24MOL0     C 3064   1.000  10.397   1.863  0.0121 -0.6284 -0.4345
   24MOL0     C 3065   0.865  10.374   1.810 -0.6897  0.1159  0.4450
   24MOL0     O 3066   0.756  10.388   1.897 -0.1339 -0.1789 -0.4734
   24MOL0     C 3067   0.628  10.380   1.851 -0.3765  0.5091 -1.2155
   24MOL0     C 3068   0.571  10.419   1.735  0.7747  0.5965 -0.0807
   24MOL0     C 3069   0.444  10.395   1.703  0.6030  1.2168 -0.8205
   24MOL0     C 3070   0.354  10.341   1.796 -0.0648 -0.3936  0.0200
   24MOL0     O 3071   0.222  10.329   1.759  0.3574 -0.0262  0.3044
   24MOL0     C 3072   0.148  10.207   1.791  0.0964 -0.3620 -0.1733
   24MOL0     C 3073   0.004  10.243   1.749 -0.6341 -0.1100  0.1740
   24MOL0     C 3074  -0.099  10.133   1.768 -0.6577 -0.5388  0.3363
   24MOL0     C 3075  -0.082  10.060   1.901  0.1169  0.7698  0.2553
   24MOL0     C 3076  -0.220  10.002   1.942 -0.3429  0.0581 -0.5417
   24MOL0     C 3077  -0.199   9.970   2.092 -0.4298 -0.1152 -0.9976
   24MOL0     C 3078  -0.281   9.846   2.128  1.2000 -0.2121  0.2772
   24MOL0     C 3079  -0.246   9.770   2.250  0.1310 -0.2679 -0.2207
   24MOL0    Cl 3080  -0.316   9.621   2.234 -0.0915 -0.1783 -0.0506
   24MOL0     C 3081   0.407  10.302   1.922 -0.0637  0.8311 -0.2701
   24MOL0     C 3082   0.543  10.322   1.950  0.0314  0.5941  0.4524
   24MOL0     O 3083   0.858  10.363   1.690  0.1678  0.0302  0.6101
   24MOL0     C 3084   1.035  10.377   1.996  1.4050  0.6331 -0.6426
   24MOL0     C 3085   1.162  10.396   2.054 -0.0052 -0.9318  0.7693
   24MOL0     N 3086   1.915  10.893   1.875 -0.1626 -0.1137 -0.2834
   24MOL0     N 3087   2.022  10.957   1.848  0.0800  0.5450 -0.1975
   24MOL0     C 3088   3.103  11.325   2.583 -0.5661 -0.0470 -0.3391
   24MOL0     C 3089   3.196  11.348   2.690  0.3762  1.0771 -0.3228
   24MOL0     C 3090   3.542  11.323   2.956  0.9074 -1.0689  1.1459
   24MOL0     C 3091   3.629  11.233   3.007  0.8110 -0.1841  0.4429
   24MOL0     C 3092   3.702  11.249   3.119 -1.0186 -0.2243  0.4749
   24MOL0     C 3093   3.696  11.380   3.185  0.0159  0.0376 -0.3177
   24MOL0     O 3094   3.775  11.396   3.304 -0.4629  0.1608  0.1740
   24MOL0     C 3095   3.743  11.503   3.388  0.0843 -0.7008 -0.2167
   24MOL0     C 3096   3.828  11.505   3.518 -0.0941  0.0929  0.1915
   24MOL0     C 3097   3.974  11.526   3.495 -0.8686  0.3025 -0.6061
   24MOL0     C 3098   4.023  11.667   3.518  0.7473  0.4474 -0.0349
   24MOL0     C 3099   3.961  11.762   3.437  0.2751 -0.3372 -0.5531
   24MOL0     C 3100   3.905  11.844   3.374 -0.0140 -0.2487 -0.2353
   24MOL0     C 3101   3.600  11.474   3.138 -0.1945 -0.0836 -0.9764
   24MOL0     C 3102   3.529  11.448   3.025  0.2314  0.1823  1.2345
   24MOL0     H 3103   3.478  11.358   2.508 -0.9455 -0.1874 -2.9600
   24MOL0     H 3104   3.323  11.289   2.334 -4.1482 -0.4397 -1.8152
   24MOL0     H 3105   2.890  11.342   2.430 -2.8967 -1.1458  0.5591
   24MOL0     H 3106   2.918  11.161   2.438  3.1226 -0.3630 -1.0807
   24MOL0     H 3107   2.906  11.154   2.194  0.7746  1.1111 -0.9514
   24MOL0     H 3108   2.852  11.327   2.202  1.6195  0.3916 -0.8134
   24MOL0     H 3109   2.648  11.236   2.323 -0.8747  0.3555 -0.1374
   24MOL0     H 3110   2.728  11.081   2.295 -0.0645  1.2948  0.1736
   24MOL0     H 3111   2.655  11.268   2.058  1.7674 -0.0630 -0.2368
   24MOL0     H 3112   2.694  11.105   2.039 -0.0260 -1.3170  0.5030
   24MOL0     H 3113   2.433  11.210   2.143 -1.1206 -1.3011  3.3356
   24MOL0     H 3114   2.487  11.039   2.181  0.6214 -0.8053 -1.4327
   24MOL0     H 3115   2.533  11.009   1.939 -1.9801 -1.6259  0.5368
   24MOL0     H 3116   2.441  11.163   1.918 -2.2146  0.9363  1.1383
   24MOL0     H 3117   2.354  10.901   2.067 -0.3013  0.6717  0.6737
   24MOL0     H 3118   2.252  11.043   2.060  1.6531  0.9365  2.0848
   24MOL0     H 3119   2.321  10.824   1.854 -0.3334 -0.0860 -0.2564
   24MOL0     H 3120   2.274  10.976   1.788 -1.8226 -0.8234 -0.3457
   24MOL0     H 3121   2.126  10.676   1.995 -2.2314 -1.1940  0.8208
   24MOL0     H 3122   1.808  10.744   2.106 -0.2611  0.3476  0.1504
   24MOL0     H 3123   1.881  10.600   2.045 -1.3202 -1.1515 -0.1988
   24MOL0     H 3124   1.731  10.609   1.848  1.8085 -0.6092  1.2973
   24MOL0     H 3125   1.671  10.771   1.893 -0.3191  0.6779  0.0405
   24MOL0     H 3126   1.671  10.513   2.060 -0.9036 -0.4745  1.0625
   24MOL0     H 3127   1.583  10.663   2.105 -1.0453 -2.1437  0.9962
   24MOL0     H 3128   1.520  10.470   1.882  1.6672  1.3080  0.5924
   24MOL0     H 3129   1.439  10.631   1.898 -1.5677  0.0661 -1.1388
   24MOL0     H 3130   1.321  10.484   1.765 -0.4216  2.5637 -0.3344
   24MOL0     H 3131   1.096  10.406   1.674  0.9649 -5.5564  0.0768
   24MOL0     H 3132   0.630  10.481   1.668  1.9171  0.7311  0.9994
   24MOL0     H 3133   0.390  10.440   1.620 -1.5753  1.4708  0.6489
   24MOL0     H 3134   0.154  10.190   1.899 -1.7301  0.4603  0.0923
   24MOL0     H 3135   0.182  10.117   1.740  2.2164 -0.9489  2.0773
   24MOL0     H 3136   0.014  10.280   1.647  0.5890  2.3605  1.0999
   24MOL0     H 3137  -0.013  10.333   1.809  1.1692  0.0117  0.5647
   24MOL0     H 3138  -0.095  10.061   1.686 -3.5659 -1.6655  1.0877
   24MOL0     H 3139  -0.192  10.190   1.768  0.6114  1.6956 -0.1049
   24MOL0     H 3140  -0.003   9.987   1.881  0.6893  1.6931 -1.0114
   24MOL0     H 3141  -0.050  10.130   1.978  0.5023  0.0611  0.7454
   24MOL0     H 3142  -0.255   9.914   1.887 -1.2276  1.7788 -2.8670
   24MOL0     H 3143  -0.300  10.076   1.938  0.6322  1.4210  2.2729
   24MOL0     H 3144  -0.227  10.051   2.160  0.5833  0.0203 -0.7237
   24MOL0     H 3145  -0.096   9.939   2.110  0.4322  1.4137 -2.8533
   24MOL0     H 3146  -0.388   9.868   2.137  0.9378 -1.7633  1.5345
   24MOL0     H 3147  -0.252   9.778   2.047  1.6667  2.7166 -2.1906
   24MOL0     H 3148  -0.283   9.809   2.345 -1.1557 -1.6447 -0.1312
   24MOL0     H 3149  -0.137   9.761   2.251 -0.0050 -2.5907  1.4744
   24MOL0     H 3150   0.342  10.273   2.003  1.4029 -0.2588  0.5565
   24MOL0     H 3151   0.584  10.285   2.044 -0.0688 -2.4740 -0.5912
   24MOL0     H 3152   0.956  10.348   2.064 -0.4069  4.1323 -1.0046
   24MOL0     H 3153   1.190  10.368   2.155  2.3316 -1.2817  0.0906
   24MOL0     H 3154   2.997  11.325   2.605 -0.7911 -5.7455  0.2947
   24MOL0     H 3155   3.164  11.368   2.792 -0.6235  0.7571 -0.5613
   24MOL0     H 3156   3.632  11.146   2.943 -0.1769 -0.8327  1.2432
   24MOL0     H 3157   3.773  11.170   3.142 -0.3304 -0.3502 -1.8210
   24MOL0     H 3158   3.636  11.508   3.410  0.1325  0.9145 -0.2184
   24MOL0     H 3159   3.761  11.599   3.339 -1.0194  0.4509  1.5051
   24MOL0     H 3160   3.794  11.582   3.588  1.5649  1.8664 -0.8430
   24MOL0     H 3161   3.821  11.412   3.574  1.8295 -0.8288 -1.0132
   24MOL0     H 3162   4.007  11.510   3.392 -0.7112  4.0885 -1.2927
   24MOL0     H 3163   4.018  11.453   3.563 -4.1040  0.3666  1.8203
   24MOL0     H 3164   4.006  11.697   3.621 -2.4700 -2.3240  0.4226
   24MOL0     H 3165   4.131  11.673   3.498  1.6728 -3.4563  2.6540
   24MOL0     H 3166   3.860  11.916   3.310  1.7045 -0.7948 -2.1728
   24MOL0     H 3167   3.582  11.575   3.174 -1.3426 -1.4267  2.6702
   24MOL0     H 3168   3.459  11.526   2.995 -1.3234 -0.7786  2.2300
   25MOL0     O 3169   7.259  10.613   9.685 -0.0968  0.6788 -0.6165
   25MOL0     C 3170   7.314  10.511   9.672  0.4740  0.8783  1.1361
   25MOL0     O 3171   7.255  10.389   9.663  0.2062  1.3911  0.9736
   25MOL0     C 3172   7.122  10.376   9.672  0.2174  0.2252  0.5812
   25MOL0     C 3173   7.050  10.326   9.786 -0.9342 -0.2617  0.1119
   25MOL0     C 3174   6.909  10.319   9.776  0.1676 -0.3196 -0.2473
   25MOL0     C 3175   6.839  10.353   9.663 -0.8488  0.0247  0.0715
   25MOL0     O 3176   6.701  10.332   9.662  0.2269 -0.0577 -0.3393
   25MOL0     C 3177   6.624  10.388   9.564 -0.3643 -1.2611  0.0786
   25MOL0     C 3178   6.593  10.287   9.453  0.6865 -0.4754  0.7547
   25MOL0     C 3179   6.555  10.353   9.321 -0.3449 -0.1875  0.4463
   25MOL0     C 3180   6.444  10.452   9.314 -0.0788  0.2539 -0.1161
   25MOL0     C 3181   6.315  10.396   9.375  0.2912  0.1816 -0.2655
   25MOL0     C 3182   6.240  10.278   9.306 -0.7942  0.1392 -0.0003
   25MOL0     C 3183   6.118  10.231   9.391 -0.2764 -0.1569 -0.5675
   25MOL0     C 3184   5.992  10.299   9.351 -0.5914 -0.2697 -0.1380
   25MOL0     N 3185   5.881  10.230   9.403  0.1694  0.2103  0.1610
   25MOL0     C 3186   5.804  10.143   9.330  0.1395 -0.7551  0.3504
   25MOL0     C 3187   5.705  10.096   9.415 -0.2281 -0.1955 -1.0044
   25MOL0     C 3188   5.593  10.003   9.380 -0.5860 -0.6661 -0.1696
   25MOL0     C 3189   5.503  10.067   9.272 -0.7491  0.3626  0.1632
   25MOL0     C 3190   5.424  10.192   9.305 -0.5258  0.3533  0.6987
   25MOL0     C 3191   5.347  10.181   9.433  0.4067 -0.3728 -0.7789
   25MOL0     O 3192   5.274  10.062   9.458  0.1847 -0.7043 -0.1887
   25MOL0     C 3193   5.141  10.074   9.431 -0.5763  0.0392  0.0241
   25MOL0     C 3194   5.049  10.022   9.519 -0.1781  0.2931  0.4679
   25MOL0     C 3195   4.907  10.034   9.502  0.0784  0.4028 -0.3050
   25MOL0     C 3196   4.857  10.102   9.391  0.2137  0.2437  0.2062
   25MOL0     C 3197   4.710  10.110   9.363  0.2664  0.3404  0.2078
   25MOL0     O 3198   4.640  10.036   9.446 -0.4665  0.3711 -0.5755
   25MOL0     C 3199   4.518   9.999   9.400  0.2683  0.3409  0.4538
   25MOL0     C 3200   4.496   9.875   9.334  0.0113 -0.4723  0.3933
   25MOL0     C 3201   4.365   9.844   9.300 -0.3861  0.5264  0.6300
   25MOL0     C 3202   4.253   9.909   9.351  0.2967  0.3929 -0.4692
   25MOL0     O 3203   4.122   9.869   9.347 -0.1303  0.5451 -0.4838
   25MOL0     C 3204   4.096   9.749   9.277 -0.0538 -0.1895 -0.0171
   25MOL0     C 3205   3.944   9.750   9.270 -0.2240  0.3143  0.3837
   25MOL0     C 3206   3.876   9.664   9.170  1.4032  0.2430  0.3453
   25MOL0     C 3207   3.928   9.679   9.028 -0.0505 -0.3706  0.4258
   25MOL0     C 3208   3.843   9.594   8.940  0.6066 -0.6499 -0.2063
   25MOL0     C 3209   3.883   9.615   8.792  0.7402  0.0879  0.2316
   25MOL0     C 3210   3.819   9.501   8.702  0.3323 -0.3313 -0.0605
   25MOL0     C 3211   3.857   9.522   8.561  0.6242 -0.1247  0.4534
   25MOL0    Cl 3212   4.033   9.530   8.527  0.2411 -0.5348  0.0692
   25MOL0     C 3213   4.271  10.034   9.406  0.0269 -0.3845  0.2284
   25MOL0     C 3214   4.404  10.079   9.430  1.1780  0.4548 -0.1568
   25MOL0     O 3215   4.673  10.158   9.259  0.7396  0.2387 -0.7463
   25MOL0     C 3216   4.950  10.152   9.295  0.4712 -0.9945 -0.1711
   25MOL0     C 3217   5.083  10.125   9.311 -0.8728  0.5400  0.3953
   25MOL0     N 3218   5.725  10.162   9.541  0.0580 -0.5082  0.2278
   25MOL0     N 3219   5.824  10.246   9.525 -0.1701 -0.6107 -0.6821
   25MOL0     C 3220   6.909  10.404   9.554 -0.2018  0.6484  0.6170
   25MOL0     C 3221   7.048  10.417   9.559  0.2218 -0.8864 -0.1534
   25MOL0     C 3222   7.463  10.508   9.655  0.6126  0.4821 -0.6248
   25MOL0     C 3223   7.535  10.386   9.619  0.7680  0.0933 -0.2657
   25MOL0     C 3224   7.669  10.380   9.620 -0.3073  0.5833 -0.1279
   25MOL0     C 3225   7.748  10.486   9.658 -0.3817  0.7530  0.6735
   25MOL0     O 3226   7.883  10.491   9.649 -0.4805  0.0439  0.3008
   25MOL0     C 3227   7.967  10.378   9.637 -0.5422 -0.0652  0.3413
   25MOL0     C 3228   8.106  10.438   9.663 -0.8053  0.4410 -0.6699
   25MOL0     C 3229   8.219  10.332   9.660  0.2664  1.1987  0.0508
   25MOL0     C 3230   8.199  10.209   9.762  0.0260 -1.1888  0.2054
   25MOL0     C 3231   8.311  10.121   9.765  0.1434 -0.0193 -0.0322
   25MOL0     C 3232   8.409  10.045   9.757 -0.5438 -0.2637 -0.9488
   25MOL0     C 3233   7.685  10.607   9.681  0.1565 -0.4081  0.1500
   25MOL0     C 3234   7.547  10.615   9.679  0.2920 -0.7726 -0.1017
   25MOL0     H 3235   7.108  10.298   9.873  1.5050  2.2307 -0.5459
   25MOL0     H 3236   6.861  10.264   9.856 -1.2236 -0.9381 -1.4598
   25MOL0     H 3237   6.662  10.480   9.520 -1.4918 -0.7404  0.1445
   25MOL0     H 3238   6.531  10.427   9.608 -0.9514 -0.9856 -1.3340
   25MOL0     H 3239   6.511  10.221   9.484 -0.0967  0.2080  0.1611
   25MOL0     H 3240   6.687  10.231   9.446  0.7406 -0.4175  1.0360
   25MOL0     H 3241   6.527  10.274   9.251 -0.1932  0.7555 -0.7182
   25MOL0     H 3242   6.649  10.392   9.281 -0.6493 -0.5996 -0.7117
   25MOL0     H 3243   6.471  10.551   9.352 -1.6570  0.4084  0.7236
   25MOL0     H 3244   6.425  10.478   9.210  2.5128  3.0969  0.0081
   25MOL0     H 3245   6.252  10.485   9.384  2.6931  1.9068  0.5864
   25MOL0     H 3246   6.338  10.361   9.476 -0.6404  0.7393  0.1581
   25MOL0     H 3247   6.302  10.190   9.284 -0.3628  0.6314 -0.7922
   25MOL0     H 3248   6.211  10.305   9.204  1.8118  0.6099 -0.6888
   25MOL0     H 3249   6.115  10.124   9.372 -1.7694 -0.9658  3.2687
   25MOL0     H 3250   6.129  10.241   9.500 -2.7592  4.5185 -0.4874
   25MOL0     H 3251   5.982  10.301   9.242  4.2389 -0.7210 -0.8066
   25MOL0     H 3252   6.004  10.398   9.394  2.3063 -1.1450  1.3555
   25MOL0     H 3253   5.827  10.109   9.229 -1.2132  2.0405 -1.0141
   25MOL0     H 3254   5.542   9.974   9.472 -1.3831  2.7560  0.5841
   25MOL0     H 3255   5.639   9.908   9.349 -2.5196 -1.7225 -0.0178
   25MOL0     H 3256   5.435   9.990   9.233  0.1419  0.5256 -1.8589
   25MOL0     H 3257   5.574  10.089   9.192 -2.8418 -0.1895 -1.9475
   25MOL0     H 3258   5.495  10.273   9.328  2.8557 -2.3075  0.3646
   25MOL0     H 3259   5.362  10.222   9.220  0.1344 -3.2628 -1.2267
   25MOL0     H 3260   5.280  10.266   9.452 -1.0813 -1.5705 -0.4050
   25MOL0     H 3261   5.426  10.177   9.509  2.4992 -1.2527 -2.8926
   25MOL0     H 3262   5.089   9.972   9.607 -0.9382 -1.1954 -0.0120
   25MOL0     H 3263   4.841   9.979   9.568 -2.8442 -0.7129 -3.8302
   25MOL0     H 3264   4.570   9.799   9.312  0.0806 -0.5684  0.9563
   25MOL0     H 3265   4.355   9.752   9.243 -3.4951  0.7471  0.6538
   25MOL0     H 3266   4.141   9.666   9.332  1.8723  0.5565 -0.4018
   25MOL0     H 3267   4.148   9.752   9.181  0.5794 -0.3516  0.3150
   25MOL0     H 3268   3.921   9.852   9.236 -2.4538 -1.5176 -4.5736
   25MOL0     H 3269   3.898   9.738   9.369 -1.0394 -1.4497 -0.1706
   25MOL0     H 3270   3.770   9.692   9.169  0.5585 -2.5156 -2.4184
   25MOL0     H 3271   3.880   9.559   9.200 -0.0461  0.0003 -0.2200
   25MOL0     H 3272   3.913   9.782   8.996 -2.7070 -1.1771 -1.2297
   25MOL0     H 3273   4.035   9.657   9.017 -0.1532 -0.6742 -0.0345
   25MOL0     H 3274   3.736   9.611   8.953 -0.2192 -3.7570 -2.1165
   25MOL0     H 3275   3.861   9.492   8.975  0.2583 -0.5072  0.4123
   25MOL0     H 3276   3.992   9.615   8.791  0.8732 -3.7175 -0.8929
   25MOL0     H 3277   3.832   9.703   8.752  1.3549  0.9026  1.1908
   25MOL0     H 3278   3.846   9.398   8.725 -4.3126 -2.3884 -2.5666
   25MOL0     H 3279   3.711   9.517   8.709  0.4360  0.9487 -1.0640
   25MOL0     H 3280   3.811   9.609   8.514 -0.9119 -0.3610  1.4783
   25MOL0     H 3281   3.820   9.430   8.515 -0.1509 -0.9793  2.6883
   25MOL0     H 3282   4.188  10.101   9.429  0.9289  0.6842  0.4464
   25MOL0     H 3283   4.416  10.175   9.480 -0.8672  0.2342  0.8442
   25MOL0     H 3284   4.914  10.206   9.208  2.3675  0.5129 -0.0624
   25MOL0     H 3285   5.155  10.153   9.234 -0.5893 -0.1900  0.3859
   25MOL0     H 3286   6.862  10.439   9.463  0.5117  0.6966  0.2624
   25MOL0     H 3287   7.111  10.453   9.478 -0.0593  0.8708  0.3708
   25MOL0     H 3288   7.481  10.294   9.596  1.3611  0.3289 -2.8747
   25MOL0     H 3289   7.725  10.292   9.590  0.3222  1.3317 -1.2133
   25MOL0     H 3290   7.956  10.331   9.540 -1.9171 -1.1661  0.9876
   25MOL0     H 3291   7.932  10.297   9.702  0.0911 -0.0431  0.7176
   25MOL0     H 3292   8.121  10.522   9.594 -1.0021  0.2532 -0.9425
   25MOL0     H 3293   8.117  10.477   9.765  2.8040 -1.4024 -0.2056
   25MOL0     H 3294   8.322  10.369   9.672  0.8060 -0.7582  2.2679
   25MOL0     H 3295   8.210  10.304   9.554  1.0472  0.5024  0.1529
   25MOL0     H 3296   8.190  10.255   9.861 -0.3262  0.3668 -0.5041
   25MOL0     H 3297   8.113  10.145   9.741 -0.3569 -0.0938 -1.8042
   25MOL0     H 3298   8.505   9.999   9.767  0.7569  2.1665 -1.4397
   25MOL0     H 3299   7.744  10.695   9.702 -1.7654  0.4385  2.3765
   25MOL0     H 3300   7.504  10.712   9.699  2.3468  0.1179  0.2056
   26MOL0     O 3301   3.137   8.556  11.108 -0.3170  0.1051 -0.0958
   26MOL0     C 3302   3.198   8.622  11.025 -1.0967 -0.4384  0.4228
   26MOL0     O 3303   3.164   8.635  10.894 -0.2607  0.5081  0.3007
   26MOL0     C 3304   3.045   8.576  10.866  0.4925 -0.1915  0.7318
   26MOL0     C 3305   2.928   8.636  10.899 -0.1960  0.1323  0.0190
   26MOL0     C 3306   2.809   8.574  10.881  0.3969  0.1277 -0.2744
   26MOL0     C 3307   2.789   8.467  10.784  0.3506 -0.4978 -0.4811
   26MOL0     O 3308   2.670   8.399  10.747 -0.4510  0.2587  0.0471
   26MOL0     C 3309   2.552   8.480  10.741 -0.7500  0.5274 -0.5312
   26MOL0     C 3310   2.435   8.404  10.681  0.3295 -1.1134  0.5897
   26MOL0     C 3311   2.330   8.500  10.644  0.3978  0.0445 -0.6131
   26MOL0     C 3312   2.210   8.429  10.583  0.0671  0.1783  0.0243
   26MOL0     C 3313   2.079   8.514  10.563 -0.6380  0.0388 -0.0024
   26MOL0     C 3314   1.963   8.427  10.537  0.6879  0.2466 -0.1349
   26MOL0     C 3315   1.830   8.500  10.555  0.4552  0.6526  0.1789
   26MOL0     C 3316   1.724   8.393  10.562  0.2840  0.3114 -0.6885
   26MOL0     N 3317   1.611   8.429  10.650  0.3967 -0.8298 -0.8239
   26MOL0     C 3318   1.548   8.353  10.747 -0.1620  0.9061  0.3565
   26MOL0     C 3319   1.430   8.412  10.769  0.2979  0.0831 -0.7824
   26MOL0     C 3320   1.343   8.359  10.879  0.2116  0.1599  0.0855
   26MOL0     C 3321   1.295   8.212  10.857  0.0725  0.8090  0.6275
   26MOL0     C 3322   1.158   8.198  10.917 -0.2668 -0.3090  0.8305
   26MOL0     C 3323   1.096   8.058  10.888 -0.4068  0.4798  1.1821
   26MOL0     O 3324   1.070   8.056  10.746 -0.1608  0.3882 -0.5896
   26MOL0     C 3325   1.029   7.939  10.692 -0.3229  0.5731  0.1558
   26MOL0     C 3326   0.974   7.831  10.761  0.2367  0.1123 -0.2231
   26MOL0     C 3327   0.939   7.715  10.695 -0.6682  0.5237 -0.2693
   26MOL0     C 3328   0.969   7.704  10.555  0.4486 -1.6030  0.2912
   26MOL0     C 3329   0.939   7.575  10.495 -0.1860 -0.5246  0.8197
   26MOL0     O 3330   0.888   7.472  10.579 -0.2625 -0.0480  0.0256
   26MOL0     C 3331   0.866   7.346  10.515 -0.6989 -0.4590  0.4166
   26MOL0     C 3332   0.737   7.312  10.474  0.6610  0.3744 -0.6531
   26MOL0     C 3333   0.706   7.179  10.443 -0.1220 -0.0035  0.4474
   26MOL0     C 3334   0.806   7.075  10.453  0.1160 -0.7275  0.3935
   26MOL0     O 3335   0.771   6.948  10.421 -0.2838 -0.2660  0.0434
   26MOL0     C 3336   0.804   6.842  10.516  0.3730 -0.1484  0.0894
   26MOL0     C 3337   0.679   6.807  10.589 -0.0095  0.7063  0.4603
   26MOL0     C 3338   0.681   6.693  10.689  0.1864 -0.5406 -0.6936
   26MOL0     C 3339   0.553   6.666  10.756 -0.0209  0.0077  0.7023
   26MOL0     C 3340   0.548   6.527  10.808 -0.3715 -0.4303 -0.2860
   26MOL0     C 3341   0.436   6.508  10.907  0.5518  0.1591  0.4697
   26MOL0     C 3342   0.435   6.354  10.936  0.4650  0.8318 -0.5388
   26MOL0     C 3343   0.385   6.317  11.071  0.1660  0.8526 -0.4974
   26MOL0    Cl 3344   0.206   6.324  11.080 -0.4131  0.0153  0.3403
   26MOL0     C 3345   0.941   7.109  10.488  0.2870 -0.3454  0.1034
   26MOL0     C 3346   0.968   7.248  10.522 -0.5784  0.6139 -0.7811
   26MOL0     O 3347   0.962   7.561  10.373  0.0386  0.6718 -0.3971
   26MOL0     C 3348   1.016   7.816  10.479 -0.1496  0.3799 -0.6862
   26MOL0     C 3349   1.039   7.927  10.555 -1.3205 -0.0386  0.0288
   26MOL0     N 3350   1.419   8.523  10.685 -0.4340  0.9205 -0.1980
   26MOL0     N 3351   1.529   8.532  10.615 -0.0975 -0.2432 -0.3711
   26MOL0     C 3352   2.910   8.409  10.755 -0.2930 -0.5519  0.7471
   26MOL0     C 3353   3.039   8.452  10.798  0.1029 -0.8164  0.2636
   26MOL0     C 3354   3.324   8.693  11.067 -0.4651  1.3189  0.0129
   26MOL0     C 3355   3.381   8.799  10.996  0.8305 -0.3138 -0.1290
   26MOL0     C 3356   3.487   8.874  11.036 -0.0042 -0.3254 -0.4702
   26MOL0     C 3357   3.542   8.848  11.160  0.1176 -0.0609 -1.2604
   26MOL0     O 3358   3.652   8.908  11.222 -0.3006 -0.2172  0.8262
   26MOL0     C 3359   3.700   9.034  11.166 -0.1513 -0.0648  0.4815
   26MOL0     C 3360   3.833   9.006  11.089  0.4203  0.2048  0.1005
   26MOL0     C 3361   3.907   9.134  11.061 -0.2238  0.0136  0.5068
   26MOL0     C 3362   4.060   9.129  11.089 -0.3224  0.7287  0.9255
   26MOL0     C 3363   4.120   9.260  11.101  0.0071 -0.0940  0.2645
   26MOL0     C 3364   4.173   9.364  11.108 -0.9373  0.2150  1.0178
   26MOL0     C 3365   3.494   8.733  11.225  0.8214  0.1638  0.5705
   26MOL0     C 3366   3.377   8.667  11.189 -0.4531  0.2212  0.1824
   26MOL0     H 3367   2.925   8.716  10.973 -0.1150 -0.7299  0.9844
   26MOL0     H 3368   2.722   8.615  10.931  0.3479  0.5076 -0.6670
   26MOL0     H 3369   2.575   8.564  10.674  0.3546  0.6180 -0.0707
   26MOL0     H 3370   2.523   8.518  10.839  0.6014  1.8950 -0.6115
   26MOL0     H 3371   2.399   8.327  10.750 -0.3279 -2.3994 -1.1165
   26MOL0     H 3372   2.464   8.355  10.588 -2.2487  1.1210 -1.5628
   26MOL0     H 3373   2.376   8.565  10.569  2.7942 -3.2765 -2.2632
   26MOL0     H 3374   2.296   8.567  10.724  0.6636  0.1722 -0.6048
   26MOL0     H 3375   2.231   8.372  10.491  1.4503  0.4350  0.1566
   26MOL0     H 3376   2.185   8.350  10.654  1.4835  1.1942  1.7343
   26MOL0     H 3377   2.099   8.587  10.483  1.1510 -1.1335 -0.6903
   26MOL0     H 3378   2.062   8.570  10.655  0.2512  1.2363 -0.5298
   26MOL0     H 3379   1.967   8.339  10.602 -3.2969  0.0950  0.1739
   26MOL0     H 3380   1.973   8.386  10.436 -2.0147 -0.0144 -0.3767
   26MOL0     H 3381   1.836   8.565  10.642 -1.7416  2.0453 -0.6282
   26MOL0     H 3382   1.831   8.556  10.461  0.5191 -0.9650 -0.8400
   26MOL0     H 3383   1.770   8.301  10.600  1.4781  1.4460  0.7578
   26MOL0     H 3384   1.680   8.369  10.465 -0.5249  5.5885 -1.9839
   26MOL0     H 3385   1.588   8.261  10.787 -2.7104 -0.7280 -0.6278
   26MOL0     H 3386   1.258   8.427  10.870  0.9368  1.1369  0.4437
   26MOL0     H 3387   1.388   8.380  10.976  0.8860  1.0105 -0.3957
   26MOL0     H 3388   1.359   8.135  10.900 -1.0740 -1.5565 -1.6148
   26MOL0     H 3389   1.284   8.209  10.748 -0.1448  2.7728  0.5545
   26MOL0     H 3390   1.164   8.218  11.024  0.8082 -0.0175  0.7298
   26MOL0     H 3391   1.087   8.271  10.877  0.6295  0.5311  0.7483
   26MOL0     H 3392   1.000   8.053  10.939 -0.4177  4.8761  2.0252
   26MOL0     H 3393   1.167   7.983  10.922 -1.5556 -0.2685  2.0020
   26MOL0     H 3394   0.937   7.837  10.863 -1.4484 -2.7619 -0.5577
   26MOL0     H 3395   0.887   7.634  10.745  2.7387 -1.1675  0.8629
   26MOL0     H 3396   0.653   7.381  10.467  0.4988  0.1094 -1.4022
   26MOL0     H 3397   0.606   7.159  10.406 -0.4019  1.3182  0.4350
   26MOL0     H 3398   0.889   6.864  10.582  1.0087 -1.8357 -0.1117
   26MOL0     H 3399   0.833   6.754  10.457  1.9474 -0.3756  1.1520
   26MOL0     H 3400   0.598   6.788  10.518 -1.2056 -1.2077  2.2254
   26MOL0     H 3401   0.661   6.904  10.638  0.3710  1.3964 -0.7373
   26MOL0     H 3402   0.741   6.713  10.778 -3.4073 -0.5108  1.9568
   26MOL0     H 3403   0.712   6.595  10.651 -3.6321 -2.6374  1.0522
   26MOL0     H 3404   0.538   6.739  10.836 -2.3388  0.6815 -0.2568
   26MOL0     H 3405   0.469   6.687  10.689  0.9088  1.8621  0.0413
   26MOL0     H 3406   0.640   6.499  10.860 -1.1288  0.2586  1.4949
   26MOL0     H 3407   0.541   6.465  10.718 -0.4969 -2.2250  0.9100
   26MOL0     H 3408   0.340   6.531  10.860  0.4224 -1.9235 -0.4150
   26MOL0     H 3409   0.448   6.574  10.993  0.9208  2.9102 -1.5491
   26MOL0     H 3410   0.371   6.307  10.861 -0.1468 -1.3898  1.2768
   26MOL0     H 3411   0.537   6.315  10.929 -0.7789 -2.5150 -2.0562
   26MOL0     H 3412   0.416   6.388  11.147 -2.8481  1.8886 -0.0826
   26MOL0     H 3413   0.425   6.219  11.097  1.0743  1.3074 -0.1522
   26MOL0     H 3414   1.024   7.042  10.469  1.2518  0.8295  0.0247
   26MOL0     H 3415   1.073   7.268  10.541 -0.3496 -1.1706  0.0376
   26MOL0     H 3416   1.033   7.820  10.372  2.2321 -0.9685 -0.4439
   26MOL0     H 3417   1.080   8.011  10.499 -0.2384 -1.8890 -2.1357
   26MOL0     H 3418   2.891   8.312  10.708  2.1715 -0.3054 -0.8929
   26MOL0     H 3419   3.134   8.417  10.760  0.6721  0.9740 -0.0862
   26MOL0     H 3420   3.336   8.831  10.902 -2.1422 -1.0047  0.9458
   26MOL0     H 3421   3.530   8.953  10.975  2.7304 -2.0843 -1.0442
   26MOL0     H 3422   3.721   9.101  11.250  2.8019  0.6891 -0.7030
   26MOL0     H 3423   3.626   9.089  11.108  1.9404  1.0188 -1.3240
   26MOL0     H 3424   3.903   8.943  11.145 -1.0183 -0.6465  0.9912
   26MOL0     H 3425   3.803   8.952  10.998 -1.2616  0.9928  0.1612
   26MOL0     H 3426   3.863   9.201  11.135 -1.4864 -2.0768  1.7441
   26MOL0     H 3427   3.892   9.175  10.961 -0.4725  0.6155  0.7903
   26MOL0     H 3428   4.091   9.069  11.174 -1.0219  1.0447  1.4204
   26MOL0     H 3429   4.095   9.082  10.997  0.4026  1.4815  0.7985
   26MOL0     H 3430   4.217   9.460  11.125  2.6168 -1.1715  0.5388
   26MOL0     H 3431   3.540   8.705  11.320 -2.8675 -0.1289  2.4569
   26MOL0     H 3432   3.333   8.593  11.255  0.2434  0.0583  0.4727
   27MOL0     O 3433   3.123   0.836   4.924  0.2653 -0.6245  0.1213
   27MOL0     C 3434   3.223   0.793   4.983 -0.0174 -0.4824 -0.3577
   27MOL0     O 3435   3.227   0.675   5.037  0.0096  0.3091  0.0186
   27MOL0     C 3436   3.133   0.586   4.992  0.4353 -0.2455  0.3036
   27MOL0     C 3437   3.164   0.512   4.874  1.0680 -0.0246  0.2383
   27MOL0     C 3438   3.069   0.418   4.822  0.0327 -0.5581  0.7002
   27MOL0     C 3439   2.941   0.412   4.874 -0.0169  0.3650 -0.6318
   27MOL0     O 3440   2.836   0.353   4.808 -0.3048 -0.5885 -0.5109
   27MOL0     C 3441   2.849   0.206   4.795 -0.3770  0.8863  0.6393
   27MOL0     C 3442   2.768   0.142   4.905  0.1300 -0.5548  0.2258
   27MOL0     C 3443   2.615   0.162   4.891  0.2731 -0.4891  0.5293
   27MOL0     C 3444   2.542   0.065   4.980  0.9624 -0.2676  0.2300
   27MOL0     C 3445   2.386   0.093   5.005 -0.5384  0.8292  0.3759
   27MOL0     C 3446   2.302   0.063   4.875 -0.2897  0.5093 -0.2885
   27MOL0     C 3447   2.162   0.056   4.912 -0.0744 -0.6195 -0.4321
   27MOL0     C 3448   2.063   0.066   4.791 -0.4291  0.0016 -0.0591
   27MOL0     N 3449   1.925   0.035   4.830 -0.2272 -0.1064 -0.0745
   27MOL0     C 3450   1.829   0.126   4.832  0.0160  0.4713  0.0032
   27MOL0     C 3451   1.715   0.059   4.873 -0.0036  0.8377  0.1795
   27MOL0     C 3452   1.569   0.104   4.885  0.4609 -0.3392  0.0969
   27MOL0     C 3453   1.482   0.034   4.987  0.9750 -0.6589  0.2062
   27MOL0     C 3454   1.342   0.110   4.995 -0.1307 -0.4985 -0.4865
   27MOL0     C 3455   1.218   0.018   4.988  0.1201  0.8991 -0.5645
   27MOL0     O 3456   1.099   0.090   5.030 -0.5005  0.1230  0.5626
   27MOL0     C 3457   0.976   0.022   5.050  0.2862 -0.6795 -0.3309
   27MOL0     C 3458   0.862   0.097   5.088  0.2575 -0.1276 -0.5553
   27MOL0     C 3459   0.737   0.043   5.119  0.0767  0.1818  1.4098
   27MOL0     C 3460   0.722  -0.092   5.104  1.0829 -0.1259  0.9126
   27MOL0     C 3461   0.584  -0.151   5.130  0.8951  0.1734 -0.3909
   27MOL0     O 3462   0.476  -0.064   5.165 -0.1439  0.5092 -0.4859
   27MOL0     C 3463   0.358  -0.108   5.218 -0.5371 -0.1855 -0.4379
   27MOL0     C 3464   0.236  -0.051   5.174 -0.4380  0.2009  0.3312
   27MOL0     C 3465   0.114  -0.085   5.234 -0.0634 -0.2576  0.0099
   27MOL0     C 3466   0.105  -0.182   5.336 -0.5511 -0.3028 -0.2237
   27MOL0     O 3467  -0.003  -0.232   5.400 -0.7883  0.6373  0.6633
   27MOL0     C 3468  -0.113  -0.139   5.422  0.2095  0.3335  0.3534
   27MOL0     C 3469  -0.201  -0.180   5.536  0.0998 -0.1548 -0.3438
   27MOL0     C 3470  -0.256  -0.322   5.504  0.1419  0.6251 -0.3452
   27MOL0     C 3471  -0.371  -0.365   5.596  0.7129 -0.4353 -0.8413
   27MOL0     C 3472  -0.458  -0.484   5.552  0.6246  0.5759 -0.1038
   27MOL0     C 3473  -0.483  -0.578   5.665 -0.3903 -0.4122  0.1127
   27MOL0     C 3474  -0.572  -0.693   5.618 -0.0832  0.4979  1.0127
   27MOL0     C 3475  -0.552  -0.802   5.725 -1.0962 -0.6015 -0.5213
   27MOL0    Cl 3476  -0.626  -0.754   5.871  0.1667  0.1592 -0.1653
   27MOL0     C 3477   0.223  -0.249   5.365  0.4858 -0.2177 -0.1969
   27MOL0     C 3478   0.348  -0.217   5.309  0.3543  0.6486 -0.3601
   27MOL0     O 3479   0.578  -0.273   5.136 -0.6593 -0.4823 -0.0046
   27MOL0     C 3480   0.831  -0.172   5.057 -0.2759  0.5498  0.1359
   27MOL0     C 3481   0.959  -0.119   5.036  0.3006  1.1700  0.0512
   27MOL0     N 3482   1.752  -0.072   4.900 -0.0618  0.1343  0.5726
   27MOL0     N 3483   1.876  -0.082   4.872  0.7422 -0.0198  0.0121
   27MOL0     C 3484   2.906   0.492   4.984  0.2762 -0.3843  0.2885
   27MOL0     C 3485   3.002   0.575   5.048 -0.7000  0.2835 -0.4922
   27MOL0     C 3486   3.347   0.880   4.989 -0.3744  0.1346  0.5885
   27MOL0     C 3487   3.350   1.015   4.992 -0.7973 -1.5151 -0.1894
   27MOL0     C 3488   3.475   1.089   5.003  0.1341  0.2597  0.0260
   27MOL0     C 3489   3.592   1.016   5.017 -0.2738 -0.9297  0.0953
   27MOL0     O 3490   3.706   1.091   5.029 -0.0407  0.4130  0.2666
   27MOL0     C 3491   3.835   1.032   4.998 -0.4489 -0.0497  0.3709
   27MOL0     C 3492   3.939   1.146   5.008  0.2636  0.7198  0.8685
   27MOL0     C 3493   4.075   1.080   5.032 -0.2950 -0.2935  0.4231
   27MOL0     C 3494   4.118   0.977   4.929  0.3941 -0.0747  0.3049
   27MOL0     C 3495   4.123   1.049   4.793  0.4775  0.3349  0.0974
   27MOL0     C 3496   4.112   1.118   4.693  0.3273 -0.5000 -1.0903
   27MOL0     C 3497   3.591   0.875   5.016  0.1165 -0.0679 -0.0585
   27MOL0     C 3498   3.467   0.806   5.006  0.1844 -0.0803 -0.1783
   27MOL0     H 3499   3.264   0.525   4.833  0.5028 -0.2862 -1.3103
   27MOL0     H 3500   3.099   0.365   4.732  1.1716  2.2611 -0.7423
   27MOL0     H 3501   2.952   0.170   4.801 -0.2214  0.6849 -2.1455
   27MOL0     H 3502   2.801   0.175   4.702  3.2736 -0.6171 -0.9105
   27MOL0     H 3503   2.795   0.178   5.005 -0.8405 -3.7328  1.7686
   27MOL0     H 3504   2.789   0.034   4.904 -0.0904 -0.5953 -0.0871
   27MOL0     H 3505   2.580   0.163   4.787 -0.1626 -0.1584  0.6765
   27MOL0     H 3506   2.614   0.265   4.929  2.2120  1.4960 -3.9998
   27MOL0     H 3507   2.540  -0.032   4.931  0.3424  1.3839 -3.3559
   27MOL0     H 3508   2.592   0.050   5.076 -1.6665 -1.4527  1.5241
   27MOL0     H 3509   2.380   0.198   5.036 -3.5538  1.1157 -0.8934
   27MOL0     H 3510   2.347   0.031   5.086 -1.7173 -0.8887 -1.4381
   27MOL0     H 3511   2.330  -0.027   4.820 -0.7520  1.4952 -2.2148
   27MOL0     H 3512   2.322   0.152   4.815  0.0564 -0.1625 -1.1976
   27MOL0     H 3513   2.138  -0.032   4.972 -0.5471 -0.2133 -0.0193
   27MOL0     H 3514   2.148   0.145   4.974 -2.0452 -1.1727 -0.0392
   27MOL0     H 3515   2.095  -0.022   4.735  1.1744 -0.1397  1.0002
   27MOL0     H 3516   2.071   0.162   4.738 -3.3053  2.9254  4.1659
   27MOL0     H 3517   1.841   0.229   4.800 -2.4320  0.4220 -1.2900
   27MOL0     H 3518   1.523   0.107   4.786  1.4770  2.2720 -0.3722
   27MOL0     H 3519   1.571   0.210   4.912 -2.5557 -0.2808  0.4842
   27MOL0     H 3520   1.528   0.032   5.086  2.2104 -0.7790 -0.3459
   27MOL0     H 3521   1.471  -0.068   4.949  0.6595 -1.5880  2.6262
   27MOL0     H 3522   1.336   0.156   5.095 -0.8184 -2.1743  0.2844
   27MOL0     H 3523   1.329   0.183   4.915 -1.5750 -2.4944 -2.1778
   27MOL0     H 3524   1.236  -0.049   5.072  1.8384  0.6976 -1.0504
   27MOL0     H 3525   1.222  -0.027   4.888 -3.9236  0.5256 -0.6969
   27MOL0     H 3526   0.874   0.201   5.114 -0.6193 -0.2262  0.2700
   27MOL0     H 3527   0.655   0.109   5.145 -0.6279  0.3145 -0.8567
   27MOL0     H 3528   0.247   0.019   5.091  0.6181 -0.4263 -0.0750
   27MOL0     H 3529   0.030  -0.038   5.184 -0.8089  0.7239  2.0473
   27MOL0     H 3530  -0.165  -0.149   5.327 -0.7241  0.2825  0.8601
   27MOL0     H 3531  -0.088  -0.034   5.440 -0.4537  0.0194  3.6772
   27MOL0     H 3532  -0.279  -0.104   5.549  0.3560  0.6211 -2.8855
   27MOL0     H 3533  -0.145  -0.177   5.630 -1.8630  2.3727  0.8853
   27MOL0     H 3534  -0.176  -0.397   5.508  0.4067  0.7927 -1.8892
   27MOL0     H 3535  -0.304  -0.320   5.405  2.9964 -1.1793 -1.9166
   27MOL0     H 3536  -0.321  -0.385   5.691 -1.3269 -0.1270  0.3699
   27MOL0     H 3537  -0.432  -0.275   5.607 -1.0770 -1.5983 -0.6523
   27MOL0     H 3538  -0.417  -0.529   5.461  0.8489  2.0501 -0.7578
   27MOL0     H 3539  -0.556  -0.450   5.517  0.0337 -2.1233 -1.2832
   27MOL0     H 3540  -0.535  -0.524   5.745 -1.8116 -0.6975 -0.5923
   27MOL0     H 3541  -0.382  -0.610   5.693 -0.4801 -2.6210 -1.7267
   27MOL0     H 3542  -0.677  -0.665   5.610 -0.2006  0.4696  2.1856
   27MOL0     H 3543  -0.525  -0.730   5.526  1.7153 -1.0450  2.4555
   27MOL0     H 3544  -0.448  -0.813   5.759 -0.5919  0.8220 -1.5179
   27MOL0     H 3545  -0.574  -0.905   5.693 -1.6756 -0.6675  0.0620
   27MOL0     H 3546   0.200  -0.334   5.429 -3.2129 -0.5579 -1.7370
   27MOL0     H 3547   0.437  -0.272   5.336 -0.8512 -0.7051  1.0673
   27MOL0     H 3548   0.814  -0.278   5.068 -0.1725  0.7107  2.2512
   27MOL0     H 3549   1.045  -0.180   5.011 -0.3311  0.5532 -0.6597
   27MOL0     H 3550   2.805   0.497   5.025 -0.5478  2.2943 -1.7488
   27MOL0     H 3551   2.967   0.638   5.129 -0.5261 -0.5472  0.2483
   27MOL0     H 3552   3.265   1.079   4.970 -0.3810 -0.9092 -0.0656
   27MOL0     H 3553   3.493   1.196   5.010  2.8232  0.0293 -1.7985
   27MOL0     H 3554   3.846   0.992   4.897  5.2020  1.3391  0.1006
   27MOL0     H 3555   3.855   0.951   5.068 -0.8091  0.3827  0.9783
   27MOL0     H 3556   3.939   1.212   4.920  0.7779  0.0936  0.3949
   27MOL0     H 3557   3.919   1.204   5.099 -0.8047  1.1217  0.3925
   27MOL0     H 3558   4.077   1.046   5.136  2.3879  0.0515  0.5373
   27MOL0     H 3559   4.155   1.154   5.025 -0.3638 -0.1186  1.2711
   27MOL0     H 3560   4.221   0.941   4.942  0.2635 -0.6814 -0.2588
   27MOL0     H 3561   4.048   0.893   4.923  0.3434  0.0353 -1.0886
   27MOL0     H 3562   4.089   1.196   4.623 -1.1649  0.4769  0.4034
   27MOL0     H 3563   3.683   0.817   5.015  0.2185  0.0282  1.8743
   27MOL0     H 3564   3.473   0.698   4.997 -1.1568 -0.3564  1.5795
   28MOL0     O 3565   3.152  11.154   7.876 -0.3774  0.0399 -0.1120
   28MOL0     C 3566   3.145  11.246   7.797  0.7994  0.2800 -0.1589
   28MOL0     O 3567   3.028  11.283   7.735 -0.3637 -0.1194  0.4750
   28MOL0     C 3568   2.916  11.203   7.712  0.6330 -0.1888  0.5806
   28MOL0     C 3569   2.803  11.272   7.670 -0.1389 -0.7939  0.2725
   28MOL0     C 3570   2.689  11.198   7.642 -0.2451  0.0120 -1.1181
   28MOL0     C 3571   2.675  11.060   7.660  0.5372  0.1779 -0.7999
   28MOL0     O 3572   2.556  10.992   7.643  0.0495 -0.1083  0.4131
   28MOL0     C 3573   2.528  10.952   7.504 -0.0000 -0.1532 -0.4702
   28MOL0     C 3574   2.435  10.833   7.500  1.3384 -0.3706  0.3188
   28MOL0     C 3575   2.284  10.851   7.544 -0.0680  0.7089  0.6747
   28MOL0     C 3576   2.216  10.719   7.541  0.8434  0.1058 -0.1760
   28MOL0     C 3577   2.075  10.739   7.604  0.8379 -0.4294  0.6896
   28MOL0     C 3578   2.001  10.608   7.583  0.3288 -0.0201  0.0137
   28MOL0     C 3579   1.880  10.597   7.682  0.9814  0.1432 -0.0501
   28MOL0     C 3580   1.815  10.459   7.678  0.0608 -0.1706  1.5182
   28MOL0     N 3581   1.711  10.444   7.776  0.0391 -0.4250 -0.1094
   28MOL0     C 3582   1.623  10.335   7.766  1.0799  0.1890  0.1919
   28MOL0     C 3583   1.534  10.359   7.867 -0.1869  0.0113 -0.0713
   28MOL0     C 3584   1.420  10.276   7.905  0.5945 -0.3971  0.7060
   28MOL0     C 3585   1.435  10.230   8.045  0.6263  0.1785  0.3515
   28MOL0     C 3586   1.547  10.126   8.042 -0.0493  1.0851 -0.1208
   28MOL0     C 3587   1.552  10.036   8.166 -1.0436  0.1783  0.1006
   28MOL0     O 3588   1.652   9.935   8.156 -0.7067  0.2628  0.5991
   28MOL0     C 3589   1.779   9.975   8.166  0.3053 -0.2899 -0.2259
   28MOL0     C 3590   1.821  10.078   8.244 -1.3236 -0.8469 -0.2822
   28MOL0     C 3591   1.960  10.103   8.264  0.3305 -0.0629  0.3134
   28MOL0     C 3592   2.055  10.013   8.207 -0.4106  0.0682  0.1040
   28MOL0     C 3593   2.201  10.024   8.221  0.0125 -1.2147  0.3492
   28MOL0     O 3594   2.246  10.135   8.277  0.0718 -0.0969 -0.6714
   28MOL0     C 3595   2.380  10.150   8.302  0.2165  0.0590  0.1241
   28MOL0     C 3596   2.447  10.236   8.217 -0.4758 -0.8092  0.5945
   28MOL0     C 3597   2.582  10.236   8.221  0.1938  0.3432 -0.2371
   28MOL0     C 3598   2.654  10.155   8.314  0.3710 -0.5805 -0.1517
   28MOL0     O 3599   2.788  10.138   8.307  0.6963 -0.0859  0.5308
   28MOL0     C 3600   2.866  10.236   8.234  0.0957 -0.2783  0.7429
   28MOL0     C 3601   3.012  10.211   8.261 -0.7518  0.5686  0.4363
   28MOL0     C 3602   3.115  10.326   8.227 -0.2540  0.3168 -0.5198
   28MOL0     C 3603   3.248  10.291   8.293 -0.1073  0.9046  0.2589
   28MOL0     C 3604   3.364  10.365   8.228  0.7899  0.5050  0.1560
   28MOL0     C 3605   3.382  10.508   8.286  1.0103  0.4210  0.6413
   28MOL0     C 3606   3.458  10.502   8.427 -0.4493  0.5256  0.1456
   28MOL0     C 3607   3.542  10.640   8.438  0.9023 -0.1527  0.0224
   28MOL0    Cl 3608   3.426  10.784   8.443  0.0530  0.2484 -0.0168
   28MOL0     C 3609   2.587  10.087   8.415 -0.2233  0.0244 -0.5151
   28MOL0     C 3610   2.444  10.076   8.405  0.6474 -0.4555  0.6894
   28MOL0     O 3611   2.270   9.936   8.174 -0.2093  0.6758  0.1282
   28MOL0     C 3612   2.008   9.895   8.148  0.0035 -0.1813 -0.1240
   28MOL0     C 3613   1.874   9.877   8.117 -0.2404  0.0840 -0.4566
   28MOL0     N 3614   1.569  10.479   7.937 -0.0950  0.1185  0.0003
   28MOL0     N 3615   1.681  10.518   7.882 -0.1194 -0.5265 -0.4025
   28MOL0     C 3616   2.789  10.999   7.707 -0.5077  1.0446  0.2163
   28MOL0     C 3617   2.908  11.061   7.732  0.0998  0.2323 -0.3314
   28MOL0     C 3618   3.270  11.312   7.766 -0.7433  0.4138  1.0436
   28MOL0     C 3619   3.303  11.349   7.633  0.5212 -0.0146  0.2387
   28MOL0     C 3620   3.429  11.412   7.612  0.3520  0.5057 -0.2945
   28MOL0     C 3621   3.522  11.424   7.709 -1.0901 -1.3309 -0.1034
   28MOL0     O 3622   3.633  11.497   7.681 -0.9300 -0.6216  0.3986
   28MOL0     C 3623   3.714  11.530   7.797  0.6200  0.6842  0.1072
   28MOL0     C 3624   3.840  11.600   7.757 -0.0340  0.1070 -0.3009
   28MOL0     C 3625   3.936  11.507   7.676 -1.0275  0.4720  0.3672
   28MOL0     C 3626   4.045  11.582   7.595  0.0404 -0.5892  0.3432
   28MOL0     C 3627   3.992  11.677   7.505  0.4445 -0.5124 -0.3635
   28MOL0     C 3628   3.955  11.752   7.419  0.0181  0.2691 -0.8176
   28MOL0     C 3629   3.490  11.385   7.836  0.1770  0.4050 -1.1193
   28MOL0     C 3630   3.366  11.333   7.865  0.2635  0.0353  0.6167
   28MOL0     H 3631   2.798  11.378   7.647 -3.6183 -0.3242  2.4135
   28MOL0     H 3632   2.601  11.260   7.627 -0.2485 -0.3861 -2.9941
   28MOL0     H 3633   2.625  10.921   7.465  0.0440  0.1108 -0.5703
   28MOL0     H 3634   2.481  11.036   7.451 -2.7261  0.2725  2.3493
   28MOL0     H 3635   2.474  10.760   7.570 -0.7404 -1.4079  0.4632
   28MOL0     H 3636   2.447  10.797   7.397  0.1065  4.1002 -1.6657
   28MOL0     H 3637   2.238  10.918   7.471 -0.2444 -0.9568 -0.8106
   28MOL0     H 3638   2.282  10.889   7.647 -1.3382 -0.1899  1.0018
   28MOL0     H 3639   2.202  10.690   7.436  0.9265 -0.9608  0.0946
   28MOL0     H 3640   2.266  10.632   7.585 -0.8259 -1.8419 -1.8993
   28MOL0     H 3641   2.036  10.829   7.556 -1.6269 -2.2987 -1.0313
   28MOL0     H 3642   2.093  10.756   7.710 -1.3139  0.0266  1.0354
   28MOL0     H 3643   2.068  10.523   7.597 -1.2397 -1.9451 -3.1800
   28MOL0     H 3644   1.978  10.601   7.476 -0.5859  2.3806 -0.0169
   28MOL0     H 3645   1.913  10.613   7.785 -0.5465 -0.3389  0.5524
   28MOL0     H 3646   1.813  10.682   7.663 -1.1206 -1.9614 -2.9406
   28MOL0     H 3647   1.886  10.378   7.697  0.6736  0.4859  2.0864
   28MOL0     H 3648   1.773  10.450   7.578  1.8425  4.5245  0.0749
   28MOL0     H 3649   1.621  10.254   7.695  1.2084  1.9529 -1.9319
   28MOL0     H 3650   1.397  10.194   7.837 -0.5892 -2.2973  3.2149
   28MOL0     H 3651   1.336  10.347   7.904  2.5949  2.0976 -0.3986
   28MOL0     H 3652   1.349  10.174   8.083  1.1051 -2.0662 -1.6298
   28MOL0     H 3653   1.452  10.317   8.110 -0.0360 -0.1790  1.0257
   28MOL0     H 3654   1.538  10.062   7.954  2.1532  1.6913 -0.8610
   28MOL0     H 3655   1.642  10.180   8.030 -0.3584  1.2208 -2.4149
   28MOL0     H 3656   1.456   9.984   8.173 -1.4111  0.9587  1.0433
   28MOL0     H 3657   1.564  10.096   8.256  2.5783  0.9490 -0.7501
   28MOL0     H 3658   1.755  10.152   8.288  2.2457  0.7658  2.9781
   28MOL0     H 3659   1.993  10.184   8.328 -0.1781  1.6485 -1.4639
   28MOL0     H 3660   2.395  10.299   8.145 -4.2962 -1.8786  2.1419
   28MOL0     H 3661   2.644  10.295   8.154  1.1604  0.7233  0.9494
   28MOL0     H 3662   2.847  10.340   8.263 -0.8993 -0.0399 -0.6646
   28MOL0     H 3663   2.842  10.242   8.127  0.2360  3.3331  0.7833
   28MOL0     H 3664   3.054  10.131   8.200  1.5697  1.9840  0.0336
   28MOL0     H 3665   3.027  10.191   8.367 -0.3799  0.8877  0.4453
   28MOL0     H 3666   3.074  10.422   8.259 -3.8608 -1.8115  2.0113
   28MOL0     H 3667   3.131  10.312   8.120 -1.3619  0.8466 -0.7676
   28MOL0     H 3668   3.243  10.319   8.399 -0.4364  1.1510  0.1824
   28MOL0     H 3669   3.268  10.184   8.283 -2.5330  0.6209 -3.9765
   28MOL0     H 3670   3.342  10.376   8.121  0.7329 -2.7562 -0.2705
   28MOL0     H 3671   3.456  10.305   8.231  1.3072  1.3048  2.0888
   28MOL0     H 3672   3.287  10.559   8.301  1.5393  2.0525 -1.1704
   28MOL0     H 3673   3.448  10.559   8.214 -1.9508  1.0952 -1.7812
   28MOL0     H 3674   3.380  10.495   8.503  1.9689 -0.7898  2.6758
   28MOL0     H 3675   3.524  10.416   8.439 -2.8476 -1.4302  0.0283
   28MOL0     H 3676   3.614  10.654   8.357  2.2951  2.9315  1.6281
   28MOL0     H 3677   3.601  10.637   8.531  2.5810  0.5796 -0.9710
   28MOL0     H 3678   2.641  10.020   8.481  2.3458 -0.0367 -2.5072
   28MOL0     H 3679   2.387  10.013   8.474  1.9757 -1.9368  0.5017
   28MOL0     H 3680   2.075   9.816   8.114 -1.4493 -0.6741 -1.9834
   28MOL0     H 3681   1.832   9.790   8.067 -2.3791  0.4382  0.6053
   28MOL0     H 3682   2.811  10.895   7.728 -2.3891  1.1504  3.2953
   28MOL0     H 3683   2.986  11.001   7.777 -0.7663 -0.9931 -0.4247
   28MOL0     H 3684   3.225  11.354   7.557 -0.1092  2.2443  0.9428
   28MOL0     H 3685   3.441  11.463   7.516 -1.6767  1.6448 -0.0063
   28MOL0     H 3686   3.747  11.442   7.853  2.2582  1.2682  0.0996
   28MOL0     H 3687   3.653  11.592   7.863 -1.9330  1.8651 -3.0678
   28MOL0     H 3688   3.810  11.687   7.697  0.8630 -0.2903 -1.3584
   28MOL0     H 3689   3.892  11.638   7.845 -0.6178 -0.5572  0.3357
   28MOL0     H 3690   3.880  11.446   7.605 -1.3855  0.1522  0.9224
   28MOL0     H 3691   3.982  11.438   7.747 -0.2558  0.4479 -0.1437
   28MOL0     H 3692   4.104  11.639   7.667 -0.6285  0.8725 -0.2465
   28MOL0     H 3693   4.107  11.517   7.532  2.1542 -0.3722  2.0588
   28MOL0     H 3694   3.941  11.832   7.350  2.5112  1.6848  0.1878
   28MOL0     H 3695   3.552  11.400   7.924 -0.1232  2.4527 -1.2148
   28MOL0     H 3696   3.356  11.310   7.970  1.3047 -1.2740  0.4547
   29MOL0     O 3697   7.256   4.447   5.548 -0.0342  0.3749  0.4837
   29MOL0     C 3698   7.359   4.490   5.605 -0.6115  0.4400 -0.7824
   29MOL0     O 3699   7.361   4.614   5.658  0.2387  0.1890  0.1309
   29MOL0     C 3700   7.251   4.691   5.642 -0.3588  0.1519 -0.1508
   29MOL0     C 3701   7.220   4.735   5.511  0.1282 -0.6429 -0.6114
   29MOL0     C 3702   7.098   4.795   5.488  0.8490 -0.3675  0.4193
   29MOL0     C 3703   7.005   4.813   5.580 -0.6817  0.1371 -0.4884
   29MOL0     O 3704   6.891   4.883   5.550  0.0269  0.3475  0.2274
   29MOL0     C 3705   6.786   4.902   5.644 -0.3232  0.0290  0.5021
   29MOL0     C 3706   6.667   4.969   5.582 -0.7753 -0.1403 -1.0840
   29MOL0     C 3707   6.549   4.944   5.681 -0.0637  0.0992 -0.2039
   29MOL0     C 3708   6.441   5.042   5.644 -0.6504 -0.2371  0.5094
   29MOL0     C 3709   6.330   5.050   5.757 -0.6199  1.2685  0.6293
   29MOL0     C 3710   6.218   5.151   5.732 -1.1176 -0.0713  0.3720
   29MOL0     C 3711   6.090   5.125   5.814  0.0812 -0.1110 -0.4207
   29MOL0     C 3712   6.117   5.079   5.963  0.2941  0.3137  0.2737
   29MOL0     N 3713   6.162   5.175   6.065 -0.7015  0.6233  0.5816
   29MOL0     C 3714   6.109   5.303   6.076 -0.6570 -0.1458 -0.0590
   29MOL0     C 3715   6.181   5.368   6.168 -1.3734 -0.3142  0.1768
   29MOL0     C 3716   6.172   5.511   6.217  0.0826 -0.8101  0.1535
   29MOL0     C 3717   6.031   5.526   6.271  0.6992 -0.1943  0.0683
   29MOL0     C 3718   5.986   5.676   6.271  0.0470 -0.4278 -0.3076
   29MOL0     C 3719   5.838   5.709   6.281 -0.6471  0.3314  0.1580
   29MOL0     O 3720   5.786   5.613   6.372  0.1836 -0.3127 -0.3901
   29MOL0     C 3721   5.651   5.611   6.375  0.5063  0.2738  0.4098
   29MOL0     C 3722   5.600   5.482   6.406 -0.5879  0.5661  0.2243
   29MOL0     C 3723   5.460   5.462   6.415 -0.2620  0.0180  0.5635
   29MOL0     C 3724   5.368   5.568   6.388  0.1187 -0.0671  0.3569
   29MOL0     C 3725   5.230   5.539   6.376  0.0888  0.6353 -0.4900
   29MOL0     O 3726   5.154   5.623   6.308 -0.0919 -0.9271 -0.1769
   29MOL0     C 3727   5.020   5.597   6.280  0.7077  0.8722  0.1238
   29MOL0     C 3728   4.920   5.541   6.360  0.2412 -0.2130  0.8741
   29MOL0     C 3729   4.794   5.517   6.317  0.4258 -0.2124  0.1404
   29MOL0     C 3730   4.763   5.536   6.187  0.3117 -0.3792  0.4670
   29MOL0     O 3731   4.639   5.496   6.161 -0.1696  0.0700  0.6767
   29MOL0     C 3732   4.606   5.480   6.019 -0.3387  0.0302  0.7403
   29MOL0     C 3733   4.478   5.394   6.004  0.2300 -0.6793  0.2313
   29MOL0     C 3734   4.428   5.414   5.860 -0.2450 -0.6911  0.2897
   29MOL0     C 3735   4.468   5.298   5.773  0.5297 -0.0718 -0.9491
   29MOL0     C 3736   4.439   5.322   5.628 -0.4547  0.5190  0.4538
   29MOL0     C 3737   4.290   5.338   5.592  0.2208 -0.0377  0.2353
   29MOL0     C 3738   4.196   5.224   5.641 -0.4388  0.7125  0.2847
   29MOL0     C 3739   4.058   5.229   5.586  0.0023 -0.6606  0.4324
   29MOL0    Cl 3740   3.961   5.135   5.699 -0.1261  0.0253  0.2013
   29MOL0     C 3741   4.853   5.599   6.107 -0.7438 -0.3161 -0.9287
   29MOL0     C 3742   4.975   5.628   6.151 -0.5058  0.0822 -0.2862
   29MOL0     O 3743   5.184   5.443   6.434 -0.3630  0.7304 -0.8630
   29MOL0     C 3744   5.416   5.698   6.365 -0.0891 -0.3559  0.0828
   29MOL0     C 3745   5.563   5.715   6.357  0.1483 -0.5457 -0.3574
   29MOL0     N 3746   6.276   5.271   6.209  0.1772 -0.1072  0.3008
   29MOL0     N 3747   6.278   5.168   6.141  0.2647  0.4920  0.2414
   29MOL0     C 3748   7.029   4.754   5.707 -0.3446 -0.0470 -0.2335
   29MOL0     C 3749   7.153   4.694   5.742  0.1409 -0.8683 -0.5515
   29MOL0     C 3750   7.466   4.392   5.608 -0.4276  0.9945  0.0217
   29MOL0     C 3751   7.558   4.392   5.708  0.0635 -0.0114  0.0449
   29MOL0     C 3752   7.662   4.300   5.710  0.1813  1.2462  0.1698
   29MOL0     C 3753   7.671   4.186   5.621  0.1794  0.1536  0.2056
   29MOL0     O 3754   7.766   4.085   5.619  0.1756 -0.1901  0.7281
   29MOL0     C 3755   7.894   4.109   5.680 -0.6944 -0.3677  0.3503
   29MOL0     C 3756   7.949   3.987   5.741  0.1424  0.3696 -0.4065
   29MOL0     C 3757   7.933   3.867   5.651 -0.1808  0.1954  0.0575
   29MOL0     C 3758   7.999   3.748   5.707  0.0482  0.3819 -0.3917
   29MOL0     C 3759   8.007   3.631   5.619 -0.5525  0.9310 -0.3303
   29MOL0     C 3760   8.027   3.522   5.561 -0.5266 -0.2721  0.0023
   29MOL0     C 3761   7.569   4.181   5.525  0.0168 -0.9226  0.8034
   29MOL0     C 3762   7.468   4.281   5.517 -0.1239 -1.1684  0.3140
   29MOL0     H 3763   7.290   4.723   5.430  1.9390  1.3718  0.5604
   29MOL0     H 3764   7.083   4.841   5.390  1.2906 -2.0273 -0.4576
   29MOL0     H 3765   6.830   4.950   5.731  0.0914 -3.0311  2.1075
   29MOL0     H 3766   6.745   4.808   5.683 -1.9883 -0.9621 -3.1431
   29MOL0     H 3767   6.631   4.916   5.494 -1.1795 -1.2918 -0.2566
   29MOL0     H 3768   6.685   5.075   5.561 -1.9180  1.1281  3.1309
   29MOL0     H 3769   6.591   4.958   5.781 -0.1019 -3.8064  0.5389
   29MOL0     H 3770   6.507   4.843   5.678 -0.3679  0.2413 -0.9834
   29MOL0     H 3771   6.493   5.138   5.649  1.1042 -1.1203 -0.0133
   29MOL0     H 3772   6.389   5.019   5.550  0.2365 -2.2036  0.4519
   29MOL0     H 3773   6.376   5.083   5.851 -0.7756  2.5635  0.2710
   29MOL0     H 3774   6.292   4.948   5.769 -3.4976  2.3630  1.7639
   29MOL0     H 3775   6.189   5.148   5.627 -2.3457  1.0134  0.6552
   29MOL0     H 3776   6.263   5.251   5.742  0.1718 -0.3440 -1.9555
   29MOL0     H 3777   6.040   5.222   5.811  1.1999  0.5745  1.2768
   29MOL0     H 3778   6.029   5.049   5.765  0.3178 -0.3400 -0.3638
   29MOL0     H 3779   6.188   4.995   5.966 -1.5024 -1.2863 -0.1466
   29MOL0     H 3780   6.026   5.026   5.990  0.0193 -0.4635 -1.9739
   29MOL0     H 3781   6.028   5.341   6.016 -0.4053 -3.3463 -2.6576
   29MOL0     H 3782   6.192   5.584   6.138  0.8879 -1.1856  0.0044
   29MOL0     H 3783   6.253   5.535   6.286  1.4112  1.8010 -2.1009
   29MOL0     H 3784   6.027   5.489   6.374 -0.5640  1.0733  0.5119
   29MOL0     H 3785   5.957   5.466   6.218 -0.1706  2.1983 -1.5849
   29MOL0     H 3786   6.039   5.731   6.349  0.9621  3.4473 -3.3515
   29MOL0     H 3787   6.011   5.724   6.176 -1.9657 -0.8303 -1.1021
   29MOL0     H 3788   5.787   5.703   6.185 -0.7617  0.6127  0.1997
   29MOL0     H 3789   5.823   5.812   6.314  1.3526  1.5500 -2.4360
   29MOL0     H 3790   5.667   5.404   6.441  2.5862  2.4258 -1.1977
   29MOL0     H 3791   5.430   5.359   6.426 -1.1939 -0.2001 -2.7988
   29MOL0     H 3792   4.946   5.520   6.463 -1.1545  0.0577  1.2951
   29MOL0     H 3793   4.724   5.472   6.386 -1.3955  2.2118  0.0524
   29MOL0     H 3794   4.687   5.426   5.969  0.0298  0.0805  1.2679
   29MOL0     H 3795   4.591   5.576   5.970  1.0642 -0.4498 -0.7429
   29MOL0     H 3796   4.408   5.421   6.083  0.6932  0.8958  0.1334
   29MOL0     H 3797   4.499   5.287   6.018 -1.1860 -0.8699  1.0647
   29MOL0     H 3798   4.463   5.511   5.822 -1.0187  0.0042  1.2852
   29MOL0     H 3799   4.318   5.413   5.859 -0.2828 -1.9861 -1.9034
   29MOL0     H 3800   4.575   5.278   5.788  0.8460  1.8426 -0.4105
   29MOL0     H 3801   4.416   5.207   5.804  1.2415 -0.9737 -2.2747
   29MOL0     H 3802   4.482   5.237   5.573 -1.4754  0.4021 -0.1795
   29MOL0     H 3803   4.484   5.414   5.589 -2.0587  1.4132  0.6593
   29MOL0     H 3804   4.270   5.357   5.486 -1.9172  0.3115  0.6618
   29MOL0     H 3805   4.259   5.435   5.634 -1.7834 -0.5532  0.0509
   29MOL0     H 3806   4.244   5.127   5.626  1.0486  1.7428 -2.2111
   29MOL0     H 3807   4.195   5.231   5.750  2.6074  2.1341  0.3272
   29MOL0     H 3808   4.069   5.185   5.486  1.1200  1.1925 -0.3043
   29MOL0     H 3809   4.024   5.333   5.591  0.8067 -0.3170 -0.7534
   29MOL0     H 3810   4.837   5.639   6.007  2.8384  3.2492 -0.3220
   29MOL0     H 3811   5.052   5.679   6.094  1.2091  0.0973  1.9034
   29MOL0     H 3812   5.361   5.788   6.339  2.4269  1.0162 -0.8668
   29MOL0     H 3813   5.609   5.812   6.339 -0.2769 -0.1136  0.8003
   29MOL0     H 3814   6.950   4.753   5.781 -1.5385 -2.8734 -1.4084
   29MOL0     H 3815   7.168   4.646   5.838  3.9858 -1.6616 -1.3722
   29MOL0     H 3816   7.550   4.457   5.795  0.4602  0.1596 -0.0466
   29MOL0     H 3817   7.728   4.321   5.793 -0.1647  3.3027 -0.0155
   29MOL0     H 3818   7.878   4.180   5.762 -5.2553 -1.8540  1.0653
   29MOL0     H 3819   7.958   4.143   5.598  0.1855 -0.5195  0.9577
   29MOL0     H 3820   8.058   3.993   5.747  0.1600 -0.2900 -0.0314
   29MOL0     H 3821   7.910   3.973   5.842 -0.8002 -1.2767 -0.9664
   29MOL0     H 3822   7.985   3.897   5.560  0.0563  0.9799  0.4429
   29MOL0     H 3823   7.829   3.837   5.633 -0.2013 -0.8744  1.7386
   29MOL0     H 3824   8.099   3.771   5.745 -1.8663  2.3051  4.3375
   29MOL0     H 3825   7.945   3.713   5.796  1.7198 -1.6530 -0.1078
   29MOL0     H 3826   8.056   3.428   5.519 -0.5691  0.3562 -1.4833
   29MOL0     H 3827   7.563   4.108   5.445 -1.3028 -0.5858  0.5804
   29MOL0     H 3828   7.392   4.274   5.440  0.4497 -0.3094 -0.3477
   30MOL0     O 3829   0.887   1.485   4.931 -0.1636 -1.2277 -0.0570
   30MOL0     C 3830   0.843   1.473   4.817 -0.3377 -1.1326  0.9373
   30MOL0     O 3831   0.720   1.421   4.779 -0.5195 -0.0114  0.6137
   30MOL0     C 3832   0.618   1.388   4.869  0.2463  0.2078  0.2225
   30MOL0     C 3833   0.618   1.419   5.006  0.3936 -1.3051  0.6852
   30MOL0     C 3834   0.517   1.379   5.090 -0.3475  0.1561 -0.0815
   30MOL0     C 3835   0.407   1.322   5.040  0.1974 -0.7126 -0.1759
   30MOL0     O 3836   0.304   1.305   5.129 -0.1423 -0.6394 -0.1260
   30MOL0     C 3837   0.209   1.206   5.091 -0.0113 -0.0023  0.3759
   30MOL0     C 3838   0.100   1.198   5.197 -0.7075 -1.2727 -0.9956
   30MOL0     C 3839  -0.006   1.089   5.180 -0.0760 -0.3646  0.3681
   30MOL0     C 3840  -0.119   1.109   5.279 -0.8935 -0.0343 -0.0661
   30MOL0     C 3841  -0.245   1.044   5.214  1.4703 -0.5476  1.0495
   30MOL0     C 3842  -0.366   1.050   5.313  0.5384 -0.4102 -0.0996
   30MOL0     C 3843  -0.481   0.952   5.283  0.5908  0.3325 -0.2644
   30MOL0     C 3844  -0.551   0.978   5.146 -0.8977 -0.2837 -0.1297
   30MOL0     N 3845  -0.661   0.896   5.106  0.0758  0.3415 -0.1639
   30MOL0     C 3846  -0.766   0.857   5.179  0.0468  0.1346 -0.7516
   30MOL0     C 3847  -0.828   0.767   5.103 -0.0443  0.4899  0.4808
   30MOL0     C 3848  -0.924   0.667   5.151 -0.4119  0.3715  0.1305
   30MOL0     C 3849  -1.067   0.726   5.157 -0.4543  0.4283 -0.0883
   30MOL0     C 3850  -1.117   0.730   5.304 -0.0344 -0.4664  0.2728
   30MOL0     C 3851  -1.236   0.823   5.327 -0.0426 -0.4533  0.9524
   30MOL0     O 3852  -1.215   0.963   5.295  0.7753  0.1140  0.2596
   30MOL0     C 3853  -1.321   1.036   5.235  0.1939  0.2639 -0.3392
   30MOL0     C 3854  -1.290   1.146   5.161 -0.2602  0.5007 -0.0526
   30MOL0     C 3855  -1.380   1.240   5.118 -0.3522 -0.3218  0.0406
   30MOL0     C 3856  -1.521   1.209   5.132  0.2283  0.5984  0.2781
   30MOL0     C 3857  -1.628   1.299   5.073 -0.4510  0.4631 -0.2195
   30MOL0     O 3858  -1.756   1.257   5.093 -0.1133  0.2247 -0.8339
   30MOL0     C 3859  -1.860   1.341   5.060 -0.0011 -1.6528  0.1713
   30MOL0     C 3860  -1.950   1.394   5.153  0.0047  0.5353 -0.1692
   30MOL0     C 3861  -2.068   1.469   5.108 -0.4478  1.0755  0.4610
   30MOL0     C 3862  -2.090   1.488   4.969  0.0999 -1.2628  1.2623
   30MOL0     O 3863  -2.196   1.560   4.912  0.3525  0.2258 -0.0528
   30MOL0     C 3864  -2.320   1.549   4.974  0.0351 -0.0160 -0.5011
   30MOL0     C 3865  -2.416   1.627   4.885 -0.4112 -0.0764 -0.6151
   30MOL0     C 3866  -2.562   1.619   4.945 -0.7241  0.7693 -0.1911
   30MOL0     C 3867  -2.670   1.696   4.873  0.0733 -0.3396  0.6088
   30MOL0     C 3868  -2.782   1.693   4.970 -0.8448 -0.6866  0.5016
   30MOL0     C 3869  -2.916   1.694   4.900 -0.5010  0.0915  0.2630
   30MOL0     C 3870  -3.016   1.711   5.018  0.4259 -0.9166 -0.0065
   30MOL0     C 3871  -3.166   1.724   4.972 -0.1917  0.3167 -0.9774
   30MOL0    Cl 3872  -3.281   1.720   5.109  0.0963  0.0520 -0.5141
   30MOL0     C 3873  -1.993   1.441   4.877  0.1916 -0.0867 -0.1425
   30MOL0     C 3874  -1.882   1.368   4.924  1.1450 -0.0939 -0.2671
   30MOL0     O 3875  -1.591   1.398   5.005 -0.1964 -0.3283  0.6279
   30MOL0     C 3876  -1.556   1.091   5.203 -0.0190 -0.8374 -0.4983
   30MOL0     C 3877  -1.456   1.015   5.263  0.3184 -0.7731 -0.5978
   30MOL0     N 3878  -0.776   0.782   4.977 -0.1650 -0.2533  0.3819
   30MOL0     N 3879  -0.676   0.857   4.979  0.5819 -0.5663  0.1815
   30MOL0     C 3880   0.391   1.314   4.898  0.3340  0.1128 -0.0817
   30MOL0     C 3881   0.500   1.340   4.820 -0.2038 -0.4866  0.5292
   30MOL0     C 3882   0.933   1.515   4.704  0.2336  0.0437 -0.7123
   30MOL0     C 3883   0.891   1.488   4.565  0.6824 -0.3968 -0.7147
   30MOL0     C 3884   0.973   1.530   4.461 -0.7275  1.2930 -0.4523
   30MOL0     C 3885   1.095   1.591   4.489  0.2077  0.6379 -0.1383
   30MOL0     O 3886   1.181   1.603   4.386 -1.0250  0.2839  0.7133
   30MOL0     C 3887   1.281   1.702   4.386 -0.1796  0.1654  1.5024
   30MOL0     C 3888   1.338   1.731   4.240  0.0540  1.2556 -0.5017
   30MOL0     C 3889   1.451   1.846   4.244  0.3710 -0.1200 -0.0327
   30MOL0     C 3890   1.519   1.872   4.108  0.8845  0.2534  0.1937
   30MOL0     C 3891   1.415   1.902   4.011  1.0008  0.2031 -0.9272
   30MOL0     C 3892   1.328   1.919   3.933 -0.6545 -0.2149  0.2926
   30MOL0     C 3893   1.119   1.636   4.619  0.0396  0.0493  0.0046
   30MOL0     C 3894   1.042   1.600   4.723  0.2665  0.1310 -0.7586
   30MOL0     H 3895   0.698   1.482   5.041  0.3947 -0.6346 -0.4763
   30MOL0     H 3896   0.521   1.394   5.197  1.5206 -2.3481  0.2916
   30MOL0     H 3897   0.255   1.107   5.080 -2.7660 -1.8184  3.5402
   30MOL0     H 3898   0.155   1.214   4.996  0.3312 -1.4881  0.0212
   30MOL0     H 3899   0.054   1.297   5.200 -0.8206 -1.3098  1.9090
   30MOL0     H 3900   0.135   1.173   5.298 -3.8723 -1.1977  0.2072
   30MOL0     H 3901   0.037   0.990   5.199 -0.0533 -0.2842  0.7573
   30MOL0     H 3902  -0.042   1.099   5.077 -0.2145 -2.1565  0.2238
   30MOL0     H 3903  -0.093   1.059   5.373  0.1638  0.4879 -0.0643
   30MOL0     H 3904  -0.119   1.217   5.295  2.1624  0.3435 -1.6820
   30MOL0     H 3905  -0.223   0.942   5.182  0.3282  0.0353 -1.8683
   30MOL0     H 3906  -0.273   1.098   5.123 -0.2242 -2.8233  0.1305
   30MOL0     H 3907  -0.409   1.150   5.304  1.1020 -0.1210  0.3374
   30MOL0     H 3908  -0.329   1.035   5.414 -0.4657  0.3836  0.4063
   30MOL0     H 3909  -0.436   0.853   5.296  3.3390  1.6533  1.1592
   30MOL0     H 3910  -0.554   0.967   5.364  0.8817 -0.4385  0.1544
   30MOL0     H 3911  -0.472   0.955   5.075 -0.5424  0.0938  0.1363
   30MOL0     H 3912  -0.582   1.082   5.131 -3.2326 -0.6589  1.5670
   30MOL0     H 3913  -0.776   0.878   5.285 -0.6582 -4.1628  0.2014
   30MOL0     H 3914  -0.898   0.613   5.243 -1.2411 -2.6922 -1.2984
   30MOL0     H 3915  -0.924   0.592   5.071 -1.2473  1.1523 -0.6268
   30MOL0     H 3916  -1.133   0.659   5.102  0.9894  1.7135 -3.6488
   30MOL0     H 3917  -1.084   0.826   5.117 -2.9394  0.8635  1.7954
   30MOL0     H 3918  -1.140   0.632   5.347  3.0796 -1.8125 -0.8919
   30MOL0     H 3919  -1.034   0.763   5.366 -0.7133 -0.0481  0.9723
   30MOL0     H 3920  -1.281   0.809   5.426 -0.2225 -2.8814  0.5747
   30MOL0     H 3921  -1.312   0.787   5.258  0.4748 -0.6835  0.4882
   30MOL0     H 3922  -1.186   1.165   5.138  0.0554 -1.4714 -0.4755
   30MOL0     H 3923  -1.345   1.328   5.066  3.0949 -0.4459  1.8656
   30MOL0     H 3924  -1.933   1.384   5.260 -0.5356 -0.1236 -0.1405
   30MOL0     H 3925  -2.134   1.511   5.183  0.2955  0.0936  1.7015
   30MOL0     H 3926  -2.317   1.589   5.076  2.5935 -0.7896 -0.2115
   30MOL0     H 3927  -2.366   1.450   4.984 -0.4889  0.3676  1.2149
   30MOL0     H 3928  -2.413   1.590   4.782  0.7375 -0.3562 -0.4958
   30MOL0     H 3929  -2.376   1.729   4.884  0.6295 -0.4190  1.1308
   30MOL0     H 3930  -2.565   1.662   5.046 -3.1646 -3.4936  1.8204
   30MOL0     H 3931  -2.581   1.511   4.945  1.2315  0.3741  0.4266
   30MOL0     H 3932  -2.630   1.793   4.843 -1.7807  0.1553 -0.3947
   30MOL0     H 3933  -2.693   1.640   4.782 -0.3022 -1.5158  1.4059
   30MOL0     H 3934  -2.768   1.777   5.039 -1.9709 -1.6266  1.9660
   30MOL0     H 3935  -2.779   1.600   5.028  0.5010  0.1748  1.8966
   30MOL0     H 3936  -2.921   1.597   4.850 -0.3553  1.3725 -2.4176
   30MOL0     H 3937  -2.911   1.776   4.828 -0.0941  1.3916  1.7195
   30MOL0     H 3938  -3.012   1.620   5.079 -3.6040 -0.8937  0.5591
   30MOL0     H 3939  -2.995   1.798   5.081 -1.8354  1.3750 -2.2119
   30MOL0     H 3940  -3.194   1.644   4.903  0.4328 -2.0510  1.3763
   30MOL0     H 3941  -3.175   1.815   4.912 -1.3992  1.1822  0.4264
   30MOL0     H 3942  -2.022   1.446   4.772  1.8589  1.6489 -0.5943
   30MOL0     H 3943  -1.820   1.318   4.850 -0.5962  0.1301 -1.9728
   30MOL0     H 3944  -1.661   1.064   5.210  0.0234 -0.7687  0.4659
   30MOL0     H 3945  -1.490   0.947   5.341 -1.4425 -2.3023 -2.5945
   30MOL0     H 3946   0.314   1.271   4.835  1.8639  0.2677 -2.1658
   30MOL0     H 3947   0.490   1.326   4.713  0.2285 -1.4112  0.6010
   30MOL0     H 3948   0.798   1.438   4.539  0.1870 -0.4243  0.9895
   30MOL0     H 3949   0.944   1.506   4.360  0.7943  0.1672 -0.6611
   30MOL0     H 3950   1.366   1.668   4.446 -0.0740 -3.0025 -0.2320
   30MOL0     H 3951   1.236   1.794   4.424  0.0487  1.2076 -0.6034
   30MOL0     H 3952   1.385   1.639   4.204  4.5276  3.1769 -0.2761
   30MOL0     H 3953   1.255   1.766   4.178 -0.6915  0.5237  0.0614
   30MOL0     H 3954   1.517   1.818   4.326 -2.8948 -0.1092  2.8068
   30MOL0     H 3955   1.401   1.939   4.273 -0.4935 -0.9854  1.3485
   30MOL0     H 3956   1.589   1.954   4.119 -0.8172  1.4920  2.8663
   30MOL0     H 3957   1.569   1.782   4.072  3.0366 -0.0636  3.4899
   30MOL0     H 3958   1.263   1.943   3.851 -0.4908  0.2502  0.2940
   30MOL0     H 3959   1.206   1.696   4.642 -0.0354  0.6128 -1.0999
   30MOL0     H 3960   1.056   1.649   4.819  2.6521  0.7933 -1.3694
   31MOL0     O 3961   7.953   6.920   7.048 -0.4836  0.9259 -0.0835
   31MOL0     C 3962   8.010   7.003   7.124  0.4981 -0.5651  0.5177
   31MOL0     O 3963   7.944   7.103   7.186  0.3288 -0.0542 -0.0079
   31MOL0     C 3964   7.806   7.114   7.159  0.7958  0.3681 -0.3952
   31MOL0     C 3965   7.765   7.185   7.045 -0.4059 -0.4447  0.0966
   31MOL0     C 3966   7.625   7.187   7.017 -0.2475  0.3475  0.2809
   31MOL0     C 3967   7.525   7.128   7.099 -0.0477  0.3131  0.2143
   31MOL0     O 3968   7.402   7.129   7.046  0.2851  0.4134 -0.1337
   31MOL0     C 3969   7.306   7.043   7.098  0.7271 -0.0404 -0.8571
   31MOL0     C 3970   7.210   6.993   6.997 -1.1450 -0.3965  0.0484
   31MOL0     C 3971   7.134   6.877   7.047 -0.6662 -0.0799 -0.8337
   31MOL0     C 3972   7.037   6.823   6.937  0.2618  0.4306  0.4444
   31MOL0     C 3973   6.906   6.909   6.925  0.4094  0.4053 -0.7501
   31MOL0     C 3974   6.804   6.828   6.848 -0.6466 -0.0247  0.2579
   31MOL0     C 3975   6.694   6.930   6.813 -0.2362  0.0874  0.6754
   31MOL0     C 3976   6.595   6.966   6.931 -0.1395  0.7368  0.1809
   31MOL0     N 3977   6.472   7.029   6.888  0.8544 -0.6696  0.4824
   31MOL0     C 3978   6.466   7.160   6.847  0.2184 -0.2729  0.1324
   31MOL0     C 3979   6.332   7.191   6.849 -0.2509  0.0339 -0.4052
   31MOL0     C 3980   6.276   7.320   6.782 -0.1328  0.5265 -0.0762
   31MOL0     C 3981   6.150   7.293   6.696 -0.3106 -0.4336  0.1078
   31MOL0     C 3982   6.101   7.419   6.622  0.0149  0.8616 -1.8455
   31MOL0     C 3983   5.984   7.382   6.534  0.1111  0.0825  0.3355
   31MOL0     O 3984   5.884   7.330   6.611  0.2443 -0.0855 -0.1354
   31MOL0     C 3985   5.765   7.318   6.558  1.2954  0.5095  0.4347
   31MOL0     C 3986   5.720   7.356   6.426  0.5513 -0.0896 -0.1154
   31MOL0     C 3987   5.587   7.329   6.388 -0.3964 -0.2468 -0.1002
   31MOL0     C 3988   5.488   7.279   6.477  0.1749 -0.5379 -1.2606
   31MOL0     C 3989   5.354   7.254   6.432 -0.0399  0.6014  0.3603
   31MOL0     O 3990   5.282   7.174   6.512  0.6623  0.1471 -0.1441
   31MOL0     C 3991   5.145   7.156   6.488  0.1143  0.7178 -0.2472
   31MOL0     C 3992   5.062   7.266   6.461 -0.2224 -0.8106 -0.0370
   31MOL0     C 3993   4.932   7.246   6.426  0.1801  0.1643  0.4441
   31MOL0     C 3994   4.872   7.120   6.429  0.3835 -0.0161 -0.2285
   31MOL0     O 3995   4.746   7.088   6.392  0.5997  0.7617  0.5667
   31MOL0     C 3996   4.636   7.179   6.416  0.6140  0.0863 -0.2991
   31MOL0     C 3997   4.555   7.198   6.284 -0.2109  0.1197  0.7663
   31MOL0     C 3998   4.417   7.258   6.307 -0.4607  0.1719 -0.8147
   31MOL0     C 3999   4.333   7.261   6.184 -0.6730  0.0411  0.6665
   31MOL0     C 4000   4.187   7.315   6.213  0.0459  0.5522  0.3892
   31MOL0     C 4001   4.108   7.320   6.079  0.0919  0.1741  0.1150
   31MOL0     C 4002   3.955   7.333   6.101  0.2164 -1.5108  0.0392
   31MOL0     C 4003   3.878   7.397   5.977  0.4412  0.4120 -0.1554
   31MOL0    Cl 4004   3.950   7.560   5.933 -0.7138  0.1021  0.3380
   31MOL0     C 4005   4.946   7.007   6.473  0.1951  0.1856  0.5538
   31MOL0     C 4006   5.084   7.027   6.492  0.2019 -0.1744 -0.2474
   31MOL0     O 4007   5.316   7.327   6.337 -0.5470  0.2003 -0.1794
   31MOL0     C 4008   5.531   7.248   6.608 -0.2362 -0.3894  0.4914
   31MOL0     C 4009   5.668   7.259   6.640  0.1281 -0.4699 -1.0203
   31MOL0     N 4010   6.260   7.084   6.901  0.4067 -0.5634  0.2936
   31MOL0     N 4011   6.344   6.984   6.909 -1.0251  1.1128 -0.0219
   31MOL0     C 4012   7.567   7.068   7.217  0.0767  1.2870 -1.0154
   31MOL0     C 4013   7.711   7.053   7.239  0.3250 -0.9452 -0.6965
   31MOL0     C 4014   8.150   7.003   7.147 -0.5769 -0.4026 -0.0254
   31MOL0     C 4015   8.234   7.109   7.178  0.0804  0.7580  0.2431
   31MOL0     C 4016   8.370   7.093   7.191 -0.0482 -0.1870 -1.0880
   31MOL0     C 4017   8.433   6.968   7.179 -0.3633 -0.0236 -0.0794
   31MOL0     O 4018   8.574   6.956   7.190 -0.2963 -0.0097 -0.3641
   31MOL0     C 4019   8.664   7.070   7.172  0.2085 -0.3944  0.3705
   31MOL0     C 4020   8.800   7.019   7.122 -0.5775 -0.1869 -0.3513
   31MOL0     C 4021   8.849   6.882   7.176 -0.4515  0.6033  0.1576
   31MOL0     C 4022   8.869   6.880   7.334 -0.0693 -0.2180 -0.2363
   31MOL0     C 4023   8.983   6.961   7.373 -0.2582  0.3500  0.1370
   31MOL0     C 4024   9.083   7.016   7.413  0.0180  0.3709 -0.8970
   31MOL0     C 4025   8.352   6.851   7.158 -0.5845  0.1151  0.5259
   31MOL0     C 4026   8.214   6.871   7.142  0.2985  0.8971 -0.4647
   31MOL0     H 4027   7.836   7.227   6.974 -1.8481  1.5741 -0.2567
   31MOL0     H 4028   7.593   7.228   6.922  0.7027 -0.3632 -0.3621
   31MOL0     H 4029   7.253   7.104   7.172 -1.4442 -2.6120 -0.1708
   31MOL0     H 4030   7.349   6.953   7.142 -3.8156 -2.0040  0.1133
   31MOL0     H 4031   7.278   6.965   6.916 -1.3537 -0.5148 -0.0842
   31MOL0     H 4032   7.137   7.069   6.968 -1.0359  0.9433  2.8717
   31MOL0     H 4033   7.069   6.900   7.131 -0.0197  1.1274 -0.6344
   31MOL0     H 4034   7.196   6.790   7.073  0.2248 -0.0319 -2.6384
   31MOL0     H 4035   7.088   6.819   6.841  0.9339 -0.9446  0.8408
   31MOL0     H 4036   7.006   6.724   6.970  1.0193 -0.0230 -0.1752
   31MOL0     H 4037   6.937   6.996   6.866 -0.8406 -0.5308 -2.9246
   31MOL0     H 4038   6.872   6.936   7.025 -1.0995  0.3484 -1.2200
   31MOL0     H 4039   6.753   6.746   6.899 -1.9272  0.5561 -0.0589
   31MOL0     H 4040   6.843   6.791   6.753  0.0133  2.6745 -0.6023
   31MOL0     H 4041   6.743   7.015   6.765 -2.1522  0.7009 -0.2772
   31MOL0     H 4042   6.642   6.871   6.737  2.9567 -2.4121  0.1871
   31MOL0     H 4043   6.639   7.036   7.003 -0.6194 -0.0939  1.3075
   31MOL0     H 4044   6.585   6.870   6.983  0.5933  0.3694 -0.3361
   31MOL0     H 4045   6.543   7.235   6.831 -0.7063  0.2903 -2.0711
   31MOL0     H 4046   6.347   7.351   6.705 -2.8626 -1.2966 -3.6728
   31MOL0     H 4047   6.250   7.396   6.856  0.1286  0.5232  0.0174
   31MOL0     H 4048   6.076   7.254   6.767  0.7929 -3.1374 -0.0975
   31MOL0     H 4049   6.172   7.217   6.620  3.2051 -2.0850  2.4969
   31MOL0     H 4050   6.071   7.490   6.700  1.3552 -1.3687  0.8831
   31MOL0     H 4051   6.188   7.458   6.567  4.1643 -1.1042  2.6038
   31MOL0     H 4052   6.014   7.311   6.457  0.9735  0.2664  0.4903
   31MOL0     H 4053   5.949   7.471   6.481  0.9724 -0.4044 -1.0877
   31MOL0     H 4054   5.790   7.395   6.353  0.3745 -3.1605 -2.0994
   31MOL0     H 4055   5.558   7.347   6.285  1.1399  0.6531 -0.4188
   31MOL0     H 4056   5.109   7.364   6.461  0.8925 -1.2431  2.6066
   31MOL0     H 4057   4.864   7.323   6.389  1.0440 -0.1843 -2.1051
   31MOL0     H 4058   4.665   7.280   6.444 -0.3171  0.0288  0.9352
   31MOL0     H 4059   4.578   7.137   6.498  0.3328  2.3950  0.7512
   31MOL0     H 4060   4.551   7.102   6.232  0.2515  0.7512 -0.4707
   31MOL0     H 4061   4.613   7.259   6.215 -1.5610 -2.1729 -2.6705
   31MOL0     H 4062   4.433   7.363   6.334 -0.7419  0.6505 -2.4155
   31MOL0     H 4063   4.365   7.194   6.378  0.0885 -0.2687 -0.8072
   31MOL0     H 4064   4.374   7.322   6.103 -0.3070 -0.3697  0.5400
   31MOL0     H 4065   4.319   7.160   6.144 -2.5754 -1.2703  4.1395
   31MOL0     H 4066   4.183   7.410   6.268  0.1476  0.2440  0.9379
   31MOL0     H 4067   4.138   7.243   6.280 -0.9004  0.9037  0.0860
   31MOL0     H 4068   4.128   7.223   6.032  1.0171  0.2073  0.4357
   31MOL0     H 4069   4.146   7.394   6.008  2.4734 -1.0014  0.0853
   31MOL0     H 4070   3.909   7.237   6.124  1.8004 -1.6672  3.1188
   31MOL0     H 4071   3.938   7.403   6.183  0.7267 -1.0286 -0.2568
   31MOL0     H 4072   3.770   7.397   5.999  0.3185 -1.0821 -0.6628
   31MOL0     H 4073   3.897   7.326   5.896 -0.5428  0.6659 -0.6244
   31MOL0     H 4074   4.893   6.912   6.466 -0.8696  0.8867 -1.7949
   31MOL0     H 4075   5.152   6.949   6.522  0.5270 -0.7754 -2.4198
   31MOL0     H 4076   5.467   7.213   6.688 -1.4617  1.8131  0.5655
   31MOL0     H 4077   5.700   7.223   6.737  0.4567 -1.5873 -1.5326
   31MOL0     H 4078   7.496   7.013   7.279 -2.0175  3.3626 -1.4347
   31MOL0     H 4079   7.757   6.994   7.318  2.3316  0.0745 -1.0525
   31MOL0     H 4080   8.207   7.214   7.172  1.7253  1.2734  1.1723
   31MOL0     H 4081   8.424   7.179   7.228 -0.4102 -0.6003  0.5197
   31MOL0     H 4082   8.681   7.133   7.260  3.2068  0.2691 -0.5588
   31MOL0     H 4083   8.611   7.133   7.100 -1.2646 -3.9190 -1.8835
   31MOL0     H 4084   8.785   7.023   7.014 -1.2251  0.1003 -0.2540
   31MOL0     H 4085   8.876   7.095   7.141  0.6768 -2.2784  4.6824
   31MOL0     H 4086   8.936   6.858   7.115 -1.2803  1.7894 -1.5641
   31MOL0     H 4087   8.772   6.808   7.151 -0.8700  0.9826  0.3089
   31MOL0     H 4088   8.779   6.901   7.392  0.4128  1.0851  0.0691
   31MOL0     H 4089   8.887   6.776   7.362 -0.4969 -0.3646 -0.4904
   31MOL0     H 4090   9.185   7.044   7.428  0.8620 -1.7582 -2.1186
   31MOL0     H 4091   8.400   6.753   7.160  0.8397  0.5745 -2.9351
   31MOL0     H 4092   8.156   6.782   7.119  2.0138  0.0130 -1.5175
   32MOL0     O 4093   2.535   6.891   9.499 -0.0144 -0.1328 -0.2337
   32MOL0     C 4094   2.552   6.947   9.393  0.1057 -0.1060  0.4740
   32MOL0     O 4095   2.460   6.964   9.290 -0.1869  0.3650  0.4619
   32MOL0     C 4096   2.332   6.928   9.314  0.6766  0.0929  0.4750
   32MOL0     C 4097   2.239   7.023   9.362  0.0243 -0.4966  0.1602
   32MOL0     C 4098   2.112   6.979   9.385 -0.9457 -0.0216  0.3605
   32MOL0     C 4099   2.074   6.839   9.370  0.3272  0.3288  0.2590
   32MOL0     O 4100   1.963   6.792   9.420  0.1220 -0.3583  0.2588
   32MOL0     C 4101   1.854   6.878   9.444  0.2558 -0.0350 -0.3405
   32MOL0     C 4102   1.730   6.811   9.504  0.0672  0.2280  0.3347
   32MOL0     C 4103   1.611   6.908   9.538 -0.1978  0.0457 -0.2164
   32MOL0     C 4104   1.483   6.827   9.569 -0.3373  0.4537  0.0204
   32MOL0     C 4105   1.390   6.916   9.640  0.8430 -0.7569  0.2421
   32MOL0     C 4106   1.275   6.836   9.671 -0.5465 -0.0369  1.1052
   32MOL0     C 4107   1.157   6.916   9.737  0.4758 -0.0332  0.3591
   32MOL0     C 4108   1.085   7.021   9.646  0.4502 -0.0792 -0.1103
   32MOL0     N 4109   1.027   6.964   9.530  0.2795  0.1887  0.4801
   32MOL0     C 4110   0.900   6.917   9.533 -0.1731  0.5613 -0.2182
   32MOL0     C 4111   0.861   6.895   9.406  0.1416  0.1857  0.0771
   32MOL0     C 4112   0.724   6.843   9.366  0.0646  0.4330  0.6814
   32MOL0     C 4113   0.661   6.952   9.265 -0.4258 -0.4146 -0.0004
   32MOL0     C 4114   0.529   6.896   9.206  0.2785  0.1802  0.4610
   32MOL0     C 4115   0.426   7.004   9.175 -0.4746 -0.1857  0.1619
   32MOL0     O 4116   0.325   6.938   9.100  0.4337  0.5139  0.0962
   32MOL0     C 4117   0.197   6.992   9.099  0.8585  0.1187 -0.4973
   32MOL0     C 4118   0.098   6.908   9.126  0.5175  0.4586 -0.3627
   32MOL0     C 4119  -0.036   6.955   9.124  0.6748  0.2175  1.2790
   32MOL0     C 4120  -0.074   7.086   9.103 -0.7344 -0.8764  0.8759
   32MOL0     C 4121  -0.210   7.120   9.086  1.1027  0.0234 -0.5972
   32MOL0     O 4122  -0.244   7.247   9.128  0.4297  0.1744  0.5021
   32MOL0     C 4123  -0.378   7.277   9.147 -0.2600 -0.3164  0.7608
   32MOL0     C 4124  -0.468   7.190   9.210 -0.4974 -0.0517 -0.1972
   32MOL0     C 4125  -0.602   7.213   9.192 -0.0339  0.0982  0.1485
   32MOL0     C 4126  -0.650   7.332   9.126  0.5469 -0.1090  0.1210
   32MOL0     O 4127  -0.787   7.348   9.086 -0.0064  0.0873 -0.1160
   32MOL0     C 4128  -0.894   7.275   9.148  0.2253  0.7367  0.1430
   32MOL0     C 4129  -1.023   7.354   9.098 -0.1466 -0.2929  0.2890
   32MOL0     C 4130  -1.159   7.290   9.142  0.1815 -0.3036  0.5630
   32MOL0     C 4131  -1.289   7.373   9.091 -0.2612  0.5139 -0.1069
   32MOL0     C 4132  -1.426   7.297   9.102  0.3333  0.3964  0.3446
   32MOL0     C 4133  -1.464   7.263   9.241  0.3086 -0.6387  0.4641
   32MOL0     C 4134  -1.602   7.221   9.238 -0.2908  0.3368 -0.3439
   32MOL0     C 4135  -1.665   7.206   9.386  0.2377  0.4221 -0.4215
   32MOL0    Cl 4136  -1.578   7.085   9.488  0.2449  0.7982  0.0475
   32MOL0     C 4137  -0.565   7.423   9.070 -0.3251 -0.0895  0.0553
   32MOL0     C 4138  -0.430   7.391   9.077  0.2767 -0.2191  0.6726
   32MOL0     O 4139  -0.283   7.040   9.036 -0.2463  0.2107 -0.6494
   32MOL0     C 4140   0.038   7.176   9.092 -0.0072  0.0148  0.2164
   32MOL0     C 4141   0.171   7.130   9.084 -0.0224  0.1288 -0.0836
   32MOL0     N 4142   0.968   6.941   9.328  0.2654  0.0153 -0.1067
   32MOL0     N 4143   1.055   6.991   9.404  0.7876 -0.8509  1.0833
   32MOL0     C 4144   2.169   6.747   9.315 -0.1679 -0.0171  0.0798
   32MOL0     C 4145   2.299   6.787   9.287  1.4490  0.1127 -0.1440
   32MOL0     C 4146   2.692   6.995   9.357  0.2298 -0.4327  0.4793
   32MOL0     C 4147   2.706   7.108   9.269  0.7005  0.1424 -1.0464
   32MOL0     C 4148   2.831   7.165   9.243  0.4887  0.3516 -0.3749
   32MOL0     C 4149   2.950   7.113   9.299  0.3174 -0.5379  0.1824
   32MOL0     O 4150   3.062   7.188   9.281  0.0734 -0.0927 -0.4126
   32MOL0     C 4151   3.157   7.118   9.203 -0.1789 -0.1949  0.1191
   32MOL0     C 4152   3.260   7.227   9.162  0.7740 -0.0351  0.9643
   32MOL0     C 4153   3.337   7.307   9.277 -0.4315  0.4280  0.7455
   32MOL0     C 4154   3.409   7.224   9.374  0.6312  0.8149  0.0613
   32MOL0     C 4155   3.455   7.292   9.494  0.3835 -0.3997 -0.8196
   32MOL0     C 4156   3.503   7.341   9.591  0.1991 -0.0586  0.3459
   32MOL0     C 4157   2.935   7.001   9.390  0.4552  0.0716 -0.0850
   32MOL0     C 4158   2.806   6.947   9.416  0.1283  0.0391 -0.8013
   32MOL0     H 4159   2.266   7.127   9.372  1.7296 -0.7850 -1.0285
   32MOL0     H 4160   2.044   7.059   9.412 -0.9676  0.1141 -0.0865
   32MOL0     H 4161   1.822   6.920   9.348 -0.1845 -2.6674 -1.4359
   32MOL0     H 4162   1.874   6.960   9.514 -3.3884  1.9473 -1.3091
   32MOL0     H 4163   1.742   6.738   9.585 -2.7477 -0.4279  0.2713
   32MOL0     H 4164   1.690   6.757   9.418 -0.4884  2.9966 -1.2702
   32MOL0     H 4165   1.589   6.983   9.461 -0.0107 -1.0099 -1.3359
   32MOL0     H 4166   1.630   6.977   9.621  0.9163 -2.1100  1.4215
   32MOL0     H 4167   1.438   6.795   9.474 -3.3438  1.0456  1.1540
   32MOL0     H 4168   1.503   6.748   9.642  2.8253  0.4726 -0.6685
   32MOL0     H 4169   1.368   6.992   9.564 -0.7431 -2.7936 -1.4717
   32MOL0     H 4170   1.432   6.976   9.721  0.6689  2.1755 -1.7078
   32MOL0     H 4171   1.302   6.752   9.735  0.8647 -2.2748 -2.1547
   32MOL0     H 4172   1.242   6.789   9.578  0.3928  0.8674  0.2853
   32MOL0     H 4173   1.090   6.836   9.770  0.7866 -0.3911  0.1348
   32MOL0     H 4174   1.190   6.967   9.827 -3.0063  1.3299  1.0006
   32MOL0     H 4175   1.157   7.098   9.617  0.1851  0.1279 -0.2154
   32MOL0     H 4176   1.014   7.058   9.721  0.5465 -1.3556  0.6560
   32MOL0     H 4177   0.835   6.885   9.614 -0.1809  3.7014  1.1235
   32MOL0     H 4178   0.657   6.854   9.451 -0.0589 -4.0060  1.3971
   32MOL0     H 4179   0.733   6.740   9.330 -2.3259  0.0091  1.1696
   32MOL0     H 4180   0.723   6.962   9.176 -1.3536  0.8569 -0.5153
   32MOL0     H 4181   0.660   7.049   9.316  0.6381 -0.0903 -0.5533
   32MOL0     H 4182   0.553   6.853   9.109 -0.4629  2.4076 -0.7866
   32MOL0     H 4183   0.478   6.823   9.269 -3.6089  1.2302 -1.1623
   32MOL0     H 4184   0.467   7.085   9.113  0.0362  0.6058  1.4855
   32MOL0     H 4185   0.395   7.038   9.274  0.9248 -1.7263  1.1944
   32MOL0     H 4186   0.112   6.801   9.137  1.0749  0.6697  1.1489
   32MOL0     H 4187  -0.116   6.885   9.149  0.5955 -0.5858 -0.9500
   32MOL0     H 4188  -0.426   7.110   9.270  0.0675 -1.9295 -2.9021
   32MOL0     H 4189  -0.673   7.138   9.224 -0.4021  0.3481 -0.0824
   32MOL0     H 4190  -0.883   7.288   9.256 -0.5783 -0.3229  0.3707
   32MOL0     H 4191  -0.903   7.170   9.118 -2.8062  1.0432 -0.3648
   32MOL0     H 4192  -1.014   7.369   8.990 -1.7910  0.9255  0.2917
   32MOL0     H 4193  -1.018   7.453   9.145 -0.1834 -0.5517  0.8417
   32MOL0     H 4194  -1.156   7.281   9.251  2.1193 -1.3187  0.4702
   32MOL0     H 4195  -1.175   7.195   9.090 -1.0459  1.4116 -2.3824
   32MOL0     H 4196  -1.313   7.460   9.153  1.7609  1.4935 -0.6061
   32MOL0     H 4197  -1.278   7.397   8.985  3.9434  2.3383  0.5677
   32MOL0     H 4198  -1.416   7.218   9.027  0.7696  2.3729 -1.7757
   32MOL0     H 4199  -1.504   7.359   9.057 -1.0701 -0.9901  0.7705
   32MOL0     H 4200  -1.456   7.344   9.315  0.1177 -0.4667  0.2984
   32MOL0     H 4201  -1.414   7.172   9.275 -0.2088 -0.8628  0.6432
   32MOL0     H 4202  -1.660   7.297   9.185  0.3583  2.0060  1.1994
   32MOL0     H 4203  -1.598   7.124   9.189 -0.9501 -1.2182  2.4681
   32MOL0     H 4204  -1.766   7.168   9.372  1.9215 -4.3181 -1.7224
   32MOL0     H 4205  -1.667   7.302   9.439  0.0018  0.2378 -0.0951
   32MOL0     H 4206  -0.603   7.511   9.019 -1.0903 -0.6736 -0.4175
   32MOL0     H 4207  -0.365   7.461   9.025  1.0074  0.1440  2.0389
   32MOL0     H 4208   0.015   7.281   9.098  0.4780  0.1710 -0.5081
   32MOL0     H 4209   0.256   7.197   9.076 -1.4763  1.9532 -0.9395
   32MOL0     H 4210   2.140   6.644   9.298 -1.6597  0.2512  0.8442
   32MOL0     H 4211   2.363   6.719   9.233  0.5962 -0.1459 -0.8488
   32MOL0     H 4212   2.610   7.144   9.234 -0.7782 -1.0261  1.4614
   32MOL0     H 4213   2.838   7.243   9.168  0.7810 -0.7644 -1.5589
   32MOL0     H 4214   3.107   7.072   9.118 -0.8702 -3.2286  1.9898
   32MOL0     H 4215   3.206   7.030   9.245  1.8930  1.3489  1.1562
   32MOL0     H 4216   3.331   7.169   9.103  1.4307 -0.0796  1.7797
   32MOL0     H 4217   3.197   7.290   9.098  0.1233 -0.0665  1.5598
   32MOL0     H 4218   3.261   7.357   9.337  1.1688  1.0767  2.3420
   32MOL0     H 4219   3.399   7.393   9.246 -0.8283  1.0281  1.5834
   32MOL0     H 4220   3.357   7.132   9.402 -0.4422  0.4576 -2.8231
   32MOL0     H 4221   3.502   7.195   9.323  1.1183  0.2906  1.2060
   32MOL0     H 4222   3.543   7.392   9.677  0.5707 -0.3262  0.3346
   32MOL0     H 4223   3.030   6.978   9.437  2.9811  2.7075 -3.3938
   32MOL0     H 4224   2.790   6.866   9.486 -0.2295 -0.2553 -1.2133
   33MOL0     O 4225  11.079   3.301   3.677  0.4656 -0.6442  0.0912
   33MOL0     C 4226  11.133   3.347   3.585 -0.2401  0.0960  0.4385
   33MOL0     O 4227  11.085   3.430   3.496  0.4726 -0.3478  0.2192
   33MOL0     C 4228  10.963   3.479   3.527  0.1074  0.2292  1.2840
   33MOL0     C 4229  10.870   3.499   3.424 -0.2032  0.0373  1.0447
   33MOL0     C 4230  10.747   3.554   3.442  0.2523  1.1124  0.0775
   33MOL0     C 4231  10.700   3.596   3.569 -1.1506 -0.9704  0.7807
   33MOL0     O 4232  10.562   3.628   3.578 -0.3652  0.3043  0.6647
   33MOL0     C 4233  10.524   3.670   3.706  0.2511 -0.2739 -0.2202
   33MOL0     C 4234  10.382   3.703   3.723 -0.3188 -0.0152 -0.0276
   33MOL0     C 4235  10.365   3.760   3.858  0.0638  0.3728 -0.2392
   33MOL0     C 4236  10.218   3.798   3.894  0.1745 -0.2420  0.0539
   33MOL0     C 4237  10.164   3.895   3.788 -1.2050 -0.5178 -0.4825
   33MOL0     C 4238  10.223   4.032   3.797  0.3461 -0.1933 -0.4448
   33MOL0     C 4239  10.180   4.137   3.699 -0.1586 -0.4422 -0.0741
   33MOL0     C 4240  10.043   4.195   3.719  0.7286 -0.4374 -0.5197
   33MOL0     N 4241  10.020   4.296   3.620 -0.1359 -0.5146  0.4931
   33MOL0     C 4242  10.001   4.271   3.485  0.0745 -1.2011 -0.8575
   33MOL0     C 4243   9.956   4.391   3.432  0.3988  0.2366  0.4808
   33MOL0     C 4244   9.913   4.406   3.293 -0.0347  0.5940  0.4918
   33MOL0     C 4245   9.760   4.391   3.282 -0.2765 -0.4327 -0.4937
   33MOL0     C 4246   9.696   4.521   3.335 -0.2659  0.3849  0.2951
   33MOL0     C 4247   9.541   4.521   3.310 -1.0510 -0.2267  0.3619
   33MOL0     O 4248   9.482   4.429   3.405  0.3477  0.1035 -0.5427
   33MOL0     C 4249   9.349   4.394   3.399 -0.2937  0.2240 -0.2471
   33MOL0     C 4250   9.256   4.490   3.426 -1.3286 -0.8109 -0.2800
   33MOL0     C 4251   9.120   4.455   3.439 -0.7090  0.5986  0.1421
   33MOL0     C 4252   9.079   4.318   3.419 -0.3842  0.2781  0.6379
   33MOL0     C 4253   8.935   4.279   3.426  0.2371  0.2686  0.0519
   33MOL0     O 4254   8.847   4.383   3.404 -0.0509 -0.3131  0.1787
   33MOL0     C 4255   8.710   4.361   3.424  0.5503  0.0805 -0.4865
   33MOL0     C 4256   8.621   4.437   3.344 -0.3481 -0.0230 -1.2405
   33MOL0     C 4257   8.485   4.411   3.353 -0.3178  0.4665  0.0906
   33MOL0     C 4258   8.423   4.317   3.427 -1.4773 -0.1556  0.0919
   33MOL0     O 4259   8.290   4.295   3.410 -0.1151  0.1131  0.8596
   33MOL0     C 4260   8.237   4.181   3.472 -0.6988  0.0464 -0.4067
   33MOL0     C 4261   8.083   4.175   3.450  0.3225  0.9840  0.7119
   33MOL0     C 4262   7.994   4.273   3.525  0.2896  0.0652  0.4815
   33MOL0     C 4263   7.844   4.249   3.483 -0.3979 -0.7958  0.4661
   33MOL0     C 4264   7.734   4.307   3.570  0.5972  0.0888  0.0014
   33MOL0     C 4265   7.592   4.313   3.514  0.2829  0.9289  0.0537
   33MOL0     C 4266   7.547   4.175   3.464  0.0350 -0.2025  0.1877
   33MOL0     C 4267   7.410   4.198   3.403  0.6465  0.1541 -0.2938
   33MOL0    Cl 4268   7.292   4.197   3.541 -0.1927 -0.0334  0.4061
   33MOL0     C 4269   8.511   4.238   3.508 -0.3580  0.1496  0.5934
   33MOL0     C 4270   8.649   4.266   3.511  0.2414  0.6798  0.2683
   33MOL0     O 4271   8.908   4.159   3.424  0.0302 -0.1248 -0.7763
   33MOL0     C 4272   9.179   4.220   3.389  0.4986 -0.2240 -0.5132
   33MOL0     C 4273   9.315   4.262   3.388  0.5182  0.0581 -0.4157
   33MOL0     N 4274   9.974   4.486   3.533 -0.0260 -0.6918  0.8207
   33MOL0     N 4275   9.998   4.425   3.651 -0.1841  0.1194  0.1396
   33MOL0     C 4276  10.796   3.584   3.670  0.2692  0.0216 -0.3265
   33MOL0     C 4277  10.929   3.536   3.649  0.3210 -0.7366 -0.0844
   33MOL0     C 4278  11.283   3.313   3.578 -0.1833 -0.2622 -0.1896
   33MOL0     C 4279  11.365   3.418   3.553  0.2733 -0.8642 -0.3187
   33MOL0     C 4280  11.501   3.381   3.529  1.1660 -0.2288 -1.1432
   33MOL0     C 4281  11.546   3.245   3.534 -0.0057  0.1831  0.0592
   33MOL0     O 4282  11.680   3.210   3.508  0.2010 -0.0220  0.1531
   33MOL0     C 4283  11.773   3.311   3.527 -0.1466 -1.3744 -0.5378
   33MOL0     C 4284  11.911   3.249   3.519  0.5351  0.2448 -0.0171
   33MOL0     C 4285  12.027   3.343   3.498 -0.0104  0.3716 -0.4925
   33MOL0     C 4286  12.155   3.268   3.480 -1.1586  0.0296 -0.2812
   33MOL0     C 4287  12.271   3.348   3.522 -0.1134 -0.3827  0.3984
   33MOL0     C 4288  12.367   3.402   3.575 -0.5849  0.0329 -0.3269
   33MOL0     C 4289  11.454   3.146   3.553 -0.1325 -0.5401 -0.2335
   33MOL0     C 4290  11.322   3.177   3.582  0.2974 -0.6275 -0.0329
   33MOL0     H 4291  10.883   3.470   3.320 -1.2293  0.0761  0.8989
   33MOL0     H 4292  10.684   3.561   3.354  0.5350  5.7396  0.0022
   33MOL0     H 4293  10.592   3.743   3.750  0.0291  1.2492 -2.2203
   33MOL0     H 4294  10.542   3.587   3.774  1.9910  2.0636  2.3842
   33MOL0     H 4295  10.324   3.610   3.718  1.6037 -1.3904  1.6975
   33MOL0     H 4296  10.351   3.766   3.639 -0.3990 -1.2465 -0.9511
   33MOL0     H 4297  10.432   3.840   3.890 -1.9716  1.1361  2.4349
   33MOL0     H 4298  10.393   3.686   3.934 -0.2049 -0.0293 -0.5288
   33MOL0     H 4299  10.153   3.711   3.882 -0.7749  0.5064 -0.4023
   33MOL0     H 4300  10.204   3.835   3.996  2.1051  0.4984  0.0982
   33MOL0     H 4301  10.058   3.909   3.812 -0.0371  3.2236  3.9028
   33MOL0     H 4302  10.163   3.859   3.684 -1.6611  0.2281 -0.7449
   33MOL0     H 4303  10.332   4.023   3.796  0.6800  2.8699 -1.9425
   33MOL0     H 4304  10.213   4.077   3.897  1.0213 -0.2938 -0.3269
   33MOL0     H 4305  10.254   4.214   3.675  1.1855 -2.8037 -4.7608
   33MOL0     H 4306  10.170   4.091   3.600  2.0953 -0.7537 -0.2006
   33MOL0     H 4307  10.042   4.223   3.825 -0.4029 -3.3127  0.3102
   33MOL0     H 4308   9.966   4.118   3.710  0.0157  0.1613  0.2592
   33MOL0     H 4309  10.017   4.178   3.430 -0.1771  0.0894 -3.2498
   33MOL0     H 4310   9.969   4.346   3.220 -0.0262  0.9465  0.2058
   33MOL0     H 4311   9.941   4.510   3.275  1.9057  0.3097  1.5227
   33MOL0     H 4312   9.733   4.305   3.344  0.5823 -1.1370 -1.0688
   33MOL0     H 4313   9.727   4.363   3.181 -0.3280 -3.2634  0.2357
   33MOL0     H 4314   9.718   4.525   3.442  2.3958 -2.3839  0.0012
   33MOL0     H 4315   9.750   4.606   3.294  0.8242  0.4822  1.8679
   33MOL0     H 4316   9.539   4.482   3.208 -2.4697 -2.4172  1.1599
   33MOL0     H 4317   9.496   4.620   3.308 -3.4914 -1.2806 -1.0309
   33MOL0     H 4318   9.272   4.596   3.443  0.8052 -1.5092  3.0983
   33MOL0     H 4319   9.054   4.536   3.471 -1.1902  1.3482 -2.4903
   33MOL0     H 4320   8.671   4.508   3.279  2.2902  0.3196  0.9770
   33MOL0     H 4321   8.409   4.477   3.312 -1.8015 -0.2713  1.5775
   33MOL0     H 4322   8.239   4.199   3.580  0.1981  2.7161 -0.7846
   33MOL0     H 4323   8.295   4.094   3.439 -0.9030  0.5794 -2.3195
   33MOL0     H 4324   8.044   4.075   3.467 -1.0272  1.3333 -0.0846
   33MOL0     H 4325   8.074   4.181   3.341  2.3256 -2.4724  0.2270
   33MOL0     H 4326   8.012   4.376   3.495 -2.0851  0.3543 -0.1428
   33MOL0     H 4327   8.007   4.259   3.633 -1.9792 -0.2778  0.7569
   33MOL0     H 4328   7.833   4.280   3.379  2.0053  1.0391  0.6802
   33MOL0     H 4329   7.828   4.141   3.486  0.4114 -1.5108 -5.9439
   33MOL0     H 4330   7.758   4.408   3.603 -0.2459 -0.0838  1.2295
   33MOL0     H 4331   7.733   4.245   3.661  0.1965 -1.0916 -0.7796
   33MOL0     H 4332   7.597   4.385   3.432  1.2862  0.9588  0.1307
   33MOL0     H 4333   7.528   4.355   3.592 -1.2807  1.3417 -1.3743
   33MOL0     H 4334   7.614   4.132   3.389  0.8759 -1.3629  1.5707
   33MOL0     H 4335   7.534   4.112   3.552 -3.1845  1.8170  1.3662
   33MOL0     H 4336   7.381   4.109   3.347 -0.8866  1.4331 -1.6683
   33MOL0     H 4337   7.397   4.281   3.333  0.4493  0.0950 -0.3293
   33MOL0     H 4338   8.464   4.162   3.570 -1.8723  2.7607  2.9002
   33MOL0     H 4339   8.703   4.210   3.587 -0.7021 -0.2032  0.3053
   33MOL0     H 4340   9.162   4.118   3.356 -1.2594 -0.3538  0.6656
   33MOL0     H 4341   9.381   4.179   3.365 -1.8805 -2.5193  1.3528
   33MOL0     H 4342  10.766   3.629   3.764 -3.4167  0.0570 -1.3846
   33MOL0     H 4343  10.999   3.532   3.731  0.6481  0.9948 -0.2371
   33MOL0     H 4344  11.324   3.518   3.538  1.8384 -0.4198 -1.9635
   33MOL0     H 4345  11.581   3.453   3.517  0.3704  0.7753 -0.6095
   33MOL0     H 4346  11.766   3.355   3.627  2.4978 -0.3399 -0.7321
   33MOL0     H 4347  11.767   3.389   3.451 -0.0870  1.9219  2.5627
   33MOL0     H 4348  11.923   3.188   3.610  1.1172  2.1502  1.2391
   33MOL0     H 4349  11.909   3.184   3.432  0.1555  2.3309 -1.6366
   33MOL0     H 4350  12.037   3.413   3.581 -0.2694 -1.5701  1.2611
   33MOL0     H 4351  12.009   3.394   3.402  1.3473 -0.4954 -1.2327
   33MOL0     H 4352  12.163   3.189   3.555  0.2373  1.6954  1.4411
   33MOL0     H 4353  12.161   3.240   3.375 -2.7329 -0.9465 -0.1390
   33MOL0     H 4354  12.446   3.446   3.631  1.4850 -2.1908 -1.3249
   33MOL0     H 4355  11.494   3.046   3.541 -1.4847 -1.1147 -0.1664
   33MOL0     H 4356  11.257   3.095   3.609  1.1616 -0.9355  1.2339
   34MOL0     O 4357  11.170   3.676   1.192  0.4374  0.2725 -0.7022
   34MOL0     C 4358  11.179   3.579   1.271  0.2601  0.3694 -0.5787
   34MOL0     O 4359  11.075   3.516   1.329  1.3384 -0.0333  0.3544
   34MOL0     C 4360  10.971   3.488   1.253 -0.1970  0.1491 -0.8731
   34MOL0     C 4361  10.984   3.462   1.116 -0.4814  0.1543 -0.1961
   34MOL0     C 4362  10.870   3.422   1.044  0.2458 -0.3223 -0.5478
   34MOL0     C 4363  10.743   3.413   1.107  0.1563 -0.6053 -0.1614
   34MOL0     O 4364  10.636   3.396   1.030  0.4054 -0.1067 -0.0757
   34MOL0     C 4365  10.507   3.352   1.074  0.2441  0.5627  0.3287
   34MOL0     C 4366  10.421   3.467   1.107  0.4142 -0.1885  0.4550
   34MOL0     C 4367  10.272   3.433   1.128 -0.1568 -1.3859  0.0462
   34MOL0     C 4368  10.187   3.556   1.106  1.2635  0.7266  0.8696
   34MOL0     C 4369  10.037   3.525   1.147 -0.0722  0.1666 -0.4996
   34MOL0     C 4370   9.973   3.402   1.082 -0.3726 -0.1053  0.5048
   34MOL0     C 4371   9.824   3.415   1.091  0.1372 -0.0081  0.7000
   34MOL0     C 4372   9.757   3.296   1.025  0.2487 -0.6230  0.6246
   34MOL0     N 4373   9.607   3.300   1.033  0.0562  0.2998 -0.2713
   34MOL0     C 4374   9.523   3.210   0.978  0.2804  0.0872  0.0830
   34MOL0     C 4375   9.397   3.244   1.023 -0.1747  0.2279 -0.1058
   34MOL0     C 4376   9.273   3.168   1.010  0.6058 -0.1494  0.0122
   34MOL0     C 4377   9.145   3.227   1.068  0.4657 -0.0133 -0.1524
   34MOL0     C 4378   9.084   3.335   0.972 -0.0938  0.0119 -0.7763
   34MOL0     C 4379   8.943   3.387   1.009  0.4358  0.0993 -1.1039
   34MOL0     O 4380   8.857   3.273   1.008 -0.0668  0.5131 -0.2565
   34MOL0     C 4381   8.727   3.294   1.039 -0.0461  0.2350  0.1891
   34MOL0     C 4382   8.680   3.392   1.123 -0.0653 -0.1229  0.4005
   34MOL0     C 4383   8.549   3.385   1.167 -0.8205 -0.4023 -0.7596
   34MOL0     C 4384   8.453   3.299   1.104 -0.2258  0.3565  0.1737
   34MOL0     C 4385   8.303   3.305   1.138 -0.4706  0.8100 -0.1081
   34MOL0     O 4386   8.266   3.407   1.229  0.0437  0.1149 -0.0330
   34MOL0     C 4387   8.133   3.431   1.265 -0.7601  0.5745  0.5982
   34MOL0     C 4388   8.135   3.522   1.372  0.6110 -1.0334  0.1710
   34MOL0     C 4389   8.016   3.576   1.428 -0.7048  0.4856 -0.6539
   34MOL0     C 4390   7.893   3.530   1.376  0.9097 -0.4596  0.4128
   34MOL0     O 4391   7.774   3.576   1.433  0.1231 -0.3743  0.7021
   34MOL0     C 4392   7.646   3.528   1.397  0.2358  0.4318  0.7139
   34MOL0     C 4393   7.587   3.591   1.271  0.0778 -0.5714  0.0879
   34MOL0     C 4394   7.463   3.516   1.229  0.4104 -0.3788  0.5216
   34MOL0     C 4395   7.389   3.607   1.123 -0.3727  0.8356 -0.7098
   34MOL0     C 4396   7.250   3.543   1.097  0.6960 -0.7077  0.7270
   34MOL0     C 4397   7.176   3.616   0.984  0.3561  0.0923 -0.0747
   34MOL0     C 4398   7.036   3.576   0.947  0.5887 -0.3264 -0.3892
   34MOL0     C 4399   6.998   3.642   0.810 -0.0456 -0.7691  0.0112
   34MOL0    Cl 4400   7.027   3.520   0.684  0.2648  0.4043  0.1832
   34MOL0     C 4401   7.895   3.439   1.275  0.0735 -0.7006  0.4280
   34MOL0     C 4402   8.012   3.385   1.221 -0.2659 -0.4787  0.2268
   34MOL0     O 4403   8.227   3.228   1.083  0.9079  0.0013 -0.1169
   34MOL0     C 4404   8.506   3.214   1.010  0.2046  0.5395  0.1692
   34MOL0     C 4405   8.640   3.201   0.983  0.4761  0.9338 -0.1952
   34MOL0     N 4406   9.408   3.363   1.096 -0.6863  0.2620  0.0368
   34MOL0     N 4407   9.537   3.394   1.100 -0.0911  0.7236 -0.2317
   34MOL0     C 4408  10.730   3.450   1.251 -0.9060 -0.0972  0.9795
   34MOL0     C 4409  10.847   3.491   1.315 -0.1475  0.3104  0.5600
   34MOL0     C 4410  11.318   3.535   1.308  0.0560 -0.4430  0.5651
   34MOL0     C 4411  11.341   3.425   1.386  0.1123 -0.3093  0.2837
   34MOL0     C 4412  11.477   3.400   1.429 -0.4024  0.0390 -0.7349
   34MOL0     C 4413  11.587   3.477   1.388  0.4760  0.1750  0.2173
   34MOL0     O 4414  11.711   3.430   1.420 -0.2088  0.5726 -0.0757
   34MOL0     C 4415  11.823   3.520   1.387 -0.0428 -0.0836 -0.6112
   34MOL0     C 4416  11.934   3.471   1.488  1.5942 -0.1418  0.8806
   34MOL0     C 4417  12.050   3.564   1.488  0.2147  1.1138 -0.1053
   34MOL0     C 4418  12.174   3.516   1.568  0.5806 -0.1931  0.0890
   34MOL0     C 4419  12.159   3.519   1.714  0.3754 -0.2245 -0.2462
   34MOL0     C 4420  12.170   3.532   1.840  1.5422  0.6456 -0.1043
   34MOL0     C 4421  11.549   3.581   1.302  0.0008 -0.4446 -0.5355
   34MOL0     C 4422  11.423   3.619   1.270 -0.8351  0.9696 -0.3515
   34MOL0     H 4423  11.085   3.455   1.079 -0.1152  0.9770  0.6021
   34MOL0     H 4424  10.867   3.405   0.937 -2.0464 -1.7966 -0.3482
   34MOL0     H 4425  10.524   3.300   1.168 -0.5564  3.9315  2.5230
   34MOL0     H 4426  10.462   3.279   1.005  1.0747  0.0098  0.3679
   34MOL0     H 4427  10.437   3.529   1.018  1.9748 -0.1997  0.6981
   34MOL0     H 4428  10.447   3.526   1.196 -3.3823 -0.3621  1.8742
   34MOL0     H 4429  10.258   3.380   1.223  2.4180 -3.1800 -0.4698
   34MOL0     H 4430  10.243   3.365   1.047 -0.4647 -1.1799 -0.0180
   34MOL0     H 4431  10.222   3.638   1.169  0.6081  0.9626  0.9331
   34MOL0     H 4432  10.194   3.584   1.001 -0.2390 -0.1740  0.4917
   34MOL0     H 4433   9.984   3.618   1.125  1.4291  1.2427  0.2573
   34MOL0     H 4434  10.042   3.520   1.257  2.9354 -0.6167 -0.5863
   34MOL0     H 4435  10.001   3.309   1.133 -0.8811 -0.9979 -0.7982
   34MOL0     H 4436   9.999   3.397   0.975  0.2521  0.9817  0.5922
   34MOL0     H 4437   9.788   3.416   1.194 -1.9695  0.1299 -0.0017
   34MOL0     H 4438   9.785   3.497   1.030  0.2989 -2.6775 -3.3685
   34MOL0     H 4439   9.787   3.201   1.071 -0.3625 -1.2922 -0.3281
   34MOL0     H 4440   9.792   3.298   0.921 -0.6159  0.6561  0.3377
   34MOL0     H 4441   9.548   3.129   0.910  0.1414  0.6963 -0.7138
   34MOL0     H 4442   9.290   3.066   1.043  1.5135  0.2956  0.9676
   34MOL0     H 4443   9.258   3.172   0.901  3.5122  0.7854 -0.4342
   34MOL0     H 4444   9.167   3.263   1.169 -2.5964 -1.3972  1.1280
   34MOL0     H 4445   9.076   3.143   1.074 -1.6154  1.6007 -0.4611
   34MOL0     H 4446   9.159   3.415   0.969 -0.6642  0.6490  0.8811
   34MOL0     H 4447   9.068   3.279   0.879  0.5450 -1.1958 -0.1720
   34MOL0     H 4448   8.917   3.472   0.946  1.3119  1.7903  0.7041
   34MOL0     H 4449   8.948   3.433   1.108 -2.3045 -0.3762 -0.6724
   34MOL0     H 4450   8.733   3.479   1.161 -1.2140  0.1210  1.4956
   34MOL0     H 4451   8.512   3.456   1.240 -0.3637 -0.8544 -0.0711
   34MOL0     H 4452   8.227   3.568   1.407  0.2769  1.2505 -1.7010
   34MOL0     H 4453   8.018   3.650   1.507  1.6550 -0.6500  0.4689
   34MOL0     H 4454   7.576   3.552   1.477  0.4637 -1.6453  1.6016
   34MOL0     H 4455   7.634   3.420   1.393 -1.9560  0.6456  0.2797
   34MOL0     H 4456   7.658   3.612   1.190  1.3954  1.6486  1.6894
   34MOL0     H 4457   7.555   3.691   1.304 -0.5805 -0.3537 -1.1589
   34MOL0     H 4458   7.399   3.490   1.314 -1.7045 -0.5782 -1.0303
   34MOL0     H 4459   7.483   3.427   1.169  2.9604  0.3587  0.1481
   34MOL0     H 4460   7.375   3.707   1.165 -0.1364 -0.1543  1.9710
   34MOL0     H 4461   7.449   3.632   1.035  2.4405  0.1196  0.8709
   34MOL0     H 4462   7.191   3.535   1.188 -2.3989 -0.3195 -1.1236
   34MOL0     H 4463   7.254   3.440   1.060  0.0180 -1.1052  1.7491
   34MOL0     H 4464   7.236   3.608   0.893  0.6250  0.0644  0.1040
   34MOL0     H 4465   7.180   3.718   1.025 -2.2947  0.3756 -0.3759
   34MOL0     H 4466   7.033   3.467   0.939 -2.5219 -0.2555 -1.4390
   34MOL0     H 4467   6.966   3.600   1.027  1.8622  2.1261  0.0907
   34MOL0     H 4468   7.047   3.735   0.780 -1.3394 -0.7664 -2.3443
   34MOL0     H 4469   6.890   3.657   0.816 -0.1462 -1.7105  0.8606
   34MOL0     H 4470   7.795   3.412   1.243 -0.3762  2.7358 -1.5320
   34MOL0     H 4471   8.002   3.304   1.149  0.2246  1.6234 -2.3426
   34MOL0     H 4472   8.439   3.147   0.957 -3.3777  0.8180  3.8756
   34MOL0     H 4473   8.679   3.127   0.913 -0.7080  0.6011 -0.5279
   34MOL0     H 4474  10.636   3.457   1.305 -0.5255  2.4163  1.4431
   34MOL0     H 4475  10.847   3.516   1.420 -2.0727  2.5043  0.1041
   34MOL0     H 4476  11.266   3.351   1.408  1.5177 -1.9543 -0.2453
   34MOL0     H 4477  11.484   3.312   1.492 -2.0095 -0.6408 -1.4354
   34MOL0     H 4478  11.801   3.622   1.420 -1.1723 -0.6530  0.4625
   34MOL0     H 4479  11.854   3.521   1.282 -1.8988  1.1836 -1.1994
   34MOL0     H 4480  11.904   3.474   1.593  0.8652 -0.1724  0.6745
   34MOL0     H 4481  11.965   3.369   1.465 -1.1393 -1.5574  2.8557
   34MOL0     H 4482  12.007   3.657   1.527 -0.0088  1.1478 -0.4285
   34MOL0     H 4483  12.078   3.579   1.383 -0.7278  0.1969 -0.5104
   34MOL0     H 4484  12.203   3.416   1.536 -2.9515 -2.2549  2.6167
   34MOL0     H 4485  12.258   3.581   1.543 -0.4369  0.7053 -1.0992
   34MOL0     H 4486  12.207   3.547   1.939  0.4621 -2.9902  0.9918
   34MOL0     H 4487  11.632   3.642   1.267 -0.0492 -0.3091 -0.4136
   34MOL0     H 4488  11.409   3.710   1.212  1.3853  0.7376 -1.3288
   35MOL0     O 4489   0.731   6.705   7.223  0.9694  0.5830  0.0927
   35MOL0     C 4490   0.652   6.775   7.288 -0.8392  0.2557 -0.0729
   35MOL0     O 4491   0.520   6.783   7.255  0.3165 -0.4129 -0.4728
   35MOL0     C 4492   0.483   6.726   7.131 -0.4213  0.0110 -0.4811
   35MOL0     C 4493   0.491   6.584   7.111  0.4466 -0.1071  0.7428
   35MOL0     C 4494   0.441   6.531   6.988  0.0886 -0.1443  0.1129
   35MOL0     C 4495   0.390   6.616   6.887  0.5550  0.7100 -0.4873
   35MOL0     O 4496   0.357   6.557   6.769 -0.0194  0.3005 -0.2751
   35MOL0     C 4497   0.265   6.618   6.679  0.0134  0.2365  0.2012
   35MOL0     C 4498   0.166   6.503   6.646  0.0667  0.1464 -1.0559
   35MOL0     C 4499   0.085   6.550   6.519  0.3588 -0.2146  0.7700
   35MOL0     C 4500   0.022   6.417   6.468  0.7937 -0.2419 -0.1474
   35MOL0     C 4501  -0.061   6.442   6.342 -0.0076 -0.5245  0.2663
   35MOL0     C 4502  -0.155   6.320   6.300 -0.5054  0.2945 -0.0280
   35MOL0     C 4503  -0.222   6.370   6.169 -0.8314 -0.3751 -0.3732
   35MOL0     C 4504  -0.339   6.286   6.124 -0.6113  0.1369  0.9212
   35MOL0     N 4505  -0.452   6.302   6.220  0.6444  0.3510 -0.2792
   35MOL0     C 4506  -0.550   6.395   6.217  0.2093 -0.3297  1.6100
   35MOL0     C 4507  -0.642   6.359   6.306 -0.6550 -0.0432 -0.1594
   35MOL0     C 4508  -0.772   6.436   6.335 -0.4794  0.6030  0.2105
   35MOL0     C 4509  -0.888   6.338   6.374 -0.3542  0.7938  0.4038
   35MOL0     C 4510  -1.017   6.408   6.413 -0.5143 -0.5776 -0.0857
   35MOL0     C 4511  -1.091   6.330   6.507 -0.2815  0.1558 -0.1237
   35MOL0     O 4512  -1.221   6.383   6.526  0.8504  0.1327 -0.2137
   35MOL0     C 4513  -1.327   6.302   6.556 -0.3626 -0.7718 -0.1316
   35MOL0     C 4514  -1.450   6.343   6.510  0.6253  0.7560 -0.5321
   35MOL0     C 4515  -1.554   6.258   6.527  0.8938 -0.6019  0.0780
   35MOL0     C 4516  -1.549   6.134   6.584  0.1462 -0.1762  0.7310
   35MOL0     C 4517  -1.664   6.052   6.612 -0.3510 -0.6915  0.0580
   35MOL0     O 4518  -1.775   6.062   6.530 -0.1627  0.6686  0.5692
   35MOL0     C 4519  -1.897   6.017   6.557 -1.0418  0.3914  0.1147
   35MOL0     C 4520  -1.927   5.896   6.637 -0.4708  0.4069 -0.8214
   35MOL0     C 4521  -2.061   5.866   6.654 -0.2890 -0.1664  0.2167
   35MOL0     C 4522  -2.163   5.954   6.607  0.5116  0.2556 -0.1336
   35MOL0     O 4523  -2.293   5.928   6.621  0.0941 -0.0403 -0.3763
   35MOL0     C 4524  -2.324   5.809   6.696  0.1111  0.9439 -0.7014
   35MOL0     C 4525  -2.474   5.813   6.738 -0.1846  0.8542  0.1147
   35MOL0     C 4526  -2.515   5.946   6.800 -0.5161  0.1097 -1.1135
   35MOL0     C 4527  -2.666   5.947   6.828 -0.5430  0.1748  0.3068
   35MOL0     C 4528  -2.704   6.058   6.928 -0.4511  0.3105  0.6903
   35MOL0     C 4529  -2.848   6.080   6.969 -0.1277 -0.1793  0.3422
   35MOL0     C 4530  -2.943   5.955   6.965  0.0507 -0.7153  0.0615
   35MOL0     C 4531  -3.086   5.999   6.998 -0.5655  0.5626  0.0204
   35MOL0    Cl 4532  -3.170   6.111   6.882  0.4862  0.3931  0.2893
   35MOL0     C 4533  -2.129   6.069   6.542  0.5408 -0.1062 -0.3278
   35MOL0     C 4534  -2.001   6.103   6.520 -0.4314 -0.1721  0.2458
   35MOL0     O 4535  -1.654   5.990   6.717  0.6563 -0.0512  0.2714
   35MOL0     C 4536  -1.421   6.113   6.645  0.3134 -0.0960  0.4225
   35MOL0     C 4537  -1.311   6.194   6.632  0.4346  1.3651  0.9461
   35MOL0     N 4538  -0.596   6.250   6.378  0.4388  0.3618  0.4005
   35MOL0     N 4539  -0.480   6.212   6.326  0.1826 -0.5710 -0.1676
   35MOL0     C 4540   0.378   6.753   6.931  0.4048  0.5325  0.1350
   35MOL0     C 4541   0.426   6.814   7.047  0.0711 -0.0752  0.2634
   35MOL0     C 4542   0.711   6.844   7.405  0.1043  0.5969  0.6088
   35MOL0     C 4543   0.847   6.873   7.402 -0.4752  0.7098 -0.6695
   35MOL0     C 4544   0.912   6.937   7.504  0.2093  0.1600 -0.1076
   35MOL0     C 4545   0.846   6.953   7.630 -0.3979  0.1847  0.4315
   35MOL0     O 4546   0.926   6.993   7.738 -0.5662  0.0951  0.4626
   35MOL0     C 4547   0.877   7.019   7.865 -0.4695 -0.6140 -0.7646
   35MOL0     C 4548   0.984   7.096   7.949  0.2201  0.2093  0.0086
   35MOL0     C 4549   0.939   7.150   8.080 -0.6485 -0.1407  1.0042
   35MOL0     C 4550   0.870   7.049   8.172  0.3709  0.0689  0.1377
   35MOL0     C 4551   0.960   6.943   8.222  0.3688  0.3435  0.3625
   35MOL0     C 4552   1.043   6.854   8.244 -0.0183 -0.6391 -0.4245
   35MOL0     C 4553   0.708   6.926   7.632  0.7220 -0.8063  0.3919
   35MOL0     C 4554   0.643   6.874   7.520  0.6339 -0.1056  0.1789
   35MOL0     H 4555   0.536   6.523   7.189  0.0365  1.4340  2.2612
   35MOL0     H 4556   0.429   6.423   6.980 -2.1393  0.0676 -0.1126
   35MOL0     H 4557   0.317   6.652   6.588 -2.0862  1.1102 -0.7332
   35MOL0     H 4558   0.215   6.701   6.729 -0.1966  1.0007 -1.2107
   35MOL0     H 4559   0.101   6.487   6.733  2.9065 -1.0442  1.0151
   35MOL0     H 4560   0.219   6.410   6.623  0.6748  0.3754 -0.6356
   35MOL0     H 4561   0.154   6.586   6.443  1.0355  0.0567  1.4959
   35MOL0     H 4562   0.012   6.624   6.552  1.8998  0.6042  2.5080
   35MOL0     H 4563   0.098   6.342   6.445  0.6667 -0.5696  0.4729
   35MOL0     H 4564  -0.047   6.376   6.543 -0.6952  1.9543 -0.2473
   35MOL0     H 4565   0.004   6.468   6.258  0.8629 -0.6604  0.8740
   35MOL0     H 4566  -0.130   6.523   6.363 -1.6637 -0.7231 -3.6109
   35MOL0     H 4567  -0.224   6.303   6.383  0.2233 -2.0128  0.1728
   35MOL0     H 4568  -0.098   6.229   6.282  0.0191  0.7926 -0.9298
   35MOL0     H 4569  -0.265   6.467   6.196  0.8866 -0.1689  1.9323
   35MOL0     H 4570  -0.147   6.375   6.090  2.8790 -0.9404  2.8548
   35MOL0     H 4571  -0.316   6.181   6.104 -0.3888  0.4356 -0.5236
   35MOL0     H 4572  -0.367   6.321   6.024  2.7343  0.8954  0.1415
   35MOL0     H 4573  -0.559   6.473   6.141  1.7198  0.9604  2.7033
   35MOL0     H 4574  -0.805   6.491   6.246  0.0527  2.8105  1.3380
   35MOL0     H 4575  -0.760   6.505   6.418  1.9260  0.7862 -0.2064
   35MOL0     H 4576  -0.841   6.284   6.457  1.6113  2.5291  0.5178
   35MOL0     H 4577  -0.917   6.270   6.294 -0.9918  0.1888  1.1347
   35MOL0     H 4578  -1.000   6.506   6.458  2.3283 -0.3095 -1.4811
   35MOL0     H 4579  -1.077   6.427   6.323 -1.2927 -4.5955 -0.6094
   35MOL0     H 4580  -1.041   6.330   6.605  1.3906 -0.0667 -0.9318
   35MOL0     H 4581  -1.089   6.228   6.469  4.0744 -2.0075  4.7177
   35MOL0     H 4582  -1.451   6.430   6.445  2.5490 -0.2749 -2.0380
   35MOL0     H 4583  -1.650   6.291   6.489  1.8097  3.3701  0.7598
   35MOL0     H 4584  -1.847   5.839   6.682  0.9984  1.5532 -1.8726
   35MOL0     H 4585  -2.083   5.777   6.712 -2.0481  0.3124  0.3395
   35MOL0     H 4586  -2.267   5.804   6.789 -0.5019  2.4196 -0.2181
   35MOL0     H 4587  -2.313   5.712   6.645  3.1738 -0.2397  1.8323
   35MOL0     H 4588  -2.479   5.728   6.807  0.7087 -2.6786 -3.7934
   35MOL0     H 4589  -2.542   5.790   6.656  0.9346  1.4476 -1.0157
   35MOL0     H 4590  -2.484   6.028   6.735  1.4456 -2.7439 -4.0735
   35MOL0     H 4591  -2.460   5.957   6.894 -1.1232 -0.6969 -0.6554
   35MOL0     H 4592  -2.720   5.952   6.733  0.3103 -0.9973 -0.2583
   35MOL0     H 4593  -2.688   5.854   6.881 -0.6236  0.1328  0.2008
   35MOL0     H 4594  -2.670   6.158   6.898 -0.0221 -0.1337 -0.3401
   35MOL0     H 4595  -2.645   6.041   7.019  1.0507 -2.9778 -0.7453
   35MOL0     H 4596  -2.888   6.148   6.893 -0.1933 -1.5745 -0.9343
   35MOL0     H 4597  -2.856   6.134   7.064  1.6466 -3.2782  2.4316
   35MOL0     H 4598  -2.951   5.912   6.865 -0.9559 -0.8930  0.2114
   35MOL0     H 4599  -2.907   5.877   7.032 -0.1168 -0.5579  0.3376
   35MOL0     H 4600  -3.075   6.059   7.089 -2.3467  1.1603 -0.1374
   35MOL0     H 4601  -3.150   5.912   7.016 -0.6862  0.4626 -0.8577
   35MOL0     H 4602  -2.221   6.116   6.508 -0.0489 -1.1674 -0.2195
   35MOL0     H 4603  -1.995   6.193   6.459  0.6552 -2.1002 -2.7483
   35MOL0     H 4604  -1.396   6.016   6.688  0.2798  0.2448  1.2421
   35MOL0     H 4605  -1.213   6.180   6.678  1.1832  1.3199 -0.5958
   35MOL0     H 4606   0.324   6.812   6.857 -0.4041 -1.0539 -0.6188
   35MOL0     H 4607   0.401   6.916   7.073 -0.5124  0.0762 -0.8118
   35MOL0     H 4608   0.901   6.851   7.311 -0.8548  0.4265 -0.8253
   35MOL0     H 4609   1.017   6.966   7.504  0.2240  0.1326 -0.8050
   35MOL0     H 4610   0.855   6.922   7.911  0.1116 -0.0034  0.8669
   35MOL0     H 4611   0.787   7.080   7.853 -1.1683 -1.4179  0.2620
   35MOL0     H 4612   1.060   7.019   7.962 -1.4441 -1.2115  1.9810
   35MOL0     H 4613   1.022   7.181   7.891  0.0558  1.7555  2.0334
   35MOL0     H 4614   0.873   7.231   8.051  1.8416  0.7305 -2.9349
   35MOL0     H 4615   1.023   7.187   8.140  0.6490 -0.9035 -0.2627
   35MOL0     H 4616   0.843   7.098   8.266  1.1570 -0.0659  0.4384
   35MOL0     H 4617   0.784   7.008   8.118 -0.5991  2.1081  0.0683
   35MOL0     H 4618   1.111   6.773   8.258 -0.8123 -1.1523  0.5362
   35MOL0     H 4619   0.648   6.956   7.718 -1.5259 -2.0271 -0.6461
   35MOL0     H 4620   0.536   6.854   7.519  0.3909  1.1049 -1.8567
   36MOL0     O 4621   9.918   1.643   1.333  0.4819  1.1678  0.1504
   36MOL0     C 4622   9.985   1.721   1.271 -0.4770 -0.7336  0.4667
   36MOL0     O 4623   9.937   1.827   1.198  0.0938 -0.1467  0.2035
   36MOL0     C 4624   9.809   1.871   1.216 -0.8825 -0.3202  0.4014
   36MOL0     C 4625   9.749   1.883   1.343  0.3313 -0.1604 -0.1471
   36MOL0     C 4626   9.618   1.931   1.359 -0.3645  0.0992 -0.0252
   36MOL0     C 4627   9.550   1.971   1.247  0.1280  0.5345 -0.4404
   36MOL0     O 4628   9.421   2.019   1.253 -0.6729 -0.5839 -0.8929
   36MOL0     C 4629   9.322   1.941   1.317  0.2205 -0.1130  1.0413
   36MOL0     C 4630   9.190   1.941   1.228 -0.7692  0.7261  0.3405
   36MOL0     C 4631   9.119   2.074   1.228  1.0790  0.5017  0.2655
   36MOL0     C 4632   8.960   2.074   1.182 -0.0095  0.1121 -0.1577
   36MOL0     C 4633   8.862   2.016   1.275 -0.3110  0.1187  0.1315
   36MOL0     C 4634   8.733   1.983   1.204 -0.2114 -0.4224  1.1563
   36MOL0     C 4635   8.624   1.960   1.305  0.8136 -0.0451 -0.2297
   36MOL0     C 4636   8.480   1.951   1.250  0.2387 -0.1026  0.2051
   36MOL0     N 4637   8.432   2.082   1.195  0.7480  0.0702  0.0072
   36MOL0     C 4638   8.460   2.136   1.076  1.2901 -0.0052  1.0463
   36MOL0     C 4639   8.430   2.268   1.083 -0.1295  0.2598 -0.0391
   36MOL0     C 4640   8.460   2.362   0.970 -0.5344 -0.2252 -1.1073
   36MOL0     C 4641   8.583   2.444   1.008  0.4195  0.4003  0.0662
   36MOL0     C 4642   8.590   2.579   0.928  0.4006 -0.7876 -0.3163
   36MOL0     C 4643   8.624   2.561   0.782 -0.0260  0.3628 -0.0846
   36MOL0     O 4644   8.752   2.499   0.764  0.0434 -0.6870  0.2750
   36MOL0     C 4645   8.857   2.591   0.771  0.6449  0.3480  0.1628
   36MOL0     C 4646   8.978   2.524   0.742  0.8803 -0.5028  0.6631
   36MOL0     C 4647   9.095   2.599   0.748  0.2190 -0.9651  0.1889
   36MOL0     C 4648   9.101   2.730   0.773 -0.1375  0.2458  0.9406
   36MOL0     C 4649   9.221   2.808   0.778 -0.0879  1.0554 -0.0261
   36MOL0     O 4650   9.339   2.742   0.808 -0.3552 -0.4614 -0.3077
   36MOL0     C 4651   9.462   2.806   0.801 -0.1175 -0.3716 -0.3509
   36MOL0     C 4652   9.530   2.815   0.925  0.6332 -0.7167  0.0211
   36MOL0     C 4653   9.661   2.876   0.927  0.1138  0.4644 -0.1103
   36MOL0     C 4654   9.725   2.918   0.810 -1.4562  1.2699  0.0800
   36MOL0     O 4655   9.844   2.975   0.828 -0.0542 -0.8067 -0.4334
   36MOL0     C 4656   9.888   3.079   0.732  0.1253 -0.8271  0.7103
   36MOL0     C 4657  10.032   3.124   0.762  0.1052 -0.9643  0.1860
   36MOL0     C 4658  10.123   3.022   0.693  0.1074 -0.5980  0.2689
   36MOL0     C 4659  10.272   3.032   0.740  0.3401  0.0307  1.2233
   36MOL0     C 4660  10.333   3.166   0.706 -0.1868  0.1532 -0.2974
   36MOL0     C 4661  10.485   3.152   0.724  0.1575 -0.1002 -0.0282
   36MOL0     C 4662  10.563   3.280   0.704 -0.4977 -0.6904  1.0960
   36MOL0     C 4663  10.709   3.266   0.746 -0.2966 -0.1058  0.8183
   36MOL0    Cl 4664  10.804   3.190   0.622  0.0997  0.2497 -0.1459
   36MOL0     C 4665   9.651   2.912   0.690 -0.4875  0.4801 -0.1217
   36MOL0     C 4666   9.521   2.852   0.678 -0.7714  0.2722  0.2006
   36MOL0     O 4667   9.215   2.925   0.761  0.5437 -0.7129 -0.0618
   36MOL0     C 4668   8.981   2.798   0.793 -0.2944 -0.3374  0.3676
   36MOL0     C 4669   8.858   2.734   0.796  0.2759 -0.3551 -0.0343
   36MOL0     N 4670   8.373   2.299   1.207 -0.6542  0.3708  0.3018
   36MOL0     N 4671   8.384   2.184   1.273  0.6348  0.2418 -0.2519
   36MOL0     C 4672   9.613   1.961   1.117 -0.1781  0.2382  0.2634
   36MOL0     C 4673   9.740   1.913   1.104  0.6076 -0.7174 -0.1114
   36MOL0     C 4674  10.134   1.697   1.271  0.3441 -0.5812 -0.4311
   36MOL0     C 4675  10.187   1.625   1.378 -0.3429  0.2495  0.0143
   36MOL0     C 4676  10.317   1.571   1.365 -0.2103 -0.2629  0.5490
   36MOL0     C 4677  10.396   1.603   1.255  0.2178 -0.5157 -0.0386
   36MOL0     O 4678  10.522   1.551   1.267  0.0781 -0.5286 -0.4790
   36MOL0     C 4679  10.620   1.621   1.193  0.5779  0.3673  0.2411
   36MOL0     C 4680  10.745   1.531   1.171  0.6454 -0.0820 -0.5579
   36MOL0     C 4681  10.842   1.588   1.071  0.0622  0.1117 -0.1418
   36MOL0     C 4682  10.926   1.473   1.018 -0.0150 -0.4841  0.0521
   36MOL0     C 4683  11.016   1.397   1.108  0.6973  0.1980 -0.9935
   36MOL0     C 4684  11.079   1.320   1.176  0.1537 -0.6944 -0.5816
   36MOL0     C 4685  10.340   1.683   1.152  0.2001  0.1390 -0.3088
   36MOL0     C 4686  10.205   1.722   1.158 -0.3716  0.3827 -0.2538
   36MOL0     H 4687   9.804   1.840   1.426  2.7440 -0.6057 -1.8620
   36MOL0     H 4688   9.574   1.953   1.456  1.9613 -0.9794  1.3517
   36MOL0     H 4689   9.284   1.981   1.411  0.7277 -0.8719  1.5759
   36MOL0     H 4690   9.362   1.839   1.321  0.3181 -0.1474 -0.1908
   36MOL0     H 4691   9.124   1.859   1.255  1.5706 -1.7164 -0.9272
   36MOL0     H 4692   9.214   1.928   1.122 -0.0832  1.1456  0.4339
   36MOL0     H 4693   9.178   2.134   1.159  2.6386  0.7967  1.7872
   36MOL0     H 4694   9.124   2.120   1.327  0.8925  0.8323  0.1247
   36MOL0     H 4695   8.926   2.177   1.168  0.7392  0.2754 -0.8780
   36MOL0     H 4696   8.953   2.020   1.087 -2.3617 -0.6780  0.3857
   36MOL0     H 4697   8.843   2.089   1.354  2.4070 -1.0092  2.0247
   36MOL0     H 4698   8.897   1.931   1.336 -4.1289  0.2211  2.8221
   36MOL0     H 4699   8.731   1.896   1.138 -4.5175  1.5134 -1.7008
   36MOL0     H 4700   8.708   2.054   1.125 -0.7002 -3.0286 -1.1875
   36MOL0     H 4701   8.639   1.870   1.365 -2.6672 -0.3766  0.3463
   36MOL0     H 4702   8.621   2.050   1.366  0.0702  1.2177 -2.0144
   36MOL0     H 4703   8.414   1.927   1.334  1.9239 -0.2769  1.5360
   36MOL0     H 4704   8.468   1.877   1.171 -2.5899  0.1518  0.2980
   36MOL0     H 4705   8.505   2.088   0.989 -1.4057  0.6609 -0.8636
   36MOL0     H 4706   8.369   2.420   0.952  0.7575  1.9405 -1.0350
   36MOL0     H 4707   8.474   2.311   0.875  0.2355 -1.3944 -0.3946
   36MOL0     H 4708   8.681   2.397   1.000 -0.2176 -1.3368  1.6860
   36MOL0     H 4709   8.571   2.475   1.112  1.3119 -1.7952  0.8837
   36MOL0     H 4710   8.488   2.618   0.932  0.8027  0.3128 -0.4535
   36MOL0     H 4711   8.663   2.651   0.967  1.4168 -0.9886 -1.7935
   36MOL0     H 4712   8.614   2.662   0.741  2.6869  0.6692 -0.1434
   36MOL0     H 4713   8.556   2.485   0.743  0.2452 -0.2305  0.5717
   36MOL0     H 4714   8.983   2.416   0.728  1.2623 -0.2751 -1.2647
   36MOL0     H 4715   9.192   2.554   0.725  0.4160  0.9066 -3.3451
   36MOL0     H 4716   9.478   2.795   1.017 -0.7079  3.3791  0.3854
   36MOL0     H 4717   9.713   2.882   1.023 -3.5576 -0.9412  2.1791
   36MOL0     H 4718   9.823   3.168   0.732  2.9131  1.4782 -2.6660
   36MOL0     H 4719   9.881   3.046   0.628 -1.4057  1.8428 -0.1519
   36MOL0     H 4720  10.061   3.127   0.867 -1.4108  0.8489  0.5932
   36MOL0     H 4721  10.047   3.224   0.719  3.3317 -1.7139 -0.7829
   36MOL0     H 4722  10.115   3.024   0.584  2.1733 -2.1634  0.0232
   36MOL0     H 4723  10.088   2.919   0.709 -3.5843  0.1692 -1.6452
   36MOL0     H 4724  10.284   3.018   0.848 -1.2277  1.0470  1.5645
   36MOL0     H 4725  10.327   2.955   0.685 -0.2486 -0.3247  1.1367
   36MOL0     H 4726  10.288   3.251   0.757  0.7406  0.7018 -0.3845
   36MOL0     H 4727  10.323   3.183   0.598 -0.2029  0.0003 -0.3214
   36MOL0     H 4728  10.520   3.072   0.657 -1.4946 -1.4619  0.6947
   36MOL0     H 4729  10.506   3.132   0.829  2.7900  0.3203 -0.3950
   36MOL0     H 4730  10.554   3.311   0.599  1.9293 -0.2435  0.9565
   36MOL0     H 4731  10.517   3.351   0.774 -0.4644  0.3540  0.0999
   36MOL0     H 4732  10.714   3.225   0.847 -1.3710  0.5448  1.1509
   36MOL0     H 4733  10.759   3.362   0.763  1.1738 -0.8057  0.6595
   36MOL0     H 4734   9.688   2.945   0.594 -1.5936 -3.8495 -2.2834
   36MOL0     H 4735   9.465   2.840   0.585 -1.0712 -1.9712  0.6153
   36MOL0     H 4736   8.987   2.904   0.812  1.1599 -0.4069  0.3842
   36MOL0     H 4737   8.780   2.806   0.823  1.1693 -0.0430  1.8626
   36MOL0     H 4738   9.565   1.990   1.024 -1.5280 -1.2928  0.4599
   36MOL0     H 4739   9.786   1.925   1.006 -2.2176 -0.5493 -1.5264
   36MOL0     H 4740  10.130   1.597   1.466  0.8438  0.3009  0.8282
   36MOL0     H 4741  10.370   1.510   1.438  1.5465 -0.8984 -1.1758
   36MOL0     H 4742  10.651   1.718   1.235  1.6434  0.0618  0.1905
   36MOL0     H 4743  10.589   1.644   1.091 -2.4670  1.7198  1.3551
   36MOL0     H 4744  10.792   1.516   1.269  0.3643  2.6605  0.0851
   36MOL0     H 4745  10.712   1.435   1.131  0.0148 -2.1047  4.0819
   36MOL0     H 4746  10.898   1.668   1.121 -2.4124  0.6453  1.9837
   36MOL0     H 4747  10.788   1.628   0.985 -2.7480 -3.0568 -0.0686
   36MOL0     H 4748  10.854   1.407   0.968  1.6650 -1.8384 -0.6713
   36MOL0     H 4749  10.989   1.521   0.942  0.3925  0.8127  1.1679
   36MOL0     H 4750  11.140   1.246   1.225 -1.7222 -1.6616  0.4464
   36MOL0     H 4751  10.387   1.705   1.057  3.5077  1.6272  1.4945
   36MOL0     H 4752  10.150   1.769   1.077  0.2026  0.7591 -0.4339
   37MOL0     O 4753   1.494   5.929   1.279 -0.0933 -0.2443 -0.1808
   37MOL0     C 4754   1.500   5.919   1.155 -0.5183  0.2965  0.0501
   37MOL0     O 4755   1.594   5.997   1.083  0.2202 -0.5367 -0.0080
   37MOL0     C 4756   1.598   6.136   1.114  0.1105  0.5451  0.3427
   37MOL0     C 4757   1.710   6.201   1.087  0.8635  0.4635 -0.4304
   37MOL0     C 4758   1.724   6.335   1.120 -0.3100  0.6235  0.8744
   37MOL0     C 4759   1.618   6.413   1.173 -0.5862  0.6526  0.3371
   37MOL0     O 4760   1.623   6.548   1.204  0.3914  0.5170 -1.0673
   37MOL0     C 4761   1.741   6.617   1.212  0.3542  0.5972  0.2764
   37MOL0     C 4762   1.788   6.599   1.352 -0.3333  0.1675 -0.3284
   37MOL0     C 4763   1.937   6.627   1.367  0.0700  0.4949 -0.1499
   37MOL0     C 4764   1.958   6.776   1.387 -0.2932 -0.0094 -0.8513
   37MOL0     C 4765   2.110   6.806   1.351  0.0823  0.6784  0.3517
   37MOL0     C 4766   2.182   6.791   1.493  0.3807 -0.9863 -0.4877
   37MOL0     C 4767   2.327   6.820   1.478 -0.7375 -0.2971 -1.0168
   37MOL0     C 4768   2.415   6.785   1.601 -0.1400  0.4775 -0.0100
   37MOL0     N 4769   2.365   6.843   1.728 -0.9368  0.4307 -0.2281
   37MOL0     C 4770   2.287   6.777   1.824  0.1018 -0.2930  0.6933
   37MOL0     C 4771   2.221   6.884   1.884 -0.2102  0.7867 -0.5569
   37MOL0     C 4772   2.115   6.876   1.991 -0.8396 -0.0741 -1.1996
   37MOL0     C 4773   2.018   6.989   1.996  0.3207  0.3480  0.0822
   37MOL0     C 4774   1.913   6.957   2.103  0.8868  0.6142 -0.5869
   37MOL0     C 4775   1.779   6.927   2.040 -0.0175 -0.0354  0.7844
   37MOL0     O 4776   1.733   7.039   1.963  0.8204 -0.0283  0.2021
   37MOL0     C 4777   1.641   7.126   2.033  0.0831  0.1407 -0.0854
   37MOL0     C 4778   1.689   7.226   2.115 -0.8751  0.1422  0.5328
   37MOL0     C 4779   1.600   7.322   2.172 -0.4858  0.2760 -0.2061
   37MOL0     C 4780   1.466   7.308   2.151 -0.0355 -1.5823  0.1358
   37MOL0     C 4781   1.358   7.387   2.222  1.5076  0.2271 -0.4537
   37MOL0     O 4782   1.228   7.346   2.206  0.3824 -0.2776  0.0282
   37MOL0     C 4783   1.131   7.421   2.261  0.7435  0.0146  0.9546
   37MOL0     C 4784   1.020   7.450   2.175 -1.2741 -0.0090 -0.7608
   37MOL0     C 4785   0.913   7.530   2.220 -0.8839 -0.1046 -0.0574
   37MOL0     C 4786   0.917   7.578   2.350 -1.2731 -0.0730 -0.0217
   37MOL0     O 4787   0.822   7.655   2.411 -0.1452  0.2369 -0.9754
   37MOL0     C 4788   0.698   7.675   2.342  0.2874  0.4263 -0.5206
   37MOL0     C 4789   0.604   7.758   2.432 -0.4907 -0.9575  0.4352
   37MOL0     C 4790   0.452   7.751   2.375 -0.3227  0.2704 -0.3661
   37MOL0     C 4791   0.359   7.851   2.433 -0.0591 -0.8628  1.3887
   37MOL0     C 4792   0.221   7.852   2.350 -0.2454  0.0254  0.7715
   37MOL0     C 4793   0.147   7.724   2.353  0.1107 -0.1195 -0.3943
   37MOL0     C 4794  -0.009   7.749   2.349  0.4854 -0.7852  0.1173
   37MOL0     C 4795  -0.069   7.619   2.304  0.7995 -0.3077  0.2570
   37MOL0    Cl 4796  -0.238   7.636   2.270 -0.4336 -0.0309  0.2013
   37MOL0     C 4797   1.026   7.553   2.437  0.3848  0.2763  0.0882
   37MOL0     C 4798   1.132   7.473   2.395 -0.7625  1.3401  1.3503
   37MOL0     O 4799   1.396   7.479   2.290 -0.3752 -0.6951 -0.3594
   37MOL0     C 4800   1.419   7.203   2.072  0.2086  0.3545  0.8194
   37MOL0     C 4801   1.508   7.121   2.001  0.2053  0.5310 -0.0624
   37MOL0     N 4802   2.281   7.003   1.837 -0.0512  0.8578 -0.6215
   37MOL0     N 4803   2.367   6.979   1.748  0.3393  0.2530  0.4724
   37MOL0     C 4804   1.499   6.344   1.194 -0.3907  0.3733  0.0375
   37MOL0     C 4805   1.486   6.206   1.159  0.0789  0.1490  1.1376
   37MOL0     C 4806   1.427   5.825   1.082  0.5730  0.8721 -0.3930
   37MOL0     C 4807   1.443   5.812   0.941  0.0389 -0.0799 -0.3223
   37MOL0     C 4808   1.354   5.722   0.874 -0.3953 -1.1571  0.5636
   37MOL0     C 4809   1.258   5.643   0.940  0.8953  0.5085 -0.2436
   37MOL0     O 4810   1.187   5.553   0.867 -0.4370  0.0360 -0.3618
   37MOL0     C 4811   1.084   5.476   0.931  0.9660  0.6091 -0.0620
   37MOL0     C 4812   1.043   5.362   0.831  0.4762  0.3152 -0.9466
   37MOL0     C 4813   0.944   5.379   0.722  0.2561  0.5644  0.6209
   37MOL0     C 4814   0.861   5.251   0.673  0.1638  0.1596  0.2749
   37MOL0     C 4815   0.937   5.126   0.660 -0.1978 -0.2240  0.4483
   37MOL0     C 4816   1.005   5.026   0.650  0.2968 -0.5455  0.5366
   37MOL0     C 4817   1.241   5.673   1.075 -0.0786 -0.3136 -0.0153
   37MOL0     C 4818   1.326   5.759   1.144 -0.2117 -0.7799  0.0160
   37MOL0     H 4819   1.791   6.141   1.046 -0.4567 -0.3246 -1.9938
   37MOL0     H 4820   1.821   6.382   1.106 -1.2809  2.1706 -1.3116
   37MOL0     H 4821   1.720   6.723   1.201 -1.4543  0.6265  2.9494
   37MOL0     H 4822   1.814   6.583   1.138 -0.5569  0.3402 -0.5116
   37MOL0     H 4823   1.775   6.493   1.374  1.1604 -0.4349 -2.1152
   37MOL0     H 4824   1.725   6.655   1.422 -0.6782  0.5648 -0.9415
   37MOL0     H 4825   1.976   6.594   1.270 -1.1512 -0.7714 -0.2576
   37MOL0     H 4826   1.986   6.566   1.444 -0.6423 -0.4472 -0.4115
   37MOL0     H 4827   1.887   6.825   1.320 -1.1731 -2.5766 -1.9294
   37MOL0     H 4828   1.934   6.797   1.492  1.5195 -1.3736 -0.1110
   37MOL0     H 4829   2.115   6.910   1.318  1.7313  0.6683  0.5093
   37MOL0     H 4830   2.147   6.739   1.273  1.8622 -0.3186  1.9786
   37MOL0     H 4831   2.184   6.685   1.520 -0.4825 -1.7417 -3.1223
   37MOL0     H 4832   2.142   6.855   1.573  1.6624  0.0659 -0.6576
   37MOL0     H 4833   2.371   6.760   1.399 -1.3446 -2.8443  0.4873
   37MOL0     H 4834   2.335   6.924   1.445  1.3272 -0.6039 -1.6034
   37MOL0     H 4835   2.514   6.826   1.576 -0.0678 -0.4134 -1.2958
   37MOL0     H 4836   2.426   6.677   1.613  4.2407  0.8989  1.8383
   37MOL0     H 4837   2.273   6.671   1.840 -0.3430 -0.0427  2.0784
   37MOL0     H 4838   2.159   6.865   2.091 -3.0702 -1.5951 -0.3062
   37MOL0     H 4839   2.053   6.789   1.968 -1.4692  0.7441 -2.7775
   37MOL0     H 4840   1.970   7.003   1.899 -4.6013  2.6069  2.4696
   37MOL0     H 4841   2.065   7.084   2.023  0.0744  0.1569  1.2080
   37MOL0     H 4842   1.941   6.869   2.162  2.8220  0.4370 -1.6906
   37MOL0     H 4843   1.904   7.044   2.168 -0.2472 -0.6356  1.0185
   37MOL0     H 4844   1.700   6.906   2.112 -0.0316 -0.4241  0.6546
   37MOL0     H 4845   1.797   6.846   1.969 -0.1788  3.9756 -4.4102
   37MOL0     H 4846   1.790   7.233   2.152 -0.9238 -0.4217  0.7812
   37MOL0     H 4847   1.638   7.402   2.233  1.6988 -1.1944  0.4699
   37MOL0     H 4848   1.009   7.420   2.071 -0.0704 -4.0766  0.1006
   37MOL0     H 4849   0.827   7.554   2.158 -3.1529  2.1116  3.5731
   37MOL0     H 4850   0.647   7.583   2.313 -1.2506  2.0323 -3.3689
   37MOL0     H 4851   0.723   7.728   2.250  0.4105  2.0728  0.4129
   37MOL0     H 4852   0.640   7.861   2.428 -0.4896 -0.9393  0.8665
   37MOL0     H 4853   0.601   7.725   2.536 -0.2669  0.0288  0.7673
   37MOL0     H 4854   0.422   7.649   2.400  0.9410 -0.7860 -2.7719
   37MOL0     H 4855   0.442   7.765   2.267 -2.6323  0.4976 -0.1666
   37MOL0     H 4856   0.336   7.831   2.538 -0.9147  0.1429  1.4052
   37MOL0     H 4857   0.405   7.949   2.428 -1.6339 -0.1541 -1.5713
   37MOL0     H 4858   0.241   7.887   2.248 -3.7794  0.7735  0.2207
   37MOL0     H 4859   0.159   7.931   2.393  0.9575  2.3160 -1.4382
   37MOL0     H 4860   0.183   7.666   2.438  1.4417 -0.0164 -0.8637
   37MOL0     H 4861   0.174   7.667   2.263 -2.1545 -1.7018 -0.1730
   37MOL0     H 4862  -0.067   7.773   2.439  1.6487  0.7098  0.5093
   37MOL0     H 4863  -0.024   7.822   2.269  2.2254  1.1883  1.4763
   37MOL0     H 4864  -0.063   7.532   2.370  1.6995 -3.1021 -3.1839
   37MOL0     H 4865  -0.026   7.578   2.212 -1.0850  1.0925 -1.3341
   37MOL0     H 4866   1.018   7.608   2.531  0.2190  1.7234 -0.7435
   37MOL0     H 4867   1.220   7.461   2.457  0.1138  1.1781  0.1206
   37MOL0     H 4868   1.312   7.185   2.063  0.4210  0.1825 -2.4268
   37MOL0     H 4869   1.470   7.049   1.930  1.7406 -0.1806 -0.2077
   37MOL0     H 4870   1.417   6.405   1.230  0.2413  0.9113  0.5858
   37MOL0     H 4871   1.395   6.150   1.180 -1.6312  2.3996  0.1781
   37MOL0     H 4872   1.506   5.886   0.894 -0.3995  0.2180 -0.4455
   37MOL0     H 4873   1.365   5.709   0.767  1.2421 -3.2673  0.9330
   37MOL0     H 4874   0.994   5.532   0.958  1.1552  0.3045  1.2829
   37MOL0     H 4875   1.110   5.434   1.029  0.4397  0.6900  0.1155
   37MOL0     H 4876   1.134   5.320   0.788  0.3263  1.9957 -3.0991
   37MOL0     H 4877   1.002   5.278   0.888  0.3948  0.3836 -0.9028
   37MOL0     H 4878   0.989   5.431   0.636  0.9158  1.3352  1.4154
   37MOL0     H 4879   0.861   5.440   0.758 -0.7083 -0.7912  0.7781
   37MOL0     H 4880   0.779   5.238   0.745 -0.6672 -0.1228 -0.6941
   37MOL0     H 4881   0.804   5.262   0.580  0.3958 -2.0972 -0.2046
   37MOL0     H 4882   1.064   4.938   0.632  1.7253  0.0302  2.1424
   37MOL0     H 4883   1.166   5.620   1.132  0.0096 -0.0968  0.3040
   37MOL0     H 4884   1.296   5.786   1.244  0.7551  0.2427  0.0531
   38MOL0     O 4885   7.045   6.277   8.624  1.0248  0.2159 -0.4279
   38MOL0     C 4886   7.025   6.157   8.648 -0.6637 -0.5788  0.9252
   38MOL0     O 4887   7.124   6.059   8.652 -1.0098 -0.0125  0.8313
   38MOL0     C 4888   7.254   6.103   8.625 -0.1763 -0.3273  0.1607
   38MOL0     C 4889   7.332   6.168   8.729  0.2402  0.0137  0.1231
   38MOL0     C 4890   7.463   6.211   8.703 -0.4106 -0.4919 -0.2973
   38MOL0     C 4891   7.529   6.182   8.579 -0.6313  0.3389 -0.6687
   38MOL0     O 4892   7.661   6.215   8.558 -0.0826 -0.4579  0.4136
   38MOL0     C 4893   7.715   6.323   8.637  0.3423  0.0101  0.8182
   38MOL0     C 4894   7.829   6.388   8.542  0.2753  0.5290  0.1416
   38MOL0     C 4895   7.773   6.488   8.439 -0.1173 -0.1543 -0.3288
   38MOL0     C 4896   7.890   6.557   8.372 -1.6103  0.7180  0.6378
   38MOL0     C 4897   8.002   6.478   8.306  0.4037  0.3531 -0.4609
   38MOL0     C 4898   7.958   6.422   8.165 -0.2505 -0.0308 -0.0080
   38MOL0     C 4899   8.055   6.303   8.113  0.2542 -0.5654  0.4162
   38MOL0     C 4900   8.183   6.352   8.049 -0.4503  0.5011  0.3233
   38MOL0     N 4901   8.150   6.386   7.908 -0.3346 -0.3606  0.0205
   38MOL0     C 4902   8.113   6.295   7.818 -0.1923 -0.6425  0.9088
   38MOL0     C 4903   8.081   6.371   7.707  0.7016 -0.0024 -0.8683
   38MOL0     C 4904   8.020   6.318   7.581  0.0299  0.3726 -0.2288
   38MOL0     C 4905   7.870   6.358   7.582 -1.1640  0.5824  0.8413
   38MOL0     C 4906   7.773   6.285   7.675  0.1809  0.2005  0.2881
   38MOL0     C 4907   7.623   6.324   7.680  0.8149 -1.0561 -0.7034
   38MOL0     O 4908   7.616   6.464   7.713 -0.3991 -0.1721 -0.1470
   38MOL0     C 4909   7.488   6.519   7.714 -0.2214  0.6271  0.3147
   38MOL0     C 4910   7.380   6.446   7.671  0.1635  0.2656  0.2942
   38MOL0     C 4911   7.248   6.485   7.709  0.0592 -0.8033  0.5666
   38MOL0     C 4912   7.227   6.608   7.772 -0.1652 -0.6715 -0.0155
   38MOL0     C 4913   7.081   6.651   7.782  0.9841  1.0656  0.6375
   38MOL0     O 4914   6.989   6.578   7.706 -0.3475 -0.5065  0.3110
   38MOL0     C 4915   6.860   6.617   7.710 -0.1070 -0.6020 -0.2124
   38MOL0     C 4916   6.760   6.518   7.735 -0.4286 -0.9337  0.0572
   38MOL0     C 4917   6.620   6.541   7.720  0.1364  0.2029 -0.5340
   38MOL0     C 4918   6.574   6.661   7.678  0.0609 -0.3009  0.1137
   38MOL0     O 4919   6.443   6.677   7.655  0.0897  0.1284 -0.0166
   38MOL0     C 4920   6.353   6.698   7.764 -0.2737  0.8554  0.4364
   38MOL0     C 4921   6.298   6.841   7.768  0.2507 -0.1240 -0.8304
   38MOL0     C 4922   6.186   6.861   7.668 -0.1476 -0.0757 -0.3089
   38MOL0     C 4923   6.139   7.007   7.649 -0.1149  0.3639 -0.4065
   38MOL0     C 4924   5.997   7.010   7.596  0.0655 -0.1735 -0.0109
   38MOL0     C 4925   5.963   7.146   7.545 -0.4604  0.0225 -0.1621
   38MOL0     C 4926   5.822   7.147   7.488  0.5594  0.2767 -0.1100
   38MOL0     C 4927   5.794   7.068   7.353 -0.2417  0.1362 -0.1145
   38MOL0    Cl 4928   5.649   7.124   7.274 -0.1840  0.2824  0.0282
   38MOL0     C 4929   6.673   6.762   7.649  0.3741  0.6945 -0.0854
   38MOL0     C 4930   6.809   6.741   7.681 -0.0435 -0.0232 -0.7763
   38MOL0     O 4931   7.053   6.747   7.850  0.3228 -0.8235 -0.2006
   38MOL0     C 4932   7.339   6.677   7.811 -0.5016 -0.4522  0.0896
   38MOL0     C 4933   7.467   6.639   7.781  0.6500 -0.0223 -0.1189
   38MOL0     N 4934   8.102   6.507   7.734  0.2967 -0.7810  0.1211
   38MOL0     N 4935   8.152   6.509   7.857 -0.4776 -0.2461  0.5529
   38MOL0     C 4936   7.454   6.113   8.480 -0.4045 -0.3411  0.4265
   38MOL0     C 4937   7.320   6.084   8.499 -0.1873  0.5022 -0.4048
   38MOL0     C 4938   6.900   6.123   8.691  1.1016 -0.0809 -0.9718
   38MOL0     C 4939   6.778   6.198   8.670  0.0901  0.1043  0.4218
   38MOL0     C 4940   6.656   6.154   8.710 -0.6066 -0.3045 -1.2035
   38MOL0     C 4941   6.637   6.034   8.781 -0.3996  0.8974  0.5749
   38MOL0     O 4942   6.522   5.973   8.828  0.0938 -0.6945  0.8449
   38MOL0     C 4943   6.401   6.023   8.760 -0.1465 -0.4273  0.0544
   38MOL0     C 4944   6.280   5.972   8.827  0.2811 -0.4644  0.5643
   38MOL0     C 4945   6.276   5.822   8.850 -0.1219  0.1617 -0.2786
   38MOL0     C 4946   6.174   5.796   8.964 -0.2301 -0.1062 -0.3142
   38MOL0     C 4947   6.216   5.835   9.102 -0.1644  0.1150 -1.0291
   38MOL0     C 4948   6.258   5.862   9.213 -0.6274 -0.1478 -0.3705
   38MOL0     C 4949   6.756   5.974   8.822 -0.0362  0.7374  0.4714
   38MOL0     C 4950   6.882   6.010   8.778 -0.1775  0.2904  0.2339
   38MOL0     H 4951   7.283   6.172   8.826  1.2157 -3.2991  0.8919
   38MOL0     H 4952   7.519   6.255   8.785 -2.2215  0.1733  0.6406
   38MOL0     H 4953   7.756   6.299   8.736  0.5852  0.6796  0.8842
   38MOL0     H 4954   7.631   6.393   8.644 -0.2066 -0.6391  0.7544
   38MOL0     H 4955   7.864   6.303   8.482 -0.7221  2.7440 -3.9750
   38MOL0     H 4956   7.902   6.434   8.609 -0.0437 -1.9214  2.3231
   38MOL0     H 4957   7.716   6.573   8.479  0.0781  1.4305 -3.1665
   38MOL0     H 4958   7.711   6.445   8.360 -0.8837  0.1057  0.1216
   38MOL0     H 4959   7.846   6.607   8.285  1.7157 -0.0475 -1.6724
   38MOL0     H 4960   7.940   6.633   8.434 -0.3472 -0.9343  1.7410
   38MOL0     H 4961   8.033   6.394   8.367  0.4862  0.8146  0.1411
   38MOL0     H 4962   8.087   6.546   8.297  3.4216 -3.2757 -1.8782
   38MOL0     H 4963   7.959   6.502   8.091 -1.6199 -1.3263 -1.4849
   38MOL0     H 4964   7.858   6.383   8.183  0.9551 -2.5398  1.9911
   38MOL0     H 4965   8.088   6.238   8.195  2.4735  0.1193  0.1241
   38MOL0     H 4966   7.998   6.245   8.040  1.4748 -0.8043 -0.3626
   38MOL0     H 4967   8.259   6.274   8.047  0.3377  1.2442 -1.4315
   38MOL0     H 4968   8.226   6.437   8.104 -1.4192 -0.1712  2.2203
   38MOL0     H 4969   8.106   6.187   7.830 -0.4047 -1.1875 -2.7378
   38MOL0     H 4970   8.025   6.209   7.592  0.0740  0.4154  0.1915
   38MOL0     H 4971   8.076   6.351   7.493  1.0053  0.6832  0.4952
   38MOL0     H 4972   7.837   6.333   7.481  1.1182  0.9479 -0.0519
   38MOL0     H 4973   7.852   6.464   7.596  0.5305  0.9600  0.4350
   38MOL0     H 4974   7.769   6.181   7.642  1.0002 -0.0589  0.9696
   38MOL0     H 4975   7.807   6.304   7.777 -0.4250 -0.0534  0.5463
   38MOL0     H 4976   7.569   6.255   7.745 -0.6509  0.0230 -0.7088
   38MOL0     H 4977   7.583   6.316   7.579  1.2384  1.4416 -1.1264
   38MOL0     H 4978   7.383   6.353   7.616 -0.7220 -0.3351  1.2214
   38MOL0     H 4979   7.165   6.423   7.678  1.0688 -1.2159 -1.4374
   38MOL0     H 4980   6.791   6.415   7.748 -0.3583 -1.1399 -1.5710
   38MOL0     H 4981   6.559   6.454   7.745  1.1129 -1.3180 -3.0836
   38MOL0     H 4982   6.418   6.682   7.851 -1.7367 -3.4842  0.9633
   38MOL0     H 4983   6.271   6.626   7.770  1.2854 -0.9658  1.0545
   38MOL0     H 4984   6.388   6.900   7.747  0.8914 -2.0254 -3.9801
   38MOL0     H 4985   6.271   6.864   7.872  0.8389 -0.5206 -0.5841
   38MOL0     H 4986   6.105   6.802   7.711 -0.4115  0.2502 -0.3605
   38MOL0     H 4987   6.214   6.817   7.572  3.2731  0.2835  0.3964
   38MOL0     H 4988   6.152   7.064   7.742  2.5988  0.3930 -0.7355
   38MOL0     H 4989   6.206   7.064   7.583  0.7952  0.8695  0.9006
   38MOL0     H 4990   5.922   6.983   7.671 -0.5231  0.4643 -0.3637
   38MOL0     H 4991   5.993   6.933   7.519  0.2743 -0.5526  0.3503
   38MOL0     H 4992   6.034   7.184   7.471 -0.2407  0.8123  0.4403
   38MOL0     H 4993   5.971   7.215   7.630  2.3935  2.0694 -1.9030
   38MOL0     H 4994   5.747   7.116   7.561  0.0184 -2.1827 -1.5971
   38MOL0     H 4995   5.799   7.253   7.472  1.3189  0.9156  2.5391
   38MOL0     H 4996   5.773   6.963   7.375 -1.6800  0.2577 -0.7396
   38MOL0     H 4997   5.883   7.087   7.293  0.4061  2.5195  1.4750
   38MOL0     H 4998   6.638   6.862   7.626 -0.4632  1.0012  2.2315
   38MOL0     H 4999   6.881   6.818   7.655  0.2982 -0.2873 -0.6201
   38MOL0     H 5000   7.318   6.758   7.880  0.7803 -0.8410  0.9777
   38MOL0     H 5001   7.557   6.681   7.826  1.7745 -2.5410  0.1789
   38MOL0     H 5002   7.498   6.096   8.382 -1.6220  3.3920 -0.9344
   38MOL0     H 5003   7.266   6.014   8.437  2.8777 -3.3891  0.9178
   38MOL0     H 5004   6.779   6.294   8.621 -1.6874 -1.1582 -2.3113
   38MOL0     H 5005   6.572   6.222   8.700 -0.3434  1.2072  4.1189
   38MOL0     H 5006   6.402   5.999   8.653 -2.1231 -0.1943 -0.0582
   38MOL0     H 5007   6.409   6.132   8.762  1.5216 -0.4856  3.3316
   38MOL0     H 5008   6.279   6.022   8.924 -2.6563  0.7413  0.0094
   38MOL0     H 5009   6.183   5.996   8.782 -0.9082 -3.4268  1.2393
   38MOL0     H 5010   6.377   5.792   8.878  0.3314  1.3603 -0.5432
   38MOL0     H 5011   6.255   5.775   8.753  3.1239 -2.2951  0.0276
   38MOL0     H 5012   6.080   5.850   8.950 -0.7592 -0.8105  0.4207
   38MOL0     H 5013   6.155   5.688   8.957 -4.1772  0.3282  1.0662
   38MOL0     H 5014   6.284   5.883   9.315  0.1310  1.6288 -0.8968
   38MOL0     H 5015   6.744   5.884   8.881 -0.1996 -0.2611 -1.0185
   38MOL0     H 5016   6.967   5.946   8.801 -1.4334 -1.6686 -0.3682
   39MOL0     O 5017   3.317   6.843   9.429  0.1998 -0.0980 -0.0169
   39MOL0     C 5018   3.371   6.748   9.489 -0.2332 -0.5387  0.1870
   39MOL0     O 5019   3.315   6.635   9.520  0.1576 -0.1968 -0.6692
   39MOL0     C 5020   3.179   6.626   9.526 -0.3249 -0.0524 -0.4182
   39MOL0     C 5021   3.094   6.657   9.414 -0.8230 -0.3198  0.3345
   39MOL0     C 5022   2.963   6.608   9.418  0.0971 -0.0606 -0.4919
   39MOL0     C 5023   2.915   6.548   9.538  0.9011 -0.4718  1.2385
   39MOL0     O 5024   2.789   6.493   9.549 -0.3428 -0.0751 -0.3420
   39MOL0     C 5025   2.672   6.580   9.536  0.5839 -0.1214  0.6321
   39MOL0     C 5026   2.556   6.514   9.617 -0.5901  0.1647  1.0769
   39MOL0     C 5027   2.535   6.364   9.576 -0.7360  0.4230 -0.1788
   39MOL0     C 5028   2.531   6.341   9.421 -0.9449 -0.5723  0.1978
   39MOL0     C 5029   2.439   6.232   9.375 -0.0727 -0.1241  0.1963
   39MOL0     C 5030   2.291   6.270   9.382  1.0694  0.3191  0.0473
   39MOL0     C 5031   2.238   6.336   9.250  0.9151  0.3543 -0.5277
   39MOL0     C 5032   2.219   6.246   9.133  0.1917  0.3202  0.7386
   39MOL0     N 5033   2.101   6.166   9.139 -0.5047  0.6483  0.0263
   39MOL0     C 5034   1.980   6.213   9.102 -0.3640 -0.1539  0.9104
   39MOL0     C 5035   1.893   6.114   9.122 -0.1668 -0.7248  0.2588
   39MOL0     C 5036   1.750   6.143   9.101  0.5329 -0.2390  0.9466
   39MOL0     C 5037   1.711   6.146   8.952 -0.4482  0.4709 -0.0110
   39MOL0     C 5038   1.555   6.150   8.936  0.2448 -0.7939 -0.4623
   39MOL0     C 5039   1.482   6.249   9.032  0.0062  1.1994  0.3514
   39MOL0     O 5040   1.356   6.280   8.966  0.3614  0.4432  0.2501
   39MOL0     C 5041   1.359   6.374   8.866  0.0059  0.9198 -0.0736
   39MOL0     C 5042   1.237   6.389   8.801 -0.0541  1.3130  0.3173
   39MOL0     C 5043   1.224   6.484   8.703 -0.6684 -1.3101  1.4829
   39MOL0     C 5044   1.320   6.577   8.679  0.4528  0.8527  0.3253
   39MOL0     C 5045   1.302   6.672   8.570  0.1297 -1.1627 -0.0733
   39MOL0     O 5046   1.416   6.741   8.531 -0.8289  0.0936 -0.5347
   39MOL0     C 5047   1.421   6.812   8.416 -0.4189 -0.4777  1.0317
   39MOL0     C 5048   1.529   6.797   8.332 -0.0395 -0.1994  0.9757
   39MOL0     C 5049   1.548   6.884   8.220  0.2914  0.7287  0.2080
   39MOL0     C 5050   1.450   6.976   8.192 -0.8849 -0.4279 -0.5222
   39MOL0     O 5051   1.474   7.064   8.086 -0.5707 -0.4035  0.4094
   39MOL0     C 5052   1.368   7.161   8.048 -0.3079  0.1628  0.0608
   39MOL0     C 5053   1.393   7.221   7.908 -0.3956  0.2474 -0.7558
   39MOL0     C 5054   1.458   7.368   7.909 -0.4094 -0.8748  0.3611
   39MOL0     C 5055   1.587   7.389   7.989  0.8703 -0.4950 -1.0423
   39MOL0     C 5056   1.652   7.522   7.950 -0.6217  0.6807  0.7883
   39MOL0     C 5057   1.577   7.649   7.972 -0.5361 -0.5553  0.0329
   39MOL0     C 5058   1.661   7.771   7.931  0.2627 -0.0748  0.3350
   39MOL0     C 5059   1.576   7.894   7.963  0.9496  0.9541 -1.1904
   39MOL0    Cl 5060   1.643   8.051   7.908  0.3848 -0.0569 -0.3359
   39MOL0     C 5061   1.331   6.980   8.268 -0.5730 -0.5418 -0.3133
   39MOL0     C 5062   1.326   6.905   8.392  0.5297  0.4649  0.4761
   39MOL0     O 5063   1.191   6.682   8.516 -0.3168 -0.4826  0.0367
   39MOL0     C 5064   1.444   6.566   8.745  0.8502 -0.1460 -0.4810
   39MOL0     C 5065   1.462   6.466   8.837  0.1553  0.6008  0.2313
   39MOL0     N 5066   1.960   6.008   9.184 -0.3476  0.1628  0.1645
   39MOL0     N 5067   2.084   6.042   9.184  0.7202 -0.0552 -0.2302
   39MOL0     C 5068   2.996   6.527   9.652  0.4134  0.1873  1.3643
   39MOL0     C 5069   3.132   6.564   9.644 -0.2464  0.5624  0.5000
   39MOL0     C 5070   3.521   6.737   9.498  0.3103 -0.5640  0.7985
   39MOL0     C 5071   3.580   6.619   9.546  0.2492 -0.5722  0.4965
   39MOL0     C 5072   3.709   6.618   9.587 -0.4578  0.0598 -0.5539
   39MOL0     C 5073   3.795   6.726   9.576 -0.6420 -0.2936  0.1284
   39MOL0     O 5074   3.931   6.692   9.590  0.7078  0.2084 -0.0710
   39MOL0     C 5075   4.038   6.795   9.592  0.9646  0.2240  0.3551
   39MOL0     C 5076   4.066   6.835   9.744 -0.0598 -0.1488 -0.3055
   39MOL0     C 5077   4.195   6.917   9.755 -0.0983 -0.1906 -0.0567
   39MOL0     C 5078   4.330   6.852   9.711  0.0006  0.9741 -0.5180
   39MOL0     C 5079   4.449   6.939   9.694  0.1340 -0.0250 -1.0656
   39MOL0     C 5080   4.546   7.010   9.696 -0.7460 -0.3686 -0.4619
   39MOL0     C 5081   3.740   6.848   9.532 -0.1637 -0.1674  0.3388
   39MOL0     C 5082   3.597   6.857   9.498 -0.1308  0.4600  0.8415
   39MOL0     H 5083   3.130   6.710   9.327  0.3293 -0.9601  0.4064
   39MOL0     H 5084   2.889   6.617   9.338 -1.7855  0.7632  1.2398
   39MOL0     H 5085   2.646   6.603   9.432 -1.5702 -1.1837  0.8788
   39MOL0     H 5086   2.688   6.676   9.587 -0.8617  1.7098 -2.0643
   39MOL0     H 5087   2.464   6.572   9.605 -0.1326  0.3429 -2.5973
   39MOL0     H 5088   2.593   6.525   9.720  1.5038 -1.2330  0.5332
   39MOL0     H 5089   2.438   6.339   9.619 -2.2862  1.5476 -2.7927
   39MOL0     H 5090   2.611   6.298   9.620  0.2073  0.5887 -1.4958
   39MOL0     H 5091   2.505   6.437   9.376  0.0663  0.2869  1.3486
   39MOL0     H 5092   2.636   6.326   9.394  0.0890  1.8886  2.3280
   39MOL0     H 5093   2.467   6.141   9.428  1.6456  0.1665 -0.1554
   39MOL0     H 5094   2.470   6.226   9.270  1.5014  0.9826  0.5612
   39MOL0     H 5095   2.285   6.345   9.462  0.2872 -1.4939  1.7559
   39MOL0     H 5096   2.236   6.182   9.415  0.6135  1.0543  1.3309
   39MOL0     H 5097   2.139   6.380   9.269  0.2844 -1.9567  2.2142
   39MOL0     H 5098   2.300   6.422   9.223  0.4234  1.5288  1.8172
   39MOL0     H 5099   2.302   6.174   9.134 -1.7305 -2.0381  0.9914
   39MOL0     H 5100   2.217   6.305   9.041 -1.2155 -0.5914  0.1407
   39MOL0     H 5101   1.961   6.310   9.058 -2.8662 -0.6005  0.8859
   39MOL0     H 5102   1.726   6.240   9.144 -0.5631 -0.1184  0.1196
   39MOL0     H 5103   1.679   6.075   9.149 -1.0046 -0.3330 -1.3188
   39MOL0     H 5104   1.749   6.051   8.913  0.2336  1.5268 -2.0121
   39MOL0     H 5105   1.764   6.224   8.898  0.4953  0.5570  1.0078
   39MOL0     H 5106   1.541   6.185   8.834 -0.9421  1.4348  0.3959
   39MOL0     H 5107   1.514   6.050   8.956  0.0408 -0.1691  2.8030
   39MOL0     H 5108   1.549   6.333   9.051  2.1079 -0.2976 -0.0453
   39MOL0     H 5109   1.469   6.199   9.129 -0.0760  0.2283 -0.1479
   39MOL0     H 5110   1.151   6.322   8.803  2.2029 -1.8616 -1.1649
   39MOL0     H 5111   1.124   6.500   8.663 -0.0226  0.8094  0.5711
   39MOL0     H 5112   1.600   6.717   8.350  0.5972  0.0584 -0.3071
   39MOL0     H 5113   1.639   6.887   8.160 -1.1201  1.3271 -2.0090
   39MOL0     H 5114   1.368   7.244   8.120  0.8599 -0.9881  1.4463
   39MOL0     H 5115   1.270   7.114   8.058 -2.1056  3.6443  0.5197
   39MOL0     H 5116   1.296   7.218   7.857 -0.9180  1.8021  0.0619
   39MOL0     H 5117   1.453   7.158   7.841 -0.5574  1.0763 -1.7012
   39MOL0     H 5118   1.381   7.433   7.949  1.1121 -0.2227  2.4318
   39MOL0     H 5119   1.473   7.395   7.804  0.1774 -2.0295  0.1185
   39MOL0     H 5120   1.564   7.389   8.096 -2.5852 -2.0935 -1.6261
   39MOL0     H 5121   1.660   7.314   7.958  0.9608 -0.7677 -0.1867
   39MOL0     H 5122   1.679   7.510   7.844  1.2057  0.7830  1.2275
   39MOL0     H 5123   1.744   7.520   8.007 -0.1531  0.2127  0.0382
   39MOL0     H 5124   1.557   7.659   8.079  2.9259  2.7003  0.6136
   39MOL0     H 5125   1.482   7.653   7.918 -1.0394  0.4612  0.9466
   39MOL0     H 5126   1.759   7.767   7.979  0.8685 -0.1511 -0.8580
   39MOL0     H 5127   1.685   7.766   7.824  0.7843 -1.8073  0.4968
   39MOL0     H 5128   1.546   7.902   8.068  1.8018 -0.2609 -0.8369
   39MOL0     H 5129   1.481   7.885   7.908 -1.3433  0.0875  2.5886
   39MOL0     H 5130   1.247   7.049   8.260  1.1174  1.8876  1.4174
   39MOL0     H 5131   1.239   6.909   8.455  0.7671  3.1103  0.7635
   39MOL0     H 5132   1.520   6.636   8.713 -0.0866  1.9945  1.6189
   39MOL0     H 5133   1.558   6.460   8.888  0.6787  0.6564 -0.7398
   39MOL0     H 5134   2.959   6.481   9.743 -0.6931 -0.3609  0.6607
   39MOL0     H 5135   3.196   6.539   9.728  0.7845 -2.6293 -1.0358
   39MOL0     H 5136   3.519   6.530   9.550  0.3373 -0.6565  0.0443
   39MOL0     H 5137   3.751   6.526   9.627 -0.2835  0.1886 -0.4409
   39MOL0     H 5138   4.008   6.871   9.520  1.6286 -1.4259 -1.7488
   39MOL0     H 5139   4.131   6.755   9.551 -0.6711 -2.4455 -1.0244
   39MOL0     H 5140   3.985   6.893   9.788 -0.2816 -1.7031  1.4480
   39MOL0     H 5141   4.073   6.741   9.799 -2.9919 -1.9656 -2.7097
   39MOL0     H 5142   4.198   6.937   9.863 -0.2029  0.2048 -0.1274
   39MOL0     H 5143   4.182   7.008   9.696 -0.0420  0.3335  0.7180
   39MOL0     H 5144   4.359   6.771   9.778 -3.4346  1.8768  2.3060
   39MOL0     H 5145   4.320   6.805   9.612  0.9590  1.1880 -0.7280
   39MOL0     H 5146   4.638   7.062   9.680  0.5483 -1.4496  2.6832
   39MOL0     H 5147   3.797   6.940   9.534 -1.9154  0.9660  1.8237
   39MOL0     H 5148   3.546   6.949   9.471 -1.8885 -0.5227  0.6483
   40MOL0     O 5149   6.992   8.597   6.296 -0.4979 -0.2995  0.2609
   40MOL0     C 5150   7.016   8.671   6.198  0.3396 -0.3279  0.4146
   40MOL0     O 5151   6.915   8.758   6.139  0.1988 -0.2931  0.1691
   40MOL0     C 5152   6.795   8.773   6.196  0.4295 -0.1032  0.3638
   40MOL0     C 5153   6.781   8.798   6.333 -0.2957  0.8346 -0.7546
   40MOL0     C 5154   6.662   8.843   6.398 -0.3866 -0.4326 -0.2087
   40MOL0     C 5155   6.549   8.854   6.321  0.5652  0.0405  0.5257
   40MOL0     O 5156   6.431   8.917   6.363 -0.2712  0.0786 -0.0663
   40MOL0     C 5157   6.434   8.977   6.496 -0.5284 -0.2670  0.4111
   40MOL0     C 5158   6.306   9.063   6.511  0.2228  0.1247 -0.8875
   40MOL0     C 5159   6.181   8.984   6.497 -0.0419  1.2329  0.8690
   40MOL0     C 5160   6.052   9.065   6.519  0.1298 -0.3561  0.8247
   40MOL0     C 5161   5.921   8.980   6.539 -0.1524  0.8499 -0.2419
   40MOL0     C 5162   5.792   9.061   6.575 -0.6690 -0.2984 -0.6605
   40MOL0     C 5163   5.661   8.969   6.578  0.0701  1.2401  0.1297
   40MOL0     C 5164   5.552   9.042   6.654 -0.6491 -0.2469 -1.2199
   40MOL0     N 5165   5.436   8.963   6.691 -0.5986  0.0608 -0.3205
   40MOL0     C 5166   5.304   9.000   6.722  0.1025  0.0714  0.9074
   40MOL0     C 5167   5.243   8.887   6.772 -0.0787 -0.0321  0.4063
   40MOL0     C 5168   5.098   8.861   6.797  0.5856 -0.5037 -0.0643
   40MOL0     C 5169   5.053   8.979   6.897  0.4258 -0.0608 -1.2008
   40MOL0     C 5170   4.912   8.949   6.965 -0.1133 -0.3859  0.3270
   40MOL0     C 5171   4.927   8.839   7.065  0.4597 -0.0625  0.2900
   40MOL0     O 5172   4.806   8.846   7.150 -0.1109 -0.3542 -0.2177
   40MOL0     C 5173   4.694   8.778   7.121  0.1251 -1.0044  0.4827
   40MOL0     C 5174   4.694   8.640   7.102  0.0604  0.6592 -0.1609
   40MOL0     C 5175   4.578   8.569   7.093 -0.3786  0.0022 -0.5171
   40MOL0     C 5176   4.455   8.639   7.097  1.0009  0.3209 -0.4193
   40MOL0     C 5177   4.325   8.567   7.089 -0.3050  0.8002 -0.5952
   40MOL0     O 5178   4.212   8.633   7.076  0.1302 -0.4744  0.2084
   40MOL0     C 5179   4.087   8.576   7.075 -0.6102  0.2962  0.6937
   40MOL0     C 5180   3.976   8.675   7.101 -1.0764  1.6464  0.0700
   40MOL0     C 5181   3.837   8.640   7.110  0.0248  0.8611 -0.2915
   40MOL0     C 5182   3.806   8.506   7.075 -0.4113  0.4250  0.4537
   40MOL0     O 5183   3.674   8.450   7.083  0.2290  0.3939  0.4734
   40MOL0     C 5184   3.629   8.397   6.955  0.9828 -0.4632  0.0022
   40MOL0     C 5185   3.472   8.415   6.944 -0.2851  0.8821  0.6764
   40MOL0     C 5186   3.423   8.351   6.817 -0.1146 -0.8690  0.0376
   40MOL0     C 5187   3.273   8.393   6.784  0.0294  0.3599 -0.3637
   40MOL0     C 5188   3.212   8.326   6.655 -0.3436 -0.0634 -0.0797
   40MOL0     C 5189   3.063   8.332   6.669 -0.0890  0.5158  0.6625
   40MOL0     C 5190   3.004   8.269   6.545 -0.2108 -0.2411  0.0013
   40MOL0     C 5191   2.862   8.224   6.567 -0.3623 -0.5180  0.4573
   40MOL0    Cl 5192   2.773   8.205   6.411  0.7154 -0.0520 -0.7307
   40MOL0     C 5193   3.905   8.418   7.039 -0.6529  1.0324 -0.7630
   40MOL0     C 5194   4.048   8.445   7.045 -0.0280  0.1903  0.3257
   40MOL0     O 5195   4.327   8.443   7.103 -0.6246 -0.3246  0.7779
   40MOL0     C 5196   4.454   8.783   7.122  0.6254 -0.3868 -0.7509
   40MOL0     C 5197   4.578   8.848   7.141 -0.5564  0.2001 -0.6306
   40MOL0     N 5198   5.335   8.786   6.757 -0.0550  0.0830 -0.7172
   40MOL0     N 5199   5.445   8.827   6.715  0.5732 -0.2268 -0.1752
   40MOL0     C 5200   6.564   8.839   6.183  0.8443  0.7716  0.1493
   40MOL0     C 5201   6.675   8.789   6.120  0.1459  0.3162 -0.0944
   40MOL0     C 5202   7.154   8.677   6.142 -0.6626  0.1852 -0.2893
   40MOL0     C 5203   7.191   8.742   6.015  1.0068  0.5031  0.4880
   40MOL0     C 5204   7.327   8.731   5.969 -0.0965  0.8107 -0.8356
   40MOL0     C 5205   7.421   8.655   6.043 -0.3181  1.1047 -0.1587
   40MOL0     O 5206   7.553   8.634   6.004 -0.2952 -0.1022  0.1589
   40MOL0     C 5207   7.607   8.693   5.890  0.1688  0.0478  0.8695
   40MOL0     C 5208   7.745   8.743   5.925  0.8021  0.2646  0.4929
   40MOL0     C 5209   7.848   8.635   5.968  0.2318  0.6035  0.8787
   40MOL0     C 5210   7.970   8.708   6.009 -0.4299 -0.2006 -0.6095
   40MOL0     C 5211   8.036   8.803   5.918 -0.1126  0.2466 -0.2054
   40MOL0     C 5212   8.099   8.865   5.837  1.1793 -0.5194  0.4198
   40MOL0     C 5213   7.382   8.589   6.161  0.0711  0.9357  0.5315
   40MOL0     C 5214   7.248   8.599   6.209 -0.5474 -1.0801 -0.4131
   40MOL0     H 5215   6.868   8.794   6.398 -1.3447 -2.8053  0.6650
   40MOL0     H 5216   6.663   8.867   6.504  0.8671  1.3974 -0.5774
   40MOL0     H 5217   6.525   9.038   6.509  0.1607 -1.3567  0.8423
   40MOL0     H 5218   6.429   8.907   6.580 -0.0861 -0.7350  0.0543
   40MOL0     H 5219   6.307   9.138   6.431 -2.4953 -0.5838 -1.6765
   40MOL0     H 5220   6.313   9.115   6.607  1.6828  2.2373 -2.0525
   40MOL0     H 5221   6.194   8.916   6.582  1.3842 -1.4319 -1.3244
   40MOL0     H 5222   6.170   8.921   6.408 -0.0890 -0.1904  1.8438
   40MOL0     H 5223   6.076   9.129   6.605 -1.1044 -2.3594  2.7660
   40MOL0     H 5224   6.024   9.123   6.431 -0.8438  0.3377  1.5663
   40MOL0     H 5225   5.942   8.912   6.622  0.2920  3.1834  1.6965
   40MOL0     H 5226   5.892   8.926   6.448  1.6048 -0.6343  0.0112
   40MOL0     H 5227   5.784   9.145   6.506 -3.8051 -1.2524 -1.6211
   40MOL0     H 5228   5.806   9.112   6.671 -3.6370 -0.0588 -0.2440
   40MOL0     H 5229   5.632   8.944   6.475 -2.6054 -1.5707  1.4092
   40MOL0     H 5230   5.698   8.884   6.637  0.7906  1.7265  0.3966
   40MOL0     H 5231   5.523   9.135   6.606  2.6073  1.9340  0.6549
   40MOL0     H 5232   5.592   9.080   6.749  2.0345  0.9168 -2.6904
   40MOL0     H 5233   5.271   9.101   6.700  0.7897  0.3506  1.1303
   40MOL0     H 5234   5.094   8.767   6.852  0.0456  0.2186  1.1886
   40MOL0     H 5235   5.050   8.865   6.699  1.3739 -3.0330 -0.6151
   40MOL0     H 5236   5.061   9.074   6.844 -0.5917  0.4904 -0.4108
   40MOL0     H 5237   5.127   8.995   6.976  0.0811  2.8064 -1.3622
   40MOL0     H 5238   4.893   9.043   7.018 -0.0509  0.7067 -1.4971
   40MOL0     H 5239   4.832   8.929   6.893 -1.2053 -1.6280  1.8197
   40MOL0     H 5240   5.018   8.848   7.125  2.0389 -1.7091 -1.6995
   40MOL0     H 5241   4.923   8.745   7.008  1.0669 -0.3623  0.7247
   40MOL0     H 5242   4.791   8.591   7.100  0.7166  1.9081 -0.1010
   40MOL0     H 5243   4.575   8.461   7.083 -0.9237  0.0863 -1.3314
   40MOL0     H 5244   4.008   8.777   7.114  0.6280  1.2935 -1.0432
   40MOL0     H 5245   3.763   8.716   7.132  0.5935  1.5063 -0.5542
   40MOL0     H 5246   3.646   8.290   6.972 -0.2076 -0.8046 -0.7966
   40MOL0     H 5247   3.683   8.446   6.874  2.7144 -0.8488  0.8793
   40MOL0     H 5248   3.443   8.520   6.942 -1.5497  0.6824  3.7286
   40MOL0     H 5249   3.425   8.373   7.033 -2.2451  2.8829  0.6681
   40MOL0     H 5250   3.451   8.246   6.826  0.3142 -0.5914  2.9371
   40MOL0     H 5251   3.482   8.379   6.730 -0.6546  1.7165  0.4072
   40MOL0     H 5252   3.211   8.378   6.873 -0.6951 -0.5040 -0.9958
   40MOL0     H 5253   3.272   8.502   6.779  2.1952  0.3686 -3.0211
   40MOL0     H 5254   3.241   8.221   6.646 -0.8234 -0.0295 -3.3875
   40MOL0     H 5255   3.253   8.374   6.565  1.0955 -1.8633 -0.4499
   40MOL0     H 5256   3.039   8.438   6.672 -2.1970  0.1276 -0.8178
   40MOL0     H 5257   3.036   8.280   6.762 -2.1093 -2.6552 -1.5090
   40MOL0     H 5258   3.008   8.350   6.472  1.3018 -1.5221 -1.4271
   40MOL0     H 5259   3.073   8.188   6.518  1.5064  0.8438  0.9245
   40MOL0     H 5260   2.801   8.301   6.617  0.6719  0.3305  0.4661
   40MOL0     H 5261   2.862   8.135   6.630  1.1781 -1.7549 -1.1910
   40MOL0     H 5262   3.878   8.315   7.015  1.7155  0.2407 -0.2707
   40MOL0     H 5263   4.116   8.363   7.021  0.2328  0.4933  0.0246
   40MOL0     H 5264   4.363   8.840   7.136  0.2220 -0.6376 -2.1287
   40MOL0     H 5265   4.592   8.955   7.155  1.4267 -0.0768 -0.1049
   40MOL0     H 5266   6.479   8.861   6.119  3.3651  0.3263 -3.7112
   40MOL0     H 5267   6.668   8.768   6.014 -0.5442  0.4344 -0.0775
   40MOL0     H 5268   7.120   8.799   5.956  3.0631  2.0791 -0.5934
   40MOL0     H 5269   7.356   8.782   5.877  1.0008  1.5454 -0.1048
   40MOL0     H 5270   7.551   8.780   5.855 -1.7873 -1.9077 -1.1938
   40MOL0     H 5271   7.602   8.616   5.812  2.0292  1.3113 -0.5804
   40MOL0     H 5272   7.780   8.794   5.835  0.1146 -2.6810 -1.5876
   40MOL0     H 5273   7.728   8.807   6.012 -1.4661  0.0005  0.3142
   40MOL0     H 5274   7.881   8.574   5.883 -1.4351 -0.8462  1.2266
   40MOL0     H 5275   7.808   8.569   6.045 -0.9162  0.6104  0.2975
   40MOL0     H 5276   7.954   8.769   6.099  0.6741  1.0074 -1.2032
   40MOL0     H 5277   8.044   8.633   6.036  1.1637  1.6013  0.3095
   40MOL0     H 5278   8.137   8.934   5.764 -0.5132 -0.3582 -0.3511
   40MOL0     H 5279   7.457   8.527   6.210 -1.0434  0.8387  2.2330
   40MOL0     H 5280   7.235   8.539   6.298  1.4479 -0.4118  0.3871
   41MOL0     O 5281   5.214   7.187   8.289 -0.3185  0.0843  0.5482
   41MOL0     C 5282   5.305   7.112   8.271 -0.7962  0.2966 -0.0819
   41MOL0     O 5283   5.294   6.970   8.247 -0.7667 -0.1837  0.2190
   41MOL0     C 5284   5.179   6.910   8.262 -0.0948  0.7281  0.6817
   41MOL0     C 5285   5.107   6.911   8.387 -0.4439 -1.0757  0.0791
   41MOL0     C 5286   4.983   6.845   8.406  0.5539  0.7307  0.9453
   41MOL0     C 5287   4.931   6.762   8.306 -0.4622  0.2489  1.2510
   41MOL0     O 5288   4.811   6.689   8.315  0.5655  0.4609  0.3394
   41MOL0     C 5289   4.707   6.719   8.412 -0.2147  0.1475  0.1007
   41MOL0     C 5290   4.577   6.675   8.357  0.9312  0.6542  0.1637
   41MOL0     C 5291   4.569   6.525   8.333  0.4072 -0.2089  0.8020
   41MOL0     C 5292   4.431   6.484   8.302  0.1698 -1.0777 -0.0319
   41MOL0     C 5293   4.430   6.338   8.266  0.7218  0.3822  0.8066
   41MOL0     C 5294   4.280   6.300   8.273 -0.0712  0.6156  0.6106
   41MOL0     C 5295   4.251   6.178   8.187 -0.6640  0.2286  0.0427
   41MOL0     C 5296   4.317   6.051   8.230 -0.3857  0.2226 -0.4630
   41MOL0     N 5297   4.296   5.944   8.135 -0.6761  0.7167  0.0434
   41MOL0     C 5298   4.389   5.851   8.122 -0.1044 -0.2534  0.1605
   41MOL0     C 5299   4.334   5.767   8.036 -0.7157  0.0163  0.4629
   41MOL0     C 5300   4.386   5.625   8.006  0.3388  0.0555 -0.6496
   41MOL0     C 5301   4.358   5.536   8.128 -0.4985 -0.0348 -0.0824
   41MOL0     C 5302   4.389   5.388   8.092 -0.4410  0.1297 -1.0878
   41MOL0     C 5303   4.285   5.303   8.173  0.6889 -0.7432 -0.0453
   41MOL0     O 5304   4.330   5.295   8.306  0.2607  0.0024  0.6969
   41MOL0     C 5305   4.269   5.204   8.387 -0.7160 -0.6188  0.1748
   41MOL0     C 5306   4.132   5.183   8.394 -0.0692  0.8114  0.8379
   41MOL0     C 5307   4.078   5.068   8.454  0.2303  0.8765 -0.4618
   41MOL0     C 5308   4.166   4.981   8.519 -0.7131  0.3148  0.8642
   41MOL0     C 5309   4.105   4.862   8.581  0.2051 -0.2941 -0.2151
   41MOL0     O 5310   3.969   4.838   8.561 -0.7145  0.4036 -0.2231
   41MOL0     C 5311   3.910   4.733   8.626  1.1539  0.6636  0.3320
   41MOL0     C 5312   3.931   4.596   8.582 -0.6109 -0.1457  0.5291
   41MOL0     C 5313   3.862   4.493   8.649  0.2060 -0.0319  0.5608
   41MOL0     C 5314   3.761   4.512   8.742 -0.4628  0.1469  0.1654
   41MOL0     O 5315   3.707   4.389   8.781 -0.8638 -0.6882 -0.6780
   41MOL0     C 5316   3.610   4.401   8.891 -0.3377 -0.3431 -0.2840
   41MOL0     C 5317   3.592   4.258   8.952 -0.3413  0.3712 -0.4189
   41MOL0     C 5318   3.527   4.262   9.092 -0.1809 -0.4959 -0.0364
   41MOL0     C 5319   3.473   4.129   9.148 -1.0416  0.8015 -0.4066
   41MOL0     C 5320   3.369   4.140   9.257 -0.0761  1.0139  0.0281
   41MOL0     C 5321   3.329   4.002   9.314  0.2335  0.1595  0.6374
   41MOL0     C 5322   3.236   3.935   9.212 -1.0775 -0.0931  0.5883
   41MOL0     C 5323   3.187   3.805   9.273 -0.1770 -0.7066  0.2721
   41MOL0    Cl 5324   3.097   3.728   9.134  0.0293 -0.1215  0.1270
   41MOL0     C 5325   3.730   4.644   8.775  0.0474 -0.1238 -0.5275
   41MOL0     C 5326   3.799   4.756   8.713  1.6643 -0.2008  0.3996
   41MOL0     O 5327   4.180   4.795   8.654  0.7472  0.2151 -0.0325
   41MOL0     C 5328   4.299   5.007   8.519  0.4712  0.0431 -0.1104
   41MOL0     C 5329   4.348   5.122   8.459  0.4209  0.5042  0.0495
   41MOL0     N 5330   4.202   5.804   8.013 -0.3543  0.5417  0.3910
   41MOL0     N 5331   4.180   5.916   8.079  0.5239  0.0774 -0.7881
   41MOL0     C 5332   4.998   6.762   8.176 -0.4247  0.5642 -0.2065
   41MOL0     C 5333   5.120   6.831   8.163 -0.0668 -0.7920 -0.7682
   41MOL0     C 5334   5.442   7.171   8.272 -0.1637 -0.1042 -0.4200
   41MOL0     C 5335   5.458   7.308   8.259 -0.0221 -0.1677 -0.0606
   41MOL0     C 5336   5.580   7.368   8.288  0.1863 -0.3936 -0.7815
   41MOL0     C 5337   5.688   7.283   8.324 -0.3416 -0.3776  0.1888
   41MOL0     O 5338   5.812   7.347   8.337  0.3427 -0.1979 -0.5466
   41MOL0     C 5339   5.853   7.401   8.206 -0.7033 -0.4221  0.7290
   41MOL0     C 5340   5.999   7.376   8.175 -0.3137  0.4490 -1.3691
   41MOL0     C 5341   6.097   7.456   8.262  0.8245 -0.1435 -1.0636
   41MOL0     C 5342   6.236   7.415   8.238  0.2918  0.8122 -0.4081
   41MOL0     C 5343   6.330   7.475   8.334 -0.7386 -0.3679 -0.0581
   41MOL0     C 5344   6.413   7.515   8.415 -0.0667 -0.3745  1.0919
   41MOL0     C 5345   5.669   7.145   8.320  0.0434  0.0495  0.7103
   41MOL0     C 5346   5.549   7.089   8.291 -0.2309 -0.2232  0.4425
   41MOL0     H 5347   5.143   6.967   8.473  0.9185 -3.8301  1.4224
   41MOL0     H 5348   4.916   6.844   8.491  0.8836 -0.1738  1.2095
   41MOL0     H 5349   4.684   6.825   8.424 -2.8601 -0.4443  0.9498
   41MOL0     H 5350   4.742   6.677   8.507  0.2791  0.9667  0.2887
   41MOL0     H 5351   4.565   6.718   8.257 -0.6692 -0.8463 -0.3466
   41MOL0     H 5352   4.497   6.711   8.422  1.9704  1.3672  1.1017
   41MOL0     H 5353   4.606   6.473   8.421 -1.1508  0.2681  1.7749
   41MOL0     H 5354   4.640   6.486   8.259  0.9293 -0.4130  1.3989
   41MOL0     H 5355   4.359   6.504   8.381 -0.3864  0.7129 -0.9321
   41MOL0     H 5356   4.408   6.536   8.208 -2.1808  0.3482  1.2568
   41MOL0     H 5357   4.483   6.276   8.340 -3.2826 -3.3724  0.8854
   41MOL0     H 5358   4.471   6.315   8.167 -1.4475 -0.6219  0.0741
   41MOL0     H 5359   4.213   6.379   8.236  0.0524 -0.4351 -2.0803
   41MOL0     H 5360   4.257   6.275   8.377  0.1463 -0.2814  0.4436
   41MOL0     H 5361   4.145   6.163   8.210 -1.4172  2.1116 -1.8976
   41MOL0     H 5362   4.257   6.178   8.078  0.1879  1.1335  0.0741
   41MOL0     H 5363   4.286   6.023   8.331  3.5705  0.6650  1.0707
   41MOL0     H 5364   4.425   6.067   8.231 -0.4952  1.4148 -2.6457
   41MOL0     H 5365   4.490   5.838   8.159 -0.6349 -0.3339  1.6221
   41MOL0     H 5366   4.493   5.641   7.994  0.3604  0.0234 -0.4921
   41MOL0     H 5367   4.350   5.587   7.910  1.3571 -1.0507 -0.6036
   41MOL0     H 5368   4.253   5.539   8.159 -0.5468 -2.8884  0.3052
   41MOL0     H 5369   4.418   5.567   8.214 -0.2451 -1.3524  0.2431
   41MOL0     H 5370   4.384   5.363   7.986  0.3742 -1.0396 -0.8599
   41MOL0     H 5371   4.487   5.369   8.135 -1.6140  0.3573  2.0075
   41MOL0     H 5372   4.287   5.203   8.130  0.6659 -0.7651  0.0068
   41MOL0     H 5373   4.183   5.344   8.171  0.4701 -1.1968  1.2700
   41MOL0     H 5374   4.062   5.243   8.337 -1.7750 -1.5328  0.2920
   41MOL0     H 5375   3.970   5.057   8.453  0.3003 -0.4658  1.2104
   41MOL0     H 5376   4.008   4.587   8.506  0.0399 -0.2580  1.1984
   41MOL0     H 5377   3.892   4.391   8.630  1.3435  0.4420 -0.2853
   41MOL0     H 5378   3.514   4.448   8.868  0.7076  0.8356 -2.6857
   41MOL0     H 5379   3.664   4.455   8.969 -0.8463 -0.3619  0.0779
   41MOL0     H 5380   3.687   4.208   8.969 -0.7799  0.5848  3.7979
   41MOL0     H 5381   3.525   4.195   8.893 -2.3129  0.3280  1.6840
   41MOL0     H 5382   3.439   4.325   9.076 -0.6889  0.0563  3.9668
   41MOL0     H 5383   3.592   4.305   9.169  0.8468 -1.4061 -0.3651
   41MOL0     H 5384   3.434   4.063   9.071 -0.0663 -1.4591  0.9215
   41MOL0     H 5385   3.558   4.078   9.196 -3.3343 -2.1833  0.8547
   41MOL0     H 5386   3.283   4.188   9.209 -0.3886  0.5786  0.1531
   41MOL0     H 5387   3.399   4.208   9.338 -0.3055  2.9739 -1.4537
   41MOL0     H 5388   3.269   4.031   9.401  0.4575  0.2695  0.7536
   41MOL0     H 5389   3.415   3.940   9.342  0.7594 -0.6608 -2.3654
   41MOL0     H 5390   3.155   4.006   9.191 -1.1021  1.0131  3.8558
   41MOL0     H 5391   3.280   3.910   9.115 -1.5546  0.4044  0.2412
   41MOL0     H 5392   3.125   3.814   9.362 -1.4454  0.7396 -0.6957
   41MOL0     H 5393   3.276   3.750   9.304  1.7813  3.3568  2.7424
   41MOL0     H 5394   3.650   4.668   8.844 -1.9386 -1.0024 -2.4385
   41MOL0     H 5395   3.770   4.858   8.738  1.2838 -0.4367  0.9656
   41MOL0     H 5396   4.364   4.926   8.550  1.4009  1.0731  0.7518
   41MOL0     H 5397   4.456   5.132   8.456  0.5016  0.7403  2.3867
   41MOL0     H 5398   4.957   6.709   8.090 -0.9102 -3.0148  2.0156
   41MOL0     H 5399   5.169   6.837   8.066  1.4726  1.1612  0.0519
   41MOL0     H 5400   5.369   7.369   8.243 -0.0132  0.2041  1.2076
   41MOL0     H 5401   5.593   7.474   8.272  1.4258 -0.7554 -2.4907
   41MOL0     H 5402   5.848   7.510   8.216  2.0045 -0.3640  2.5399
   41MOL0     H 5403   5.795   7.374   8.117  0.3134  1.6145 -0.6133
   41MOL0     H 5404   6.014   7.270   8.196  1.4270  0.7581 -0.9086
   41MOL0     H 5405   6.021   7.393   8.069  2.1339 -0.9091 -1.1547
   41MOL0     H 5406   6.068   7.446   8.367  3.1634 -1.1729 -0.4331
   41MOL0     H 5407   6.085   7.563   8.245  2.9714  0.2209 -0.6134
   41MOL0     H 5408   6.247   7.306   8.236  1.3158  0.9073 -1.0924
   41MOL0     H 5409   6.264   7.442   8.136  0.9801  0.1665 -0.4040
   41MOL0     H 5410   6.470   7.564   8.492 -1.2840  3.4236 -0.1936
   41MOL0     H 5411   5.750   7.073   8.324  0.1339  0.0816 -0.2001
   41MOL0     H 5412   5.539   6.981   8.290  0.0879 -0.2922 -2.5009
   42MOL0     O 5413   8.791   5.826   8.168  0.2731 -0.2758  0.7517
   42MOL0     C 5414   8.850   5.782   8.065  0.0653 -0.3253  0.0447
   42MOL0     O 5415   8.790   5.721   7.953  0.1896 -0.0614  0.0309
   42MOL0     C 5416   8.655   5.695   7.961 -0.0494 -0.1753  0.5743
   42MOL0     C 5417   8.595   5.637   8.074  0.1400 -0.1544  0.6367
   42MOL0     C 5418   8.457   5.607   8.082  1.0361  0.9020  0.2433
   42MOL0     C 5419   8.373   5.634   7.976 -0.8113 -1.1322 -1.2640
   42MOL0     O 5420   8.244   5.601   7.993  0.6017  0.8153  0.9291
   42MOL0     C 5421   8.165   5.660   8.093 -1.4399 -0.1048 -0.4544
   42MOL0     C 5422   8.019   5.644   8.053  0.6642  0.4586 -0.1047
   42MOL0     C 5423   7.973   5.743   7.950  0.3230  0.3255  0.4164
   42MOL0     C 5424   7.827   5.717   7.898 -0.2607  0.6944 -0.1551
   42MOL0     C 5425   7.768   5.846   7.832 -0.3940 -0.9505 -0.0844
   42MOL0     C 5426   7.636   5.825   7.760  0.0592 -0.4785  0.8042
   42MOL0     C 5427   7.648   5.749   7.621 -1.5980  0.0099  0.3548
   42MOL0     C 5428   7.507   5.731   7.565 -0.3158 -0.7342 -0.6321
   42MOL0     N 5429   7.423   5.636   7.631  0.4316  0.3715 -0.0225
   42MOL0     C 5430   7.416   5.501   7.600  0.4815 -0.4188  0.2089
   42MOL0     C 5431   7.331   5.454   7.690  0.2029  0.3277 -0.2152
   42MOL0     C 5432   7.295   5.316   7.707  0.6359 -0.1811  0.2138
   42MOL0     C 5433   7.370   5.247   7.816 -0.2764 -0.5571  0.4372
   42MOL0     C 5434   7.322   5.098   7.845  0.6834  0.6412  0.2891
   42MOL0     C 5435   7.183   5.100   7.900 -0.0071  0.0970 -0.7166
   42MOL0     O 5436   7.089   5.063   7.798 -0.2644  0.2614 -0.8104
   42MOL0     C 5437   7.042   4.935   7.792 -0.2293  0.1412 -0.8365
   42MOL0     C 5438   7.084   4.825   7.872 -0.0334  0.4539 -0.2380
   42MOL0     C 5439   7.014   4.699   7.861 -0.0472  0.0652 -0.2705
   42MOL0     C 5440   6.915   4.687   7.769  0.6031 -0.6394 -0.1241
   42MOL0     C 5441   6.826   4.566   7.747  0.7038 -0.3710 -1.1688
   42MOL0     O 5442   6.722   4.567   7.650  0.1614  0.6140 -0.0900
   42MOL0     C 5443   6.663   4.448   7.616  0.6854 -0.1620 -1.2631
   42MOL0     C 5444   6.726   4.351   7.546 -0.4089  0.7202 -0.1748
   42MOL0     C 5445   6.674   4.234   7.507  0.6118  0.1260  1.0456
   42MOL0     C 5446   6.546   4.195   7.547  0.7003  0.0423  0.3621
   42MOL0     O 5447   6.488   4.082   7.509 -0.0110  0.5079  0.9064
   42MOL0     C 5448   6.481   4.066   7.365  0.6664 -0.3014  0.5693
   42MOL0     C 5449   6.572   3.955   7.336 -0.2683 -0.0975  0.2890
   42MOL0     C 5450   6.547   3.893   7.197  0.1559  0.5107  0.1062
   42MOL0     C 5451   6.436   3.784   7.199  0.1276  0.4881 -0.3943
   42MOL0     C 5452   6.436   3.716   7.064  0.2590  0.5502  0.0663
   42MOL0     C 5453   6.311   3.625   7.019 -0.1814  0.4089 -0.2196
   42MOL0     C 5454   6.273   3.527   7.134 -0.4801 -0.2286  0.7618
   42MOL0     C 5455   6.186   3.409   7.075  0.2041 -0.5305  0.6964
   42MOL0    Cl 5456   6.286   3.281   7.001  0.1775 -0.0471  0.3706
   42MOL0     C 5457   6.478   4.281   7.635 -0.6480 -0.6268 -0.0586
   42MOL0     C 5458   6.537   4.408   7.656  0.5546 -0.0201 -0.7002
   42MOL0     O 5459   6.850   4.476   7.828  0.2088  0.5847  0.0337
   42MOL0     C 5460   6.872   4.796   7.692  0.3743 -0.4918 -0.2394
   42MOL0     C 5461   6.939   4.913   7.701 -0.0017  0.1187  0.2987
   42MOL0     N 5462   7.289   5.555   7.771  0.2797 -0.3439  0.3138
   42MOL0     N 5463   7.334   5.665   7.729 -0.0495 -0.7108 -0.7157
   42MOL0     C 5464   8.421   5.711   7.868 -0.6748 -1.2227  0.2492
   42MOL0     C 5465   8.564   5.729   7.864 -0.7433 -0.6773  0.3141
   42MOL0     C 5466   8.997   5.794   8.051  0.2756 -0.5192  0.1698
   42MOL0     C 5467   9.078   5.825   8.159 -0.3615 -0.6241  0.0013
   42MOL0     C 5468   9.218   5.843   8.153  1.5224  0.2499 -0.3568
   42MOL0     C 5469   9.274   5.845   8.026  0.0654  0.3562  0.3649
   42MOL0     O 5470   9.403   5.884   8.020 -0.3647 -0.6669 -0.0991
   42MOL0     C 5471   9.457   5.965   7.924  0.2185  0.3240 -0.1494
   42MOL0     C 5472   9.370   6.088   7.887 -2.0540  0.2421 -0.0924
   42MOL0     C 5473   9.381   6.196   7.993 -0.5792  0.7847  0.6021
   42MOL0     C 5474   9.265   6.295   8.000  0.1721 -0.7602  0.4840
   42MOL0     C 5475   9.147   6.217   8.019  0.5780 -0.3586 -0.8154
   42MOL0     C 5476   9.040   6.161   8.040  0.5806 -0.0090  0.1915
   42MOL0     C 5477   9.192   5.810   7.918 -0.2699  0.4784  0.5513
   42MOL0     C 5478   9.059   5.781   7.924 -0.7383 -0.0309  0.1151
   42MOL0     H 5479   8.650   5.601   8.160  0.6661  1.2477  0.9135
   42MOL0     H 5480   8.428   5.534   8.157 -0.5503  0.6551 -0.5780
   42MOL0     H 5481   8.192   5.762   8.120  2.3673 -1.8898  3.6941
   42MOL0     H 5482   8.185   5.586   8.171  1.2110 -0.0162 -0.9560
   42MOL0     H 5483   7.963   5.656   8.147 -0.3189 -4.0173  0.0725
   42MOL0     H 5484   7.989   5.547   8.012 -1.7870  0.6521  1.0683
   42MOL0     H 5485   8.037   5.742   7.862  0.9046  2.0497  0.7929
   42MOL0     H 5486   7.973   5.843   7.994 -1.5798 -0.4232  2.3077
   42MOL0     H 5487   7.840   5.639   7.824 -1.8494  1.2898 -1.1187
   42MOL0     H 5488   7.759   5.687   7.979 -0.4241 -0.2475 -0.6296
   42MOL0     H 5489   7.848   5.888   7.770 -1.9146  1.8251 -0.3169
   42MOL0     H 5490   7.746   5.912   7.916  2.4393  0.5822 -0.4238
   42MOL0     H 5491   7.584   5.919   7.741 -1.6635 -1.4455  0.5308
   42MOL0     H 5492   7.570   5.773   7.831 -0.2980 -0.6546  0.3460
   42MOL0     H 5493   7.709   5.792   7.542 -1.0653 -2.8861 -0.9560
   42MOL0     H 5494   7.691   5.649   7.636 -0.8227  0.2701 -0.1519
   42MOL0     H 5495   7.519   5.700   7.461 -0.7320 -1.0840 -0.5796
   42MOL0     H 5496   7.461   5.830   7.559  4.5872  1.7863 -1.5294
   42MOL0     H 5497   7.469   5.438   7.530 -0.6045 -3.1748  1.7122
   42MOL0     H 5498   7.301   5.255   7.616 -2.9097 -2.0126  0.9960
   42MOL0     H 5499   7.194   5.305   7.748  0.9013 -1.6439  0.5437
   42MOL0     H 5500   7.354   5.307   7.906 -0.4892 -1.2074  0.8423
   42MOL0     H 5501   7.476   5.239   7.793 -0.1238 -0.8703  1.2096
   42MOL0     H 5502   7.334   5.037   7.756  0.3477  2.8388 -1.3551
   42MOL0     H 5503   7.388   5.061   7.924 -0.0009 -1.6134 -0.1311
   42MOL0     H 5504   7.167   5.203   7.935  3.1023  0.0823  1.1463
   42MOL0     H 5505   7.176   5.032   7.985  0.6841 -1.3503 -1.7703
   42MOL0     H 5506   7.158   4.845   7.949  1.2118 -3.9697 -0.0088
   42MOL0     H 5507   7.025   4.617   7.931 -1.9181  0.5818  0.6868
   42MOL0     H 5508   6.824   4.376   7.506 -0.4525 -2.1827 -2.4334
   42MOL0     H 5509   6.716   4.160   7.440 -3.2248 -2.2829  1.0098
   42MOL0     H 5510   6.523   4.147   7.304  1.5504 -1.5278 -0.4983
   42MOL0     H 5511   6.377   4.051   7.333  1.1078  0.1738 -1.1914
   42MOL0     H 5512   6.567   3.879   7.415 -0.6230  2.4804  2.9225
   42MOL0     H 5513   6.676   3.986   7.338 -0.5626  1.0267  2.8406
   42MOL0     H 5514   6.643   3.852   7.166  0.2401  0.6831  0.1335
   42MOL0     H 5515   6.521   3.975   7.129 -2.3685 -0.6452 -0.4377
   42MOL0     H 5516   6.454   3.714   7.281  0.9635 -2.1590 -2.6678
   42MOL0     H 5517   6.345   3.842   7.217  0.3425  0.9177 -0.6835
   42MOL0     H 5518   6.520   3.647   7.075  0.0180 -0.0367 -1.4867
   42MOL0     H 5519   6.446   3.786   6.980 -1.1490 -0.9343 -1.3947
   42MOL0     H 5520   6.323   3.570   6.925 -0.5445 -0.0139 -0.0238
   42MOL0     H 5521   6.222   3.686   7.003 -0.0112  0.5842 -0.5207
   42MOL0     H 5522   6.358   3.484   7.189 -0.6537 -1.6743 -0.0413
   42MOL0     H 5523   6.213   3.580   7.207  0.8619  2.2529  0.1832
   42MOL0     H 5524   6.111   3.435   6.999  1.6251  1.4384 -0.1271
   42MOL0     H 5525   6.140   3.364   7.163  0.7878 -3.0042 -0.1772
   42MOL0     H 5526   6.380   4.257   7.674 -0.2338  0.4917  1.7822
   42MOL0     H 5527   6.480   4.478   7.717 -0.8790 -0.6321 -1.2692
   42MOL0     H 5528   6.789   4.798   7.623 -0.4520 -4.0062  0.4348
   42MOL0     H 5529   6.903   5.002   7.651  3.6300  4.7417  4.9267
   42MOL0     H 5530   8.342   5.728   7.796 -1.2727 -1.4481  0.8413
   42MOL0     H 5531   8.599   5.771   7.770 -3.7606 -1.4379 -1.2935
   42MOL0     H 5532   9.021   5.833   8.251 -1.7092  0.0312 -0.8547
   42MOL0     H 5533   9.270   5.861   8.246 -1.5889  1.6340  1.2379
   42MOL0     H 5534   9.472   5.905   7.834  1.2515 -1.2579  1.0226
   42MOL0     H 5535   9.555   6.001   7.958 -0.0143 -0.0880  0.9830
   42MOL0     H 5536   9.406   6.137   7.796  1.9505 -0.5424  0.8959
   42MOL0     H 5537   9.269   6.057   7.860 -0.9424 -3.5804 -0.3264
   42MOL0     H 5538   9.478   6.243   7.971 -0.9918  0.8056 -1.3465
   42MOL0     H 5539   9.392   6.146   8.090 -0.4452  1.1173  0.7600
   42MOL0     H 5540   9.288   6.362   8.084  1.3505 -1.1541  0.4935
   42MOL0     H 5541   9.255   6.354   7.909 -1.3187 -2.9278 -0.8657
   42MOL0     H 5542   8.950   6.106   8.059 -0.0523  0.8181 -0.3830
   42MOL0     H 5543   9.244   5.802   7.823 -0.8039 -0.3568  0.3177
   42MOL0     H 5544   9.004   5.761   7.833 -1.4987  2.2432  0.0125
   43MOL0     O 5545   3.864  10.929   1.181 -0.7778  0.2610  0.4509
   43MOL0     C 5546   3.821  10.960   1.075  0.6340 -0.4462 -1.1283
   43MOL0     O 5547   3.697  10.927   1.026  0.2303  0.2649 -0.0033
   43MOL0     C 5548   3.595  10.880   1.100  0.5631  0.7178  0.0869
   43MOL0     C 5549   3.587  10.858   1.241 -0.2996 -0.1200 -0.1183
   43MOL0     C 5550   3.473  10.797   1.299  0.0378  0.5907  0.6361
   43MOL0     C 5551   3.373  10.735   1.225  0.5987  0.1621  0.1242
   43MOL0     O 5552   3.276  10.653   1.294 -0.1486 -0.8879 -0.4090
   43MOL0     C 5553   3.149  10.621   1.240 -0.5904 -0.5445  0.6266
   43MOL0     C 5554   3.048  10.737   1.220 -0.1121  0.1792  0.3090
   43MOL0     C 5555   2.905  10.692   1.174 -0.1221  0.3108 -0.8691
   43MOL0     C 5556   2.900  10.689   1.020 -0.0361 -0.2069  0.0161
   43MOL0     C 5557   2.754  10.661   0.971  0.7120 -0.1601 -0.1244
   43MOL0     C 5558   2.684  10.532   1.031  0.6082 -1.4101 -0.4194
   43MOL0     C 5559   2.752  10.409   0.973  0.1685  0.0262 -0.2129
   43MOL0     C 5560   2.724  10.268   1.035  0.2579 -0.1311 -0.6285
   43MOL0     N 5561   2.580  10.244   1.013  0.3820 -0.4856  0.6192
   43MOL0     C 5562   2.531  10.147   0.925 -1.0443 -0.6826 -0.3989
   43MOL0     C 5563   2.406  10.128   0.959  1.0201 -0.0025 -0.8646
   43MOL0     C 5564   2.309  10.027   0.910 -0.3597 -0.0228  0.2407
   43MOL0     C 5565   2.335   9.897   0.989 -0.7935  0.8989  0.3889
   43MOL0     C 5566   2.243   9.779   0.953  0.4734  0.8444  0.1349
   43MOL0     C 5567   2.082   9.808   0.963 -0.4387  0.3812 -0.1888
   43MOL0     O 5568   2.016   9.699   0.900 -0.8250  0.2683 -0.2033
   43MOL0     C 5569   2.000   9.574   0.967 -0.1703  0.3735 -0.4002
   43MOL0     C 5570   1.939   9.471   0.902  0.0672  0.8027  0.3086
   43MOL0     C 5571   1.915   9.346   0.965  0.3182  0.0995  0.4882
   43MOL0     C 5572   1.932   9.338   1.105  0.3013 -0.0439  0.0031
   43MOL0     C 5573   1.884   9.211   1.171  0.5576 -0.3043 -0.5652
   43MOL0     O 5574   1.793   9.139   1.103  0.5184 -0.7991  0.0421
   43MOL0     C 5575   1.703   9.052   1.157 -0.6661 -0.0405 -0.6007
   43MOL0     C 5576   1.566   9.072   1.149 -0.4355  0.4522 -0.2201
   43MOL0     C 5577   1.476   8.989   1.201 -0.2418  0.0916 -1.3780
   43MOL0     C 5578   1.514   8.868   1.271  0.5323  0.4871  0.0699
   43MOL0     O 5579   1.432   8.776   1.314  0.2220  0.3434  0.4939
   43MOL0     C 5580   1.411   8.776   1.458 -0.0317  0.2347  0.6295
   43MOL0     C 5581   1.344   8.651   1.506 -0.1715  1.0936  0.8492
   43MOL0     C 5582   1.270   8.682   1.640 -0.1460 -0.3008  0.0714
   43MOL0     C 5583   1.214   8.552   1.701 -0.7744 -0.5554 -0.4875
   43MOL0     C 5584   1.166   8.591   1.841 -0.5070 -0.2282  0.2903
   43MOL0     C 5585   1.104   8.474   1.911 -1.0817  0.2764  0.3124
   43MOL0     C 5586   1.046   8.504   2.049  0.2096  0.5423 -0.0772
   43MOL0     C 5587   0.926   8.602   2.058 -0.4413  0.7406 -0.3333
   43MOL0    Cl 5588   0.788   8.518   1.988 -0.1492  0.4464  0.0629
   43MOL0     C 5589   1.654   8.854   1.293  0.1991  0.0992  0.0577
   43MOL0     C 5590   1.747   8.950   1.240  0.7458  0.4040 -0.2887
   43MOL0     O 5591   1.913   9.194   1.295  1.2683 -0.5306  0.6097
   43MOL0     C 5592   1.985   9.441   1.179 -0.0175 -0.5984  0.3257
   43MOL0     C 5593   2.022   9.559   1.110 -0.1677  0.7515  0.9001
   43MOL0     N 5594   2.378  10.210   1.064  0.1835 -0.4246 -0.0713
   43MOL0     N 5595   2.481  10.278   1.093 -0.1596  0.2000  0.1491
   43MOL0     C 5596   3.380  10.758   1.085 -0.6446  0.2657  0.0955
   43MOL0     C 5597   3.482  10.837   1.027 -0.7033  0.9989 -1.2430
   43MOL0     C 5598   3.901  11.048   0.996  0.2792  0.0003 -0.1483
   43MOL0     C 5599   3.844  11.095   0.871  0.0267  0.0252 -0.7038
   43MOL0     C 5600   3.921  11.171   0.787  0.2912 -0.8287 -0.1095
   43MOL0     C 5601   4.050  11.211   0.821  0.1111 -0.3610 -0.3896
   43MOL0     O 5602   4.109  11.306   0.737  0.2569  0.1332 -0.3241
   43MOL0     C 5603   4.238  11.362   0.782 -0.6109  0.2601  0.7270
   43MOL0     C 5604   4.314  11.444   0.676 -0.1295  0.8983 -0.3535
   43MOL0     C 5605   4.446  11.497   0.737 -0.8666 -0.9614  0.3458
   43MOL0     C 5606   4.519  11.573   0.625 -0.2697 -0.5398  0.0473
   43MOL0     C 5607   4.655  11.590   0.680  0.1140 -0.1681  0.6169
   43MOL0     C 5608   4.772  11.601   0.707 -0.3654  0.0236 -0.2533
   43MOL0     C 5609   4.102  11.163   0.938  0.3914 -0.6321 -0.2887
   43MOL0     C 5610   4.031  11.085   1.038 -0.8192  0.5830  1.0901
   43MOL0     H 5611   3.673  10.881   1.302  0.8459  0.1887 -1.7661
   43MOL0     H 5612   3.465  10.777   1.406 -0.3857 -0.3543  0.4375
   43MOL0     H 5613   3.109  10.537   1.297  3.0900 -2.3141  0.8738
   43MOL0     H 5614   3.178  10.577   1.144  0.6902  1.9218 -0.2031
   43MOL0     H 5615   3.088  10.801   1.141  0.0529 -1.0311 -0.6204
   43MOL0     H 5616   3.040  10.792   1.314  0.1871  1.2497 -0.2782
   43MOL0     H 5617   2.825  10.744   1.227 -0.7086 -1.0390 -0.3666
   43MOL0     H 5618   2.907  10.590   1.214  2.7355  0.3116 -0.7917
   43MOL0     H 5619   2.930  10.783   0.973 -2.0538 -0.0643 -1.1263
   43MOL0     H 5620   2.974  10.615   0.988  1.8805  1.2802  0.8211
   43MOL0     H 5621   2.747  10.652   0.862  3.0852 -1.2575 -0.2392
   43MOL0     H 5622   2.696  10.749   1.001  0.8863 -0.0440 -0.1255
   43MOL0     H 5623   2.582  10.542   0.992  1.6846 -2.2836 -3.8475
   43MOL0     H 5624   2.688  10.524   1.140  0.8269 -3.8835 -0.5405
   43MOL0     H 5625   2.737  10.405   0.865  1.5992 -1.7251 -0.3910
   43MOL0     H 5626   2.860  10.417   0.987  0.0447 -0.6786  1.4660
   43MOL0     H 5627   2.756  10.277   1.139  1.2117  2.1407 -1.0568
   43MOL0     H 5628   2.791  10.197   0.983  2.0337  1.4390 -0.5835
   43MOL0     H 5629   2.566  10.082   0.845 -2.5369 -2.2268  0.1399
   43MOL0     H 5630   2.329  10.001   0.805  2.5838 -0.7272  0.8935
   43MOL0     H 5631   2.209  10.071   0.920 -0.1394 -0.0622  4.1333
   43MOL0     H 5632   2.326   9.919   1.096 -0.8132  1.0744  0.3519
   43MOL0     H 5633   2.438   9.866   0.970 -0.8174  1.1705 -0.2050
   43MOL0     H 5634   2.257   9.750   0.849 -2.9664 -0.4689 -0.0966
   43MOL0     H 5635   2.266   9.691   1.016 -0.4886  0.2957 -0.2646
   43MOL0     H 5636   2.042   9.896   0.912  2.3325  1.5897 -0.4304
   43MOL0     H 5637   2.055   9.814   1.069  1.7952 -0.1347  0.4713
   43MOL0     H 5638   1.930   9.495   0.796  4.8035 -2.3712 -1.1561
   43MOL0     H 5639   1.875   9.259   0.914  0.6752 -1.2033  2.3288
   43MOL0     H 5640   1.521   9.160   1.105 -3.4422  0.6723  2.8840
   43MOL0     H 5641   1.371   9.014   1.198 -0.4056 -0.5618 -1.2203
   43MOL0     H 5642   1.349   8.861   1.487  0.1490 -0.0209  1.8052
   43MOL0     H 5643   1.503   8.782   1.517  1.4581  4.8504 -1.6399
   43MOL0     H 5644   1.422   8.581   1.538  2.7075  1.7757 -3.6902
   43MOL0     H 5645   1.276   8.611   1.430  0.5645  1.8071 -0.2153
   43MOL0     H 5646   1.180   8.745   1.632  2.4804  4.2662  2.2098
   43MOL0     H 5647   1.336   8.742   1.704  0.0909  1.1717 -1.4839
   43MOL0     H 5648   1.130   8.508   1.646 -1.0570 -0.0593 -0.4574
   43MOL0     H 5649   1.295   8.478   1.706  0.1443  0.4805  3.4215
   43MOL0     H 5650   1.084   8.663   1.839 -1.5219 -1.3363  1.0210
   43MOL0     H 5651   1.245   8.621   1.911  0.0784  0.0557 -0.4810
   43MOL0     H 5652   1.182   8.399   1.928  0.2184  1.6187  0.4833
   43MOL0     H 5653   1.020   8.427   1.858 -1.8348  1.9882 -0.0882
   43MOL0     H 5654   1.009   8.406   2.082  0.2244  0.4964 -0.1977
   43MOL0     H 5655   1.121   8.542   2.120  0.2181  0.8980 -0.2745
   43MOL0     H 5656   0.944   8.692   1.999 -0.1687  1.4024  0.7170
   43MOL0     H 5657   0.907   8.635   2.161  0.9861 -0.7061  0.4308
   43MOL0     H 5658   1.685   8.765   1.347 -3.7168  0.3510  3.2155
   43MOL0     H 5659   1.854   8.934   1.255  0.2100 -0.8426  2.9489
   43MOL0     H 5660   1.998   9.427   1.286 -0.7572  2.1781  0.8650
   43MOL0     H 5661   2.062   9.642   1.168  0.1265  0.2772  1.3771
   43MOL0     H 5662   3.305  10.718   1.017  1.2015 -0.5704 -1.5190
   43MOL0     H 5663   3.480  10.839   0.918  0.8143 -0.5191 -1.3360
   43MOL0     H 5664   3.739  11.080   0.850  0.2316  0.7458 -2.4186
   43MOL0     H 5665   3.867  11.200   0.698  2.6119  0.2526 -1.2538
   43MOL0     H 5666   4.305  11.282   0.817 -3.9985 -2.0712  2.5828
   43MOL0     H 5667   4.212  11.431   0.863 -0.4753  1.7090 -0.4365
   43MOL0     H 5668   4.330  11.395   0.579 -0.1988  0.8689 -0.3500
   43MOL0     H 5669   4.254  11.533   0.657 -0.9505  0.5954  0.7777
   43MOL0     H 5670   4.500  11.403   0.752  0.4722 -0.6404 -2.0055
   43MOL0     H 5671   4.444  11.556   0.829 -0.1203  0.0373 -0.2520
   43MOL0     H 5672   4.521  11.513   0.534 -0.8619  1.9500 -1.7057
   43MOL0     H 5673   4.463  11.665   0.607 -2.1235 -1.5192  0.5394
   43MOL0     H 5674   4.877  11.611   0.724 -0.7001  2.3522  0.6860
   43MOL0     H 5675   4.207  11.178   0.959  0.8368 -2.5872 -0.9121
   43MOL0     H 5676   4.081  11.034   1.119 -1.5516 -1.2121  0.4796
   44MOL0     O 5677   8.804   2.861   1.808 -0.3312  0.3622  0.0716
   44MOL0     C 5678   8.868   2.965   1.800 -0.3376 -0.4909  0.4030
   44MOL0     O 5679   8.825   3.084   1.854 -0.3253  0.3627 -0.1081
   44MOL0     C 5680   8.704   3.091   1.917  0.6650 -0.0361 -0.4420
   44MOL0     C 5681   8.692   3.158   2.030 -0.2891 -0.1480  0.2276
   44MOL0     C 5682   8.576   3.167   2.106 -0.7646  0.4982  0.9608
   44MOL0     C 5683   8.458   3.138   2.041  0.1696  0.6754  0.7754
   44MOL0     O 5684   8.344   3.166   2.109  0.3819 -0.3535 -0.3054
   44MOL0     C 5685   8.227   3.087   2.065 -0.3016  0.4333 -0.3713
   44MOL0     C 5686   8.102   3.146   2.137 -1.0756 -0.5731  0.2990
   44MOL0     C 5687   7.980   3.060   2.090 -0.5930  0.2295  0.5798
   44MOL0     C 5688   7.851   3.127   2.151  0.3834  0.6334  0.4984
   44MOL0     C 5689   7.730   3.038   2.100 -0.2588  0.6751 -0.1721
   44MOL0     C 5690   7.590   3.094   2.130  0.5576  0.0489  1.2080
   44MOL0     C 5691   7.484   2.990   2.090  0.4190  0.2426 -0.9545
   44MOL0     C 5692   7.341   3.026   2.144  0.3054 -0.3374  0.5622
   44MOL0     N 5693   7.293   3.157   2.082  0.1597  0.4939  0.6488
   44MOL0     C 5694   7.245   3.267   2.147 -0.0314  0.6842 -0.1205
   44MOL0     C 5695   7.210   3.354   2.044  0.4753 -0.1281  0.1469
   44MOL0     C 5696   7.157   3.492   2.066 -0.1195  0.6106 -0.5517
   44MOL0     C 5697   7.008   3.494   2.099  0.6943 -0.0613  0.3307
   44MOL0     C 5698   6.958   3.638   2.103 -0.2060  0.0766  0.0477
   44MOL0     C 5699   6.807   3.640   2.131  0.5707  0.2209  0.5326
   44MOL0     O 5700   6.725   3.571   2.043  0.8349  0.0042  0.0741
   44MOL0     C 5701   6.599   3.548   2.079  0.1931 -0.4554  0.3136
   44MOL0     C 5702   6.569   3.428   2.149 -0.4169  0.1297 -0.1329
   44MOL0     C 5703   6.428   3.409   2.180 -0.9790 -0.0795  0.8206
   44MOL0     C 5704   6.329   3.491   2.119 -0.0604 -0.2670  0.1594
   44MOL0     C 5705   6.185   3.471   2.141 -0.3151 -0.1536  0.0967
   44MOL0     O 5706   6.099   3.538   2.051 -0.1273  0.8116 -0.0314
   44MOL0     C 5707   5.963   3.517   2.036 -0.3301 -0.3928 -0.3537
   44MOL0     C 5708   5.890   3.402   2.041  0.0988 -0.3399 -0.1312
   44MOL0     C 5709   5.753   3.403   2.027 -0.0799  0.7451  0.4716
   44MOL0     C 5710   5.680   3.519   2.012  0.0437 -0.0481  0.0510
   44MOL0     O 5711   5.545   3.497   1.978  0.2097  0.2168  0.5493
   44MOL0     C 5712   5.466   3.621   1.990 -0.5866 -0.5385 -0.6854
   44MOL0     C 5713   5.309   3.597   1.995 -0.1641 -0.7726  1.0996
   44MOL0     C 5714   5.250   3.535   1.863  0.3814 -0.2066 -1.2466
   44MOL0     C 5715   5.101   3.557   1.865  0.9011  0.8209  0.1421
   44MOL0     C 5716   5.016   3.453   1.798  0.4663  0.3548  0.1807
   44MOL0     C 5717   4.884   3.511   1.748 -0.3587 -0.2583 -0.4993
   44MOL0     C 5718   4.783   3.410   1.680 -0.3456 -0.5393 -0.5778
   44MOL0     C 5719   4.636   3.445   1.709 -0.1986 -0.3810  0.4325
   44MOL0    Cl 5720   4.522   3.303   1.665 -0.4856  0.1494 -0.0697
   44MOL0     C 5721   5.746   3.640   2.019  0.0981  0.3845 -0.9158
   44MOL0     C 5722   5.887   3.634   2.038  0.7174  0.0854  0.2759
   44MOL0     O 5723   6.151   3.402   2.234 -0.3533  0.6494 -0.3584
   44MOL0     C 5724   6.367   3.605   2.056  0.0621 -0.3490  0.0238
   44MOL0     C 5725   6.500   3.637   2.030 -0.0123  0.4717 -0.4032
   44MOL0     N 5726   7.215   3.283   1.925 -0.7681 -0.2457 -0.0602
   44MOL0     N 5727   7.262   3.167   1.957 -0.6645  0.5315  0.6928
   44MOL0     C 5728   8.461   3.094   1.909  0.0418  0.3146  0.2499
   44MOL0     C 5729   8.583   3.065   1.846 -0.4164  0.3885 -0.3352
   44MOL0     C 5730   8.999   2.962   1.733 -0.7434 -0.5532  0.5874
   44MOL0     C 5731   9.069   3.090   1.735 -0.6693  0.3217 -0.2808
   44MOL0     C 5732   9.202   3.087   1.676  0.6195 -0.7488 -0.4106
   44MOL0     C 5733   9.250   2.979   1.606 -0.4848 -0.8588 -0.0969
   44MOL0     O 5734   9.366   2.989   1.526 -0.5312  0.4579 -0.6603
   44MOL0     C 5735   9.479   3.073   1.562  0.1061 -0.1740  0.0246
   44MOL0     C 5736   9.555   3.132   1.447 -0.0788 -0.6614  0.6517
   44MOL0     C 5737   9.660   3.236   1.490 -0.5529  0.5986  1.2243
   44MOL0     C 5738   9.782   3.167   1.550 -0.2327  0.2736  0.0919
   44MOL0     C 5739   9.891   3.268   1.568  1.3926 -0.2437  0.5545
   44MOL0     C 5740   9.979   3.354   1.578 -0.3157 -0.4876 -0.2711
   44MOL0     C 5741   9.173   2.861   1.599 -0.1860 -0.0951  0.3765
   44MOL0     C 5742   9.058   2.848   1.677 -0.1784  0.1140  0.7152
   44MOL0     H 5743   8.790   3.176   2.074  0.4908 -3.0158 -0.1418
   44MOL0     H 5744   8.582   3.212   2.205  3.1779 -0.3120  1.2540
   44MOL0     H 5745   8.246   2.981   2.085  2.6876 -0.1156 -4.7270
   44MOL0     H 5746   8.201   3.085   1.959  1.3557 -2.7404 -0.8456
   44MOL0     H 5747   8.082   3.251   2.114 -1.0507 -0.4470  0.8366
   44MOL0     H 5748   8.119   3.153   2.245 -0.3097  0.6572  0.1171
   44MOL0     H 5749   7.988   2.952   2.107  0.8236  0.0992 -0.6783
   44MOL0     H 5750   7.971   3.055   1.981  0.6601 -2.0327  0.5180
   44MOL0     H 5751   7.842   3.133   2.260 -1.8956  2.2980  0.2794
   44MOL0     H 5752   7.841   3.227   2.109  4.3590  0.8157 -0.4551
   44MOL0     H 5753   7.744   2.937   2.141  4.2668  0.8586 -0.7446
   44MOL0     H 5754   7.741   3.033   1.991 -2.5833 -1.8441 -0.4000
   44MOL0     H 5755   7.572   3.177   2.061  0.0758 -1.7344 -0.9287
   44MOL0     H 5756   7.583   3.125   2.235  1.9660  0.3747  1.2174
   44MOL0     H 5757   7.482   2.988   1.981  2.5840 -0.3796 -1.0272
   44MOL0     H 5758   7.515   2.894   2.131  0.7191  0.2603 -1.1335
   44MOL0     H 5759   7.355   3.039   2.252  1.2813  0.8430  0.3040
   44MOL0     H 5760   7.275   2.942   2.120 -1.2711  1.3403 -1.3353
   44MOL0     H 5761   7.240   3.281   2.255  0.9936  0.9795 -0.0990
   44MOL0     H 5762   7.190   3.555   1.982  1.8566  1.0989  0.5120
   44MOL0     H 5763   7.207   3.527   2.158  3.6443  2.8939 -3.1590
   44MOL0     H 5764   6.988   3.452   2.198 -0.0680  2.9777  1.5971
   44MOL0     H 5765   6.946   3.440   2.026 -1.4136  3.2128 -0.5556
   44MOL0     H 5766   7.020   3.693   2.176  1.7119  1.9346 -2.7829
   44MOL0     H 5767   6.982   3.687   2.008  0.1871  3.1574  1.5979
   44MOL0     H 5768   6.783   3.746   2.145  1.0388  0.2059  1.5807
   44MOL0     H 5769   6.788   3.595   2.229 -0.6541 -0.2472  0.1011
   44MOL0     H 5770   6.651   3.364   2.182 -0.1975  0.4965  0.0394
   44MOL0     H 5771   6.395   3.322   2.236  0.6557 -0.8601  0.6096
   44MOL0     H 5772   5.931   3.303   2.061 -3.0230 -1.2790  2.4092
   44MOL0     H 5773   5.702   3.307   2.025 -0.5323  0.9849 -0.2813
   44MOL0     H 5774   5.481   3.689   1.905  0.3546  0.3624  0.1817
   44MOL0     H 5775   5.497   3.678   2.078 -0.3383  1.5713 -2.0661
   44MOL0     H 5776   5.258   3.692   2.013  1.8036  0.3609  1.0072
   44MOL0     H 5777   5.284   3.531   2.078 -2.8798  0.1485  1.0973
   44MOL0     H 5778   5.270   3.428   1.861  1.7750 -0.0377  0.3808
   44MOL0     H 5779   5.300   3.579   1.776  2.1324  3.9841  1.5136
   44MOL0     H 5780   5.068   3.571   1.968  0.2347  1.4328 -0.1474
   44MOL0     H 5781   5.080   3.651   1.813  1.1711  1.0636  0.4711
   44MOL0     H 5782   4.999   3.373   1.870 -0.3445  0.7933  0.4994
   44MOL0     H 5783   5.072   3.406   1.717  1.0468  1.4843 -0.0981
   44MOL0     H 5784   4.916   3.592   1.682 -1.3309  2.8383  2.5629
   44MOL0     H 5785   4.829   3.552   1.833  0.7508 -0.4156  0.2996
   44MOL0     H 5786   4.804   3.394   1.574 -1.7781 -0.3573 -0.9007
   44MOL0     H 5787   4.820   3.316   1.723  0.0488 -0.4998 -0.8231
   44MOL0     H 5788   4.617   3.536   1.652 -0.3345 -0.2620  0.6648
   44MOL0     H 5789   4.638   3.478   1.813  0.2997 -0.6026  0.4956
   44MOL0     H 5790   5.686   3.730   2.010  0.9789  1.2069  0.8915
   44MOL0     H 5791   5.932   3.731   2.059  1.2706 -0.4814  1.9355
   44MOL0     H 5792   6.290   3.666   2.010 -0.0073  1.7429  2.6604
   44MOL0     H 5793   6.531   3.727   1.978  2.8767  2.6153  4.3531
   44MOL0     H 5794   8.374   3.086   1.843 -0.4825  1.3626  0.7977
   44MOL0     H 5795   8.585   3.033   1.743  2.6170  0.1943 -0.3140
   44MOL0     H 5796   9.021   3.176   1.782 -1.7302 -1.2245  1.6510
   44MOL0     H 5797   9.251   3.184   1.671 -0.2453 -0.3248 -0.8443
   44MOL0     H 5798   9.535   3.014   1.634  1.8161  2.0861  0.6465
   44MOL0     H 5799   9.445   3.156   1.624  2.9077  1.0899 -0.0147
   44MOL0     H 5800   9.593   3.049   1.388  1.4684  1.8125 -2.0915
   44MOL0     H 5801   9.477   3.182   1.388  1.3642  1.0816  0.1312
   44MOL0     H 5802   9.619   3.311   1.558  2.8409  0.4291  3.6884
   44MOL0     H 5803   9.692   3.270   1.391 -0.3319  0.1516  1.1397
   44MOL0     H 5804   9.743   3.131   1.646 -1.7106  3.2216  0.7238
   44MOL0     H 5805   9.814   3.092   1.477 -0.8217 -0.8073  0.9279
   44MOL0     H 5806  10.060   3.425   1.577 -1.0971  0.5613  2.2874
   44MOL0     H 5807   9.210   2.778   1.539 -0.1334  0.1721  0.0323
   44MOL0     H 5808   9.004   2.754   1.683  0.6596 -0.7096 -2.5620
   45MOL0     O 5809   1.985   9.869   5.855 -0.2539  0.5651  0.5214
   45MOL0     C 5810   2.049   9.874   5.960 -0.0476 -0.4529 -0.2955
   45MOL0     O 5811   2.011   9.920   6.082  0.1851 -0.3966 -0.3568
   45MOL0     C 5812   1.888   9.963   6.111  1.1745  0.2266 -0.1246
   45MOL0     C 5813   1.786  10.004   6.021  0.0324  0.3811  0.2246
   45MOL0     C 5814   1.656  10.034   6.058 -0.3232 -0.5969 -0.0064
   45MOL0     C 5815   1.627  10.044   6.194 -0.2936  0.7341 -0.3085
   45MOL0     O 5816   1.507  10.090   6.233 -0.3831 -0.0378  0.7168
   45MOL0     C 5817   1.473  10.232   6.212  0.0758 -0.0490 -0.0393
   45MOL0     C 5818   1.371  10.265   6.105 -1.1030  1.3466 -0.3391
   45MOL0     C 5819   1.252  10.176   6.110  0.9814 -0.4669  0.3649
   45MOL0     C 5820   1.163  10.195   6.229  0.9167 -0.5855  0.1608
   45MOL0     C 5821   1.075  10.073   6.231  0.0609 -0.1781 -0.0348
   45MOL0     C 5822   0.959  10.105   6.322 -0.5033 -0.0657 -0.0961
   45MOL0     C 5823   0.878   9.974   6.371 -0.4771  0.8046 -0.4559
   45MOL0     C 5824   0.754   9.927   6.284  0.3759  0.1264 -0.9070
   45MOL0     N 5825   0.688   9.804   6.331  0.2799  0.4057  0.9634
   45MOL0     C 5826   0.552   9.792   6.336 -0.4288  0.1604 -0.2591
   45MOL0     C 5827   0.541   9.683   6.421  0.4282  0.3216  0.8506
   45MOL0     C 5828   0.425   9.603   6.468 -0.2250  0.3266  1.0444
   45MOL0     C 5829   0.389   9.626   6.620 -0.1188 -0.1764  0.7413
   45MOL0     C 5830   0.312   9.516   6.685  0.3229  0.8205  0.1378
   45MOL0     C 5831   0.316   9.509   6.840 -0.3293 -0.2475  0.5384
   45MOL0     O 5832   0.209   9.425   6.884 -0.3345 -0.0866  0.2656
   45MOL0     C 5833   0.077   9.460   6.875 -0.4951  0.9493  0.3475
   45MOL0     C 5834   0.027   9.586   6.846 -0.5533 -0.6584 -0.9243
   45MOL0     C 5835  -0.109   9.608   6.840 -0.2262  0.3853 -0.9659
   45MOL0     C 5836  -0.198   9.505   6.876  0.5671  0.2491 -0.2350
   45MOL0     C 5837  -0.343   9.546   6.887 -0.6096  1.3393 -0.6465
   45MOL0     O 5838  -0.410   9.473   6.977 -0.1378  0.6180  0.3015
   45MOL0     C 5839  -0.547   9.472   6.995  0.0044 -0.6967  0.1698
   45MOL0     C 5840  -0.641   9.537   6.913 -1.1295 -0.5144  0.1687
   45MOL0     C 5841  -0.772   9.518   6.933  0.8973 -0.1190 -0.7873
   45MOL0     C 5842  -0.828   9.430   7.033  0.1344 -0.0443 -0.2766
   45MOL0     O 5843  -0.961   9.418   7.074 -1.0542 -0.3059  0.4271
   45MOL0     C 5844  -1.054   9.499   7.016  0.4427 -0.6768  0.6585
   45MOL0     C 5845  -1.202   9.473   7.069 -0.4354 -0.6721 -0.5514
   45MOL0     C 5846  -1.301   9.586   7.030  0.4358  0.0382 -0.1977
   45MOL0     C 5847  -1.423   9.595   7.126 -0.3073 -0.0627  0.1777
   45MOL0     C 5848  -1.531   9.682   7.058 -0.0966 -0.6293 -0.6247
   45MOL0     C 5849  -1.628   9.702   7.171 -0.1345 -0.1432  0.3920
   45MOL0     C 5850  -1.721   9.809   7.119 -0.1252  0.3626  0.6728
   45MOL0     C 5851  -1.825   9.863   7.223 -0.0227  0.4347  0.8757
   45MOL0    Cl 5852  -1.946   9.727   7.253 -0.1365  0.5152  0.0216
   45MOL0     C 5853  -0.739   9.358   7.115 -0.4321 -0.1482  0.4011
   45MOL0     C 5854  -0.596   9.381   7.092  0.0897 -0.4566  0.5625
   45MOL0     O 5855  -0.390   9.633   6.820 -0.2856 -0.1055  0.3299
   45MOL0     C 5856  -0.149   9.379   6.896  0.3887  0.1562 -0.2513
   45MOL0     C 5857  -0.014   9.355   6.900 -0.7867 -0.9758 -0.2171
   45MOL0     N 5858   0.668   9.635   6.453 -0.4183 -0.4788  0.3077
   45MOL0     N 5859   0.753   9.700   6.384  0.7451 -0.5058 -0.2995
   45MOL0     C 5860   1.719  10.004   6.285 -0.2240  0.0936  0.0478
   45MOL0     C 5861   1.850   9.957   6.245  0.1627 -0.5959  0.6349
   45MOL0     C 5862   2.180   9.825   5.935 -0.4798  0.0203  0.6243
   45MOL0     C 5863   2.221   9.724   5.841 -0.9179 -0.8580  0.8099
   45MOL0     C 5864   2.351   9.679   5.828 -0.0828 -1.4544 -0.2119
   45MOL0     C 5865   2.456   9.746   5.901  0.3086  0.0538  0.6216
   45MOL0     O 5866   2.585   9.713   5.899 -0.1102  1.1601 -0.6764
   45MOL0     C 5867   2.653   9.625   5.797 -0.8993 -1.1600 -0.0985
   45MOL0     C 5868   2.743   9.715   5.706  0.0697  0.3353  0.3460
   45MOL0     C 5869   2.656   9.766   5.596 -0.3265 -0.6689  0.6703
   45MOL0     C 5870   2.729   9.851   5.489 -0.3122  0.2455 -0.8120
   45MOL0     C 5871   2.873   9.813   5.473  0.7214  0.0554  0.4156
   45MOL0     C 5872   2.988   9.788   5.451 -1.7787 -0.4491  0.3481
   45MOL0     C 5873   2.414   9.846   5.994  0.4943 -0.6795  0.3750
   45MOL0     C 5874   2.280   9.883   6.010 -0.0032  0.5470  0.1379
   45MOL0     H 5875   1.804  10.016   5.915 -0.4068 -2.0827 -0.1963
   45MOL0     H 5876   1.586  10.066   5.982 -1.4705  1.3865  1.7781
   45MOL0     H 5877   1.562  10.293   6.198  0.5554 -0.9730 -1.2259
   45MOL0     H 5878   1.436  10.264   6.310 -1.2977  1.7219 -1.0672
   45MOL0     H 5879   1.423  10.254   6.009 -1.4731 -1.7814 -0.3149
   45MOL0     H 5880   1.338  10.368   6.120  1.5288  2.4201 -1.3337
   45MOL0     H 5881   1.287  10.073   6.098 -0.3530 -0.9742  0.6452
   45MOL0     H 5882   1.192  10.204   6.023  1.8626  2.1523  0.5017
   45MOL0     H 5883   1.217  10.194   6.324  0.6706 -1.8721  0.3038
   45MOL0     H 5884   1.105  10.287   6.216  0.5402 -0.7522  0.6304
   45MOL0     H 5885   1.143   9.992   6.258  1.7992  0.5104 -2.1009
   45MOL0     H 5886   1.029  10.042   6.136  1.9471 -3.5691 -0.0103
   45MOL0     H 5887   0.897  10.170   6.260 -3.3014 -2.3365  0.1214
   45MOL0     H 5888   1.002  10.152   6.411  2.8515 -3.3360  0.2746
   45MOL0     H 5889   0.953   9.896   6.386  1.3815  2.5056 -0.4030
   45MOL0     H 5890   0.837   9.986   6.472  1.4662  0.0191  0.4687
   45MOL0     H 5891   0.787   9.924   6.180 -1.1245 -2.7473 -1.3983
   45MOL0     H 5892   0.680  10.006   6.295 -1.7643 -1.2129 -4.1663
   45MOL0     H 5893   0.480   9.863   6.297 -1.3736 -1.0393 -0.7962
   45MOL0     H 5894   0.449   9.497   6.454  0.8453  0.7470 -0.7068
   45MOL0     H 5895   0.340   9.625   6.403  0.3910  0.8178  0.3826
   45MOL0     H 5896   0.323   9.714   6.621  0.0902  0.0350  3.1380
   45MOL0     H 5897   0.481   9.650   6.674  2.0157 -1.7502 -1.9629
   45MOL0     H 5898   0.210   9.541   6.654  0.1193 -0.9001 -0.6723
   45MOL0     H 5899   0.339   9.415   6.654 -0.1013  1.0812 -1.1399
   45MOL0     H 5900   0.299   9.603   6.894  0.8124 -0.1994  0.8389
   45MOL0     H 5901   0.412   9.481   6.884  0.2358 -2.0613 -1.7026
   45MOL0     H 5902   0.088   9.672   6.820  1.8433 -1.7382  0.7972
   45MOL0     H 5903  -0.143   9.708   6.817  0.5900  0.9210  0.0579
   45MOL0     H 5904  -0.614   9.619   6.848  2.2261 -0.2314  1.6572
   45MOL0     H 5905  -0.835   9.577   6.869 -2.2657 -0.6341  1.6130
   45MOL0     H 5906  -1.056   9.479   6.909  1.3674 -0.3547  0.5704
   45MOL0     H 5907  -1.034   9.605   7.039 -1.7686  0.0520 -0.4585
   45MOL0     H 5908  -1.200   9.469   7.178 -0.0344 -3.0305 -0.5854
   45MOL0     H 5909  -1.245   9.380   7.032 -0.4254 -1.4455  1.2745
   45MOL0     H 5910  -1.324   9.563   6.926  3.0712 -2.4949 -0.3434
   45MOL0     H 5911  -1.246   9.680   7.028  0.3131  0.2588 -5.0420
   45MOL0     H 5912  -1.465   9.495   7.142 -1.5098 -0.0303 -2.2742
   45MOL0     H 5913  -1.394   9.641   7.221 -1.9232  0.7052  0.3464
   45MOL0     H 5914  -1.575   9.633   6.971 -1.2794  0.0158 -0.4199
   45MOL0     H 5915  -1.491   9.776   7.018  2.9274 -0.2099  2.8172
   45MOL0     H 5916  -1.581   9.733   7.265 -1.5006 -0.2190  1.1198
   45MOL0     H 5917  -1.668   9.602   7.192  3.1269 -1.6796 -0.0626
   45MOL0     H 5918  -1.658   9.888   7.077  0.1953 -1.9117 -3.8165
   45MOL0     H 5919  -1.777   9.767   7.035  1.7790 -2.4059  0.6522
   45MOL0     H 5920  -1.868   9.950   7.172  2.2976  0.0493 -2.0329
   45MOL0     H 5921  -1.768   9.887   7.314  0.0162  0.7270  0.7753
   45MOL0     H 5922  -0.778   9.297   7.196 -0.3157  1.3394  1.6364
   45MOL0     H 5923  -0.528   9.318   7.149 -1.0234 -1.7003  0.5334
   45MOL0     H 5924  -0.215   9.295   6.915  1.0911 -0.3213  0.1023
   45MOL0     H 5925   0.031   9.262   6.933 -2.8715 -1.8230  0.4193
   45MOL0     H 5926   1.675  10.008   6.385 -1.6389 -0.6489 -0.5214
   45MOL0     H 5927   1.913   9.914   6.321 -1.1160  1.0758  2.7667
   45MOL0     H 5928   2.143   9.678   5.781  1.7006 -3.1020 -1.0984
   45MOL0     H 5929   2.374   9.601   5.757  3.3534 -0.3256 -0.5277
   45MOL0     H 5930   2.591   9.553   5.743 -0.9634 -2.6514  1.8290
   45MOL0     H 5931   2.722   9.560   5.853  1.2760 -1.5282 -2.9556
   45MOL0     H 5932   2.781   9.797   5.768 -3.3553 -0.7856  4.4674
   45MOL0     H 5933   2.826   9.655   5.669  0.2669 -1.4184  3.3003
   45MOL0     H 5934   2.582   9.833   5.642  1.3424  1.0434  0.9796
   45MOL0     H 5935   2.616   9.676   5.548  0.8735 -0.8494 -0.0380
   45MOL0     H 5936   2.682   9.841   5.390  0.7435 -1.9339 -1.1627
   45MOL0     H 5937   2.719   9.956   5.516  4.1690  0.4337  0.9135
   45MOL0     H 5938   3.088   9.755   5.433 -1.9303 -1.0053  0.5037
   45MOL0     H 5939   2.490   9.889   6.057 -0.2353 -0.2293  0.9666
   45MOL0     H 5940   2.258   9.951   6.091 -0.6528 -0.2909  0.6868
   46MOL0     O 5941   0.140  10.514   6.800  0.3925 -0.1297 -0.2108
   46MOL0     C 5942   0.161  10.421   6.727 -0.9185 -0.9759 -0.5461
   46MOL0     O 5943   0.183  10.297   6.759  0.2184  0.3550  0.1507
   46MOL0     C 5944   0.223  10.276   6.887 -0.5876 -0.3839 -0.6635
   46MOL0     C 5945   0.360  10.251   6.920  0.2366 -0.0187  0.8661
   46MOL0     C 5946   0.406  10.235   7.049 -0.9740  0.5146 -0.4101
   46MOL0     C 5947   0.316  10.219   7.156 -0.7755  0.2690  0.0521
   46MOL0     O 5948   0.377  10.202   7.281 -0.2580 -0.2587  0.5687
   46MOL0     C 5949   0.295  10.172   7.390  0.2786  0.8775 -0.3861
   46MOL0     C 5950   0.387  10.152   7.516 -0.0836  0.1540  0.5307
   46MOL0     C 5951   0.339  10.049   7.618 -0.3726 -0.2908  0.7715
   46MOL0     C 5952   0.328   9.912   7.549 -1.1370  0.6549  0.2391
   46MOL0     C 5953   0.445   9.825   7.603 -0.1655 -0.2202 -0.3506
   46MOL0     C 5954   0.440   9.772   7.752  0.2603 -0.7134  0.6146
   46MOL0     C 5955   0.300   9.700   7.770 -0.0109 -0.2498 -0.5367
   46MOL0     C 5956   0.306   9.623   7.905  0.0407  0.0168  0.2607
   46MOL0     N 5957   0.399   9.512   7.893 -0.1556 -0.2123 -0.4954
   46MOL0     C 5958   0.524   9.506   7.947  0.1439 -0.0391  0.3566
   46MOL0     C 5959   0.572   9.388   7.914 -0.4786  0.5305  0.1182
   46MOL0     C 5960   0.692   9.328   7.975  0.1359 -0.6531  0.2059
   46MOL0     C 5961   0.824   9.400   7.938 -0.1071 -0.0172  0.0060
   46MOL0     C 5962   0.946   9.363   8.013 -0.1852 -0.7688 -0.2271
   46MOL0     C 5963   0.976   9.209   7.999  0.2569  0.0174 -0.2281
   46MOL0     O 5964   1.056   9.161   8.108 -0.0354 -0.0676 -0.3844
   46MOL0     C 5965   1.195   9.157   8.102  0.0923  0.1748 -0.6960
   46MOL0     C 5966   1.264   9.042   8.128  0.2434  0.0361 -0.8603
   46MOL0     C 5967   1.402   9.034   8.129 -0.1026  0.4606 -0.0685
   46MOL0     C 5968   1.480   9.145   8.095  0.6064 -0.4651 -0.1404
   46MOL0     C 5969   1.626   9.133   8.084  1.1279  0.3964 -0.1775
   46MOL0     O 5970   1.678   9.206   7.986 -0.7088 -0.2930 -0.4075
   46MOL0     C 5971   1.809   9.201   7.943 -0.1217 -0.2488  0.9152
   46MOL0     C 5972   1.850   9.319   7.875 -0.3360  0.2943 -0.1382
   46MOL0     C 5973   1.977   9.327   7.832  0.4267 -0.7355 -0.5809
   46MOL0     C 5974   2.072   9.226   7.847 -0.1601 -0.5446 -0.0984
   46MOL0     O 5975   2.191   9.251   7.784  0.4812 -0.5087 -0.3642
   46MOL0     C 5976   2.287   9.151   7.815 -0.2468  0.2709 -0.3584
   46MOL0     C 5977   2.420   9.210   7.769  0.4823  0.2819 -0.3616
   46MOL0     C 5978   2.435   9.220   7.616 -0.2796 -0.7391 -0.4431
   46MOL0     C 5979   2.540   9.322   7.576 -0.5195  0.9448 -0.2417
   46MOL0     C 5980   2.670   9.311   7.653  0.4292  0.5350 -0.0498
   46MOL0     C 5981   2.754   9.441   7.616  1.5787  0.6346 -0.2313
   46MOL0     C 5982   2.878   9.442   7.708  0.4405 -0.4884 -0.2224
   46MOL0     C 5983   2.973   9.556   7.694  0.6324 -0.5437 -0.2372
   46MOL0    Cl 5984   2.901   9.720   7.727 -0.0515 -0.2041 -0.1654
   46MOL0     C 5985   2.029   9.102   7.904  0.0675  0.4753  0.2809
   46MOL0     C 5986   1.902   9.090   7.960 -0.8924 -0.3762  0.0391
   46MOL0     O 5987   1.685   9.053   8.152  0.1069 -0.7201  0.0511
   46MOL0     C 5988   1.409   9.260   8.058  0.2901  0.7273  0.4817
   46MOL0     C 5989   1.267   9.268   8.060 -0.5894 -0.2359  0.1018
   46MOL0     N 5990   0.476   9.330   7.827  0.4653  0.9458 -0.3360
   46MOL0     N 5991   0.375   9.414   7.809 -0.8773 -0.1425  0.4697
   46MOL0     C 5992   0.179  10.234   7.129  0.1947  0.2955  0.7366
   46MOL0     C 5993   0.135  10.269   6.995  0.9694  0.1777 -0.3446
   46MOL0     C 5994   0.172  10.454   6.579 -0.3583  0.2824  0.5445
   46MOL0     C 5995   0.150  10.358   6.468 -0.8787 -0.8441 -1.1233
   46MOL0     C 5996   0.170  10.398   6.335  0.0038 -0.4643 -0.5973
   46MOL0     C 5997   0.214  10.526   6.298 -0.1382  0.7659  0.2893
   46MOL0     O 5998   0.215  10.558   6.163 -0.3256 -0.1589  0.7335
   46MOL0     C 5999   0.270  10.687   6.136 -0.3095  0.1269 -0.4780
   46MOL0     C 6000   0.253  10.704   5.982  0.4886  0.9548 -0.5817
   46MOL0     C 6001   0.291  10.849   5.943 -0.6888 -0.6739 -0.7278
   46MOL0     C 6002   0.250  10.867   5.794 -0.4412  0.7825  0.4585
   46MOL0     C 6003   0.353  10.824   5.703 -0.2012  0.2404 -0.3074
   46MOL0     C 6004   0.446  10.785   5.646  0.5387 -0.6192  0.0260
   46MOL0     C 6005   0.225  10.619   6.401  0.7388  0.3351  0.0597
   46MOL0     C 6006   0.208  10.583   6.541  0.5034  0.4025  0.2235
   46MOL0     H 6007   0.435  10.249   6.842  0.3892 -0.8071  1.0277
   46MOL0     H 6008   0.513  10.218   7.062 -0.7268  0.6796 -2.0295
   46MOL0     H 6009   0.239  10.081   7.371  1.4217 -0.0343  0.4669
   46MOL0     H 6010   0.222  10.252   7.407 -2.3579 -0.9647 -2.2293
   46MOL0     H 6011   0.416  10.242   7.571 -0.2996 -0.2423  1.3085
   46MOL0     H 6012   0.479  10.108   7.478 -0.5391  0.0420 -0.4714
   46MOL0     H 6013   0.240  10.078   7.654 -1.4775  1.1946 -2.9983
   46MOL0     H 6014   0.420  10.049   7.692  1.6693 -1.7115 -1.3140
   46MOL0     H 6015   0.230   9.866   7.570 -0.3891 -2.2661 -1.8821
   46MOL0     H 6016   0.344   9.917   7.441  0.3005 -0.9326  0.3441
   46MOL0     H 6017   0.539   9.879   7.595  0.2718 -1.1817 -2.4265
   46MOL0     H 6018   0.448   9.740   7.535  0.4033  1.9918 -3.2842
   46MOL0     H 6019   0.447   9.861   7.816  1.4341 -0.9321  0.8154
   46MOL0     H 6020   0.530   9.714   7.776 -0.0242 -1.5501 -0.2844
   46MOL0     H 6021   0.216   9.770   7.772 -0.3728 -0.6300 -1.6978
   46MOL0     H 6022   0.278   9.638   7.683  3.0303  1.4534 -2.7471
   46MOL0     H 6023   0.204   9.587   7.922 -0.6334 -0.6183 -3.9802
   46MOL0     H 6024   0.346   9.682   7.987  1.3185  0.6634 -0.7826
   46MOL0     H 6025   0.562   9.577   8.020 -2.5525 -0.7092  2.5392
   46MOL0     H 6026   0.700   9.223   7.948  0.4402 -0.6404  0.2424
   46MOL0     H 6027   0.681   9.321   8.084 -1.1164  3.4105  0.4954
   46MOL0     H 6028   0.803   9.507   7.939 -0.1742  0.0388 -2.3242
   46MOL0     H 6029   0.845   9.388   7.831 -1.3930 -1.1780 -0.1482
   46MOL0     H 6030   1.032   9.424   7.985  1.1540 -2.0225  0.9785
   46MOL0     H 6031   0.929   9.387   8.118 -0.6456  0.4363 -0.5483
   46MOL0     H 6032   1.026   9.186   7.904  1.8998 -0.4443  0.6969
   46MOL0     H 6033   0.895   9.137   8.014  0.2634  0.2684  1.1329
   46MOL0     H 6034   1.204   8.952   8.141  0.6868 -0.0694  0.7153
   46MOL0     H 6035   1.452   8.940   8.148 -0.1931  0.3877 -0.1823
   46MOL0     H 6036   1.771   9.395   7.870 -1.7122 -1.1366 -1.9320
   46MOL0     H 6037   1.990   9.428   7.796 -1.5977  0.9221  2.8152
   46MOL0     H 6038   2.262   9.055   7.770 -0.1542 -0.4376  1.0442
   46MOL0     H 6039   2.300   9.126   7.921 -0.5421 -0.2811 -0.4479
   46MOL0     H 6040   2.495   9.140   7.807 -1.5601 -2.2537 -0.7767
   46MOL0     H 6041   2.440   9.305   7.820  0.1334  0.8593 -1.2907
   46MOL0     H 6042   2.338   9.252   7.576  0.4552  0.2354 -1.5317
   46MOL0     H 6043   2.441   9.117   7.581  1.2881 -0.0085 -2.6016
   46MOL0     H 6044   2.550   9.317   7.467 -1.8783 -0.6931 -0.3263
   46MOL0     H 6045   2.500   9.420   7.606  1.9078  2.1871 -0.8497
   46MOL0     H 6046   2.714   9.216   7.621 -1.0444 -0.3570  0.4659
   46MOL0     H 6047   2.653   9.331   7.759  0.6641 -2.4000  0.6111
   46MOL0     H 6048   2.691   9.529   7.629  0.4937 -0.5138  3.4102
   46MOL0     H 6049   2.781   9.438   7.510  3.7203  0.0708  0.2743
   46MOL0     H 6050   2.842   9.438   7.811 -3.0720 -0.8297 -1.3255
   46MOL0     H 6051   2.937   9.354   7.681  2.7367  0.4144  1.5408
   46MOL0     H 6052   3.012   9.558   7.592  1.0492  1.4820 -0.0873
   46MOL0     H 6053   3.061   9.544   7.759 -0.2399  0.7085  1.2457
   46MOL0     H 6054   2.088   9.011   7.907  0.2290  0.5407 -0.5971
   46MOL0     H 6055   1.888   8.990   7.998  3.8876 -1.1854  0.1778
   46MOL0     H 6056   1.455   9.354   8.030  0.9782  0.4861  0.7847
   46MOL0     H 6057   1.233   9.366   8.028 -0.3692  0.0693  0.7768
   46MOL0     H 6058   0.109  10.225   7.212  1.5607 -2.1879  1.7252
   46MOL0     H 6059   0.031  10.289   6.972  0.2591  1.3559  3.2428
   46MOL0     H 6060   0.117  10.257   6.490  0.3371 -1.5930 -2.5411
   46MOL0     H 6061   0.160  10.323   6.257  1.0667  0.4878 -1.6824
   46MOL0     H 6062   0.375  10.688   6.167 -0.4839  3.1653  0.3682
   46MOL0     H 6063   0.209  10.764   6.184 -2.4745 -0.8226 -1.5721
   46MOL0     H 6064   0.322  10.634   5.934 -0.8245 -0.5879 -0.3099
   46MOL0     H 6065   0.149  10.680   5.959  0.5403 -0.2062  0.3222
   46MOL0     H 6066   0.400  10.861   5.944 -0.5690 -1.6672  0.4571
   46MOL0     H 6067   0.238  10.921   6.007 -0.6301 -0.9870 -0.3279
   46MOL0     H 6068   0.154  10.819   5.776  0.4384 -0.3850 -1.4898
   46MOL0     H 6069   0.243  10.975   5.777  0.8434  0.7435 -0.5493
   46MOL0     H 6070   0.532  10.744   5.596  2.0024 -0.7067  2.4637
   46MOL0     H 6071   0.254  10.722   6.385  0.8845  0.8085  2.8687
   46MOL0     H 6072   0.216  10.657   6.621 -1.5171 -1.3587  2.2073
   47MOL0     O 6073   8.489   0.639   7.941  0.4003  0.2599  0.3747
   47MOL0     C 6074   8.414   0.579   7.864  0.0851 -0.3127 -0.1038
   47MOL0     O 6075   8.291   0.624   7.820 -0.3262 -0.1690  0.2994
   47MOL0     C 6076   8.266   0.756   7.826  0.1939 -0.7975 -0.4737
   47MOL0     C 6077   8.144   0.794   7.861 -0.4579  0.6565  0.1737
   47MOL0     C 6078   8.105   0.925   7.871 -0.3452  0.1200 -0.3313
   47MOL0     C 6079   8.190   1.035   7.826 -0.2919  0.3089  0.1274
   47MOL0     O 6080   8.167   1.168   7.840  0.2647  0.4680  0.0766
   47MOL0     C 6081   8.043   1.214   7.885 -0.1229  0.0342 -0.2752
   47MOL0     C 6082   8.065   1.367   7.881  0.1127  0.1874  0.3936
   47MOL0     C 6083   7.933   1.444   7.901  0.0491  0.6848 -0.0625
   47MOL0     C 6084   7.941   1.599   7.876  0.2437  0.1339  0.2208
   47MOL0     C 6085   7.833   1.686   7.956 -0.4030  0.0660 -0.2690
   47MOL0     C 6086   7.703   1.685   7.874  0.8718 -0.5308  0.0024
   47MOL0     C 6087   7.583   1.739   7.947 -0.3210 -0.6114 -0.1137
   47MOL0     C 6088   7.611   1.878   8.000  0.2631 -0.0898  0.5310
   47MOL0     N 6089   7.483   1.932   8.038  0.4999 -0.2899 -0.0998
   47MOL0     C 6090   7.411   1.888   8.153 -0.0526 -0.8567  0.1106
   47MOL0     C 6091   7.292   1.949   8.123 -0.0468 -0.1826  0.5238
   47MOL0     C 6092   7.165   1.942   8.220  1.3895  0.4789  0.6138
   47MOL0     C 6093   7.150   2.064   8.304  0.6715 -0.3683  0.8581
   47MOL0     C 6094   7.233   2.088   8.434  0.9832 -0.0961 -0.7563
   47MOL0     C 6095   7.383   2.096   8.407  0.2231  0.4070 -0.1200
   47MOL0     O 6096   7.440   2.155   8.526 -0.4276  0.6185  0.0784
   47MOL0     C 6097   7.575   2.193   8.518 -0.1513 -0.9537 -0.1760
   47MOL0     C 6098   7.621   2.291   8.610  0.3062 -0.5848  0.2042
   47MOL0     C 6099   7.751   2.326   8.614  0.3123  0.3634 -1.0024
   47MOL0     C 6100   7.845   2.274   8.534  0.0360 -0.5216  0.4026
   47MOL0     C 6101   7.993   2.309   8.542  0.2965  0.0798  0.0304
   47MOL0     O 6102   8.085   2.217   8.495  0.8078 -0.2810  0.1046
   47MOL0     C 6103   8.217   2.253   8.489  0.1889  0.4400 -0.2937
   47MOL0     C 6104   8.278   2.381   8.481  0.3564  0.3457 -0.1252
   47MOL0     C 6105   8.418   2.386   8.488  0.6925  0.1062  0.2954
   47MOL0     C 6106   8.501   2.273   8.509 -0.7135  0.0364  0.0177
   47MOL0     O 6107   8.632   2.296   8.539 -0.0863 -0.0679 -0.5271
   47MOL0     C 6108   8.729   2.201   8.501  0.7022  0.0673  0.9318
   47MOL0     C 6109   8.861   2.271   8.545 -0.3400  0.5235  0.4020
   47MOL0     C 6110   8.986   2.186   8.520  0.4647  1.0016  0.2983
   47MOL0     C 6111   9.117   2.259   8.544 -1.1878  0.1818 -0.1251
   47MOL0     C 6112   9.234   2.182   8.607  0.4353 -0.3200  0.1667
   47MOL0     C 6113   9.268   2.058   8.529 -0.2884  0.4383 -0.6366
   47MOL0     C 6114   9.391   1.996   8.598 -0.0527 -0.0845 -0.6949
   47MOL0     C 6115   9.524   2.080   8.602  0.1909  0.3127 -0.1078
   47MOL0    Cl 6116   9.556   2.133   8.442 -0.0664  0.3754 -0.2264
   47MOL0     C 6117   8.443   2.150   8.523  0.5544  0.4674  0.2148
   47MOL0     C 6118   8.303   2.139   8.507  0.2978 -0.1167  0.9990
   47MOL0     O 6119   8.024   2.412   8.605  0.3512 -0.5148  0.1954
   47MOL0     C 6120   7.797   2.182   8.437  0.1820  0.9001  0.4430
   47MOL0     C 6121   7.665   2.143   8.428 -0.0057 -0.2539  0.5995
   47MOL0     N 6122   7.290   2.019   8.002 -0.9754 -0.1613  1.3159
   47MOL0     N 6123   7.410   2.009   7.953  1.4208 -0.3639 -0.3119
   47MOL0     C 6124   8.319   0.998   7.797  0.2510  0.0719 -0.4529
   47MOL0     C 6125   8.355   0.857   7.795  0.3637  0.1710  0.3420
   47MOL0     C 6126   8.461   0.456   7.805 -0.2955  0.2421  0.3995
   47MOL0     C 6127   8.557   0.389   7.865  0.1197  0.1815  0.3947
   47MOL0     C 6128   8.601   0.262   7.825  0.6266 -0.0393  0.4112
   47MOL0     C 6129   8.544   0.203   7.713 -0.5422  0.0932 -0.0412
   47MOL0     O 6130   8.583   0.083   7.656  0.3032 -0.7240  0.1570
   47MOL0     C 6131   8.716   0.038   7.679  0.2386 -0.2583  0.0928
   47MOL0     C 6132   8.751  -0.046   7.558  0.1171  0.4178 -0.5205
   47MOL0     C 6133   8.898  -0.098   7.538 -0.0662  0.6246  0.2557
   47MOL0     C 6134   8.949  -0.203   7.632 -0.9454  0.0967 -0.9833
   47MOL0     C 6135   9.058  -0.277   7.567 -0.6568  0.1392  0.7619
   47MOL0     C 6136   9.152  -0.330   7.511  0.2090  0.8206  0.4764
   47MOL0     C 6137   8.445   0.273   7.651  0.7842  0.6138  0.4432
   47MOL0     C 6138   8.399   0.397   7.689  0.0185 -1.0674 -0.5845
   47MOL0     H 6139   8.070   0.720   7.889  0.1189  0.3938  1.0266
   47MOL0     H 6140   8.007   0.965   7.896 -0.2700  1.1789 -1.6042
   47MOL0     H 6141   8.010   1.195   7.988 -1.0252  1.4086 -0.2768
   47MOL0     H 6142   7.962   1.183   7.819 -0.6909  1.0158 -0.0704
   47MOL0     H 6143   8.107   1.393   7.783  0.2710  2.2887  0.9792
   47MOL0     H 6144   8.143   1.388   7.955  1.5436 -0.5035 -0.8595
   47MOL0     H 6145   7.894   1.426   8.002  0.4121  2.3901  0.4029
   47MOL0     H 6146   7.858   1.400   7.834  1.6189 -2.4105  0.0099
   47MOL0     H 6147   8.041   1.632   7.906  0.0551 -0.6723  1.8859
   47MOL0     H 6148   7.928   1.624   7.771 -0.3228  1.5921  0.6084
   47MOL0     H 6149   7.875   1.787   7.953  4.6057 -1.7857 -1.3359
   47MOL0     H 6150   7.816   1.655   8.059 -0.4720 -0.1736 -0.3529
   47MOL0     H 6151   7.680   1.584   7.838 -1.1481 -0.1361  0.0620
   47MOL0     H 6152   7.719   1.745   7.784  2.5814  1.5920  1.6182
   47MOL0     H 6153   7.496   1.741   7.881 -0.6598 -1.7551  0.2746
   47MOL0     H 6154   7.551   1.671   8.027 -1.0340 -1.9860 -1.5381
   47MOL0     H 6155   7.664   1.934   7.922  1.0557 -0.0708  1.0644
   47MOL0     H 6156   7.680   1.875   8.086  0.1481 -1.1521  0.5936
   47MOL0     H 6157   7.448   1.834   8.239  0.4905  2.2047  1.9430
   47MOL0     H 6158   7.175   1.852   8.282  1.8440  1.6355  2.2730
   47MOL0     H 6159   7.071   1.932   8.165  1.6042 -3.9698  0.6659
   47MOL0     H 6160   7.046   2.052   8.334  0.6560 -1.4009  0.4239
   47MOL0     H 6161   7.160   2.158   8.249  1.5635 -0.4613  0.8390
   47MOL0     H 6162   7.209   2.186   8.477  0.1383  0.4527 -2.3714
   47MOL0     H 6163   7.194   2.014   8.505 -0.6235  0.3997 -1.0687
   47MOL0     H 6164   7.409   2.151   8.316 -0.4605 -0.5970 -0.9382
   47MOL0     H 6165   7.423   1.996   8.391  2.6716  0.9768  1.8083
   47MOL0     H 6166   7.554   2.340   8.679  1.9552 -1.0046  2.2172
   47MOL0     H 6167   7.791   2.400   8.684 -0.0193 -2.6536  2.6702
   47MOL0     H 6168   8.215   2.469   8.490  1.4913  1.0492  1.2627
   47MOL0     H 6169   8.459   2.485   8.501 -1.5619  1.1193  0.2126
   47MOL0     H 6170   8.736   2.182   8.394  2.4635 -2.7291  1.4665
   47MOL0     H 6171   8.713   2.113   8.564 -1.0817  0.3237  0.9037
   47MOL0     H 6172   8.849   2.282   8.653  0.2284 -1.8241  0.7607
   47MOL0     H 6173   8.882   2.363   8.490  2.0943 -0.9629 -1.3217
   47MOL0     H 6174   8.987   2.140   8.420  2.5774 -2.2479  1.6321
   47MOL0     H 6175   8.976   2.092   8.575  1.7866 -0.5975 -1.9641
   47MOL0     H 6176   9.142   2.288   8.441  0.7020  2.1510  0.7987
   47MOL0     H 6177   9.106   2.352   8.601  1.5245 -0.2955  1.3074
   47MOL0     H 6178   9.219   2.149   8.710  0.2220  3.5022  1.5540
   47MOL0     H 6179   9.321   2.249   8.605 -1.4148  2.2118 -0.8717
   47MOL0     H 6180   9.293   2.090   8.427  0.8910  1.0749 -0.1726
   47MOL0     H 6181   9.190   1.982   8.529 -1.2248  1.2209 -3.8339
   47MOL0     H 6182   9.369   1.957   8.698  2.6354  2.3187  1.0032
   47MOL0     H 6183   9.409   1.908   8.535 -1.9283 -1.6526  0.8144
   47MOL0     H 6184   9.601   2.009   8.633 -1.6475 -2.0284 -0.6382
   47MOL0     H 6185   9.523   2.162   8.675  0.2856 -0.2435  0.5274
   47MOL0     H 6186   8.496   2.057   8.546 -1.4735 -1.4040 -2.1329
   47MOL0     H 6187   8.248   2.046   8.511  0.9924 -0.5635  0.3616
   47MOL0     H 6188   7.862   2.153   8.354 -1.2143  0.9514 -0.7098
   47MOL0     H 6189   7.639   2.066   8.357 -0.8778 -0.3215  0.9802
   47MOL0     H 6190   8.393   1.078   7.788  0.5325 -0.2739 -1.3950
   47MOL0     H 6191   8.459   0.834   7.775  0.0100 -0.4459 -0.8924
   47MOL0     H 6192   8.604   0.411   7.961 -1.1838 -4.5213  2.4137
   47MOL0     H 6193   8.675   0.208   7.884 -0.4965 -0.6658  1.2944
   47MOL0     H 6194   8.719  -0.013   7.776 -0.7352  3.3213  2.2401
   47MOL0     H 6195   8.793   0.115   7.683  1.7199 -1.6804 -0.2288
   47MOL0     H 6196   8.692  -0.138   7.567 -0.0637  0.6961  1.8582
   47MOL0     H 6197   8.718   0.002   7.465 -1.8253  2.3796  1.0704
   47MOL0     H 6198   8.964  -0.012   7.524  0.5937  0.0194 -0.4718
   47MOL0     H 6199   8.883  -0.147   7.441 -0.6903  0.6545  0.3340
   47MOL0     H 6200   8.975  -0.167   7.732 -3.5045 -2.2485  0.6729
   47MOL0     H 6201   8.869  -0.272   7.662 -0.6485  0.5247  0.9300
   47MOL0     H 6202   9.225  -0.396   7.469 -0.6206 -0.2431  0.6638
   47MOL0     H 6203   8.396   0.238   7.561  2.8881  2.0872 -1.3795
   47MOL0     H 6204   8.338   0.467   7.633  0.0348 -0.9114 -0.4100
   48MOL0     O 6205  10.452   5.987   4.892  0.4189  0.5029 -0.5221
   48MOL0     C 6206  10.493   5.972   4.785  0.0481 -0.4409  0.7928
   48MOL0     O 6207  10.424   5.981   4.668  0.2907 -0.4040 -0.3494
   48MOL0     C 6208  10.294   6.018   4.655 -0.6254  0.0387 -0.9717
   48MOL0     C 6209  10.210   6.058   4.766  0.2918  0.3362  0.6578
   48MOL0     C 6210  10.085   6.114   4.740 -0.6037 -0.2999  0.1153
   48MOL0     C 6211  10.040   6.112   4.610  0.4373  0.1300  0.6154
   48MOL0     O 6212   9.914   6.154   4.572 -0.3866 -0.1605 -0.1063
   48MOL0     C 6213   9.817   6.062   4.606 -0.8543 -0.0307  0.0512
   48MOL0     C 6214   9.682   6.112   4.575 -0.1528 -0.7904 -0.7505
   48MOL0     C 6215   9.658   6.264   4.607 -0.8425 -0.4781  0.0646
   48MOL0     C 6216   9.504   6.305   4.603  0.2017  0.4213 -0.4129
   48MOL0     C 6217   9.483   6.433   4.673  0.4293 -0.4974  0.1987
   48MOL0     C 6218   9.330   6.486   4.659 -0.7045 -0.0701  0.0075
   48MOL0     C 6219   9.302   6.617   4.714 -0.3015  0.0792  0.1070
   48MOL0     C 6220   9.294   6.626   4.864 -0.6215  0.1009 -0.7144
   48MOL0     N 6221   9.275   6.757   4.908  0.2518  0.4406 -0.1739
   48MOL0     C 6222   9.183   6.809   5.000 -0.0467  0.7100 -0.4264
   48MOL0     C 6223   9.217   6.937   5.014 -0.6618 -0.0161 -0.5513
   48MOL0     C 6224   9.159   7.042   5.108 -0.2152 -0.2389  0.5100
   48MOL0     C 6225   9.254   7.093   5.223 -0.7808 -0.0686  1.1967
   48MOL0     C 6226   9.201   7.181   5.342 -0.0239 -0.1095 -0.5517
   48MOL0     C 6227   9.079   7.137   5.409 -0.5557  0.6375  1.0276
   48MOL0     O 6228   9.022   7.245   5.488 -0.3331 -0.2084  0.3952
   48MOL0     C 6229   8.896   7.297   5.456 -0.3005 -0.2344 -0.2467
   48MOL0     C 6230   8.831   7.281   5.327 -0.5536 -0.5093 -0.5820
   48MOL0     C 6231   8.699   7.326   5.300 -0.1688 -1.2433 -0.4846
   48MOL0     C 6232   8.623   7.384   5.407 -0.1304  0.4484  0.7666
   48MOL0     C 6233   8.496   7.430   5.377  1.1523 -0.0802  0.2219
   48MOL0     O 6234   8.441   7.384   5.266  0.0217  0.7390  0.5648
   48MOL0     C 6235   8.331   7.449   5.211  0.5856  0.5539  0.3577
   48MOL0     C 6236   8.330   7.588   5.183  0.9290 -0.6911  0.2222
   48MOL0     C 6237   8.212   7.657   5.133 -0.9618  0.4425 -1.2464
   48MOL0     C 6238   8.099   7.587   5.116 -0.2223  0.2038 -0.6659
   48MOL0     O 6239   7.973   7.647   5.085 -0.4046 -0.3715  0.2363
   48MOL0     C 6240   7.969   7.791   5.052 -0.5822 -0.0568  0.4336
   48MOL0     C 6241   7.825   7.834   5.024 -0.7462  0.8787 -0.3499
   48MOL0     C 6242   7.736   7.812   5.144 -0.2523  0.4834  0.2467
   48MOL0     C 6243   7.610   7.885   5.113  0.1586 -0.1007 -0.5562
   48MOL0     C 6244   7.521   7.913   5.235 -0.1595 -1.0182 -0.0721
   48MOL0     C 6245   7.574   8.018   5.331  0.2718 -0.8014 -0.5162
   48MOL0     C 6246   7.462   8.058   5.429  0.6341 -0.6730 -0.9622
   48MOL0     C 6247   7.429   7.961   5.547 -0.3275 -0.5676  0.5224
   48MOL0    Cl 6248   7.574   7.911   5.636  0.2270  0.3365  0.0876
   48MOL0     C 6249   8.100   7.455   5.159 -0.5492  0.2952 -1.0792
   48MOL0     C 6250   8.217   7.377   5.204 -0.4145 -1.4217  0.8336
   48MOL0     O 6251   8.438   7.503   5.456  0.2236 -0.2857  0.5373
   48MOL0     C 6252   8.690   7.407   5.528 -0.1481  0.5032 -1.2420
   48MOL0     C 6253   8.823   7.367   5.556 -0.1260  0.1869  0.6653
   48MOL0     N 6254   9.330   6.962   4.935  0.1475 -0.3738  0.9395
   48MOL0     N 6255   9.362   6.855   4.869  0.0075  0.1229 -0.2493
   48MOL0     C 6256  10.122   6.079   4.497  0.3015 -0.4786  0.1363
   48MOL0     C 6257  10.247   6.022   4.524  0.3684 -0.5214  0.6805
   48MOL0     C 6258  10.637   5.939   4.767  0.1396 -0.4307  0.7826
   48MOL0     C 6259  10.692   5.942   4.643 -0.5280  0.2050  0.1644
   48MOL0     C 6260  10.828   5.908   4.634  0.2673 -0.1122  0.4894
   48MOL0     C 6261  10.899   5.864   4.745  0.6740  0.7414  0.1492
   48MOL0     O 6262  11.030   5.851   4.727 -0.1606 -0.6338 -0.0737
   48MOL0     C 6263  11.116   5.953   4.780 -0.0809 -0.5262  0.2181
   48MOL0     C 6264  11.263   5.909   4.777  0.5988 -0.3569 -1.3642
   48MOL0     C 6265  11.281   5.780   4.862 -0.0546 -0.2501  0.3767
   48MOL0     C 6266  11.300   5.814   5.015 -0.2168 -0.2907  0.6986
   48MOL0     C 6267  11.424   5.891   5.045  0.5567 -0.2700 -0.2408
   48MOL0     C 6268  11.528   5.951   5.066  0.3726 -0.1466  0.1817
   48MOL0     C 6269  10.837   5.865   4.870 -0.8714  0.4746  0.2640
   48MOL0     C 6270  10.709   5.898   4.882 -1.1311  0.5181  0.4714
   48MOL0     H 6271  10.247   6.065   4.868 -0.2130  1.1178  0.7999
   48MOL0     H 6272  10.019   6.162   4.811 -0.2549  1.5263 -0.7393
   48MOL0     H 6273   9.826   6.045   4.714 -1.4600 -0.5382  0.0219
   48MOL0     H 6274   9.834   5.975   4.542 -2.7316 -0.5414  0.1818
   48MOL0     H 6275   9.610   6.055   4.634  1.2565 -1.8906 -0.0282
   48MOL0     H 6276   9.669   6.093   4.469  1.3857  0.0047 -1.1188
   48MOL0     H 6277   9.712   6.318   4.529  0.1170  2.1690  2.4090
   48MOL0     H 6278   9.692   6.283   4.709  0.7705 -2.6246 -0.0040
   48MOL0     H 6279   9.488   6.307   4.494  0.9181 -1.8798 -0.6242
   48MOL0     H 6280   9.445   6.221   4.642 -0.6323  0.4842 -1.5016
   48MOL0     H 6281   9.541   6.514   4.629 -3.1484  0.5327 -3.2061
   48MOL0     H 6282   9.506   6.429   4.780  2.6522  2.6013 -0.0469
   48MOL0     H 6283   9.268   6.413   4.712  1.6031  0.3473  3.6268
   48MOL0     H 6284   9.293   6.493   4.556 -0.1789  1.3850 -0.1001
   48MOL0     H 6285   9.376   6.689   4.678 -0.1206 -0.3807 -0.4621
   48MOL0     H 6286   9.206   6.652   4.677  1.3172  1.0831 -3.5457
   48MOL0     H 6287   9.390   6.587   4.899 -1.2354 -1.8492 -1.1019
   48MOL0     H 6288   9.216   6.561   4.904  0.1227 -0.3547  0.0385
   48MOL0     H 6289   9.114   6.753   5.063 -0.0956 -2.6327 -3.1661
   48MOL0     H 6290   9.068   6.998   5.152  0.0424  1.1309  2.5328
   48MOL0     H 6291   9.117   7.122   5.047 -0.6136 -0.7875  0.0515
   48MOL0     H 6292   9.340   7.139   5.174 -1.5028  0.7633  0.6721
   48MOL0     H 6293   9.299   7.004   5.267 -0.6263 -0.7478 -0.3024
   48MOL0     H 6294   9.276   7.207   5.417 -2.1528  2.4429  0.9018
   48MOL0     H 6295   9.182   7.278   5.295 -1.0270  0.1284  0.3012
   48MOL0     H 6296   9.110   7.062   5.483 -0.3440 -1.7339 -1.3069
   48MOL0     H 6297   9.014   7.086   5.337  1.4900  0.1822 -0.6250
   48MOL0     H 6298   8.886   7.240   5.243 -1.4317  0.2108 -1.5308
   48MOL0     H 6299   8.671   7.316   5.195  1.6916 -0.9403 -1.0424
   48MOL0     H 6300   8.426   7.638   5.196  0.7993 -0.1648 -0.7479
   48MOL0     H 6301   8.222   7.765   5.137  3.3510  0.1752  0.4385
   48MOL0     H 6302   8.022   7.806   4.957  0.2642  2.0441  1.1721
   48MOL0     H 6303   8.019   7.847   5.132  1.0221  1.2769 -1.3882
   48MOL0     H 6304   7.781   7.774   4.944 -0.9696 -2.2950  1.9650
   48MOL0     H 6305   7.810   7.937   4.988  0.1257  1.0078 -0.3837
   48MOL0     H 6306   7.785   7.845   5.236 -1.8138  2.2307  0.5090
   48MOL0     H 6307   7.700   7.710   5.163  0.3350  0.5860  2.0576
   48MOL0     H 6308   7.637   7.982   5.070  2.1789 -0.5924 -0.4608
   48MOL0     H 6309   7.549   7.827   5.042 -2.5681  2.8382 -0.8496
   48MOL0     H 6310   7.504   7.818   5.286  1.5033 -1.3079  0.0123
   48MOL0     H 6311   7.420   7.942   5.204  0.0976 -2.3503 -2.4361
   48MOL0     H 6312   7.613   8.105   5.278 -3.2491  0.9543 -0.5638
   48MOL0     H 6313   7.661   7.983   5.388  0.2682 -2.1931 -1.3332
   48MOL0     H 6314   7.500   8.147   5.478 -0.3722 -2.8689  4.4702
   48MOL0     H 6315   7.371   8.087   5.375  0.5948 -0.1248 -0.6008
   48MOL0     H 6316   7.370   7.882   5.498 -1.8220  0.8486 -0.0473
   48MOL0     H 6317   7.363   8.016   5.616  0.3229  0.8530  0.0387
   48MOL0     H 6318   8.004   7.403   5.160  0.9016 -2.7572  2.4522
   48MOL0     H 6319   8.194   7.273   5.226 -1.8378 -2.0647 -2.9791
   48MOL0     H 6320   8.635   7.442   5.614  0.4628 -0.9697 -0.2063
   48MOL0     H 6321   8.871   7.381   5.653 -1.7598  0.2103  1.5089
   48MOL0     H 6322  10.077   6.078   4.398 -1.5483  1.2475  0.9016
   48MOL0     H 6323  10.318   5.989   4.450 -0.8979 -2.6204  0.3019
   48MOL0     H 6324  10.637   5.971   4.554  2.7673  2.8493 -1.2223
   48MOL0     H 6325  10.855   5.899   4.529 -3.7320  0.7918 -0.7916
   48MOL0     H 6326  11.086   5.971   4.884  0.4828  1.5650  0.0491
   48MOL0     H 6327  11.111   6.047   4.724 -2.6663  1.4896  3.4288
   48MOL0     H 6328  11.291   5.895   4.672  0.2695  2.1840 -1.8437
   48MOL0     H 6329  11.326   5.992   4.809 -0.7483 -0.0044  0.5731
   48MOL0     H 6330  11.361   5.722   4.816 -0.4369 -2.7146  2.5718
   48MOL0     H 6331  11.186   5.725   4.869  0.7129 -2.1226 -2.4776
   48MOL0     H 6332  11.215   5.871   5.053  0.0976  0.1083  0.8167
   48MOL0     H 6333  11.298   5.719   5.071  3.5952 -0.2443  1.2118
   48MOL0     H 6334  11.619   6.001   5.090  0.6550 -0.0130 -1.0905
   48MOL0     H 6335  10.903   5.849   4.955 -0.1650  2.9844  0.2583
   48MOL0     H 6336  10.663   5.883   4.979 -1.7587  2.6343  0.5424
   49MOL0     O 6337   6.623   9.320   2.683 -0.1611  0.3971 -0.1382
   49MOL0     C 6338   6.585   9.348   2.799 -0.1649  0.1647  0.1977
   49MOL0     O 6339   6.654   9.327   2.916  0.2073  0.0628  1.0562
   49MOL0     C 6340   6.720   9.207   2.930  0.4221 -0.5901  1.0345
   49MOL0     C 6341   6.706   9.154   3.056 -0.0567  0.7976  0.6369
   49MOL0     C 6342   6.769   9.035   3.092 -0.0467 -0.6909 -0.1204
   49MOL0     C 6343   6.842   8.963   2.996  0.0456  0.2759  0.2897
   49MOL0     O 6344   6.886   8.837   3.033  0.7714 -0.6710 -0.1203
   49MOL0     C 6345   6.992   8.775   2.959  0.0454  0.5708  0.1153
   49MOL0     C 6346   7.034   8.651   3.037 -0.1582 -0.5813 -1.4207
   49MOL0     C 6347   6.914   8.550   3.068 -1.5597  0.3624  0.3223
   49MOL0     C 6348   6.880   8.464   2.941 -0.3035  0.2033 -0.6515
   49MOL0     C 6349   6.779   8.367   2.987 -0.1173 -0.5205  0.3633
   49MOL0     C 6350   6.743   8.266   2.877 -0.0468 -0.3950  0.3653
   49MOL0     C 6351   6.632   8.173   2.924 -0.3229  0.1410 -0.1853
   49MOL0     C 6352   6.492   8.237   2.887 -0.3344 -0.6247 -0.3683
   49MOL0     N 6353   6.382   8.148   2.916 -0.2324 -0.1565  0.0216
   49MOL0     C 6354   6.344   8.036   2.836  0.3720  0.8554 -0.7368
   49MOL0     C 6355   6.256   7.965   2.916  0.4542  0.5906 -0.7185
   49MOL0     C 6356   6.183   7.840   2.877 -0.3637 -0.1456 -0.7789
   49MOL0     C 6357   6.063   7.818   2.968  0.0235  0.1587  0.1607
   49MOL0     C 6358   5.959   7.729   2.895  0.1968  0.3096 -0.4842
   49MOL0     C 6359   5.835   7.687   2.975  0.3876  1.1806 -0.2838
   49MOL0     O 6360   5.872   7.605   3.080  0.1753  0.0700  0.2210
   49MOL0     C 6361   5.828   7.476   3.069  0.8075 -0.0741  0.7940
   49MOL0     C 6362   5.916   7.367   3.032  0.7450  0.0112  0.4118
   49MOL0     C 6363   5.866   7.232   3.024 -0.9539  0.2588  1.0699
   49MOL0     C 6364   5.735   7.202   3.053 -0.5859 -0.3187  0.3515
   49MOL0     C 6365   5.682   7.057   3.047 -0.2054 -1.1731 -0.1198
   49MOL0     O 6366   5.562   7.035   3.117 -0.1314  0.0045 -0.1519
   49MOL0     C 6367   5.498   6.916   3.097 -0.5240  0.8535 -0.0559
   49MOL0     C 6368   5.570   6.791   3.099 -0.3147  0.5874 -0.4281
   49MOL0     C 6369   5.506   6.666   3.084  0.3280  0.5602 -0.9371
   49MOL0     C 6370   5.365   6.657   3.085  0.0184 -0.3854  0.2342
   49MOL0     O 6371   5.300   6.539   3.075 -0.0550  0.1238  0.3077
   49MOL0     C 6372   5.180   6.533   3.001 -0.4244 -0.5978  0.4035
   49MOL0     C 6373   5.178   6.569   2.855 -0.1363 -0.1566  0.2117
   49MOL0     C 6374   5.294   6.490   2.788 -0.6187  0.1542  0.4686
   49MOL0     C 6375   5.307   6.505   2.635  0.6744 -0.5930  0.3355
   49MOL0     C 6376   5.449   6.455   2.576  0.3174 -0.7911 -0.1858
   49MOL0     C 6377   5.490   6.557   2.468 -0.2607 -0.4138 -0.9628
   49MOL0     C 6378   5.609   6.492   2.394 -0.0375  0.1815 -0.2023
   49MOL0     C 6379   5.674   6.588   2.309  0.3151 -0.3427 -0.6899
   49MOL0    Cl 6380   5.842   6.544   2.277 -0.3990 -0.0748  0.1634
   49MOL0     C 6381   5.297   6.784   3.097 -0.3712 -0.2771 -0.6413
   49MOL0     C 6382   5.366   6.904   3.107 -0.1915 -0.9405 -0.0445
   49MOL0     O 6383   5.732   6.980   2.981  0.0821 -0.0961  0.1684
   49MOL0     C 6384   5.655   7.311   3.084 -0.4298 -0.4997 -1.5097
   49MOL0     C 6385   5.698   7.448   3.093 -0.2873  0.8762  0.3356
   49MOL0     N 6386   6.229   8.036   3.034 -0.3418  0.1680 -0.6421
   49MOL0     N 6387   6.298   8.146   3.022  0.2663  0.0148 -0.5231
   49MOL0     C 6388   6.868   9.019   2.871  1.0518  0.5623 -0.4422
   49MOL0     C 6389   6.809   9.149   2.835  0.8958  0.0989 -0.0418
   49MOL0     C 6390   6.457   9.435   2.812  0.3117  0.4250  0.2252
   49MOL0     C 6391   6.416   9.506   2.702 -0.1451 -0.5778  1.0542
   49MOL0     C 6392   6.297   9.580   2.713 -0.2559 -0.8922 -0.4043
   49MOL0     C 6393   6.226   9.587   2.832 -0.5269 -0.4667 -0.5797
   49MOL0     O 6394   6.103   9.655   2.836 -0.0221  0.2821 -0.2723
   49MOL0     C 6395   6.002   9.595   2.925  0.8792  0.6269  0.5820
   49MOL0     C 6396   5.861   9.647   2.877 -0.0143 -0.1964 -0.1545
   49MOL0     C 6397   5.743   9.579   2.944  0.2767 -0.2537  0.7458
   49MOL0     C 6398   5.714   9.441   2.876 -0.2608  0.3021  0.2517
   49MOL0     C 6399   5.637   9.466   2.752  1.3398  0.7113  0.0414
   49MOL0     C 6400   5.576   9.489   2.649  0.3357 -0.3451 -0.3799
   49MOL0     C 6401   6.281   9.524   2.947 -0.3925 -0.0448  0.1404
   49MOL0     C 6402   6.389   9.444   2.938 -0.0030  0.7259 -0.1880
   49MOL0     H 6403   6.645   9.204   3.131 -0.7183 -2.5133  2.5475
   49MOL0     H 6404   6.750   9.009   3.196 -1.0824  0.4240 -0.0067
   49MOL0     H 6405   7.078   8.840   2.941  1.1798 -1.0425 -0.5550
   49MOL0     H 6406   6.948   8.742   2.864  0.6983  1.3929 -0.4878
   49MOL0     H 6407   7.077   8.677   3.134 -2.4121 -1.6792 -0.0520
   49MOL0     H 6408   7.106   8.590   2.982  0.1619 -2.2888  0.7794
   49MOL0     H 6409   6.829   8.608   3.105 -1.2259 -0.8239  3.3057
   49MOL0     H 6410   6.947   8.473   3.139 -0.7720 -2.8222 -3.1631
   49MOL0     H 6411   6.849   8.526   2.856 -0.4130 -0.6160 -1.2187
   49MOL0     H 6412   6.968   8.408   2.908 -1.2272 -0.7766 -1.5111
   49MOL0     H 6413   6.692   8.429   3.012  0.7010  1.4702 -1.3597
   49MOL0     H 6414   6.810   8.321   3.081 -1.2107 -2.6748 -0.2741
   49MOL0     H 6415   6.838   8.214   2.858  1.7821  2.0074  2.2229
   49MOL0     H 6416   6.718   8.316   2.784 -1.4252  0.4453  1.1568
   49MOL0     H 6417   6.645   8.077   2.872 -0.0851 -0.1705  0.4394
   49MOL0     H 6418   6.624   8.158   3.032 -1.8183  0.6181 -0.2059
   49MOL0     H 6419   6.496   8.253   2.779  0.1467 -2.2557 -0.6141
   49MOL0     H 6420   6.478   8.329   2.945  0.2346 -0.9637  0.3231
   49MOL0     H 6421   6.372   7.999   2.738 -1.1476 -2.9728  0.0900
   49MOL0     H 6422   6.254   7.758   2.881  0.8119  0.7971 -1.7685
   49MOL0     H 6423   6.139   7.852   2.778 -2.5581 -0.1843  0.1194
   49MOL0     H 6424   6.004   7.909   2.982  1.2465  0.7170  1.9977
   49MOL0     H 6425   6.093   7.774   3.063  1.7313  3.8602  1.5294
   49MOL0     H 6426   5.924   7.763   2.798  1.5858  0.6863 -0.8785
   49MOL0     H 6427   6.007   7.633   2.873  0.7517 -0.6981  4.0244
   49MOL0     H 6428   5.761   7.644   2.908 -0.3321  2.0276 -0.0466
   49MOL0     H 6429   5.796   7.783   3.009  1.7424  0.9602  2.1679
   49MOL0     H 6430   6.016   7.406   3.015 -0.6407  3.3455 -1.0707
   49MOL0     H 6431   5.928   7.151   2.987  1.9228  2.2448  1.2036
   49MOL0     H 6432   5.675   6.792   3.125 -0.3275  2.0810 -0.3298
   49MOL0     H 6433   5.574   6.581   3.078  0.0963  0.2710  0.3242
   49MOL0     H 6434   5.117   6.612   3.043  2.0371  0.1838  2.9227
   49MOL0     H 6435   5.126   6.441   3.024  0.6366 -1.7508 -1.4643
   49MOL0     H 6436   5.181   6.674   2.822  1.2947 -0.2741 -0.0929
   49MOL0     H 6437   5.083   6.534   2.815 -0.7914 -1.9185  3.0455
   49MOL0     H 6438   5.295   6.388   2.827 -0.0466  0.8372  2.3703
   49MOL0     H 6439   5.386   6.536   2.826  1.1211 -2.5979 -0.1283
   49MOL0     H 6440   5.221   6.456   2.588  1.5117 -0.6503 -1.2296
   49MOL0     H 6441   5.291   6.609   2.605 -0.1693 -1.1467 -1.2912
   49MOL0     H 6442   5.443   6.354   2.533  5.8556 -1.6628  0.4246
   49MOL0     H 6443   5.531   6.460   2.648  0.3359 -1.9660 -0.0958
   49MOL0     H 6444   5.508   6.652   2.520  0.3365 -1.3185  0.5594
   49MOL0     H 6445   5.403   6.567   2.403 -1.3804 -4.6660 -0.4434
   49MOL0     H 6446   5.690   6.455   2.456  1.1546  4.8389  1.4038
   49MOL0     H 6447   5.575   6.407   2.334  2.2060 -0.6610 -0.3514
   49MOL0     H 6448   5.676   6.683   2.364 -1.7467 -2.4834  3.5248
   49MOL0     H 6449   5.612   6.589   2.219  1.5398  0.1687 -1.5493
   49MOL0     H 6450   5.189   6.792   3.090 -0.2032  1.1053 -2.3752
   49MOL0     H 6451   5.308   6.994   3.125  0.1928 -0.9604  1.4614
   49MOL0     H 6452   5.550   7.291   3.104 -0.0026  0.0500  2.1382
   49MOL0     H 6453   5.631   7.531   3.113  0.5626  1.3689  1.2437
   49MOL0     H 6454   6.932   8.964   2.804  1.1217 -0.6855  0.6057
   49MOL0     H 6455   6.822   9.194   2.737  2.6710 -0.7738 -0.2565
   49MOL0     H 6456   6.458   9.499   2.602 -4.0735 -0.1931 -0.8263
   49MOL0     H 6457   6.253   9.637   2.632 -0.8837  0.7790  1.0610
   49MOL0     H 6458   6.027   9.614   3.030 -2.9083 -0.4397  1.8553
   49MOL0     H 6459   6.002   9.487   2.912  0.6340  0.9077 -2.3408
   49MOL0     H 6460   5.852   9.750   2.912 -0.6147 -0.2915 -0.0299
   49MOL0     H 6461   5.845   9.660   2.770 -2.4812  1.3907  0.3165
   49MOL0     H 6462   5.655   9.642   2.926  2.7001  3.7197  1.6503
   49MOL0     H 6463   5.751   9.567   3.053 -0.2101  1.4813  0.9958
   49MOL0     H 6464   5.801   9.379   2.853 -1.1975 -0.5418 -1.2079
   49MOL0     H 6465   5.665   9.373   2.945 -0.6466 -0.1818 -0.4954
   49MOL0     H 6466   5.532   9.515   2.554 -0.7187 -0.2533  0.1189
   49MOL0     H 6467   6.236   9.535   3.045  1.3966  1.7181  0.8393
   49MOL0     H 6468   6.418   9.384   3.024  1.2603 -0.9742 -1.7142
   50MOL0     O 6469   4.425   6.370   0.939 -0.1654  0.3873  0.0502
   50MOL0     C 6470   4.444   6.377   1.056 -0.3454 -0.3996  0.0452
   50MOL0     O 6471   4.352   6.410   1.152  0.4296  0.7901 -0.0844
   50MOL0     C 6472   4.210   6.393   1.137  0.5092  0.5422 -0.0038
   50MOL0     C 6473   4.162   6.289   1.052  0.0956 -0.5828 -0.4071
   50MOL0     C 6474   4.026   6.260   1.036 -0.3780 -0.1376  0.5076
   50MOL0     C 6475   3.929   6.329   1.107  0.5314  0.0789 -0.2883
   50MOL0     O 6476   3.795   6.315   1.076 -0.1503 -0.1245  0.1153
   50MOL0     C 6477   3.704   6.319   1.190  0.2594 -0.1111  0.2772
   50MOL0     C 6478   3.571   6.301   1.123  0.1026  0.5451  0.2602
   50MOL0     C 6479   3.544   6.153   1.099  0.0654  0.4065 -0.1515
   50MOL0     C 6480   3.397   6.138   1.063 -0.6653 -0.4699 -0.0064
   50MOL0     C 6481   3.373   6.002   1.001  0.6285 -0.0199  0.2170
   50MOL0     C 6482   3.245   6.003   0.922 -1.0508  0.7918  0.5478
   50MOL0     C 6483   3.212   5.865   0.858  0.1112  0.2175 -0.4140
   50MOL0     C 6484   3.100   5.872   0.754 -0.8204 -0.1307  0.2544
   50MOL0     N 6485   2.964   5.899   0.798  0.9115  0.2673  0.0619
   50MOL0     C 6486   2.866   5.931   0.705  0.3343 -0.1039  0.5701
   50MOL0     C 6487   2.766   5.995   0.767  0.3950 -0.2426 -0.9603
   50MOL0     C 6488   2.637   6.058   0.699  0.4543 -0.6613 -0.2860
   50MOL0     C 6489   2.509   5.979   0.697  0.3966 -0.1266  0.7544
   50MOL0     C 6490   2.497   5.865   0.587 -0.5606 -0.3485 -1.1010
   50MOL0     C 6491   2.352   5.803   0.590 -1.1835 -0.6752 -0.9857
   50MOL0     O 6492   2.344   5.715   0.480 -0.1489 -0.3034 -0.1678
   50MOL0     C 6493   2.227   5.711   0.411 -0.7838  0.0972  0.4142
   50MOL0     C 6494   2.234   5.676   0.275 -0.8548 -0.6266  1.2702
   50MOL0     C 6495   2.122   5.690   0.191 -0.8501 -0.2318  0.1872
   50MOL0     C 6496   1.999   5.734   0.242 -0.5173 -0.5482  0.4878
   50MOL0     C 6497   1.898   5.764   0.150 -0.1315 -0.7058  0.4238
   50MOL0     O 6498   1.924   5.738   0.019 -0.3449 -0.8970 -0.5341
   50MOL0     C 6499   1.835   5.780  -0.081 -0.3625  0.6547  0.5971
   50MOL0     C 6500   1.692   5.800  -0.076  0.0977  0.3209 -0.5676
   50MOL0     C 6501   1.628   5.864  -0.188  0.6235 -0.5422 -0.7369
   50MOL0     C 6502   1.697   5.892  -0.309  0.0539  0.0712 -0.2361
   50MOL0     O 6503   1.648   5.955  -0.413  0.0959 -1.2343 -0.0871
   50MOL0     C 6504   1.504   5.972  -0.431  0.2241 -0.8859 -0.2390
   50MOL0     C 6505   1.439   5.841  -0.484  0.5156 -0.0400  0.0107
   50MOL0     C 6506   1.304   5.870  -0.555  0.0732 -0.5584 -0.2724
   50MOL0     C 6507   1.209   5.949  -0.459 -0.9909  1.7527  0.5295
   50MOL0     C 6508   1.068   5.927  -0.523 -0.0250  0.5832  1.1370
   50MOL0     C 6509   0.968   5.978  -0.422  0.2244  0.5831 -0.2232
   50MOL0     C 6510   0.830   5.987  -0.480  0.5045 -0.0639  0.2367
   50MOL0     C 6511   0.710   6.012  -0.386  0.0297  0.0485 -0.7799
   50MOL0    Cl 6512   0.569   6.015  -0.491  0.0107 -0.0470  0.4951
   50MOL0     C 6513   1.831   5.852  -0.320  0.6259  0.7051 -1.5823
   50MOL0     C 6514   1.901   5.813  -0.200 -0.5310 -0.3742  0.0044
   50MOL0     O 6515   1.793   5.800   0.192 -0.1524  0.2750 -0.3027
   50MOL0     C 6516   1.993   5.776   0.375  0.1847 -0.2838  0.1931
   50MOL0     C 6517   2.103   5.755   0.462 -0.2071  0.1459 -0.7019
   50MOL0     N 6518   2.802   6.005   0.897  0.1084 -0.1704 -1.2892
   50MOL0     N 6519   2.908   5.939   0.921  0.0003  0.8554  0.2809
   50MOL0     C 6520   3.973   6.434   1.196  0.3254  0.0665 -0.0234
   50MOL0     C 6521   4.113   6.476   1.202  0.8114  0.0146  0.5404
   50MOL0     C 6522   4.583   6.342   1.104  0.2006 -0.1005  0.0215
   50MOL0     C 6523   4.631   6.412   1.212  0.2279 -0.1596 -0.3204
   50MOL0     C 6524   4.764   6.404   1.249 -0.0113 -0.0492 -0.5246
   50MOL0     C 6525   4.855   6.325   1.175  0.0500 -0.0100  0.2904
   50MOL0     O 6526   4.985   6.309   1.199  0.3190  0.2290 -0.3875
   50MOL0     C 6527   5.042   6.351   1.319 -0.7040  0.1566 -0.1973
   50MOL0     C 6528   5.175   6.289   1.346  0.3779 -0.6108 -0.0938
   50MOL0     C 6529   5.292   6.329   1.258  0.2763  0.1062 -0.2438
   50MOL0     C 6530   5.333   6.476   1.277 -0.4848  0.4915 -0.5344
   50MOL0     C 6531   5.397   6.502   1.405 -0.5746  0.4788  0.0803
   50MOL0     C 6532   5.467   6.546   1.490 -0.1149 -0.6545 -0.0745
   50MOL0     C 6533   4.809   6.241   1.072 -0.5088  0.0491 -0.1863
   50MOL0     C 6534   4.673   6.254   1.037  0.2457  0.1033  0.2730
   50MOL0     H 6535   4.233   6.229   0.996  2.8601  0.0964  2.1088
   50MOL0     H 6536   3.995   6.189   0.960  2.1143 -0.0500 -0.6682
   50MOL0     H 6537   3.702   6.423   1.226 -2.6642  1.0663 -2.6801
   50MOL0     H 6538   3.724   6.247   1.269  0.3887 -0.2296  0.1376
   50MOL0     H 6539   3.565   6.355   1.028 -1.3093 -2.4759 -1.5064
   50MOL0     H 6540   3.492   6.328   1.194  1.0844 -0.3604  1.7636
   50MOL0     H 6541   3.569   6.100   1.191  1.2775 -1.5208 -1.5199
   50MOL0     H 6542   3.598   6.120   1.010 -0.5167 -1.6712  0.2171
   50MOL0     H 6543   3.337   6.137   1.155  0.5225 -1.4813  0.7936
   50MOL0     H 6544   3.362   6.212   0.991 -1.2744  0.1911  0.9574
   50MOL0     H 6545   3.362   5.940   1.090 -0.6945  1.3958  1.0878
   50MOL0     H 6546   3.453   5.971   0.933 -0.9736 -0.3809 -1.6009
   50MOL0     H 6547   3.259   6.086   0.851 -1.8333  0.2200 -0.2955
   50MOL0     H 6548   3.164   6.038   0.986 -1.8081 -1.3373  0.8282
   50MOL0     H 6549   3.298   5.814   0.814  0.8875  0.0714  1.2019
   50MOL0     H 6550   3.175   5.807   0.942  1.6491  0.6908  0.6282
   50MOL0     H 6551   3.091   5.774   0.706 -0.2588 -1.1487  2.1120
   50MOL0     H 6552   3.133   5.945   0.680  1.4861  0.0467  1.3801
   50MOL0     H 6553   2.873   5.909   0.599  3.5810 -0.8268  0.8347
   50MOL0     H 6554   2.650   6.087   0.595  2.0010 -0.3091 -0.0253
   50MOL0     H 6555   2.607   6.148   0.753 -1.6616 -1.8671  0.6880
   50MOL0     H 6556   2.420   6.037   0.670 -1.0335 -2.3124  0.5367
   50MOL0     H 6557   2.498   5.937   0.798 -1.0444  0.6469  0.9454
   50MOL0     H 6558   2.533   5.903   0.492 -1.4886 -0.9073 -1.6890
   50MOL0     H 6559   2.566   5.785   0.617 -0.3249  0.3667  0.3782
   50MOL0     H 6560   2.284   5.888   0.578 -0.1723  0.0770 -1.4880
   50MOL0     H 6561   2.326   5.768   0.691  0.4233  2.0593  0.4870
   50MOL0     H 6562   2.333   5.654   0.236 -0.8549  3.8267 -2.0580
   50MOL0     H 6563   2.127   5.665   0.085  0.0540  2.8968 -0.6229
   50MOL0     H 6564   1.627   5.790   0.010  1.0196 -1.1986 -0.0111
   50MOL0     H 6565   1.521   5.869  -0.174  0.5252  0.1289 -1.6779
   50MOL0     H 6566   1.487   6.042  -0.513  2.9065  1.0814  0.7418
   50MOL0     H 6567   1.451   6.005  -0.341 -0.8163  1.4198 -1.6148
   50MOL0     H 6568   1.436   5.754  -0.417  0.8773 -0.1668 -0.1338
   50MOL0     H 6569   1.502   5.801  -0.564 -1.0746  0.4918 -1.5732
   50MOL0     H 6570   1.252   5.782  -0.595  0.5130 -1.7906  1.7356
   50MOL0     H 6571   1.339   5.929  -0.640  1.0166  0.8447  1.0508
   50MOL0     H 6572   1.214   5.913  -0.356 -0.0497  0.0854 -0.0539
   50MOL0     H 6573   1.239   6.054  -0.452  2.0843  1.1139 -0.8586
   50MOL0     H 6574   1.049   5.820  -0.537 -2.2999  1.0211  0.5397
   50MOL0     H 6575   1.052   5.984  -0.615 -3.8857 -1.2369  0.4788
   50MOL0     H 6576   0.995   6.077  -0.385  2.6333 -0.0829  0.0069
   50MOL0     H 6577   0.966   5.919  -0.330 -0.5773  0.3173 -0.4080
   50MOL0     H 6578   0.828   6.064  -0.558  2.2300  0.0266  0.2522
   50MOL0     H 6579   0.806   5.891  -0.526 -0.3128 -0.1168  0.7443
   50MOL0     H 6580   0.722   6.098  -0.319 -0.3897 -1.0936  0.8175
   50MOL0     H 6581   0.699   5.932  -0.312  1.0590  1.8776  1.4941
   50MOL0     H 6582   1.892   5.876  -0.406  0.8488 -0.5391 -1.7822
   50MOL0     H 6583   2.009   5.806  -0.207 -0.6944 -3.1065 -1.5576
   50MOL0     H 6584   1.896   5.818   0.400 -0.9588 -1.8346 -1.4252
   50MOL0     H 6585   2.103   5.765   0.570  1.6723 -1.5037 -0.4771
   50MOL0     H 6586   3.898   6.491   1.250 -0.3135  0.6829 -1.5102
   50MOL0     H 6587   4.138   6.568   1.255 -3.8248  2.5309 -1.1049
   50MOL0     H 6588   4.563   6.466   1.278 -0.5148  0.3187 -1.4543
   50MOL0     H 6589   4.792   6.448   1.344 -0.3823  2.7648 -1.6145
   50MOL0     H 6590   4.981   6.317   1.403 -0.0203 -0.3409  0.1122
   50MOL0     H 6591   5.055   6.460   1.315 -0.5575  0.1539  0.1646
   50MOL0     H 6592   5.200   6.325   1.446  0.8212  1.2533 -0.8323
   50MOL0     H 6593   5.160   6.181   1.354 -1.2292 -0.2802  3.5706
   50MOL0     H 6594   5.282   6.315   1.150  1.0013  3.0909 -0.8005
   50MOL0     H 6595   5.382   6.273   1.284  2.2047  2.3325 -1.6655
   50MOL0     H 6596   5.405   6.510   1.202  2.0281 -0.0238  1.4872
   50MOL0     H 6597   5.248   6.542   1.255  1.4988  3.4793  0.1603
   50MOL0     H 6598   5.532   6.577   1.569 -1.2798 -1.7824  1.3872
   50MOL0     H 6599   4.877   6.164   1.034 -2.5661 -2.1749  0.3592
   50MOL0     H 6600   4.627   6.189   0.962 -0.6367  0.2978  0.6352
   51MOL0     O 6601   9.975  10.500   2.062 -0.0373 -0.5470  0.0828
   51MOL0     C 6602  10.011  10.615   2.059  0.5839 -0.1717  0.7860
   51MOL0     O 6603   9.922  10.718   2.095  0.3717 -0.3119  0.5986
   51MOL0     C 6604   9.793  10.691   2.130 -0.2277 -0.2564  0.1330
   51MOL0     C 6605   9.689  10.768   2.067  0.1553  0.2266 -0.7959
   51MOL0     C 6606   9.553  10.746   2.100 -0.0186  0.5949 -0.3703
   51MOL0     C 6607   9.517  10.645   2.186  0.4206 -0.0156 -0.1733
   51MOL0     O 6608   9.388  10.599   2.204 -0.1924 -0.2736 -0.3733
   51MOL0     C 6609   9.281  10.694   2.216 -0.1118 -0.4326  0.2464
   51MOL0     C 6610   9.317  10.814   2.323  0.9378  0.5260  0.3779
   51MOL0     C 6611   9.185  10.879   2.360  0.1411  0.2627 -0.3208
   51MOL0     C 6612   9.108  10.837   2.500 -0.4974 -0.0939 -0.5121
   51MOL0     C 6613   9.193  10.906   2.617  0.3556 -0.8700  0.2778
   51MOL0     C 6614   9.127  10.888   2.755 -0.5008  0.4471  0.1612
   51MOL0     C 6615   8.987  10.965   2.765 -0.1947 -0.6521  0.0838
   51MOL0     C 6616   8.965  10.979   2.918  0.2917  0.0769 -0.0772
   51MOL0     N 6617   8.848  11.052   2.952  0.0979  0.9939  0.4555
   51MOL0     C 6618   8.723  10.987   2.933 -0.6577  0.7562  0.5458
   51MOL0     C 6619   8.631  11.078   2.984 -0.0872  0.3032  0.4082
   51MOL0     C 6620   8.497  11.061   3.034 -0.4434  0.3129 -0.1564
   51MOL0     C 6621   8.429  10.922   2.999  0.3344 -0.5408  0.2540
   51MOL0     C 6622   8.283  10.923   3.038 -0.1564 -0.2476  0.0994
   51MOL0     C 6623   8.248  10.872   3.186  0.8322  0.0223 -0.0294
   51MOL0     O 6624   8.117  10.911   3.205  0.5503  0.4193 -0.1554
   51MOL0     C 6625   8.051  10.852   3.311  0.1640 -0.8716  0.1249
   51MOL0     C 6626   7.924  10.899   3.330  0.5549  0.4576 -0.0387
   51MOL0     C 6627   7.848  10.856   3.441  0.8239 -0.1169  0.3605
   51MOL0     C 6628   7.893  10.761   3.534 -0.4700 -0.0085 -0.4050
   51MOL0     C 6629   7.811  10.707   3.645 -0.3078 -0.3433 -0.4614
   51MOL0     O 6630   7.685  10.746   3.649 -0.2599 -0.0201 -0.4814
   51MOL0     C 6631   7.597  10.688   3.735  0.6287 -0.2282 -0.2723
   51MOL0     C 6632   7.617  10.702   3.869 -0.1199 -1.0377  0.0368
   51MOL0     C 6633   7.523  10.656   3.959 -0.2158  0.0608  0.4338
   51MOL0     C 6634   7.425  10.573   3.924  0.1175 -0.4016  0.6200
   51MOL0     O 6635   7.331  10.521   4.011  0.1665 -0.1116 -0.7470
   51MOL0     C 6636   7.260  10.621   4.084  0.1902 -0.1007  0.9679
   51MOL0     C 6637   7.175  10.547   4.188 -0.1820  0.3206  1.1563
   51MOL0     C 6638   7.101  10.641   4.286  0.1395 -0.0428  1.1507
   51MOL0     C 6639   7.037  10.558   4.396  0.2282 -0.0186 -0.9301
   51MOL0     C 6640   6.984  10.646   4.514  0.2979 -0.0344 -0.2537
   51MOL0     C 6641   6.910  10.575   4.622 -0.4272  0.0854  0.4142
   51MOL0     C 6642   6.845  10.659   4.740 -0.0812 -0.7679 -0.2075
   51MOL0     C 6643   6.827  10.569   4.855  1.1543 -0.0057 -0.4938
   51MOL0    Cl 6644   6.734  10.646   4.986  0.1467 -0.4323 -0.1556
   51MOL0     C 6645   7.399  10.553   3.789 -0.9301  0.0484 -0.1698
   51MOL0     C 6646   7.488  10.610   3.697  0.0143  0.1554  0.0829
   51MOL0     O 6647   7.860  10.627   3.717 -0.4968  1.1652  0.2735
   51MOL0     C 6648   8.026  10.720   3.512 -0.5831  0.4190 -1.5724
   51MOL0     C 6649   8.107  10.760   3.409  1.2421 -0.3130  0.6462
   51MOL0     N 6650   8.688  11.198   2.984 -0.0178 -0.1534 -1.3258
   51MOL0     N 6651   8.817  11.182   2.970  0.4642  0.1725  0.4912
   51MOL0     C 6652   9.611  10.563   2.239 -0.3775 -0.2254  0.5035
   51MOL0     C 6653   9.752  10.585   2.225 -0.2671 -0.0285 -0.3371
   51MOL0     C 6654  10.138  10.665   2.011  0.2192 -0.6058 -0.4176
   51MOL0     C 6655  10.171  10.798   1.984  0.2582 -0.1037  0.3694
   51MOL0     C 6656  10.299  10.842   1.944 -0.1448 -0.6129 -0.1301
   51MOL0     C 6657  10.400  10.748   1.929  0.1045 -0.0629  0.6512
   51MOL0     O 6658  10.516  10.795   1.875 -0.2873  0.3551  0.6822
   51MOL0     C 6659  10.623  10.696   1.874 -0.1729  1.2766 -0.8459
   51MOL0     C 6660  10.757  10.754   1.826 -0.8493 -0.0541  0.0289
   51MOL0     C 6661  10.863  10.647   1.804 -0.7467  0.5654  0.9885
   51MOL0     C 6662  11.001  10.690   1.819 -0.1734  0.4562 -0.1270
   51MOL0     C 6663  11.051  10.774   1.706  0.2395  0.9231  0.4140
   51MOL0     C 6664  11.103  10.836   1.611  0.0394  1.2308  0.4276
   51MOL0     C 6665  10.360  10.617   1.945 -0.5251  0.4540 -0.4296
   51MOL0     C 6666  10.235  10.572   1.983  0.1042  0.3490  0.7165
   51MOL0     H 6667   9.726  10.849   2.004  0.3477 -0.6905 -1.8801
   51MOL0     H 6668   9.482  10.802   2.038 -0.0610  1.8319  0.7512
   51MOL0     H 6669   9.187  10.645   2.245 -0.4224 -1.9517 -2.8749
   51MOL0     H 6670   9.256  10.740   2.120 -1.1059  0.5584  0.9454
   51MOL0     H 6671   9.378  10.898   2.291  1.3977 -0.4132 -1.3229
   51MOL0     H 6672   9.376  10.776   2.407  1.6694  0.4731 -0.1484
   51MOL0     H 6673   9.111  10.878   2.280  0.1890  0.5820 -0.3690
   51MOL0     H 6674   9.210  10.985   2.375  0.1202  0.2661 -0.3079
   51MOL0     H 6675   9.006  10.874   2.507 -0.2230  0.4888  0.7439
   51MOL0     H 6676   9.122  10.729   2.509  3.7176  0.4033  1.6346
   51MOL0     H 6677   9.216  11.012   2.603  1.0736 -1.2258 -1.6053
   51MOL0     H 6678   9.297  10.871   2.617  1.2434  1.3938  3.1421
   51MOL0     H 6679   9.196  10.908   2.837 -0.0481 -1.0005  0.1452
   51MOL0     H 6680   9.105  10.781   2.755 -1.1421  0.5690 -0.9293
   51MOL0     H 6681   8.997  11.063   2.718  2.5120 -0.2254  1.3127
   51MOL0     H 6682   8.901  10.906   2.733  1.1536 -2.4103 -0.4914
   51MOL0     H 6683   9.039  11.029   2.982 -1.6393 -1.1106  3.3164
   51MOL0     H 6684   8.953  10.880   2.963 -3.1158  0.4516  0.0640
   51MOL0     H 6685   8.705  10.884   2.904  0.0162  0.9308 -0.5760
   51MOL0     H 6686   8.449  11.153   2.998 -0.5969 -0.0932 -1.0185
   51MOL0     H 6687   8.502  11.077   3.142  0.1851  0.1078 -0.1529
   51MOL0     H 6688   8.485  10.843   3.049  0.1271 -0.7794  0.1059
   51MOL0     H 6689   8.437  10.911   2.891  0.2400  2.5709 -0.1777
   51MOL0     H 6690   8.237  11.020   3.017  1.0595  0.3450  0.1099
   51MOL0     H 6691   8.241  10.854   2.966  0.6437 -0.0922 -0.5323
   51MOL0     H 6692   8.315  10.916   3.260  1.1747 -0.2828 -0.1513
   51MOL0     H 6693   8.253  10.763   3.197 -2.7445 -0.0744  1.8698
   51MOL0     H 6694   7.881  10.976   3.267  1.7951  0.6448 -0.6913
   51MOL0     H 6695   7.747  10.897   3.443  0.1321 -1.5028 -2.1129
   51MOL0     H 6696   7.704  10.754   3.908 -0.2923 -0.4637 -0.3316
   51MOL0     H 6697   7.532  10.681   4.064 -1.6677 -0.2170  0.6425
   51MOL0     H 6698   7.204  10.680   4.012 -0.5151 -3.4974 -1.5230
   51MOL0     H 6699   7.332  10.680   4.141  0.0624 -1.3771  2.5121
   51MOL0     H 6700   7.237  10.475   4.241 -0.3523 -0.5355  0.2236
   51MOL0     H 6701   7.099  10.479   4.149 -0.3086  0.1008  1.7768
   51MOL0     H 6702   7.023  10.691   4.227  1.4216  0.5637 -0.0956
   51MOL0     H 6703   7.172  10.711   4.331 -0.9719  1.1802  1.0745
   51MOL0     H 6704   6.954  10.492   4.369  0.7079 -0.2725 -1.8626
   51MOL0     H 6705   7.111  10.498   4.451  0.0393  0.8058  0.2614
   51MOL0     H 6706   6.901  10.709   4.480 -0.3933  1.0175  2.9630
   51MOL0     H 6707   7.063  10.708   4.559 -1.2125  0.1606  2.3522
   51MOL0     H 6708   6.969  10.488   4.651 -0.4699 -0.1973 -0.3191
   51MOL0     H 6709   6.827  10.520   4.576  2.2183 -3.3397 -0.6043
   51MOL0     H 6710   6.916  10.737   4.767  2.2045 -1.3468 -3.8809
   51MOL0     H 6711   6.750  10.704   4.709 -0.6055 -0.3286  1.8767
   51MOL0     H 6712   6.919  10.534   4.903 -0.2271 -0.6849  1.7762
   51MOL0     H 6713   6.778  10.477   4.820  0.7189 -0.4176  1.1261
   51MOL0     H 6714   7.316  10.491   3.759  0.5396 -1.6368 -0.9593
   51MOL0     H 6715   7.467  10.598   3.591 -1.4534  0.5517  0.2963
   51MOL0     H 6716   8.067  10.656   3.590 -0.6351  2.5329  0.2901
   51MOL0     H 6717   8.208  10.723   3.396  0.9873 -0.8281  0.0913
   51MOL0     H 6718   9.570  10.474   2.286  0.7413 -1.9560 -1.6054
   51MOL0     H 6719   9.829  10.513   2.251  0.7257  0.7039 -1.1346
   51MOL0     H 6720  10.088  10.868   1.990  0.4401  0.1424 -0.0040
   51MOL0     H 6721  10.328  10.944   1.923  2.6675 -1.3982 -0.5499
   51MOL0     H 6722  10.602  10.614   1.804  1.6499  2.7732 -3.2952
   51MOL0     H 6723  10.647  10.653   1.972 -3.0505 -0.9445 -0.9706
   51MOL0     H 6724  10.733  10.810   1.735  0.5225  0.9079  0.2381
   51MOL0     H 6725  10.801  10.819   1.901 -4.2277  2.3096  0.2244
   51MOL0     H 6726  10.854  10.607   1.702 -1.3207 -1.1661  1.6758
   51MOL0     H 6727  10.851  10.558   1.867  2.5945 -1.4702 -0.9419
   51MOL0     H 6728  10.996  10.733   1.919 -1.7320  0.8527 -0.3551
   51MOL0     H 6729  11.065  10.601   1.812  1.3105  1.4741  0.1171
   51MOL0     H 6730  11.134  10.888   1.522  0.1386  0.7192  0.1639
   51MOL0     H 6731  10.438  10.544   1.925  1.4280  1.0314  3.9090
   51MOL0     H 6732  10.211  10.468   2.002  1.0310 -0.1246 -0.5789
   52MOL0     O 6733   1.732   2.174   9.343  0.1474 -0.1908 -0.6813
   52MOL0     C 6734   1.767   2.224   9.233 -1.0471 -0.2551 -0.1676
   52MOL0     O 6735   1.706   2.212   9.110  0.6110  0.4488  0.3281
   52MOL0     C 6736   1.571   2.182   9.118  0.2711 -0.2694  0.3745
   52MOL0     C 6737   1.476   2.232   9.210 -0.7971 -0.3963 -0.1660
   52MOL0     C 6738   1.346   2.195   9.217 -0.1255 -1.1098  0.1875
   52MOL0     C 6739   1.293   2.100   9.129 -0.0930  0.1207  0.4926
   52MOL0     O 6740   1.163   2.062   9.135 -0.0729  0.4819  0.6474
   52MOL0     C 6741   1.059   2.156   9.178 -0.0515 -1.2179 -0.5698
   52MOL0     C 6742   0.955   2.072   9.243 -0.2172 -0.1741 -0.9089
   52MOL0     C 6743   0.822   2.143   9.294  0.3226 -0.3392  0.2737
   52MOL0     C 6744   0.731   2.036   9.356  0.2491  0.0119 -0.3833
   52MOL0     C 6745   0.593   2.087   9.389  0.3040  0.1859  0.1497
   52MOL0     C 6746   0.586   2.170   9.516 -0.0012  0.5254  0.1842
   52MOL0     C 6747   0.566   2.072   9.642 -0.4074 -0.6580 -0.2180
   52MOL0     C 6748   0.574   2.161   9.771  0.1518  0.5488 -0.2093
   52MOL0     N 6749   0.585   2.076   9.892  0.3409 -0.2681 -0.8584
   52MOL0     C 6750   0.518   1.957   9.925  0.3301  0.4896 -0.4604
   52MOL0     C 6751   0.570   1.904  10.045 -0.5272 -0.2442  0.2989
   52MOL0     C 6752   0.529   1.788  10.124 -0.2065 -0.0260 -0.0850
   52MOL0     C 6753   0.421   1.833  10.227  0.6153 -1.2269 -0.8325
   52MOL0     C 6754   0.363   1.717  10.303  0.1063  0.2270 -0.1169
   52MOL0     C 6755   0.243   1.751  10.376  0.3450  0.4714 -0.0145
   52MOL0     O 6756   0.195   1.638  10.448  0.2879 -0.3683  0.1880
   52MOL0     C 6757   0.075   1.641  10.498  0.7034  0.0222 -0.7053
   52MOL0     C 6758   0.026   1.526  10.564  0.1303 -0.1440 -0.6194
   52MOL0     C 6759  -0.087   1.535  10.649  0.4117  0.5046  1.1496
   52MOL0     C 6760  -0.161   1.652  10.643  0.3643  0.0935  0.7323
   52MOL0     C 6761  -0.283   1.664  10.722 -0.6902  0.6206 -0.2098
   52MOL0     O 6762  -0.329   1.547  10.775 -0.0471  0.5899 -0.1180
   52MOL0     C 6763  -0.441   1.559  10.835  0.1781 -0.2885 -0.4581
   52MOL0     C 6764  -0.447   1.634  10.959  0.5548 -0.4530  0.2398
   52MOL0     C 6765  -0.573   1.660  11.013  0.1321  0.0984  0.1485
   52MOL0     C 6766  -0.691   1.589  10.976 -0.0914 -0.1992  1.0192
   52MOL0     O 6767  -0.814   1.623  11.026 -0.7592  0.0088  0.2240
   52MOL0     C 6768  -0.913   1.526  11.050  0.3503 -0.2262 -0.1723
   52MOL0     C 6769  -1.051   1.591  11.025 -0.7800  0.0853 -0.2378
   52MOL0     C 6770  -1.168   1.538  11.107 -0.2680 -0.3280  0.0041
   52MOL0     C 6771  -1.183   1.388  11.114  0.3609  0.5062  0.3517
   52MOL0     C 6772  -1.284   1.346  11.221  0.0419  0.3593 -0.4907
   52MOL0     C 6773  -1.419   1.417  11.227  0.5956 -0.3990  0.6963
   52MOL0     C 6774  -1.491   1.427  11.093 -0.2281  0.6600 -0.2258
   52MOL0     C 6775  -1.641   1.471  11.113 -0.4753 -0.5892 -0.5058
   52MOL0    Cl 6776  -1.730   1.407  10.972  0.6002 -0.1168  0.0129
   52MOL0     C 6777  -0.679   1.494  10.865  0.3991 -0.0146 -0.7388
   52MOL0     C 6778  -0.556   1.491  10.796 -0.8496  0.1717 -0.6343
   52MOL0     O 6779  -0.333   1.783  10.723 -0.5145 -0.2623  0.7905
   52MOL0     C 6780  -0.127   1.758  10.567 -0.2272 -0.7948  0.0913
   52MOL0     C 6781  -0.006   1.759  10.499 -0.0499 -0.2923  0.2845
   52MOL0     N 6782   0.662   2.003  10.080 -0.5335  0.2228 -0.1804
   52MOL0     N 6783   0.662   2.107   9.999  0.1379 -0.4612 -0.1871
   52MOL0     C 6784   1.388   2.038   9.043  0.6342 -0.5265 -0.0886
   52MOL0     C 6785   1.516   2.090   9.032 -0.7465  0.4740 -0.9708
   52MOL0     C 6786   1.912   2.273   9.231  0.2968  0.5279 -0.2082
   52MOL0     C 6787   1.953   2.339   9.118 -0.3001  0.5427 -0.1375
   52MOL0     C 6788   2.080   2.388   9.115 -0.3978  1.2619  0.3651
   52MOL0     C 6789   2.162   2.382   9.232  0.2830 -0.1920  0.6689
   52MOL0     O 6790   2.283   2.453   9.221  0.3769  0.0755  0.0080
   52MOL0     C 6791   2.359   2.468   9.342 -0.0083 -0.5173  0.4489
   52MOL0     C 6792   2.492   2.533   9.311 -0.7412 -0.3547 -0.2344
   52MOL0     C 6793   2.583   2.546   9.433  0.6287  0.0940 -0.0980
   52MOL0     C 6794   2.718   2.500   9.387 -0.4036  0.0734 -0.1153
   52MOL0     C 6795   2.807   2.496   9.509 -0.3839  0.9846 -0.0016
   52MOL0     C 6796   2.866   2.488   9.611 -0.6257  0.8664  0.2330
   52MOL0     C 6797   2.125   2.300   9.337  0.2778 -0.7594  0.5036
   52MOL0     C 6798   2.004   2.238   9.335 -0.9422 -0.4353  0.1313
   52MOL0     H 6799   1.512   2.316   9.268  0.4929 -0.7439 -0.4406
   52MOL0     H 6800   1.286   2.238   9.296 -1.3764 -4.3929  1.1776
   52MOL0     H 6801   1.021   2.220   9.099  1.9194  1.4660  0.5035
   52MOL0     H 6802   1.094   2.222   9.258  0.6666 -1.5838 -0.5739
   52MOL0     H 6803   1.010   2.030   9.328 -0.3495 -0.5418 -1.0039
   52MOL0     H 6804   0.933   1.985   9.181  3.5594 -2.3419  0.4424
   52MOL0     H 6805   0.770   2.184   9.207 -1.0336  0.2999  1.3535
   52MOL0     H 6806   0.835   2.219   9.371 -3.2835 -1.1884  1.9272
   52MOL0     H 6807   0.716   1.953   9.286 -0.0112  0.1474 -0.4910
   52MOL0     H 6808   0.774   1.975   9.435  0.9927  0.0218 -0.7717
   52MOL0     H 6809   0.520   2.005   9.381  1.8980 -1.1281 -1.9328
   52MOL0     H 6810   0.568   2.154   9.306  0.8221  0.2395  0.0355
   52MOL0     H 6811   0.498   2.234   9.502 -2.3413 -2.4516  0.1132
   52MOL0     H 6812   0.679   2.226   9.519  1.1055 -1.0808 -1.9015
   52MOL0     H 6813   0.474   2.013   9.646 -0.1934 -0.9836  0.0358
   52MOL0     H 6814   0.641   1.992   9.648  0.5807  0.0550 -2.1793
   52MOL0     H 6815   0.486   2.225   9.759  0.1736  0.3947 -1.2839
   52MOL0     H 6816   0.665   2.221   9.776  1.7753 -1.8387  0.4056
   52MOL0     H 6817   0.437   1.911   9.868  1.4401 -0.6001 -1.2243
   52MOL0     H 6818   0.619   1.749  10.173 -0.3185  0.9429  0.9340
   52MOL0     H 6819   0.481   1.713  10.061 -0.9658  0.9036 -0.6427
   52MOL0     H 6820   0.346   1.886  10.168  0.1633 -1.3150 -0.3493
   52MOL0     H 6821   0.459   1.905  10.300 -1.6103  0.3792 -1.1615
   52MOL0     H 6822   0.336   1.633  10.238  0.0857  0.2252 -0.1065
   52MOL0     H 6823   0.445   1.682  10.366  1.3339  2.2549 -0.4923
   52MOL0     H 6824   0.162   1.773  10.305 -0.7198 -3.5842 -0.3364
   52MOL0     H 6825   0.259   1.833  10.447  2.1450  0.9255 -0.8841
   52MOL0     H 6826   0.093   1.441  10.558 -3.1514 -3.1173  1.2003
   52MOL0     H 6827  -0.102   1.445  10.708 -0.6471 -0.5837 -0.6885
   52MOL0     H 6828  -0.365   1.680  11.013  0.3116 -0.8485  0.9622
   52MOL0     H 6829  -0.588   1.725  11.099 -0.2864  0.4372 -0.1778
   52MOL0     H 6830  -0.901   1.501  11.156 -2.4617  1.8952  0.7830
   52MOL0     H 6831  -0.904   1.430  10.998 -1.0773 -0.1843 -0.5274
   52MOL0     H 6832  -1.072   1.581  10.918  0.9464  1.7228 -0.7733
   52MOL0     H 6833  -1.043   1.695  11.056 -1.0965  0.0047  0.1191
   52MOL0     H 6834  -1.256   1.588  11.066 -0.7423 -1.3615 -0.2509
   52MOL0     H 6835  -1.153   1.569  11.211 -0.7090  0.2712 -0.1054
   52MOL0     H 6836  -1.209   1.348  11.016 -0.8679  0.5368  0.6465
   52MOL0     H 6837  -1.086   1.343  11.137  0.2811  1.5809  3.1468
   52MOL0     H 6838  -1.244   1.367  11.321  1.6914  2.0812 -1.4569
   52MOL0     H 6839  -1.297   1.238  11.211  2.1614 -0.3664  2.9010
   52MOL0     H 6840  -1.409   1.519  11.266 -1.1522 -0.5943  1.7492
   52MOL0     H 6841  -1.489   1.365  11.293  0.1000  1.7680  1.9804
   52MOL0     H 6842  -1.452   1.482  11.006 -0.6040  2.2464  0.5761
   52MOL0     H 6843  -1.490   1.321  11.067  2.3085  0.6987 -0.5041
   52MOL0     H 6844  -1.646   1.580  11.128 -1.1654 -0.8794  1.8785
   52MOL0     H 6845  -1.686   1.424  11.201  1.5943 -0.8084  0.5004
   52MOL0     H 6846  -0.759   1.439  10.816  0.3004  2.0048 -3.0012
   52MOL0     H 6847  -0.547   1.420  10.714  1.5183  0.1187 -0.3788
   52MOL0     H 6848  -0.189   1.847  10.562  1.2561  0.2684  0.1691
   52MOL0     H 6849   0.015   1.844  10.436  1.7771 -0.5825  0.4366
   52MOL0     H 6850   1.350   1.971   8.966  0.4671  1.0518 -1.4642
   52MOL0     H 6851   1.583   2.051   8.956 -2.1349  1.1793 -2.6195
   52MOL0     H 6852   1.878   2.359   9.042  1.3136 -2.3628 -2.7329
   52MOL0     H 6853   2.121   2.439   9.029  0.4958  0.7782  0.4988
   52MOL0     H 6854   2.388   2.372   9.386  2.0414 -0.0124  0.2957
   52MOL0     H 6855   2.297   2.524   9.413 -0.2022  0.6926 -0.6242
   52MOL0     H 6856   2.541   2.475   9.232 -1.2875 -0.6834 -0.3352
   52MOL0     H 6857   2.486   2.629   9.258  2.9604  0.3120  0.2578
   52MOL0     H 6858   2.556   2.474   9.510 -0.8660 -0.5515 -1.1843
   52MOL0     H 6859   2.597   2.645   9.479  1.9852  0.1087 -0.4958
   52MOL0     H 6860   2.727   2.401   9.341  2.3035  0.9976 -1.7526
   52MOL0     H 6861   2.755   2.571   9.313  0.2620 -0.3719 -0.2237
   52MOL0     H 6862   2.916   2.476   9.705  0.8803 -2.3389 -0.8241
   52MOL0     H 6863   2.192   2.268   9.416 -0.3341 -1.7942  0.6250
   52MOL0     H 6864   1.971   2.172   9.415  1.2595 -1.4344  0.2986
   53MOL0     O 6865   9.752   7.722   3.440 -0.3752 -0.6206 -0.1788
   53MOL0     C 6866   9.829   7.648   3.379  0.6905 -0.3431 -0.9735
   53MOL0     O 6867   9.799   7.515   3.349 -0.1997  0.0460  0.6346
   53MOL0     C 6868   9.678   7.469   3.352  0.1536 -0.4248  0.7820
   53MOL0     C 6869   9.642   7.358   3.430 -0.7582  0.1876 -0.0549
   53MOL0     C 6870   9.512   7.310   3.427 -0.6321  0.1010  0.4306
   53MOL0     C 6871   9.416   7.366   3.353 -0.7129  0.0847  0.5026
   53MOL0     O 6872   9.286   7.334   3.342  0.1848  0.6081 -0.1233
   53MOL0     C 6873   9.245   7.238   3.445 -0.3476  0.0027  0.2575
   53MOL0     C 6874   9.091   7.214   3.429 -0.2920  0.3588  0.0166
   53MOL0     C 6875   9.049   7.140   3.552 -0.7161 -0.6349 -0.6131
   53MOL0     C 6876   8.903   7.119   3.523  0.3624 -0.0960 -1.0251
   53MOL0     C 6877   8.844   7.041   3.647 -0.5815  0.3608  0.3191
   53MOL0     C 6878   8.888   6.891   3.635  0.0260 -0.1460 -0.1887
   53MOL0     C 6879   8.825   6.804   3.742  0.9715 -0.5574 -0.5264
   53MOL0     C 6880   8.822   6.658   3.707 -0.5598  0.6728  0.1290
   53MOL0     N 6881   8.962   6.608   3.709 -0.8476 -0.2708  0.2430
   53MOL0     C 6882   9.062   6.615   3.616 -0.0886  0.2851  0.3920
   53MOL0     C 6883   9.179   6.572   3.671 -0.3212 -0.2618  0.0187
   53MOL0     C 6884   9.320   6.555   3.607  0.2781 -0.4957  0.3792
   53MOL0     C 6885   9.427   6.596   3.700  0.4772  0.5770 -0.4048
   53MOL0     C 6886   9.560   6.514   3.672 -0.6248 -0.2534  0.6628
   53MOL0     C 6887   9.668   6.540   3.776  0.4389 -0.1913  0.1291
   53MOL0     O 6888   9.758   6.433   3.792  0.1029  0.0554 -0.2162
   53MOL0     C 6889   9.890   6.434   3.758 -0.0548 -0.8621 -0.1173
   53MOL0     C 6890   9.940   6.521   3.661  0.1509 -0.4462 -0.1734
   53MOL0     C 6891  10.077   6.547   3.656  0.3119 -0.1948  0.2091
   53MOL0     C 6892  10.168   6.480   3.735  0.6964  0.7573 -1.9097
   53MOL0     C 6893  10.305   6.515   3.714 -0.3278 -0.6950  0.7810
   53MOL0     O 6894  10.397   6.449   3.780 -0.4764 -0.4396  0.3216
   53MOL0     C 6895  10.535   6.444   3.767  0.3682 -0.0399 -0.7867
   53MOL0     C 6896  10.595   6.348   3.844  0.2974  0.1608 -0.1678
   53MOL0     C 6897  10.731   6.333   3.824  0.4836  0.1869 -0.9491
   53MOL0     C 6898  10.808   6.413   3.732 -0.0405  0.3297  0.0289
   53MOL0     O 6899  10.940   6.378   3.713 -0.3086 -0.7239  0.0291
   53MOL0     C 6900  11.008   6.441   3.602 -0.0928  0.5452  0.4081
   53MOL0     C 6901  11.116   6.343   3.555  0.1675  0.5643 -0.3496
   53MOL0     C 6902  11.220   6.319   3.670  0.3356 -0.4580  0.5157
   53MOL0     C 6903  11.365   6.301   3.614 -0.5427  0.0100  0.2492
   53MOL0     C 6904  11.442   6.431   3.605  0.2125 -0.5129  0.1989
   53MOL0     C 6905  11.548   6.434   3.496  0.3069 -0.4343  0.7260
   53MOL0     C 6906  11.667   6.343   3.514 -0.3242 -0.1332 -0.3807
   53MOL0     C 6907  11.767   6.346   3.399 -1.0234 -0.8328  0.2793
   53MOL0    Cl 6908  11.870   6.495   3.428 -0.2239 -0.2898  0.5048
   53MOL0     C 6909  10.740   6.511   3.663 -0.6896  0.3224  0.3438
   53MOL0     C 6910  10.607   6.524   3.688  0.5803  0.0966  0.0000
   53MOL0     O 6911  10.332   6.608   3.635 -0.2602  0.1215 -0.6611
   53MOL0     C 6912  10.121   6.379   3.824  0.2000  0.7106  0.0621
   53MOL0     C 6913   9.978   6.350   3.833 -0.4416 -0.9313 -0.0352
   53MOL0     N 6914   9.139   6.536   3.799  0.1837 -0.6995  0.1729
   53MOL0     N 6915   9.012   6.551   3.816  0.0412  0.4779  0.6677
   53MOL0     C 6916   9.451   7.476   3.271 -0.3608 -0.0136  0.2013
   53MOL0     C 6917   9.580   7.523   3.266 -0.0915  0.0851  0.0358
   53MOL0     C 6918   9.957   7.701   3.335  1.1774  0.1637  0.3200
   53MOL0     C 6919   9.981   7.839   3.312  0.4542 -0.3323 -0.6829
   53MOL0     C 6920  10.106   7.879   3.252  0.2282 -0.3089 -0.2202
   53MOL0     C 6921  10.207   7.789   3.223  0.3665  0.3368  0.2397
   53MOL0     O 6922  10.328   7.837   3.187 -0.7700  0.1778 -0.2152
   53MOL0     C 6923  10.367   7.793   3.052  0.7472 -0.4946  0.0287
   53MOL0     C 6924  10.332   7.897   2.959 -0.2990  0.1025  0.3531
   53MOL0     C 6925  10.366   8.042   2.983  0.0189  0.4253 -0.6215
   53MOL0     C 6926  10.333   8.134   2.865  0.5469 -0.7231  1.0690
   53MOL0     C 6927  10.181   8.128   2.845  0.2189 -0.2784 -0.3659
   53MOL0     C 6928  10.061   8.105   2.834 -0.0650  0.1093 -0.2828
   53MOL0     C 6929  10.189   7.652   3.252  0.6279  0.3214 -0.6376
   53MOL0     C 6930  10.064   7.613   3.306 -0.5714 -0.4801  0.7204
   53MOL0     H 6931   9.709   7.315   3.503  0.4429  0.0378 -1.2084
   53MOL0     H 6932   9.486   7.228   3.494  1.4940  0.0877  1.3224
   53MOL0     H 6933   9.285   7.264   3.543  3.1654 -0.0159 -1.0331
   53MOL0     H 6934   9.290   7.141   3.426  3.6689  1.2385  2.3348
   53MOL0     H 6935   9.080   7.160   3.334  0.5932  0.4878 -0.1741
   53MOL0     H 6936   9.026   7.302   3.426 -1.9816 -0.8446 -1.8345
   53MOL0     H 6937   9.062   7.197   3.644 -0.7967 -0.9465 -0.4057
   53MOL0     H 6938   9.106   7.046   3.559 -0.0322 -0.1013  2.0751
   53MOL0     H 6939   8.853   7.216   3.517  1.1504  0.3124 -1.0088
   53MOL0     H 6940   8.878   7.060   3.433 -1.2042  0.4809 -1.0044
   53MOL0     H 6941   8.735   7.045   3.640 -0.6452  0.3851  1.1468
   53MOL0     H 6942   8.878   7.084   3.742  1.8114 -1.9333  0.6166
   53MOL0     H 6943   8.996   6.883   3.644  0.0864  0.2290 -0.5269
   53MOL0     H 6944   8.849   6.854   3.539  3.9022 -3.6022 -0.6775
   53MOL0     H 6945   8.870   6.818   3.841 -2.0414  0.5159  0.8192
   53MOL0     H 6946   8.721   6.826   3.767  1.6848  1.5606  0.8076
   53MOL0     H 6947   8.775   6.629   3.613 -0.8586  0.7666  0.2486
   53MOL0     H 6948   8.767   6.600   3.782  1.5710  0.2415  1.4532
   53MOL0     H 6949   9.057   6.638   3.510 -1.0072 -1.0421  0.1095
   53MOL0     H 6950   9.325   6.628   3.526  0.1672  1.1228  1.7704
   53MOL0     H 6951   9.325   6.448   3.583 -1.1558 -1.2356  3.0360
   53MOL0     H 6952   9.413   6.566   3.805  1.4175 -0.9207 -0.6714
   53MOL0     H 6953   9.428   6.705   3.693 -1.8928  0.8634  2.0516
   53MOL0     H 6954   9.548   6.406   3.681  4.6656 -1.0746  1.1358
   53MOL0     H 6955   9.590   6.545   3.571 -2.9537 -1.4302 -0.4582
   53MOL0     H 6956   9.614   6.550   3.871 -1.5734 -0.1413 -0.9759
   53MOL0     H 6957   9.711   6.639   3.756  0.5242 -0.3897 -0.6920
   53MOL0     H 6958   9.868   6.574   3.600 -0.1213  0.9058  1.2572
   53MOL0     H 6959  10.110   6.626   3.589 -2.1314  0.9063  0.1704
   53MOL0     H 6960  10.541   6.280   3.909  2.6159 -2.2806 -0.6204
   53MOL0     H 6961  10.780   6.268   3.896  0.1160  0.8204 -0.1222
   53MOL0     H 6962  11.054   6.533   3.641 -0.5318  0.4586  1.1603
   53MOL0     H 6963  10.945   6.458   3.515 -1.6343  0.2192  1.4173
   53MOL0     H 6964  11.167   6.386   3.469  1.8296 -1.6124 -0.5508
   53MOL0     H 6965  11.069   6.249   3.524 -3.4279  2.5220 -1.4389
   53MOL0     H 6966  11.192   6.233   3.731 -2.4287  1.5074  2.2723
   53MOL0     H 6967  11.219   6.401   3.743 -1.6147  1.5266 -1.5731
   53MOL0     H 6968  11.423   6.234   3.678 -0.5230 -0.7281 -0.5234
   53MOL0     H 6969  11.355   6.248   3.518 -0.6810 -1.1645  0.8908
   53MOL0     H 6970  11.492   6.443   3.701  1.6294 -2.1972 -0.2765
   53MOL0     H 6971  11.376   6.516   3.587  3.6404  2.2280 -0.5716
   53MOL0     H 6972  11.579   6.539   3.492  0.1863 -0.4171  0.2101
   53MOL0     H 6973  11.509   6.394   3.403 -0.5071 -0.2727  0.9933
   53MOL0     H 6974  11.721   6.383   3.601 -1.7796  2.8014 -0.7022
   53MOL0     H 6975  11.636   6.241   3.534  0.6868 -0.1616  1.3446
   53MOL0     H 6976  11.723   6.357   3.299  0.9152 -1.7257 -0.7407
   53MOL0     H 6977  11.834   6.261   3.388  1.6199  1.3453 -2.3222
   53MOL0     H 6978  10.789   6.576   3.592 -3.4871  2.0745 -0.1170
   53MOL0     H 6979  10.561   6.595   3.620  2.5188  0.4924 -0.9548
   53MOL0     H 6980  10.185   6.328   3.895 -0.3969  0.3778  0.3665
   53MOL0     H 6981   9.948   6.284   3.914 -0.6825 -0.1112  0.5568
   53MOL0     H 6982   9.381   7.533   3.212  1.2648  0.9654 -0.8675
   53MOL0     H 6983   9.615   7.601   3.198  2.5615 -1.2424 -0.2338
   53MOL0     H 6984   9.907   7.913   3.340  1.6944  0.9523 -0.6740
   53MOL0     H 6985  10.113   7.985   3.228  0.8332 -0.5112 -0.9622
   53MOL0     H 6986  10.317   7.699   3.026 -0.8145  0.6046 -1.1175
   53MOL0     H 6987  10.477   7.793   3.050  0.9579  4.4338 -0.2386
   53MOL0     H 6988  10.376   7.865   2.864  2.7199  2.0738  0.9442
   53MOL0     H 6989  10.224   7.889   2.939 -0.1243 -1.1070 -0.2543
   53MOL0     H 6990  10.472   8.056   3.005  0.1891  1.3210 -1.9172
   53MOL0     H 6991  10.312   8.087   3.068  0.3952 -0.2378 -0.0197
   53MOL0     H 6992  10.363   8.235   2.893 -1.1351  0.2227 -0.3679
   53MOL0     H 6993  10.390   8.104   2.776 -0.5066 -0.1382  0.1752
   53MOL0     H 6994   9.958   8.081   2.821 -0.3831  1.0317  0.4427
   53MOL0     H 6995  10.262   7.574   3.235 -0.3365 -0.5539 -0.8764
   53MOL0     H 6996  10.058   7.505   3.323  0.9409 -0.3547  2.3071
   54MOL0     O 6997   2.353   7.061   5.519  0.1330 -0.3999  0.3981
   54MOL0     C 6998   2.455   7.051   5.454 -0.1143  0.9175 -0.6209
   54MOL0     O 6999   2.470   7.039   5.321  0.1224  0.5088  0.2102
   54MOL0     C 7000   2.351   7.053   5.252  0.0356  1.1022 -0.8385
   54MOL0     C 7001   2.268   7.171   5.260 -0.1378  0.3372  0.0808
   54MOL0     C 7002   2.146   7.175   5.199  0.1063  0.1828  0.3974
   54MOL0     C 7003   2.102   7.075   5.118 -0.2660  0.9076  0.2755
   54MOL0     O 7004   1.974   7.079   5.059 -0.4958 -0.1300 -0.2478
   54MOL0     C 7005   1.871   7.179   5.103 -0.1577  0.3928  0.3231
   54MOL0     C 7006   1.737   7.147   5.035 -0.1429 -0.3051 -0.1733
   54MOL0     C 7007   1.726   7.205   4.894 -0.5295 -0.1865  0.1298
   54MOL0     C 7008   1.602   7.148   4.827  0.2955  0.0036 -0.2016
   54MOL0     C 7009   1.590   7.179   4.678 -0.0706 -0.0583 -0.0505
   54MOL0     C 7010   1.497   7.081   4.599 -0.3547 -0.2227 -0.6885
   54MOL0     C 7011   1.457   7.147   4.462  0.6700 -1.1863  0.0145
   54MOL0     C 7012   1.550   7.099   4.358  0.0365  0.5247  0.1596
   54MOL0     N 7013   1.678   7.173   4.371  0.0089 -0.3232  0.1389
   54MOL0     C 7014   1.809   7.120   4.356  1.1548 -0.1640 -0.1303
   54MOL0     C 7015   1.892   7.221   4.361 -0.1862 -0.5556  0.1441
   54MOL0     C 7016   2.036   7.192   4.329  0.3974  0.5682 -0.1499
   54MOL0     C 7017   2.089   7.272   4.203 -0.1121 -0.4529  0.0761
   54MOL0     C 7018   2.125   7.414   4.246  0.2575 -0.4206 -0.6699
   54MOL0     C 7019   2.193   7.499   4.131  0.0604  0.2624  0.3686
   54MOL0     O 7020   2.313   7.431   4.107  0.0100  0.1857 -0.1557
   54MOL0     C 7021   2.421   7.461   4.186  0.0563 -0.0564  0.4787
   54MOL0     C 7022   2.546   7.404   4.146  0.2433  0.3038 -0.3371
   54MOL0     C 7023   2.665   7.421   4.219  0.2079 -0.2649  0.5679
   54MOL0     C 7024   2.663   7.512   4.334  0.1384 -0.6334  0.5898
   54MOL0     C 7025   2.791   7.543   4.405 -0.2887  0.4808 -0.4651
   54MOL0     O 7026   2.906   7.484   4.351 -0.4195 -0.4075  0.0138
   54MOL0     C 7027   3.022   7.494   4.424 -1.0281  1.0092  0.4028
   54MOL0     C 7028   3.090   7.381   4.465 -0.3545  0.3465  0.0370
   54MOL0     C 7029   3.206   7.389   4.541 -0.6093 -0.3790  0.3371
   54MOL0     C 7030   3.261   7.516   4.586 -0.5780 -0.1461 -0.0818
   54MOL0     O 7031   3.386   7.506   4.654 -0.2125 -0.0816 -0.0019
   54MOL0     C 7032   3.456   7.632   4.681  0.4560  0.1041  0.2219
   54MOL0     C 7033   3.578   7.589   4.767 -0.3739  0.5342 -0.3572
   54MOL0     C 7034   3.670   7.707   4.776  0.0549  0.5831 -0.6611
   54MOL0     C 7035   3.804   7.669   4.843  0.3580  0.0738  0.0624
   54MOL0     C 7036   3.896   7.791   4.842 -0.1262 -0.1306  0.8046
   54MOL0     C 7037   4.026   7.762   4.913 -0.2787  0.9519  0.3271
   54MOL0     C 7038   4.121   7.874   4.923  0.0325 -1.0107  0.6188
   54MOL0     C 7039   4.073   7.979   5.024 -0.7698  0.0658  0.0077
   54MOL0    Cl 7040   4.116   7.921   5.180 -0.5935  0.0746 -0.4527
   54MOL0     C 7041   3.195   7.631   4.532  0.7007 -0.5401  0.0560
   54MOL0     C 7042   3.081   7.619   4.449 -0.1617  0.5790 -0.6862
   54MOL0     O 7043   2.798   7.618   4.497 -0.0291 -0.2948  0.0751
   54MOL0     C 7044   2.539   7.569   4.368  0.0076  0.2795  0.1766
   54MOL0     C 7045   2.424   7.547   4.290  0.0557 -0.2301  0.2489
   54MOL0     N 7046   1.818   7.337   4.382  0.9660  0.8236  0.8210
   54MOL0     N 7047   1.689   7.311   4.375 -0.9532 -0.4636  0.1710
   54MOL0     C 7048   2.180   6.956   5.112 -0.1099 -0.8704  0.4964
   54MOL0     C 7049   2.304   6.945   5.173  0.0608 -1.1294 -0.5601
   54MOL0     C 7050   2.580   7.050   5.528  0.3876 -0.2232  0.9966
   54MOL0     C 7051   2.706   7.032   5.467  0.9004 -0.7854 -0.9857
   54MOL0     C 7052   2.822   7.037   5.544 -0.2744 -1.0878 -0.2694
   54MOL0     C 7053   2.819   7.053   5.686  0.2691 -0.4711 -0.6707
   54MOL0     O 7054   2.919   7.071   5.769 -0.2013 -0.3968 -0.7022
   54MOL0     C 7055   3.045   7.098   5.714  0.2749 -1.3225  1.6571
   54MOL0     C 7056   3.057   7.239   5.644  0.0092 -0.3627 -0.1392
   54MOL0     C 7057   3.202   7.247   5.578 -0.1979  0.3649 -0.7915
   54MOL0     C 7058   3.247   7.135   5.475 -0.2789  0.1886  0.2588
   54MOL0     C 7059   3.321   7.032   5.560  1.0256 -1.4392  0.2983
   54MOL0     C 7060   3.375   6.957   5.631 -0.0816  0.4662  0.0142
   54MOL0     C 7061   2.689   7.070   5.739 -0.1663 -0.8970 -0.7931
   54MOL0     C 7062   2.573   7.068   5.665 -0.7030  0.6455 -0.1818
   54MOL0     H 7063   2.305   7.261   5.308 -0.4244 -0.4276  1.8135
   54MOL0     H 7064   2.091   7.267   5.217 -0.7031 -0.2507  0.1982
   54MOL0     H 7065   1.911   7.278   5.079 -2.5797  1.3393 -0.0855
   54MOL0     H 7066   1.862   7.154   5.209  0.3789  0.5547  0.4087
   54MOL0     H 7067   1.661   7.187   5.103 -1.0216 -2.0085 -0.1045
   54MOL0     H 7068   1.721   7.039   5.030  2.7891 -0.9300  1.6584
   54MOL0     H 7069   1.812   7.166   4.837 -1.3962  0.0534 -1.3999
   54MOL0     H 7070   1.725   7.314   4.892  1.8090 -0.1270 -1.3431
   54MOL0     H 7071   1.618   7.040   4.836  0.7501  0.2248  2.2418
   54MOL0     H 7072   1.512   7.170   4.885 -0.1833 -0.0050 -0.9217
   54MOL0     H 7073   1.691   7.184   4.636 -0.3627 -0.1069 -0.7852
   54MOL0     H 7074   1.543   7.278   4.678 -4.2315 -1.8253  1.1510
   54MOL0     H 7075   1.408   7.078   4.662  0.8065 -1.7236  0.9599
   54MOL0     H 7076   1.547   6.983   4.597  0.4221  0.1627 -0.3420
   54MOL0     H 7077   1.358   7.116   4.427  0.3575 -0.5236  0.2982
   54MOL0     H 7078   1.457   7.257   4.458  1.2152 -1.2088 -0.7621
   54MOL0     H 7079   1.508   7.113   4.259  0.3935 -2.0613 -0.4256
   54MOL0     H 7080   1.566   6.991   4.366 -0.0760  0.3672 -1.5444
   54MOL0     H 7081   1.826   7.015   4.335  1.4911 -0.4078  1.2369
   54MOL0     H 7082   2.038   7.083   4.313 -1.6927  0.3958  0.4528
   54MOL0     H 7083   2.104   7.211   4.412  1.5148  2.0047 -1.3606
   54MOL0     H 7084   2.019   7.269   4.120  1.6031  1.9945 -1.5909
   54MOL0     H 7085   2.181   7.217   4.178 -0.0761 -1.3015  1.9049
   54MOL0     H 7086   2.032   7.468   4.268 -0.9076 -2.6452  0.1264
   54MOL0     H 7087   2.187   7.405   4.336  0.8428 -1.7738 -1.1968
   54MOL0     H 7088   2.204   7.604   4.159  2.0888  0.3216 -0.4818
   54MOL0     H 7089   2.127   7.486   4.044  1.9306  1.6145 -1.3555
   54MOL0     H 7090   2.534   7.350   4.053 -3.0724 -2.0351  1.2463
   54MOL0     H 7091   2.752   7.378   4.172  0.5662  1.4300 -0.4220
   54MOL0     H 7092   3.045   7.285   4.441 -0.3461  0.6623 -1.3121
   54MOL0     H 7093   3.266   7.300   4.561  2.1443  0.8800 -1.6471
   54MOL0     H 7094   3.397   7.706   4.737  1.9030  1.3325  0.1814
   54MOL0     H 7095   3.477   7.683   4.587  1.4383  2.5330  1.6471
   54MOL0     H 7096   3.632   7.508   4.716  1.5767  1.0766  0.7424
   54MOL0     H 7097   3.548   7.554   4.866 -1.0281 -0.5369 -0.9064
   54MOL0     H 7098   3.610   7.780   4.831 -0.9795  0.4984 -1.6450
   54MOL0     H 7099   3.681   7.742   4.673 -1.4875 -2.0779 -1.8225
   54MOL0     H 7100   3.792   7.634   4.946  0.0634  2.1499  0.7866
   54MOL0     H 7101   3.846   7.593   4.778 -2.0439 -2.1357  0.9358
   54MOL0     H 7102   3.834   7.872   4.882 -0.1632  0.3265 -0.1349
   54MOL0     H 7103   3.909   7.819   4.737  2.3757  1.2531  1.3994
   54MOL0     H 7104   4.080   7.687   4.854 -0.9641 -1.0542  2.1020
   54MOL0     H 7105   4.003   7.722   5.012  1.3359 -0.4073  0.2067
   54MOL0     H 7106   4.223   7.837   4.939  1.5682  1.7889 -1.6730
   54MOL0     H 7107   4.131   7.920   4.824  1.5860 -0.0591  1.1783
   54MOL0     H 7108   3.964   7.994   5.018 -0.3870  3.4464 -0.7353
   54MOL0     H 7109   4.118   8.076   4.999  1.0460 -0.6406  0.4394
   54MOL0     H 7110   3.224   7.730   4.566  1.1505 -0.2454 -1.1234
   54MOL0     H 7111   3.031   7.711   4.419 -0.8125  0.5811  0.3448
   54MOL0     H 7112   2.528   7.627   4.459 -1.2772  2.1445 -1.0919
   54MOL0     H 7113   2.333   7.595   4.323 -0.1809  0.0963 -0.8519
   54MOL0     H 7114   2.138   6.872   5.057  1.7537 -1.6055  0.0975
   54MOL0     H 7115   2.360   6.852   5.162  0.0762 -1.2474  0.4315
   54MOL0     H 7116   2.721   7.003   5.363  2.6954 -0.1098 -0.9539
   54MOL0     H 7117   2.915   7.021   5.491 -0.4713 -0.0893 -0.9350
   54MOL0     H 7118   3.074   7.025   5.638  2.1214  2.0583 -1.1990
   54MOL0     H 7119   3.118   7.078   5.793 -0.6103 -3.7969  1.9274
   54MOL0     H 7120   2.978   7.247   5.569 -0.4762 -0.3876  0.3573
   54MOL0     H 7121   3.046   7.330   5.704  2.9588 -0.1532  0.2469
   54MOL0     H 7122   3.274   7.266   5.658 -1.8293 -1.1357  1.1667
   54MOL0     H 7123   3.212   7.334   5.512 -1.1443 -1.0799 -2.9490
   54MOL0     H 7124   3.171   7.080   5.418 -0.1191  1.7929 -1.5970
   54MOL0     H 7125   3.313   7.182   5.402 -0.3978  1.7618  1.1240
   54MOL0     H 7126   3.419   6.879   5.690 -0.5412 -0.4839 -0.8732
   54MOL0     H 7127   2.686   7.096   5.844 -2.7373  1.1436 -1.2829
   54MOL0     H 7128   2.482   7.099   5.714  0.3069  1.8863  1.0186
   55MOL0     O 7129   5.122   3.022   1.735 -0.1335  0.1493 -1.6563
   55MOL0     C 7130   5.211   2.931   1.742  0.1419 -0.2395 -0.0256
   55MOL0     O 7131   5.189   2.800   1.718  0.3296 -0.2415 -0.1511
   55MOL0     C 7132   5.062   2.747   1.742  0.6367  0.1100 -0.2853
   55MOL0     C 7133   4.999   2.753   1.865  0.4286 -0.5478 -0.6494
   55MOL0     C 7134   4.868   2.708   1.880 -0.1010 -1.0657 -0.4716
   55MOL0     C 7135   4.801   2.651   1.772  0.5474 -0.7104  0.5181
   55MOL0     O 7136   4.672   2.615   1.799 -0.2017  0.3977  0.2003
   55MOL0     C 7137   4.620   2.514   1.717  0.4092 -0.4384 -0.4066
   55MOL0     C 7138   4.494   2.467   1.777 -0.8723 -0.5187 -0.0833
   55MOL0     C 7139   4.405   2.403   1.671  0.7605 -0.0017  0.1002
   55MOL0     C 7140   4.265   2.368   1.723 -0.7887 -0.3333 -0.6189
   55MOL0     C 7141   4.172   2.317   1.617 -0.1018 -0.6664  0.6450
   55MOL0     C 7142   4.060   2.248   1.698 -0.5569 -0.4899  0.2980
   55MOL0     C 7143   3.946   2.202   1.608  0.1953 -0.5069 -0.3844
   55MOL0     C 7144   3.834   2.131   1.693 -0.3922  0.0058 -0.0662
   55MOL0     N 7145   3.729   2.071   1.614  0.4628  0.2999 -0.3914
   55MOL0     C 7146   3.607   2.029   1.655 -0.1072  0.4570 -0.3194
   55MOL0     C 7147   3.563   1.961   1.546  0.1386 -0.5446 -0.0112
   55MOL0     C 7148   3.422   1.907   1.534  0.3995 -0.3713  0.5671
   55MOL0     C 7149   3.324   2.021   1.488 -0.2090  0.3093 -0.6291
   55MOL0     C 7150   3.349   2.077   1.352 -1.3644  0.0418  0.0557
   55MOL0     C 7151   3.237   2.146   1.280 -0.0127  0.6220 -0.0442
   55MOL0     O 7152   3.135   2.046   1.251 -0.3879 -0.2368  0.6325
   55MOL0     C 7153   3.022   2.100   1.205  0.1560 -0.1957 -0.3398
   55MOL0     C 7154   3.022   2.192   1.097 -0.0544  0.2252 -0.9811
   55MOL0     C 7155   2.892   2.240   1.058  0.2808 -0.4509  0.3391
   55MOL0     C 7156   2.779   2.184   1.121  0.6867 -0.4089  0.6404
   55MOL0     C 7157   2.652   2.221   1.056  0.9027 -0.4490  0.2306
   55MOL0     O 7158   2.645   2.352   1.008  0.9971  0.0908  0.0787
   55MOL0     C 7159   2.537   2.391   0.941  0.3354 -0.9136  0.7753
   55MOL0     C 7160   2.543   2.413   0.800 -0.2268  0.4164  0.5544
   55MOL0     C 7161   2.432   2.441   0.725  0.2597 -0.3922  0.8189
   55MOL0     C 7162   2.303   2.445   0.779  0.4123 -0.1529 -0.5875
   55MOL0     O 7163   2.179   2.474   0.724 -0.1170  0.0202 -0.4700
   55MOL0     C 7164   2.168   2.431   0.585 -0.1451 -0.1312 -0.2842
   55MOL0     C 7165   2.024   2.409   0.548 -0.4603  0.7384  0.4972
   55MOL0     C 7166   1.951   2.546   0.527  0.3495 -0.1309 -0.2891
   55MOL0     C 7167   1.800   2.524   0.488  0.7785 -0.2851 -0.6303
   55MOL0     C 7168   1.793   2.466   0.345 -0.5248  0.0829  0.1121
   55MOL0     C 7169   1.651   2.509   0.291 -0.0053  0.8706 -1.0055
   55MOL0     C 7170   1.654   2.655   0.237  0.4549  0.5349  0.0892
   55MOL0     C 7171   1.526   2.717   0.193  0.1903  0.5703 -0.1402
   55MOL0    Cl 7172   1.554   2.890   0.185  0.4139  0.6721 -0.1486
   55MOL0     C 7173   2.297   2.416   0.922  0.5628 -0.7297  0.1154
   55MOL0     C 7174   2.412   2.406   1.004  0.9147  0.0458 -0.2304
   55MOL0     O 7175   2.561   2.136   1.044  0.0085  0.0523  0.2660
   55MOL0     C 7176   2.780   2.091   1.226  0.4387 -0.1909 -0.0976
   55MOL0     C 7177   2.906   2.051   1.272  0.0820  0.4429 -0.2683
   55MOL0     N 7178   3.654   1.978   1.445  0.4703  0.3620 -0.6268
   55MOL0     N 7179   3.755   2.035   1.487  0.6500  0.5291 -0.6681
   55MOL0     C 7180   4.863   2.646   1.649 -0.5572 -0.6194  0.0401
   55MOL0     C 7181   4.990   2.691   1.639  0.4438 -0.4657 -0.3671
   55MOL0     C 7182   5.347   2.964   1.783 -0.3055 -0.7288  0.2685
   55MOL0     C 7183   5.386   3.102   1.793  0.1560  0.1999  0.3582
   55MOL0     C 7184   5.508   3.144   1.836 -0.0780  0.5282  0.9146
   55MOL0     C 7185   5.603   3.048   1.855 -0.4722  1.0474  1.2368
   55MOL0     O 7186   5.728   3.091   1.893  0.8521  0.4346 -0.2375
   55MOL0     C 7187   5.799   3.150   1.778  0.4090 -0.6840 -0.2112
   55MOL0     C 7188   5.884   3.045   1.705 -0.1584 -0.1172  0.1542
   55MOL0     C 7189   5.956   2.950   1.801  0.6205 -0.0986 -0.4496
   55MOL0     C 7190   6.009   2.834   1.724  0.7407  0.3776  0.0339
   55MOL0     C 7191   5.915   2.721   1.711 -0.3138  0.3999 -0.2169
   55MOL0     C 7192   5.848   2.616   1.698 -0.0280 -0.4906  0.5430
   55MOL0     C 7193   5.579   2.909   1.846  0.5995  0.6072 -0.2403
   55MOL0     C 7194   5.446   2.866   1.816 -0.7503  0.3456  0.7234
   55MOL0     H 7195   5.049   2.812   1.942  1.0205  0.8608 -2.0523
   55MOL0     H 7196   4.811   2.717   1.972 -0.6713 -3.8744 -0.4523
   55MOL0     H 7197   4.679   2.425   1.699 -3.9536 -3.4252 -1.6190
   55MOL0     H 7198   4.591   2.554   1.619 -0.5694 -1.0798 -0.3992
   55MOL0     H 7199   4.435   2.551   1.815 -0.1387 -0.0122 -0.0467
   55MOL0     H 7200   4.523   2.395   1.854 -1.3209 -1.0277 -0.3829
   55MOL0     H 7201   4.450   2.312   1.630 -1.1897 -2.0244  2.1533
   55MOL0     H 7202   4.397   2.480   1.594  2.1687 -0.7884 -0.8512
   55MOL0     H 7203   4.298   2.289   1.790  0.7597 -0.1675 -1.1637
   55MOL0     H 7204   4.220   2.456   1.770  1.2284  1.8598 -2.4890
   55MOL0     H 7205   4.219   2.260   1.536 -1.3055  1.1565 -1.4570
   55MOL0     H 7206   4.131   2.407   1.571  2.7195  0.9203  0.9812
   55MOL0     H 7207   4.022   2.332   1.758  1.6055  2.0863 -1.6714
   55MOL0     H 7208   4.104   2.163   1.749 -2.8764 -0.8657  1.8411
   55MOL0     H 7209   3.901   2.293   1.568  0.4159 -0.4656 -0.5386
   55MOL0     H 7210   3.979   2.147   1.519 -3.4640 -1.6721 -1.1956
   55MOL0     H 7211   3.784   2.196   1.765 -0.7215 -0.7397  0.3917
   55MOL0     H 7212   3.879   2.050   1.751 -1.8943  0.7899  2.3115
   55MOL0     H 7213   3.560   2.040   1.752  0.4766 -0.7920  0.1251
   55MOL0     H 7214   3.384   1.870   1.630 -0.3774 -0.3387  0.2726
   55MOL0     H 7215   3.427   1.835   1.452 -1.5746  1.0265 -0.8612
   55MOL0     H 7216   3.326   2.104   1.559  1.7867  0.6521 -1.0369
   55MOL0     H 7217   3.223   1.978   1.481  0.5343 -1.7769  0.3298
   55MOL0     H 7218   3.439   2.136   1.374 -1.2767 -1.0287  3.0606
   55MOL0     H 7219   3.375   1.992   1.288 -0.0104 -0.6386  1.4249
   55MOL0     H 7220   3.273   2.192   1.188  1.1142  1.5792  0.8331
   55MOL0     H 7221   3.199   2.227   1.343 -3.2747 -1.6879  1.2381
   55MOL0     H 7222   3.117   2.227   1.056 -0.2162 -0.5829 -2.0808
   55MOL0     H 7223   2.880   2.311   0.977 -0.5928 -0.8290  0.1349
   55MOL0     H 7224   2.641   2.405   0.753 -0.6426 -1.3919 -0.0663
   55MOL0     H 7225   2.452   2.440   0.619  2.1401 -2.0748  1.1068
   55MOL0     H 7226   2.206   2.330   0.569 -0.3052  0.2455 -3.7183
   55MOL0     H 7227   2.224   2.497   0.517  0.5040  0.4174  0.7526
   55MOL0     H 7228   1.982   2.345   0.627 -3.4726 -0.0666 -1.5540
   55MOL0     H 7229   2.015   2.349   0.457  0.1405  0.5189  0.5765
   55MOL0     H 7230   2.000   2.599   0.445  0.5679  0.0699 -0.0304
   55MOL0     H 7231   1.955   2.605   0.619 -2.4877  0.7101 -0.6138
   55MOL0     H 7232   1.747   2.456   0.555 -2.2487  2.2520 -0.2314
   55MOL0     H 7233   1.738   2.613   0.499 -0.3779 -1.1516  0.1159
   55MOL0     H 7234   1.799   2.357   0.353 -2.2001 -0.1247 -1.1327
   55MOL0     H 7235   1.870   2.498   0.275 -0.2550 -0.3622  0.2026
   55MOL0     H 7236   1.578   2.506   0.372  0.3528 -0.3421 -0.7017
   55MOL0     H 7237   1.625   2.436   0.213 -2.1242  1.0703 -0.5462
   55MOL0     H 7238   1.694   2.724   0.312  1.4240  1.1910 -0.9827
   55MOL0     H 7239   1.725   2.659   0.153 -1.0883  2.7425 -1.2407
   55MOL0     H 7240   1.447   2.702   0.268  0.2722  0.8440  0.0024
   55MOL0     H 7241   1.484   2.676   0.101 -4.2064 -1.0176  2.2628
   55MOL0     H 7242   2.197   2.422   0.964  0.6553 -0.7641  0.3411
   55MOL0     H 7243   2.405   2.396   1.111 -0.9802 -3.2542 -0.5250
   55MOL0     H 7244   2.691   2.052   1.275  0.3398 -1.8055 -1.4662
   55MOL0     H 7245   2.929   1.984   1.354 -0.5515  2.3795  1.5947
   55MOL0     H 7246   4.813   2.604   1.561  3.0860 -0.7032 -2.2087
   55MOL0     H 7247   5.041   2.673   1.545  0.5140  3.6657 -1.3144
   55MOL0     H 7248   5.314   3.182   1.778 -1.9788 -1.9575 -2.0633
   55MOL0     H 7249   5.548   3.244   1.854  1.2279 -0.1303  1.8089
   55MOL0     H 7250   5.866   3.226   1.821  0.2943 -0.7154  0.0281
   55MOL0     H 7251   5.730   3.203   1.711 -0.6943 -0.6409  0.9138
   55MOL0     H 7252   5.812   2.981   1.653 -1.1447 -0.6423  2.0830
   55MOL0     H 7253   5.950   3.096   1.634 -0.2426 -2.4321 -1.7223
   55MOL0     H 7254   5.873   2.919   1.864 -3.2470  3.5127 -3.1817
   55MOL0     H 7255   6.030   3.015   1.850 -2.2188  2.5820  0.6132
   55MOL0     H 7256   6.035   2.870   1.624 -0.4377  2.7952  0.5128
   55MOL0     H 7257   6.088   2.789   1.784 -0.4065  0.4196  1.6360
   55MOL0     H 7258   5.790   2.526   1.700  1.9988 -2.0939 -3.0880
   55MOL0     H 7259   5.661   2.843   1.872  1.2548  0.8057 -1.7109
   55MOL0     H 7260   5.429   2.759   1.817 -1.1002  0.2303 -2.8993
   56MOL0     O 7261   4.930   7.135   9.122 -0.2911 -0.2740  0.5133
   56MOL0     C 7262   4.911   7.189   9.236 -0.2268 -0.4097 -0.0426
   56MOL0     O 7263   4.796   7.244   9.281  0.2297  0.4802  0.1212
   56MOL0     C 7264   4.681   7.237   9.201  0.1309  0.1430  0.5777
   56MOL0     C 7265   4.659   7.246   9.056  0.1914 -0.2471 -0.2557
   56MOL0     C 7266   4.525   7.271   9.011 -0.7771 -0.9447 -0.2182
   56MOL0     C 7267   4.417   7.285   9.101  0.1659  0.0694 -0.0521
   56MOL0     O 7268   4.299   7.315   9.039  1.1181  0.3881  0.0996
   56MOL0     C 7269   4.177   7.289   9.107 -0.0378  1.0442  0.3279
   56MOL0     C 7270   4.078   7.240   8.996 -0.0036  0.5277 -0.7140
   56MOL0     C 7271   4.072   7.330   8.871  0.6991  0.2420 -0.0182
   56MOL0     C 7272   3.957   7.276   8.772  0.9528  0.4564 -0.4452
   56MOL0     C 7273   3.805   7.301   8.818 -0.0162 -0.3923 -0.1051
   56MOL0     C 7274   3.710   7.282   8.701  0.2425  0.1019  0.5337
   56MOL0     C 7275   3.710   7.136   8.657  0.6545  0.3489 -0.6799
   56MOL0     C 7276   3.657   7.035   8.753  0.1648  0.4497 -0.3369
   56MOL0     N 7277   3.506   7.040   8.755 -0.1090  0.3296  0.4869
   56MOL0     C 7278   3.407   6.987   8.669 -0.0309 -0.5121 -0.4709
   56MOL0     C 7279   3.289   7.029   8.712  0.5307  0.6105 -0.8792
   56MOL0     C 7280   3.152   7.004   8.646 -0.4958 -0.7652 -0.1836
   56MOL0     C 7281   3.147   6.866   8.595 -0.2915  0.9190  0.4523
   56MOL0     C 7282   3.020   6.828   8.520 -0.0663 -0.2202 -0.2013
   56MOL0     C 7283   3.003   6.684   8.480 -1.1098 -0.4760 -0.0716
   56MOL0     O 7284   2.921   6.663   8.370  0.3218  0.2027 -0.6367
   56MOL0     C 7285   2.781   6.639   8.389 -1.0422  0.6171 -0.3362
   56MOL0     C 7286   2.709   6.635   8.506 -0.7625 -0.1347 -0.4466
   56MOL0     C 7287   2.574   6.603   8.509 -0.4717  0.0800 -0.0277
   56MOL0     C 7288   2.509   6.557   8.392  0.4296  0.4410  0.8142
   56MOL0     C 7289   2.366   6.523   8.402 -0.0091  0.0325 -0.4086
   56MOL0     O 7290   2.287   6.546   8.297 -0.2167 -0.0557  1.1398
   56MOL0     C 7291   2.151   6.520   8.301  0.3613  0.1646  0.8396
   56MOL0     C 7292   2.108   6.387   8.321  1.6494 -0.0541 -0.2935
   56MOL0     C 7293   1.980   6.356   8.345  0.2732  0.6285  0.8795
   56MOL0     C 7294   1.888   6.459   8.333  0.3033 -0.2152  0.0791
   56MOL0     O 7295   1.755   6.451   8.369  0.1576  0.4541 -0.1599
   56MOL0     C 7296   1.689   6.328   8.404  0.2482 -1.0748 -0.3133
   56MOL0     C 7297   1.539   6.334   8.435  0.1079 -0.3752  0.7458
   56MOL0     C 7298   1.473   6.361   8.302  1.7971 -0.7447  1.0732
   56MOL0     C 7299   1.316   6.387   8.333 -0.1185 -0.0015  0.1091
   56MOL0     C 7300   1.236   6.350   8.207  0.3089  0.0252 -0.6075
   56MOL0     C 7301   1.087   6.370   8.216  0.9569  0.1266 -0.1255
   56MOL0     C 7302   1.018   6.272   8.306 -0.0677  0.3319 -0.2331
   56MOL0     C 7303   0.866   6.301   8.299  0.0751 -0.2338  0.6284
   56MOL0    Cl 7304   0.778   6.280   8.143  0.3583  0.1046 -0.1718
   56MOL0     C 7305   1.926   6.582   8.286 -0.6045 -0.7288 -0.7699
   56MOL0     C 7306   2.054   6.618   8.277 -0.2035 -0.0809 -0.3468
   56MOL0     O 7307   2.327   6.497   8.516  0.1824  0.0128 -0.1890
   56MOL0     C 7308   2.576   6.561   8.270  0.4497  0.0309  0.5533
   56MOL0     C 7309   2.708   6.599   8.269 -0.1499 -0.9926  0.7683
   56MOL0     N 7310   3.308   7.101   8.828 -0.8175  0.5820 -0.0104
   56MOL0     N 7311   3.436   7.107   8.847 -0.6239 -0.4024 -0.1316
   56MOL0     C 7312   4.438   7.269   9.233 -0.1478  0.6731 -0.4429
   56MOL0     C 7313   4.567   7.246   9.279 -0.8146 -0.0652 -0.2148
   56MOL0     C 7314   5.025   7.215   9.326 -0.2019  0.5359  0.9695
   56MOL0     C 7315   5.150   7.161   9.287 -0.1052  0.1221  0.0918
   56MOL0     C 7316   5.254   7.169   9.371  0.3477 -0.4748  0.7060
   56MOL0     C 7317   5.249   7.251   9.481 -1.6037 -1.2243 -0.7899
   56MOL0     O 7318   5.370   7.270   9.549  0.4322  0.1047 -0.4460
   56MOL0     C 7319   5.347   7.290   9.689 -0.0457  0.0176  0.1965
   56MOL0     C 7320   5.476   7.250   9.752  0.5601 -0.2588  0.0982
   56MOL0     C 7321   5.486   7.303   9.897  0.0908  0.0499  0.1668
   56MOL0     C 7322   5.572   7.218   9.985 -0.5367  0.5278  0.8484
   56MOL0     C 7323   5.603   7.267  10.114  0.5050  0.0805  0.2060
   56MOL0     C 7324   5.630   7.306  10.232 -0.7864  0.5894  0.5664
   56MOL0     C 7325   5.127   7.312   9.519  0.2161  0.5186  0.3057
   56MOL0     C 7326   5.013   7.299   9.438 -0.4185 -0.2648 -0.5316
   56MOL0     H 7327   4.732   7.231   8.977 -0.6545 -0.4809 -1.0133
   56MOL0     H 7328   4.514   7.282   8.904  1.7727  0.8588 -0.3732
   56MOL0     H 7329   4.133   7.382   9.144  0.2133  0.8594  1.1126
   56MOL0     H 7330   4.189   7.220   9.191  0.6102  1.1615  0.3412
   56MOL0     H 7331   3.982   7.229   9.048  2.0913 -3.5156  2.9371
   56MOL0     H 7332   4.102   7.139   8.961 -1.6613 -0.0625 -0.2606
   56MOL0     H 7333   4.167   7.344   8.819  1.2813  0.3865  1.0564
   56MOL0     H 7334   4.038   7.430   8.900 -1.9215 -0.7027  0.5044
   56MOL0     H 7335   3.971   7.317   8.672  0.1366  0.0891 -0.7147
   56MOL0     H 7336   3.973   7.168   8.770 -1.3445  0.0088  1.0819
   56MOL0     H 7337   3.801   7.402   8.858 -0.5592 -0.3927 -0.1555
   56MOL0     H 7338   3.786   7.236   8.905 -0.8826  0.9248  0.7202
   56MOL0     H 7339   3.738   7.344   8.615 -0.9142 -2.6173 -1.9724
   56MOL0     H 7340   3.607   7.314   8.719  0.0905  0.2496 -0.5439
   56MOL0     H 7341   3.654   7.128   8.564 -0.3811  2.1535 -0.2714
   56MOL0     H 7342   3.811   7.112   8.623 -0.0521 -1.4022 -1.6641
   56MOL0     H 7343   3.699   7.034   8.854  1.1721 -2.0357 -0.6917
   56MOL0     H 7344   3.681   6.933   8.721  1.4813  0.7308 -0.3000
   56MOL0     H 7345   3.436   6.924   8.585 -0.5215 -1.1800 -0.1490
   56MOL0     H 7346   3.140   7.079   8.567 -0.4381  0.7494  1.1875
   56MOL0     H 7347   3.079   7.010   8.726  0.3441  0.1315  0.5397
   56MOL0     H 7348   3.158   6.800   8.682  1.3968  1.7982  0.9566
   56MOL0     H 7349   3.228   6.839   8.526  1.8317 -0.6161  3.2900
   56MOL0     H 7350   2.932   6.858   8.578  2.0222  0.3326  2.9487
   56MOL0     H 7351   3.035   6.892   8.433 -1.3541  1.3309  0.6545
   56MOL0     H 7352   2.975   6.615   8.560  0.2131 -0.9846 -0.0090
   56MOL0     H 7353   3.105   6.658   8.449 -1.2009  1.6329 -2.4170
   56MOL0     H 7354   2.754   6.655   8.603 -0.3523 -4.2444  0.3825
   56MOL0     H 7355   2.531   6.606   8.609  3.5447  0.0604  1.8716
   56MOL0     H 7356   2.187   6.312   8.329  1.4505 -0.1430  1.2695
   56MOL0     H 7357   1.949   6.256   8.374  0.5819 -0.3113 -1.7731
   56MOL0     H 7358   1.732   6.287   8.496 -4.5931 -2.2365  1.7082
   56MOL0     H 7359   1.703   6.262   8.318 -1.8545 -1.5738 -0.3194
   56MOL0     H 7360   1.518   6.423   8.497 -2.0329 -2.1030  2.6818
   56MOL0     H 7361   1.501   6.245   8.485 -2.8755 -0.6239 -1.6637
   56MOL0     H 7362   1.491   6.279   8.233 -1.1762 -1.6177  1.2105
   56MOL0     H 7363   1.513   6.444   8.244  2.1676 -2.9935 -2.1448
   56MOL0     H 7364   1.296   6.318   8.416  1.8064 -2.4554 -1.3306
   56MOL0     H 7365   1.286   6.487   8.366 -1.4856  0.1416 -1.4449
   56MOL0     H 7366   1.253   6.246   8.178  0.6062  0.0862 -0.6586
   56MOL0     H 7367   1.291   6.408   8.132  0.8807  0.1687 -0.0871
   56MOL0     H 7368   1.047   6.363   8.114 -1.0151  2.0202  0.4458
   56MOL0     H 7369   1.074   6.473   8.249  0.8149  1.1034 -2.9677
   56MOL0     H 7370   1.042   6.172   8.271 -0.5237  0.4963 -1.0610
   56MOL0     H 7371   1.051   6.292   8.408  2.5601 -1.3712 -0.6737
   56MOL0     H 7372   0.861   6.406   8.329  0.0138 -0.7287  2.5008
   56MOL0     H 7373   0.823   6.242   8.381  1.9113 -1.6693  0.6090
   56MOL0     H 7374   1.845   6.652   8.267  2.1202  3.4551  1.2702
   56MOL0     H 7375   2.086   6.720   8.254  2.9728 -1.2368 -1.6260
   56MOL0     H 7376   2.542   6.528   8.172  2.2670  2.7783 -1.1245
   56MOL0     H 7377   2.772   6.593   8.182 -0.9093  1.2202 -0.0065
   56MOL0     H 7378   4.359   7.273   9.306 -0.6103 -0.1177 -0.8832
   56MOL0     H 7379   4.569   7.240   9.387 -0.0823 -0.5835 -0.2487
   56MOL0     H 7380   5.162   7.106   9.194  3.1423 -0.4551  0.7222
   56MOL0     H 7381   5.340   7.117   9.330 -0.0787 -2.2211  1.9259
   56MOL0     H 7382   5.279   7.214   9.729  1.2793 -1.1537  0.3097
   56MOL0     H 7383   5.317   7.394   9.706 -0.1480 -0.3237  2.3986
   56MOL0     H 7384   5.498   7.143   9.759  0.1634 -0.2399  2.4566
   56MOL0     H 7385   5.553   7.299   9.692 -0.8090 -1.3578 -2.7344
   56MOL0     H 7386   5.387   7.307   9.945 -0.0669  1.5809 -0.2636
   56MOL0     H 7387   5.523   7.405   9.902  0.2650  0.0057 -0.2439
   56MOL0     H 7388   5.535   7.116   9.999  3.9198 -1.6245 -0.8676
   56MOL0     H 7389   5.666   7.201   9.931  0.2535  1.2253  1.9623
   56MOL0     H 7390   5.646   7.367  10.319 -3.7389  1.4012  0.6466
   56MOL0     H 7391   5.110   7.356   9.616 -2.8468  0.1263  0.0332
   56MOL0     H 7392   4.923   7.354   9.465 -0.3876 -0.4266 -0.0792
   57MOL0     O 7393   9.650   8.021  10.580  0.0289 -0.2406  0.5454
   57MOL0     C 7394   9.658   7.998  10.458  0.3687  0.8028  0.1019
   57MOL0     O 7395   9.580   8.060  10.367  0.3358 -0.7075  0.3374
   57MOL0     C 7396   9.513   8.171  10.401  0.5229 -0.8406  1.2744
   57MOL0     C 7397   9.558   8.279  10.483  0.1808  0.2184  0.2885
   57MOL0     C 7398   9.467   8.391  10.496 -0.5666  0.1792  0.0617
   57MOL0     C 7399   9.338   8.384  10.435 -0.3080  0.4869 -0.4815
   57MOL0     O 7400   9.260   8.494  10.447  0.7529 -0.4626  0.6893
   57MOL0     C 7401   9.122   8.481  10.408 -0.5640  0.9924  0.9136
   57MOL0     C 7402   9.067   8.622  10.435  0.6504  0.7021  0.1006
   57MOL0     C 7403   8.911   8.624  10.402 -0.2273 -0.6006  0.0657
   57MOL0     C 7404   8.833   8.738  10.464  0.5524 -0.9996 -0.1588
   57MOL0     C 7405   8.675   8.708  10.457 -0.5566  0.1299  0.4155
   57MOL0     C 7406   8.586   8.839  10.474  1.2773 -0.2422 -0.6506
   57MOL0     C 7407   8.436   8.810  10.476  0.2237 -0.5735  0.6773
   57MOL0     C 7408   8.389   8.763  10.334 -0.5826 -0.1392 -0.7200
   57MOL0     N 7409   8.238   8.746  10.330 -0.3339  0.1719 -0.0073
   57MOL0     C 7410   8.150   8.838  10.263 -0.4317  0.1528  0.3748
   57MOL0     C 7411   8.029   8.785  10.293 -0.9026  0.1802  0.2319
   57MOL0     C 7412   7.906   8.857  10.252 -0.5609 -0.4024  0.1185
   57MOL0     C 7413   7.775   8.771  10.270 -0.7779  0.4711  0.3266
   57MOL0     C 7414   7.654   8.854  10.249 -0.0971  0.4223  0.2626
   57MOL0     C 7415   7.523   8.778  10.264  1.1077  0.5408  0.2157
   57MOL0     O 7416   7.521   8.655  10.191 -0.2029  0.2377  0.3863
   57MOL0     C 7417   7.423   8.563  10.228 -1.1687 -0.1841  0.6757
   57MOL0     C 7418   7.345   8.554  10.338 -0.0171 -0.2606 -1.3250
   57MOL0     C 7419   7.250   8.452  10.352  0.3731 -0.1544  0.3033
   57MOL0     C 7420   7.232   8.357  10.253  0.3666  0.5450  0.6385
   57MOL0     C 7421   7.121   8.252  10.253  0.0668 -0.9786 -0.8826
   57MOL0     O 7422   7.044   8.249  10.364  0.6158 -0.6381 -0.3041
   57MOL0     C 7423   6.934   8.161  10.362  0.3568  0.1362  0.2401
   57MOL0     C 7424   6.803   8.212  10.354 -0.0275 -1.0283  0.1821
   57MOL0     C 7425   6.691   8.125  10.366  0.8941 -0.6052  0.5426
   57MOL0     C 7426   6.712   7.983  10.361  0.1062 -0.6770  0.4684
   57MOL0     O 7427   6.600   7.900  10.369 -0.2422  0.5950 -0.3339
   57MOL0     C 7428   6.482   7.928  10.278 -0.0841 -0.0250 -0.7327
   57MOL0     C 7429   6.397   7.805  10.282  0.4913  0.6107 -0.0279
   57MOL0     C 7430   6.270   7.824  10.192  0.5677  0.1381  0.1903
   57MOL0     C 7431   6.210   7.689  10.172 -0.8385  0.5343 -1.1618
   57MOL0     C 7432   6.117   7.679  10.044 -0.8571 -0.0517  0.5903
   57MOL0     C 7433   6.049   7.532  10.040 -0.1427 -0.3894 -0.7708
   57MOL0     C 7434   5.990   7.513   9.904 -0.6295 -0.2590 -0.1156
   57MOL0     C 7435   5.987   7.369   9.881  0.1269 -0.3438 -0.6879
   57MOL0    Cl 7436   5.901   7.345   9.720  0.0597 -0.0523  0.1477
   57MOL0     C 7437   6.842   7.932  10.362 -0.2724  0.0329 -0.0866
   57MOL0     C 7438   6.952   8.019  10.366  0.1331  0.0650  0.3068
   57MOL0     O 7439   7.107   8.182  10.152 -0.1931  0.0375 -0.1155
   57MOL0     C 7440   7.302   8.372  10.134  0.3963 -0.1325 -0.3891
   57MOL0     C 7441   7.394   8.474  10.120  0.4955 -0.5101  0.8773
   57MOL0     N 7442   8.042   8.674  10.379  0.7713  0.1636 -0.7191
   57MOL0     N 7443   8.164   8.648  10.394 -0.5151 -0.5461 -0.3329
   57MOL0     C 7444   9.303   8.265  10.363  0.4126  0.2911 -0.3970
   57MOL0     C 7445   9.391   8.164  10.339  0.0946  0.4693 -0.6411
   57MOL0     C 7446   9.762   7.902  10.404  0.3601  0.5164  0.7544
   57MOL0     C 7447   9.791   7.904  10.270  0.7708  0.4764 -0.0701
   57MOL0     C 7448   9.898   7.836  10.217 -0.5499 -0.3404 -0.6263
   57MOL0     C 7449   9.976   7.758  10.308  0.8798 -0.5257  0.8581
   57MOL0     O 7450  10.090   7.687  10.279 -0.2389  0.2621  0.6865
   57MOL0     C 7451  10.121   7.669  10.138  0.9617 -0.2203  0.6857
   57MOL0     C 7452  10.245   7.582  10.118  0.1265 -0.0355  1.3021
   57MOL0     C 7453  10.251   7.536   9.966  0.6821 -0.0677 -0.1436
   57MOL0     C 7454  10.359   7.439   9.931  0.1425  0.4588 -0.2213
   57MOL0     C 7455  10.483   7.510   9.952 -0.4533  0.3446 -0.1864
   57MOL0     C 7456  10.593   7.565   9.963  0.8247  1.3451 -0.3606
   57MOL0     C 7457   9.937   7.753  10.444  0.0587  0.0207  0.2625
   57MOL0     C 7458   9.827   7.818  10.492 -0.4369  0.2104  0.6171
   57MOL0     H 7459   9.655   8.277  10.531  1.9072  2.1396 -2.8505
   57MOL0     H 7460   9.495   8.484  10.545 -0.0585  0.0341  0.0572
   57MOL0     H 7461   9.075   8.408  10.475 -0.2621 -0.2406 -0.2008
   57MOL0     H 7462   9.118   8.453  10.303  0.3219 -0.9719  1.3573
   57MOL0     H 7463   9.119   8.696  10.373  1.5627 -0.8184 -1.0231
   57MOL0     H 7464   9.081   8.637  10.542  0.6450  2.4236 -0.1115
   57MOL0     H 7465   8.874   8.533  10.451  0.0300 -0.8796 -0.2502
   57MOL0     H 7466   8.877   8.610  10.299 -0.8528 -4.1281  0.6174
   57MOL0     H 7467   8.865   8.767  10.564  0.5296  0.9819 -0.6797
   57MOL0     H 7468   8.835   8.819  10.391 -1.8551 -1.1558 -0.4938
   57MOL0     H 7469   8.654   8.623  10.523 -3.9302  0.8836  0.4698
   57MOL0     H 7470   8.659   8.672  10.355  2.3320 -2.9918  0.8839
   57MOL0     H 7471   8.615   8.910  10.396  0.4749  0.6105 -0.2020
   57MOL0     H 7472   8.613   8.889  10.568  0.2420  2.7706 -1.8205
   57MOL0     H 7473   8.399   8.737  10.548 -1.3632  0.3779  0.8659
   57MOL0     H 7474   8.392   8.908  10.494 -1.3191 -0.2448 -3.6372
   57MOL0     H 7475   8.443   8.669  10.319 -0.0979  0.0651 -0.3210
   57MOL0     H 7476   8.427   8.825  10.252 -0.4605  0.4468 -0.2304
   57MOL0     H 7477   8.166   8.934  10.214 -0.0481  0.6465  1.4516
   57MOL0     H 7478   7.908   8.881  10.145 -1.3520 -0.2932  0.1227
   57MOL0     H 7479   7.900   8.954  10.301 -1.4969  1.6214 -3.6110
   57MOL0     H 7480   7.777   8.738  10.374 -4.0438  3.9518  1.7311
   57MOL0     H 7481   7.778   8.686  10.201 -2.8375  0.3938  0.2799
   57MOL0     H 7482   7.650   8.936  10.321 -1.3789 -1.4004  2.3831
   57MOL0     H 7483   7.654   8.900  10.150 -0.2569  2.6094  1.2275
   57MOL0     H 7484   7.433   8.834  10.240 -0.0576 -1.6877 -0.9607
   57MOL0     H 7485   7.518   8.745  10.369 -0.0274 -1.2798 -0.3549
   57MOL0     H 7486   7.345   8.623  10.422 -1.4591 -1.2694 -0.4441
   57MOL0     H 7487   7.194   8.456  10.445 -0.2799 -1.4607 -0.0041
   57MOL0     H 7488   6.797   8.320  10.357  1.2920 -0.9078  3.6168
   57MOL0     H 7489   6.591   8.165  10.372  1.3258  0.3704  1.5593
   57MOL0     H 7490   6.524   7.947  10.179  4.3068  1.1740  1.1367
   57MOL0     H 7491   6.425   8.013  10.318 -1.7130  0.0657 -3.0280
   57MOL0     H 7492   6.361   7.786  10.383 -0.4237  2.0647 -0.0544
   57MOL0     H 7493   6.458   7.720  10.250 -0.0493 -0.0714  0.7457
   57MOL0     H 7494   6.314   7.864  10.100  1.0115 -1.9767 -0.6000
   57MOL0     H 7495   6.195   7.896  10.225 -0.0727 -1.7008  3.0586
   57MOL0     H 7496   6.288   7.614  10.155  1.3359  2.7399 -1.3932
   57MOL0     H 7497   6.155   7.661  10.263 -0.3534  1.4330 -0.5782
   57MOL0     H 7498   6.176   7.691   9.953 -2.2631  0.2942 -0.2955
   57MOL0     H 7499   6.039   7.755  10.048 -1.2545 -0.4678  0.8004
   57MOL0     H 7500   5.980   7.512  10.123  0.2755  0.4420 -0.2093
   57MOL0     H 7501   6.128   7.458  10.051 -0.7528 -1.3703 -2.5484
   57MOL0     H 7502   5.888   7.551   9.899 -0.0928  1.1066 -1.3158
   57MOL0     H 7503   6.034   7.560   9.816 -2.0441  0.5778 -0.3934
   57MOL0     H 7504   5.933   7.310   9.956  0.4325 -2.1605 -1.8180
   57MOL0     H 7505   6.090   7.335   9.888  0.5314  1.0536  0.4177
   57MOL0     H 7506   6.871   7.828  10.371  3.0308  0.8449  0.1868
   57MOL0     H 7507   7.057   7.996  10.375  0.2823  0.2573 -0.7619
   57MOL0     H 7508   7.279   8.303  10.052 -0.9023  0.1330 -0.2677
   57MOL0     H 7509   7.460   8.483  10.035 -0.5714  1.5708  0.1953
   57MOL0     H 7510   9.203   8.260  10.322 -0.3184  1.4971  1.1080
   57MOL0     H 7511   9.359   8.080  10.278  0.6270 -0.8040  0.7652
   57MOL0     H 7512   9.726   7.951  10.197 -1.2435 -1.3723  0.4135
   57MOL0     H 7513   9.922   7.846  10.112 -2.6440 -1.0724 -1.2146
   57MOL0     H 7514  10.128   7.761  10.079 -0.4822 -0.6972 -0.2902
   57MOL0     H 7515  10.038   7.615  10.091 -0.0208  2.0625 -0.3811
   57MOL0     H 7516  10.341   7.632  10.136  0.9131 -0.0535 -2.1474
   57MOL0     H 7517  10.241   7.490  10.177 -0.7182 -1.4413 -0.8588
   57MOL0     H 7518  10.252   7.616   9.892  2.0165 -0.6260 -0.7567
   57MOL0     H 7519  10.159   7.479   9.950  1.1221 -0.4111 -1.6150
   57MOL0     H 7520  10.359   7.349   9.994  1.6219  2.1866  2.4648
   57MOL0     H 7521  10.356   7.416   9.824 -0.4175 -1.3129  0.1415
   57MOL0     H 7522  10.685   7.616   9.979  0.9932  1.1683 -0.7512
   57MOL0     H 7523  10.000   7.701  10.516  2.2229  1.6948 -0.3094
   57MOL0     H 7524   9.803   7.796  10.595 -0.2288  2.2086  1.1363
   58MOL0     O 7525   8.385   3.411   6.742  0.1317 -0.2477  0.0999
   58MOL0     C 7526   8.471   3.335   6.784 -0.8662  0.8481  0.5106
   58MOL0     O 7527   8.450   3.227   6.865 -0.1479  0.4881  0.0795
   58MOL0     C 7528   8.322   3.204   6.913  0.5875  0.9820 -0.3231
   58MOL0     C 7529   8.244   3.116   6.842  0.2222  1.0372  0.0542
   58MOL0     C 7530   8.115   3.088   6.887  0.5894  0.6583  0.1789
   58MOL0     C 7531   8.069   3.139   7.016 -0.2873  0.5176  0.0953
   58MOL0     O 7532   7.947   3.118   7.071 -0.3452  0.7315 -0.1255
   58MOL0     C 7533   7.854   3.052   6.992 -0.3376 -0.2336  0.2499
   58MOL0     C 7534   7.745   3.015   7.091 -0.1311  0.0161  0.4609
   58MOL0     C 7535   7.641   2.930   7.021  0.4904 -0.7779 -0.1429
   58MOL0     C 7536   7.561   2.862   7.125  0.8555  0.5067  0.0106
   58MOL0     C 7537   7.424   2.813   7.065  0.7236 -0.0801 -0.7065
   58MOL0     C 7538   7.331   2.927   7.026  0.8094  0.1911  0.3741
   58MOL0     C 7539   7.190   2.885   6.984  0.5158 -0.0480 -0.4870
   58MOL0     C 7540   7.100   2.815   7.084 -0.5571  0.1007 -0.4864
   58MOL0     N 7541   6.965   2.795   7.023  0.1720  0.1017 -0.0986
   58MOL0     C 7542   6.868   2.890   7.001 -0.3248  0.2139 -0.5538
   58MOL0     C 7543   6.766   2.816   6.953  0.2989 -0.6712  0.8212
   58MOL0     C 7544   6.634   2.875   6.905  0.5380 -0.7812  0.8208
   58MOL0     C 7545   6.516   2.826   6.992 -0.8853  0.6844 -0.1381
   58MOL0     C 7546   6.406   2.925   6.960  0.1279 -0.3420 -0.2655
   58MOL0     C 7547   6.266   2.871   6.978 -0.7287 -0.7583  0.3593
   58MOL0     O 7548   6.177   2.984   6.963 -0.1911 -0.1741 -0.0242
   58MOL0     C 7549   6.043   2.969   6.978 -0.2985  0.3492 -0.4785
   58MOL0     C 7550   5.964   3.076   6.976  0.5301 -0.3741 -0.1411
   58MOL0     C 7551   5.819   3.063   6.989  0.2860  0.2563 -0.4917
   58MOL0     C 7552   5.755   2.938   6.998 -0.0354  0.4146  0.1213
   58MOL0     C 7553   5.609   2.921   7.010 -0.1698 -0.8302 -0.9204
   58MOL0     O 7554   5.561   2.786   7.029 -0.1294 -0.5060  0.4465
   58MOL0     C 7555   5.424   2.770   7.032  0.3725 -0.1403  1.1194
   58MOL0     C 7556   5.376   2.744   7.166 -0.5977 -0.1215  0.8202
   58MOL0     C 7557   5.236   2.721   7.186  1.2408  0.2404 -0.4379
   58MOL0     C 7558   5.152   2.706   7.067 -0.4478 -0.1037  0.6080
   58MOL0     O 7559   5.027   2.662   7.064  0.4298 -0.0457 -0.1023
   58MOL0     C 7560   4.965   2.630   7.192  0.4520  0.1867  1.0388
   58MOL0     C 7561   4.811   2.607   7.176  0.4293 -0.4412 -0.5227
   58MOL0     C 7562   4.754   2.535   7.300  0.2600  1.0036  0.6024
   58MOL0     C 7563   4.794   2.383   7.312 -0.0920 -0.2241  0.1914
   58MOL0     C 7564   4.712   2.301   7.414 -0.3923 -0.5122 -0.0674
   58MOL0     C 7565   4.736   2.156   7.412 -1.3823 -0.0376  0.2508
   58MOL0     C 7566   4.617   2.069   7.448  0.3907 -0.2848  0.0613
   58MOL0     C 7567   4.507   2.061   7.340 -0.9041 -0.2262 -0.1894
   58MOL0    Cl 7568   4.412   1.905   7.354 -0.3441  0.1521 -0.4997
   58MOL0     C 7569   5.210   2.722   6.938 -0.1402 -0.7789  0.3069
   58MOL0     C 7570   5.345   2.755   6.924  0.4429 -0.3776  0.0231
   58MOL0     O 7571   5.534   3.022   7.028 -0.3918 -0.3907  0.7726
   58MOL0     C 7572   5.838   2.827   6.987 -0.3538 -0.4494 -0.5077
   58MOL0     C 7573   5.980   2.841   6.982 -0.1179 -0.0827 -0.2855
   58MOL0     N 7574   6.811   2.682   6.945 -0.3361 -0.3278 -0.1228
   58MOL0     N 7575   6.930   2.666   6.990 -0.3483 -0.5362 -0.0316
   58MOL0     C 7576   8.145   3.238   7.078  0.6017 -0.2182  0.3584
   58MOL0     C 7577   8.263   3.281   7.023 -0.7739  1.1252  0.7186
   58MOL0     C 7578   8.612   3.370   6.745 -0.5920  0.0643 -1.0525
   58MOL0     C 7579   8.649   3.443   6.630  0.0102  1.3274  0.1548
   58MOL0     C 7580   8.783   3.452   6.591  0.4311  0.0485  0.5355
   58MOL0     C 7581   8.883   3.418   6.679 -0.4362 -0.2985  0.4057
   58MOL0     O 7582   9.022   3.439   6.677  0.4831  0.1319  0.1634
   58MOL0     C 7583   9.062   3.536   6.582  0.0753 -0.1856  0.2742
   58MOL0     C 7584   9.218   3.541   6.587 -0.0110 -0.9107  0.0297
   58MOL0     C 7585   9.290   3.429   6.664 -0.7368 -0.1385 -0.4597
   58MOL0     C 7586   9.438   3.429   6.642 -0.2317 -0.2121 -0.3310
   58MOL0     C 7587   9.475   3.398   6.509  0.4458 -0.6094  0.9856
   58MOL0     C 7588   9.490   3.388   6.386 -0.0341  0.1865 -0.8442
   58MOL0     C 7589   8.847   3.359   6.799 -0.0618 -0.0156 -0.2501
   58MOL0     C 7590   8.714   3.331   6.831 -0.1634 -0.2083  0.3124
   58MOL0     H 7591   8.291   3.074   6.754 -1.6599  0.2021 -0.6115
   58MOL0     H 7592   8.052   3.035   6.817  1.2012 -1.0689  0.8651
   58MOL0     H 7593   7.891   2.962   6.942  4.8469  1.7646 -0.0782
   58MOL0     H 7594   7.811   3.127   6.924  1.7929  0.6268 -0.2144
   58MOL0     H 7595   7.699   3.104   7.134 -0.4451 -0.2030  0.5795
   58MOL0     H 7596   7.785   2.937   7.157  2.0857 -1.4953 -2.4255
   58MOL0     H 7597   7.689   2.854   6.959  2.1692 -0.2032  0.3832
   58MOL0     H 7598   7.576   2.997   6.964  1.0590 -0.4996 -0.4682
   58MOL0     H 7599   7.627   2.787   7.170  0.7590 -0.4392 -1.3500
   58MOL0     H 7600   7.549   2.933   7.207 -2.2117  0.1672 -0.0077
   58MOL0     H 7601   7.375   2.749   7.139  4.1893 -2.2518 -0.0296
   58MOL0     H 7602   7.443   2.750   6.978  0.3454  2.2214 -2.5591
   58MOL0     H 7603   7.365   2.963   6.929 -2.7713  0.4646 -0.9217
   58MOL0     H 7604   7.320   3.008   7.098  2.0977  0.0155  0.8106
   58MOL0     H 7605   7.137   2.976   6.955  1.7160  0.7351 -0.2880
   58MOL0     H 7606   7.211   2.806   6.911 -0.1661  0.0503 -0.7918
   58MOL0     H 7607   7.100   2.885   7.169  5.8361  1.0338 -0.7853
   58MOL0     H 7608   7.143   2.719   7.115  1.1833  0.0032 -2.9011
   58MOL0     H 7609   6.870   2.996   7.022 -1.9503  0.4384 -1.3708
   58MOL0     H 7610   6.626   2.872   6.796 -1.9018 -1.6847  0.9536
   58MOL0     H 7611   6.637   2.982   6.927 -0.7125 -0.6091  0.2305
   58MOL0     H 7612   6.541   2.832   7.099 -2.9107  3.0920  0.2926
   58MOL0     H 7613   6.499   2.721   6.968  3.3347 -0.3200  0.5497
   58MOL0     H 7614   6.420   3.007   7.032  0.1184  0.1188 -0.7843
   58MOL0     H 7615   6.412   2.971   6.861 -2.4328  0.0110 -0.3187
   58MOL0     H 7616   6.262   2.822   7.076  0.8634 -0.8365  0.4043
   58MOL0     H 7617   6.251   2.806   6.891  0.0777  0.9765 -1.1457
   58MOL0     H 7618   5.990   3.182   6.969 -1.3865  0.2051  0.7997
   58MOL0     H 7619   5.767   3.158   6.988 -0.3492 -0.0914 -1.0048
   58MOL0     H 7620   5.448   2.732   7.246 -0.4783 -0.0837  0.7196
   58MOL0     H 7621   5.193   2.710   7.286  0.0853  0.4725 -0.8900
   58MOL0     H 7622   4.984   2.709   7.265  0.2766  3.8901 -2.5623
   58MOL0     H 7623   5.019   2.540   7.222  2.7085  1.3468  0.7104
   58MOL0     H 7624   4.780   2.549   7.089  1.8098 -1.1728 -0.5516
   58MOL0     H 7625   4.769   2.707   7.174  0.0338 -0.5913 -0.0690
   58MOL0     H 7626   4.646   2.535   7.278  0.5805 -2.7276 -1.9235
   58MOL0     H 7627   4.773   2.585   7.395 -1.4533  1.2705  0.8405
   58MOL0     H 7628   4.791   2.341   7.211 -1.8885 -0.4228  0.2933
   58MOL0     H 7629   4.897   2.373   7.346 -0.4119 -0.0556  1.2519
   58MOL0     H 7630   4.610   2.315   7.377 -0.0004 -1.3010 -1.5436
   58MOL0     H 7631   4.726   2.334   7.517 -1.8652 -0.5344  0.1500
   58MOL0     H 7632   4.820   2.129   7.477 -0.4359 -0.9142 -1.2866
   58MOL0     H 7633   4.761   2.121   7.311 -1.7624 -1.1432  0.5218
   58MOL0     H 7634   4.651   1.966   7.459  0.1475 -0.3762 -0.0266
   58MOL0     H 7635   4.553   2.107   7.529  0.1356 -0.1842 -0.1841
   58MOL0     H 7636   4.556   2.070   7.242  2.5744  1.7403  1.5344
   58MOL0     H 7637   4.434   2.141   7.347 -2.2706 -0.7205 -4.9626
   58MOL0     H 7638   5.153   2.690   6.852  0.6960  1.4254 -1.1542
   58MOL0     H 7639   5.388   2.770   6.825 -1.6423 -1.7808 -1.2073
   58MOL0     H 7640   5.808   2.723   6.989  0.4795 -0.7293 -1.7938
   58MOL0     H 7641   6.033   2.746   6.979  1.5513  0.7434  0.9925
   58MOL0     H 7642   8.103   3.304   7.154  0.1173 -0.0458 -0.0543
   58MOL0     H 7643   8.309   3.368   7.068  0.5746  0.4095  0.7762
   58MOL0     H 7644   8.569   3.465   6.561  0.1019 -0.4402 -0.5411
   58MOL0     H 7645   8.802   3.498   6.495  0.1169  3.7254  2.0591
   58MOL0     H 7646   9.007   3.628   6.602 -3.7883 -2.2862  0.1860
   58MOL0     H 7647   9.041   3.500   6.481  0.8150 -1.0903  0.4279
   58MOL0     H 7648   9.255   3.548   6.485  2.2585 -2.7776  0.6062
   58MOL0     H 7649   9.244   3.637   6.631 -1.0780  0.1074 -1.4964
   58MOL0     H 7650   9.234   3.335   6.653 -2.6660  0.3856  3.2672
   58MOL0     H 7651   9.279   3.451   6.770 -0.0830 -0.9357 -0.2197
   58MOL0     H 7652   9.482   3.516   6.692  2.2882  0.7274 -3.7864
   58MOL0     H 7653   9.467   3.345   6.706 -0.7294  0.9661  1.5331
   58MOL0     H 7654   9.512   3.374   6.282  2.8934  0.3730 -0.3273
   58MOL0     H 7655   8.927   3.331   6.868  0.7411  2.7616  0.0459
   58MOL0     H 7656   8.686   3.291   6.927 -0.6196  0.6026  0.5275
   59MOL0     O 7657  10.455  10.483  10.710 -0.3132  0.4506 -0.6800
   59MOL0     C 7658  10.443  10.396  10.803  0.3161  0.3221  0.5802
   59MOL0     O 7659  10.324  10.363  10.865 -0.5360  0.6713  0.1489
   59MOL0     C 7660  10.210  10.415  10.820  0.8509 -0.8660  0.2635
   59MOL0     C 7661  10.116  10.462  10.908  0.7985 -0.3419 -0.2816
   59MOL0     C 7662   9.987  10.514  10.865 -0.1421  0.5770 -1.0255
   59MOL0     C 7663   9.958  10.509  10.729 -0.5673 -0.0806  0.0803
   59MOL0     O 7664   9.835  10.539  10.683  0.2681  0.1839 -0.4461
   59MOL0     C 7665   9.825  10.652  10.601  0.1120  0.1535 -0.9267
   59MOL0     C 7666   9.672  10.666  10.568 -0.8040 -0.6118  0.2744
   59MOL0     C 7667   9.582  10.701  10.691 -0.3996 -0.1898  0.2442
   59MOL0     C 7668   9.435  10.654  10.670  0.1885  0.5869 -1.1288
   59MOL0     C 7669   9.358  10.663  10.799  0.5361 -0.7577 -0.1992
   59MOL0     C 7670   9.206  10.645  10.781 -0.4400 -0.6736 -0.1516
   59MOL0     C 7671   9.124  10.617  10.909 -0.1742 -0.0260 -0.3310
   59MOL0     C 7672   8.970  10.640  10.894 -0.0272  0.4945  0.3540
   59MOL0     N 7673   8.903  10.613  11.019 -0.2430  0.3255 -0.1780
   59MOL0     C 7674   8.776  10.551  11.023 -0.6132 -0.1288 -0.4495
   59MOL0     C 7675   8.760  10.541  11.161 -0.2454  0.5419  0.3876
   59MOL0     C 7676   8.646  10.485  11.230 -0.3963  0.9171  0.4282
   59MOL0     C 7677   8.523  10.583  11.211  0.2176 -0.4612  0.2958
   59MOL0     C 7678   8.415  10.548  11.320 -0.4713  0.2459  0.0109
   59MOL0     C 7679   8.357  10.403  11.309 -0.2796 -0.6310  0.6370
   59MOL0     O 7680   8.242  10.411  11.228 -0.0982 -0.3976  0.5244
   59MOL0     C 7681   8.117  10.372  11.265  0.4370  0.5490 -0.4695
   59MOL0     C 7682   8.085  10.329  11.399  0.5825 -0.7539  0.4681
   59MOL0     C 7683   7.951  10.293  11.432 -0.0595 -0.3572 -0.9949
   59MOL0     C 7684   7.857  10.286  11.333  0.6916 -0.2583  0.1754
   59MOL0     C 7685   7.713  10.264  11.358 -0.2672  0.2449  0.5326
   59MOL0     O 7686   7.677  10.265  11.486  0.0398 -0.0047 -0.4131
   59MOL0     C 7687   7.550  10.244  11.523  0.2910 -0.4337  0.7435
   59MOL0     C 7688   7.519  10.312  11.633  1.0951 -0.0520 -0.3364
   59MOL0     C 7689   7.395  10.290  11.698  0.4212  0.8213  0.4457
   59MOL0     C 7690   7.296  10.216  11.640  0.0719  1.2162 -0.3789
   59MOL0     O 7691   7.165  10.214  11.683  0.2403  0.2127 -0.2767
   59MOL0     C 7692   7.138  10.270  11.812  0.0509 -0.2023 -0.5099
   59MOL0     C 7693   6.978  10.246  11.831  0.4969  0.8827 -0.5445
   59MOL0     C 7694   6.957  10.106  11.875  0.3356 -0.3469 -0.3601
   59MOL0     C 7695   6.815  10.053  11.855 -0.3949 -0.1366 -0.1170
   59MOL0     C 7696   6.810   9.896  11.850  0.1327  0.4664 -0.5413
   59MOL0     C 7697   6.667   9.843  11.882 -0.1630  0.3316  0.0939
   59MOL0     C 7698   6.645   9.695  11.844  0.2385  0.0800  0.1770
   59MOL0     C 7699   6.548   9.629  11.943 -0.2670  0.1059 -0.1285
   59MOL0    Cl 7700   6.507   9.459  11.914  0.0113  0.8538 -0.2116
   59MOL0     C 7701   7.328  10.150  11.516 -0.5902 -0.3247  0.1511
   59MOL0     C 7702   7.457  10.157  11.467  0.4831 -0.5554 -0.1704
   59MOL0     O 7703   7.638  10.254  11.267 -1.0391 -0.1073 -0.3466
   59MOL0     C 7704   7.893  10.318  11.201 -0.7033  0.2193  0.6938
   59MOL0     C 7705   8.024  10.363  11.165  0.5751 -0.1320  0.0214
   59MOL0     N 7706   8.866  10.596  11.232 -0.3267  0.0067 -0.2093
   59MOL0     N 7707   8.954  10.635  11.147 -0.6034 -0.2435 -0.5903
   59MOL0     C 7708  10.055  10.462  10.639  0.0159  0.4802  0.1229
   59MOL0     C 7709  10.182  10.420  10.683  0.2770  0.9116 -0.1592
   59MOL0     C 7710  10.561  10.325  10.843 -0.1644  0.1222 -0.2162
   59MOL0     C 7711  10.561  10.251  10.963  0.6304 -0.3867  0.5295
   59MOL0     C 7712  10.680  10.198  11.018  0.6114 -0.0328 -0.0615
   59MOL0     C 7713  10.806  10.214  10.959  0.3284 -0.3589  0.4610
   59MOL0     O 7714  10.920  10.172  11.008 -1.3023  0.2892 -0.1420
   59MOL0     C 7715  10.918  10.077  11.114 -0.3573  0.1752  0.2563
   59MOL0     C 7716  11.046  10.058  11.178 -1.5026 -0.5584 -0.0795
   59MOL0     C 7717  11.151   9.986  11.086  0.0461  0.2518  1.0281
   59MOL0     C 7718  11.293  10.050  11.104 -0.8327 -0.9547  0.1084
   59MOL0     C 7719  11.414   9.977  11.051 -0.7841 -0.1261  0.2895
   59MOL0     C 7720  11.511   9.926  11.005  0.0202  0.3508  0.5893
   59MOL0     C 7721  10.798  10.293  10.839  0.0257  0.2337  1.2326
   59MOL0     C 7722  10.683  10.340  10.768  0.8557 -0.1225 -0.2427
   59MOL0     H 7723  10.126  10.458  11.016 -2.8329 -1.3803  0.1273
   59MOL0     H 7724   9.929  10.551  10.949  1.4957 -0.1740  0.5064
   59MOL0     H 7725   9.870  10.635  10.503 -2.2756 -2.7670 -1.6779
   59MOL0     H 7726   9.851  10.746  10.649 -0.7097 -0.2276  0.3286
   59MOL0     H 7727   9.635  10.577  10.515  0.3756 -0.6780 -0.4896
   59MOL0     H 7728   9.669  10.744  10.492 -0.9273 -1.0456 -0.1754
   59MOL0     H 7729   9.579  10.808  10.716  1.6130 -0.5184  2.1810
   59MOL0     H 7730   9.625  10.644  10.774  0.7104 -1.8479 -1.4161
   59MOL0     H 7731   9.376  10.707  10.594 -4.2482  0.2214  1.6999
   59MOL0     H 7732   9.434  10.548  10.645 -2.0862  0.4152 -0.5790
   59MOL0     H 7733   9.377  10.761  10.844 -1.1701 -1.3129  1.8673
   59MOL0     H 7734   9.408  10.592  10.865  1.0359 -2.6164 -2.4185
   59MOL0     H 7735   9.183  10.561  10.715  0.4894 -2.5519  1.7947
   59MOL0     H 7736   9.168  10.738  10.739  0.9902 -0.0227 -0.0592
   59MOL0     H 7737   9.137  10.513  10.941 -0.0950  0.5166  1.5513
   59MOL0     H 7738   9.162  10.679  10.991 -3.0198  0.1276  0.9976
   59MOL0     H 7739   8.947  10.565  10.818  0.6362 -0.1069  0.7333
   59MOL0     H 7740   8.955  10.743  10.861  1.0877  0.3964 -0.5225
   59MOL0     H 7741   8.713  10.517  10.941 -0.9705  3.4680 -1.8678
   59MOL0     H 7742   8.663  10.468  11.337 -2.0999  1.0920  0.7590
   59MOL0     H 7743   8.634  10.382  11.198  1.2712  0.4235  1.2672
   59MOL0     H 7744   8.483  10.582  11.109  1.2835  0.8818 -0.1632
   59MOL0     H 7745   8.537  10.690  11.224 -0.8405 -0.4738  1.7953
   59MOL0     H 7746   8.476  10.562  11.410 -1.0692  0.6640  0.3509
   59MOL0     H 7747   8.340  10.627  11.321  0.5661  1.3564 -2.2487
   59MOL0     H 7748   8.330  10.352  11.402  1.0303  2.3952  2.8456
   59MOL0     H 7749   8.431  10.342  11.257  0.6851 -0.4208  1.7340
   59MOL0     H 7750   8.151  10.310  11.483  1.3195 -1.7806 -0.3101
   59MOL0     H 7751   7.924  10.276  11.536  1.8464 -1.4970 -0.6264
   59MOL0     H 7752   7.584  10.392  11.667  0.4529 -0.3882  1.8359
   59MOL0     H 7753   7.380  10.344  11.791  1.1399 -0.1475  1.1418
   59MOL0     H 7754   7.155  10.378  11.816 -0.4899  0.0082 -2.6616
   59MOL0     H 7755   7.185  10.223  11.899  0.1637 -1.5505 -1.2861
   59MOL0     H 7756   6.922  10.271  11.740 -1.7471  2.3527  1.1235
   59MOL0     H 7757   6.946  10.312  11.912 -1.3236 -0.2195 -0.3114
   59MOL0     H 7758   6.990  10.103  11.980  0.7695 -2.3771 -0.5255
   59MOL0     H 7759   7.020  10.036  11.820  0.7180 -0.4640  0.2141
   59MOL0     H 7760   6.749  10.091  11.935 -0.8254 -0.9355 -0.0796
   59MOL0     H 7761   6.768  10.098  11.767 -1.3015  0.2718  0.5507
   59MOL0     H 7762   6.869   9.841  11.925 -2.2145 -0.3105  0.8413
   59MOL0     H 7763   6.844   9.866  11.751  2.6077 -0.1927  0.4291
   59MOL0     H 7764   6.595   9.903  11.826  1.3956 -0.5172 -3.0605
   59MOL0     H 7765   6.663   9.858  11.990 -0.5917 -0.4393  0.1902
   59MOL0     H 7766   6.604   9.699  11.743 -1.0423  1.1173  0.7051
   59MOL0     H 7767   6.740   9.641  11.851 -0.6364 -1.8224 -1.5094
   59MOL0     H 7768   6.456   9.688  11.947 -0.2339  0.0907  2.2363
   59MOL0     H 7769   6.591   9.631  12.044  0.7744  1.8834 -0.5439
   59MOL0     H 7770   7.244  10.100  11.470 -0.7750 -0.3341  0.4989
   59MOL0     H 7771   7.472  10.103  11.374  1.5323 -0.6727  0.0536
   59MOL0     H 7772   7.812  10.317  11.129  1.5433  0.4472 -1.9900
   59MOL0     H 7773   8.054  10.389  11.064 -0.2221  1.9028  0.2629
   59MOL0     H 7774  10.031  10.465  10.533 -2.4599  3.3055  0.6390
   59MOL0     H 7775  10.253  10.384  10.609  0.6447 -0.3276  0.7743
   59MOL0     H 7776  10.468  10.233  11.016 -0.3607 -1.9328 -1.5827
   59MOL0     H 7777  10.679  10.160  11.119 -0.0588 -3.1155 -1.1212
   59MOL0     H 7778  10.879   9.979  11.083  1.9731 -0.8143  0.2203
   59MOL0     H 7779  10.849  10.111  11.192  0.0186 -0.0408  0.6859
   59MOL0     H 7780  11.091  10.151  11.217  1.9173 -2.1213  0.0897
   59MOL0     H 7781  11.037   9.997  11.269  0.2918 -0.8353 -0.0352
   59MOL0     H 7782  11.128  10.000  10.980  0.8560 -2.0786  0.4748
   59MOL0     H 7783  11.150   9.877  11.093  1.4778  0.2140  0.9322
   59MOL0     H 7784  11.282  10.153  11.070 -0.5037 -0.2635  1.9609
   59MOL0     H 7785  11.300  10.061  11.213 -2.6614 -2.3575  0.4241
   59MOL0     H 7786  11.599   9.888  10.957 -2.0604 -1.2992 -2.2819
   59MOL0     H 7787  10.890  10.303  10.782 -1.4529 -2.1730 -1.8317
   59MOL0     H 7788  10.687  10.402  10.679  1.0429 -0.2769 -0.3412
   60MOL0     O 7789   2.083   9.156   6.076  0.0560 -0.5134  0.0356
   60MOL0     C 7790   2.083   9.034   6.088 -0.0097  0.4085  0.5379
   60MOL0     O 7791   1.972   8.953   6.074  0.9340  0.2170 -0.0591
   60MOL0     C 7792   1.843   9.003   6.049 -0.0887  1.2965  0.8613
   60MOL0     C 7793   1.738   8.926   6.089  0.7208 -0.5801 -0.0031
   60MOL0     C 7794   1.604   8.964   6.090 -0.0509  0.0239  0.1984
   60MOL0     C 7795   1.567   9.083   6.032 -0.7706 -0.1693 -0.4265
   60MOL0     O 7796   1.434   9.114   6.028 -0.4511 -0.0883 -0.1493
   60MOL0     C 7797   1.372   9.199   5.927 -0.9026 -0.4701 -0.0768
   60MOL0     C 7798   1.236   9.152   5.915  0.5813 -0.8722  0.3864
   60MOL0     C 7799   1.158   9.164   6.049 -0.8140  0.2499  0.1262
   60MOL0     C 7800   1.024   9.094   6.017  0.1022  0.1720  1.0120
   60MOL0     C 7801   0.933   9.119   6.137 -0.2484  0.7724 -0.5506
   60MOL0     C 7802   0.833   9.003   6.143 -0.3728  0.0966  0.7082
   60MOL0     C 7803   0.712   9.030   6.240  0.5335 -0.8531 -0.7217
   60MOL0     C 7804   0.600   9.121   6.183  0.6641 -0.1591 -0.3931
   60MOL0     N 7805   0.490   9.136   6.276  0.4360 -0.3210 -0.4509
   60MOL0     C 7806   0.420   9.042   6.346  0.0169 -0.5338  0.1054
   60MOL0     C 7807   0.350   9.107   6.445 -1.1467 -0.0767 -0.0851
   60MOL0     C 7808   0.272   9.052   6.558  0.0895  0.6384 -1.1142
   60MOL0     C 7809   0.128   9.021   6.529 -0.1689 -0.1292  0.4090
   60MOL0     C 7810   0.032   9.146   6.546  0.3962 -0.2375 -0.3135
   60MOL0     C 7811  -0.103   9.086   6.600 -0.2767  0.1007  0.2164
   60MOL0     O 7812  -0.192   9.195   6.620 -0.2078 -0.0187  0.1590
   60MOL0     C 7813  -0.317   9.169   6.657 -0.0310 -0.0585 -0.4888
   60MOL0     C 7814  -0.402   9.277   6.683  0.1983  0.6137 -0.2630
   60MOL0     C 7815  -0.538   9.252   6.705 -0.0080  0.1605  0.9610
   60MOL0     C 7816  -0.599   9.122   6.709  0.2042 -0.3551  0.2371
   60MOL0     C 7817  -0.743   9.095   6.738  0.3254 -0.2387 -0.0784
   60MOL0     O 7818  -0.831   9.197   6.724  0.0191 -0.4561  0.1728
   60MOL0     C 7819  -0.959   9.176   6.754  0.1527  0.3443  1.0766
   60MOL0     C 7820  -1.054   9.170   6.651 -0.0786 -0.1644  0.7108
   60MOL0     C 7821  -1.189   9.156   6.677  0.3605 -0.0349  1.1205
   60MOL0     C 7822  -1.229   9.136   6.809 -0.4383  0.3917 -0.5745
   60MOL0     O 7823  -1.355   9.094   6.844  0.0729 -0.4219 -0.1798
   60MOL0     C 7824  -1.465   9.162   6.783 -0.3682 -0.1613 -0.1572
   60MOL0     C 7825  -1.596   9.133   6.862  0.0466  0.2483 -0.1135
   60MOL0     C 7826  -1.615   9.198   6.998  0.6738 -1.4881 -0.6329
   60MOL0     C 7827  -1.675   9.335   6.981 -0.7722 -0.1903  0.0377
   60MOL0     C 7828  -1.829   9.348   7.000 -0.0600 -0.0240 -0.4080
   60MOL0     C 7829  -1.888   9.463   6.924 -0.3364  0.2963  0.1065
   60MOL0     C 7830  -2.041   9.462   6.935  0.4306 -0.2386  0.0466
   60MOL0     C 7831  -2.113   9.597   6.898 -0.3728 -0.8399 -0.8652
   60MOL0    Cl 7832  -2.067   9.658   6.735 -0.8167  0.1502  0.4905
   60MOL0     C 7833  -1.134   9.139   6.911  0.1303 -0.9904  0.7289
   60MOL0     C 7834  -1.006   9.169   6.884  0.4092  0.7572  0.7286
   60MOL0     O 7835  -0.776   8.980   6.752  0.6471  0.1636  0.0730
   60MOL0     C 7836  -0.507   9.013   6.704  0.8817 -0.1499  0.4220
   60MOL0     C 7837  -0.369   9.034   6.677  0.6920 -0.1627  0.0540
   60MOL0     N 7838   0.367   9.240   6.415  0.0617 -0.0428  0.6137
   60MOL0     N 7839   0.443   9.256   6.317 -0.7149  0.4393 -0.3476
   60MOL0     C 7840   1.671   9.171   5.988  0.8921  0.5927 -0.4171
   60MOL0     C 7841   1.808   9.122   5.990  0.0731 -0.3266 -0.6375
   60MOL0     C 7842   2.197   8.951   6.137 -0.1013 -0.3294  0.5357
   60MOL0     C 7843   2.194   8.812   6.126  0.1027 -0.1774 -0.6130
   60MOL0     C 7844   2.293   8.732   6.191 -0.3366  0.0600  1.0933
   60MOL0     C 7845   2.401   8.778   6.262 -0.1090 -0.0497 -0.5931
   60MOL0     O 7846   2.498   8.691   6.317 -0.2152  0.4060  0.0574
   60MOL0     C 7847   2.543   8.718   6.443  0.6463 -0.0649 -0.3784
   60MOL0     C 7848   2.645   8.620   6.498 -0.1507  0.6508  0.3327
   60MOL0     C 7849   2.788   8.649   6.453 -0.1557 -0.0133 -0.3480
   60MOL0     C 7850   2.828   8.789   6.424  0.5557  0.7922  0.2482
   60MOL0     C 7851   2.974   8.787   6.405 -0.2865 -0.0309  0.9062
   60MOL0     C 7852   3.092   8.805   6.386  0.7671  0.1105  0.7054
   60MOL0     C 7853   2.411   8.917   6.263 -0.0066  0.4655  0.7185
   60MOL0     C 7854   2.312   9.001   6.204 -0.6262  0.0063 -0.4581
   60MOL0     H 7855   1.752   8.825   6.127  0.8076 -0.6423 -0.1984
   60MOL0     H 7856   1.523   8.896   6.114  1.8306 -2.8000 -0.8804
   60MOL0     H 7857   1.441   9.201   5.843  0.3222 -1.6854  0.8632
   60MOL0     H 7858   1.370   9.308   5.938 -0.9722 -0.3676 -0.9821
   60MOL0     H 7859   1.245   9.055   5.865  1.6846  1.3893 -4.3854
   60MOL0     H 7860   1.181   9.218   5.847 -1.2880 -0.2557  2.4071
   60MOL0     H 7861   1.138   9.269   6.073  0.6963  1.5045 -3.4678
   60MOL0     H 7862   1.222   9.107   6.116  2.0860  0.5355 -2.2053
   60MOL0     H 7863   0.978   9.139   5.929  1.4503  0.1714  0.2988
   60MOL0     H 7864   1.042   8.986   6.009  3.3259  0.7010 -0.2653
   60MOL0     H 7865   0.888   9.218   6.138  0.5082  1.1468  1.0937
   60MOL0     H 7866   0.984   9.110   6.234  1.4976  1.2042 -1.3868
   60MOL0     H 7867   0.892   8.915   6.171  1.2287  0.4956 -1.2665
   60MOL0     H 7868   0.793   8.968   6.048 -1.8167 -2.8004  2.2255
   60MOL0     H 7869   0.675   8.927   6.247  0.5428 -0.8565 -0.7330
   60MOL0     H 7870   0.747   9.068   6.336  0.0600 -1.2370 -0.3914
   60MOL0     H 7871   0.561   9.108   6.081  2.0744  0.2992 -1.0241
   60MOL0     H 7872   0.646   9.220   6.175  0.0812  0.2356  0.9629
   60MOL0     H 7873   0.432   8.935   6.335 -2.2881 -0.7551 -0.7058
   60MOL0     H 7874   0.278   9.127   6.638 -1.5739  0.7718 -1.0860
   60MOL0     H 7875   0.324   8.961   6.587 -0.8511  0.3973 -0.0941
   60MOL0     H 7876   0.100   8.943   6.600  1.0677 -2.0652 -1.1424
   60MOL0     H 7877   0.120   8.974   6.430  1.5000  0.1328  0.1187
   60MOL0     H 7878   0.074   9.206   6.627  1.7519  0.1871 -1.2951
   60MOL0     H 7879   0.013   9.218   6.465 -0.6570  2.7064  2.3406
   60MOL0     H 7880  -0.079   9.036   6.695 -1.7313 -0.6677  0.2025
   60MOL0     H 7881  -0.149   9.024   6.523 -1.0621  2.0313 -0.9301
   60MOL0     H 7882  -0.353   9.374   6.677 -0.1561  0.8063 -0.0397
   60MOL0     H 7883  -0.602   9.340   6.711  1.8151  1.9159 -2.1839
   60MOL0     H 7884  -1.021   9.176   6.548 -1.6479 -0.8571  0.1329
   60MOL0     H 7885  -1.264   9.163   6.599 -2.1063 -0.7265  3.2565
   60MOL0     H 7886  -1.475   9.110   6.688  1.0799 -1.5332  0.4051
   60MOL0     H 7887  -1.458   9.270   6.769 -3.1733 -0.3067 -4.3486
   60MOL0     H 7888  -1.603   9.024   6.869  3.1724 -0.0526 -0.2197
   60MOL0     H 7889  -1.686   9.156   6.804  0.0393 -1.4366 -0.8270
   60MOL0     H 7890  -1.519   9.204   7.050  1.6039 -3.2329 -2.0698
   60MOL0     H 7891  -1.687   9.158   7.069  0.7088  0.1214  0.3582
   60MOL0     H 7892  -1.626   9.394   7.059 -2.5136  1.9526 -0.4103
   60MOL0     H 7893  -1.639   9.377   6.887  0.9774 -1.8257 -0.0886
   60MOL0     H 7894  -1.850   9.352   7.107  1.8962 -1.9973  0.1105
   60MOL0     H 7895  -1.876   9.261   6.953 -0.1206 -1.7368  2.5681
   60MOL0     H 7896  -1.866   9.459   6.817  0.1630  2.9765  0.0507
   60MOL0     H 7897  -1.848   9.552   6.973  1.4709 -1.1985  1.5044
   60MOL0     H 7898  -2.085   9.391   6.865 -1.3410  0.4245  0.4395
   60MOL0     H 7899  -2.077   9.442   7.036 -3.0659  0.8132 -0.8474
   60MOL0     H 7900  -2.071   9.662   6.975 -1.9991 -1.2504  0.4101
   60MOL0     H 7901  -2.221   9.588   6.906 -0.8253  2.3881 -1.9266
   60MOL0     H 7902  -1.178   9.107   7.005  1.4906 -3.3824  0.6318
   60MOL0     H 7903  -0.937   9.188   6.966  0.6161  0.2692  0.6687
   60MOL0     H 7904  -0.553   8.915   6.711 -1.6422  0.9641  0.4068
   60MOL0     H 7905  -0.307   8.949   6.648  0.6069 -0.0842 -0.3494
   60MOL0     H 7906   1.649   9.274   5.960 -0.4980  0.7918  1.2652
   60MOL0     H 7907   1.874   9.195   5.946 -0.5080  0.6794  0.0964
   60MOL0     H 7908   2.130   8.753   6.062  0.5172 -0.3009 -0.9245
   60MOL0     H 7909   2.285   8.624   6.183 -1.5228  0.2709 -2.3993
   60MOL0     H 7910   2.458   8.714   6.513  0.6978  0.9483 -0.2504
   60MOL0     H 7911   2.585   8.818   6.458  0.0770 -0.2292  3.3748
   60MOL0     H 7912   2.645   8.638   6.606  0.2547  2.5484  0.0506
   60MOL0     H 7913   2.612   8.521   6.463  1.3314  0.7019 -1.3818
   60MOL0     H 7914   2.786   8.592   6.360 -1.3606 -4.2231  1.9933
   60MOL0     H 7915   2.854   8.596   6.523  0.7346  0.9112 -0.4673
   60MOL0     H 7916   2.773   8.829   6.339  1.0536 -0.7669 -0.8470
   60MOL0     H 7917   2.809   8.842   6.518 -1.8665 -1.6660  1.2778
   60MOL0     H 7918   3.199   8.807   6.386  0.7885  0.0395  2.0033
   60MOL0     H 7919   2.494   8.959   6.318 -0.9669 -0.5653  3.0806
   60MOL0     H 7920   2.325   9.107   6.220  0.9843 -0.0989 -0.8524
   61MOL0     O 7921   6.164   6.380   7.776  0.2291  0.0717 -0.9355
   61MOL0     C 7922   6.118   6.331   7.884  0.3319 -0.8497  0.4221
   61MOL0     O 7923   5.989   6.336   7.925  1.0390  0.7965 -0.2761
   61MOL0     C 7924   5.899   6.430   7.875 -0.5109  0.1389 -0.2681
   61MOL0     C 7925   5.772   6.406   7.909 -0.5613 -0.2533  0.6059
   61MOL0     C 7926   5.669   6.493   7.884  0.2762 -0.7175  0.9825
   61MOL0     C 7927   5.695   6.615   7.823 -0.1531  1.2005  0.6080
   61MOL0     O 7928   5.584   6.694   7.797 -0.4170 -0.5559 -0.3136
   61MOL0     C 7929   5.600   6.789   7.692  0.0224 -0.1802 -0.2650
   61MOL0     C 7930   5.473   6.844   7.639  0.3492 -0.5600  0.4242
   61MOL0     C 7931   5.358   6.735   7.630 -0.1653 -0.3549  0.5297
   61MOL0     C 7932   5.237   6.803   7.585  0.1864 -0.5846  0.3991
   61MOL0     C 7933   5.116   6.709   7.557  0.6641 -0.5890  0.7338
   61MOL0     C 7934   4.979   6.784   7.540 -0.9901  0.6711 -0.1861
   61MOL0     C 7935   4.863   6.683   7.537 -0.2640 -0.6078  0.1161
   61MOL0     C 7936   4.806   6.641   7.667 -0.1268  0.6533 -0.2034
   61MOL0     N 7937   4.748   6.755   7.733 -0.1368 -0.0553  0.2940
   61MOL0     C 7938   4.758   6.782   7.867  0.4644 -0.8742  0.6787
   61MOL0     C 7939   4.716   6.910   7.870  0.1252 -0.0848 -0.8035
   61MOL0     C 7940   4.702   6.985   8.001  0.1824  0.4793  0.7005
   61MOL0     C 7941   4.583   6.937   8.090 -0.0453 -0.3684  0.5514
   61MOL0     C 7942   4.461   7.021   8.054  0.6523 -0.1635 -0.6943
   61MOL0     C 7943   4.342   6.951   8.120  0.8087 -0.8712  0.1395
   61MOL0     O 7944   4.306   7.001   8.250  0.4739 -0.0452 -0.0502
   61MOL0     C 7945   4.196   6.935   8.315 -0.7201 -0.2982  0.5646
   61MOL0     C 7946   4.106   6.847   8.248 -0.4187 -0.2337  0.0026
   61MOL0     C 7947   3.996   6.798   8.318  0.2257 -0.8846 -0.1173
   61MOL0     C 7948   3.974   6.829   8.461 -0.6017  0.3412  0.4675
   61MOL0     C 7949   3.858   6.775   8.533 -0.6590  0.0277  0.4022
   61MOL0     O 7950   3.784   6.691   8.462  0.1155 -0.2468  0.8413
   61MOL0     C 7951   3.666   6.648   8.503 -0.1660 -0.2381 -1.2146
   61MOL0     C 7952   3.658   6.592   8.635  0.1010 -0.8474  0.6583
   61MOL0     C 7953   3.532   6.553   8.687 -0.0390  0.2969 -0.2082
   61MOL0     C 7954   3.416   6.568   8.613 -0.5209 -1.5058  1.1570
   61MOL0     O 7955   3.290   6.536   8.664  0.2733  0.8710 -0.0897
   61MOL0     C 7956   3.224   6.426   8.592 -0.5420  0.1231  0.2799
   61MOL0     C 7957   3.138   6.333   8.683  0.7146 -1.0816  0.0543
   61MOL0     C 7958   3.014   6.413   8.728 -0.1884  0.8394  0.5386
   61MOL0     C 7959   2.969   6.377   8.867  0.0666 -0.4887 -1.4411
   61MOL0     C 7960   2.830   6.420   8.899  0.4114 -0.9557  0.8526
   61MOL0     C 7961   2.755   6.330   8.993  0.1907  0.6346  0.5120
   61MOL0     C 7962   2.603   6.353   9.015 -0.2177 -0.3387 -0.4638
   61MOL0     C 7963   2.539   6.484   9.034 -0.3157  0.1806 -0.0713
   61MOL0    Cl 7964   2.626   6.556   9.168  0.2254 -0.1693  0.1139
   61MOL0     C 7965   3.424   6.622   8.477 -0.3221 -0.7843 -1.2182
   61MOL0     C 7966   3.555   6.664   8.425  0.1137 -0.2700  0.0327
   61MOL0     O 7967   3.848   6.804   8.647 -0.1077  0.6658  0.2690
   61MOL0     C 7968   4.067   6.914   8.523 -0.1442  0.5084 -0.9176
   61MOL0     C 7969   4.177   6.964   8.451 -0.0519  0.1941  0.4387
   61MOL0     N 7970   4.670   6.960   7.750 -0.3785  0.5636 -0.5792
   61MOL0     N 7971   4.692   6.859   7.663 -0.1645 -0.2654  0.8443
   61MOL0     C 7972   5.833   6.653   7.797  0.0791  0.1854  0.3999
   61MOL0     C 7973   5.936   6.553   7.817  0.3052 -0.3517 -0.1332
   61MOL0     C 7974   6.222   6.292   7.985 -0.0635 -0.0167  0.3873
   61MOL0     C 7975   6.187   6.227   8.101 -0.7120 -0.5803 -0.0543
   61MOL0     C 7976   6.283   6.168   8.183 -0.4961 -0.6626 -0.4817
   61MOL0     C 7977   6.412   6.201   8.168 -0.5554  0.2198  0.4443
   61MOL0     O 7978   6.512   6.171   8.264 -0.5383  0.4487  0.3466
   61MOL0     C 7979   6.617   6.077   8.225 -0.2454  0.2234 -0.1485
   61MOL0     C 7980   6.630   5.988   8.350 -0.3636  0.1479 -0.0114
   61MOL0     C 7981   6.741   5.890   8.338 -0.4314 -0.3062 -0.5260
   61MOL0     C 7982   6.743   5.803   8.462 -0.1242 -0.3204 -0.6811
   61MOL0     C 7983   6.873   5.729   8.474  0.0348 -0.4980 -0.0118
   61MOL0     C 7984   6.967   5.659   8.467  0.4810 -0.1335 -0.5052
   61MOL0     C 7985   6.453   6.269   8.057 -0.3439 -0.9183  0.3837
   61MOL0     C 7986   6.359   6.315   7.959  0.6026  0.1231  0.6718
   61MOL0     H 7987   5.739   6.315   7.957 -2.0224 -0.5611 -0.8882
   61MOL0     H 7988   5.575   6.470   7.932  0.6724  0.5676  2.4760
   61MOL0     H 7989   5.640   6.734   7.607  1.6033  3.3189 -1.9631
   61MOL0     H 7990   5.668   6.873   7.706 -2.9827  2.3747  0.1135
   61MOL0     H 7991   5.487   6.886   7.539 -2.7670 -3.0515 -1.2687
   61MOL0     H 7992   5.443   6.929   7.700 -0.0637 -1.1007  0.9823
   61MOL0     H 7993   5.336   6.678   7.721  1.5491 -0.9995  0.5919
   61MOL0     H 7994   5.384   6.662   7.552 -1.3511  0.7809 -0.9715
   61MOL0     H 7995   5.210   6.876   7.663  2.3014  1.2384 -0.4677
   61MOL0     H 7996   5.259   6.861   7.495 -0.6913 -0.1579  0.4377
   61MOL0     H 7997   5.091   6.643   7.640 -2.0003  0.2321  0.6845
   61MOL0     H 7998   5.139   6.661   7.461  3.0679  0.4750  0.7006
   61MOL0     H 7999   4.989   6.841   7.448  1.5131 -2.5910 -2.1485
   61MOL0     H 8000   4.973   6.857   7.622  1.1762 -0.4704  1.0857
   61MOL0     H 8001   4.799   6.736   7.466 -0.0101  1.9831  1.6957
   61MOL0     H 8002   4.891   6.595   7.479 -1.4796  0.4712 -2.2242
   61MOL0     H 8003   4.876   6.595   7.737  1.2250  2.2449 -0.4391
   61MOL0     H 8004   4.734   6.559   7.656  1.1469 -0.5225 -0.0801
   61MOL0     H 8005   4.802   6.716   7.940  1.3383 -2.6956 -1.3645
   61MOL0     H 8006   4.691   7.091   7.979 -0.5512  0.3642  0.4873
   61MOL0     H 8007   4.791   6.980   8.065  0.7752 -1.2664 -0.1971
   61MOL0     H 8008   4.619   6.958   8.191 -1.2064  0.5127  0.8006
   61MOL0     H 8009   4.572   6.829   8.080 -0.0168 -0.2432 -1.1390
   61MOL0     H 8010   4.488   7.121   8.090 -1.1569 -0.3334  1.2991
   61MOL0     H 8011   4.441   7.034   7.947  2.0937 -3.6562 -1.5191
   61MOL0     H 8012   4.359   6.842   8.123 -1.9155 -1.3564  0.1975
   61MOL0     H 8013   4.255   6.973   8.057 -0.8387 -2.1255  1.8558
   61MOL0     H 8014   4.113   6.821   8.143  1.1886  1.4955 -0.3762
   61MOL0     H 8015   3.929   6.727   8.271  0.9534 -1.4429 -0.3231
   61MOL0     H 8016   3.750   6.587   8.692  1.3519 -2.2477 -1.3596
   61MOL0     H 8017   3.519   6.508   8.785 -0.6296 -0.3117 -0.5670
   61MOL0     H 8018   3.306   6.374   8.541 -1.3667 -0.3728 -0.5765
   61MOL0     H 8019   3.162   6.475   8.516 -0.1897 -0.8379 -0.6467
   61MOL0     H 8020   3.187   6.304   8.777 -3.1141 -0.8214  2.3548
   61MOL0     H 8021   3.119   6.235   8.640  2.6131 -0.5325 -2.2520
   61MOL0     H 8022   2.943   6.391   8.648  1.5126  1.4366 -1.2256
   61MOL0     H 8023   3.029   6.521   8.721 -0.9496  0.8560 -2.5870
   61MOL0     H 8024   2.980   6.269   8.884  0.4535 -0.1069  1.0459
   61MOL0     H 8025   3.035   6.422   8.942  1.9982 -2.4280 -1.8451
   61MOL0     H 8026   2.784   6.420   8.800  0.7961  0.4871  0.6539
   61MOL0     H 8027   2.822   6.522   8.939 -0.8353 -0.5807 -0.2801
   61MOL0     H 8028   2.814   6.332   9.085  1.2162 -0.8210 -0.0672
   61MOL0     H 8029   2.756   6.232   8.944 -2.2409  0.8484 -0.1046
   61MOL0     H 8030   2.553   6.307   8.929 -0.2271  0.1512 -0.7242
   61MOL0     H 8031   2.572   6.288   9.097 -1.4823  1.1020  0.2440
   61MOL0     H 8032   2.430   6.475   9.044 -0.1249 -1.0537  1.2630
   61MOL0     H 8033   2.557   6.545   8.945 -0.0015 -1.1121 -0.9232
   61MOL0     H 8034   3.327   6.635   8.430 -1.0841 -0.2190  0.4290
   61MOL0     H 8035   3.558   6.709   8.326  0.3945 -0.4780 -0.0540
   61MOL0     H 8036   4.048   6.948   8.625  2.4616 -2.7608  0.8867
   61MOL0     H 8037   4.236   7.046   8.492 -2.0870  0.9004  2.1491
   61MOL0     H 8038   5.866   6.748   7.756  1.7804 -0.7268 -0.4485
   61MOL0     H 8039   6.038   6.572   7.785  0.8985 -2.5509  0.2925
   61MOL0     H 8040   6.081   6.210   8.119 -1.7106  2.8041 -1.7943
   61MOL0     H 8041   6.262   6.108   8.272  3.4269  0.2937  1.3222
   61MOL0     H 8042   6.716   6.121   8.212 -0.5555  0.1868 -3.3496
   61MOL0     H 8043   6.594   6.024   8.132  0.1148  0.7416 -0.5323
   61MOL0     H 8044   6.646   6.060   8.431 -1.0440  0.4155 -0.1045
   61MOL0     H 8045   6.531   5.947   8.370  0.2468 -0.8082  1.1038
   61MOL0     H 8046   6.836   5.944   8.323 -2.1427  2.5677 -1.9360
   61MOL0     H 8047   6.723   5.830   8.248 -0.2639 -0.3786 -0.5109
   61MOL0     H 8048   6.724   5.869   8.547  0.5874 -1.2529  0.2225
   61MOL0     H 8049   6.663   5.728   8.459  0.9935 -1.6947  1.2164
   61MOL0     H 8050   7.044   5.584   8.466  1.0760  0.4600 -0.1806
   61MOL0     H 8051   6.548   6.310   8.026 -1.3792  0.2661 -1.4742
   61MOL0     H 8052   6.395   6.367   7.871 -0.4498  1.3142  0.9143
   62MOL0     O 8053   1.880   1.736   6.859 -0.0910  0.1259  0.0331
   62MOL0     C 8054   1.930   1.841   6.898 -0.2180  0.3806  0.2892
   62MOL0     O 8055   1.860   1.950   6.944 -0.6334  0.2200 -0.5940
   62MOL0     C 8056   1.729   1.961   6.930 -0.1221 -0.5099  0.5545
   62MOL0     C 8057   1.668   1.931   6.805 -0.7038 -0.1431  0.7788
   62MOL0     C 8058   1.528   1.947   6.800  0.0207 -0.7005  0.5020
   62MOL0     C 8059   1.451   1.998   6.902  0.3720 -0.7053  0.1968
   62MOL0     O 8060   1.318   2.022   6.872 -0.1393 -0.2808  0.6878
   62MOL0     C 8061   1.216   2.023   6.974  0.1335 -0.4626 -0.4078
   62MOL0     C 8062   1.069   2.020   6.914 -0.4377 -0.1785 -0.0235
   62MOL0     C 8063   1.050   1.909   6.815 -0.3168  0.2378  0.8890
   62MOL0     C 8064   0.926   1.932   6.735 -0.1500  0.1461  0.4006
   62MOL0     C 8065   0.791   1.948   6.807 -0.3045  0.4911  0.1582
   62MOL0     C 8066   0.767   1.838   6.915  1.1706  1.1719 -0.3146
   62MOL0     C 8067   0.614   1.808   6.920 -0.1224 -0.3839 -0.1927
   62MOL0     C 8068   0.585   1.690   7.016  0.2315 -0.3707 -0.6057
   62MOL0     N 8069   0.618   1.714   7.162 -0.1060 -0.1873  0.2753
   62MOL0     C 8070   0.737   1.682   7.226  0.1222 -0.1430  1.1945
   62MOL0     C 8071   0.722   1.711   7.355  1.5653  1.0256  0.4094
   62MOL0     C 8072   0.831   1.692   7.450 -0.2524  0.1499 -0.5280
   62MOL0     C 8073   0.876   1.833   7.486  0.2897  0.1195 -0.0391
   62MOL0     C 8074   0.984   1.897   7.394 -0.6668  0.8811 -1.0300
   62MOL0     C 8075   1.121   1.842   7.424 -0.0361  0.0505  0.3497
   62MOL0     O 8076   1.216   1.934   7.364  0.3881 -0.1302 -0.0419
   62MOL0     C 8077   1.356   1.909   7.384  0.5242 -0.3042  0.5440
   62MOL0     C 8078   1.416   1.788   7.408 -0.4492  0.0090 -0.5672
   62MOL0     C 8079   1.554   1.781   7.407 -0.7585  1.3729 -0.3704
   62MOL0     C 8080   1.632   1.898   7.403  0.6560 -0.1686 -0.9798
   62MOL0     C 8081   1.777   1.892   7.408 -0.4226  0.2341 -0.0666
   62MOL0     O 8082   1.834   2.020   7.401  0.4652  0.0568  0.2351
   62MOL0     C 8083   1.970   2.033   7.370 -0.7373 -1.0624 -0.0439
   62MOL0     C 8084   2.050   1.951   7.285  0.0962  0.7752 -0.1861
   62MOL0     C 8085   2.186   1.966   7.280  0.2217 -0.6895  0.0197
   62MOL0     C 8086   2.243   2.080   7.337  0.4412 -0.7488 -0.5623
   62MOL0     O 8087   2.381   2.089   7.323 -0.5315 -0.2288 -0.1717
   62MOL0     C 8088   2.445   2.219   7.341 -0.8473  0.0845 -0.0353
   62MOL0     C 8089   2.552   2.238   7.233  0.2586  0.0269  0.2771
   62MOL0     C 8090   2.674   2.154   7.263 -0.9229  0.6128  0.1878
   62MOL0     C 8091   2.785   2.188   7.163 -0.4981 -0.2094  0.2606
   62MOL0     C 8092   2.867   2.309   7.194  0.6314 -0.1081  0.4048
   62MOL0     C 8093   2.990   2.325   7.081 -0.3847 -1.2835 -0.6709
   62MOL0     C 8094   3.088   2.442   7.122 -0.0027  0.2237  0.3258
   62MOL0     C 8095   3.193   2.469   7.014  0.7557 -0.0307  0.6444
   62MOL0    Cl 8096   3.265   2.632   7.054  0.1304  0.9654 -0.1654
   62MOL0     C 8097   2.164   2.163   7.422 -1.2185  0.6172 -0.1867
   62MOL0     C 8098   2.035   2.132   7.437  0.5237 -0.3145  0.6086
   62MOL0     O 8099   1.846   1.786   7.401 -0.2588 -0.1960 -0.0649
   62MOL0     C 8100   1.567   2.021   7.383  1.0774  0.2132  0.2981
   62MOL0     C 8101   1.430   2.025   7.369  0.1485 -0.4552 -0.0499
   62MOL0     N 8102   0.595   1.765   7.371 -0.1524 -1.1811 -0.4076
   62MOL0     N 8103   0.547   1.785   7.252  0.2077 -0.3252 -0.3694
   62MOL0     C 8104   1.520   2.039   7.020 -0.4620  0.0346  0.2466
   62MOL0     C 8105   1.657   2.019   7.035 -0.7904  0.2638 -0.5214
   62MOL0     C 8106   2.085   1.851   6.891  0.4857 -0.6478 -0.7251
   62MOL0     C 8107   2.150   1.944   6.966  0.3044 -0.4046  0.1172
   62MOL0     C 8108   2.295   1.942   6.961  0.3352  0.2127  0.5598
   62MOL0     C 8109   2.366   1.841   6.894 -0.2877 -0.8841  0.2221
   62MOL0     O 8110   2.505   1.824   6.883  0.6428 -0.4863  0.4232
   62MOL0     C 8111   2.580   1.926   6.950  0.0683 -0.5047 -0.4713
   62MOL0     C 8112   2.732   1.917   6.915  0.0270 -1.4375 -0.6153
   62MOL0     C 8113   2.765   1.911   6.757 -0.0372 -0.2953  0.4409
   62MOL0     C 8114   2.919   1.895   6.732  0.9719 -0.3632  0.3562
   62MOL0     C 8115   3.001   2.016   6.756 -0.0089 -0.6277  0.2176
   62MOL0     C 8116   3.078   2.111   6.774 -0.3436 -0.7621  0.0590
   62MOL0     C 8117   2.292   1.742   6.824  0.8971  0.3605 -0.2013
   62MOL0     C 8118   2.154   1.758   6.817  0.9528  0.2008  0.7418
   62MOL0     H 8119   1.724   1.887   6.723  0.5171  0.4363  1.2822
   62MOL0     H 8120   1.469   1.926   6.711 -3.3994 -1.7615  2.8164
   62MOL0     H 8121   1.220   2.118   7.029 -0.2991  1.6870 -3.7549
   62MOL0     H 8122   1.229   1.946   7.050 -0.7289 -1.2919 -1.0785
   62MOL0     H 8123   1.056   2.119   6.870 -0.6613 -0.2916 -0.2132
   62MOL0     H 8124   0.998   2.002   6.995  1.7351 -2.8305  1.4855
   62MOL0     H 8125   1.048   1.813   6.866 -2.4169 -1.4286 -2.0085
   62MOL0     H 8126   1.126   1.890   6.739 -0.1647 -1.4542  1.4287
   62MOL0     H 8127   0.929   2.028   6.682 -1.4916 -0.1282 -0.1967
   62MOL0     H 8128   0.921   1.856   6.657 -1.1102  2.0568 -1.5229
   62MOL0     H 8129   0.721   1.931   6.725  1.6228 -0.9282 -1.2814
   62MOL0     H 8130   0.791   2.047   6.854  0.6699  0.9075 -0.6903
   62MOL0     H 8131   0.802   1.865   7.016  0.9837 -1.3746  0.4889
   62MOL0     H 8132   0.822   1.747   6.891  1.3167  1.5073 -1.3092
   62MOL0     H 8133   0.552   1.891   6.957 -2.3469 -1.9841 -0.1158
   62MOL0     H 8134   0.579   1.784   6.819 -2.4411 -1.2393  0.7447
   62MOL0     H 8135   0.635   1.604   6.970  0.6504  0.0382 -0.9228
   62MOL0     H 8136   0.479   1.666   7.002 -0.1465 -1.1809  2.7724
   62MOL0     H 8137   0.818   1.635   7.173 -1.5066 -0.6497 -1.0126
   62MOL0     H 8138   0.915   1.632   7.416  0.1924  0.3499  0.2115
   62MOL0     H 8139   0.790   1.642   7.538  1.0685  2.3781  1.4527
   62MOL0     H 8140   0.922   1.828   7.585  1.4499  2.0964 -0.4286
   62MOL0     H 8141   0.780   1.886   7.496 -0.4884 -1.4477  1.2610
   62MOL0     H 8142   0.959   1.869   7.291  0.4981  1.4280 -1.4721
   62MOL0     H 8143   0.985   2.005   7.411  1.0637  0.7740 -0.2770
   62MOL0     H 8144   1.121   1.739   7.387  1.2318  0.8366 -2.1344
   62MOL0     H 8145   1.143   1.854   7.530  0.6450 -1.9360  0.4786
   62MOL0     H 8146   1.356   1.702   7.436  1.4026 -1.2035 -0.1598
   62MOL0     H 8147   1.611   1.689   7.407  1.0125  2.4159  0.5089
   62MOL0     H 8148   2.004   1.873   7.226 -0.6627  1.2023 -0.1763
   62MOL0     H 8149   2.255   1.905   7.223 -0.3745  0.4569 -2.0317
   62MOL0     H 8150   2.482   2.234   7.443  0.6379  0.3481 -0.5851
   62MOL0     H 8151   2.370   2.299   7.335  1.3789  2.3199  0.3344
   62MOL0     H 8152   2.576   2.344   7.230 -1.2322  0.3565 -1.2492
   62MOL0     H 8153   2.513   2.208   7.136 -1.5418  0.2416  0.9046
   62MOL0     H 8154   2.658   2.046   7.255  0.1184  0.4863 -0.3028
   62MOL0     H 8155   2.699   2.177   7.367 -1.2667 -1.4163  0.7629
   62MOL0     H 8156   2.849   2.099   7.157 -0.6095 -0.4086  1.7030
   62MOL0     H 8157   2.736   2.207   7.067  1.6081  1.6350 -0.5322
   62MOL0     H 8158   2.924   2.296   7.286  1.6491 -2.8432 -0.5216
   62MOL0     H 8159   2.806   2.400   7.199  0.8975  0.3073 -2.3771
   62MOL0     H 8160   2.958   2.346   6.979  0.2896  3.2581 -0.1592
   62MOL0     H 8161   3.040   2.228   7.088  0.6639 -0.7307 -0.3933
   62MOL0     H 8162   3.026   2.531   7.137  0.0086 -0.1949  3.2289
   62MOL0     H 8163   3.134   2.413   7.216  3.5459  0.1383 -1.2653
   62MOL0     H 8164   3.146   2.479   6.916 -0.5553  2.0062  1.4038
   62MOL0     H 8165   3.275   2.397   7.017 -0.3676 -1.3203  1.3766
   62MOL0     H 8166   2.206   2.254   7.465  0.3884  0.4152 -1.2228
   62MOL0     H 8167   1.977   2.197   7.502  1.8196  2.8054 -1.1353
   62MOL0     H 8168   1.628   2.110   7.374 -0.1480  1.2066  1.2895
   62MOL0     H 8169   1.374   2.115   7.346 -2.0864 -2.0545 -1.2974
   62MOL0     H 8170   1.473   2.102   7.095  2.0222  1.0511  1.0661
   62MOL0     H 8171   1.707   2.041   7.129 -2.4980 -1.3987  0.8701
   62MOL0     H 8172   2.099   2.025   7.018  0.8648  1.0845 -1.5522
   62MOL0     H 8173   2.348   2.021   7.013 -1.0931  2.1240 -0.7437
   62MOL0     H 8174   2.565   1.911   7.057  1.4980  1.2851  0.0306
   62MOL0     H 8175   2.549   2.028   6.925 -2.0168 -0.3131  2.4602
   62MOL0     H 8176   2.775   2.006   6.963 -1.5869 -1.7364  1.5611
   62MOL0     H 8177   2.768   1.831   6.972 -1.2752 -0.2560  2.1950
   62MOL0     H 8178   2.731   2.004   6.709  2.0609 -0.8300 -2.3153
   62MOL0     H 8179   2.709   1.831   6.708 -0.7577  0.9812 -0.9265
   62MOL0     H 8180   2.954   1.801   6.777 -1.2832 -2.0151 -1.1153
   62MOL0     H 8181   2.938   1.883   6.625 -3.1451 -0.3140 -0.5302
   62MOL0     H 8182   3.147   2.183   6.812  0.4991 -0.9810 -1.0085
   62MOL0     H 8183   2.339   1.662   6.767 -0.6831  1.7748 -3.7692
   62MOL0     H 8184   2.095   1.680   6.771 -1.9012  1.2435  2.3881
   63MOL0     O 8185   7.756   0.866   7.172  0.1266 -0.1761 -0.0274
   63MOL0     C 8186   7.837   0.957   7.158  0.6984 -0.2590 -0.2106
   63MOL0     O 8187   7.812   1.091   7.155 -0.7113 -0.1359  0.2015
   63MOL0     C 8188   7.688   1.130   7.181 -0.0417  0.1347  0.0940
   63MOL0     C 8189   7.649   1.193   7.302  0.1727 -0.5556  0.1362
   63MOL0     C 8190   7.512   1.220   7.332 -1.0434  0.7065 -0.0849
   63MOL0     C 8191   7.411   1.191   7.239 -0.2941 -0.3571 -0.0084
   63MOL0     O 8192   7.275   1.213   7.240  0.2130  0.1245  0.2791
   63MOL0     C 8193   7.217   1.220   7.367 -0.3347 -0.3752 -0.0482
   63MOL0     C 8194   7.223   1.093   7.459  0.0339  0.5652  0.7482
   63MOL0     C 8195   7.152   1.119   7.589  0.1956  0.3835 -1.0733
   63MOL0     C 8196   7.003   1.160   7.592 -0.5469  0.1944  0.6058
   63MOL0     C 8197   6.905   1.071   7.510 -0.1902  0.4710 -0.6626
   63MOL0     C 8198   6.868   0.932   7.573  0.6004 -0.5449 -0.1504
   63MOL0     C 8199   6.963   0.820   7.549  0.5999  0.1043  0.5268
   63MOL0     C 8200   6.954   0.762   7.401  0.1940 -0.2747 -0.2293
   63MOL0     N 8201   6.830   0.693   7.372  1.2523 -0.2797 -0.3184
   63MOL0     C 8202   6.758   0.722   7.263 -0.0076 -0.3815 -0.6246
   63MOL0     C 8203   6.663   0.626   7.246 -0.4139  0.0756  0.3158
   63MOL0     C 8204   6.554   0.616   7.146 -0.0669 -0.1925  0.2852
   63MOL0     C 8205   6.429   0.691   7.201 -0.1213 -0.1561  0.4881
   63MOL0     C 8206   6.316   0.655   7.111 -0.6453  0.2895 -0.0203
   63MOL0     C 8207   6.178   0.733   7.159 -0.1037  0.6458  0.1016
   63MOL0     O 8208   6.157   0.708   7.296 -0.1364  0.6245 -0.9563
   63MOL0     C 8209   6.025   0.723   7.344 -0.6785  0.2209 -0.2697
   63MOL0     C 8210   6.008   0.692   7.475 -0.2850  0.9437  0.1556
   63MOL0     C 8211   5.885   0.678   7.533 -0.6359  0.4472  0.1370
   63MOL0     C 8212   5.771   0.710   7.459 -1.2827 -0.5117  0.2785
   63MOL0     C 8213   5.625   0.694   7.511  1.3203  0.0172  0.1954
   63MOL0     O 8214   5.607   0.659   7.644  0.1895  0.7398 -1.0957
   63MOL0     C 8215   5.485   0.614   7.687  0.3458  0.3507 -0.5839
   63MOL0     C 8216   5.375   0.698   7.723 -0.6464  0.5789  0.2576
   63MOL0     C 8217   5.255   0.651   7.772  0.7475  0.3978  0.1551
   63MOL0     C 8218   5.232   0.516   7.782 -0.1426 -0.6114  1.5014
   63MOL0     O 8219   5.105   0.473   7.807 -0.2350 -0.1876 -0.6424
   63MOL0     C 8220   5.039   0.416   7.706  0.2820 -0.1921  0.3095
   63MOL0     C 8221   4.898   0.392   7.756 -0.3301  0.4510  0.1282
   63MOL0     C 8222   4.897   0.287   7.859  0.5239  0.2680 -0.4704
   63MOL0     C 8223   4.757   0.255   7.894  0.9910 -0.0268  0.6121
   63MOL0     C 8224   4.759   0.117   7.955 -0.2209  0.1105  0.1692
   63MOL0     C 8225   4.632   0.084   8.028 -0.1363 -0.8699 -1.0621
   63MOL0     C 8226   4.628  -0.057   8.076 -0.7419  0.1971 -0.3369
   63MOL0     C 8227   4.486  -0.104   8.108 -0.2193 -0.0352 -0.0068
   63MOL0    Cl 8228   4.434  -0.008   8.251 -0.4596 -0.4508  0.0253
   63MOL0     C 8229   5.336   0.434   7.737  0.1673 -0.6846  1.0050
   63MOL0     C 8230   5.462   0.476   7.702  0.1843  0.4504  0.0464
   63MOL0     O 8231   5.529   0.698   7.436 -0.4797 -0.5581 -0.2676
   63MOL0     C 8232   5.788   0.742   7.321  0.1438  0.0892  0.2582
   63MOL0     C 8233   5.914   0.761   7.269 -0.5939  0.5312  0.7259
   63MOL0     N 8234   6.690   0.531   7.345  0.0868 -0.4041  0.6141
   63MOL0     N 8235   6.793   0.574   7.418 -0.0813  0.5262 -0.2982
   63MOL0     C 8236   7.456   1.148   7.112 -0.1725  0.9651  0.2086
   63MOL0     C 8237   7.588   1.116   7.087 -0.5090  0.0673  0.2390
   63MOL0     C 8238   7.982   0.931   7.121  0.3772 -0.1199  0.0042
   63MOL0     C 8239   8.022   0.822   7.048 -0.0749  0.4663 -0.3652
   63MOL0     C 8240   8.152   0.792   7.016 -0.4981  0.3817  0.6728
   63MOL0     C 8241   8.258   0.885   7.039 -0.2730  0.1169 -0.6603
   63MOL0     O 8242   8.390   0.873   6.988  0.1247  0.0708 -0.4494
   63MOL0     C 8243   8.424   0.752   6.916 -0.1025 -0.5317  0.6038
   63MOL0     C 8244   8.576   0.724   6.908 -0.1246  0.0757  1.0349
   63MOL0     C 8245   8.611   0.615   6.804  0.1989 -0.5413  0.2239
   63MOL0     C 8246   8.765   0.615   6.787 -0.1462  0.0769  0.7463
   63MOL0     C 8247   8.797   0.532   6.665 -0.2255  0.8639  0.5096
   63MOL0     C 8248   8.836   0.446   6.584 -0.7020  0.1338 -0.8505
   63MOL0     C 8249   8.220   1.003   7.109  0.1279 -0.0058 -0.3856
   63MOL0     C 8250   8.087   1.017   7.158 -0.3988  0.1338  0.6236
   63MOL0     H 8251   7.720   1.201   7.385 -1.9033 -1.4832  2.1083
   63MOL0     H 8252   7.488   1.260   7.430  1.1882  0.9839  0.4027
   63MOL0     H 8253   7.111   1.243   7.355 -0.1442 -0.3639 -1.9049
   63MOL0     H 8254   7.260   1.301   7.427  0.2931 -0.4913 -0.3352
   63MOL0     H 8255   7.326   1.064   7.482 -0.5418 -2.4480 -0.1017
   63MOL0     H 8256   7.175   1.019   7.394 -1.6963  2.1973  0.0750
   63MOL0     H 8257   7.199   1.198   7.649 -1.3798  0.5080  0.0887
   63MOL0     H 8258   7.170   1.028   7.646  4.2936  1.3884 -0.4536
   63MOL0     H 8259   6.968   1.158   7.695  3.0962 -0.5743  1.9960
   63MOL0     H 8260   6.986   1.262   7.555 -3.8780 -0.4209  0.1353
   63MOL0     H 8261   6.936   1.068   7.406 -0.8788 -0.0766 -0.8559
   63MOL0     H 8262   6.819   1.139   7.519 -1.1451 -0.8474  0.8957
   63MOL0     H 8263   6.768   0.902   7.541 -0.0131 -1.1494  2.1315
   63MOL0     H 8264   6.868   0.958   7.679  0.5732 -1.5167  0.0935
   63MOL0     H 8265   7.067   0.855   7.557  1.1055 -0.9555 -0.9563
   63MOL0     H 8266   6.943   0.740   7.621 -2.2809  0.4985  0.2707
   63MOL0     H 8267   7.040   0.697   7.380 -0.9678 -0.9532 -3.5755
   63MOL0     H 8268   6.955   0.843   7.327 -1.3431 -1.8853 -2.1629
   63MOL0     H 8269   6.777   0.813   7.207  0.2515  0.6169  1.0348
   63MOL0     H 8270   6.537   0.513   7.114  2.3388  0.2361 -2.9156
   63MOL0     H 8271   6.601   0.661   7.058 -0.9230 -3.0938 -1.7991
   63MOL0     H 8272   6.448   0.799   7.204 -0.2099 -0.1545  2.1250
   63MOL0     H 8273   6.408   0.648   7.299  0.8947 -1.6211  0.0891
   63MOL0     H 8274   6.330   0.696   7.010 -4.0599  0.5970 -0.4754
   63MOL0     H 8275   6.290   0.549   7.106 -2.0539  0.6711 -2.7250
   63MOL0     H 8276   6.100   0.688   7.096 -1.5027  1.0219  1.4934
   63MOL0     H 8277   6.179   0.840   7.135  3.0956  1.0517  1.5847
   63MOL0     H 8278   6.082   0.658   7.547 -0.9888  0.0860  0.4923
   63MOL0     H 8279   5.877   0.652   7.638 -1.2779  1.3889  0.3309
   63MOL0     H 8280   5.389   0.803   7.701  0.0695  0.2764 -0.8296
   63MOL0     H 8281   5.169   0.710   7.801  1.4904  0.6738  2.0043
   63MOL0     H 8282   5.084   0.319   7.685  0.6192 -0.2432  1.2437
   63MOL0     H 8283   5.040   0.491   7.626 -3.6049  0.2805  0.5478
   63MOL0     H 8284   4.844   0.353   7.670 -2.5635  1.6069  0.9264
   63MOL0     H 8285   4.846   0.482   7.790 -3.1021 -0.8104 -0.4781
   63MOL0     H 8286   4.962   0.310   7.944  0.8892  2.3019 -1.2600
   63MOL0     H 8287   4.945   0.197   7.817  0.1624  1.3467 -3.3872
   63MOL0     H 8288   4.714   0.334   7.956  2.8794  1.5706 -0.0438
   63MOL0     H 8289   4.691   0.252   7.806  0.8898 -0.1840  0.6918
   63MOL0     H 8290   4.846   0.106   8.020 -1.3425 -0.0985  1.6685
   63MOL0     H 8291   4.774   0.041   7.877 -0.7513  0.0962  0.0774
   63MOL0     H 8292   4.551   0.096   7.955 -2.8209  0.0148  1.8843
   63MOL0     H 8293   4.625   0.164   8.102 -0.2254 -1.5186 -0.3666
   63MOL0     H 8294   4.655  -0.114   7.987  1.5476 -0.6242  0.7945
   63MOL0     H 8295   4.689  -0.088   8.162 -1.8719 -0.3190  0.3090
   63MOL0     H 8296   4.481  -0.211   8.129 -3.1234 -0.2463 -1.2674
   63MOL0     H 8297   4.423  -0.085   8.020  0.4665 -2.1968 -1.0143
   63MOL0     H 8298   5.330   0.326   7.742  2.6237 -0.8807  1.2386
   63MOL0     H 8299   5.537   0.404   7.671 -0.9931  0.8240 -4.2761
   63MOL0     H 8300   5.704   0.774   7.260  0.9360  1.9293  0.0621
   63MOL0     H 8301   5.915   0.784   7.163  1.4161  0.1017  0.5931
   63MOL0     H 8302   7.382   1.135   7.034  2.2220 -0.3997 -2.0040
   63MOL0     H 8303   7.635   1.084   6.994 -0.2307 -0.0635  0.4232
   63MOL0     H 8304   7.937   0.761   7.019  0.5642 -0.4332 -0.3888
   63MOL0     H 8305   8.165   0.703   6.955 -0.9534 -0.7952  2.2100
   63MOL0     H 8306   8.380   0.753   6.816  1.4737  1.1942 -0.1471
   63MOL0     H 8307   8.385   0.669   6.975 -0.2314  1.5128  3.6669
   63MOL0     H 8308   8.618   0.817   6.869 -0.3109 -0.9413 -1.9091
   63MOL0     H 8309   8.613   0.702   7.008  0.5939  3.2479  1.5782
   63MOL0     H 8310   8.561   0.655   6.715 -0.8769  2.9399  2.1980
   63MOL0     H 8311   8.556   0.524   6.831 -2.4404  0.8326 -0.1590
   63MOL0     H 8312   8.800   0.714   6.755  0.1110  0.4869  2.1828
   63MOL0     H 8313   8.812   0.581   6.880 -1.6104  0.8339  1.8177
   63MOL0     H 8314   8.877   0.382   6.509 -2.1397 -1.0999 -0.6261
   63MOL0     H 8315   8.306   1.068   7.119  0.6341 -0.8261  0.8690
   63MOL0     H 8316   8.055   1.098   7.224 -0.6180  3.1033 -2.8321
   64MOL0     O 8317   8.304   3.699   6.379 -0.0327 -0.1712 -0.0260
   64MOL0     C 8318   8.366   3.735   6.481 -0.2627  1.5799 -0.8685
   64MOL0     O 8319   8.306   3.760   6.595 -0.9363  0.0911  0.3985
   64MOL0     C 8320   8.168   3.768   6.606 -1.1902 -0.0252 -0.6118
   64MOL0     C 8321   8.103   3.894   6.621  0.2531  0.6801  0.1256
   64MOL0     C 8322   7.970   3.902   6.659  1.4323 -0.3561  1.0693
   64MOL0     C 8323   7.897   3.782   6.680 -0.0457  0.1942  0.1284
   64MOL0     O 8324   7.766   3.764   6.689 -0.2314 -0.3394  0.0015
   64MOL0     C 8325   7.685   3.882   6.671 -0.1043 -0.1197  0.1757
   64MOL0     C 8326   7.533   3.859   6.675 -0.4771 -0.3248 -0.6436
   64MOL0     C 8327   7.461   3.794   6.797 -0.3226  0.0358 -0.1076
   64MOL0     C 8328   7.458   3.869   6.935 -0.2803 -0.0390 -0.3474
   64MOL0     C 8329   7.337   3.833   7.015  1.1001 -0.5847  0.3685
   64MOL0     C 8330   7.337   3.694   7.071  1.4352 -0.5174  0.6465
   64MOL0     C 8331   7.201   3.668   7.135 -0.5350 -0.3362 -0.4033
   64MOL0     C 8332   7.169   3.522   7.171  0.9918  0.9135  0.0143
   64MOL0     N 8333   7.148   3.428   7.056 -0.5548 -0.4160 -0.5497
   64MOL0     C 8334   7.067   3.432   6.946 -0.2998 -0.0649  0.1109
   64MOL0     C 8335   7.093   3.320   6.875  0.4316 -0.3951  0.2211
   64MOL0     C 8336   7.034   3.277   6.748 -0.4068  0.0435  0.0963
   64MOL0     C 8337   6.937   3.166   6.762 -0.2510  0.8607  0.0327
   64MOL0     C 8338   6.928   3.067   6.639  0.2280 -0.0594 -0.2405
   64MOL0     C 8339   6.866   3.128   6.518  0.2433 -0.2649 -0.6365
   64MOL0     O 8340   6.820   3.036   6.422  0.2684 -0.2522 -0.0150
   64MOL0     C 8341   6.695   2.974   6.431  0.7796  0.5510  0.9443
   64MOL0     C 8342   6.662   2.877   6.336  0.4684  0.0467 -0.4275
   64MOL0     C 8343   6.545   2.803   6.356  0.7398 -0.6638  0.5586
   64MOL0     C 8344   6.457   2.833   6.468  0.7647  0.3335 -0.3063
   64MOL0     C 8345   6.338   2.748   6.505 -0.6115  0.0118 -0.4801
   64MOL0     O 8346   6.276   2.693   6.403  0.6681  0.1509  0.8953
   64MOL0     C 8347   6.151   2.642   6.420  0.2935 -0.1870  0.0653
   64MOL0     C 8348   6.101   2.545   6.325 -1.0937  0.1120  0.0137
   64MOL0     C 8349   5.982   2.485   6.347  0.7622  0.2109 -0.1258
   64MOL0     C 8350   5.895   2.538   6.448  0.5526  0.0421  0.3857
   64MOL0     O 8351   5.767   2.485   6.457 -0.4523 -0.1814 -0.3218
   64MOL0     C 8352   5.671   2.533   6.556  0.6727 -0.2835 -0.2786
   64MOL0     C 8353   5.540   2.460   6.547 -0.4430 -0.0852  0.4105
   64MOL0     C 8354   5.458   2.476   6.422 -0.4400 -0.1459 -0.1423
   64MOL0     C 8355   5.421   2.619   6.430 -0.0377  0.0000 -0.3293
   64MOL0     C 8356   5.310   2.652   6.335 -0.1653 -0.1100  1.0907
   64MOL0     C 8357   5.374   2.689   6.197 -0.2605  0.0208  0.4623
   64MOL0     C 8358   5.264   2.723   6.093 -0.4558  0.5454  0.9610
   64MOL0     C 8359   5.310   2.712   5.942  0.0810 -0.8042  0.0301
   64MOL0    Cl 8360   5.310   2.876   5.861  0.2749  0.4822 -0.3394
   64MOL0     C 8361   5.935   2.647   6.521 -0.1200 -1.4436 -0.1417
   64MOL0     C 8362   6.062   2.700   6.506  0.8291  0.7580 -0.7994
   64MOL0     O 8363   6.318   2.724   6.626  0.2768  0.5837 -0.3430
   64MOL0     C 8364   6.491   2.937   6.550 -0.2605  0.1806 -0.0879
   64MOL0     C 8365   6.610   3.004   6.530 -0.1457 -0.0719 -0.0009
   64MOL0     N 8366   7.173   3.239   6.949  1.1458 -0.3357 -0.6223
   64MOL0     N 8367   7.209   3.307   7.056 -0.3466  0.1211 -0.0420
   64MOL0     C 8368   7.961   3.653   6.663  0.5284 -0.4768 -0.2971
   64MOL0     C 8369   8.099   3.650   6.628 -0.5971 -0.0812 -0.3499
   64MOL0     C 8370   8.509   3.754   6.464  0.7185  0.1177 -0.9765
   64MOL0     C 8371   8.590   3.798   6.573  1.1940  0.6791  0.7885
   64MOL0     C 8372   8.726   3.814   6.554  0.1490  0.1693  0.3371
   64MOL0     C 8373   8.785   3.798   6.427  0.3281  0.0606  0.5433
   64MOL0     O 8374   8.922   3.825   6.405  0.1338  0.5714 -0.0741
   64MOL0     C 8375   8.974   3.851   6.276  0.4856  0.4567  0.1634
   64MOL0     C 8376   9.112   3.917   6.288 -0.2555 -0.5764  0.0428
   64MOL0     C 8377   9.223   3.823   6.346  0.5257 -0.3931 -0.0614
   64MOL0     C 8378   9.347   3.910   6.386  1.1481 -0.1802 -0.2544
   64MOL0     C 8379   9.438   3.824   6.465  0.4117  0.6203  0.1544
   64MOL0     C 8380   9.519   3.751   6.522  0.0852  0.2364  0.2800
   64MOL0     C 8381   8.704   3.747   6.326 -0.6110  0.3248  0.1717
   64MOL0     C 8382   8.569   3.722   6.343 -0.0400  0.0878 -0.1429
   64MOL0     H 8383   8.167   3.982   6.621 -0.3277  1.1151  0.2649
   64MOL0     H 8384   7.912   3.991   6.681 -2.3491 -2.5210  0.7862
   64MOL0     H 8385   7.684   3.923   6.570 -1.6554 -2.9947 -1.1037
   64MOL0     H 8386   7.710   3.965   6.738  3.5002 -1.1670  0.3872
   64MOL0     H 8387   7.494   3.813   6.584  1.7611  1.0139 -2.3899
   64MOL0     H 8388   7.491   3.960   6.670 -2.0281 -0.6402  3.0634
   64MOL0     H 8389   7.498   3.692   6.814 -0.2464 -0.2992 -2.0160
   64MOL0     H 8390   7.356   3.788   6.766 -0.7593  0.1732  1.2823
   64MOL0     H 8391   7.549   3.841   6.988 -0.4172  0.2138  0.0259
   64MOL0     H 8392   7.473   3.974   6.909  0.1276 -0.0894 -0.3132
   64MOL0     H 8393   7.261   3.847   6.937  0.1763 -1.0291  1.1754
   64MOL0     H 8394   7.326   3.910   7.091 -0.8485 -0.2011 -0.2295
   64MOL0     H 8395   7.419   3.673   7.141  2.4503  2.1893  0.3886
   64MOL0     H 8396   7.355   3.619   6.994  0.4973  1.0525 -1.1708
   64MOL0     H 8397   7.194   3.719   7.232  0.9761 -0.0080 -0.4468
   64MOL0     H 8398   7.122   3.715   7.076  0.2666  0.7695 -0.6274
   64MOL0     H 8399   7.076   3.527   7.229  0.0780 -0.7785 -1.1637
   64MOL0     H 8400   7.249   3.489   7.237  2.1247  2.3987 -0.5721
   64MOL0     H 8401   7.006   3.518   6.921 -0.6169 -0.7085 -1.4697
   64MOL0     H 8402   7.110   3.250   6.675 -1.6040  0.4469 -1.3490
   64MOL0     H 8403   6.990   3.365   6.700  0.8143  0.1851 -0.7890
   64MOL0     H 8404   6.843   3.204   6.803 -0.0921 -0.9044  2.2432
   64MOL0     H 8405   6.959   3.104   6.849 -1.3931 -0.9020 -0.8715
   64MOL0     H 8406   7.027   3.037   6.604  0.9330 -1.2421  2.4922
   64MOL0     H 8407   6.884   2.971   6.666  0.6793 -0.1379  0.2282
   64MOL0     H 8408   6.939   3.193   6.468 -1.1063  1.5315 -0.4013
   64MOL0     H 8409   6.786   3.198   6.547  1.0760  0.2799  0.3841
   64MOL0     H 8410   6.737   2.867   6.258  0.7367  0.7097 -0.2696
   64MOL0     H 8411   6.508   2.722   6.293 -4.6518  0.5302  1.7222
   64MOL0     H 8412   6.162   2.509   6.243 -1.1627  0.8289 -0.3656
   64MOL0     H 8413   5.948   2.396   6.295 -0.2903 -0.3521  1.4635
   64MOL0     H 8414   5.652   2.640   6.542 -2.7379 -0.4152  2.0927
   64MOL0     H 8415   5.713   2.509   6.654 -1.0720 -1.7879  0.1569
   64MOL0     H 8416   5.482   2.483   6.637 -0.2657 -2.3645  1.1681
   64MOL0     H 8417   5.571   2.357   6.567 -0.0313  0.4828  3.0327
   64MOL0     H 8418   5.375   2.407   6.428  0.2460 -0.8306  3.4096
   64MOL0     H 8419   5.515   2.463   6.329 -1.6071 -0.8045 -0.7762
   64MOL0     H 8420   5.375   2.638   6.528 -1.0821 -0.9953 -0.6105
   64MOL0     H 8421   5.506   2.688   6.430  0.1417 -0.1375  1.9317
   64MOL0     H 8422   5.256   2.745   6.354  1.9029  1.6558 -1.0926
   64MOL0     H 8423   5.240   2.567   6.337  0.2093 -0.4840 -0.2838
   64MOL0     H 8424   5.437   2.608   6.159 -0.2683 -0.2507  1.0170
   64MOL0     H 8425   5.444   2.773   6.204 -0.3317  0.0004  1.6320
   64MOL0     H 8426   5.185   2.651   6.115 -0.2906  0.6621  2.0326
   64MOL0     H 8427   5.223   2.825   6.102 -1.3304  0.7040 -3.0535
   64MOL0     H 8428   5.233   2.655   5.888 -0.0166 -0.4983 -0.1530
   64MOL0     H 8429   5.409   2.666   5.931  0.1858 -0.4149 -0.6940
   64MOL0     H 8430   5.883   2.700   6.601  1.9213  1.0381 -0.3635
   64MOL0     H 8431   6.075   2.796   6.556 -0.5878  0.4821  0.1723
   64MOL0     H 8432   6.432   2.973   6.633 -0.4080 -0.4007  0.0658
   64MOL0     H 8433   6.632   3.067   6.615  1.1488 -1.1044  0.4638
   64MOL0     H 8434   7.889   3.572   6.672 -0.6086 -0.0623 -3.8773
   64MOL0     H 8435   8.156   3.560   6.608  0.7683  0.2833  1.6237
   64MOL0     H 8436   8.536   3.807   6.667  1.8592  2.7776  1.0143
   64MOL0     H 8437   8.792   3.853   6.630 -0.8698  3.4553 -0.2664
   64MOL0     H 8438   8.904   3.907   6.213  1.0644 -1.9352 -2.8484
   64MOL0     H 8439   8.992   3.752   6.235 -3.0270 -1.2821  2.3464
   64MOL0     H 8440   9.145   3.955   6.191  1.1018  1.8285  1.3543
   64MOL0     H 8441   9.090   4.003   6.352  0.0112  0.1456 -0.8304
   64MOL0     H 8442   9.260   3.741   6.284  1.9615  0.8490 -0.9100
   64MOL0     H 8443   9.181   3.783   6.439  1.1797 -1.6338 -0.2775
   64MOL0     H 8444   9.400   3.956   6.303 -1.7983  1.0608 -1.5993
   64MOL0     H 8445   9.305   3.985   6.453 -2.0535  0.4411 -2.6925
   64MOL0     H 8446   9.591   3.691   6.574 -2.7573 -0.9225  3.1961
   64MOL0     H 8447   8.746   3.726   6.228 -0.3245  3.3770 -0.4603
   64MOL0     H 8448   8.514   3.696   6.254  0.4063 -1.0576 -0.0907
   65MOL0     O 8449   4.696   0.837   4.275 -0.1869 -0.1940  0.0852
   65MOL0     C 8450   4.733   0.846   4.390  0.3452  0.0657  0.6193
   65MOL0     O 8451   4.652   0.845   4.501  0.0658  0.4401 -0.1272
   65MOL0     C 8452   4.521   0.790   4.498  0.3525 -0.4455  0.4000
   65MOL0     C 8453   4.426   0.849   4.575 -0.0589  0.6568  0.8314
   65MOL0     C 8454   4.294   0.800   4.577  0.9474 -0.5519  0.3530
   65MOL0     C 8455   4.255   0.693   4.496 -0.1774  0.1905 -0.3692
   65MOL0     O 8456   4.126   0.649   4.486 -0.1707  0.0915 -0.1083
   65MOL0     C 8457   4.072   0.605   4.613  1.0725 -0.1166 -0.3463
   65MOL0     C 8458   3.950   0.684   4.654 -0.0781  0.2621  0.2619
   65MOL0     C 8459   3.830   0.647   4.571  0.5043 -0.8391  0.5618
   65MOL0     C 8460   3.704   0.716   4.633 -0.5859 -0.8741  0.4435
   65MOL0     C 8461   3.576   0.673   4.567  0.2006  0.7969 -0.1146
   65MOL0     C 8462   3.461   0.728   4.646 -0.4226 -0.9040 -0.1706
   65MOL0     C 8463   3.320   0.681   4.599 -0.4838 -0.4463 -0.9800
   65MOL0     C 8464   3.268   0.768   4.482 -0.1783 -0.1456  0.6425
   65MOL0     N 8465   3.236   0.908   4.507 -0.5300 -0.5535 -0.7330
   65MOL0     C 8466   3.143   0.955   4.597 -0.6667  0.4799  0.0287
   65MOL0     C 8467   3.155   1.080   4.607 -0.0097  0.1904 -0.6317
   65MOL0     C 8468   3.069   1.158   4.704 -1.0550  0.3389  0.9161
   65MOL0     C 8469   2.935   1.191   4.635 -0.5776 -0.4319 -0.4726
   65MOL0     C 8470   2.841   1.250   4.741 -0.0752 -0.4138  0.3298
   65MOL0     C 8471   2.718   1.321   4.683  0.1645 -0.2843  0.2458
   65MOL0     O 8472   2.606   1.314   4.769 -0.1624  0.1440 -0.3604
   65MOL0     C 8473   2.482   1.322   4.719  0.2628 -0.2461 -0.5607
   65MOL0     C 8474   2.458   1.388   4.599 -0.6910 -0.7960  0.2957
   65MOL0     C 8475   2.328   1.395   4.548  0.1872  0.1697  0.4459
   65MOL0     C 8476   2.220   1.323   4.619 -0.1987 -0.5569 -0.8873
   65MOL0     C 8477   2.087   1.322   4.552 -0.5285 -0.7333 -1.0636
   65MOL0     O 8478   1.975   1.298   4.628  0.5969 -1.0150  0.2352
   65MOL0     C 8479   1.847   1.281   4.572 -0.1215  0.2065 -0.2042
   65MOL0     C 8480   1.765   1.184   4.621 -0.3463  0.2188  0.3341
   65MOL0     C 8481   1.638   1.173   4.569 -0.7638 -0.4045 -0.5018
   65MOL0     C 8482   1.590   1.246   4.460 -0.2307 -0.1962  1.0928
   65MOL0     O 8483   1.465   1.239   4.399 -0.0683 -0.0491 -0.2085
   65MOL0     C 8484   1.363   1.156   4.451 -0.6908  0.2279  0.3741
   65MOL0     C 8485   1.310   1.230   4.578  0.0955  0.7462  0.1446
   65MOL0     C 8486   1.156   1.218   4.600 -0.5127 -0.2943  0.1458
   65MOL0     C 8487   1.110   1.064   4.606  0.4115  0.7642  0.5628
   65MOL0     C 8488   0.956   1.050   4.590 -0.4669  0.6714 -0.1711
   65MOL0     C 8489   0.893   1.076   4.720 -0.4343  0.1612  0.2226
   65MOL0     C 8490   0.737   1.084   4.714 -1.4133  0.1343  0.5055
   65MOL0     C 8491   0.677   0.997   4.824  0.4324 -0.1674  0.0423
   65MOL0    Cl 8492   0.499   0.970   4.804  0.1801  0.3973 -0.1239
   65MOL0     C 8493   1.666   1.348   4.415 -0.9285 -0.0839  1.1162
   65MOL0     C 8494   1.798   1.370   4.470  1.0613  0.8176 -0.4593
   65MOL0     O 8495   2.089   1.336   4.431 -0.1355 -0.1034  0.0539
   65MOL0     C 8496   2.250   1.268   4.748  0.0081  0.5662 -0.0970
   65MOL0     C 8497   2.382   1.263   4.795 -0.4070  0.5821 -0.0243
   65MOL0     N 8498   3.254   1.120   4.513 -1.4669  0.0135  0.1792
   65MOL0     N 8499   3.310   1.011   4.460 -0.3848 -0.8077 -0.0170
   65MOL0     C 8500   4.355   0.638   4.420  0.1563  0.6595 -0.1502
   65MOL0     C 8501   4.484   0.688   4.413  0.2956  0.2238  0.6523
   65MOL0     C 8502   4.876   0.884   4.407 -0.0004  0.1256  0.3971
   65MOL0     C 8503   4.921   0.890   4.536 -1.6035 -0.2615 -0.8365
   65MOL0     C 8504   5.060   0.933   4.559  0.2463  1.0037  0.5470
   65MOL0     C 8505   5.146   0.960   4.456  0.6108  0.4961 -0.2829
   65MOL0     O 8506   5.274   1.001   4.497 -0.4142 -0.3457  0.6428
   65MOL0     C 8507   5.378   0.999   4.394  0.1259  0.6620  0.4980
   65MOL0     C 8508   5.519   1.010   4.455 -0.4520  0.2310 -0.0467
   65MOL0     C 8509   5.627   1.037   4.352 -0.2353 -0.4851  0.0793
   65MOL0     C 8510   5.739   1.113   4.439 -0.3268 -0.0699  0.8985
   65MOL0     C 8511   5.861   1.122   4.354 -0.0482 -0.1806 -0.1283
   65MOL0     C 8512   5.960   1.134   4.284 -0.0027 -0.8079  0.5524
   65MOL0     C 8513   5.108   0.946   4.320  0.6336 -0.3730 -0.4492
   65MOL0     C 8514   4.973   0.907   4.304 -0.4573 -0.3590  0.5404
   65MOL0     H 8515   4.465   0.935   4.629  0.4953  0.2447  1.1037
   65MOL0     H 8516   4.217   0.857   4.628  0.7587 -0.5397  0.0523
   65MOL0     H 8517   4.144   0.615   4.694 -3.6976  0.6501  4.3481
   65MOL0     H 8518   4.044   0.501   4.593 -1.6557  0.4156  0.2384
   65MOL0     H 8519   3.976   0.790   4.648  0.1525  0.1171 -2.5789
   65MOL0     H 8520   3.921   0.676   4.760 -2.4299 -2.4505 -0.4545
   65MOL0     H 8521   3.813   0.540   4.558 -0.6866 -0.5088 -0.9203
   65MOL0     H 8522   3.841   0.687   4.469 -2.7684 -0.4353  0.2557
   65MOL0     H 8523   3.704   0.697   4.740  0.7273  0.4852  0.7039
   65MOL0     H 8524   3.720   0.822   4.614 -2.4378 -0.6989 -0.3871
   65MOL0     H 8525   3.569   0.564   4.576  0.4973  0.8839  1.3708
   65MOL0     H 8526   3.568   0.703   4.462  0.0832 -0.9051 -0.6336
   65MOL0     H 8527   3.472   0.837   4.645 -0.8028 -0.8687 -1.7518
   65MOL0     H 8528   3.474   0.693   4.749 -2.4236  0.1906  0.4978
   65MOL0     H 8529   3.326   0.575   4.572  0.1908 -0.9302  0.8833
   65MOL0     H 8530   3.247   0.683   4.681 -0.1364  1.9222 -0.6705
   65MOL0     H 8531   3.181   0.718   4.437  1.4327 -0.7291 -2.0626
   65MOL0     H 8532   3.349   0.762   4.409 -0.5299 -1.1837  0.3226
   65MOL0     H 8533   3.081   0.892   4.659 -0.9793  0.5862 -0.1696
   65MOL0     H 8534   3.130   1.241   4.741  0.4977 -0.9657  1.3875
   65MOL0     H 8535   3.051   1.090   4.788  2.4060 -0.9669  0.7303
   65MOL0     H 8536   2.898   1.093   4.605  0.6684 -0.8746 -0.6226
   65MOL0     H 8537   2.960   1.255   4.549  2.7434 -1.7494 -0.6450
   65MOL0     H 8538   2.819   1.173   4.815  0.0251 -0.0152  0.7821
   65MOL0     H 8539   2.906   1.319   4.795 -0.2771  0.0440  0.0053
   65MOL0     H 8540   2.694   1.271   4.589  1.5902 -2.1098  0.7916
   65MOL0     H 8541   2.732   1.429   4.668  0.2512  0.3094  3.7785
   65MOL0     H 8542   2.541   1.418   4.536 -3.4041  2.3705 -2.1602
   65MOL0     H 8543   2.330   1.442   4.451 -0.0928  1.1344  0.8964
   65MOL0     H 8544   1.805   1.119   4.698  1.0514 -0.2711 -0.7577
   65MOL0     H 8545   1.582   1.098   4.624  0.0154 -0.5393  0.1191
   65MOL0     H 8546   1.386   1.050   4.465 -4.9041 -1.0749 -1.1159
   65MOL0     H 8547   1.282   1.152   4.378 -1.0622  0.6718  0.7607
   65MOL0     H 8548   1.326   1.338   4.565 -2.9599  1.0510 -2.2516
   65MOL0     H 8549   1.378   1.206   4.661  2.6232  0.2526 -1.9429
   65MOL0     H 8550   1.115   1.271   4.513 -1.5690  1.5590  1.6774
   65MOL0     H 8551   1.121   1.266   4.692 -2.3225  1.7531 -1.4961
   65MOL0     H 8552   1.165   1.015   4.526  1.4490  0.8579  1.2087
   65MOL0     H 8553   1.145   1.029   4.703 -0.3291 -0.9702  0.2569
   65MOL0     H 8554   0.929   0.950   4.554  0.0708  0.4770 -0.0487
   65MOL0     H 8555   0.914   1.127   4.524 -0.6427  2.7950  2.2638
   65MOL0     H 8556   0.933   1.169   4.762  1.8462  0.7471 -2.8384
   65MOL0     H 8557   0.927   0.995   4.784 -0.7599 -0.2212 -0.0847
   65MOL0     H 8558   0.706   1.188   4.728 -1.2423  0.1173  1.0220
   65MOL0     H 8559   0.700   1.048   4.617  0.4577 -0.5245 -0.0193
   65MOL0     H 8560   0.696   1.043   4.921  0.9377 -2.0149  0.8554
   65MOL0     H 8561   0.735   0.905   4.827  1.0749  0.2549  1.5681
   65MOL0     H 8562   1.627   1.416   4.340  1.9630  0.9780  0.4139
   65MOL0     H 8563   1.845   1.463   4.441  0.3744  1.7413  1.2664
   65MOL0     H 8564   2.166   1.237   4.810  0.0424 -1.4087 -0.9703
   65MOL0     H 8565   2.421   1.240   4.894  3.9836  4.5302 -0.5166
   65MOL0     H 8566   4.331   0.560   4.349  2.1265  1.2191 -1.5304
   65MOL0     H 8567   4.549   0.632   4.347 -0.1505 -0.1334  0.5112
   65MOL0     H 8568   4.846   0.882   4.614 -1.4802  1.5975 -0.4936
   65MOL0     H 8569   5.088   0.956   4.662 -0.0379 -1.0023  1.1194
   65MOL0     H 8570   5.367   1.082   4.324 -0.4819  0.0280 -0.1811
   65MOL0     H 8571   5.382   0.903   4.341  1.7503  1.5687 -1.1015
   65MOL0     H 8572   5.498   1.096   4.520  1.1101  0.4588  0.1818
   65MOL0     H 8573   5.556   0.929   4.519  1.6914  1.3311  0.2046
   65MOL0     H 8574   5.592   1.108   4.277 -2.8230  2.2088  3.4690
   65MOL0     H 8575   5.670   0.945   4.311  0.2655  0.1130 -0.7427
   65MOL0     H 8576   5.702   1.209   4.477 -0.3296  0.8209 -1.2125
   65MOL0     H 8577   5.763   1.046   4.522 -3.3211 -0.7733  1.3472
   65MOL0     H 8578   6.041   1.131   4.213 -3.4184 -0.1331 -3.8018
   65MOL0     H 8579   5.182   0.952   4.240  1.7024 -4.2961  0.0487
   65MOL0     H 8580   4.933   0.896   4.204 -0.9556 -1.5014  0.8497
   66MOL0     O 8581   1.196  10.004   2.690  0.9687 -0.5569  0.6826
   66MOL0     C 8582   1.234  10.078   2.780 -0.1174  0.9057  0.6067
   66MOL0     O 8583   1.150  10.149   2.866  0.5644  0.1555  0.1314
   66MOL0     C 8584   1.012  10.142   2.843  0.0971  0.1429  0.0808
   66MOL0     C 8585   0.948  10.149   2.716  0.0480  0.6803  0.8640
   66MOL0     C 8586   0.810  10.175   2.710 -0.0626  0.2313 -0.4749
   66MOL0     C 8587   0.737  10.188   2.831  1.0722 -0.0159  0.4501
   66MOL0     O 8588   0.603  10.214   2.838 -0.0113  0.4140 -0.4930
   66MOL0     C 8589   0.511  10.206   2.731 -0.4698 -0.9121 -0.5113
   66MOL0     C 8590   0.367  10.223   2.785  0.0172 -0.2878 -0.0957
   66MOL0     C 8591   0.303  10.094   2.842  0.0150 -0.5636 -0.3852
   66MOL0     C 8592   0.152  10.109   2.859 -0.0071 -0.6217  0.2857
   66MOL0     C 8593   0.088   9.987   2.908  0.3406 -0.1052  0.5862
   66MOL0     C 8594  -0.063  10.003   2.951 -1.0193  0.2842 -0.2736
   66MOL0     C 8595  -0.115   9.887   3.040  0.0354 -0.1411  0.3706
   66MOL0     C 8596  -0.124   9.746   2.977 -0.0690 -0.2635  0.0819
   66MOL0     N 8597  -0.117   9.645   3.082 -0.7905  0.0832  0.5047
   66MOL0     C 8598  -0.009   9.590   3.138  0.2345  0.0860 -0.6637
   66MOL0     C 8599  -0.061   9.512   3.236 -0.8870  0.2675  0.5271
   66MOL0     C 8600   0.040   9.437   3.322  0.2069 -0.8162  0.2461
   66MOL0     C 8601   0.028   9.482   3.474  0.2644 -0.1220  0.2223
   66MOL0     C 8602   0.106   9.609   3.496  0.0298 -0.1776  0.0908
   66MOL0     C 8603   0.258   9.613   3.465  0.5505  0.5843  1.1738
   66MOL0     O 8604   0.267   9.675   3.337 -0.7094  0.4638  0.0837
   66MOL0     C 8605   0.382   9.663   3.265 -0.3436 -0.9032 -0.0191
   66MOL0     C 8606   0.402   9.772   3.175  0.1178  0.6427 -1.3413
   66MOL0     C 8607   0.525   9.795   3.119 -0.7697  0.6068  0.8235
   66MOL0     C 8608   0.629   9.701   3.139 -0.7876 -0.4179  0.1298
   66MOL0     C 8609   0.756   9.738   3.081 -0.0656  0.2812  0.8964
   66MOL0     O 8610   0.834   9.640   3.064 -0.0374  0.2019  0.4739
   66MOL0     C 8611   0.971   9.643   3.034  0.3536  0.3901  0.3472
   66MOL0     C 8612   1.042   9.520   3.045 -0.0235 -0.5799 -0.1946
   66MOL0     C 8613   1.179   9.507   3.019 -0.3014 -0.0618  0.2945
   66MOL0     C 8614   1.249   9.610   2.966  1.0358  0.1932 -0.4193
   66MOL0     O 8615   1.389   9.601   2.955  0.5034 -0.6612  0.0428
   66MOL0     C 8616   1.460   9.719   2.913 -0.4975 -0.0666 -0.1181
   66MOL0     C 8617   1.609   9.689   2.896  0.2912  0.4501 -0.3717
   66MOL0     C 8618   1.690   9.785   2.811 -0.6595  0.1201 -0.1811
   66MOL0     C 8619   1.826   9.728   2.766  0.0524 -0.8748 -0.2292
   66MOL0     C 8620   1.903   9.822   2.667  1.2517 -0.9104 -0.1880
   66MOL0     C 8621   2.054   9.797   2.648  0.2073 -0.1928 -0.3042
   66MOL0     C 8622   2.131   9.863   2.537 -0.6484  0.3637 -0.2850
   66MOL0     C 8623   2.086  10.005   2.510  0.2105 -0.5059  0.1175
   66MOL0    Cl 8624   2.181  10.052   2.365 -0.3883 -0.2387 -0.2277
   66MOL0     C 8625   1.182   9.732   2.945 -0.6708  0.4865  0.1809
   66MOL0     C 8626   1.045   9.751   2.980 -0.6497 -0.1705  0.9603
   66MOL0     O 8627   0.779   9.853   3.051  0.2103  0.1550  0.1177
   66MOL0     C 8628   0.611   9.591   3.221 -0.6583 -0.6139 -0.5677
   66MOL0     C 8629   0.483   9.576   3.284 -0.6547  0.5942  0.5408
   66MOL0     N 8630  -0.197   9.523   3.234 -0.3273 -1.7171 -0.3371
   66MOL0     N 8631  -0.225   9.609   3.144 -0.0736 -0.0132 -0.4336
   66MOL0     C 8632   0.793  10.167   2.949  0.1130  0.4117 -0.3171
   66MOL0     C 8633   0.928  10.154   2.955 -0.4559 -0.0806  0.7710
   66MOL0     C 8634   1.377  10.107   2.783  1.0211 -0.7489  0.2689
   66MOL0     C 8635   1.460  10.052   2.680  0.3235 -0.1778 -0.0975
   66MOL0     C 8636   1.591  10.085   2.678 -1.0216  0.8536  0.3877
   66MOL0     C 8637   1.653  10.167   2.774 -1.1133  0.7483  0.7281
   66MOL0     O 8638   1.794  10.174   2.777  0.7683 -0.8423 -0.5568
   66MOL0     C 8639   1.851  10.283   2.851 -0.2799  0.0817 -1.6868
   66MOL0     C 8640   2.003  10.289   2.827 -0.1173  0.9121 -0.1754
   66MOL0     C 8641   2.076  10.165   2.878 -0.7837 -0.0384 -0.5777
   66MOL0     C 8642   2.230  10.185   2.884  0.0040  0.3226  0.3833
   66MOL0     C 8643   2.305  10.190   2.754 -0.5085  0.0928  0.1383
   66MOL0     C 8644   2.366  10.191   2.648  0.5171  0.8744 -0.4363
   66MOL0     C 8645   1.573  10.221   2.877  0.1794 -0.0323  0.7405
   66MOL0     C 8646   1.433  10.191   2.883  0.2894 -0.3310 -0.4156
   66MOL0     H 8647   0.994  10.143   2.618 -1.9403  3.2736 -0.3510
   66MOL0     H 8648   0.759  10.181   2.614 -2.4056 -1.0803  0.5819
   66MOL0     H 8649   0.527  10.105   2.689 -0.9787 -2.7097  3.2140
   66MOL0     H 8650   0.537  10.288   2.664  1.7774 -0.3090  0.9753
   66MOL0     H 8651   0.302  10.265   2.708  3.5278  2.4279 -1.8863
   66MOL0     H 8652   0.361  10.298   2.864 -4.4920 -1.9155  1.4221
   66MOL0     H 8653   0.356  10.072   2.935 -1.2598 -1.4926  0.1442
   66MOL0     H 8654   0.318  10.018   2.764  0.5314 -0.6601 -0.1981
   66MOL0     H 8655   0.131  10.190   2.930 -0.8831 -0.5185 -0.0718
   66MOL0     H 8656   0.097  10.134   2.767  0.4066 -0.7261  0.0095
   66MOL0     H 8657   0.151   9.948   2.988  2.5885 -0.5649 -1.3205
   66MOL0     H 8658   0.090   9.909   2.832  0.0372  0.5944 -0.1495
   66MOL0     H 8659  -0.109  10.023   2.854  3.1975  0.5305 -2.4603
   66MOL0     H 8660  -0.064  10.090   3.018 -0.4265 -1.7166  2.4889
   66MOL0     H 8661  -0.046   9.882   3.125  0.4738  0.4238  0.0572
   66MOL0     H 8662  -0.216   9.905   3.076  0.2387 -1.5062  1.7444
   66MOL0     H 8663  -0.041   9.720   2.910 -1.1162 -2.8640 -0.3008
   66MOL0     H 8664  -0.213   9.747   2.914 -0.5824  0.3856  0.7953
   66MOL0     H 8665   0.095   9.618   3.120  0.5638  0.9995  2.1450
   66MOL0     H 8666   0.139   9.464   3.285 -0.0877 -0.8759 -0.6030
   66MOL0     H 8667   0.023   9.329   3.316  1.5927 -1.0185 -0.2612
   66MOL0     H 8668   0.073   9.397   3.527 -3.6934 -2.8498 -0.3467
   66MOL0     H 8669  -0.072   9.505   3.512  0.3713  1.5885 -0.4435
   66MOL0     H 8670   0.054   9.691   3.445  2.5690  1.1173 -0.5431
   66MOL0     H 8671   0.112   9.630   3.603  3.2870  0.1597 -0.0758
   66MOL0     H 8672   0.300   9.512   3.467  1.2751  0.7889 -1.0129
   66MOL0     H 8673   0.308   9.678   3.537  2.6642 -0.4506  0.7196
   66MOL0     H 8674   0.311   9.829   3.157 -0.8843 -0.1706  0.7390
   66MOL0     H 8675   0.538   9.882   3.056  1.5482 -3.3157 -4.8678
   66MOL0     H 8676   0.992   9.437   3.094  0.0324 -1.2146 -1.1924
   66MOL0     H 8677   1.219   9.410   3.047 -2.2049 -0.0777  3.3974
   66MOL0     H 8678   1.452   9.803   2.983  1.0304 -1.2959  1.6090
   66MOL0     H 8679   1.418   9.763   2.822 -1.0909  1.1850  0.7328
   66MOL0     H 8680   1.603   9.599   2.833 -0.7543 -1.2766  2.0484
   66MOL0     H 8681   1.648   9.664   2.995 -1.2951  1.2178  0.4888
   66MOL0     H 8682   1.716   9.869   2.876  0.8256 -0.4862  0.0536
   66MOL0     H 8683   1.629   9.818   2.727 -3.0532 -1.7088  0.7079
   66MOL0     H 8684   1.885   9.702   2.853  2.1358 -0.3937 -1.4319
   66MOL0     H 8685   1.807   9.640   2.703 -0.8791  0.4717 -1.9232
   66MOL0     H 8686   1.889   9.925   2.700  1.2580 -1.0895  0.3862
   66MOL0     H 8687   1.846   9.812   2.574 -1.2125  1.4952  0.9266
   66MOL0     H 8688   2.064   9.691   2.625 -2.2289 -0.5720  0.2058
   66MOL0     H 8689   2.107   9.813   2.743  1.1891 -0.6113 -0.7580
   66MOL0     H 8690   2.233   9.866   2.577 -0.6909  2.4675 -0.2176
   66MOL0     H 8691   2.130   9.812   2.440 -1.9519  1.2815 -0.7865
   66MOL0     H 8692   2.110  10.065   2.599  1.6150 -1.0771  0.1492
   66MOL0     H 8693   1.980  10.015   2.487  0.5489  0.9734 -0.9678
   66MOL0     H 8694   1.232   9.822   2.908 -2.6253  1.2919 -0.6556
   66MOL0     H 8695   1.005   9.850   2.961 -0.6606  0.1189  2.3434
   66MOL0     H 8696   0.696   9.529   3.246 -0.3811 -1.3138 -3.0531
   66MOL0     H 8697   0.476   9.499   3.360  0.1589  0.3354  0.3653
   66MOL0     H 8698   0.746  10.169   3.047 -0.2268 -0.4836 -0.4467
   66MOL0     H 8699   0.968  10.146   3.056  2.4965 -1.3142 -0.3824
   66MOL0     H 8700   1.411   9.999   2.600  0.2050  0.6468 -0.5846
   66MOL0     H 8701   1.651  10.054   2.593 -2.4630  2.0002 -1.1085
   66MOL0     H 8702   1.821  10.268   2.955 -0.8947  0.8892 -1.7389
   66MOL0     H 8703   1.811  10.377   2.814  2.3873  2.4654  0.8969
   66MOL0     H 8704   2.032  10.293   2.722 -0.7367 -1.9203 -0.5376
   66MOL0     H 8705   2.050  10.369   2.884  0.3633  0.2308  0.4072
   66MOL0     H 8706   2.060  10.087   2.803  1.8503 -0.1036 -1.1646
   66MOL0     H 8707   2.034  10.138   2.976 -0.5106 -0.8425 -0.6773
   66MOL0     H 8708   2.263  10.277   2.934  1.3168  1.4004 -2.2465
   66MOL0     H 8709   2.271  10.095   2.932  1.6921  0.3237 -0.9307
   66MOL0     H 8710   2.422  10.176   2.558 -0.1733 -0.4869 -0.6732
   66MOL0     H 8711   1.607  10.281   2.960 -0.2111  1.0443  0.1366
   66MOL0     H 8712   1.374  10.235   2.962 -1.7677 -3.8735  0.2172
   67MOL0     O 8713   3.520   8.863   5.336 -0.1275  0.0674 -0.7373
   67MOL0     C 8714   3.546   8.959   5.261 -0.1030 -1.4963  1.3811
   67MOL0     O 8715   3.468   9.025   5.163 -0.7301  0.4298  0.0084
   67MOL0     C 8716   3.340   8.981   5.143 -0.0220 -0.1875 -0.4480
   67MOL0     C 8717   3.290   8.849   5.150 -0.9286 -0.7722 -0.7215
   67MOL0     C 8718   3.158   8.807   5.126 -0.1331  1.3890  0.0572
   67MOL0     C 8719   3.071   8.898   5.076 -0.2693 -1.1640 -0.2059
   67MOL0     O 8720   2.941   8.855   5.048 -0.5680  0.0751 -0.9242
   67MOL0     C 8721   2.851   8.954   4.986 -0.0211 -0.0047  0.2429
   67MOL0     C 8722   2.714   8.884   4.981 -0.1678 -0.4458 -0.6092
   67MOL0     C 8723   2.641   8.939   4.863 -0.6044 -0.4984 -0.1208
   67MOL0     C 8724   2.496   8.875   4.862 -0.6990  0.0742 -0.3569
   67MOL0     C 8725   2.423   8.888   4.730  0.3111 -0.0918  0.2251
   67MOL0     C 8726   2.289   8.817   4.744  0.6243  0.0058  0.0227
   67MOL0     C 8727   2.178   8.869   4.838  0.1030  0.4085 -0.0153
   67MOL0     C 8728   2.151   9.016   4.814 -0.2742 -1.0719  0.7970
   67MOL0     N 8729   2.011   9.056   4.855  0.7080  0.1991  0.2724
   67MOL0     C 8730   1.960   9.024   4.977  0.1647  0.3833 -0.4622
   67MOL0     C 8731   1.826   9.062   4.972 -1.6197 -0.4134 -0.7287
   67MOL0     C 8732   1.712   9.069   5.068 -0.7453  0.1000 -0.0456
   67MOL0     C 8733   1.594   8.974   5.026  0.0337 -0.4548 -0.0502
   67MOL0     C 8734   1.471   8.986   5.126  0.0279  0.4832 -0.0782
   67MOL0     C 8735   1.370   8.874   5.078 -0.7609 -0.0105 -0.6592
   67MOL0     O 8736   1.246   8.889   5.141 -0.3586 -0.1708 -0.1146
   67MOL0     C 8737   1.138   8.797   5.115 -0.2130  1.4445  0.1690
   67MOL0     C 8738   1.146   8.680   5.036 -0.0247  1.0087 -0.0650
   67MOL0     C 8739   1.039   8.577   5.037  0.1291 -0.5775  0.1636
   67MOL0     C 8740   0.929   8.600   5.117 -0.1530 -0.3505 -0.5934
   67MOL0     C 8741   0.818   8.507   5.122 -1.0216  0.5688  0.1979
   67MOL0     O 8742   0.774   8.436   5.011 -0.7236 -0.0918 -0.0988
   67MOL0     C 8743   0.701   8.327   5.018 -0.0075  0.6538  0.4989
   67MOL0     C 8744   0.595   8.309   4.938 -0.2063  0.1089  0.0394
   67MOL0     C 8745   0.533   8.191   4.915  0.1051  0.4371  0.4138
   67MOL0     C 8746   0.577   8.076   4.987  0.7485 -1.0942 -0.3278
   67MOL0     O 8747   0.508   7.961   4.981 -0.1384 -0.6147 -0.8723
   67MOL0     C 8748   0.378   7.957   5.040  0.2473  0.7968  0.1374
   67MOL0     C 8749   0.276   7.871   4.971 -0.7563 -0.1646  0.6103
   67MOL0     C 8750   0.138   7.900   5.021  0.1378  0.6667 -0.5005
   67MOL0     C 8751   0.044   7.791   4.951 -0.3411 -0.5927 -0.1906
   67MOL0     C 8752  -0.101   7.842   4.933 -0.5827  0.7666 -0.6550
   67MOL0     C 8753  -0.196   7.729   4.884 -0.2317  0.0906  0.3183
   67MOL0     C 8754  -0.336   7.783   4.857 -0.5864 -0.9080  0.5973
   67MOL0     C 8755  -0.369   7.821   4.712  0.1536 -0.4748 -0.0914
   67MOL0    Cl 8756  -0.324   7.692   4.583  0.0446  0.2562  0.0626
   67MOL0     C 8757   0.685   8.089   5.074  0.3769 -0.4392  1.6312
   67MOL0     C 8758   0.744   8.215   5.096  0.5139  0.3368  0.6312
   67MOL0     O 8759   0.758   8.506   5.233  0.2026  0.4186 -0.3610
   67MOL0     C 8760   0.923   8.719   5.189 -0.0773  0.6733  0.0442
   67MOL0     C 8761   1.020   8.811   5.182 -1.0986 -0.7012 -0.5713
   67MOL0     N 8762   1.806   9.125   4.855 -0.6642 -0.6224  0.1729
   67MOL0     N 8763   1.920   9.132   4.790 -0.5520  0.4617 -0.7557
   67MOL0     C 8764   3.113   9.034   5.052  0.1875 -0.7031 -1.2340
   67MOL0     C 8765   3.248   9.078   5.094  0.0484  0.0140 -0.4417
   67MOL0     C 8766   3.668   9.035   5.296  0.8293 -0.0071 -0.5370
   67MOL0     C 8767   3.704   9.154   5.232 -0.1898  0.2935  0.4820
   67MOL0     C 8768   3.818   9.221   5.270 -0.3737  0.5541  0.3895
   67MOL0     C 8769   3.911   9.168   5.361 -0.8601  0.5183 -0.4428
   67MOL0     O 8770   4.021   9.248   5.378  0.5766  0.6205 -0.0408
   67MOL0     C 8771   4.112   9.201   5.473 -0.8503 -0.1635  0.4226
   67MOL0     C 8772   4.233   9.298   5.464 -0.1469 -0.1718  0.0899
   67MOL0     C 8773   4.331   9.254   5.357  0.2100 -0.2894  0.1461
   67MOL0     C 8774   4.433   9.361   5.338  0.0153 -0.0072  0.2911
   67MOL0     C 8775   4.504   9.338   5.213 -1.0217 -0.8581  0.7499
   67MOL0     C 8776   4.549   9.319   5.100 -0.4298  0.6052  0.1430
   67MOL0     C 8777   3.891   9.037   5.413 -0.1345 -0.2859 -1.1477
   67MOL0     C 8778   3.763   8.966   5.382 -0.3333 -0.3375 -0.5187
   67MOL0     H 8779   3.364   8.772   5.167  1.4922  1.4186 -0.7626
   67MOL0     H 8780   3.141   8.700   5.134  1.3699  1.1865  1.0817
   67MOL0     H 8781   2.874   8.985   4.883  0.6723  0.1401  0.4358
   67MOL0     H 8782   2.846   9.046   5.045  0.8526  1.4620 -1.8308
   67MOL0     H 8783   2.647   8.900   5.066  0.9478  2.3997 -0.1340
   67MOL0     H 8784   2.723   8.778   4.957  1.9146 -0.2136 -1.0339
   67MOL0     H 8785   2.709   8.916   4.780  2.3117 -2.7509  2.6446
   67MOL0     H 8786   2.625   9.045   4.882  0.8727 -0.6781  2.5492
   67MOL0     H 8787   2.503   8.777   4.911 -0.2887  0.1923 -0.1766
   67MOL0     H 8788   2.444   8.936   4.936 -0.6395 -3.1688  2.6843
   67MOL0     H 8789   2.480   8.852   4.644 -1.0738 -0.0851 -0.7265
   67MOL0     H 8790   2.409   8.993   4.703  1.0581 -0.5030 -1.9660
   67MOL0     H 8791   2.310   8.712   4.767 -1.3766 -0.4569 -0.0509
   67MOL0     H 8792   2.239   8.820   4.646  0.1334 -1.0384  0.2229
   67MOL0     H 8793   2.089   8.808   4.820 -2.1836  3.7955 -1.2215
   67MOL0     H 8794   2.201   8.854   4.943 -2.9220 -1.6334  0.4626
   67MOL0     H 8795   2.158   9.030   4.705  0.5089 -0.7564  0.8755
   67MOL0     H 8796   2.232   9.071   4.864 -0.9869 -1.0743  1.9797
   67MOL0     H 8797   2.005   8.984   5.068  0.5794 -0.9411 -1.2130
   67MOL0     H 8798   1.672   9.170   5.072  1.4005  0.9999  0.0272
   67MOL0     H 8799   1.749   9.051   5.169 -0.0539  4.0999  0.5701
   67MOL0     H 8800   1.630   8.871   5.020 -1.9258 -1.2548  1.0591
   67MOL0     H 8801   1.560   8.999   4.926 -0.1529 -1.1537 -0.1640
   67MOL0     H 8802   1.509   8.971   5.227 -0.2089  1.4191  0.1625
   67MOL0     H 8803   1.414   9.079   5.124  0.1803  0.5887  0.4250
   67MOL0     H 8804   1.404   8.770   5.086 -3.5394 -0.8760  3.2486
   67MOL0     H 8805   1.361   8.901   4.973  1.8169 -0.2390 -0.9963
   67MOL0     H 8806   1.226   8.660   4.965 -1.5543 -3.0532 -0.9003
   67MOL0     H 8807   1.066   8.490   4.978  3.3210  0.9686 -0.8306
   67MOL0     H 8808   0.584   8.398   4.876  0.1249 -0.0580 -0.2605
   67MOL0     H 8809   0.458   8.184   4.836  1.0486 -0.9605 -0.3851
   67MOL0     H 8810   0.338   8.059   5.043 -1.1642  0.4332 -2.8353
   67MOL0     H 8811   0.388   7.925   5.144  0.3810  0.9258  0.1658
   67MOL0     H 8812   0.311   7.772   5.003  2.0995  0.8099  0.7978
   67MOL0     H 8813   0.282   7.874   4.862  2.9953  1.0570  0.6984
   67MOL0     H 8814   0.105   8.000   4.992 -0.8845  0.8876  1.2424
   67MOL0     H 8815   0.122   7.879   5.128 -1.5607 -0.6925 -0.9729
   67MOL0     H 8816   0.079   7.765   4.851 -0.9129 -1.1531 -0.2494
   67MOL0     H 8817   0.029   7.701   5.011 -2.6004  2.5124  4.4843
   67MOL0     H 8818  -0.112   7.922   4.859  0.5527  0.0330 -1.6621
   67MOL0     H 8819  -0.143   7.877   5.027  0.4441  1.7830 -0.5584
   67MOL0     H 8820  -0.199   7.652   4.961 -0.0976 -2.7911 -2.3546
   67MOL0     H 8821  -0.151   7.679   4.798 -2.8118 -1.9597  0.0368
   67MOL0     H 8822  -0.391   7.693   4.887  3.6387 -3.2266  2.1539
   67MOL0     H 8823  -0.357   7.870   4.920  1.2730 -0.1482  0.2190
   67MOL0     H 8824  -0.333   7.916   4.672 -2.6890  0.7739  0.0657
   67MOL0     H 8825  -0.477   7.836   4.715  0.0532 -0.5682 -1.9833
   67MOL0     H 8826   0.741   8.006   5.116 -0.2816 -1.9314 -0.3088
   67MOL0     H 8827   0.838   8.216   5.151  0.6938 -0.9508  0.3955
   67MOL0     H 8828   0.841   8.746   5.255  0.1406  1.5414 -0.0255
   67MOL0     H 8829   0.998   8.902   5.237 -1.3509 -0.5041 -0.9938
   67MOL0     H 8830   3.049   9.115   5.019 -1.0958 -1.1454  0.0329
   67MOL0     H 8831   3.279   9.180   5.076  0.9194 -0.2134 -0.2666
   67MOL0     H 8832   3.640   9.192   5.153 -0.0893  0.1248  0.3183
   67MOL0     H 8833   3.840   9.314   5.220  4.3587  0.5948  2.0661
   67MOL0     H 8834   4.149   9.099   5.461  5.4828  1.7592  0.1748
   67MOL0     H 8835   4.078   9.209   5.577 -1.3799  1.7295  0.1418
   67MOL0     H 8836   4.191   9.399   5.457 -1.6733 -0.8521 -1.2264
   67MOL0     H 8837   4.296   9.288   5.553 -0.1141  0.4534  0.1426
   67MOL0     H 8838   4.274   9.224   5.269  0.6397 -1.7163  0.3219
   67MOL0     H 8839   4.379   9.165   5.398 -0.5182  0.0470  1.8027
   67MOL0     H 8840   4.377   9.455   5.343 -0.9682 -0.6425  3.7781
   67MOL0     H 8841   4.509   9.359   5.417 -0.2285  1.9233  0.6360
   67MOL0     H 8842   4.589   9.293   5.004  1.0071  0.6594  0.7118
   67MOL0     H 8843   3.972   8.991   5.468  0.3536  0.6499 -1.0649
   67MOL0     H 8844   3.754   8.870   5.432  2.0433 -0.0536  0.6160
   68MOL0     O 8845   0.395   0.629   1.076 -0.2330  0.1511 -0.1643
   68MOL0     C 8846   0.411   0.527   1.011  0.5819 -0.0090  0.0477
   68MOL0     O 8847   0.324   0.473   0.925  0.6337 -0.3731  0.3368
   68MOL0     C 8848   0.194   0.516   0.929  0.6402 -0.0098 -0.2310
   68MOL0     C 8849   0.106   0.441   1.004  1.4881  0.6718 -0.5811
   68MOL0     C 8850  -0.028   0.478   1.007 -0.1683  0.3480  0.1787
   68MOL0     C 8851  -0.076   0.591   0.946 -0.4130 -0.1284 -0.2138
   68MOL0     O 8852  -0.202   0.623   0.969  0.4384 -0.5946 -0.1662
   68MOL0     C 8853  -0.270   0.704   0.877  0.2331  0.6374 -0.2562
   68MOL0     C 8854  -0.411   0.729   0.933  0.8498 -0.3284  0.7111
   68MOL0     C 8855  -0.520   0.772   0.834  0.5450  0.5302  0.0171
   68MOL0     C 8856  -0.646   0.822   0.910  0.6192  0.0346  0.8050
   68MOL0     C 8857  -0.756   0.899   0.826  0.1606  0.0731  0.1854
   68MOL0     C 8858  -0.856   0.801   0.757 -0.3227  0.4761  0.3012
   68MOL0     C 8859  -0.915   0.864   0.641  0.3281  0.5399  0.7449
   68MOL0     C 8860  -0.975   1.002   0.665 -0.0411 -0.3664 -0.1971
   68MOL0     N 8861  -1.078   1.030   0.567 -0.6315 -0.3936  0.9965
   68MOL0     C 8862  -1.205   0.996   0.569 -0.1008  0.5777  0.1759
   68MOL0     C 8863  -1.261   1.040   0.458 -0.4634 -0.2818 -0.0237
   68MOL0     C 8864  -1.409   1.031   0.430 -0.3244  0.5217  0.4204
   68MOL0     C 8865  -1.460   1.170   0.421  0.9379  0.5817  0.1617
   68MOL0     C 8866  -1.609   1.170   0.443 -0.4323  0.2667  0.3553
   68MOL0     C 8867  -1.685   1.106   0.322 -0.1487  0.6400 -0.2337
   68MOL0     O 8868  -1.667   1.166   0.198  0.1110  0.7847  0.6887
   68MOL0     C 8869  -1.749   1.128   0.091  0.1049 -0.7913  0.0311
   68MOL0     C 8870  -1.706   1.136  -0.041  0.0416 -0.5705 -0.5472
   68MOL0     C 8871  -1.793   1.110  -0.152 -0.2283 -0.2238 -0.3670
   68MOL0     C 8872  -1.922   1.059  -0.123 -0.1875  0.6081  0.1381
   68MOL0     C 8873  -2.025   1.021  -0.225  0.5550 -0.1788 -0.9055
   68MOL0     O 8874  -2.161   1.000  -0.188  0.0134  0.2270  0.3301
   68MOL0     C 8875  -2.245   0.965  -0.292  0.5540 -0.0462  0.3139
   68MOL0     C 8876  -2.367   1.041  -0.312 -1.1438  0.0606 -0.6067
   68MOL0     C 8877  -2.450   0.998  -0.422  0.7719  0.4687 -0.4106
   68MOL0     C 8878  -2.416   0.886  -0.492 -0.1280 -0.0611  0.1803
   68MOL0     O 8879  -2.487   0.835  -0.595  0.1652 -0.4399  0.7819
   68MOL0     C 8880  -2.582   0.923  -0.659 -0.1103  0.1081 -0.1808
   68MOL0     C 8881  -2.636   0.864  -0.783  0.1366 -0.2864  1.1928
   68MOL0     C 8882  -2.738   0.952  -0.861  0.4060  0.8315 -0.4092
   68MOL0     C 8883  -2.802   0.873  -0.979 -0.6857  0.0109 -0.0380
   68MOL0     C 8884  -2.898   0.965  -1.042 -0.3792 -0.2846  0.9542
   68MOL0     C 8885  -2.932   0.918  -1.179  0.5512  0.6012 -0.8627
   68MOL0     C 8886  -3.034   1.005  -1.254 -0.7010 -0.8767  0.5340
   68MOL0     C 8887  -3.015   1.004  -1.402 -0.8700 -0.7708  0.0961
   68MOL0    Cl 8888  -2.994   0.839  -1.467 -0.1921  0.4852  0.0101
   68MOL0     C 8889  -2.305   0.807  -0.463  0.8128  0.1086 -0.5870
   68MOL0     C 8890  -2.222   0.849  -0.361  0.8276  0.1544  0.1580
   68MOL0     O 8891  -1.982   1.020  -0.343 -0.4976  0.2886  0.2282
   68MOL0     C 8892  -1.969   1.055   0.002 -0.4425  0.3533 -1.4994
   68MOL0     C 8893  -1.889   1.092   0.109  0.6306 -0.1874  0.0159
   68MOL0     N 8894  -1.160   1.091   0.386  0.2146 -0.7369 -0.2664
   68MOL0     N 8895  -1.051   1.088   0.447 -0.5045  0.2017  0.0125
   68MOL0     C 8896   0.019   0.674   0.878 -0.2128 -0.8830 -0.1523
   68MOL0     C 8897   0.148   0.636   0.864 -0.3859  0.7183 -0.5571
   68MOL0     C 8898   0.545   0.465   1.022  0.7291 -0.5044  0.0236
   68MOL0     C 8899   0.574   0.328   0.979  0.0288 -0.6291  0.0591
   68MOL0     C 8900   0.706   0.280   0.978 -0.1286  0.6140 -0.0986
   68MOL0     C 8901   0.809   0.358   1.021 -0.1553 -0.7451 -0.9347
   68MOL0     O 8902   0.940   0.325   1.030  0.7612 -0.1323  0.3114
   68MOL0     C 8903   0.984   0.193   1.005  0.0186 -0.1185 -0.1030
   68MOL0     C 8904   1.134   0.174   0.994 -0.5175 -0.0963 -0.4768
   68MOL0     C 8905   1.203   0.211   1.130  0.4755 -0.2641 -0.4472
   68MOL0     C 8906   1.355   0.201   1.134  0.3085 -0.0266  0.1899
   68MOL0     C 8907   1.416   0.263   1.252  0.3461 -0.8214  0.4198
   68MOL0     C 8908   1.473   0.325   1.338 -0.1991  0.3667 -0.1293
   68MOL0     C 8909   0.783   0.485   1.072  0.0564  0.2077 -0.0720
   68MOL0     C 8910   0.652   0.532   1.084  0.0515  0.2788 -0.3067
   68MOL0     H 8911   0.119   0.351   1.064 -0.3761  0.7832  0.0535
   68MOL0     H 8912  -0.100   0.424   1.068 -2.6675 -0.6338 -3.3266
   68MOL0     H 8913  -0.295   0.646   0.788  2.2276 -0.2805 -0.2717
   68MOL0     H 8914  -0.214   0.789   0.839  1.6452 -0.5441 -0.8771
   68MOL0     H 8915  -0.404   0.814   1.002  0.7693  0.9070 -0.7501
   68MOL0     H 8916  -0.448   0.647   0.996 -0.5500  0.4516  0.9565
   68MOL0     H 8917  -0.539   0.692   0.762  1.8238  0.0601  0.1770
   68MOL0     H 8918  -0.487   0.857   0.774 -1.6799  1.7595  0.4278
   68MOL0     H 8919  -0.696   0.744   0.967 -2.4817 -0.4355 -2.1777
   68MOL0     H 8920  -0.620   0.895   0.987  0.6164 -0.9996  1.8023
   68MOL0     H 8921  -0.712   0.970   0.755  0.8192 -0.7037 -0.1988
   68MOL0     H 8922  -0.814   0.965   0.891  1.1726  1.2838 -0.0838
   68MOL0     H 8923  -0.930   0.768   0.831  0.7069 -1.9661  0.3289
   68MOL0     H 8924  -0.809   0.713   0.714  1.4271  1.8213 -0.6345
   68MOL0     H 8925  -0.834   0.872   0.569 -1.5990 -1.1474 -1.8079
   68MOL0     H 8926  -0.990   0.798   0.596  0.9341 -1.1271  2.0705
   68MOL0     H 8927  -0.894   1.075   0.652  1.3519 -2.1333 -1.8597
   68MOL0     H 8928  -1.005   1.006   0.771  3.1368  3.7190  0.8287
   68MOL0     H 8929  -1.249   0.944   0.653 -0.6944  3.1971  1.6047
   68MOL0     H 8930  -1.465   0.971   0.502  2.0554 -3.6033 -0.8117
   68MOL0     H 8931  -1.418   0.985   0.331  0.8569  1.2524 -0.0435
   68MOL0     H 8932  -1.444   1.221   0.325  2.7280 -0.9062 -0.3912
   68MOL0     H 8933  -1.410   1.227   0.500  0.2396 -1.6308  2.3255
   68MOL0     H 8934  -1.639   1.119   0.535  1.0078  1.3443  1.4875
   68MOL0     H 8935  -1.637   1.276   0.453 -1.9185  0.1496 -1.9049
   68MOL0     H 8936  -1.790   1.117   0.350  0.4920  2.1444  1.8223
   68MOL0     H 8937  -1.669   0.998   0.316  0.6913  0.5603  2.0617
   68MOL0     H 8938  -1.607   1.179  -0.050  0.0520  0.0058  1.7374
   68MOL0     H 8939  -1.754   1.115  -0.254  1.4253 -3.3844  0.0017
   68MOL0     H 8940  -2.389   1.137  -0.265 -2.2965 -0.3602 -0.2488
   68MOL0     H 8941  -2.536   1.058  -0.450 -0.9525 -1.9909 -0.6812
   68MOL0     H 8942  -2.529   1.014  -0.688 -0.9330  0.3830 -0.8354
   68MOL0     H 8943  -2.670   0.958  -0.605 -1.4686  3.2521 -3.9868
   68MOL0     H 8944  -2.687   0.772  -0.753 -4.7231  0.6325 -2.8702
   68MOL0     H 8945  -2.552   0.829  -0.843  0.4520  0.9125  0.9175
   68MOL0     H 8946  -2.696   1.045  -0.900  1.6773 -0.6342 -2.7158
   68MOL0     H 8947  -2.825   0.981  -0.801 -0.9916 -2.4337 -0.6373
   68MOL0     H 8948  -2.723   0.839  -1.047 -1.7240  1.2574 -1.9608
   68MOL0     H 8949  -2.852   0.783  -0.943  2.5263 -1.9385 -0.1638
   68MOL0     H 8950  -2.859   1.064  -1.065 -2.9597  0.4043 -0.7494
   68MOL0     H 8951  -2.985   0.990  -0.981 -1.5720 -2.2471  0.1413
   68MOL0     H 8952  -2.982   0.821  -1.169  0.4749  0.7069 -0.1624
   68MOL0     H 8953  -2.840   0.896  -1.234  0.1560  2.4019 -2.3254
   68MOL0     H 8954  -3.136   0.988  -1.218 -0.7991  0.4451  0.9406
   68MOL0     H 8955  -3.016   1.109  -1.225  0.4049 -1.0802  0.6289
   68MOL0     H 8956  -2.924   1.060  -1.425 -1.0891  0.2549  1.5561
   68MOL0     H 8957  -3.096   1.046  -1.463  1.0428  0.8780 -1.4437
   68MOL0     H 8958  -2.301   0.720  -0.527  1.2383 -1.9005  1.9749
   68MOL0     H 8959  -2.129   0.796  -0.343 -0.2067 -1.6913  0.2053
   68MOL0     H 8960  -2.075   1.048   0.025 -0.5569  1.0858 -1.7654
   68MOL0     H 8961  -1.946   1.109   0.200 -0.5692  1.0565 -0.9203
   68MOL0     H 8962  -0.016   0.762   0.825  0.1040  0.5509  1.8957
   68MOL0     H 8963   0.215   0.677   0.789  0.2309  0.9893  0.1237
   68MOL0     H 8964   0.495   0.274   0.928  0.5452 -1.4808  0.1483
   68MOL0     H 8965   0.711   0.176   0.947 -2.9743 -0.3896  2.3136
   68MOL0     H 8966   0.951   0.165   0.904  1.4579 -1.2496 -0.2966
   68MOL0     H 8967   0.946   0.119   1.076  3.2812 -1.4743  0.4246
   68MOL0     H 8968   1.158   0.071   0.966 -0.3334 -0.3673  0.6352
   68MOL0     H 8969   1.165   0.243   0.916  0.3013  0.5957  0.4517
   68MOL0     H 8970   1.159   0.158   1.215 -0.2287 -0.6764 -1.0501
   68MOL0     H 8971   1.172   0.316   1.133  1.1035 -0.0535 -1.2322
   68MOL0     H 8972   1.377   0.094   1.134 -1.4517 -0.4082 -0.3533
   68MOL0     H 8973   1.391   0.249   1.042  1.2077  0.2879  0.6883
   68MOL0     H 8974   1.525   0.383   1.412 -0.8739 -1.1269  1.5849
   68MOL0     H 8975   0.870   0.533   1.116  0.9743  1.6580 -3.1897
   68MOL0     H 8976   0.631   0.625   1.134  1.9167 -0.9030  3.0014
   69MOL0     O 8977   0.489   9.555  10.954 -0.2212 -0.9497  0.7515
   69MOL0     C 8978   0.478   9.517  11.067  0.3604  0.3041  1.2358
   69MOL0     O 8979   0.554   9.418  11.124 -0.3377 -0.0634 -0.0525
   69MOL0     C 8980   0.640   9.345  11.049  0.6976  0.2640  0.2324
   69MOL0     C 8981   0.584   9.238  10.973 -0.0650  0.2098  0.0370
   69MOL0     C 8982   0.661   9.135  10.913 -0.1086  0.1239  0.0353
   69MOL0     C 8983   0.801   9.143  10.938  0.8494  0.3740 -1.2232
   69MOL0     O 8984   0.900   9.052  10.902 -0.2041 -0.0463  0.0387
   69MOL0     C 8985   0.871   8.956  10.801 -0.6780 -0.0275 -0.6363
   69MOL0     C 8986   0.975   8.851  10.785 -0.0950 -0.3367 -0.0021
   69MOL0     C 8987   0.919   8.749  10.680 -0.2823  0.0028 -0.5273
   69MOL0     C 8988   1.006   8.624  10.665  0.1915 -0.5669 -0.6505
   69MOL0     C 8989   0.965   8.563  10.527 -0.8324  1.3541 -0.2618
   69MOL0     C 8990   1.013   8.420  10.513  0.0513 -0.3317 -0.3278
   69MOL0     C 8991   1.170   8.421  10.545 -0.1278  0.7962  0.2856
   69MOL0     C 8992   1.254   8.306  10.474 -0.2270 -0.8177 -0.3764
   69MOL0     N 8993   1.303   8.353  10.349 -0.3824 -0.5282  0.9795
   69MOL0     C 8994   1.381   8.466  10.319 -0.6583 -0.4567  0.0817
   69MOL0     C 8995   1.411   8.451  10.187 -0.3962 -0.0688  0.6053
   69MOL0     C 8996   1.475   8.556  10.097  0.8111 -0.0931 -0.6032
   69MOL0     C 8997   1.370   8.672  10.084 -0.3570  0.3138 -0.0910
   69MOL0     C 8998   1.425   8.797  10.024  0.2167  0.6962  0.4884
   69MOL0     C 8999   1.493   8.780   9.892 -0.6272 -0.2399 -0.7752
   69MOL0     O 9000   1.530   8.902   9.828 -0.2068  0.5532 -0.1196
   69MOL0     C 9001   1.611   8.911   9.721 -0.4470  0.0979  0.6559
   69MOL0     C 9002   1.670   9.037   9.692  0.4502 -0.0305  0.1341
   69MOL0     C 9003   1.737   9.064   9.581  0.9319  0.6420 -0.1636
   69MOL0     C 9004   1.767   8.965   9.491 -0.8642  0.1832 -0.9066
   69MOL0     C 9005   1.853   8.987   9.375  0.9545  0.2943 -0.0590
   69MOL0     O 9006   1.858   9.115   9.337 -0.4645 -0.2213 -0.0865
   69MOL0     C 9007   1.964   9.146   9.270 -0.1869  0.6513  0.1207
   69MOL0     C 9008   2.037   9.258   9.306  0.3772 -1.0560  0.1494
   69MOL0     C 9009   2.139   9.302   9.224  1.1421 -1.4321  0.0083
   69MOL0     C 9010   2.171   9.251   9.105  0.5467  0.5850  0.4376
   69MOL0     O 9011   2.260   9.315   9.025  0.3101  0.0600  0.2073
   69MOL0     C 9012   2.279   9.276   8.893  0.4012 -0.1822 -0.7812
   69MOL0     C 9013   2.371   9.383   8.833 -0.2050  0.0779 -0.3622
   69MOL0     C 9014   2.435   9.329   8.704  0.0765  0.3482  0.3479
   69MOL0     C 9015   2.580   9.377   8.698  0.5495  0.3897  0.2586
   69MOL0     C 9016   2.674   9.305   8.794  0.6565 -0.2113 -0.2657
   69MOL0     C 9017   2.824   9.341   8.773  0.4289 -1.1546 -0.1906
   69MOL0     C 9018   2.851   9.494   8.778 -0.5197 -0.1500 -0.6110
   69MOL0     C 9019   3.005   9.520   8.811  0.0689  0.5016  0.3107
   69MOL0    Cl 9020   3.113   9.439   8.691 -0.3336  0.0541 -0.3764
   69MOL0     C 9021   2.108   9.134   9.077 -0.4676  0.8459  0.8422
   69MOL0     C 9022   2.000   9.090   9.145 -0.5180  0.9635  0.4764
   69MOL0     O 9023   1.900   8.887   9.315 -0.4016 -1.1055  0.1948
   69MOL0     C 9024   1.716   8.832   9.517 -0.2370 -0.1083  0.5512
   69MOL0     C 9025   1.645   8.809   9.636  0.2704  0.2668 -0.3492
   69MOL0     N 9026   1.366   8.330  10.142  0.1287 -0.4994 -0.1485
   69MOL0     N 9027   1.285   8.278  10.230  0.1335 -0.2053 -0.5112
   69MOL0     C 9028   0.856   9.250  11.011 -0.6077 -0.2354  1.0068
   69MOL0     C 9029   0.778   9.352  11.060 -0.1576  0.0869 -0.4370
   69MOL0     C 9030   0.364   9.559  11.144  0.1337 -0.1398 -0.6273
   69MOL0     C 9031   0.366   9.544  11.287  0.1626  0.3633  0.7286
   69MOL0     C 9032   0.272   9.609  11.366 -0.7410 -0.4616  0.3474
   69MOL0     C 9033   0.157   9.665  11.311  0.5878 -0.3973  0.5152
   69MOL0     O 9034   0.045   9.709  11.379 -0.3852 -0.5288 -1.0235
   69MOL0     C 9035   0.068   9.745  11.523  0.8458  0.4821  0.4790
   69MOL0     C 9036  -0.061   9.787  11.591  0.2509  0.4451 -0.8840
   69MOL0     C 9037  -0.125   9.919  11.535 -0.0628 -0.4847 -0.2172
   69MOL0     C 9038  -0.240   9.974  11.624  0.3476  0.0894  0.4963
   69MOL0     C 9039  -0.322  10.068  11.542 -0.1277 -0.0085 -0.0052
   69MOL0     C 9040  -0.375  10.154  11.483  0.9137  0.3044  0.1934
   69MOL0     C 9041   0.144   9.662  11.173 -0.9425  0.2834 -0.2373
   69MOL0     C 9042   0.246   9.614  11.083 -0.2972  0.1808 -0.5212
   69MOL0     H 9043   0.476   9.236  10.964 -0.4395  2.1532  2.7857
   69MOL0     H 9044   0.614   9.062  10.849  2.7630 -1.5205 -0.3344
   69MOL0     H 9045   0.847   9.005  10.706 -2.2652  0.7458  0.1156
   69MOL0     H 9046   0.780   8.908  10.839  0.8205 -0.8302  2.2487
   69MOL0     H 9047   0.999   8.804  10.881 -0.5660 -1.7022 -0.5247
   69MOL0     H 9048   1.068   8.885  10.739 -0.7270  1.2492 -0.1506
   69MOL0     H 9049   0.903   8.795  10.582 -0.1008 -1.2253 -1.1634
   69MOL0     H 9050   0.817   8.721  10.708 -0.6950  0.3828 -1.5819
   69MOL0     H 9051   1.113   8.645  10.672 -0.3777  3.4280 -1.4540
   69MOL0     H 9052   0.980   8.559  10.749 -0.1015  2.3027  1.6676
   69MOL0     H 9053   1.001   8.624  10.444  1.2134 -1.2252 -1.4021
   69MOL0     H 9054   0.858   8.569  10.508 -1.3635  0.9840  2.2387
   69MOL0     H 9055   0.994   8.386  10.411 -1.1335  0.9919 -0.5747
   69MOL0     H 9056   0.964   8.341  10.571  1.1107 -2.2955 -1.9723
   69MOL0     H 9057   1.218   8.514  10.515  0.9686  0.4685  0.9349
   69MOL0     H 9058   1.182   8.411  10.653 -0.1650  0.0544  0.2308
   69MOL0     H 9059   1.206   8.210  10.455  2.5785 -1.8967 -2.7747
   69MOL0     H 9060   1.338   8.287  10.541 -1.0173  2.1905  1.6590
   69MOL0     H 9061   1.409   8.537  10.396  0.7245 -1.0188  0.1277
   69MOL0     H 9062   1.495   8.511   9.999 -2.1651 -1.3831 -0.7228
   69MOL0     H 9063   1.563   8.603  10.142 -1.4063  1.1144  2.8074
   69MOL0     H 9064   1.336   8.709  10.181  1.4122  3.7863 -0.6219
   69MOL0     H 9065   1.284   8.640  10.025 -0.0697 -3.7056  1.3458
   69MOL0     H 9066   1.344   8.870  10.011 -0.5220 -0.4835 -2.1645
   69MOL0     H 9067   1.489   8.844  10.099 -0.4446 -0.3672  1.7536
   69MOL0     H 9068   1.424   8.730   9.824 -0.6306 -0.4145 -0.6451
   69MOL0     H 9069   1.582   8.717   9.905  0.6755  1.8026  0.9731
   69MOL0     H 9070   1.642   9.114   9.763 -1.9289  0.7656 -1.5273
   69MOL0     H 9071   1.779   9.162   9.564  1.5898  1.1896  3.7053
   69MOL0     H 9072   2.003   9.318   9.390  0.8150 -0.7700  0.1230
   69MOL0     H 9073   2.192   9.394   9.248  1.5163 -1.8415  0.7734
   69MOL0     H 9074   2.183   9.258   8.844  0.9346 -1.2415 -1.4981
   69MOL0     H 9075   2.336   9.182   8.890  0.5343 -0.0926 -1.2634
   69MOL0     H 9076   2.443   9.395   8.915  0.1014 -1.5283 -0.3636
   69MOL0     H 9077   2.328   9.480   8.809 -0.3694 -0.4546 -2.4028
   69MOL0     H 9078   2.395   9.376   8.614  1.6614  1.3833  0.1398
   69MOL0     H 9079   2.436   9.220   8.692  0.4138  0.6160 -3.0236
   69MOL0     H 9080   2.619   9.363   8.597 -0.6855 -1.5702 -0.0146
   69MOL0     H 9081   2.577   9.483   8.721  1.0622  1.3963 -3.5786
   69MOL0     H 9082   2.684   9.197   8.779  1.0408 -0.3235  0.6948
   69MOL0     H 9083   2.646   9.320   8.899  0.6987 -0.2806 -0.2447
   69MOL0     H 9084   2.860   9.294   8.681 -0.7833 -1.7296 -0.3936
   69MOL0     H 9085   2.893   9.295   8.844 -0.8853  1.2758  2.8940
   69MOL0     H 9086   2.825   9.546   8.685 -0.1447  1.9447  0.3884
   69MOL0     H 9087   2.782   9.531   8.854 -1.2351 -4.7092  1.2755
   69MOL0     H 9088   3.035   9.480   8.909 -0.9798  1.2811  0.9713
   69MOL0     H 9089   3.020   9.629   8.813  0.0954  0.5571 -1.6576
   69MOL0     H 9090   2.130   9.080   8.985  2.2357  0.8844  1.4029
   69MOL0     H 9091   1.956   8.995   9.116  2.0280 -0.4985  1.0671
   69MOL0     H 9092   1.728   8.751   9.445 -3.4866  0.1982 -0.5159
   69MOL0     H 9093   1.584   8.720   9.646  1.8344 -0.8367 -0.1367
   69MOL0     H 9094   0.964   9.266  11.019 -0.4237  1.2292 -2.7495
   69MOL0     H 9095   0.816   9.439  11.114  0.4520  0.8115 -1.9776
   69MOL0     H 9096   0.452   9.491  11.326  0.2417 -0.9597 -1.1590
   69MOL0     H 9097   0.283   9.598  11.473  1.0303  1.7671  0.4645
   69MOL0     H 9098   0.139   9.828  11.524  2.6896 -1.0142  0.2392
   69MOL0     H 9099   0.102   9.658  11.580 -1.5044 -0.4889  0.5350
   69MOL0     H 9100  -0.131   9.703  11.587 -0.5335  0.7306  2.7561
   69MOL0     H 9101  -0.048   9.792  11.700 -3.3034  0.4741 -0.3405
   69MOL0     H 9102  -0.156   9.887  11.435  0.7708 -3.7982  0.4565
   69MOL0     H 9103  -0.053  10.001  11.524  1.1446 -1.1222  2.2763
   69MOL0     H 9104  -0.312   9.896  11.649  0.5606 -0.8218 -1.5487
   69MOL0     H 9105  -0.207  10.022  11.717  2.7235  2.0525 -1.2260
   69MOL0     H 9106  -0.429  10.230  11.430 -0.4536 -0.7077  0.0714
   69MOL0     H 9107   0.059   9.711  11.127  0.3828  1.4851 -1.5467
   69MOL0     H 9108   0.228   9.629  10.977  2.0729 -0.9071 -1.1512
   70MOL0     O 9109  11.223   5.973   3.794  0.6069 -0.0840  0.6982
   70MOL0     C 9110  11.249   5.884   3.713  0.3356  0.0794  0.2851
   70MOL0     O 9111  11.159   5.805   3.648 -0.1613 -0.1568 -0.8071
   70MOL0     C 9112  11.021   5.795   3.661  0.3856 -0.1224  0.5093
   70MOL0     C 9113  10.932   5.885   3.725 -0.4381  0.4216  0.5680
   70MOL0     C 9114  10.794   5.874   3.728 -0.3079  0.3201  0.1676
   70MOL0     C 9115  10.733   5.760   3.664 -0.3449  0.4975 -0.2477
   70MOL0     O 9116  10.599   5.745   3.663  0.1923 -0.8227  0.1679
   70MOL0     C 9117  10.542   5.621   3.617  0.2208  0.2749 -0.2002
   70MOL0     C 9118  10.393   5.617   3.649 -0.4717  0.6467 -0.3187
   70MOL0     C 9119  10.298   5.688   3.546  0.0922  0.7301 -0.2494
   70MOL0     C 9120  10.152   5.656   3.580 -0.1664  0.6095 -0.6202
   70MOL0     C 9121  10.050   5.714   3.486 -0.2246 -0.2351  0.0153
   70MOL0     C 9122   9.913   5.651   3.520 -0.5264 -0.2896  1.2723
   70MOL0     C 9123   9.795   5.707   3.445  0.8800 -0.8718  0.4708
   70MOL0     C 9124   9.790   5.672   3.300 -0.2890  0.2336  0.7966
   70MOL0     N 9125   9.688   5.731   3.218 -0.3552  0.0893 -0.2589
   70MOL0     C 9126   9.556   5.699   3.219  0.6644  0.7207 -0.6739
   70MOL0     C 9127   9.502   5.797   3.144  0.1483  0.1178  0.0637
   70MOL0     C 9128   9.357   5.787   3.098 -0.0029  0.0433  0.3362
   70MOL0     C 9129   9.332   5.721   2.960  0.4093  0.7846 -0.0701
   70MOL0     C 9130   9.251   5.591   2.968 -0.2096 -0.4669  0.0257
   70MOL0     C 9131   9.244   5.519   2.834  0.5814 -0.2019 -0.9542
   70MOL0     O 9132   9.171   5.587   2.730 -0.4146  0.4362  0.5438
   70MOL0     C 9133   9.039   5.553   2.703 -0.1492 -0.2867  1.1519
   70MOL0     C 9134   8.954   5.487   2.796 -0.4795 -0.3606  0.1977
   70MOL0     C 9135   8.825   5.466   2.767 -0.2359  0.4058 -0.1201
   70MOL0     C 9136   8.765   5.524   2.649  0.0509  0.4404 -0.2498
   70MOL0     C 9137   8.620   5.528   2.619 -0.3179  0.2657 -0.2679
   70MOL0     O 9138   8.553   5.417   2.657 -0.3725  0.2372 -0.5625
   70MOL0     C 9139   8.423   5.404   2.643  0.2765  0.1781  0.1409
   70MOL0     C 9140   8.369   5.314   2.547 -0.8239 -0.9099 -0.6982
   70MOL0     C 9141   8.239   5.317   2.509  0.1785 -0.3045 -0.3318
   70MOL0     C 9142   8.154   5.410   2.569 -0.6595 -0.1010 -0.6510
   70MOL0     O 9143   8.034   5.409   2.517 -0.7678 -0.1718 -1.0122
   70MOL0     C 9144   7.932   5.381   2.604  1.2657 -0.2739 -0.4966
   70MOL0     C 9145   7.801   5.372   2.516  1.1220 -0.9059 -0.2601
   70MOL0     C 9146   7.687   5.311   2.597  0.4747 -0.5275 -0.4037
   70MOL0     C 9147   7.628   5.409   2.697  0.2094  0.0774 -0.4008
   70MOL0     C 9148   7.519   5.506   2.645 -0.0665  0.4042 -0.0299
   70MOL0     C 9149   7.451   5.571   2.759  0.0753 -0.1927  0.6197
   70MOL0     C 9150   7.321   5.631   2.711 -0.0610  0.1945 -1.6334
   70MOL0     C 9151   7.218   5.530   2.677 -0.1675 -0.7592 -0.2322
   70MOL0    Cl 9152   7.049   5.591   2.720 -0.2497 -0.2036  0.2956
   70MOL0     C 9153   8.197   5.493   2.667 -0.4749 -0.0263 -1.5581
   70MOL0     C 9154   8.330   5.491   2.704  0.7443 -0.0230  0.2383
   70MOL0     O 9155   8.567   5.625   2.564 -0.7982 -0.0484 -0.5245
   70MOL0     C 9156   8.847   5.585   2.556  0.1819  0.3888  0.2773
   70MOL0     C 9157   8.986   5.588   2.577 -0.6600  0.1145  0.6177
   70MOL0     N 9158   9.591   5.895   3.102 -0.3751 -0.0125  0.4833
   70MOL0     N 9159   9.701   5.853   3.157  0.3311 -0.2385  0.0943
   70MOL0     C 9160  10.830   5.669   3.609  1.1063  0.3832  0.6568
   70MOL0     C 9161  10.968   5.687   3.598  0.1595 -0.5383 -0.0140
   70MOL0     C 9162  11.386   5.856   3.676  0.8252 -0.3194 -0.0914
   70MOL0     C 9163  11.416   5.790   3.557  0.9098 -0.1158 -0.3746
   70MOL0     C 9164  11.547   5.761   3.529  0.3957 -0.0046  0.7514
   70MOL0     C 9165  11.655   5.798   3.608  0.6522 -0.8523 -0.3393
   70MOL0     O 9166  11.778   5.772   3.552 -0.8181 -0.0075 -0.7947
   70MOL0     C 9167  11.896   5.776   3.633 -0.9662 -0.3226  0.9663
   70MOL0     C 9168  11.941   5.924   3.630  0.4230 -0.2382 -0.0984
   70MOL0     C 9169  11.948   6.011   3.497  0.8906 -0.3110  0.7760
   70MOL0     C 9170  12.040   5.945   3.400  0.0988  0.0583  0.5872
   70MOL0     C 9171  12.182   5.969   3.433 -0.1983 -0.0388 -0.8561
   70MOL0     C 9172  12.293   6.004   3.440 -0.5113 -0.7981 -0.4860
   70MOL0     C 9173  11.625   5.868   3.732 -0.2100 -0.3401  0.4172
   70MOL0     C 9174  11.496   5.897   3.762  0.8902  0.3057  0.2341
   70MOL0     H 9175  10.977   5.979   3.757 -0.1719 -0.0931  1.7920
   70MOL0     H 9176  10.722   5.948   3.762  0.0282  0.3352  0.8531
   70MOL0     H 9177  10.588   5.534   3.665  0.1983 -1.5734 -3.2246
   70MOL0     H 9178  10.559   5.609   3.509  2.7866  1.1440  0.0200
   70MOL0     H 9179  10.384   5.667   3.746  0.5690 -1.2755  0.8187
   70MOL0     H 9180  10.360   5.513   3.657 -0.0325  0.4123 -1.3766
   70MOL0     H 9181  10.335   5.655   3.449 -0.1908  0.0039 -0.1158
   70MOL0     H 9182  10.317   5.796   3.544 -4.2299  1.6708 -1.2690
   70MOL0     H 9183  10.138   5.547   3.585  0.7468  0.2963 -3.3023
   70MOL0     H 9184  10.127   5.698   3.677  1.7972 -2.1497  1.2207
   70MOL0     H 9185  10.073   5.685   3.383  2.3810 -1.3492  0.8314
   70MOL0     H 9186  10.050   5.823   3.492  3.2708 -0.2004  2.0398
   70MOL0     H 9187   9.894   5.683   3.622  1.4895 -0.8125  1.8388
   70MOL0     H 9188   9.919   5.542   3.511  1.8571 -0.2718  2.0931
   70MOL0     H 9189   9.700   5.669   3.484 -0.3839  2.6428  1.1995
   70MOL0     H 9190   9.792   5.817   3.451 -3.3990 -0.7373 -0.6763
   70MOL0     H 9191   9.781   5.563   3.299 -2.5895  0.3717  0.6244
   70MOL0     H 9192   9.883   5.697   3.248 -0.4515  1.4818  1.0897
   70MOL0     H 9193   9.515   5.607   3.259 -0.9487  0.8157 -1.9916
   70MOL0     H 9194   9.317   5.889   3.095  0.2712  0.2603  2.4380
   70MOL0     H 9195   9.307   5.734   3.180 -1.2975 -1.2297 -1.2047
   70MOL0     H 9196   9.429   5.706   2.913 -0.4032  0.2583 -1.6197
   70MOL0     H 9197   9.283   5.792   2.893  0.0161 -1.3145 -2.0785
   70MOL0     H 9198   9.306   5.533   3.043  3.1842  0.4375 -1.5808
   70MOL0     H 9199   9.148   5.606   3.001  0.0879 -0.2632  0.8862
   70MOL0     H 9200   9.188   5.427   2.853  0.6732  0.3112  2.2732
   70MOL0     H 9201   9.343   5.490   2.797  0.6417  0.4215 -1.3087
   70MOL0     H 9202   8.992   5.442   2.887  3.8088  1.3399 -0.5061
   70MOL0     H 9203   8.768   5.409   2.839 -1.4634  0.4443 -1.0165
   70MOL0     H 9204   8.432   5.250   2.485  0.7136  0.0758 -0.2333
   70MOL0     H 9205   8.201   5.257   2.427  0.4475  1.6152 -1.9388
   70MOL0     H 9206   7.918   5.469   2.668  1.2825  1.0349 -2.2216
   70MOL0     H 9207   7.951   5.290   2.662 -2.3617 -0.8999 -0.0833
   70MOL0     H 9208   7.808   5.296   2.437 -2.8892 -1.6382 -0.1405
   70MOL0     H 9209   7.788   5.468   2.464 -0.0502 -1.0511 -0.2755
   70MOL0     H 9210   7.722   5.227   2.659 -0.4150 -1.2556 -0.8696
   70MOL0     H 9211   7.610   5.272   2.530  0.8736  0.4762 -1.4743
   70MOL0     H 9212   7.572   5.340   2.762  2.8470 -2.9117 -1.0552
   70MOL0     H 9213   7.708   5.457   2.754  1.2893 -1.7143 -0.3400
   70MOL0     H 9214   7.456   5.450   2.576 -2.1886  3.9149 -1.2111
   70MOL0     H 9215   7.566   5.582   2.583 -0.6062 -0.7511 -1.9249
   70MOL0     H 9216   7.521   5.644   2.802  0.1668  0.3938 -0.4652
   70MOL0     H 9217   7.423   5.498   2.835 -1.3126  0.0726  0.3801
   70MOL0     H 9218   7.292   5.689   2.799  0.4448  1.0149 -1.9970
   70MOL0     H 9219   7.331   5.703   2.630 -2.9786  2.5395 -0.0924
   70MOL0     H 9220   7.242   5.434   2.724  2.8489  0.3265  0.6124
   70MOL0     H 9221   7.227   5.521   2.569  2.3976  2.6020 -0.4497
   70MOL0     H 9222   8.123   5.562   2.707  0.6635 -0.3959  1.4470
   70MOL0     H 9223   8.370   5.555   2.782  2.6770  1.1076 -1.5813
   70MOL0     H 9224   8.801   5.625   2.466 -0.9243 -1.4392 -0.0217
   70MOL0     H 9225   9.057   5.630   2.506 -0.4242  1.8622  1.8397
   70MOL0     H 9226  10.798   5.583   3.552 -0.6733  2.9419 -2.5642
   70MOL0     H 9227  11.035   5.617   3.548  0.3923 -1.7717  1.8860
   70MOL0     H 9228  11.343   5.758   3.483 -1.2781  1.1203  1.1239
   70MOL0     H 9229  11.565   5.714   3.433  0.1484 -2.9494  2.0411
   70MOL0     H 9230  11.972   5.722   3.575 -2.5121 -3.0934  1.3661
   70MOL0     H 9231  11.878   5.729   3.730  0.7711 -3.4729 -0.0971
   70MOL0     H 9232  11.876   5.980   3.698  1.7907  0.4176  0.7201
   70MOL0     H 9233  12.039   5.929   3.679 -1.0714  0.0057  3.1884
   70MOL0     H 9234  11.986   6.111   3.522 -1.9412  1.3292 -0.9495
   70MOL0     H 9235  11.844   6.022   3.465  1.3068 -0.1331 -0.5754
   70MOL0     H 9236  12.023   5.838   3.393  1.1675 -0.1647  1.2396
   70MOL0     H 9237  12.019   5.981   3.299  2.5025  1.7284  0.6117
   70MOL0     H 9238  12.397   6.030   3.435 -0.7634  1.1257  1.9938
   70MOL0     H 9239  11.704   5.898   3.800 -0.1099  1.2990 -0.3698
   70MOL0     H 9240  11.474   5.955   3.851  0.2173 -0.3972  0.5437
   71MOL0     O 9241   6.103   9.100   7.539  0.4600 -0.7058 -0.5086
   71MOL0     C 9242   6.038   9.179   7.477  0.0051 -0.1381 -0.4076
   71MOL0     O 9243   5.903   9.183   7.469  0.5214  0.7254 -0.1790
   71MOL0     C 9244   5.828   9.109   7.558  1.0063  0.8010 -0.0406
   71MOL0     C 9245   5.861   9.088   7.695 -0.2674  0.8587  0.4308
   71MOL0     C 9246   5.791   9.004   7.780 -0.6831  0.2630 -0.5691
   71MOL0     C 9247   5.678   8.944   7.734  0.5057  0.7130 -0.0383
   71MOL0     O 9248   5.633   8.846   7.820  0.0997 -0.5914 -0.0009
   71MOL0     C 9249   5.548   8.738   7.773  0.7388 -0.2896  0.1113
   71MOL0     C 9250   5.482   8.682   7.901  0.5297  0.3758  0.0763
   71MOL0     C 9251   5.411   8.550   7.875  0.2382  0.1165  1.1259
   71MOL0     C 9252   5.342   8.484   7.995 -0.6971 -0.2953 -0.2317
   71MOL0     C 9253   5.203   8.435   7.961  0.2008  0.4118  0.2924
   71MOL0     C 9254   5.088   8.534   7.942 -0.5422  0.1944 -0.1748
   71MOL0     C 9255   4.944   8.469   7.957  0.5089 -0.1401 -0.1180
   71MOL0     C 9256   4.891   8.406   7.825  0.9999 -0.4900 -0.7018
   71MOL0     N 9257   4.761   8.347   7.858  0.3371 -0.1323  0.7232
   71MOL0     C 9258   4.640   8.414   7.832  0.2300 -0.5675 -1.2010
   71MOL0     C 9259   4.538   8.332   7.871 -0.7370  0.1914 -0.9071
   71MOL0     C 9260   4.388   8.366   7.872  0.1638 -0.3044  0.1675
   71MOL0     C 9261   4.290   8.245   7.883 -0.4518 -0.7103 -0.3848
   71MOL0     C 9262   4.287   8.206   8.031  0.9866 -0.4328 -0.4898
   71MOL0     C 9263   4.175   8.102   8.051  0.6081  0.0898 -0.1001
   71MOL0     O 9264   4.047   8.160   8.061 -0.1859 -0.2998  0.6959
   71MOL0     C 9265   3.923   8.094   8.071 -0.0355 -0.2636  0.1594
   71MOL0     C 9266   3.802   8.162   8.058 -0.7757  0.3345 -0.4182
   71MOL0     C 9267   3.682   8.090   8.035 -0.5550 -0.0508 -0.0276
   71MOL0     C 9268   3.673   7.955   8.038 -0.9677  0.2296  0.4330
   71MOL0     C 9269   3.549   7.884   8.001 -0.4830 -0.8775 -0.0067
   71MOL0     O 9270   3.574   7.757   7.957 -0.1179 -0.4331  0.5943
   71MOL0     C 9271   3.466   7.683   7.914  0.5594 -0.2537  0.4417
   71MOL0     C 9272   3.392   7.707   7.797  0.0805  0.0309 -0.1629
   71MOL0     C 9273   3.290   7.613   7.764  0.0031  0.9116 -0.0179
   71MOL0     C 9274   3.250   7.513   7.855  0.2063 -0.4079  0.3094
   71MOL0     O 9275   3.141   7.438   7.807 -0.3768 -0.9057 -0.1817
   71MOL0     C 9276   3.125   7.314   7.878  0.5427 -0.6556 -0.1024
   71MOL0     C 9277   2.994   7.252   7.823 -0.0778  0.2257 -0.7814
   71MOL0     C 9278   2.946   7.126   7.907 -0.0234  0.0323  0.5551
   71MOL0     C 9279   2.797   7.100   7.894 -0.4322 -0.5376  0.8505
   71MOL0     C 9280   2.767   6.975   7.975  0.5603  0.8642 -0.1256
   71MOL0     C 9281   2.618   6.935   7.944  0.2456  0.1049 -0.2359
   71MOL0     C 9282   2.590   6.808   8.021  0.4349 -0.2135 -0.5452
   71MOL0     C 9283   2.448   6.807   8.071  0.9335 -0.2214 -0.2415
   71MOL0    Cl 9284   2.353   6.790   7.917  0.4652 -0.1292 -0.4774
   71MOL0     C 9285   3.331   7.496   7.970 -0.2971  0.8498 -1.0476
   71MOL0     C 9286   3.435   7.581   8.000 -0.1618 -0.3295  0.0639
   71MOL0     O 9287   3.429   7.929   8.000 -0.4093  0.5493  0.1158
   71MOL0     C 9288   3.800   7.889   8.056  0.1962  0.6132  0.8366
   71MOL0     C 9289   3.921   7.955   8.083 -0.0189  0.2406 -0.6859
   71MOL0     N 9290   4.598   8.217   7.919 -0.9988 -0.1224  0.1381
   71MOL0     N 9291   4.727   8.223   7.905  0.2788  0.5898 -0.4379
   71MOL0     C 9292   5.636   8.952   7.596  0.1421 -0.1612 -0.0731
   71MOL0     C 9293   5.712   9.043   7.517 -0.5427 -0.6417  0.3128
   71MOL0     C 9294   6.107   9.268   7.390 -0.5345  0.1613  0.1890
   71MOL0     C 9295   6.039   9.370   7.317 -0.5539  0.2489  0.8884
   71MOL0     C 9296   6.110   9.453   7.236 -0.3023  0.2552  0.5454
   71MOL0     C 9297   6.253   9.433   7.214 -0.2512  0.0427 -0.5433
   71MOL0     O 9298   6.334   9.496   7.118  0.3258 -0.3446 -0.8312
   71MOL0     C 9299   6.274   9.595   7.037 -0.7853  0.5856 -0.0517
   71MOL0     C 9300   6.249   9.734   7.101 -0.2066  0.0056 -1.0942
   71MOL0     C 9301   6.368   9.796   7.182  0.1833  0.2978  0.3384
   71MOL0     C 9302   6.481   9.863   7.103  0.6821  0.6760 -0.1728
   71MOL0     C 9303   6.540   9.790   6.995 -1.0054 -0.1001  0.4749
   71MOL0     C 9304   6.605   9.746   6.900  0.2200 -0.4728  0.0251
   71MOL0     C 9305   6.320   9.339   7.297  0.1449 -0.1329  0.5602
   71MOL0     C 9306   6.253   9.253   7.383  0.6995  0.4065  0.4326
   71MOL0     H 9307   5.950   9.129   7.742 -0.2950  0.5956  0.7112
   71MOL0     H 9308   5.832   8.980   7.878 -2.7000  2.0303  0.8249
   71MOL0     H 9309   5.607   8.661   7.723 -0.1854 -3.0962  3.0086
   71MOL0     H 9310   5.463   8.761   7.708 -0.4928 -4.6623 -0.1863
   71MOL0     H 9311   5.405   8.753   7.932 -1.1179 -2.4648  3.0922
   71MOL0     H 9312   5.559   8.683   7.979  0.3732  2.9609  0.3024
   71MOL0     H 9313   5.477   8.484   7.818 -0.5570 -0.1316  0.4738
   71MOL0     H 9314   5.339   8.579   7.797  2.6398  1.8599 -0.6245
   71MOL0     H 9315   5.393   8.391   8.023 -1.5529 -0.9845 -0.9260
   71MOL0     H 9316   5.354   8.551   8.081  1.7026 -0.0908 -0.6575
   71MOL0     H 9317   5.173   8.375   8.047 -2.2908  0.7935 -0.2568
   71MOL0     H 9318   5.205   8.352   7.889  0.6219  1.0059 -0.4088
   71MOL0     H 9319   5.096   8.573   7.840 -0.4802  0.1741 -0.1782
   71MOL0     H 9320   5.098   8.613   8.017  1.6277  0.8922 -1.0964
   71MOL0     H 9321   4.937   8.392   8.034  0.8692  1.0606  1.1571
   71MOL0     H 9322   4.875   8.547   7.989  2.7321  1.1405  1.8509
   71MOL0     H 9323   4.951   8.321   7.792  1.2867 -0.5579 -0.0300
   71MOL0     H 9324   4.879   8.486   7.751 -0.7546 -1.5801 -1.6605
   71MOL0     H 9325   4.623   8.512   7.789 -1.4330  0.2304  1.0877
   71MOL0     H 9326   4.363   8.422   7.781  0.0779  0.6917  0.7850
   71MOL0     H 9327   4.374   8.434   7.957  3.1406  1.9266 -0.9345
   71MOL0     H 9328   4.320   8.163   7.818  3.2006 -0.7212  1.0710
   71MOL0     H 9329   4.188   8.275   7.856 -0.4627  1.0706  1.3846
   71MOL0     H 9330   4.385   8.160   8.048 -0.4531 -3.6823 -0.3468
   71MOL0     H 9331   4.259   8.287   8.099 -1.6638 -1.0279 -0.7607
   71MOL0     H 9332   4.186   8.052   8.148 -0.6213 -0.8635 -0.4272
   71MOL0     H 9333   4.181   8.026   7.973  2.2329 -0.2838  0.3481
   71MOL0     H 9334   3.800   8.271   8.057  1.7412  0.5315 -3.8248
   71MOL0     H 9335   3.592   8.142   8.004  0.8300  1.6707 -1.4955
   71MOL0     H 9336   3.422   7.793   7.738 -1.0847 -0.6851 -1.8431
   71MOL0     H 9337   3.239   7.614   7.668 -0.5187 -2.3352  0.0995
   71MOL0     H 9338   3.114   7.329   7.986  3.7695  3.8827 -0.1363
   71MOL0     H 9339   3.209   7.248   7.854  0.5465 -0.1561 -1.5419
   71MOL0     H 9340   3.014   7.228   7.718 -0.5132 -0.7748 -0.6443
   71MOL0     H 9341   2.912   7.324   7.823  1.5639  2.2650  1.2177
   71MOL0     H 9342   2.965   7.148   8.013  1.9235  2.8441 -0.2601
   71MOL0     H 9343   3.000   7.034   7.883  0.7135  0.0504  2.0387
   71MOL0     H 9344   2.739   7.191   7.913 -2.0159 -1.2078 -0.4886
   71MOL0     H 9345   2.786   7.085   7.786 -3.6333  0.9196  0.8474
   71MOL0     H 9346   2.780   7.000   8.080  0.2550 -2.1392  0.7333
   71MOL0     H 9347   2.829   6.891   7.942 -2.1246 -0.4361 -2.2899
   71MOL0     H 9348   2.599   6.927   7.837 -1.8060 -0.7357  0.1375
   71MOL0     H 9349   2.551   7.018   7.970 -0.4624  0.6334 -3.3531
   71MOL0     H 9350   2.604   6.723   7.953 -1.0617 -1.9181  1.1734
   71MOL0     H 9351   2.658   6.797   8.106 -0.1498  0.9396  0.0941
   71MOL0     H 9352   2.419   6.901   8.117  0.0466 -0.3362 -0.5264
   71MOL0     H 9353   2.427   6.719   8.133  2.6104 -1.2065 -0.9987
   71MOL0     H 9354   3.319   7.413   8.040 -0.1751 -0.9755 -3.0871
   71MOL0     H 9355   3.485   7.567   8.096 -0.3850 -6.2037 -0.3185
   71MOL0     H 9356   3.797   7.781   8.068 -2.7105  0.5500  0.2399
   71MOL0     H 9357   4.008   7.891   8.089 -1.3545 -1.5151  0.7853
   71MOL0     H 9358   5.549   8.895   7.564 -1.4726  0.2127  3.1954
   71MOL0     H 9359   5.683   9.056   7.413 -0.2741 -2.0137  0.0461
   71MOL0     H 9360   5.932   9.388   7.320 -0.6383  0.3296 -1.2917
   71MOL0     H 9361   6.067   9.532   7.176 -0.0416  1.8006  2.3155
   71MOL0     H 9362   6.182   9.553   6.995  0.2726  1.7818 -4.0477
   71MOL0     H 9363   6.336   9.600   6.947  0.2287 -0.9889  0.5191
   71MOL0     H 9364   6.198   9.797   7.028 -1.4580  0.0875 -0.1806
   71MOL0     H 9365   6.175   9.727   7.182  1.7944  4.6762  1.5439
   71MOL0     H 9366   6.417   9.734   7.257 -1.5476  2.0993  3.1567
   71MOL0     H 9367   6.322   9.873   7.243  1.5721  0.7722  0.8310
   71MOL0     H 9368   6.440   9.958   7.068 -0.3609 -0.1069 -1.1577
   71MOL0     H 9369   6.559   9.899   7.171 -0.2368  1.9803  0.2467
   71MOL0     H 9370   6.678   9.705   6.833 -0.0067 -2.3263  0.8625
   71MOL0     H 9371   6.428   9.332   7.290  0.0432 -4.7709  0.4913
   71MOL0     H 9372   6.306   9.175   7.437  2.0547  2.3642  2.1123
   72MOL0     O 9373   5.906  10.646  10.855  0.2020  0.2430 -0.1089
   72MOL0     C 9374   5.946  10.739  10.798 -0.3603  0.6164  0.5865
   72MOL0     O 9375   5.890  10.862  10.780  0.4808  0.0396 -1.3858
   72MOL0     C 9376   5.784  10.906  10.854 -0.1120  0.2264  0.4824
   72MOL0     C 9377   5.715  11.013  10.802 -0.4706  0.5441  0.6542
   72MOL0     C 9378   5.619  11.079  10.869 -0.8485 -0.6016 -0.1567
   72MOL0     C 9379   5.581  11.030  10.995 -0.1159 -0.2886  0.1931
   72MOL0     O 9380   5.494  11.122  11.056 -0.4521 -0.0488 -0.2713
   72MOL0     C 9381   5.430  11.081  11.184 -0.3354 -0.8025  0.2856
   72MOL0     C 9382   5.332  11.174  11.246  0.9632 -0.1352 -1.2397
   72MOL0     C 9383   5.209  11.181  11.156 -0.4269  0.2401 -0.2886
   72MOL0     C 9384   5.111  11.292  11.191  0.5766 -0.8632 -0.0349
   72MOL0     C 9385   4.969  11.256  11.173  0.0814  0.4211  0.0607
   72MOL0     C 9386   4.884  11.376  11.182 -0.0869 -1.1694  1.2190
   72MOL0     C 9387   4.739  11.342  11.132 -0.0113 -0.1616 -0.3378
   72MOL0     C 9388   4.654  11.470  11.165  0.6355 -0.4502  0.1534
   72MOL0     N 9389   4.506  11.437  11.152  0.3214 -0.4421  0.7610
   72MOL0     C 9390   4.443  11.321  11.123 -0.2635  0.4475  0.0319
   72MOL0     C 9391   4.311  11.340  11.103 -0.7577  0.2247 -0.2691
   72MOL0     C 9392   4.217  11.232  11.071 -0.4257 -0.0349 -0.5497
   72MOL0     C 9393   4.112  11.211  11.171  0.7745  0.2001 -1.0937
   72MOL0     C 9394   3.991  11.302  11.152 -1.1595 -0.3766 -0.4267
   72MOL0     C 9395   3.885  11.284  11.257  1.1487  0.3679 -0.2481
   72MOL0     O 9396   3.802  11.171  11.231 -0.1152 -0.7228  0.2997
   72MOL0     C 9397   3.679  11.163  11.284  0.3044  0.1629 -0.5363
   72MOL0     C 9398   3.641  11.250  11.390  0.9308  0.5524  1.0990
   72MOL0     C 9399   3.516  11.236  11.445  0.2725 -0.4494 -0.3524
   72MOL0     C 9400   3.425  11.147  11.392  1.0323 -0.4541  0.6629
   72MOL0     C 9401   3.284  11.128  11.442  0.2469 -0.1977  0.5681
   72MOL0     O 9402   3.209  11.015  11.400  0.4068 -0.1925  0.0977
   72MOL0     C 9403   3.075  10.993  11.412  0.7434  0.1479 -0.0502
   72MOL0     C 9404   2.984  11.076  11.480 -1.0559  0.9592 -0.1772
   72MOL0     C 9405   2.849  11.041  11.475 -0.3688 -0.0335  0.1205
   72MOL0     C 9406   2.810  10.918  11.423 -0.2930  0.4982 -0.3709
   72MOL0     O 9407   2.678  10.877  11.407 -0.6690 -0.1074  0.7453
   72MOL0     C 9408   2.605  10.965  11.326 -0.4097  0.0937  0.3235
   72MOL0     C 9409   2.482  10.885  11.282 -0.2055  1.1820  0.3369
   72MOL0     C 9410   2.393  10.842  11.401 -0.3133  0.2737  0.4767
   72MOL0     C 9411   2.313  10.724  11.362  0.5451  0.3992 -0.3288
   72MOL0     C 9412   2.233  10.688  11.489 -0.5104  0.8517 -0.8468
   72MOL0     C 9413   2.131  10.579  11.469 -0.6590 -0.2010  0.4185
   72MOL0     C 9414   2.083  10.505  11.594 -0.2244 -0.6944 -0.0890
   72MOL0     C 9415   2.161  10.369  11.619 -0.5973 -0.4371  1.2585
   72MOL0    Cl 9416   2.149  10.251  11.477  0.2523 -0.0935 -0.2580
   72MOL0     C 9417   2.899  10.834  11.359  0.0269 -0.5355  0.1194
   72MOL0     C 9418   3.032  10.870  11.355  0.3496  0.1612 -0.0363
   72MOL0     O 9419   3.255  11.209  11.534  0.6249  0.6420  0.1091
   72MOL0     C 9420   3.461  11.065  11.287  0.3496 -0.3636  0.0794
   72MOL0     C 9421   3.585  11.082  11.226  0.7003  0.4046 -0.4010
   72MOL0     N 9422   4.295  11.477  11.127  0.3155  0.8045 -0.8409
   72MOL0     N 9423   4.407  11.536  11.158  0.2641  0.2730  0.2888
   72MOL0     C 9424   5.636  10.914  11.048 -0.8199  0.3074 -0.3654
   72MOL0     C 9425   5.743  10.849  10.979  0.4041 -0.0531  0.7172
   72MOL0     C 9426   6.080  10.725  10.723  0.3245 -1.5264 -0.1577
   72MOL0     C 9427   6.164  10.625  10.745  0.4412  0.8462 -0.6635
   72MOL0     C 9428   6.276  10.608  10.670 -0.3203 -1.5100 -0.5881
   72MOL0     C 9429   6.305  10.694  10.566 -0.9550 -0.4447 -0.1464
   72MOL0     O 9430   6.425  10.689  10.493  1.1174  0.7893  0.2189
   72MOL0     C 9431   6.483  10.564  10.443  0.9181  0.2879 -0.4638
   72MOL0     C 9432   6.634  10.578  10.432  0.1669 -0.5933 -0.6395
   72MOL0     C 9433   6.722  10.549  10.553 -0.2352  0.4597  0.2985
   72MOL0     C 9434   6.870  10.548  10.521 -0.8936 -1.4800  0.1047
   72MOL0     C 9435   6.918  10.684  10.467  0.0069  0.2277 -0.6960
   72MOL0     C 9436   6.984  10.784  10.429  0.3038  0.3233 -0.1380
   72MOL0     C 9437   6.226  10.810  10.546 -0.6229 -0.0513 -0.7665
   72MOL0     C 9438   6.107  10.825  10.625  0.5208 -0.3834  0.4811
   72MOL0     H 9439   5.735  11.038  10.698 -1.8547 -0.9494 -0.0152
   72MOL0     H 9440   5.572  11.165  10.823 -1.6115 -0.6963  0.4231
   72MOL0     H 9441   5.504  11.054  11.259 -2.1689  0.2732  2.6028
   72MOL0     H 9442   5.380  10.985  11.168  0.2685 -0.9850 -0.6447
   72MOL0     H 9443   5.378  11.274  11.245  1.8040 -0.4320  1.2417
   72MOL0     H 9444   5.300  11.139  11.345 -1.2243 -0.6002 -2.0470
   72MOL0     H 9445   5.151  11.088  11.153  0.5595 -0.4374  0.8689
   72MOL0     H 9446   5.239  11.197  11.052 -0.3250 -0.8669 -0.4338
   72MOL0     H 9447   5.124  11.327  11.294  1.2099 -0.1233 -0.3606
   72MOL0     H 9448   5.130  11.380  11.130  0.7897 -1.0605 -0.2513
   72MOL0     H 9449   4.967  11.186  11.257  2.6870 -0.2294 -0.3342
   72MOL0     H 9450   4.947  11.206  11.078 -0.3953 -0.7187  0.7440
   72MOL0     H 9451   4.924  11.458  11.122  3.4796 -2.4071  1.6665
   72MOL0     H 9452   4.876  11.415  11.283 -2.5818  1.0777  0.2828
   72MOL0     H 9453   4.725  11.320  11.026  0.0519 -2.2796  0.0554
   72MOL0     H 9454   4.703  11.257  11.191 -1.5040  1.0272  0.5318
   72MOL0     H 9455   4.685  11.542  11.088  1.0524  0.5447  1.2252
   72MOL0     H 9456   4.681  11.515  11.260  3.0097 -2.0550  0.3218
   72MOL0     H 9457   4.493  11.224  11.118  2.3702  1.7868 -1.4789
   72MOL0     H 9458   4.271  11.141  11.044  2.2173  0.7435  1.6404
   72MOL0     H 9459   4.172  11.260  10.975  2.3388 -0.8283 -2.1672
   72MOL0     H 9460   4.149  11.236  11.271  0.5562  0.2746 -1.0301
   72MOL0     H 9461   4.083  11.106  11.175 -1.8762  0.8809  0.8980
   72MOL0     H 9462   4.034  11.403  11.151  2.0131 -1.5856  0.3693
   72MOL0     H 9463   3.932  11.293  11.061 -1.2566  1.2183 -0.5570
   72MOL0     H 9464   3.822  11.373  11.250 -1.1769 -1.2589 -1.8663
   72MOL0     H 9465   3.931  11.285  11.356 -0.1950  0.2951  0.4059
   72MOL0     H 9466   3.705  11.330  11.426  2.0195  1.1115 -1.8111
   72MOL0     H 9467   3.499  11.296  11.534 -0.6059  0.6240 -1.2214
   72MOL0     H 9468   3.006  11.171  11.528 -1.6787  0.8072  0.4261
   72MOL0     H 9469   2.771  11.101  11.521 -1.6789 -0.5501 -1.3540
   72MOL0     H 9470   2.669  11.005  11.246  0.4775 -0.6738  0.6218
   72MOL0     H 9471   2.568  11.052  11.381 -2.0126  0.0436 -0.6277
   72MOL0     H 9472   2.503  10.796  11.223 -2.6657  1.4648 -1.0846
   72MOL0     H 9473   2.420  10.940  11.210  0.5251  1.3832 -0.1468
   72MOL0     H 9474   2.333  10.928  11.432 -0.9236  1.9120 -4.4252
   72MOL0     H 9475   2.460  10.815  11.484  0.2262 -0.2561 -0.1230
   72MOL0     H 9476   2.244  10.749  11.280 -1.9993  3.3194  2.4498
   72MOL0     H 9477   2.369  10.632  11.344 -3.7031 -2.1245 -2.3932
   72MOL0     H 9478   2.183  10.776  11.532  1.3426  0.7392  1.7631
   72MOL0     H 9479   2.300  10.658  11.570  0.4542  3.3568 -0.6360
   72MOL0     H 9480   2.171  10.511  11.393 -0.1037  1.0361 -0.4409
   72MOL0     H 9481   2.058  10.638  11.414  0.3996 -0.6245 -1.5276
   72MOL0     H 9482   2.093  10.561  11.687 -0.9829  0.8080 -0.8906
   72MOL0     H 9483   1.977  10.487  11.577 -0.5832  0.4928  0.8118
   72MOL0     H 9484   2.120  10.324  11.710 -2.0125 -1.5884  0.1010
   72MOL0     H 9485   2.268  10.391  11.631  0.4944 -1.6609 -3.7375
   72MOL0     H 9486   2.861  10.745  11.312 -4.7255  1.2513  0.0267
   72MOL0     H 9487   3.092  10.791  11.311 -2.3094 -2.2310  0.2848
   72MOL0     H 9488   3.393  10.991  11.247  0.0707 -1.0982  1.8147
   72MOL0     H 9489   3.611  11.037  11.130 -1.1484  1.8309 -1.6518
   72MOL0     H 9490   5.613  10.867  11.143  0.4457  1.2683  0.4439
   72MOL0     H 9491   5.782  10.756  11.020 -1.6852 -1.3643 -0.1432
   72MOL0     H 9492   6.146  10.562  10.832  1.2448 -0.2773 -1.2872
   72MOL0     H 9493   6.348  10.535  10.703  1.4986  0.2777 -0.3819
   72MOL0     H 9494   6.447  10.555  10.340  0.7983  0.4393 -0.4347
   72MOL0     H 9495   6.457  10.469  10.492 -1.8132  1.3511  0.3213
   72MOL0     H 9496   6.659  10.511  10.350  0.2271 -1.8884  0.3948
   72MOL0     H 9497   6.648  10.683  10.403  0.2258 -0.3908  0.0893
   72MOL0     H 9498   6.701  10.447  10.587  0.0589  0.1878 -0.3080
   72MOL0     H 9499   6.702  10.627  10.627 -2.8597  0.8608 -0.7418
   72MOL0     H 9500   6.932  10.517  10.606  1.3855  2.2543 -0.0024
   72MOL0     H 9501   6.883  10.467  10.448 -1.8262 -0.0713 -1.7050
   72MOL0     H 9502   7.024  10.882  10.410 -0.6366  0.7036 -0.2355
   72MOL0     H 9503   6.258  10.895  10.487 -3.3803  0.6936 -1.3409
   72MOL0     H 9504   6.049  10.912  10.597  1.1203 -0.3238 -0.6168
   73MOL0     O 9505   6.924   7.732   3.363 -0.0568  0.1870  0.1142
   73MOL0     C 9506   6.977   7.673   3.458  0.2265 -0.1936 -0.1544
   73MOL0     O 9507   6.913   7.648   3.575  0.7405 -0.1021 -0.2366
   73MOL0     C 9508   6.795   7.723   3.596  0.7059 -0.0966  0.7878
   73MOL0     C 9509   6.793   7.848   3.650  0.0984 -1.3796  0.3606
   73MOL0     C 9510   6.664   7.909   3.677 -0.3095 -0.5229 -0.7754
   73MOL0     C 9511   6.545   7.848   3.654 -0.6018  0.1957  0.8773
   73MOL0     O 9512   6.426   7.918   3.680 -0.3302  0.6744  0.0239
   73MOL0     C 9513   6.304   7.867   3.640  0.0810 -0.7983 -0.5871
   73MOL0     C 9514   6.189   7.959   3.688 -0.2817 -0.2626 -0.5481
   73MOL0     C 9515   6.068   7.876   3.704 -0.1186 -0.7038 -0.2126
   73MOL0     C 9516   5.939   7.959   3.698  0.4629  0.0909 -1.0926
   73MOL0     C 9517   5.913   8.013   3.549  0.4640  0.6131  0.5625
   73MOL0     C 9518   5.772   8.062   3.522 -0.8618 -0.4433 -0.7516
   73MOL0     C 9519   5.747   8.120   3.379  0.3728  0.5424  0.4625
   73MOL0     C 9520   5.752   8.008   3.277 -0.2908  0.6807 -0.2776
   73MOL0     N 9521   5.663   7.895   3.301  0.5192 -0.3957 -0.1984
   73MOL0     C 9522   5.682   7.765   3.334  0.4549 -0.0298 -0.2422
   73MOL0     C 9523   5.565   7.707   3.333  0.4491  0.3808  0.7924
   73MOL0     C 9524   5.538   7.564   3.371  0.1086  0.2375  0.2995
   73MOL0     C 9525   5.414   7.558   3.473  0.7968  0.8950 -0.2129
   73MOL0     C 9526   5.408   7.425   3.549 -0.1299  0.1025  0.0011
   73MOL0     C 9527   5.342   7.308   3.480  0.2814 -0.5611  0.0465
   73MOL0     O 9528   5.210   7.331   3.420 -0.0676 -0.4978 -0.4245
   73MOL0     C 9529   5.107   7.237   3.435  0.4738  0.2576 -0.5491
   73MOL0     C 9530   5.105   7.146   3.538  0.2509  0.1308  0.3294
   73MOL0     C 9531   5.013   7.038   3.540  0.2155 -0.5806 -0.4212
   73MOL0     C 9532   4.911   7.040   3.444 -0.2331 -0.5405  0.9110
   73MOL0     C 9533   4.813   6.927   3.430 -0.1530  0.2581 -0.1114
   73MOL0     O 9534   4.737   6.930   3.316 -0.4073  0.8329 -0.0932
   73MOL0     C 9535   4.633   6.839   3.303 -0.1122 -0.7089 -0.5711
   73MOL0     C 9536   4.504   6.886   3.292  0.9880  1.3853  0.1998
   73MOL0     C 9537   4.400   6.791   3.275  0.5218  0.9808 -0.1006
   73MOL0     C 9538   4.421   6.654   3.272  0.2666 -0.4211 -0.4300
   73MOL0     O 9539   4.310   6.579   3.232  0.3849  0.2064 -0.7152
   73MOL0     C 9540   4.321   6.446   3.190  0.6827  0.1290  0.2281
   73MOL0     C 9541   4.185   6.393   3.137 -0.0147 -0.8938  0.6136
   73MOL0     C 9542   4.070   6.437   3.223  0.4362  0.2888  0.9686
   73MOL0     C 9543   3.946   6.370   3.172 -0.0756  0.7415 -0.6075
   73MOL0     C 9544   3.824   6.433   3.236  0.2109  0.2474  0.2315
   73MOL0     C 9545   3.696   6.361   3.198  0.1361 -0.1301  0.5733
   73MOL0     C 9546   3.677   6.226   3.270  0.0020 -0.0692 -0.5440
   73MOL0     C 9547   3.558   6.147   3.200  0.1359  0.4737  0.1563
   73MOL0    Cl 9548   3.593   6.096   3.038 -0.1140 -0.0881  0.0014
   73MOL0     C 9549   4.553   6.603   3.293  0.1476  0.2663  0.1849
   73MOL0     C 9550   4.653   6.696   3.308 -0.6657 -0.2356 -0.3677
   73MOL0     O 9551   4.803   6.847   3.518  0.1639 -0.5189 -0.9343
   73MOL0     C 9552   4.901   7.155   3.354  0.7390  0.6982 -0.4643
   73MOL0     C 9553   4.999   7.253   3.348 -0.3585 -0.0147 -0.3226
   73MOL0     N 9554   5.469   7.802   3.298 -0.0317 -0.1146 -0.0337
   73MOL0     N 9555   5.530   7.906   3.276  0.2680 -0.2339  0.4072
   73MOL0     C 9556   6.543   7.723   3.594 -0.6063 -0.2053 -0.8941
   73MOL0     C 9557   6.668   7.660   3.568 -0.2950  0.0812 -1.0592
   73MOL0     C 9558   7.117   7.612   3.435 -0.1750 -0.0995  0.8601
   73MOL0     C 9559   7.197   7.573   3.545  0.3028 -0.0429  0.3562
   73MOL0     C 9560   7.329   7.539   3.538 -0.8732  0.1357  1.3352
   73MOL0     C 9561   7.390   7.534   3.409 -1.1209 -0.1312 -0.5151
   73MOL0     O 9562   7.525   7.516   3.383  0.0036 -0.8828 -0.0322
   73MOL0     C 9563   7.606   7.471   3.494 -0.2140 -0.0065  0.2268
   73MOL0     C 9564   7.762   7.462   3.457  0.2097 -0.2828  0.5704
   73MOL0     C 9565   7.817   7.324   3.435 -0.1197 -0.4523  0.0800
   73MOL0     C 9566   7.805   7.235   3.560 -0.0326 -0.6086 -1.3484
   73MOL0     C 9567   7.896   7.122   3.541 -0.3619 -0.2160  0.1473
   73MOL0     C 9568   7.973   7.027   3.530  0.9779 -0.1406  0.5562
   73MOL0     C 9569   7.315   7.572   3.295  0.0358  0.4053 -0.0237
   73MOL0     C 9570   7.182   7.613   3.301 -0.8268 -0.3729 -0.3752
   73MOL0     H 9571   6.883   7.907   3.664 -0.9950  0.8892 -1.5076
   73MOL0     H 9572   6.672   8.010   3.714 -0.8037 -1.1477  1.1672
   73MOL0     H 9573   6.290   7.768   3.684  0.8670 -0.1338  1.2602
   73MOL0     H 9574   6.297   7.868   3.531  2.1950  3.3806 -0.8791
   73MOL0     H 9575   6.169   8.038   3.615  0.8915  0.7712  0.2166
   73MOL0     H 9576   6.225   8.015   3.775  0.2506  1.9026 -2.0827
   73MOL0     H 9577   6.086   7.837   3.804  1.9181 -0.3321 -0.3781
   73MOL0     H 9578   6.067   7.795   3.630 -1.6410  0.6071 -1.7223
   73MOL0     H 9579   5.851   7.899   3.724  0.5913  0.1376 -0.5334
   73MOL0     H 9580   5.946   8.038   3.773 -0.8540 -2.9309  2.5183
   73MOL0     H 9581   5.938   7.929   3.485 -1.1419  2.2961 -2.4980
   73MOL0     H 9582   5.983   8.093   3.522  0.0291  0.7030 -0.3431
   73MOL0     H 9583   5.751   8.145   3.591  1.0636  0.2566 -0.9605
   73MOL0     H 9584   5.697   7.983   3.537  0.8098 -1.8474  0.6245
   73MOL0     H 9585   5.646   8.163   3.387 -0.0119 -0.5529  2.1947
   73MOL0     H 9586   5.820   8.196   3.351  0.5979 -0.5476 -2.1927
   73MOL0     H 9587   5.853   7.975   3.254  0.3128  2.1246  0.1601
   73MOL0     H 9588   5.720   8.053   3.182 -0.1024  0.4173 -0.4630
   73MOL0     H 9589   5.764   7.707   3.375  0.6011 -0.9512 -1.7506
   73MOL0     H 9590   5.627   7.524   3.421 -1.9477 -3.2910  1.4153
   73MOL0     H 9591   5.527   7.506   3.279  2.1545  1.4138 -0.7532
   73MOL0     H 9592   5.318   7.587   3.430  0.6986  2.2299  0.8200
   73MOL0     H 9593   5.432   7.634   3.551  0.8377 -1.1213  1.8530
   73MOL0     H 9594   5.506   7.393   3.586  0.0468 -1.0946 -1.4158
   73MOL0     H 9595   5.343   7.438   3.636  0.2963  2.9176  0.0008
   73MOL0     H 9596   5.329   7.222   3.546  1.9709 -2.2510 -1.6580
   73MOL0     H 9597   5.410   7.280   3.399  0.3097 -1.1536  0.2695
   73MOL0     H 9598   5.172   7.128   3.621  0.5186  0.7455  0.2568
   73MOL0     H 9599   5.007   6.960   3.614  0.1856  0.4311  0.6663
   73MOL0     H 9600   4.479   6.992   3.291  0.1942  1.2062 -0.8871
   73MOL0     H 9601   4.295   6.817   3.271  1.1132  4.2048  1.3837
   73MOL0     H 9602   4.358   6.384   3.272  1.6082  0.2376 -0.0961
   73MOL0     H 9603   4.397   6.449   3.112 -0.5573 -1.6487 -1.1408
   73MOL0     H 9604   4.191   6.284   3.142 -2.3657 -1.1115  0.1669
   73MOL0     H 9605   4.169   6.417   3.032  0.4483 -1.2535  0.4586
   73MOL0     H 9606   4.058   6.546   3.219 -2.5867  0.0061 -1.4405
   73MOL0     H 9607   4.090   6.413   3.328 -1.0201  0.1973  1.2493
   73MOL0     H 9608   3.943   6.370   3.063  0.3519 -0.8456 -0.6321
   73MOL0     H 9609   3.947   6.265   3.202  0.5469  0.2566 -2.2356
   73MOL0     H 9610   3.826   6.539   3.210  0.3883 -0.3426 -2.3771
   73MOL0     H 9611   3.840   6.421   3.344 -2.6883  1.0979  0.8474
   73MOL0     H 9612   3.697   6.351   3.089  0.4366 -0.3058  0.5904
   73MOL0     H 9613   3.615   6.428   3.226  1.3690  0.7071  2.3166
   73MOL0     H 9614   3.773   6.176   3.286 -0.0953  0.2435  1.2195
   73MOL0     H 9615   3.654   6.256   3.372 -0.0595  0.5875 -0.7431
   73MOL0     H 9616   3.476   6.218   3.187  0.9818  1.8475  1.9358
   73MOL0     H 9617   3.528   6.057   3.254  1.9903 -1.7674 -2.3114
   73MOL0     H 9618   4.568   6.496   3.304  1.2552  0.1472 -2.0305
   73MOL0     H 9619   4.746   6.655   3.345 -1.4201 -3.0216 -1.2612
   73MOL0     H 9620   4.820   7.164   3.282 -0.9527 -1.4385  1.0164
   73MOL0     H 9621   5.000   7.340   3.283  1.2339  1.8558  2.0376
   73MOL0     H 9622   6.454   7.668   3.566 -0.7590 -1.3449  1.5531
   73MOL0     H 9623   6.666   7.565   3.515 -3.2311  0.6690 -2.2521
   73MOL0     H 9624   7.155   7.557   3.644  2.0521 -1.7909  0.8838
   73MOL0     H 9625   7.386   7.517   3.627  0.4717  1.5886  0.8876
   73MOL0     H 9626   7.569   7.374   3.529 -1.1795  1.0043  2.1372
   73MOL0     H 9627   7.596   7.543   3.576  1.6848  0.9526 -0.3253
   73MOL0     H 9628   7.762   7.520   3.364  1.7020  1.2997  1.5121
   73MOL0     H 9629   7.824   7.511   3.532 -2.8792 -0.3951  3.4176
   73MOL0     H 9630   7.924   7.328   3.410 -0.3873 -0.0732 -1.0569
   73MOL0     H 9631   7.759   7.277   3.355 -0.1004  0.4906 -0.4929
   73MOL0     H 9632   7.831   7.297   3.647  2.2767 -0.6619 -1.9263
   73MOL0     H 9633   7.702   7.199   3.560 -0.7268  1.1623  0.5090
   73MOL0     H 9634   8.036   6.940   3.525  2.2755  0.7651  0.7015
   73MOL0     H 9635   7.367   7.592   3.201 -0.0053  1.2169  0.1153
   73MOL0     H 9636   7.124   7.662   3.223 -1.2067  1.6028  1.0708
   74MOL0     O 9637   7.064   6.762   3.376 -0.8490  0.4063  0.3392
   74MOL0     C 9638   7.114   6.783   3.268 -0.2854  0.3453  0.0200
   74MOL0     O 9639   7.053   6.766   3.148  0.3851 -0.2421 -0.6671
   74MOL0     C 9640   6.921   6.714   3.142  0.0765  1.0742  0.1115
   74MOL0     C 9641   6.806   6.753   3.209  0.0111  0.3994  0.8943
   74MOL0     C 9642   6.682   6.690   3.190  0.4235 -0.0188 -0.9881
   74MOL0     C 9643   6.672   6.584   3.100  0.0067 -0.0703  0.9033
   74MOL0     O 9644   6.543   6.532   3.081 -0.0278 -0.1197  0.7012
   74MOL0     C 9645   6.514   6.460   2.964  0.1754  0.6838  0.0660
   74MOL0     C 9646   6.366   6.410   2.971 -0.2589 -0.2381 -0.0770
   74MOL0     C 9647   6.280   6.532   2.937  0.2995 -0.3275 -0.1097
   74MOL0     C 9648   6.127   6.517   2.992 -0.1352  0.6604 -0.1581
   74MOL0     C 9649   6.029   6.629   2.963 -0.2733  0.7608 -0.3720
   74MOL0     C 9650   5.992   6.639   2.808 -0.1891  1.4364 -0.8153
   74MOL0     C 9651   5.887   6.738   2.782  0.4102 -0.0634 -0.2252
   74MOL0     C 9652   5.776   6.696   2.689  0.0245 -0.1494  0.2510
   74MOL0     N 9653   5.693   6.816   2.641  0.5712  0.7077 -0.7760
   74MOL0     C 9654   5.600   6.878   2.719  0.4902  0.5019 -0.6040
   74MOL0     C 9655   5.547   6.971   2.644 -0.4183  0.3407 -0.7842
   74MOL0     C 9656   5.430   7.064   2.670 -0.9324  0.0488 -0.6299
   74MOL0     C 9657   5.296   6.996   2.638 -0.0177 -0.5855  0.4814
   74MOL0     C 9658   5.196   6.993   2.745  0.4578  0.1635 -0.5995
   74MOL0     C 9659   5.056   6.975   2.698 -0.5705  0.1343 -0.0941
   74MOL0     O 9660   5.057   6.864   2.608 -0.4231  0.5754  0.7341
   74MOL0     C 9661   4.940   6.824   2.543  0.1285 -0.6043  0.3333
   74MOL0     C 9662   4.956   6.705   2.471  1.4121 -0.5661 -0.5586
   74MOL0     C 9663   4.845   6.656   2.403 -0.2428 -0.1800  0.7546
   74MOL0     C 9664   4.719   6.724   2.414  0.2040  0.0119  0.1627
   74MOL0     C 9665   4.594   6.673   2.343  0.3862 -0.3356 -0.2213
   74MOL0     O 9666   4.477   6.746   2.342  0.0901  0.4220 -0.0952
   74MOL0     C 9667   4.364   6.689   2.285 -0.0570  0.1103  0.6457
   74MOL0     C 9668   4.285   6.606   2.360  0.1394  0.4643  0.1030
   74MOL0     C 9669   4.175   6.542   2.299 -0.4267  0.1137 -0.6335
   74MOL0     C 9670   4.141   6.560   2.169 -0.3619  0.7631 -0.0765
   74MOL0     O 9671   4.049   6.489   2.097  0.2497 -1.5960  0.3988
   74MOL0     C 9672   3.925   6.476   2.172 -0.1275 -0.0500  0.7945
   74MOL0     C 9673   3.803   6.473   2.080 -0.1746 -0.1635  1.0529
   74MOL0     C 9674   3.685   6.415   2.160  0.4456  0.4886 -0.0136
   74MOL0     C 9675   3.563   6.374   2.077  0.2296  0.2656 -0.1048
   74MOL0     C 9676   3.432   6.358   2.162 -0.1315 -0.2995  0.0506
   74MOL0     C 9677   3.329   6.285   2.073 -0.4444 -0.0348 -0.2179
   74MOL0     C 9678   3.187   6.255   2.129 -1.0671 -0.1093 -0.6407
   74MOL0     C 9679   3.124   6.375   2.202  0.2079  0.3595  0.3448
   74MOL0    Cl 9680   2.955   6.335   2.250 -0.0402 -0.1797 -0.6148
   74MOL0     C 9681   4.213   6.653   2.103  0.1141 -0.0559  0.0221
   74MOL0     C 9682   4.327   6.716   2.148  0.3465  0.4669 -0.4818
   74MOL0     O 9683   4.611   6.567   2.296 -0.4101  0.1396  0.6000
   74MOL0     C 9684   4.714   6.845   2.487 -0.7619 -0.0366 -0.5786
   74MOL0     C 9685   4.821   6.899   2.554  1.0439  0.6465  1.0139
   74MOL0     N 9686   5.599   6.953   2.516 -0.6926 -0.3207  0.3992
   74MOL0     N 9687   5.697   6.877   2.520 -0.1071 -0.5665 -0.4657
   74MOL0     C 9688   6.786   6.543   3.027  1.6334 -0.2039 -0.3585
   74MOL0     C 9689   6.913   6.604   3.051  0.9824  0.2819  0.5324
   74MOL0     C 9690   7.256   6.832   3.261 -0.6423  0.5294 -0.2622
   74MOL0     C 9691   7.321   6.845   3.135 -1.1113  0.5205 -0.0196
   74MOL0     C 9692   7.446   6.906   3.139  1.0096 -0.2992  0.6143
   74MOL0     C 9693   7.508   6.947   3.258  0.1334 -0.0796  0.3419
   74MOL0     O 9694   7.632   6.999   3.251 -0.6804 -1.0580 -0.1065
   74MOL0     C 9695   7.744   6.911   3.280 -0.8163  0.3836 -0.2008
   74MOL0     C 9696   7.864   6.939   3.187  1.0094 -0.0549 -0.6733
   74MOL0     C 9697   7.826   6.933   3.039 -0.3441 -0.1549 -0.0756
   74MOL0     C 9698   7.942   6.982   2.948 -0.6449 -0.5367  0.4376
   74MOL0     C 9699   8.073   6.910   2.969 -0.3506 -0.5453  0.3552
   74MOL0     C 9700   8.171   6.864   3.014 -0.0988 -0.4180 -0.9835
   74MOL0     C 9701   7.443   6.929   3.378 -0.2978  0.2613 -0.9691
   74MOL0     C 9702   7.317   6.871   3.383  0.2823 -0.0675 -0.4317
   74MOL0     H 9703   6.815   6.844   3.267  0.4717  0.7649  0.2637
   74MOL0     H 9704   6.594   6.731   3.238  1.2705  0.1254  0.5204
   74MOL0     H 9705   6.564   6.367   2.991 -5.2605 -2.5457  0.4937
   74MOL0     H 9706   6.561   6.503   2.875  0.1626  0.2346 -0.1590
   74MOL0     H 9707   6.342   6.363   3.066 -2.1038 -1.4245 -1.0819
   74MOL0     H 9708   6.361   6.332   2.895 -0.2909 -0.3536  0.0434
   74MOL0     H 9709   6.280   6.535   2.828  0.9035  1.2887 -0.0791
   74MOL0     H 9710   6.324   6.623   2.978 -3.0154  1.3134  0.1895
   74MOL0     H 9711   6.079   6.425   2.958  0.4197  0.2516  0.1478
   74MOL0     H 9712   6.130   6.510   3.101  2.8487  1.6748 -0.0764
   74MOL0     H 9713   6.084   6.721   2.985  0.9691 -0.2615  0.9860
   74MOL0     H 9714   5.937   6.604   3.017 -1.4333 -2.9399 -3.5759
   74MOL0     H 9715   5.948   6.545   2.772  3.0685  0.5993 -3.0796
   74MOL0     H 9716   6.084   6.658   2.752  0.4517 -1.5783 -0.9824
   74MOL0     H 9717   5.846   6.774   2.876  0.2916  1.3131 -0.7787
   74MOL0     H 9718   5.938   6.824   2.738  1.2024 -0.4516 -0.0712
   74MOL0     H 9719   5.719   6.617   2.739 -0.0976  1.7194  3.3311
   74MOL0     H 9720   5.818   6.659   2.595 -0.7847  0.9752 -0.5804
   74MOL0     H 9721   5.565   6.853   2.819 -0.0032  1.0216 -0.6368
   74MOL0     H 9722   5.444   7.143   2.595 -0.9641 -0.5628 -1.2854
   74MOL0     H 9723   5.434   7.108   2.770 -2.5233  0.7677 -0.8543
   74MOL0     H 9724   5.315   6.893   2.605  0.3697 -0.4401  0.2339
   74MOL0     H 9725   5.260   7.050   2.550 -1.3198  0.1828  1.4663
   74MOL0     H 9726   5.225   6.905   2.805 -1.6668  0.8191  1.5560
   74MOL0     H 9727   5.205   7.087   2.799 -2.1618  1.0625 -1.5949
   74MOL0     H 9728   5.026   7.067   2.649 -0.2271  0.6300  0.6034
   74MOL0     H 9729   4.979   6.956   2.774 -1.2336 -0.6226 -0.9365
   74MOL0     H 9730   5.049   6.651   2.457  0.9894 -1.3988 -0.2020
   74MOL0     H 9731   4.855   6.571   2.335  3.3478  2.3573 -2.3450
   74MOL0     H 9732   4.315   6.589   2.463  0.3003  2.6981  0.4841
   74MOL0     H 9733   4.114   6.466   2.348 -2.8619  2.9453  1.0958
   74MOL0     H 9734   3.905   6.550   2.250 -0.7221  1.7423 -0.9903
   74MOL0     H 9735   3.935   6.379   2.223  1.3995 -0.0277  0.5747
   74MOL0     H 9736   3.829   6.412   1.993  0.4894  1.1781  0.2670
   74MOL0     H 9737   3.781   6.574   2.047  3.1648  0.6747  0.9763
   74MOL0     H 9738   3.647   6.489   2.231 -0.0052  1.9325 -1.6964
   74MOL0     H 9739   3.721   6.325   2.211 -1.6101 -1.7765 -2.2832
   74MOL0     H 9740   3.543   6.445   1.996  1.2533  0.8708  0.1399
   74MOL0     H 9741   3.596   6.281   2.030  3.8087  1.6928 -0.8047
   74MOL0     H 9742   3.400   6.458   2.194  0.4671 -0.9595  2.9789
   74MOL0     H 9743   3.456   6.291   2.244  0.0084 -0.4944 -0.1469
   74MOL0     H 9744   3.379   6.192   2.045  0.3613 -0.4887  2.4325
   74MOL0     H 9745   3.320   6.355   1.988  1.9618 -0.2394 -0.7316
   74MOL0     H 9746   3.120   6.225   2.049  0.4555 -1.1517 -1.5883
   74MOL0     H 9747   3.199   6.177   2.205  0.5454  1.7482  1.1829
   74MOL0     H 9748   3.120   6.459   2.132  0.0754 -0.9896 -1.3095
   74MOL0     H 9749   3.190   6.398   2.287  0.7800 -0.7538  0.2188
   74MOL0     H 9750   4.184   6.672   2.000  2.4240  0.8340 -0.5349
   74MOL0     H 9751   4.387   6.782   2.086 -1.3599  0.1432 -2.5669
   74MOL0     H 9752   4.616   6.890   2.499  0.2198  1.8266  0.9468
   74MOL0     H 9753   4.809   6.985   2.618 -1.5428  0.9007  0.3089
   74MOL0     H 9754   6.782   6.456   2.962 -2.8763 -0.3043 -0.2603
   74MOL0     H 9755   7.000   6.561   3.003 -0.6848 -3.3917  0.4562
   74MOL0     H 9756   7.275   6.804   3.046  2.5544  1.2076 -2.4044
   74MOL0     H 9757   7.507   6.933   3.054  0.9899 -0.6199  0.4942
   74MOL0     H 9758   7.708   6.810   3.260 -0.7639  0.7162 -2.1149
   74MOL0     H 9759   7.791   6.919   3.379  0.6627  0.3261 -0.8729
   74MOL0     H 9760   7.908   7.036   3.215 -0.4652 -0.6837  4.8192
   74MOL0     H 9761   7.940   6.865   3.214  1.0921  0.1352 -0.3848
   74MOL0     H 9762   7.746   7.004   3.020  0.3373  0.5166 -0.5219
   74MOL0     H 9763   7.803   6.833   3.000  2.7181 -0.6134 -0.9998
   74MOL0     H 9764   7.914   6.973   2.843 -1.7978 -0.7073  0.7440
   74MOL0     H 9765   7.960   7.090   2.954  0.8659 -0.3313 -4.2331
   74MOL0     H 9766   8.257   6.826   3.066 -0.6904 -0.0469  0.2986
   74MOL0     H 9767   7.486   6.967   3.470 -1.3102 -0.2058 -0.2832
   74MOL0     H 9768   7.279   6.851   3.482 -1.5155  2.5702 -0.5091
   75MOL0     O 9769   9.813   7.537   5.293  0.4897 -0.5303  0.0407
   75MOL0     C 9770   9.900   7.617   5.272 -0.2069  0.2182  0.1242
   75MOL0     O 9771   9.894   7.754   5.301 -0.2015 -0.0471  0.3112
   75MOL0     C 9772   9.772   7.810   5.322 -1.0305 -0.0282  0.1023
   75MOL0     C 9773   9.743   7.893   5.437  0.1415 -0.4803 -0.4714
   75MOL0     C 9774   9.616   7.951   5.462  0.4719  0.4882 -0.3434
   75MOL0     C 9775   9.511   7.935   5.373  0.0023 -0.9529  0.3381
   75MOL0     O 9776   9.395   8.005   5.394  0.3652  0.1292  0.5398
   75MOL0     C 9777   9.285   7.986   5.299  0.1156 -0.3494  0.4707
   75MOL0     C 9778   9.180   8.079   5.346  0.3316 -0.4871 -0.6712
   75MOL0     C 9779   9.130   8.051   5.486  0.6053  1.0582 -0.2425
   75MOL0     C 9780   9.009   8.132   5.541  0.6179 -0.5377  0.7702
   75MOL0     C 9781   9.053   8.262   5.606  0.7358  0.0777 -0.7067
   75MOL0     C 9782   8.945   8.338   5.669  0.2318 -0.8747  0.2558
   75MOL0     C 9783   8.993   8.441   5.766  0.1140 -0.9606 -0.4517
   75MOL0     C 9784   8.876   8.507   5.837 -0.1728 -0.4320 -0.7811
   75MOL0     N 9785   8.931   8.609   5.932  0.2157  0.2007  0.0686
   75MOL0     C 9786   9.040   8.611   6.016 -0.2987  0.0925  0.0526
   75MOL0     C 9787   9.054   8.739   6.057  0.3079 -0.1084 -0.0388
   75MOL0     C 9788   9.168   8.802   6.130  1.1188  0.1742  0.0239
   75MOL0     C 9789   9.292   8.819   6.044 -0.4595  0.8357  0.8097
   75MOL0     C 9790   9.413   8.865   6.129 -0.4618  0.3666 -0.1615
   75MOL0     C 9791   9.500   8.953   6.046 -1.1731  0.8799 -0.7688
   75MOL0     O 9792   9.562   8.897   5.934 -0.2454  0.3450 -0.6333
   75MOL0     C 9793   9.683   8.825   5.943  0.4770  1.3941 -0.4335
   75MOL0     C 9794   9.722   8.745   5.831  1.0097  0.5332  0.6339
   75MOL0     C 9795   9.832   8.659   5.839 -0.1219  0.8972 -0.2742
   75MOL0     C 9796   9.909   8.650   5.958  0.0927 -0.1714 -0.4183
   75MOL0     C 9797  10.037   8.563   5.954 -0.5797 -0.0792 -0.1150
   75MOL0     O 9798  10.123   8.570   6.053 -0.1240 -0.1881 -0.4903
   75MOL0     C 9799  10.246   8.507   6.044  0.5919 -0.5929 -0.5090
   75MOL0     C 9800  10.292   8.438   6.157  0.3977 -0.2932  0.3490
   75MOL0     C 9801  10.427   8.397   6.154  0.5828 -0.6350 -0.4080
   75MOL0     C 9802  10.519   8.421   6.055 -1.0464 -0.4926  1.0171
   75MOL0     O 9803  10.643   8.360   6.078 -1.4616 -0.2343  0.3468
   75MOL0     C 9804  10.724   8.339   5.964 -0.0799  1.1114  0.1254
   75MOL0     C 9805  10.862   8.295   6.024 -0.0787 -0.7486  0.1949
   75MOL0     C 9806  10.977   8.284   5.916  0.1723 -1.0230 -0.1088
   75MOL0     C 9807  11.099   8.233   5.973  0.4633  0.1522 -0.2020
   75MOL0     C 9808  11.219   8.227   5.884 -0.2896 -0.2416 -0.3569
   75MOL0     C 9809  11.342   8.152   5.945 -0.2381 -0.1795  0.9909
   75MOL0     C 9810  11.430   8.103   5.822 -0.4392  0.5138 -0.5550
   75MOL0     C 9811  11.507   8.208   5.756 -0.0909 -0.4772 -0.1862
   75MOL0    Cl 9812  11.606   8.302   5.865 -0.1061 -0.0231 -0.1727
   75MOL0     C 9813  10.473   8.474   5.932  0.0563 -0.1057 -0.4542
   75MOL0     C 9814  10.333   8.518   5.928 -0.5336  1.8359 -0.1893
   75MOL0     O 9815  10.053   8.509   5.853 -0.4286  0.6344 -0.1046
   75MOL0     C 9816   9.873   8.739   6.062 -1.2608  0.0396 -0.4080
   75MOL0     C 9817   9.757   8.812   6.064  0.7843  0.0051 -0.4405
   75MOL0     N 9818   8.953   8.818   6.002  0.5899 -1.3787 -0.2894
   75MOL0     N 9819   8.881   8.736   5.932 -0.1367  0.4413  0.1301
   75MOL0     C 9820   9.544   7.854   5.257  0.1369  0.6670 -0.5837
   75MOL0     C 9821   9.667   7.790   5.230 -0.6657 -0.6369 -0.0208
   75MOL0     C 9822  10.030   7.561   5.216 -0.1782 -0.3908 -1.2173
   75MOL0     C 9823  10.042   7.433   5.164 -0.0474  0.3099 -1.4249
   75MOL0     C 9824  10.165   7.387   5.102  0.5229 -1.4307  0.2170
   75MOL0     C 9825  10.276   7.473   5.100  0.5433  0.2192  0.4457
   75MOL0     O 9826  10.392   7.453   5.030  0.4942  0.2519 -0.5656
   75MOL0     C 9827  10.418   7.329   4.970 -0.2822 -0.5792 -0.1625
   75MOL0     C 9828  10.562   7.321   4.918  0.5992  0.9756  0.3585
   75MOL0     C 9829  10.608   7.442   4.843  0.2735  0.0678  0.0088
   75MOL0     C 9830  10.503   7.489   4.742  0.0973 -0.8444  1.2901
   75MOL0     C 9831  10.557   7.580   4.642 -0.2784 -1.0412 -0.0720
   75MOL0     C 9832  10.595   7.662   4.561  0.2902  0.0125  0.3467
   75MOL0     C 9833  10.268   7.596   5.159 -0.0214  0.0014 -0.2779
   75MOL0     C 9834  10.146   7.642   5.209  0.4314 -0.6011 -0.3384
   75MOL0     H 9835   9.821   7.906   5.510  2.6124 -1.7002 -2.6943
   75MOL0     H 9836   9.604   8.019   5.546  4.7353  1.2243 -0.1315
   75MOL0     H 9837   9.248   7.883   5.298  0.9369 -0.6603  0.8025
   75MOL0     H 9838   9.319   8.014   5.199  0.3171 -2.5787 -0.1268
   75MOL0     H 9839   9.099   8.085   5.272 -1.3269 -1.5234  0.9875
   75MOL0     H 9840   9.231   8.176   5.354 -0.7092  0.1172 -1.1332
   75MOL0     H 9841   9.215   8.053   5.555 -0.8096 -3.7637  2.1010
   75MOL0     H 9842   9.106   7.945   5.475  4.4916  0.2553 -3.3233
   75MOL0     H 9843   8.938   8.160   5.463  0.3695  1.1887  1.5680
   75MOL0     H 9844   8.957   8.071   5.615 -1.6011 -1.8520 -1.6983
   75MOL0     H 9845   9.110   8.330   5.543  3.2045  2.7027  3.8100
   75MOL0     H 9846   9.120   8.238   5.689 -1.3409 -0.0131  1.0413
   75MOL0     H 9847   8.869   8.275   5.717  0.1143 -0.4317  0.6578
   75MOL0     H 9848   8.901   8.405   5.595  1.8545  1.0223  0.9147
   75MOL0     H 9849   9.058   8.407   5.847 -0.4984  0.5347  0.7178
   75MOL0     H 9850   9.042   8.519   5.706  1.2965 -1.3918 -0.0812
   75MOL0     H 9851   8.807   8.433   5.879 -1.3656  1.1096  0.1062
   75MOL0     H 9852   8.809   8.559   5.768 -1.2218 -1.3074 -0.4646
   75MOL0     H 9853   9.110   8.530   6.033  2.1850  1.9532 -0.5636
   75MOL0     H 9854   9.185   8.749   6.224 -2.2029 -0.0769  0.6252
   75MOL0     H 9855   9.145   8.901   6.171  0.7656 -0.6938  2.0357
   75MOL0     H 9856   9.278   8.893   5.964  2.7406 -0.3869 -1.0767
   75MOL0     H 9857   9.319   8.725   5.994 -2.1926  0.4674  0.4969
   75MOL0     H 9858   9.380   8.929   6.211 -2.2715 -0.4514 -0.2072
   75MOL0     H 9859   9.460   8.780   6.180  1.6723  2.2941  1.2796
   75MOL0     H 9860   9.579   8.999   6.107 -0.1589 -0.4011 -1.0808
   75MOL0     H 9861   9.434   9.038   6.023 -1.4052  1.4682  1.7846
   75MOL0     H 9862   9.662   8.768   5.743 -1.4887 -0.7654  1.8877
   75MOL0     H 9863   9.855   8.599   5.752 -2.2809 -1.3516  0.5594
   75MOL0     H 9864  10.230   8.418   6.244 -1.0498 -0.2906 -0.6554
   75MOL0     H 9865  10.465   8.342   6.239 -0.6450 -2.2797 -0.8660
   75MOL0     H 9866  10.732   8.435   5.911  0.2525  1.1995  0.3322
   75MOL0     H 9867  10.692   8.257   5.899  0.7192  0.5589  0.4093
   75MOL0     H 9868  10.842   8.199   6.073  2.4890  0.3613  3.8771
   75MOL0     H 9869  10.881   8.371   6.099 -0.5242 -0.7392  0.3019
   75MOL0     H 9870  11.000   8.382   5.875 -1.2160 -0.9909 -0.8554
   75MOL0     H 9871  10.942   8.208   5.846  2.5674 -3.3621  1.0595
   75MOL0     H 9872  11.113   8.303   6.057 -1.2257  0.7331 -0.3677
   75MOL0     H 9873  11.087   8.134   6.018  1.4252  0.3320  0.5140
   75MOL0     H 9874  11.246   8.328   5.852 -1.6557  0.2352 -0.0651
   75MOL0     H 9875  11.186   8.171   5.796 -0.2996 -1.0664  0.1579
   75MOL0     H 9876  11.297   8.071   6.003 -3.7390  0.9985  0.1395
   75MOL0     H 9877  11.392   8.223   6.011  0.1406  0.0225  0.4938
   75MOL0     H 9878  11.508   8.040   5.864  0.5547 -0.3830 -3.5051
   75MOL0     H 9879  11.375   8.049   5.744 -2.9202 -2.2400  2.7536
   75MOL0     H 9880  11.442   8.265   5.689  0.6170 -3.2573 -3.5105
   75MOL0     H 9881  11.566   8.151   5.684 -0.1918 -2.0485  0.9137
   75MOL0     H 9882  10.531   8.481   5.841 -1.3122  3.0729 -1.2097
   75MOL0     H 9883  10.301   8.566   5.836  1.3582  0.8288 -1.4295
   75MOL0     H 9884   9.932   8.731   6.154 -1.3070  2.0534 -0.1726
   75MOL0     H 9885   9.732   8.866   6.155 -0.9680  0.4946 -1.1833
   75MOL0     H 9886   9.467   7.843   5.181 -0.5494  3.2894 -0.3758
   75MOL0     H 9887   9.692   7.748   5.133  0.2733 -0.8966  0.3241
   75MOL0     H 9888   9.952   7.373   5.171  0.1320  0.1138 -0.7529
   75MOL0     H 9889  10.173   7.288   5.057 -0.9587 -1.3830 -0.2147
   75MOL0     H 9890  10.340   7.322   4.893  0.0786 -0.2825 -0.5617
   75MOL0     H 9891  10.406   7.240   5.032 -0.5715  0.7610  1.7896
   75MOL0     H 9892  10.626   7.310   5.006  1.1467 -2.2956 -0.2883
   75MOL0     H 9893  10.569   7.231   4.856  1.0543  0.8485  0.5847
   75MOL0     H 9894  10.702   7.419   4.792  0.0180  2.7952 -1.8706
   75MOL0     H 9895  10.629   7.524   4.913 -0.2993 -0.9848  1.4570
   75MOL0     H 9896  10.462   7.400   4.694 -0.3097  0.4044 -0.8020
   75MOL0     H 9897  10.418   7.529   4.797 -1.6481 -2.4844 -0.0914
   75MOL0     H 9898  10.624   7.724   4.478 -1.5173 -0.6021 -0.8141
   75MOL0     H 9899  10.357   7.658   5.160 -1.1422  1.7028 -1.5465
   75MOL0     H 9900  10.140   7.745   5.244  0.0962 -0.0594 -1.8739
   76MOL0     O 9901  11.051   8.102   4.523 -0.3527 -0.0424 -0.2554
   76MOL0     C 9902  11.138   8.106   4.433 -0.3494  0.0978 -0.4831
   76MOL0     O 9903  11.103   8.112   4.303  0.2070 -0.3081 -0.0598
   76MOL0     C 9904  10.974   8.086   4.262  0.0023  0.8005  0.1113
   76MOL0     C 9905  10.894   7.984   4.317 -0.4785  0.8035 -0.3103
   76MOL0     C 9906  10.772   7.953   4.256  0.3129 -0.0341  0.2756
   76MOL0     C 9907  10.726   8.019   4.150 -0.0119 -0.4707 -0.0044
   76MOL0     O 9908  10.603   7.988   4.105 -0.7058 -0.2439 -0.3156
   76MOL0     C 9909  10.550   8.067   3.993  0.4426  0.2890  0.1450
   76MOL0     C 9910  10.420   7.993   3.946  0.3919 -0.1329 -0.1819
   76MOL0     C 9911  10.360   8.066   3.817 -1.1780 -1.5119 -0.2255
   76MOL0     C 9912  10.225   8.013   3.768 -0.3507  0.3705 -0.1911
   76MOL0     C 9913  10.228   7.859   3.770  0.2122 -0.4268 -0.4080
   76MOL0     C 9914  10.119   7.801   3.683 -0.6832  0.3857  0.0855
   76MOL0     C 9915   9.979   7.839   3.703 -0.1302 -0.0402 -0.0303
   76MOL0     C 9916   9.927   7.757   3.816 -1.8064 -0.1951  0.4161
   76MOL0     N 9917   9.779   7.768   3.824  0.0102  0.3755  0.3735
   76MOL0     C 9918   9.685   7.700   3.744  0.1735 -0.6521 -0.3278
   76MOL0     C 9919   9.564   7.736   3.787  0.0231  0.5136  0.1586
   76MOL0     C 9920   9.434   7.671   3.738  0.1711  0.2964 -0.1167
   76MOL0     C 9921   9.391   7.730   3.596 -0.5870 -0.7325  0.3139
   76MOL0     C 9922   9.261   7.660   3.532  0.5152 -0.5110  0.4942
   76MOL0     C 9923   9.117   7.732   3.572  0.1497  0.7446  0.9005
   76MOL0     O 9924   9.105   7.699   3.708 -0.2413  0.5917  0.6144
   76MOL0     C 9925   8.979   7.702   3.753 -0.1543  0.8779  0.8476
   76MOL0     C 9926   8.914   7.579   3.773 -0.0256  0.2858 -0.1111
   76MOL0     C 9927   8.782   7.583   3.816  0.8983 -0.0689 -0.1162
   76MOL0     C 9928   8.706   7.706   3.822 -0.2484 -0.2692  0.3383
   76MOL0     C 9929   8.568   7.717   3.862  0.9134  0.0464  0.0030
   76MOL0     O 9930   8.494   7.825   3.824 -0.0909  0.1573  0.1446
   76MOL0     C 9931   8.365   7.845   3.869 -0.3129  0.5640  0.0526
   76MOL0     C 9932   8.270   7.820   3.774 -0.9976  0.2392 -0.5346
   76MOL0     C 9933   8.142   7.834   3.807 -0.6179 -0.1168 -0.4806
   76MOL0     C 9934   8.100   7.902   3.923 -0.0480 -0.1041 -0.7770
   76MOL0     O 9935   7.963   7.926   3.929 -0.0594 -0.4773  0.2781
   76MOL0     C 9936   7.906   7.943   4.062 -0.1996  0.6346 -0.4931
   76MOL0     C 9937   7.759   7.900   4.055  0.5999  0.9462  0.3272
   76MOL0     C 9938   7.690   7.895   4.196  0.3850 -0.1689 -1.6390
   76MOL0     C 9939   7.549   7.829   4.194 -0.2937  0.0880  0.2813
   76MOL0     C 9940   7.481   7.850   4.329 -0.7580 -0.3162  0.6273
   76MOL0     C 9941   7.339   7.801   4.325  0.5245  0.7529 -0.3063
   76MOL0     C 9942   7.242   7.895   4.255 -0.1511 -0.7131 -0.3379
   76MOL0     C 9943   7.097   7.846   4.274  0.1521 -0.5855 -0.3121
   76MOL0    Cl 9944   7.060   7.713   4.157  0.1735  0.0365 -0.7735
   76MOL0     C 9945   8.194   7.946   4.015 -0.3568 -0.1425  0.8968
   76MOL0     C 9946   8.328   7.908   3.990  0.6477  0.0805 -0.4616
   76MOL0     O 9947   8.519   7.625   3.923 -0.6877 -0.0536 -0.0607
   76MOL0     C 9948   8.769   7.829   3.792 -0.8931 -0.3833 -0.4612
   76MOL0     C 9949   8.908   7.822   3.748  0.3775  0.5544  0.0019
   76MOL0     N 9950   9.592   7.819   3.899  1.3909 -0.8427  0.0327
   76MOL0     N 9951   9.716   7.833   3.928 -0.2839  0.2846  0.2114
   76MOL0     C 9952  10.796   8.127   4.098 -0.4553  0.2017 -0.4037
   76MOL0     C 9953  10.926   8.154   4.152 -0.6907  0.5788 -0.3601
   76MOL0     C 9954  11.278   8.134   4.467 -0.1352  0.0498  0.4030
   76MOL0     C 9955  11.341   8.080   4.583 -0.3935  0.3015 -0.3661
   76MOL0     C 9956  11.474   8.107   4.611  0.4567 -0.0362 -0.8313
   76MOL0     C 9957  11.549   8.189   4.524  0.4280  0.5677 -0.1996
   76MOL0     O 9958  11.684   8.198   4.556  0.0247  0.2763 -0.5263
   76MOL0     C 9959  11.765   8.249   4.445 -0.0727  0.2761 -1.0845
   76MOL0     C 9960  11.914   8.245   4.481  0.6189  0.5587  0.5756
   76MOL0     C 9961  11.958   8.328   4.592  0.1477 -0.1272  0.1954
   76MOL0     C 9962  12.117   8.332   4.577 -0.5942  0.0605  0.7592
   76MOL0     C 9963  12.184   8.431   4.483  0.7447 -0.1104  0.3037
   76MOL0     C 9964  12.228   8.504   4.397  0.1718  0.5549  0.0154
   76MOL0     C 9965  11.486   8.256   4.416  0.1688 -0.2284 -1.1068
   76MOL0     C 9966  11.353   8.229   4.390 -0.2778 -0.6448 -0.3603
   76MOL0     H 9967  10.929   7.923   4.399  0.8077  1.0156 -0.6674
   76MOL0     H 9968  10.708   7.873   4.293 -2.0339  1.6501  0.0384
   76MOL0     H 9969  10.624   8.055   3.913  0.5080 -0.2426  0.2821
   76MOL0     H 9970  10.532   8.171   4.021  1.9122 -0.0675  2.6773
   76MOL0     H 9971  10.354   7.994   4.033  1.2628 -1.1038  0.5073
   76MOL0     H 9972  10.447   7.889   3.928  3.1998  0.7960 -1.9402
   76MOL0     H 9973  10.433   8.063   3.736 -0.6461  0.6352  0.1058
   76MOL0     H 9974  10.334   8.168   3.844 -1.7344 -0.7178 -3.3578
   76MOL0     H 9975  10.143   8.052   3.828 -0.5570  1.1083 -0.9346
   76MOL0     H 9976  10.213   8.037   3.662  0.7059  0.2803 -0.3449
   76MOL0     H 9977  10.208   7.822   3.871 -0.0601 -1.2013 -0.7386
   76MOL0     H 9978  10.326   7.819   3.740  0.2411 -1.1005  0.5524
   76MOL0     H 9979  10.128   7.692   3.681  2.0444  0.4988 -3.8914
   76MOL0     H 9980  10.146   7.833   3.582  0.8227 -1.3499 -0.1032
   76MOL0     H 9981   9.967   7.947   3.708 -1.1512 -0.0906 -1.0595
   76MOL0     H 9982   9.923   7.811   3.613 -0.5793  0.0862  0.2082
   76MOL0     H 9983   9.972   7.785   3.912 -2.7914  1.0757  0.5362
   76MOL0     H 9984   9.955   7.653   3.800  2.9530  0.7547  1.0490
   76MOL0     H 9985   9.702   7.617   3.676 -2.5451 -0.6943 -1.0475
   76MOL0     H 9986   9.363   7.694   3.819  0.7455  0.5411  0.3225
   76MOL0     H 9987   9.440   7.562   3.737 -2.7201 -0.0834  2.9971
   76MOL0     H 9988   9.470   7.710   3.522  0.2399 -3.6744  1.8466
   76MOL0     H 9989   9.373   7.838   3.602 -1.1337 -0.7646 -0.5666
   76MOL0     H 9990   9.264   7.662   3.423  1.1888  0.2491  0.5160
   76MOL0     H 9991   9.244   7.555   3.556 -0.9122  0.0184  1.9975
   76MOL0     H 9992   9.043   7.684   3.507  1.3963  0.6813 -0.5384
   76MOL0     H 9993   9.115   7.839   3.552  1.7825  0.3144 -2.1735
   76MOL0     H 9994   8.952   7.478   3.759 -1.0926  0.2805 -4.7876
   76MOL0     H 9995   8.733   7.492   3.847  0.2400  0.2803 -0.1101
   76MOL0     H 9996   8.302   7.762   3.688  4.1798 -3.1638  3.0128
   76MOL0     H 9997   8.065   7.820   3.731 -2.6348 -0.1293  1.4427
   76MOL0     H 9998   7.898   8.050   4.085  0.0352  0.4366  0.5812
   76MOL0     H 9999   7.968   7.894   4.138 -0.1147  1.1592 -0.2161
   76MOL0     H10000   7.751   7.801   4.007 -0.2666  0.5632  1.2142
   76MOL0     H10001   7.707   7.965   3.984 -1.7495 -1.2589 -0.1725
   76MOL0     H10002   7.693   7.993   4.245  1.6778 -0.6786 -0.6193
   76MOL0     H10003   7.737   7.829   4.270  0.2075  0.9836 -0.4573
   76MOL0     H10004   7.496   7.876   4.110  1.5123  0.2664 -0.8024
   76MOL0     H10005   7.555   7.722   4.168 -1.5755  0.3307 -1.1729
   76MOL0     H10006   7.479   7.957   4.350  2.3916 -0.1101  0.2923
   76MOL0     H10007   7.539   7.805   4.410  1.4131  1.7747  0.3390
   76MOL0     H10008   7.302   7.793   4.428  0.1612  0.0064 -0.4878
   76MOL0     H10009   7.332   7.703   4.277  2.6853  0.0060  0.7775
   76MOL0     H10010   7.253   7.992   4.305  1.1892 -1.1108  0.2064
   76MOL0     H10011   7.268   7.911   4.150  2.9938 -1.5918  0.1936
   76MOL0     H10012   7.030   7.929   4.248  1.6121  0.2010 -1.7607
   76MOL0     H10013   7.081   7.817   4.378  2.0412 -0.2601  0.1046
   76MOL0     H10014   8.168   8.000   4.105  0.6226  3.1747 -0.6235
   76MOL0     H10015   8.400   7.926   4.070  0.3682 -1.7210  0.2576
   76MOL0     H10016   8.705   7.917   3.792  2.4766  2.2986  0.0033
   76MOL0     H10017   8.960   7.913   3.723  0.4961  0.6854  0.6943
   76MOL0     H10018  10.765   8.196   4.020 -3.0628  2.2664  2.2501
   76MOL0     H10019  10.992   8.225   4.102  1.8936 -2.5026 -1.7209
   76MOL0     H10020  11.286   8.009   4.644 -0.9591  0.4238 -0.7272
   76MOL0     H10021  11.522   8.066   4.698  0.5758 -2.7329 -2.0602
   76MOL0     H10022  11.737   8.353   4.429  1.4939  0.5276 -2.4417
   76MOL0     H10023  11.739   8.195   4.353 -2.0314  2.8336 -2.1740
   76MOL0     H10024  11.933   8.142   4.512 -2.2174 -0.6305 -1.2989
   76MOL0     H10025  11.973   8.273   4.393  0.1093  1.8813  0.6379
   76MOL0     H10026  11.932   8.267   4.679  1.0869 -0.3130  0.3480
   76MOL0     H10027  11.921   8.430   4.607 -0.9712 -0.4542 -0.1843
   76MOL0     H10028  12.166   8.351   4.673  2.8102 -0.6104 -0.6994
   76MOL0     H10029  12.153   8.233   4.549 -3.7647 -0.3190 -2.7237
   76MOL0     H10030  12.276   8.564   4.322  1.3592 -1.5394 -0.9792
   76MOL0     H10031  11.545   8.320   4.351  0.8606  0.5231  0.2335
   76MOL0     H10032  11.314   8.289   4.308  0.9316  1.3166  0.4322
   77MOL0     O10033   3.683   4.847   5.537 -0.4001 -0.5798  0.1991
   77MOL0     C10034   3.674   4.961   5.483  0.9274 -0.6928 -0.0232
   77MOL0     O10035   3.592   5.064   5.528 -0.2585  0.2438  0.1914
   77MOL0     C10036   3.527   5.037   5.648  0.2057  0.1054  0.9082
   77MOL0     C10037   3.580   5.070   5.776  0.4225 -0.4098  0.1311
   77MOL0     C10038   3.506   5.052   5.887 -1.0164 -0.2207 -0.4646
   77MOL0     C10039   3.375   5.017   5.886  0.3413  0.7576  0.0251
   77MOL0     O10040   3.309   5.015   6.003  0.5723  0.1443 -0.5388
   77MOL0     C10041   3.185   4.939   6.005  0.2918  0.2400 -0.2737
   77MOL0     C10042   3.173   4.906   6.152  0.1349 -0.1320  0.9325
   77MOL0     C10043   3.121   5.030   6.236 -0.5717  0.4893 -0.2891
   77MOL0     C10044   3.075   4.993   6.376  0.0717  0.1544 -0.3081
   77MOL0     C10045   2.988   5.103   6.440 -0.2511 -0.3309  0.7488
   77MOL0     C10046   2.986   5.087   6.590 -0.0548 -0.3053 -0.4563
   77MOL0     C10047   2.929   5.212   6.676  0.2252 -0.4598 -0.2719
   77MOL0     C10048   2.781   5.251   6.654  0.3601  0.1424 -0.2095
   77MOL0     N10049   2.677   5.156   6.684 -0.0747 -0.3038  0.1605
   77MOL0     C10050   2.610   5.070   6.601  0.3653 -0.1906  1.1355
   77MOL0     C10051   2.505   5.024   6.664 -0.0906  0.2685  0.5725
   77MOL0     C10052   2.390   4.938   6.617 -1.1087 -0.3585 -0.7945
   77MOL0     C10053   2.270   5.011   6.548 -0.8146  0.5429  0.2679
   77MOL0     C10054   2.174   5.060   6.659  0.9408 -0.5329  0.1020
   77MOL0     C10055   2.035   5.118   6.611 -0.2521  0.1506  1.1634
   77MOL0     O10056   1.951   5.009   6.581  0.1411  0.2198  0.2964
   77MOL0     C10057   1.825   4.998   6.633  0.5189 -0.4068 -1.2302
   77MOL0     C10058   1.744   4.908   6.575 -0.3907 -0.8139 -0.1373
   77MOL0     C10059   1.606   4.913   6.591 -0.8487  0.8017  1.0781
   77MOL0     C10060   1.549   4.994   6.695 -0.8614 -0.4386 -0.3244
   77MOL0     C10061   1.401   4.983   6.722 -0.3481 -0.3539 -1.1358
   77MOL0     O10062   1.329   4.901   6.646  0.2990  0.2415 -0.1451
   77MOL0     C10063   1.194   4.916   6.648 -0.6536 -0.4292 -0.8396
   77MOL0     C10064   1.102   4.819   6.691 -0.8105 -0.3151  0.9553
   77MOL0     C10065   0.963   4.846   6.693  0.0309 -0.4114 -0.3117
   77MOL0     C10066   0.905   4.963   6.645 -0.0528  0.8602  0.7681
   77MOL0     O10067   0.767   4.987   6.630  0.4130  0.2681  0.0573
   77MOL0     C10068   0.669   4.886   6.665  0.1596  0.1184  0.2139
   77MOL0     C10069   0.526   4.933   6.620 -0.2735 -0.1332  1.0392
   77MOL0     C10070   0.490   5.067   6.674 -0.3448  0.3828 -0.1060
   77MOL0     C10071   0.347   5.084   6.644  0.3794  0.6884 -0.1277
   77MOL0     C10072   0.299   5.224   6.681  0.7563  0.0881 -0.5678
   77MOL0     C10073   0.153   5.242   6.660  0.1440 -0.2303  0.0159
   77MOL0     C10074   0.101   5.379   6.701  0.6307  0.3190 -0.5526
   77MOL0     C10075  -0.044   5.386   6.656  0.0483 -0.7191 -0.3895
   77MOL0    Cl10076  -0.155   5.285   6.763 -0.1178  0.0705  0.7093
   77MOL0     C10077   1.001   5.058   6.608  0.5193 -0.6185  0.0963
   77MOL0     C10078   1.143   5.042   6.614  0.0193 -0.0393 -0.2921
   77MOL0     O10079   1.354   5.048   6.816 -0.6834  0.0538 -1.3621
   77MOL0     C10080   1.636   5.058   6.781 -1.0783 -0.7812  0.4037
   77MOL0     C10081   1.776   5.065   6.743 -0.0649 -0.2334  0.2828
   77MOL0     N10082   2.506   5.081   6.796 -0.2009  0.2363 -0.0026
   77MOL0     N10083   2.597   5.163   6.792  0.4865  0.3093 -0.3415
   77MOL0     C10084   3.319   4.989   5.762  0.4586 -0.2855  0.5020
   77MOL0     C10085   3.395   4.994   5.642  0.2583 -0.2957 -0.0706
   77MOL0     C10086   3.764   4.986   5.367 -0.0539 -0.7206  0.0961
   77MOL0     C10087   3.812   4.880   5.287 -0.6399 -0.5276  0.4801
   77MOL0     C10088   3.896   4.906   5.178  1.4409 -0.2108  0.5057
   77MOL0     C10089   3.945   5.035   5.152 -0.4263  0.0187 -0.9236
   77MOL0     O10090   4.038   5.045   5.060 -0.2572 -0.3364  0.2035
   77MOL0     C10091   3.987   5.136   4.961 -0.2804  0.0634  0.7200
   77MOL0     C10092   4.034   5.088   4.823 -0.1281 -0.3760  0.4735
   77MOL0     C10093   4.019   4.935   4.803 -0.0354  0.3517  0.2988
   77MOL0     C10094   4.062   4.880   4.662 -0.1347 -1.2380 -0.5532
   77MOL0     C10095   4.013   4.743   4.646  0.1565 -0.2560  0.3662
   77MOL0     C10096   3.968   4.639   4.600 -0.5776 -0.2598  0.1425
   77MOL0     C10097   3.901   5.141   5.234 -0.4634  0.1383 -0.5624
   77MOL0     C10098   3.806   5.117   5.333 -0.7102 -0.0633 -0.8802
   77MOL0     H10099   3.682   5.107   5.777 -0.3468  1.8747  0.1667
   77MOL0     H10100   3.553   5.081   5.980  0.1897  0.2211 -1.1854
   77MOL0     H10101   3.189   4.844   5.950 -1.0616 -0.7539  1.2283
   77MOL0     H10102   3.097   4.993   5.968 -0.9494 -0.2510  1.7883
   77MOL0     H10103   3.266   4.870   6.195 -1.0893 -0.9904  2.9988
   77MOL0     H10104   3.103   4.823   6.165  0.1737 -0.4158 -0.5287
   77MOL0     H10105   3.032   5.080   6.196 -2.3569 -0.6272  2.0124
   77MOL0     H10106   3.195   5.110   6.226 -1.8138  1.8343  0.8327
   77MOL0     H10107   3.020   4.898   6.370 -0.7579  0.1388  3.9037
   77MOL0     H10108   3.161   4.977   6.442  1.3731  1.1082 -1.7121
   77MOL0     H10109   2.895   5.101   6.384  1.7348  0.5247 -2.9059
   77MOL0     H10110   3.025   5.202   6.411 -0.6536 -0.8235 -1.6233
   77MOL0     H10111   3.085   5.079   6.635 -0.1563 -0.9194 -0.3318
   77MOL0     H10112   2.938   4.994   6.621  2.9875 -1.1994  2.1134
   77MOL0     H10113   2.937   5.177   6.779  1.2565 -0.7719 -0.4529
   77MOL0     H10114   2.988   5.303   6.662  2.8040 -1.9510  0.2538
   77MOL0     H10115   2.778   5.283   6.549  1.2188 -0.2755 -0.3759
   77MOL0     H10116   2.758   5.342   6.710 -0.7955 -0.0889 -0.3001
   77MOL0     H10117   2.630   5.041   6.498  0.2180 -0.5835  1.2151
   77MOL0     H10118   2.349   4.886   6.704 -0.2150  1.5974  0.8740
   77MOL0     H10119   2.426   4.856   6.555  3.5847 -2.0450  3.5164
   77MOL0     H10120   2.227   4.934   6.482  0.4918  0.7802 -0.9057
   77MOL0     H10121   2.311   5.093   6.489  1.9505 -2.2803 -2.1213
   77MOL0     H10122   2.145   4.970   6.715 -1.5760 -0.4752 -0.9374
   77MOL0     H10123   2.220   5.131   6.728  0.0826  1.5061 -1.3332
   77MOL0     H10124   2.049   5.166   6.513  0.5750  0.3846  1.3896
   77MOL0     H10125   1.990   5.193   6.676 -1.3462 -1.5214  2.4126
   77MOL0     H10126   1.777   4.835   6.502  0.4147 -1.5702  0.9636
   77MOL0     H10127   1.539   4.854   6.529  1.2858  1.1932 -1.7907
   77MOL0     H10128   1.151   4.727   6.722 -2.0110 -0.9509  1.0019
   77MOL0     H10129   0.905   4.763   6.730 -2.4092  1.4453  0.2390
   77MOL0     H10130   0.666   4.869   6.773 -0.9097  4.0972  0.9880
   77MOL0     H10131   0.705   4.793   6.621 -0.2520  0.5072 -0.9849
   77MOL0     H10132   0.450   4.862   6.654 -1.7122  2.3106  3.3143
   77MOL0     H10133   0.526   4.941   6.511 -1.8290  3.4982  1.1481
   77MOL0     H10134   0.551   5.139   6.619 -1.1217  0.6754 -0.5945
   77MOL0     H10135   0.510   5.071   6.782 -0.6170  0.8954 -0.0723
   77MOL0     H10136   0.332   5.053   6.540  0.2198  2.9468 -0.8393
   77MOL0     H10137   0.301   5.012   6.711  3.9065  0.7547  2.6768
   77MOL0     H10138   0.358   5.302   6.633 -3.5062  1.7490 -3.8065
   77MOL0     H10139   0.312   5.241   6.789 -0.0139 -0.2062 -0.4196
   77MOL0     H10140   0.110   5.160   6.719  1.2490 -1.7485 -1.2226
   77MOL0     H10141   0.123   5.225   6.556 -0.5576 -0.9198  0.3157
   77MOL0     H10142   0.105   5.396   6.809 -0.1494  0.9207 -0.6073
   77MOL0     H10143   0.163   5.463   6.669  0.6261  0.4360 -0.2597
   77MOL0     H10144  -0.045   5.350   6.553 -1.5205  0.3527 -0.7742
   77MOL0     H10145  -0.072   5.491   6.649  0.5387 -0.6398 -1.3318
   77MOL0     H10146   0.968   5.153   6.566 -0.9658  0.2161  2.9084
   77MOL0     H10147   1.205   5.127   6.587 -0.3653  0.1673 -0.5390
   77MOL0     H10148   1.588   5.106   6.866 -4.8850 -0.6580 -1.5754
   77MOL0     H10149   1.845   5.123   6.803  0.5414  0.6723 -1.2325
   77MOL0     H10150   3.215   4.967   5.736  0.6835  1.5400 -2.5028
   77MOL0     H10151   3.353   4.982   5.543  0.0230 -1.2256  0.1299
   77MOL0     H10152   3.781   4.777   5.301  3.4238 -1.8441  1.0528
   77MOL0     H10153   3.917   4.817   5.120 -0.5067  0.7239 -1.7953
   77MOL0     H10154   4.024   5.238   4.970  0.5593 -0.3188  1.7280
   77MOL0     H10155   3.878   5.134   4.950 -0.1519 -0.5132 -0.8440
   77MOL0     H10156   3.961   5.140   4.761 -2.4247 -0.1460  3.1400
   77MOL0     H10157   4.138   5.116   4.804 -0.3622 -0.8189 -1.6508
   77MOL0     H10158   3.913   4.906   4.812 -0.5448  1.3236 -1.9223
   77MOL0     H10159   4.076   4.892   4.885 -3.2635 -1.1347  1.9588
   77MOL0     H10160   4.012   4.943   4.588  0.9153  2.0368  1.2778
   77MOL0     H10161   4.171   4.893   4.654 -0.1381 -1.6893 -1.4135
   77MOL0     H10162   3.919   4.552   4.561 -1.5353 -0.2741  1.3096
   77MOL0     H10163   3.934   5.241   5.209  1.1673 -0.7569 -2.2371
   77MOL0     H10164   3.770   5.202   5.391 -1.8765 -1.4362  0.5269
   78MOL0     O10165   3.339   6.894   8.240  0.0964  0.0387  0.4026
   78MOL0     C10166   3.367   6.953   8.134 -0.0296  0.3144  0.5555
   78MOL0     O10167   3.319   6.919   8.004 -0.7005 -0.1982 -0.3327
   78MOL0     C10168   3.234   6.815   7.983 -0.2241 -0.0781  0.2766
   78MOL0     C10169   3.278   6.704   7.913 -0.2582  0.5105 -0.1567
   78MOL0     C10170   3.185   6.599   7.893  0.6492  0.3822  0.1852
   78MOL0     C10171   3.060   6.602   7.953  0.1646  0.2764 -0.3009
   78MOL0     O10172   2.953   6.513   7.946  0.8045 -0.7080 -0.8907
   78MOL0     C10173   2.972   6.400   7.849  0.3607 -0.1800 -0.9319
   78MOL0     C10174   2.837   6.377   7.790  0.1163  0.2915  0.0051
   78MOL0     C10175   2.846   6.253   7.707 -0.3340  0.0960  0.1807
   78MOL0     C10176   2.713   6.232   7.638 -0.2702  0.0329  0.3969
   78MOL0     C10177   2.711   6.109   7.542 -0.0236 -1.5101 -0.3410
   78MOL0     C10178   2.758   5.976   7.606 -0.0784 -0.1664  0.1370
   78MOL0     C10179   2.666   5.929   7.718  0.2967 -0.4310 -0.3319
   78MOL0     C10180   2.534   5.885   7.664  0.3315  0.5242  0.2712
   78MOL0     N10181   2.464   5.805   7.769 -0.2561 -0.2999 -0.2307
   78MOL0     C10182   2.441   5.832   7.905  0.1114 -1.0574 -0.5921
   78MOL0     C10183   2.408   5.715   7.961 -0.4928 -0.5603  0.4636
   78MOL0     C10184   2.366   5.686   8.099  0.2230  0.1495  0.2653
   78MOL0     C10185   2.444   5.567   8.149  0.2520  0.2018  0.2533
   78MOL0     C10186   2.584   5.609   8.186  0.0813 -0.3247 -0.1122
   78MOL0     C10187   2.676   5.486   8.214 -1.1426 -0.0156 -0.5334
   78MOL0     O10188   2.708   5.407   8.098  0.3665  0.1591  0.4451
   78MOL0     C10189   2.779   5.474   7.994 -0.2714 -0.1192  0.2382
   78MOL0     C10190   2.907   5.507   8.009  0.1741 -0.2748  0.0552
   78MOL0     C10191   2.982   5.582   7.918  0.0399  0.4939  0.2820
   78MOL0     C10192   2.930   5.619   7.796  0.4681  0.4017 -1.0668
   78MOL0     C10193   3.023   5.673   7.700 -0.4049 -0.8964  1.0656
   78MOL0     O10194   3.157   5.666   7.723 -0.6238  0.2571 -1.1510
   78MOL0     C10195   3.237   5.705   7.620 -0.1116 -0.4967 -0.6381
   78MOL0     C10196   3.326   5.818   7.631  0.6854 -0.2191  0.3072
   78MOL0     C10197   3.400   5.866   7.525  0.1249 -0.2022  0.8304
   78MOL0     C10198   3.399   5.805   7.399 -0.0972 -0.0435 -0.5181
   78MOL0     O10199   3.467   5.854   7.286  0.2200  0.0594  0.0637
   78MOL0     C10200   3.546   5.972   7.286 -0.8526  0.6104  0.0682
   78MOL0     C10201   3.579   6.017   7.136 -0.4831 -0.2861 -1.1304
   78MOL0     C10202   3.671   6.145   7.138 -0.0515  0.2347  0.6407
   78MOL0     C10203   3.812   6.118   7.087 -0.2056  0.2937 -0.2856
   78MOL0     C10204   3.893   6.243   7.061  0.0879  0.1584  0.0393
   78MOL0     C10205   4.018   6.244   7.152 -0.2410  0.1947 -0.1191
   78MOL0     C10206   4.022   6.340   7.271 -0.4549 -0.1916 -0.3472
   78MOL0     C10207   4.162   6.345   7.330  0.0727 -1.0863 -0.5734
   78MOL0    Cl10208   4.151   6.415   7.495  0.0036 -0.5322  0.0517
   78MOL0     C10209   3.320   5.687   7.396  0.1295 -0.1541  0.7405
   78MOL0     C10210   3.245   5.640   7.499 -0.3149  0.5260 -0.1354
   78MOL0     O10211   2.971   5.727   7.600  0.7127  0.2477  0.0941
   78MOL0     C10212   2.802   5.573   7.769  0.2129 -0.1729  0.1597
   78MOL0     C10213   2.721   5.501   7.867  0.2221  0.3709  0.0713
   78MOL0     N10214   2.408   5.621   7.853  0.2360 -0.5851 -0.6459
   78MOL0     N10215   2.436   5.674   7.744 -0.1404 -0.3391  0.2576
   78MOL0     C10216   3.018   6.721   8.023 -0.0036 -0.7448  0.1175
   78MOL0     C10217   3.103   6.832   8.036  0.9400 -0.2221  0.1666
   78MOL0     C10218   3.442   7.075   8.152 -0.3777 -0.4459 -0.2292
   78MOL0     C10219   3.468   7.128   8.278 -0.2480 -0.1397 -0.4783
   78MOL0     C10220   3.554   7.231   8.305 -0.4559 -0.5453 -0.5737
   78MOL0     C10221   3.610   7.304   8.193 -0.5246 -0.1815 -0.0936
   78MOL0     O10222   3.692   7.419   8.206 -0.3113  0.7057 -0.3737
   78MOL0     C10223   3.732   7.464   8.339 -0.4639  0.8257 -0.2447
   78MOL0     C10224   3.818   7.599   8.336  0.1595  0.1711 -0.3065
   78MOL0     C10225   3.887   7.636   8.466  0.3105  0.1048 -0.5934
   78MOL0     C10226   3.951   7.771   8.481 -0.0490  0.0720  0.3783
   78MOL0     C10227   4.064   7.786   8.397 -0.1412  0.2924 -0.1952
   78MOL0     C10228   4.158   7.803   8.322 -0.0205 -0.6117  1.0568
   78MOL0     C10229   3.569   7.266   8.061 -0.0777  0.4920 -0.2412
   78MOL0     C10230   3.490   7.153   8.045 -0.0611 -0.3188  0.6625
   78MOL0     H10231   3.382   6.699   7.882  0.4463 -2.0088  2.2277
   78MOL0     H10232   3.225   6.519   7.832  1.1690 -2.8874  4.3558
   78MOL0     H10233   3.004   6.313   7.908  1.7581  1.9367  1.6610
   78MOL0     H10234   3.039   6.421   7.765 -0.3910  1.5033 -1.1529
   78MOL0     H10235   2.819   6.457   7.717 -1.9006  1.0521  1.2617
   78MOL0     H10236   2.758   6.365   7.865 -0.2180 -5.1843 -0.7991
   78MOL0     H10237   2.867   6.161   7.762  0.4945  0.0151 -0.2637
   78MOL0     H10238   2.930   6.268   7.638 -1.9576  1.4735 -1.6102
   78MOL0     H10239   2.631   6.211   7.708 -0.1440  4.5533  2.2785
   78MOL0     H10240   2.680   6.320   7.583 -3.4758  0.5522  2.8261
   78MOL0     H10241   2.772   6.130   7.454  0.7703 -5.1138 -0.7922
   78MOL0     H10242   2.607   6.108   7.510 -0.3317 -0.5391  0.5762
   78MOL0     H10243   2.862   5.987   7.635  0.2115 -0.3707 -0.7878
   78MOL0     H10244   2.761   5.906   7.522 -2.5963 -0.2038 -0.0108
   78MOL0     H10245   2.712   5.846   7.772 -1.7540 -0.0303  2.2263
   78MOL0     H10246   2.659   6.009   7.793 -0.7818 -0.6054 -0.2342
   78MOL0     H10247   2.549   5.830   7.571  0.8263  0.8187  0.1737
   78MOL0     H10248   2.461   5.965   7.648 -2.1904 -1.6236  0.3564
   78MOL0     H10249   2.447   5.928   7.956 -4.7790  0.6559 -2.6179
   78MOL0     H10250   2.258   5.668   8.097 -0.0164  1.3399 -2.6916
   78MOL0     H10251   2.380   5.768   8.169 -3.8144  1.1555  0.1570
   78MOL0     H10252   2.439   5.486   8.075  1.5971 -0.2673  0.6455
   78MOL0     H10253   2.398   5.528   8.240 -1.4306 -0.0018 -0.6635
   78MOL0     H10254   2.634   5.652   8.099  0.8915 -2.9191 -1.0016
   78MOL0     H10255   2.591   5.678   8.271  0.5797 -0.2057 -0.2450
   78MOL0     H10256   2.643   5.426   8.299 -0.1179 -2.1872 -1.5974
   78MOL0     H10257   2.775   5.518   8.248 -1.2955 -0.8067  0.7089
   78MOL0     H10258   2.956   5.470   8.099  3.5060  3.8221  0.2894
   78MOL0     H10259   3.085   5.597   7.951  0.2821  0.0716 -0.2704
   78MOL0     H10260   3.338   5.864   7.728 -1.4993 -2.1602  1.5933
   78MOL0     H10261   3.464   5.951   7.545  0.5301  0.3322 -2.2588
   78MOL0     H10262   3.646   5.956   7.327  1.2365  2.8429 -3.6301
   78MOL0     H10263   3.485   6.050   7.334 -2.1904 -0.0786 -0.4452
   78MOL0     H10264   3.483   6.033   7.086 -0.6924  4.3284  0.3445
   78MOL0     H10265   3.621   5.935   7.077 -1.1135  0.6345 -2.9256
   78MOL0     H10266   3.667   6.199   7.234 -2.9060  1.5466 -0.1015
   78MOL0     H10267   3.631   6.203   7.055  0.4790 -2.3968 -1.5876
   78MOL0     H10268   3.863   6.058   7.162  2.4602 -0.1420 -2.3131
   78MOL0     H10269   3.809   6.066   6.991  3.2422 -2.1039  0.7222
   78MOL0     H10270   3.828   6.331   7.059  2.8369  2.3324  0.6627
   78MOL0     H10271   3.941   6.239   6.963  0.6868  1.3189  0.2688
   78MOL0     H10272   4.105   6.277   7.094 -0.8093  0.0509 -1.0843
   78MOL0     H10273   4.044   6.145   7.189 -0.0331 -0.2193 -1.3229
   78MOL0     H10274   3.976   6.437   7.246 -1.4085 -0.6842 -0.5621
   78MOL0     H10275   3.957   6.304   7.351  0.2337  1.2439  0.9227
   78MOL0     H10276   4.237   6.399   7.270  2.9766 -0.7198  3.0107
   78MOL0     H10277   4.190   6.241   7.349 -0.2616 -1.1651 -0.5055
   78MOL0     H10278   3.336   5.612   7.319 -0.1221  0.4345  0.1054
   78MOL0     H10279   3.198   5.542   7.490 -2.5619  1.2501  2.4457
   78MOL0     H10280   2.759   5.603   7.673 -1.2617 -0.7196  0.6246
   78MOL0     H10281   2.614   5.489   7.854  0.0035 -0.3684  2.2044
   78MOL0     H10282   2.915   6.738   8.053 -0.3242 -0.3310 -1.1607
   78MOL0     H10283   3.079   6.933   8.065  1.1161 -0.1393  0.0287
   78MOL0     H10284   3.415   7.097   8.368 -0.3052  4.1160  1.2036
   78MOL0     H10285   3.578   7.265   8.406 -1.1952  0.3768 -0.6988
   78MOL0     H10286   3.776   7.375   8.386 -1.9078 -1.1354 -2.3451
   78MOL0     H10287   3.642   7.472   8.400 -1.7153 -3.0840 -1.2376
   78MOL0     H10288   3.897   7.600   8.261  1.4509 -0.6517  0.9823
   78MOL0     H10289   3.753   7.683   8.309 -2.4977 -2.2888 -2.1860
   78MOL0     H10290   3.974   7.575   8.493  0.0325  0.3213  0.8859
   78MOL0     H10291   3.813   7.614   8.544  0.9173 -0.9532 -0.2869
   78MOL0     H10292   3.874   7.848   8.473  0.0719  0.0916 -0.7483
   78MOL0     H10293   3.991   7.768   8.583  1.6598  0.0731 -0.2594
   78MOL0     H10294   4.242   7.817   8.256 -0.6053  0.8426  0.5639
   78MOL0     H10295   3.609   7.313   7.972  0.6243 -0.3963 -0.4184
   78MOL0     H10296   3.461   7.128   7.943 -0.8529  0.4341  0.6939
   79MOL0     O10297   5.981   7.619   4.794 -0.3286 -0.1542  0.3238
   79MOL0     C10298   5.994   7.720   4.857  0.2303 -0.0632  0.0553
   79MOL0     O10299   5.896   7.804   4.891 -0.0059  0.1456 -0.1042
   79MOL0     C10300   5.764   7.754   4.906  0.3406 -0.8621  0.1388
   79MOL0     C10301   5.693   7.799   5.020  0.5816  0.3503  0.0171
   79MOL0     C10302   5.575   7.742   5.061  0.0403 -0.0997  1.1067
   79MOL0     C10303   5.501   7.660   4.973 -0.6970 -0.0541  0.1357
   79MOL0     O10304   5.384   7.603   5.013 -0.1810  0.0727 -0.5822
   79MOL0     C10305   5.345   7.473   4.955  0.3288 -0.9424 -0.5619
   79MOL0     C10306   5.249   7.399   5.041 -0.0328  0.0153  0.4866
   79MOL0     C10307   5.195   7.264   4.978  0.3508  0.3838 -1.3751
   79MOL0     C10308   5.065   7.222   5.036  0.0893  0.2372 -0.9732
   79MOL0     C10309   5.068   7.142   5.172 -0.0090 -0.4623 -0.1577
   79MOL0     C10310   5.136   7.005   5.137 -0.6879 -0.8238 -0.8954
   79MOL0     C10311   5.136   6.895   5.239  1.2319  0.4290 -0.1920
   79MOL0     C10312   5.006   6.822   5.265  0.1072  0.3820  0.6338
   79MOL0     N10313   4.938   6.776   5.147  0.2589  0.1194 -0.2927
   79MOL0     C10314   4.833   6.840   5.084  0.6249  0.7771 -1.2916
   79MOL0     C10315   4.780   6.750   4.997 -0.6685  0.0264 -1.2206
   79MOL0     C10316   4.671   6.781   4.908  0.4199 -0.0530 -0.2407
   79MOL0     C10317   4.534   6.813   4.974 -0.0861  0.5646  0.2238
   79MOL0     C10318   4.425   6.828   4.862  0.2984  0.0821  0.1245
   79MOL0     C10319   4.294   6.808   4.924 -0.4609  0.6021  0.0868
   79MOL0     O10320   4.200   6.804   4.812  0.9962  0.1700  0.1277
   79MOL0     C10321   4.070   6.790   4.853 -0.1551  1.1119 -0.8164
   79MOL0     C10322   4.010   6.739   4.967 -0.8534 -0.0256 -0.6273
   79MOL0     C10323   3.875   6.722   4.976 -0.4893 -0.3530 -0.3616
   79MOL0     C10324   3.788   6.768   4.876 -0.7614  0.5930  0.6698
   79MOL0     C10325   3.636   6.760   4.891 -1.3310 -0.0262  0.1957
   79MOL0     O10326   3.554   6.772   4.774  0.3499 -0.4618  0.6789
   79MOL0     C10327   3.426   6.733   4.792  0.2871  0.3138  0.4421
   79MOL0     C10328   3.390   6.599   4.828 -0.1350  0.3831 -1.0013
   79MOL0     C10329   3.252   6.565   4.847  0.1294  0.3466 -0.0669
   79MOL0     C10330   3.157   6.674   4.830 -0.2210  0.4454 -0.1784
   79MOL0     O10331   3.028   6.637   4.858 -0.1487 -0.9827 -0.1624
   79MOL0     C10332   2.922   6.710   4.799 -1.3022  0.7356 -0.5224
   79MOL0     C10333   2.788   6.660   4.851  0.0485  0.0273  0.0719
   79MOL0     C10334   2.681   6.735   4.767  1.1620  0.6096  0.2597
   79MOL0     C10335   2.536   6.689   4.813  0.3554  0.2959 -0.1738
   79MOL0     C10336   2.520   6.536   4.796 -0.4730 -0.4265  0.2794
   79MOL0     C10337   2.375   6.511   4.806 -0.7370  0.2164 -0.1559
   79MOL0     C10338   2.345   6.373   4.841 -0.4427  0.5452 -0.0081
   79MOL0     C10339   2.192   6.367   4.845  0.2636 -0.1147 -0.8100
   79MOL0    Cl10340   2.115   6.428   4.997 -0.4323  0.2083  0.4711
   79MOL0     C10341   3.199   6.807   4.788 -0.0854  0.9487 -0.2268
   79MOL0     C10342   3.329   6.832   4.768  0.4080 -0.0801  0.1148
   79MOL0     O10343   3.597   6.741   5.003 -0.7528  0.2821 -0.3787
   79MOL0     C10344   3.851   6.820   4.764 -0.2787 -0.1939  0.7452
   79MOL0     C10345   3.988   6.827   4.748  0.7275  0.1089 -0.4012
   79MOL0     N10346   4.851   6.627   5.018  0.1725 -0.4474  0.4941
   79MOL0     N10347   4.944   6.649   5.110  0.0824 -0.3164  0.8566
   79MOL0     C10348   5.567   7.626   4.851 -0.1500 -0.4101 -0.9021
   79MOL0     C10349   5.701   7.667   4.826  0.3443  0.6853 -0.1782
   79MOL0     C10350   6.132   7.767   4.883 -0.8106 -1.2498 -0.3360
   79MOL0     C10351   6.152   7.864   4.982 -0.1879 -0.5347 -0.0411
   79MOL0     C10352   6.282   7.909   5.011 -0.8004  0.4628 -0.4901
   79MOL0     C10353   6.388   7.856   4.950  0.0647 -0.6520  0.4704
   79MOL0     O10354   6.510   7.905   4.995  0.1981 -0.4971 -0.0632
   79MOL0     C10355   6.623   7.826   4.975 -0.4559 -0.2072 -0.4588
   79MOL0     C10356   6.724   7.878   5.077 -0.3041  0.8481  0.2162
   79MOL0     C10357   6.867   7.843   5.031  0.8397 -0.0307 -0.3533
   79MOL0     C10358   6.895   7.694   5.045 -0.0748 -0.6559  0.2109
   79MOL0     C10359   7.013   7.654   4.973  0.4702 -0.3621  0.7845
   79MOL0     C10360   7.121   7.635   4.921  0.1993 -0.0639 -0.0142
   79MOL0     C10361   6.370   7.764   4.848  0.3423  0.5249  1.9093
   79MOL0     C10362   6.242   7.713   4.812  0.6288  0.2548 -0.9476
   79MOL0     H10363   5.740   7.875   5.082  0.8169  0.4075 -0.2243
   79MOL0     H10364   5.529   7.780   5.152  0.2107 -2.3855  2.2108
   79MOL0     H10365   5.431   7.407   4.944  2.1179  1.4376 -1.7369
   79MOL0     H10366   5.302   7.491   4.855  4.1706  1.0891 -2.0439
   79MOL0     H10367   5.171   7.474   5.060  0.5574  0.4240  1.3670
   79MOL0     H10368   5.306   7.375   5.132  2.3545 -3.3629 -1.6682
   79MOL0     H10369   5.271   7.185   4.982  0.4186  0.3875  2.9444
   79MOL0     H10370   5.166   7.288   4.876  2.6746 -1.2494 -2.5176
   79MOL0     H10371   4.999   7.308   5.053 -1.8518 -1.3328 -0.2368
   79MOL0     H10372   5.022   7.155   4.962 -2.4167 -0.0138  0.6163
   79MOL0     H10373   4.968   7.117   5.208  0.0641 -1.4763 -0.6230
   79MOL0     H10374   5.114   7.195   5.255  1.4111 -0.7878 -0.7085
   79MOL0     H10375   5.240   7.020   5.105 -0.8669 -3.4187 -2.9802
   79MOL0     H10376   5.090   6.969   5.044  2.9375 -0.8050 -2.9002
   79MOL0     H10377   5.207   6.821   5.202 -1.0131 -0.6220 -2.7787
   79MOL0     H10378   5.171   6.934   5.335  0.5547  0.4033  0.0757
   79MOL0     H10379   4.932   6.881   5.320  0.1877  0.9123  0.1860
   79MOL0     H10380   5.029   6.732   5.323 -3.0653 -1.0475 -0.0691
   79MOL0     H10381   4.796   6.941   5.099  0.5570  0.7298 -1.1288
   79MOL0     H10382   4.656   6.708   4.829 -0.0511  0.0925 -0.2919
   79MOL0     H10383   4.696   6.876   4.860 -3.3147  0.5632 -1.3151
   79MOL0     H10384   4.539   6.902   5.037 -0.8612  0.0032  1.1051
   79MOL0     H10385   4.512   6.732   5.045 -0.2434  1.4802  1.2366
   79MOL0     H10386   4.437   6.931   4.828  1.6484 -0.7136 -2.0512
   79MOL0     H10387   4.441   6.758   4.780  0.9665 -0.1133  0.4131
   79MOL0     H10388   4.251   6.882   4.992 -0.2392  1.5766 -0.7996
   79MOL0     H10389   4.295   6.709   4.970  1.9383 -0.2701 -1.6155
   79MOL0     H10390   4.082   6.709   5.043 -0.0493 -0.5740 -1.5838
   79MOL0     H10391   3.830   6.679   5.065 -3.2357 -0.6718 -1.7963
   79MOL0     H10392   3.472   6.531   4.845  0.0148  0.7801 -0.0870
   79MOL0     H10393   3.215   6.471   4.886 -0.0763  0.6081  0.3826
   79MOL0     H10394   2.931   6.704   4.690 -1.3986  0.6496 -0.5253
   79MOL0     H10395   2.922   6.818   4.817 -3.0779  1.0570 -2.0872
   79MOL0     H10396   2.771   6.686   4.956 -0.5407  1.2216 -0.3032
   79MOL0     H10397   2.781   6.552   4.831 -4.9386  0.4772 -2.1639
   79MOL0     H10398   2.696   6.709   4.662 -0.2693 -1.6220  0.5204
   79MOL0     H10399   2.689   6.843   4.778 -0.2714  0.7339  0.3270
   79MOL0     H10400   2.502   6.723   4.911 -1.0269  1.1109 -0.9136
   79MOL0     H10401   2.474   6.744   4.742  1.3974  4.2960  1.7368
   79MOL0     H10402   2.582   6.485   4.870  0.2126 -2.5580 -1.6641
   79MOL0     H10403   2.562   6.509   4.699 -0.2201  0.4133  0.1446
   79MOL0     H10404   2.335   6.549   4.711  0.9405  1.4883 -0.4060
   79MOL0     H10405   2.330   6.575   4.882 -2.6090 -2.2250  0.8825
   79MOL0     H10406   2.388   6.302   4.770  0.4209 -0.2332  1.2509
   79MOL0     H10407   2.389   6.337   4.935 -2.7907  1.7147  1.6371
   79MOL0     H10408   2.158   6.265   4.823  1.2263 -0.6029 -0.0997
   79MOL0     H10409   2.147   6.426   4.765 -2.2063  1.8031  1.7923
   79MOL0     H10410   3.133   6.889   4.760 -2.7454 -1.7245 -2.4335
   79MOL0     H10411   3.349   6.935   4.740 -0.5328 -0.0381 -0.4461
   79MOL0     H10412   3.793   6.865   4.684 -0.0654 -1.6094 -0.2418
   79MOL0     H10413   4.040   6.852   4.656  2.9609  0.4997  0.8923
   79MOL0     H10414   5.522   7.569   4.770  2.1554 -1.2511 -1.6904
   79MOL0     H10415   5.742   7.648   4.727 -0.6227 -0.4011 -0.4014
   79MOL0     H10416   6.064   7.894   5.038  0.3870  0.0433  0.5950
   79MOL0     H10417   6.303   7.989   5.081  1.0638  1.2263 -1.8492
   79MOL0     H10418   6.651   7.824   4.869  0.8241 -0.9353 -0.1208
   79MOL0     H10419   6.593   7.724   5.002 -1.4211  0.1647 -0.0844
   79MOL0     H10420   6.719   7.987   5.080 -0.2041  0.8495  3.2374
   79MOL0     H10421   6.705   7.845   5.180 -0.9426 -0.7875 -0.3912
   79MOL0     H10422   6.940   7.908   5.079 -2.2402  2.6149  1.1268
   79MOL0     H10423   6.872   7.869   4.925  1.1706  2.2432  0.1678
   79MOL0     H10424   6.913   7.676   5.151  1.0438 -0.3470  0.0780
   79MOL0     H10425   6.807   7.635   5.019 -1.9484 -0.1811  4.5205
   79MOL0     H10426   7.213   7.633   4.866 -1.1981  0.4619 -2.5487
   79MOL0     H10427   6.453   7.731   4.786  0.2140  3.8078 -0.2694
   79MOL0     H10428   6.218   7.642   4.734 -1.8485 -0.0724 -0.0082
   80MOL0     O10429   1.780   0.469   1.460 -0.2885 -0.0827  0.5230
   80MOL0     C10430   1.853   0.548   1.398 -0.6471  0.7014 -0.7881
   80MOL0     O10431   1.831   0.679   1.379 -0.7723 -0.5252  0.3833
   80MOL0     C10432   1.708   0.738   1.382  0.2107 -0.1089 -0.1611
   80MOL0     C10433   1.689   0.860   1.320  0.9280 -0.6466 -0.2916
   80MOL0     C10434   1.568   0.926   1.325 -0.2223 -0.1765 -0.1585
   80MOL0     C10435   1.455   0.867   1.379  0.7740 -0.6070 -0.4508
   80MOL0     O10436   1.331   0.924   1.340  0.0084  0.1122  0.7798
   80MOL0     C10437   1.208   0.853   1.380  0.6024  0.0429  0.2649
   80MOL0     C10438   1.081   0.927   1.319  1.2711  0.9653  0.0458
   80MOL0     C10439   0.947   0.864   1.368 -0.3741  0.2353 -0.8177
   80MOL0     C10440   0.824   0.931   1.324 -0.2843  0.0251  0.2661
   80MOL0     C10441   0.688   0.860   1.373 -0.7528  0.7890  0.5847
   80MOL0     C10442   0.673   0.817   1.518 -0.1148 -0.7355  0.4282
   80MOL0     C10443   0.547   0.737   1.551  0.5847  1.4682 -0.1558
   80MOL0     C10444   0.557   0.589   1.519 -0.2468 -0.6722  0.7532
   80MOL0     N10445   0.425   0.527   1.492  0.2937 -1.1201  0.8841
   80MOL0     C10446   0.320   0.576   1.419  0.6584  0.4387  0.2126
   80MOL0     C10447   0.231   0.470   1.410  0.0455 -0.4395 -0.6134
   80MOL0     C10448   0.104   0.467   1.340 -0.6197 -0.2907 -0.0124
   80MOL0     C10449  -0.005   0.434   1.438 -0.4382 -0.2467  0.2785
   80MOL0     C10450  -0.153   0.448   1.383  0.2793  0.5516  0.4842
   80MOL0     C10451  -0.180   0.575   1.301 -0.6308  0.5564 -0.4054
   80MOL0     O10452  -0.195   0.673   1.401 -0.0921 -0.4338 -0.7929
   80MOL0     C10453  -0.294   0.773   1.380 -0.3784 -0.0404 -0.3295
   80MOL0     C10454  -0.370   0.807   1.493 -0.0527 -0.0055  0.1948
   80MOL0     C10455  -0.468   0.903   1.485 -0.3868 -0.4054 -0.2590
   80MOL0     C10456  -0.513   0.955   1.363  0.3132  0.6756  0.3286
   80MOL0     C10457  -0.633   1.034   1.347 -0.9772 -0.8220 -0.3168
   80MOL0     O10458  -0.684   1.076   1.464 -0.3752 -0.7926 -0.6582
   80MOL0     C10459  -0.813   1.121   1.480 -0.5648 -0.7141  0.5979
   80MOL0     C10460  -0.881   1.051   1.573  0.1493  0.2933 -0.0916
   80MOL0     C10461  -1.012   1.080   1.611  0.7525  1.1839 -0.4421
   80MOL0     C10462  -1.077   1.185   1.546  0.4239 -0.4875 -0.0205
   80MOL0     O10463  -1.206   1.205   1.597 -0.1193 -0.0051 -0.1856
   80MOL0     C10464  -1.247   1.345   1.631 -0.0569 -0.6946  0.4687
   80MOL0     C10465  -1.377   1.349   1.695 -0.4999 -0.1521  0.6026
   80MOL0     C10466  -1.417   1.494   1.731  1.2036  0.9916 -0.3038
   80MOL0     C10467  -1.536   1.487   1.840  0.2718 -0.0861  0.6657
   80MOL0     C10468  -1.594   1.619   1.888  0.5331  1.0068 -0.2050
   80MOL0     C10469  -1.737   1.595   1.951  0.0526 -0.0453 -0.4655
   80MOL0     C10470  -1.793   1.737   1.998 -0.2472 -0.1792  0.1383
   80MOL0     C10471  -1.930   1.734   2.056 -0.3515  0.1490 -1.0865
   80MOL0    Cl10472  -2.056   1.658   1.951  0.1708 -0.2567  0.3145
   80MOL0     C10473  -1.020   1.251   1.438 -0.9038 -0.3050 -0.5960
   80MOL0     C10474  -0.878   1.222   1.405 -0.0481  0.0216 -0.4935
   80MOL0     O10475  -0.687   1.042   1.243 -0.5576  1.0607  0.6099
   80MOL0     C10476  -0.443   0.908   1.256  0.5941  0.7630  0.6936
   80MOL0     C10477  -0.329   0.833   1.266 -0.1170  0.5647  0.4165
   80MOL0     N10478   0.278   0.361   1.485 -0.4006 -0.1122  0.3076
   80MOL0     N10479   0.388   0.403   1.537  0.6679  1.5424 -0.1620
   80MOL0     C10480   1.473   0.751   1.446 -0.0738  0.6475 -0.1640
   80MOL0     C10481   1.594   0.688   1.452  0.0426  0.0845  1.0349
   80MOL0     C10482   1.994   0.501   1.360  0.1484  0.4928  0.5566
   80MOL0     C10483   2.056   0.547   1.240 -0.4880  0.4637  0.4642
   80MOL0     C10484   2.192   0.523   1.209  0.2382  0.0887 -0.5548
   80MOL0     C10485   2.270   0.443   1.303  0.0236 -1.0778  0.0699
   80MOL0     O10486   2.402   0.408   1.293 -0.1191  0.0597  0.2047
   80MOL0     C10487   2.494   0.475   1.200 -0.2840 -0.8879  0.5767
   80MOL0     C10488   2.620   0.398   1.164  0.5996 -0.7539  0.3198
   80MOL0     C10489   2.581   0.253   1.127 -0.0293  0.0426  0.5668
   80MOL0     C10490   2.516   0.252   0.983  0.8677  0.9676 -0.2749
   80MOL0     C10491   2.483   0.108   0.938 -0.2408 -0.2554 -0.8975
   80MOL0     C10492   2.443  -0.003   0.925  0.3208 -0.5099  0.1140
   80MOL0     C10493   2.202   0.395   1.422  0.0285  0.5251  0.0158
   80MOL0     C10494   2.065   0.421   1.450 -1.0471  0.5989 -1.0516
   80MOL0     H10495   1.780   0.884   1.266  2.0983 -3.2538  0.3482
   80MOL0     H10496   1.563   1.023   1.277 -0.6935 -0.8349 -1.4673
   80MOL0     H10497   1.198   0.866   1.488 -0.3804  0.5377  0.1272
   80MOL0     H10498   1.207   0.747   1.354 -1.1173 -0.3654  1.7903
   80MOL0     H10499   1.085   0.927   1.210 -0.1772  3.8717 -0.1149
   80MOL0     H10500   1.093   1.031   1.351  2.5061  0.2027  2.3264
   80MOL0     H10501   0.949   0.873   1.477 -0.5562  0.2173 -0.8130
   80MOL0     H10502   0.941   0.757   1.348  1.6132 -0.5860  2.1968
   80MOL0     H10503   0.825   1.030   1.372  1.2720  0.5761 -0.8163
   80MOL0     H10504   0.817   0.964   1.220  0.2502  1.1972  0.5814
   80MOL0     H10505   0.695   0.771   1.310  2.3262  1.2919  0.0702
   80MOL0     H10506   0.599   0.918   1.347 -1.1373  0.3734  0.9371
   80MOL0     H10507   0.680   0.907   1.579  0.7137  1.9404 -3.2927
   80MOL0     H10508   0.763   0.759   1.545  1.2038 -0.2757 -2.5563
   80MOL0     H10509   0.523   0.741   1.657 -1.3555 -3.3862 -0.1952
   80MOL0     H10510   0.469   0.787   1.493  1.4325  1.3970 -1.4114
   80MOL0     H10511   0.607   0.533   1.598 -0.7325  1.6043  2.7873
   80MOL0     H10512   0.615   0.576   1.427 -2.1419  0.9519 -0.7643
   80MOL0     H10513   0.288   0.670   1.377 -1.8643 -0.9083 -1.1001
   80MOL0     H10514   0.106   0.387   1.266  1.0562  1.6385 -2.2224
   80MOL0     H10515   0.095   0.565   1.292  1.7634  0.5066  0.9676
   80MOL0     H10516   0.011   0.501   1.523  2.4220 -1.0403  0.4732
   80MOL0     H10517   0.014   0.333   1.474 -0.2051 -0.9062 -1.5705
   80MOL0     H10518  -0.170   0.373   1.306  2.1114  0.6369 -0.0383
   80MOL0     H10519  -0.217   0.430   1.470  0.2978  3.6949  1.2813
   80MOL0     H10520  -0.270   0.576   1.239  0.1686  3.2151 -1.6288
   80MOL0     H10521  -0.107   0.597   1.223 -0.7853  0.4948 -0.5677
   80MOL0     H10522  -0.361   0.775   1.596  0.7384  2.3271  0.9260
   80MOL0     H10523  -0.517   0.933   1.577 -2.9702 -1.6863 -1.1169
   80MOL0     H10524  -0.827   0.975   1.629 -0.2782  1.1176  1.5064
   80MOL0     H10525  -1.060   1.022   1.689  5.0554 -1.2328  0.7587
   80MOL0     H10526  -1.257   1.402   1.538  0.7719 -2.3997 -0.7155
   80MOL0     H10527  -1.166   1.395   1.685  0.9325 -1.3547 -0.3794
   80MOL0     H10528  -1.370   1.296   1.790  2.0438  4.0187  3.0670
   80MOL0     H10529  -1.450   1.299   1.631  0.3312 -2.1170  1.1326
   80MOL0     H10530  -1.443   1.550   1.640 -0.6971  2.1048  0.8570
   80MOL0     H10531  -1.332   1.546   1.776  0.7611  0.3884  1.2931
   80MOL0     H10532  -1.612   1.424   1.794 -0.0932  1.7541 -1.3893
   80MOL0     H10533  -1.508   1.433   1.931 -0.5904 -2.5544 -0.4271
   80MOL0     H10534  -1.596   1.674   1.793 -0.3114  0.6616 -0.3992
   80MOL0     H10535  -1.520   1.666   1.952  1.0319  0.8199 -0.6347
   80MOL0     H10536  -1.715   1.538   2.042 -0.7065 -0.8996 -0.8008
   80MOL0     H10537  -1.806   1.534   1.893 -0.8579  2.8240 -2.5986
   80MOL0     H10538  -1.726   1.773   2.077 -2.3731  0.3475  1.7800
   80MOL0     H10539  -1.793   1.811   1.917 -0.8379  0.3026  0.5733
   80MOL0     H10540  -1.973   1.828   2.092 -1.1047 -0.7583  0.5120
   80MOL0     H10541  -1.927   1.672   2.147 -1.6408 -0.0400 -1.1535
   80MOL0     H10542  -1.069   1.342   1.406 -0.6446  0.6136  1.4584
   80MOL0     H10543  -0.811   1.272   1.335  0.1505 -0.1707 -0.4401
   80MOL0     H10544  -0.474   0.947   1.159  0.3133  2.9663  1.6141
   80MOL0     H10545  -0.265   0.806   1.182  1.0340  1.1526  1.0772
   80MOL0     H10546   1.391   0.692   1.487 -0.4034  1.0117 -0.2892
   80MOL0     H10547   1.601   0.599   1.513 -2.6492 -0.5746  0.5238
   80MOL0     H10548   1.993   0.609   1.176 -1.6315  2.9543  3.7239
   80MOL0     H10549   2.227   0.561   1.114  2.3534 -0.6881 -0.1290
   80MOL0     H10550   2.528   0.571   1.240 -0.9207 -0.5940  0.4291
   80MOL0     H10551   2.445   0.514   1.111  0.0428  0.9101  1.1406
   80MOL0     H10552   2.684   0.440   1.086  2.1291 -0.7349  1.5438
   80MOL0     H10553   2.685   0.387   1.252  2.7393  0.1420 -1.0730
   80MOL0     H10554   2.504   0.224   1.199  1.6233 -0.2300  2.2981
   80MOL0     H10555   2.668   0.189   1.141  0.9341  1.4021  0.9871
   80MOL0     H10556   2.423   0.309   0.977 -0.6525 -1.3537 -0.0812
   80MOL0     H10557   2.583   0.292   0.906  0.3173  0.7450 -0.8847
   80MOL0     H10558   2.384  -0.089   0.902 -0.2631  0.6725 -3.4336
   80MOL0     H10559   2.269   0.344   1.490  2.0371  0.3199 -1.9684
   80MOL0     H10560   2.018   0.388   1.542  0.9306  0.6537  0.0380
   81MOL0     O10561   1.493   5.747   0.456  0.2377 -0.2882 -0.5401
   81MOL0     C10562   1.424   5.837   0.508  1.0303  0.1745  0.1906
   81MOL0     O10563   1.471   5.943   0.574 -0.7502  0.7564  0.4900
   81MOL0     C10564   1.610   5.960   0.584  0.1527 -0.5152 -0.2290
   81MOL0     C10565   1.652   6.098   0.572 -0.6395 -0.1929  0.3859
   81MOL0     C10566   1.778   6.138   0.620 -0.1717 -0.1332  0.0764
   81MOL0     C10567   1.852   6.049   0.692 -0.4097 -0.5344 -0.5548
   81MOL0     O10568   1.979   6.092   0.747 -0.0387 -0.0641  0.0220
   81MOL0     C10569   2.036   6.019   0.860 -0.5400  0.0895 -0.0934
   81MOL0     C10570   2.147   6.123   0.908  0.5228  0.4585  0.5863
   81MOL0     C10571   2.234   6.064   1.023 -0.2539  0.4565 -0.0656
   81MOL0     C10572   2.330   6.181   1.062  0.0110  0.3035 -0.9273
   81MOL0     C10573   2.447   6.180   0.972 -1.0745 -1.0609 -0.0499
   81MOL0     C10574   2.554   6.282   1.022 -0.2230 -0.7680  0.4069
   81MOL0     C10575   2.641   6.229   1.134  0.6200  0.0313  0.3768
   81MOL0     C10576   2.763   6.314   1.153  0.4580  0.4132 -0.1217
   81MOL0     N10577   2.847   6.256   1.261 -0.4888 -0.3252  0.0282
   81MOL0     C10578   2.925   6.142   1.259  0.2410 -0.9088  0.0356
   81MOL0     C10579   2.983   6.139   1.380 -0.7382 -0.2727  0.0243
   81MOL0     C10580   3.096   6.045   1.419  0.0140 -0.1636 -0.0901
   81MOL0     C10581   3.051   5.907   1.405  0.6791  0.9099  0.2390
   81MOL0     C10582   3.153   5.805   1.479  0.4077  0.4000  0.0962
   81MOL0     C10583   3.089   5.665   1.504 -0.7629  0.0849 -1.3128
   81MOL0     O10584   3.011   5.639   1.384  0.1949 -0.2747 -1.0375
   81MOL0     C10585   2.898   5.563   1.391 -0.4850  0.5311 -0.4640
   81MOL0     C10586   2.805   5.562   1.289  0.8565  0.6280  0.3155
   81MOL0     C10587   2.686   5.484   1.298  0.0751  0.1857  0.3078
   81MOL0     C10588   2.670   5.403   1.412 -0.4049 -1.0913 -0.5883
   81MOL0     C10589   2.551   5.325   1.442  0.6790  0.7451 -0.0409
   81MOL0     O10590   2.558   5.197   1.488  0.1705 -0.5867  0.1652
   81MOL0     C10591   2.446   5.120   1.502 -0.3705  0.6258 -0.4276
   81MOL0     C10592   2.392   5.097   1.630  0.0136 -0.2708  1.2642
   81MOL0     C10593   2.267   5.038   1.631  0.4096  0.1842 -0.3883
   81MOL0     C10594   2.201   4.993   1.515  0.1492  0.6039  0.2666
   81MOL0     O10595   2.079   4.933   1.545 -0.0878  0.4557 -0.7667
   81MOL0     C10596   2.025   4.844   1.442  0.7238 -0.4860 -0.5676
   81MOL0     C10597   1.884   4.817   1.467 -0.4352 -0.5367 -0.9303
   81MOL0     C10598   1.864   4.774   1.616  0.3534  0.5318 -0.7939
   81MOL0     C10599   1.720   4.733   1.648  0.5421  0.9931  1.1632
   81MOL0     C10600   1.684   4.723   1.797  1.3299  0.7445  0.4761
   81MOL0     C10601   1.572   4.619   1.810 -0.3706  0.3023 -0.8824
   81MOL0     C10602   1.543   4.600   1.960 -0.1891  0.1850 -0.6362
   81MOL0     C10603   1.425   4.511   1.995 -0.3387  0.3801 -0.3588
   81MOL0    Cl10604   1.274   4.595   1.948 -0.4289  0.2180 -0.0593
   81MOL0     C10605   2.261   5.008   1.385  0.5089  0.2501 -0.4202
   81MOL0     C10606   2.384   5.077   1.385 -0.2715 -0.0473  0.0087
   81MOL0     O10607   2.439   5.371   1.418  0.1286 -0.1071  0.4982
   81MOL0     C10608   2.774   5.389   1.502  0.5150  1.2746  0.1719
   81MOL0     C10609   2.879   5.469   1.490 -0.0597 -0.2876 -0.4513
   81MOL0     N10610   2.938   6.247   1.456  0.1882  0.1487  0.1717
   81MOL0     N10611   2.853   6.314   1.388 -0.2033 -0.1900 -0.3125
   81MOL0     C10612   1.810   5.915   0.697  0.6405  0.2143 -1.1460
   81MOL0     C10613   1.696   5.867   0.642 -0.1079 -1.2131 -0.4848
   81MOL0     C10614   1.275   5.835   0.494 -0.5059 -0.8579  0.0640
   81MOL0     C10615   1.211   5.710   0.499  0.8031  0.3299 -0.7158
   81MOL0     C10616   1.070   5.708   0.490  0.0007 -0.4369  0.7347
   81MOL0     C10617   0.991   5.820   0.460 -0.0391  1.0457 -0.2976
   81MOL0     O10618   0.855   5.827   0.441  0.0398  0.2054  0.6291
   81MOL0     C10619   0.775   5.716   0.463  0.7762 -1.4228  0.1544
   81MOL0     C10620   0.637   5.770   0.449  0.5499  0.8057 -0.9315
   81MOL0     C10621   0.538   5.664   0.506  0.6377  0.1228 -0.1407
   81MOL0     C10622   0.392   5.708   0.485 -0.4933  0.1411 -0.4022
   81MOL0     C10623   0.345   5.809   0.578 -0.6020 -0.4568  0.5844
   81MOL0     C10624   0.332   5.886   0.667 -0.1734 -0.6288  0.0575
   81MOL0     C10625   1.064   5.944   0.459  0.4481 -0.3283 -0.5202
   81MOL0     C10626   1.203   5.957   0.477  0.5131  0.0884  0.1728
   81MOL0     H10627   1.580   6.170   0.533  0.9942 -0.1011 -2.8211
   81MOL0     H10628   1.820   6.238   0.617 -1.3524  0.3759 -0.0564
   81MOL0     H10629   2.085   5.929   0.820  0.1821 -0.1312  1.2161
   81MOL0     H10630   1.974   6.003   0.949  1.6492  2.1336  1.9269
   81MOL0     H10631   2.097   6.214   0.942  0.4092  0.6886 -0.1841
   81MOL0     H10632   2.207   6.151   0.821 -0.5629  0.0221 -0.3275
   81MOL0     H10633   2.282   5.972   0.988 -0.0147  1.1910 -1.8278
   81MOL0     H10634   2.166   6.031   1.102 -0.7752  3.1530  0.7201
   81MOL0     H10635   2.275   6.276   1.063  0.7887  0.7925 -1.8064
   81MOL0     H10636   2.377   6.169   1.160  1.3055  0.5704 -1.4850
   81MOL0     H10637   2.409   6.208   0.873  1.0559 -0.6521 -0.8193
   81MOL0     H10638   2.486   6.078   0.971 -0.6808 -0.9353  1.1481
   81MOL0     H10639   2.505   6.369   1.064  1.1632  0.5392 -0.5792
   81MOL0     H10640   2.618   6.322   0.943 -2.7515  1.5375 -0.6314
   81MOL0     H10641   2.587   6.202   1.224  0.0063 -0.5360 -0.1498
   81MOL0     H10642   2.682   6.140   1.085 -1.4622  0.0841 -1.6149
   81MOL0     H10643   2.724   6.413   1.180  0.6747  0.1635  1.1626
   81MOL0     H10644   2.820   6.323   1.061 -2.8425  1.0334 -2.2967
   81MOL0     H10645   2.926   6.073   1.175 -2.5441  2.2325 -2.8966
   81MOL0     H10646   3.128   6.058   1.523  0.7669  0.7548 -0.4210
   81MOL0     H10647   3.188   6.072   1.365 -1.7004 -0.1615 -3.2588
   81MOL0     H10648   3.049   5.887   1.298  1.4335 -1.4132  0.5916
   81MOL0     H10649   2.949   5.892   1.442  0.1830 -2.0266 -1.9109
   81MOL0     H10650   3.233   5.788   1.407 -2.0974 -5.1166 -1.8999
   81MOL0     H10651   3.179   5.843   1.579 -0.3222 -2.3307  1.4240
   81MOL0     H10652   3.036   5.671   1.600 -1.2217  1.4046 -1.6245
   81MOL0     H10653   3.173   5.598   1.522  2.1422  3.7018 -0.2079
   81MOL0     H10654   2.830   5.619   1.201  1.2922  1.2321  0.8185
   81MOL0     H10655   2.609   5.485   1.222 -1.0164 -2.7656  1.2209
   81MOL0     H10656   2.430   5.144   1.720 -0.6618  0.0399  1.3923
   81MOL0     H10657   2.234   5.015   1.732  2.5382 -3.4306 -0.3408
   81MOL0     H10658   2.081   4.752   1.460  3.5696  1.3729  0.9489
   81MOL0     H10659   2.033   4.894   1.345 -0.3982  1.7176  0.3897
   81MOL0     H10660   1.867   4.728   1.405 -3.2122 -1.2707  0.6814
   81MOL0     H10661   1.813   4.897   1.440 -0.0648 -0.5630 -2.0439
   81MOL0     H10662   1.882   4.852   1.692 -1.6399 -1.0770  1.4824
   81MOL0     H10663   1.922   4.686   1.645  0.4912  0.7401 -0.4262
   81MOL0     H10664   1.662   4.812   1.599  0.3174 -0.0049 -0.2447
   81MOL0     H10665   1.703   4.640   1.594 -1.2279  1.4113  0.9287
   81MOL0     H10666   1.644   4.817   1.838 -1.3326 -0.4093  0.7471
   81MOL0     H10667   1.767   4.687   1.858 -0.5564 -2.9123  1.2006
   81MOL0     H10668   1.612   4.533   1.754  1.2981  1.5798 -1.7290
   81MOL0     H10669   1.479   4.658   1.767 -1.4861  1.0685  1.9982
   81MOL0     H10670   1.630   4.555   2.010  0.4367  1.4693 -0.5307
   81MOL0     H10671   1.528   4.697   2.009  1.1476  0.7657 -1.3272
   81MOL0     H10672   1.420   4.495   2.103 -0.5574  0.5151 -0.3484
   81MOL0     H10673   1.435   4.408   1.960  0.5389  0.2117  0.3259
   81MOL0     H10674   2.217   4.984   1.288  1.5298  2.1385 -1.3944
   81MOL0     H10675   2.424   5.105   1.289  2.6115 -1.7424  0.6006
   81MOL0     H10676   2.772   5.308   1.573 -2.3258 -0.3969 -1.6160
   81MOL0     H10677   2.956   5.448   1.563 -0.5072 -3.3691 -0.7181
   81MOL0     H10678   1.868   5.835   0.742 -1.7447 -2.1368 -1.9729
   81MOL0     H10679   1.661   5.767   0.665 -1.0844 -0.7773 -0.0107
   81MOL0     H10680   1.255   5.613   0.519 -2.8941 -1.6526 -1.1771
   81MOL0     H10681   1.028   5.609   0.506  0.3255 -0.7821 -0.4228
   81MOL0     H10682   0.788   5.679   0.566  1.3401  0.3037  0.7401
   81MOL0     H10683   0.785   5.637   0.389 -2.5002 -1.2775 -0.6151
   81MOL0     H10684   0.616   5.857   0.512 -0.6139 -0.6000  0.7165
   81MOL0     H10685   0.613   5.802   0.347  2.3036  1.6817 -1.1042
   81MOL0     H10686   0.573   5.639   0.607  0.9037 -2.5253 -0.8090
   81MOL0     H10687   0.537   5.576   0.440  1.0405  0.2816 -0.3633
   81MOL0     H10688   0.378   5.739   0.381 -3.5060 -0.3648 -0.2472
   81MOL0     H10689   0.329   5.621   0.507 -1.8080  1.0434 -0.4959
   81MOL0     H10690   0.307   5.943   0.754  1.2690  0.2998 -0.1211
   81MOL0     H10691   1.007   6.032   0.435  1.2253  0.7790  1.4161
   81MOL0     H10692   1.257   6.051   0.482  1.3145 -0.2563 -1.4502
   82MOL0     O10693   4.995   6.152   6.694 -0.9060 -0.0626  0.2213
   82MOL0     C10694   4.950   6.103   6.793 -0.4138  0.1442 -0.3728
   82MOL0     O10695   4.818   6.074   6.810 -0.4650  0.2133  0.3555
   82MOL0     C10696   4.731   6.091   6.700  0.0987  0.4539 -0.3764
   82MOL0     C10697   4.729   6.206   6.622  0.1814 -0.5276  0.4993
   82MOL0     C10698   4.633   6.226   6.519  0.9530  0.5025 -1.1944
   82MOL0     C10699   4.522   6.140   6.505  0.5621 -0.8178 -0.4619
   82MOL0     O10700   4.422   6.175   6.417 -0.0131  0.7023 -0.4197
   82MOL0     C10701   4.334   6.068   6.385 -0.1041 -0.1528  0.3650
   82MOL0     C10702   4.216   6.127   6.295 -0.7976  0.6038  0.3609
   82MOL0     C10703   4.155   6.028   6.204 -0.1223 -0.4398  0.3732
   82MOL0     C10704   4.067   6.081   6.093 -0.3348 -0.4457 -0.0925
   82MOL0     C10705   4.048   5.968   5.994  0.1262 -0.4222  0.5188
   82MOL0     C10706   3.974   6.041   5.873 -0.7510  0.7083  0.0976
   82MOL0     C10707   3.907   5.945   5.774 -0.0627  0.3734 -0.1442
   82MOL0     C10708   3.818   6.009   5.671 -0.3672  0.3807 -0.7114
   82MOL0     N10709   3.898   6.091   5.581  0.3713 -0.2135  0.4724
   82MOL0     C10710   3.994   6.057   5.491 -0.1147  0.4763  0.2875
   82MOL0     C10711   4.018   6.171   5.420  0.5088 -0.1987  0.8821
   82MOL0     C10712   4.121   6.193   5.316  0.3324 -0.7400 -0.3641
   82MOL0     C10713   4.099   6.297   5.211  0.6276  0.9045  0.1147
   82MOL0     C10714   3.957   6.284   5.138  0.1618  0.3869  0.3988
   82MOL0     C10715   3.910   6.408   5.078 -0.3557 -0.9363 -0.7658
   82MOL0     O10716   3.820   6.379   4.973  0.7261 -0.2117  0.1626
   82MOL0     C10717   3.687   6.352   5.006  0.4695  0.1550 -0.6939
   82MOL0     C10718   3.618   6.415   5.118  0.8902  0.1702  0.2492
   82MOL0     C10719   3.483   6.381   5.152 -0.2056  0.3343 -0.6686
   82MOL0     C10720   3.409   6.301   5.067  0.6922 -0.5781 -0.0020
   82MOL0     C10721   3.270   6.271   5.095  0.0868 -0.5564 -0.5186
   82MOL0     O10722   3.210   6.335   5.200 -0.2095  0.2860 -0.0374
   82MOL0     C10723   3.077   6.312   5.215 -0.0432  0.0658 -0.6888
   82MOL0     C10724   3.034   6.221   5.314 -0.2307 -0.3905 -0.0136
   82MOL0     C10725   2.897   6.208   5.343 -0.0940 -0.4795 -1.1784
   82MOL0     C10726   2.800   6.279   5.270 -0.1537 -0.0323 -1.4805
   82MOL0     O10727   2.668   6.263   5.302 -0.2118  0.1401  0.8872
   82MOL0     C10728   2.599   6.379   5.349  1.1818  0.6678  0.1583
   82MOL0     C10729   2.464   6.398   5.282  0.1181 -0.2768  0.8263
   82MOL0     C10730   2.408   6.542   5.315  0.2205 -0.1161  0.4356
   82MOL0     C10731   2.253   6.546   5.318  0.3252 -0.4403  0.0803
   82MOL0     C10732   2.208   6.672   5.405 -0.5551 -0.8087  0.2654
   82MOL0     C10733   2.056   6.674   5.406 -0.6366 -0.2591  0.4026
   82MOL0     C10734   1.995   6.805   5.464 -0.3092  0.9316 -0.8427
   82MOL0     C10735   1.858   6.845   5.402 -1.4899  0.0119  0.4874
   82MOL0    Cl10736   1.737   6.720   5.428 -0.0799 -0.3644  0.6394
   82MOL0     C10737   2.841   6.355   5.167 -0.5378  0.2569  1.1525
   82MOL0     C10738   2.976   6.373   5.139 -0.3457 -0.2125  0.0595
   82MOL0     O10739   3.213   6.208   5.002 -0.2936 -0.8064 -0.4677
   82MOL0     C10740   3.472   6.250   4.951 -0.4427  0.0204  0.0419
   82MOL0     C10741   3.610   6.268   4.928  1.4220  0.1952  0.0555
   82MOL0     N10742   3.944   6.274   5.474  0.1774 -0.5329  0.1789
   82MOL0     N10743   3.877   6.225   5.577  0.6308 -0.5808 -0.0488
   82MOL0     C10744   4.529   6.022   6.593 -0.3951  0.6982  0.1698
   82MOL0     C10745   4.622   6.008   6.686 -1.3251  0.2881  0.0140
   82MOL0     C10746   5.037   6.062   6.912  0.4999 -0.4381  1.0209
   82MOL0     C10747   4.997   5.962   7.004 -0.3100  0.6357 -0.2416
   82MOL0     C10748   5.067   5.930   7.116 -0.3024  0.3260 -0.1794
   82MOL0     C10749   5.193   5.991   7.137  0.7456 -0.3492 -0.1497
   82MOL0     O10750   5.266   5.961   7.248 -0.3786  0.5031 -0.4479
   82MOL0     C10751   5.395   6.008   7.267 -0.8077  0.0516 -0.1324
   82MOL0     C10752   5.487   5.919   7.175 -0.3565  0.5115 -0.4890
   82MOL0     C10753   5.626   5.961   7.211 -0.6417 -0.5069 -0.0206
   82MOL0     C10754   5.728   5.879   7.141  0.9101  0.4279 -0.3394
   82MOL0     C10755   5.853   5.891   7.216  0.1928  0.4916  0.2342
   82MOL0     C10756   5.958   5.889   7.286  0.8442  0.4789 -0.5027
   82MOL0     C10757   5.242   6.088   7.045 -0.0506  0.2493 -0.4532
   82MOL0     C10758   5.163   6.118   6.936 -1.0704 -0.1953  0.3186
   82MOL0     H10759   4.812   6.275   6.633 -0.1830  0.3316 -1.5866
   82MOL0     H10760   4.636   6.319   6.462  1.6715  0.2629 -1.5613
   82MOL0     H10761   4.295   6.020   6.476 -0.7367 -0.7578 -0.2210
   82MOL0     H10762   4.380   5.988   6.327  0.2190 -0.6339  1.2626
   82MOL0     H10763   4.246   6.202   6.222 -1.7740 -1.0299 -1.8174
   82MOL0     H10764   4.141   6.166   6.365  1.5114  2.3459  1.9781
   82MOL0     H10765   4.107   5.958   6.273 -0.8383 -1.1473 -0.7989
   82MOL0     H10766   4.232   5.970   6.153  0.9592 -0.5942  2.0955
   82MOL0     H10767   3.967   6.119   6.118 -1.0452 -2.1177 -0.2516
   82MOL0     H10768   4.130   6.158   6.047 -0.6207 -0.0412  0.1831
   82MOL0     H10769   3.990   5.882   6.028  1.8315 -3.0334 -2.5435
   82MOL0     H10770   4.143   5.925   5.960  0.1762 -2.1757  2.6953
   82MOL0     H10771   4.048   6.102   5.820 -0.8567  1.1709  0.4791
   82MOL0     H10772   3.892   6.104   5.909 -1.4239  1.7203 -2.9216
   82MOL0     H10773   3.980   5.879   5.726 -0.1298  0.5180 -0.4423
   82MOL0     H10774   3.840   5.885   5.837 -2.3833 -0.0765 -2.8496
   82MOL0     H10775   3.733   6.060   5.717 -0.9400 -2.2603  1.4313
   82MOL0     H10776   3.769   5.935   5.607 -2.3935 -0.2198  1.3870
   82MOL0     H10777   4.036   5.957   5.483 -1.5035 -0.0221 -1.6463
   82MOL0     H10778   4.133   6.093   5.276  1.5109 -0.3461 -1.0462
   82MOL0     H10779   4.219   6.215   5.361  0.2952 -0.4916 -0.4012
   82MOL0     H10780   4.181   6.309   5.140  1.8079  2.5672  1.6538
   82MOL0     H10781   4.103   6.394   5.261  1.7534  0.1234  1.6399
   82MOL0     H10782   3.980   6.197   5.076 -1.8706  0.7716 -1.0128
   82MOL0     H10783   3.883   6.253   5.212  0.5441  0.6940  0.9122
   82MOL0     H10784   3.995   6.458   5.031 -0.9404 -0.0273 -0.8895
   82MOL0     H10785   3.885   6.483   5.153  1.2454 -2.6085  1.5656
   82MOL0     H10786   3.657   6.491   5.185  0.4394  1.1161 -0.5405
   82MOL0     H10787   3.452   6.418   5.249 -0.9912  1.6636 -1.3972
   82MOL0     H10788   3.114   6.159   5.355  0.8692  0.5719 -0.6281
   82MOL0     H10789   2.862   6.146   5.424 -0.7888  1.6322  0.2308
   82MOL0     H10790   2.654   6.473   5.352 -2.0865  2.7855 -0.8701
   82MOL0     H10791   2.573   6.365   5.454  0.8281  1.7076  0.2201
   82MOL0     H10792   2.403   6.319   5.326 -0.5270  0.0417  0.5086
   82MOL0     H10793   2.463   6.377   5.175 -1.6572  1.5388  0.4317
   82MOL0     H10794   2.447   6.619   5.248 -1.6251 -0.5978 -1.3127
   82MOL0     H10795   2.441   6.565   5.416 -0.6498 -1.3867  1.0375
   82MOL0     H10796   2.203   6.548   5.221 -3.4832  0.1453  1.8686
   82MOL0     H10797   2.214   6.456   5.366 -0.9085 -0.2006 -0.4379
   82MOL0     H10798   2.247   6.759   5.352 -2.3894 -1.1590 -1.8461
   82MOL0     H10799   2.248   6.654   5.505  3.4061  1.8035 -0.6166
   82MOL0     H10800   2.026   6.586   5.465  0.3812 -0.6962  0.2874
   82MOL0     H10801   2.018   6.657   5.305  0.3565  1.6090 -0.3278
   82MOL0     H10802   1.968   6.791   5.569 -1.0729 -1.7550 -1.3205
   82MOL0     H10803   2.067   6.887   5.463 -0.2991  0.9450  0.3540
   82MOL0     H10804   1.873   6.858   5.294  0.0878 -1.3402  0.5174
   82MOL0     H10805   1.837   6.941   5.449 -1.0088  1.0697 -1.3470
   82MOL0     H10806   2.773   6.409   5.102  2.6564  0.5583 -2.2193
   82MOL0     H10807   3.006   6.453   5.071 -0.3588 -0.4656 -0.2468
   82MOL0     H10808   3.425   6.183   4.880 -0.6091  0.0390  0.1340
   82MOL0     H10809   3.645   6.214   4.841 -0.2646 -2.0578  0.6807
   82MOL0     H10810   4.459   5.938   6.594 -0.9397  1.1087 -1.2545
   82MOL0     H10811   4.627   5.919   6.748 -0.9587  0.8160  0.7595
   82MOL0     H10812   4.903   5.907   7.004 -0.4927  0.8743  1.7770
   82MOL0     H10813   5.021   5.854   7.179 -3.2686  0.2690 -2.1884
   82MOL0     H10814   5.423   5.995   7.372  0.4441  3.2839  0.0464
   82MOL0     H10815   5.400   6.114   7.241  3.7080  0.0441 -0.0143
   82MOL0     H10816   5.471   5.812   7.196  3.5692 -0.2283 -0.4960
   82MOL0     H10817   5.473   5.936   7.068  0.5324 -2.3477 -1.1608
   82MOL0     H10818   5.626   5.938   7.318 -1.6956 -1.6558 -0.2409
   82MOL0     H10819   5.640   6.069   7.197 -1.2725 -0.7160 -2.8559
   82MOL0     H10820   5.696   5.774   7.136  0.1749  0.6725 -0.9475
   82MOL0     H10821   5.732   5.926   7.043  0.7935 -1.5296 -1.3383
   82MOL0     H10822   6.054   5.885   7.333  1.6594  1.1322 -2.0257
   82MOL0     H10823   5.339   6.136   7.055  1.9692 -3.8664  2.3008
   82MOL0     H10824   5.200   6.190   6.864 -0.9779  1.7139  2.1743
   83MOL0     O10825   0.230   0.042   3.310 -0.3107  1.0875 -0.0532
   83MOL0     C10826   0.207   0.161   3.301  0.4936  0.2611  0.1845
   83MOL0     O10827   0.085   0.213   3.331 -0.5568 -0.3076 -1.1591
   83MOL0     C10828  -0.001   0.157   3.426 -0.0156 -0.0594 -0.5556
   83MOL0     C10829   0.039   0.059   3.522  0.8375 -0.2882 -0.4628
   83MOL0     C10830  -0.055   0.002   3.604 -0.2398 -0.6699  0.5329
   83MOL0     C10831  -0.198   0.042   3.599  0.1413  0.1191  0.4196
   83MOL0     O10832  -0.276  -0.020   3.698 -0.3407  0.3311 -0.3078
   83MOL0     C10833  -0.416  -0.006   3.690  0.3218 -0.8383 -0.2419
   83MOL0     C10834  -0.475  -0.079   3.812  0.3305 -0.1629 -0.0329
   83MOL0     C10835  -0.629  -0.052   3.825 -1.1759 -0.1652 -0.6677
   83MOL0     C10836  -0.686  -0.120   3.955 -0.1322 -0.2199 -0.3088
   83MOL0     C10837  -0.831  -0.106   3.947  0.6512  0.0802 -0.6724
   83MOL0     C10838  -0.901  -0.172   4.069  0.0728  0.6888 -1.0200
   83MOL0     C10839  -1.048  -0.157   4.075  1.1945 -0.1500 -0.1374
   83MOL0     C10840  -1.130  -0.217   3.961  0.9336  0.1367  0.3933
   83MOL0     N10841  -1.270  -0.217   4.007  0.2740  0.0941  0.0473
   83MOL0     C10842  -1.343  -0.324   4.056  0.3042  0.6570 -0.0923
   83MOL0     C10843  -1.471  -0.283   4.052 -0.2654  0.9041  0.6743
   83MOL0     C10844  -1.580  -0.359   4.115  0.2423  0.3437  0.1666
   83MOL0     C10845  -1.564  -0.356   4.263 -0.1784 -0.9788 -0.6236
   83MOL0     C10846  -1.601  -0.213   4.319  0.2510  0.0858 -0.0676
   83MOL0     C10847  -1.575  -0.213   4.470 -0.4864 -0.6440 -1.0107
   83MOL0     O10848  -1.455  -0.274   4.519 -0.0608 -0.3374  0.0273
   83MOL0     C10849  -1.331  -0.218   4.485 -1.2961 -1.0384 -0.0330
   83MOL0     C10850  -1.299  -0.100   4.417 -0.5042 -0.4468 -0.0337
   83MOL0     C10851  -1.165  -0.056   4.410 -0.2489 -1.2840 -0.4773
   83MOL0     C10852  -1.059  -0.125   4.473  0.0299  0.2607 -0.0806
   83MOL0     C10853  -0.919  -0.088   4.458 -0.1965 -0.7220 -0.3526
   83MOL0     O10854  -0.825  -0.154   4.532  0.6452 -0.0765 -0.6242
   83MOL0     C10855  -0.690  -0.147   4.509 -0.2627  0.2088 -0.5708
   83MOL0     C10856  -0.604  -0.170   4.614 -0.1920  0.4782 -0.5727
   83MOL0     C10857  -0.463  -0.164   4.598  0.4985  0.2939 -0.3872
   83MOL0     C10858  -0.402  -0.138   4.477  0.1820  0.8059  0.5553
   83MOL0     O10859  -0.272  -0.142   4.449 -0.0021 -0.1525  0.2618
   83MOL0     C10860  -0.169  -0.150   4.547 -0.9175  0.9426  0.3560
   83MOL0     C10861  -0.034  -0.111   4.494  0.6782 -0.5808 -0.9892
   83MOL0     C10862  -0.028   0.035   4.442 -0.4601 -0.5680  0.1691
   83MOL0     C10863   0.125   0.066   4.415  0.2394 -0.3249 -0.7045
   83MOL0     C10864   0.148   0.210   4.364  0.6258 -0.3674 -0.0573
   83MOL0     C10865   0.290   0.235   4.297 -0.5107 -0.1677  0.4599
   83MOL0     C10866   0.402   0.181   4.385  0.3579  0.1249 -0.3124
   83MOL0     C10867   0.544   0.192   4.318 -0.8185  1.1318  0.5782
   83MOL0    Cl10868   0.562   0.050   4.207  0.2072  0.1046 -0.0427
   83MOL0     C10869  -0.491  -0.117   4.373 -0.4022 -1.2914  0.1788
   83MOL0     C10870  -0.628  -0.120   4.385 -0.0752 -0.1099 -0.7279
   83MOL0     O10871  -0.891   0.001   4.382  0.1795 -0.3301  0.0224
   83MOL0     C10872  -1.096  -0.249   4.529  0.3238  0.5897 -0.0130
   83MOL0     C10873  -1.230  -0.294   4.542  0.5868  0.6152 -0.3491
   83MOL0     N10874  -1.477  -0.158   3.993  0.0115  0.7820  0.3047
   83MOL0     N10875  -1.354  -0.120   3.967  0.7506  0.2157 -0.4127
   83MOL0     C10876  -0.234   0.126   3.497 -0.3151 -0.3054  0.2594
   83MOL0     C10877  -0.138   0.186   3.419 -0.4275 -0.1330  0.0980
   83MOL0     C10878   0.310   0.255   3.253  0.3029  0.7865 -0.0111
   83MOL0     C10879   0.302   0.401   3.279 -0.3586  0.1389 -0.7336
   83MOL0     C10880   0.405   0.481   3.232  0.2880 -0.7066  0.0265
   83MOL0     C10881   0.511   0.429   3.160  0.6590  0.5366 -0.2496
   83MOL0     O10882   0.610   0.522   3.131  0.0539  0.8843 -0.8958
   83MOL0     C10883   0.718   0.467   3.055  0.5381 -0.0732  0.0181
   83MOL0     C10884   0.802   0.593   3.024  0.3837 -0.0290 -0.4657
   83MOL0     C10885   0.901   0.568   2.912 -0.6848 -0.2477 -0.0348
   83MOL0     C10886   0.951   0.710   2.872  0.4458 -0.2633  0.8755
   83MOL0     C10887   1.035   0.692   2.759  0.8852 -1.1021 -0.6048
   83MOL0     C10888   1.101   0.672   2.663 -0.9870  0.3575  0.3385
   83MOL0     C10889   0.511   0.293   3.124  1.2632  0.2282 -0.5842
   83MOL0     C10890   0.415   0.208   3.175  0.1671 -0.1526  0.4000
   83MOL0     H10891   0.142   0.030   3.539 -0.3473 -5.4174 -0.3680
   83MOL0     H10892  -0.030  -0.066   3.685 -2.3510 -2.0277  0.0996
   83MOL0     H10893  -0.455  -0.059   3.602  2.3528 -3.7808  0.4851
   83MOL0     H10894  -0.428   0.103   3.699  1.1909 -0.5768 -1.7369
   83MOL0     H10895  -0.416  -0.030   3.890  1.7323  0.6766 -1.5480
   83MOL0     H10896  -0.442  -0.183   3.817  1.7123  0.2790  0.6525
   83MOL0     H10897  -0.679  -0.097   3.739 -1.0807  1.1762 -1.4501
   83MOL0     H10898  -0.638   0.057   3.830  1.3976  0.0488  1.6304
   83MOL0     H10899  -0.653  -0.224   3.956  0.3924 -0.1017 -1.7200
   83MOL0     H10900  -0.657  -0.068   4.046 -1.4797 -0.7238  0.4493
   83MOL0     H10901  -0.874  -0.160   3.862 -5.0371  0.8675  1.2523
   83MOL0     H10902  -0.849   0.001   3.935 -1.1505 -0.2465 -1.1617
   83MOL0     H10903  -0.848  -0.132   4.156  2.3020  0.9135 -2.4087
   83MOL0     H10904  -0.888  -0.280   4.070  0.2554  0.6861  1.3002
   83MOL0     H10905  -1.074  -0.214   4.165  0.5441 -0.6039 -0.6082
   83MOL0     H10906  -1.079  -0.053   4.087 -1.8584 -1.0810  0.7505
   83MOL0     H10907  -1.096  -0.320   3.945  2.8274  0.6139  1.0927
   83MOL0     H10908  -1.117  -0.154   3.873  1.7608  3.7012  2.8196
   83MOL0     H10909  -1.294  -0.409   4.104  0.2353  1.2210  1.0072
   83MOL0     H10910  -1.573  -0.461   4.075  1.4539  0.0322  1.1184
   83MOL0     H10911  -1.670  -0.316   4.071  0.4320  0.3580 -0.2171
   83MOL0     H10912  -1.461  -0.373   4.295  0.2168  0.2262 -1.1715
   83MOL0     H10913  -1.635  -0.430   4.303 -0.0661 -0.8868 -0.2605
   83MOL0     H10914  -1.550  -0.130   4.269  1.2846 -0.2719  0.3874
   83MOL0     H10915  -1.709  -0.195   4.321 -0.3797 -3.0505  2.6308
   83MOL0     H10916  -1.659  -0.262   4.520  1.4055 -1.2608  1.7531
   83MOL0     H10917  -1.573  -0.109   4.504  0.6083 -0.9807  0.0259
   83MOL0     H10918  -1.380  -0.045   4.371  0.5973  1.2134 -0.0619
   83MOL0     H10919  -1.144   0.033   4.352 -1.3078 -1.2108 -0.7789
   83MOL0     H10920  -0.629  -0.202   4.715  2.9081  0.5607  0.3289
   83MOL0     H10921  -0.403  -0.191   4.684 -0.3131 -2.1056 -0.4862
   83MOL0     H10922  -0.157  -0.247   4.595 -1.2918 -0.0639 -1.4762
   83MOL0     H10923  -0.195  -0.082   4.629 -1.4927 -1.4834  2.2797
   83MOL0     H10924  -0.001  -0.184   4.420 -0.6093 -1.0308 -1.1410
   83MOL0     H10925   0.049  -0.124   4.564  0.1760  1.1342 -0.0200
   83MOL0     H10926  -0.066   0.105   4.516 -0.2870 -2.3343  2.0031
   83MOL0     H10927  -0.091   0.054   4.354 -1.2962  3.2653  1.4173
   83MOL0     H10928   0.177   0.040   4.508  0.7880  2.0323 -0.2720
   83MOL0     H10929   0.146  -0.011   4.340  1.8180 -1.0547  0.4244
   83MOL0     H10930   0.128   0.276   4.449  0.5903 -0.0456 -0.3133
   83MOL0     H10931   0.071   0.237   4.290 -0.3133  2.8284  1.8872
   83MOL0     H10932   0.313   0.340   4.274 -0.0541 -0.3669 -0.0249
   83MOL0     H10933   0.283   0.176   4.205 -0.5499 -0.2182  0.4957
   83MOL0     H10934   0.396   0.238   4.478 -2.7816 -3.4184  1.9267
   83MOL0     H10935   0.383   0.076   4.409  1.4443  0.1330  0.6621
   83MOL0     H10936   0.627   0.192   4.390  0.9273 -1.0252 -1.2827
   83MOL0     H10937   0.542   0.282   4.256 -0.2758  1.7432  1.4183
   83MOL0     H10938  -0.449  -0.077   4.282 -0.9976 -0.2754  0.3419
   83MOL0     H10939  -0.685  -0.099   4.295  1.1914 -1.0519 -1.7804
   83MOL0     H10940  -1.027  -0.320   4.574  0.8116 -0.2928 -2.0166
   83MOL0     H10941  -1.257  -0.382   4.600 -2.3578  0.9880 -0.9655
   83MOL0     H10942  -0.334   0.166   3.479  0.4258  1.2745 -0.5940
   83MOL0     H10943  -0.163   0.248   3.334  3.5228  0.4093 -0.8472
   83MOL0     H10944   0.226   0.443   3.344  1.8151  0.0812  1.9830
   83MOL0     H10945   0.401   0.589   3.240 -0.9719 -0.3878 -3.2774
   83MOL0     H10946   0.683   0.424   2.961  4.1968  1.4218 -2.2627
   83MOL0     H10947   0.773   0.385   3.103  1.0255  0.1835 -0.0961
   83MOL0     H10948   0.725   0.666   2.996 -0.9027 -0.6701  1.1802
   83MOL0     H10949   0.846   0.630   3.117 -1.9830 -0.2976  0.8628
   83MOL0     H10950   0.859   0.517   2.824 -0.8894  0.8936 -0.6111
   83MOL0     H10951   0.986   0.518   2.960 -0.6266  0.4720  0.6363
   83MOL0     H10952   0.865   0.767   2.836  2.3034  0.1118 -3.5342
   83MOL0     H10953   1.006   0.751   2.958  2.3850 -0.4692 -0.2073
   83MOL0     H10954   1.136   0.651   2.564 -0.9339  1.4462  0.1195
   83MOL0     H10955   0.580   0.252   3.051  1.6894  2.1567 -1.3249
   83MOL0     H10956   0.422   0.107   3.135 -1.3418 -0.1476  0.0827
   84MOL0     O10957   3.876   2.801   3.111  0.1341 -0.3309 -0.2074
   84MOL0     C10958   3.925   2.828   3.001 -0.0355 -0.3914  0.9042
   84MOL0     O10959   3.856   2.848   2.886  0.0465  0.4239  0.0907
   84MOL0     C10960   3.728   2.805   2.892  0.7129  0.4618 -0.2258
   84MOL0     C10961   3.618   2.893   2.889 -0.2281 -0.3720 -0.3481
   84MOL0     C10962   3.484   2.854   2.879 -0.0205  0.0376 -0.3041
   84MOL0     C10963   3.449   2.713   2.872 -0.2441 -0.6600  0.4055
   84MOL0     O10964   3.322   2.666   2.846 -0.0318  0.0309  0.5414
   84MOL0     C10965   3.225   2.752   2.780 -0.0998 -0.6188 -0.2919
   84MOL0     C10966   3.083   2.684   2.792 -0.6966 -0.7233  0.2893
   84MOL0     C10967   3.065   2.552   2.715 -0.0958  0.1669  0.0580
   84MOL0     C10968   2.926   2.510   2.684  0.1496 -0.0929 -0.7403
   84MOL0     C10969   2.917   2.366   2.634  0.3200  0.9817  0.9708
   84MOL0     C10970   2.789   2.339   2.550 -0.8458 -0.0441  0.6036
   84MOL0     C10971   2.656   2.382   2.621 -0.2977  0.0795  0.7106
   84MOL0     C10972   2.547   2.368   2.508 -0.0899 -0.3337 -0.0989
   84MOL0     N10973   2.414   2.396   2.557 -0.6116  0.3529 -0.0806
   84MOL0     C10974   2.322   2.308   2.610  0.5601 -0.2733 -0.8007
   84MOL0     C10975   2.217   2.395   2.644 -0.4464  0.1946 -0.2294
   84MOL0     C10976   2.081   2.354   2.695  0.1637 -0.0783 -0.3087
   84MOL0     C10977   1.961   2.433   2.629 -0.9928 -1.0769 -0.6165
   84MOL0     C10978   1.835   2.356   2.627  0.2876  0.8644  0.6387
   84MOL0     C10979   1.707   2.439   2.629  0.4812 -0.1176  0.0449
   84MOL0     O10980   1.700   2.542   2.733 -0.0353  0.4181  0.4411
   84MOL0     C10981   1.586   2.614   2.741 -0.1283 -0.0771 -0.0753
   84MOL0     C10982   1.586   2.725   2.817 -0.5879 -0.6108  0.5545
   84MOL0     C10983   1.469   2.800   2.839  0.4346 -0.1273  0.0750
   84MOL0     C10984   1.341   2.759   2.779 -0.4741  0.4911  0.3727
   84MOL0     C10985   1.222   2.844   2.805  0.4250  0.2276  0.6902
   84MOL0     O10986   1.234   2.963   2.884 -0.1233  0.2529 -0.3364
   84MOL0     C10987   1.123   3.029   2.911  0.2203 -0.0166 -0.7952
   84MOL0     C10988   1.063   3.032   3.042 -0.0311  0.7061  0.0706
   84MOL0     C10989   0.940   3.095   3.067  0.0742  0.5842 -0.2266
   84MOL0     C10990   0.878   3.165   2.963 -0.4545 -0.6106 -0.8306
   84MOL0     O10991   0.755   3.220   2.978  0.7252  0.6767 -0.3097
   84MOL0     C10992   0.657   3.180   2.882  0.1511  0.0543 -0.1105
   84MOL0     C10993   0.516   3.175   2.932  0.4303 -0.0416 -0.1367
   84MOL0     C10994   0.500   3.145   3.083 -0.0423 -0.0018 -0.9379
   84MOL0     C10995   0.355   3.152   3.131 -0.1956 -1.2131  0.9072
   84MOL0     C10996   0.280   3.286   3.113 -0.0701  0.3543 -0.7378
   84MOL0     C10997   0.354   3.409   3.169  0.3642 -0.2098  0.8197
   84MOL0     C10998   0.274   3.542   3.141 -0.7280  0.3469  0.5616
   84MOL0     C10999   0.194   3.576   3.260  0.2205  0.4845  0.0301
   84MOL0    Cl11000   0.088   3.720   3.222 -0.2460 -0.0237 -0.2724
   84MOL0     C11001   0.944   3.164   2.840 -0.4464  0.1172 -0.3918
   84MOL0     C11002   1.059   3.101   2.812  0.2376 -0.2935 -0.2930
   84MOL0     O11003   1.114   2.800   2.773 -0.2368  0.4775  0.3655
   84MOL0     C11004   1.342   2.647   2.703  0.4462  0.0498  0.8384
   84MOL0     C11005   1.457   2.571   2.692 -0.5852  0.0305 -0.5721
   84MOL0     N11006   2.254   2.528   2.627  0.2055  0.1066  0.7472
   84MOL0     N11007   2.366   2.522   2.564  0.3537 -1.2017  0.3990
   84MOL0     C11008   3.562   2.625   2.864 -0.1461 -0.4758 -0.5371
   84MOL0     C11009   3.696   2.673   2.870  0.2189  0.6479  0.3968
   84MOL0     C11010   4.072   2.844   2.981  0.9863 -0.0553 -0.7013
   84MOL0     C11011   4.129   2.849   2.848  0.9451 -0.1102 -0.0610
   84MOL0     C11012   4.260   2.847   2.824 -0.4153 -0.2031  0.0495
   84MOL0     C11013   4.356   2.848   2.932  0.0948 -1.0901  0.5237
   84MOL0     O11014   4.487   2.856   2.893 -1.0597  0.5939  0.2605
   84MOL0     C11015   4.564   2.929   2.985  0.0545  0.3691 -0.0187
   84MOL0     C11016   4.713   2.916   2.945  0.2885 -0.9250  0.4798
   84MOL0     C11017   4.802   2.943   3.067 -0.4840 -0.0700 -0.0657
   84MOL0     C11018   4.947   2.910   3.027  0.2531  0.7268 -0.3471
   84MOL0     C11019   5.047   2.925   3.132  0.0075 -0.8808 -0.1403
   84MOL0     C11020   5.130   2.933   3.222 -0.8208 -0.0868 -0.8472
   84MOL0     C11021   4.301   2.861   3.062 -1.1902  0.7538  1.4279
   84MOL0     C11022   4.169   2.846   3.081  0.2629  0.3938 -0.6546
   84MOL0     H11023   3.640   2.998   2.901 -3.7562  0.3109  1.5776
   84MOL0     H11024   3.407   2.930   2.887  0.0697  0.0462  0.5147
   84MOL0     H11025   3.252   2.757   2.674 -1.4722  0.3939 -0.6266
   84MOL0     H11026   3.219   2.852   2.823  1.6237 -0.1461 -1.0627
   84MOL0     H11027   3.018   2.760   2.749  0.3619 -0.8945 -1.7337
   84MOL0     H11028   3.058   2.673   2.898  0.3231 -0.7481  0.5450
   84MOL0     H11029   3.123   2.475   2.767 -0.4517 -0.0011  0.2134
   84MOL0     H11030   3.120   2.564   2.622  3.1472 -3.7531  1.1683
   84MOL0     H11031   2.878   2.536   2.779  3.7449  2.6513  0.5715
   84MOL0     H11032   2.869   2.570   2.612 -2.0881  0.2880  1.2326
   84MOL0     H11033   2.919   2.302   2.722  4.2971 -1.2826 -0.5143
   84MOL0     H11034   3.008   2.349   2.575 -1.4371 -0.5034 -1.5256
   84MOL0     H11035   2.786   2.237   2.510  1.7358 -1.7138  4.0864
   84MOL0     H11036   2.812   2.402   2.463 -0.3110  0.5620  1.1751
   84MOL0     H11037   2.637   2.330   2.715 -0.0941  0.8586  1.1956
   84MOL0     H11038   2.663   2.491   2.633  0.6117  0.0410  0.5612
   84MOL0     H11039   2.538   2.271   2.459  1.1032 -1.3791  1.6454
   84MOL0     H11040   2.582   2.421   2.419 -1.9963 -3.1941 -2.7861
   84MOL0     H11041   2.314   2.201   2.626 -2.2046 -0.2496 -1.5218
   84MOL0     H11042   2.070   2.377   2.802  0.1792 -2.2575  0.2063
   84MOL0     H11043   2.064   2.249   2.670 -1.7870  0.2403 -0.4896
   84MOL0     H11044   1.993   2.466   2.530  0.0729  1.7516  0.5406
   84MOL0     H11045   1.944   2.532   2.672 -0.4566 -0.4957 -1.6874
   84MOL0     H11046   1.831   2.289   2.541  0.3271 -0.9399  1.9770
   84MOL0     H11047   1.834   2.286   2.711  4.0883  1.4637  1.3510
   84MOL0     H11048   1.623   2.370   2.639 -0.0122  0.0164 -2.5767
   84MOL0     H11049   1.697   2.497   2.537  1.7048  1.3320  0.7766
   84MOL0     H11050   1.678   2.752   2.868 -0.0014 -0.3359 -0.5895
   84MOL0     H11051   1.474   2.889   2.901  0.9994 -0.6600  0.8191
   84MOL0     H11052   1.119   2.970   3.111 -2.2080 -0.3883  0.9657
   84MOL0     H11053   0.880   3.094   3.157  1.6285  1.5959  0.8788
   84MOL0     H11054   0.674   3.080   2.839  2.4237  1.2364 -2.2018
   84MOL0     H11055   0.657   3.243   2.793 -2.6144 -4.1874 -3.5460
   84MOL0     H11056   0.457   3.108   2.869  2.3561 -0.8712 -1.1410
   84MOL0     H11057   0.477   3.273   2.903 -2.8725 -1.3056 -0.3498
   84MOL0     H11058   0.554   3.223   3.137  1.2652 -1.6895  0.3077
   84MOL0     H11059   0.531   3.043   3.107 -1.6127 -0.9776 -2.7915
   84MOL0     H11060   0.288   3.073   3.096 -3.7715  0.5957  3.1126
   84MOL0     H11061   0.361   3.138   3.239 -2.1366  1.1690  1.4159
   84MOL0     H11062   0.182   3.274   3.160 -1.1742  0.6277 -2.8483
   84MOL0     H11063   0.246   3.303   3.010 -3.6212  0.5867  0.3272
   84MOL0     H11064   0.443   3.434   3.111  0.9990 -0.9020  1.4795
   84MOL0     H11065   0.369   3.408   3.277 -1.0269 -2.1778  1.0656
   84MOL0     H11066   0.341   3.626   3.121 -1.2927  1.2727  2.3019
   84MOL0     H11067   0.211   3.521   3.054 -2.0070 -3.6593  2.2403
   84MOL0     H11068   0.261   3.597   3.344 -0.2356  0.7185  0.3388
   84MOL0     H11069   0.129   3.493   3.285  0.3680  0.5890  0.7784
   84MOL0     H11070   0.896   3.222   2.762  0.8607  1.7104 -0.0685
   84MOL0     H11071   1.100   3.103   2.711  2.6353 -2.3445  0.5499
   84MOL0     H11072   1.250   2.616   2.653  2.1737  0.0248 -2.5783
   84MOL0     H11073   1.455   2.472   2.648  3.0709  0.1752 -1.4096
   84MOL0     H11074   3.538   2.519   2.854  0.6736 -1.0534  2.5663
   84MOL0     H11075   3.785   2.611   2.862 -1.0483 -1.0521 -1.9942
   84MOL0     H11076   4.071   2.842   2.757 -1.8156  1.0929  1.4450
   84MOL0     H11077   4.292   2.856   2.721 -0.6873  1.5949  0.0937
   84MOL0     H11078   4.549   2.879   3.081  0.6876 -1.1520 -0.6811
   84MOL0     H11079   4.537   3.034   3.000  0.2905  0.5631 -0.9207
   84MOL0     H11080   4.730   2.817   2.900 -0.7810 -0.3651 -1.2538
   84MOL0     H11081   4.734   2.989   2.866 -0.6719 -0.9457  0.1931
   84MOL0     H11082   4.776   2.875   3.149  0.8442  1.0252  1.3213
   84MOL0     H11083   4.792   3.045   3.104  0.5660 -0.5238  1.5429
   84MOL0     H11084   4.951   2.809   2.983 -0.6322  1.4237 -2.1327
   84MOL0     H11085   4.969   2.980   2.946 -3.2553  1.9880 -0.3806
   84MOL0     H11086   5.202   2.930   3.301 -0.7085 -1.0128 -0.9755
   84MOL0     H11087   4.371   2.862   3.145 -1.2218 -0.3096  1.4843
   84MOL0     H11088   4.146   2.837   3.187  2.1160 -1.3233 -0.3355
   85MOL0     O11089   6.394   8.355   4.964  0.4890 -0.0709  0.1270
   85MOL0     C11090   6.385   8.354   5.088 -0.0782  0.0256 -0.0786
   85MOL0     O11091   6.261   8.360   5.151  0.2900 -0.7912 -0.1174
   85MOL0     C11092   6.153   8.370   5.066 -0.7159 -0.5184 -0.2008
   85MOL0     C11093   6.097   8.499   5.042 -0.3481  0.3620  0.3031
   85MOL0     C11094   5.992   8.504   4.950  0.0335 -0.3153  0.0459
   85MOL0     C11095   5.941   8.387   4.892  1.0650  0.4856  0.6507
   85MOL0     O11096   5.841   8.376   4.799  0.0207 -0.3606 -0.6719
   85MOL0     C11097   5.762   8.487   4.767 -0.1356 -0.5721 -0.1072
   85MOL0     C11098   5.666   8.504   4.883  0.1144  0.0769  0.1277
   85MOL0     C11099   5.529   8.438   4.830  0.3473 -0.4936  0.0152
   85MOL0     C11100   5.544   8.292   4.788  0.4110 -0.2540  0.1348
   85MOL0     C11101   5.425   8.213   4.727  1.2174 -0.6308 -0.8877
   85MOL0     C11102   5.436   8.059   4.718 -0.0195 -0.1549 -0.1694
   85MOL0     C11103   5.295   8.015   4.696 -0.5407  0.1323  0.6205
   85MOL0     C11104   5.283   7.862   4.677  0.4667 -0.1955 -0.4853
   85MOL0     N11105   5.147   7.808   4.676 -0.3972  0.2585 -0.2427
   85MOL0     C11106   5.037   7.885   4.650  0.1544 -0.5443 -0.5201
   85MOL0     C11107   4.942   7.804   4.604 -1.4676  0.2643 -0.1841
   85MOL0     C11108   4.818   7.848   4.530 -0.1197 -0.4692  0.2637
   85MOL0     C11109   4.694   7.757   4.555 -0.1634 -0.5533 -0.3158
   85MOL0     C11110   4.583   7.817   4.471  0.7014  0.6230 -0.6744
   85MOL0     C11111   4.450   7.759   4.515 -0.1327  0.4642 -0.7105
   85MOL0     O11112   4.362   7.794   4.410  0.0882 -0.7036 -0.5335
   85MOL0     C11113   4.234   7.737   4.408 -0.9106  0.3762 -0.9319
   85MOL0     C11114   4.158   7.729   4.304 -0.2189  0.2534 -0.1718
   85MOL0     C11115   4.038   7.664   4.298 -0.8004  0.9022  0.0104
   85MOL0     C11116   3.973   7.615   4.414 -0.5097  0.1895 -0.0904
   85MOL0     C11117   3.850   7.543   4.414 -0.7048  1.2464 -0.8402
   85MOL0     O11118   3.787   7.539   4.289 -0.8049  0.7321  0.8026
   85MOL0     C11119   3.672   7.462   4.247  0.1387 -0.3607  0.9805
   85MOL0     C11120   3.642   7.451   4.113 -0.3021 -0.3077  0.1501
   85MOL0     C11121   3.524   7.386   4.066 -0.2183  0.2718  0.3946
   85MOL0     C11122   3.442   7.331   4.161 -0.3104  0.0928 -0.0363
   85MOL0     O11123   3.327   7.263   4.133  0.1775 -0.4201  0.3005
   85MOL0     C11124   3.286   7.241   3.994 -0.2807 -0.1718 -0.2971
   85MOL0     C11125   3.187   7.132   3.990 -0.4979  0.7412  0.3075
   85MOL0     C11126   3.054   7.176   4.050  0.1729 -0.3473 -1.0578
   85MOL0     C11127   2.945   7.072   4.025 -0.8558 -0.1841  0.0208
   85MOL0     C11128   2.813   7.113   4.079  0.4836  0.3172 -1.0351
   85MOL0     C11129   2.702   7.013   4.031  0.5046 -0.5897  0.8695
   85MOL0     C11130   2.578   7.032   4.112  0.3667  0.9543 -0.0111
   85MOL0     C11131   2.460   6.944   4.060  0.1704  0.0778  1.4393
   85MOL0    Cl11132   2.338   6.936   4.200  0.1283 -0.2044  0.3855
   85MOL0     C11133   3.475   7.334   4.296 -1.0420  0.0603  1.0970
   85MOL0     C11134   3.586   7.407   4.340 -0.1220 -0.0649  0.4259
   85MOL0     O11135   3.813   7.483   4.515  0.2317  0.7189 -0.5743
   85MOL0     C11136   4.052   7.626   4.529 -0.1596 -0.2950  0.7355
   85MOL0     C11137   4.182   7.687   4.525  0.2207 -0.3360 -0.2141
   85MOL0     N11138   4.986   7.668   4.621  0.0342  0.0794  0.7613
   85MOL0     N11139   5.110   7.676   4.669 -0.6026  0.1067 -0.1153
   85MOL0     C11140   5.992   8.264   4.920 -0.6059 -0.1185 -0.7673
   85MOL0     C11141   6.097   8.258   5.017  0.3393  0.3288 -0.0250
   85MOL0     C11142   6.501   8.332   5.176 -0.1334  0.6347 -0.0137
   85MOL0     C11143   6.627   8.291   5.123 -0.7406 -0.0910 -0.5989
   85MOL0     C11144   6.746   8.299   5.203 -0.4710 -0.1369 -0.7680
   85MOL0     C11145   6.739   8.354   5.336  0.4506  0.2258 -0.7565
   85MOL0     O11146   6.846   8.336   5.412 -0.0243  0.0159  0.2474
   85MOL0     C11147   6.855   8.413   5.528 -0.3693  0.9312 -0.6257
   85MOL0     C11148   6.998   8.404   5.575  0.2452  1.2702 -0.5375
   85MOL0     C11149   7.095   8.405   5.462 -1.2828 -0.2983  0.5481
   85MOL0     C11150   7.230   8.454   5.501  0.5965  0.1045 -0.0257
   85MOL0     C11151   7.337   8.452   5.396  0.2031 -0.0939 -0.8906
   85MOL0     C11152   7.434   8.441   5.324  0.0932  0.0948  0.5148
   85MOL0     C11153   6.615   8.373   5.389  0.1183  0.2755 -0.6762
   85MOL0     C11154   6.493   8.366   5.318 -0.4677  0.8161  0.2470
   85MOL0     H11155   6.137   8.585   5.096  3.1971 -1.2400  0.5230
   85MOL0     H11156   5.958   8.601   4.916  0.3091  1.7504  4.8341
   85MOL0     H11157   5.717   8.476   4.668  2.2993 -3.4994 -1.0628
   85MOL0     H11158   5.821   8.579   4.763 -1.3285  0.2431  0.4382
   85MOL0     H11159   5.654   8.605   4.921  1.0427  0.4726 -0.5708
   85MOL0     H11160   5.687   8.444   4.973  2.3917  1.8060  0.8436
   85MOL0     H11161   5.502   8.496   4.741  1.5327  0.5207  0.2793
   85MOL0     H11162   5.453   8.436   4.909 -1.2143  0.2586 -1.4094
   85MOL0     H11163   5.612   8.291   4.702  0.0010  1.2744 -0.2370
   85MOL0     H11164   5.592   8.238   4.871  1.3008 -0.8415 -0.7388
   85MOL0     H11165   5.407   8.265   4.633 -2.8568  1.5762  0.8419
   85MOL0     H11166   5.341   8.235   4.794  2.1310  0.3114 -0.0173
   85MOL0     H11167   5.477   8.013   4.808 -0.6878  0.9253  0.7212
   85MOL0     H11168   5.493   8.036   4.628 -1.0799 -2.0415 -0.4218
   85MOL0     H11169   5.222   8.046   4.771 -0.2159  0.8510  0.6364
   85MOL0     H11170   5.261   8.062   4.603  0.0483 -2.1213 -0.8288
   85MOL0     H11171   5.340   7.808   4.752 -0.8493  0.5282  1.1015
   85MOL0     H11172   5.304   7.844   4.571 -2.4001  2.2417 -1.6421
   85MOL0     H11173   5.042   7.993   4.646 -1.7447 -0.3040  1.4793
   85MOL0     H11174   4.835   7.851   4.422  0.6191 -0.5852  0.3714
   85MOL0     H11175   4.790   7.949   4.562  1.2323 -0.1821  0.5730
   85MOL0     H11176   4.681   7.760   4.663  3.8524  1.1848  0.2915
   85MOL0     H11177   4.725   7.657   4.523  2.2476  0.0476 -0.0815
   85MOL0     H11178   4.572   7.924   4.495  0.5252  0.2414  1.0827
   85MOL0     H11179   4.607   7.800   4.366  1.1603  2.7715 -0.9744
   85MOL0     H11180   4.412   7.809   4.605 -1.5275  0.1726 -1.1066
   85MOL0     H11181   4.460   7.652   4.531 -1.0785  0.0678 -2.4604
   85MOL0     H11182   4.203   7.757   4.209  3.5508 -0.7893  1.1164
   85MOL0     H11183   3.992   7.653   4.200 -0.9963  2.8311 -0.1507
   85MOL0     H11184   3.709   7.480   4.032  1.0927 -2.0124  0.6077
   85MOL0     H11185   3.502   7.379   3.960  1.9066 -0.4380 -0.0417
   85MOL0     H11186   3.369   7.201   3.935 -2.7684 -3.5228 -1.8482
   85MOL0     H11187   3.238   7.333   3.958 -2.5680 -1.6726 -1.3273
   85MOL0     H11188   3.225   7.044   4.044  0.1953  0.4985 -0.5405
   85MOL0     H11189   3.178   7.104   3.884  3.3483  0.0937 -0.0043
   85MOL0     H11190   3.026   7.267   3.997  1.6485  0.7530 -0.0221
   85MOL0     H11191   3.056   7.195   4.158 -0.1522 -1.3165 -0.8720
   85MOL0     H11192   2.930   7.058   3.918 -2.5258 -0.5386  0.2792
   85MOL0     H11193   2.968   6.978   4.075 -1.4373 -0.0410  0.5757
   85MOL0     H11194   2.791   7.218   4.056  0.0447  1.3231  3.0999
   85MOL0     H11195   2.816   7.123   4.188  1.4376  1.3719 -1.1420
   85MOL0     H11196   2.729   6.910   4.055  0.9528 -1.0574 -1.3345
   85MOL0     H11197   2.691   7.030   3.923  0.8702 -0.9360  0.7727
   85MOL0     H11198   2.615   6.997   4.209  2.2162  0.4830 -0.8409
   85MOL0     H11199   2.533   7.131   4.105 -2.0280 -0.0134  0.5417
   85MOL0     H11200   2.494   6.842   4.039 -0.5395  0.3297 -1.4427
   85MOL0     H11201   2.432   6.996   3.968 -0.2049 -1.3509  0.7129
   85MOL0     H11202   3.419   7.284   4.374  0.7007 -1.8947  1.1764
   85MOL0     H11203   3.609   7.419   4.446  2.9337 -0.9231 -0.0546
   85MOL0     H11204   4.004   7.584   4.617 -0.4929 -1.2054  0.1449
   85MOL0     H11205   4.225   7.686   4.624 -0.4541 -0.9514  0.0794
   85MOL0     H11206   5.972   8.166   4.876  2.9844 -0.9291 -0.9179
   85MOL0     H11207   6.160   8.175   5.048 -0.8664 -0.3320  0.7598
   85MOL0     H11208   6.638   8.253   5.022  0.7889 -0.0240 -0.4863
   85MOL0     H11209   6.841   8.261   5.169 -1.1618 -2.3383 -0.3684
   85MOL0     H11210   6.787   8.391   5.610  0.6035 -0.5178 -0.1620
   85MOL0     H11211   6.838   8.517   5.500  0.5429  0.9363 -1.2146
   85MOL0     H11212   7.026   8.480   5.649  0.0997  0.5547  0.2703
   85MOL0     H11213   7.006   8.314   5.636 -1.8773  2.3297  1.4795
   85MOL0     H11214   7.063   8.476   5.386  0.8506 -0.9674 -1.0655
   85MOL0     H11215   7.104   8.307   5.415  1.9964  1.2198 -2.3997
   85MOL0     H11216   7.214   8.558   5.528  0.6793 -0.2748  1.5502
   85MOL0     H11217   7.266   8.403   5.591 -0.1019  0.4460  0.4562
   85MOL0     H11218   7.508   8.446   5.246  0.7538 -2.7294  0.8638
   85MOL0     H11219   6.613   8.402   5.494 -3.4619 -1.1026 -0.2120
   85MOL0     H11220   6.402   8.410   5.357 -0.1041  1.7722  0.0509
   86MOL0     O11221   3.905  10.725   6.388  0.1180 -0.2160 -0.2637
   86MOL0     C11222   3.897  10.849   6.391  0.0189 -0.3425 -0.9495
   86MOL0     O11223   3.799  10.918   6.453  0.0525 -0.9780  0.0334
   86MOL0     C11224   3.699  10.847   6.513  0.0195  0.4423  0.1520
   86MOL0     C11225   3.709  10.771   6.633  0.4061  0.4671  0.4905
   86MOL0     C11226   3.602  10.703   6.692  0.0214  1.6015  0.4301
   86MOL0     C11227   3.476  10.699   6.621  0.4029 -0.2237  1.0224
   86MOL0     O11228   3.368  10.624   6.669 -0.4308 -0.0064 -0.3412
   86MOL0     C11229   3.369  10.517   6.771 -0.1186 -0.1542  0.4220
   86MOL0     C11230   3.238  10.460   6.826  1.3096  0.2578  0.0516
   86MOL0     C11231   3.133  10.461   6.713  0.4266 -0.5514 -0.2174
   86MOL0     C11232   3.005  10.410   6.771  0.4298 -0.3936 -0.9604
   86MOL0     C11233   2.930  10.495   6.872 -0.6990  0.6666  0.6738
   86MOL0     C11234   2.878  10.628   6.821 -0.4352  0.3056  0.6327
   86MOL0     C11235   2.820  10.714   6.935 -0.3533  0.3650  0.1313
   86MOL0     C11236   2.806  10.863   6.885  1.2957 -0.2132  0.1371
   86MOL0     N11237   2.704  10.878   6.779 -0.0158 -0.0794  0.0644
   86MOL0     C11238   2.567  10.884   6.799  0.4749  0.1846  0.7494
   86MOL0     C11239   2.522  10.937   6.678 -0.0972  0.0396  0.2423
   86MOL0     C11240   2.375  10.968   6.645 -0.1116 -0.3487 -0.7702
   86MOL0     C11241   2.290  11.021   6.772  0.9986 -0.2829 -0.1376
   86MOL0     C11242   2.152  11.072   6.728  0.0338 -0.4377  0.1743
   86MOL0     C11243   2.045  11.071   6.827  0.3729 -0.1239 -0.2411
   86MOL0     O11244   1.950  11.168   6.787  0.0517 -0.0481 -0.1574
   86MOL0     C11245   1.835  11.197   6.861 -0.1637  0.3656  1.0115
   86MOL0     C11246   1.743  11.293   6.810 -0.1569  0.5435 -0.5201
   86MOL0     C11247   1.637  11.340   6.888 -0.3509 -0.1550 -0.2655
   86MOL0     C11248   1.603  11.288   7.008  0.3272 -0.5685  0.5704
   86MOL0     C11249   1.490  11.344   7.079  0.4175  0.4070 -0.1072
   86MOL0     O11250   1.427  11.449   7.022 -0.2815 -0.4353  0.3517
   86MOL0     C11251   1.305  11.493   7.057  0.3639 -0.9141 -0.0621
   86MOL0     C11252   1.213  11.435   7.145  1.0043 -0.7621  0.0246
   86MOL0     C11253   1.093  11.494   7.182  0.3720 -1.0236 -0.5585
   86MOL0     C11254   1.049  11.613   7.114 -0.0018  0.0581  0.5501
   86MOL0     O11255   0.922  11.665   7.145  0.7970 -0.0408 -0.4845
   86MOL0     C11256   0.846  11.718   7.038 -0.2644 -0.3144  0.6721
   86MOL0     C11257   0.706  11.763   7.060  0.0186  0.6817  0.5506
   86MOL0     C11258   0.596  11.655   7.116 -1.1703  0.1112 -0.6065
   86MOL0     C11259   0.452  11.713   7.119 -1.1712  0.2948 -0.0098
   86MOL0     C11260   0.355  11.640   7.212  0.4916 -0.3332  0.1694
   86MOL0     C11261   0.349  11.485   7.162  0.6949  0.6059 -0.1218
   86MOL0     C11262   0.225  11.426   7.233 -0.5904  0.1865  0.1542
   86MOL0     C11263   0.220  11.275   7.230 -0.7851  0.0848 -0.1767
   86MOL0    Cl11264   0.085  11.217   7.343  0.6159 -0.1494  0.7522
   86MOL0     C11265   1.145  11.675   7.021  0.2468  0.0838  0.1347
   86MOL0     C11266   1.272  11.612   6.996  0.6275 -0.0002 -0.0490
   86MOL0     O11267   1.456  11.279   7.181 -0.2864  0.5709 -0.4599
   86MOL0     C11268   1.697  11.196   7.066  0.3775 -0.6044  0.4531
   86MOL0     C11269   1.804  11.152   6.988 -0.0684  0.0866 -0.5209
   86MOL0     N11270   2.624  10.962   6.590 -0.4827  0.2441  0.6305
   86MOL0     N11271   2.730  10.938   6.660 -0.3891 -0.8841  0.1747
   86MOL0     C11272   3.465  10.774   6.499 -0.0419 -0.9780 -0.1080
   86MOL0     C11273   3.578  10.838   6.448  0.2515 -0.6361 -0.9264
   86MOL0     C11274   4.024  10.934   6.363  0.5875 -0.4775 -0.7278
   86MOL0     C11275   4.149  10.875   6.347  0.6946 -0.8813  0.2372
   86MOL0     C11276   4.255  10.956   6.326 -0.3506 -0.2472  0.2946
   86MOL0     C11277   4.243  11.091   6.309  0.2179 -0.6247 -0.3443
   86MOL0     O11278   4.339  11.178   6.301  0.0769 -0.2959 -0.1375
   86MOL0     C11279   4.470  11.128   6.279  0.0019 -0.2866 -0.5318
   86MOL0     C11280   4.571  11.235   6.261  0.1386  0.5096 -0.8708
   86MOL0     C11281   4.709  11.182   6.266  0.4163 -0.0923  0.8940
   86MOL0     C11282   4.817  11.287   6.249 -0.3323  1.0671  0.0109
   86MOL0     C11283   4.949  11.242   6.299  0.5640  0.1854 -0.5140
   86MOL0     C11284   5.066  11.207   6.337  0.5272  0.2202  0.5736
   86MOL0     C11285   4.118  11.150   6.318 -0.4542  0.1203  0.0430
   86MOL0     C11286   4.004  11.072   6.352 -0.4979 -0.5143  0.8959
   86MOL0     H11287   3.813  10.765   6.663  2.0705 -2.3246 -4.5602
   86MOL0     H11288   3.637  10.652   6.781  3.1203  0.6900 -1.1469
   86MOL0     H11289   3.411  10.567   6.859  0.9112 -0.6396  0.2222
   86MOL0     H11290   3.439  10.434   6.756 -1.4973 -0.9727 -1.8517
   86MOL0     H11291   3.210  10.516   6.915  0.4889 -2.0946  1.3369
   86MOL0     H11292   3.242  10.355   6.855 -1.7603 -0.6496 -2.1629
   86MOL0     H11293   3.157  10.394   6.630  0.5464 -4.2887  2.6119
   86MOL0     H11294   3.121  10.567   6.686 -0.0446 -0.6714 -0.4727
   86MOL0     H11295   2.928  10.395   6.695 -5.1067  2.1452  3.3766
   86MOL0     H11296   3.019  10.313   6.821  2.7796  1.7992  3.1998
   86MOL0     H11297   2.994  10.500   6.960  0.1127  0.4872  0.1030
   86MOL0     H11298   2.843  10.443   6.912 -1.0844  1.1580  0.4931
   86MOL0     H11299   2.806  10.607   6.742 -2.2801  0.3583  2.2196
   86MOL0     H11300   2.961  10.673   6.765 -0.1188  0.3357  1.1132
   86MOL0     H11301   2.731  10.670   6.980 -0.7552 -0.7080 -1.6160
   86MOL0     H11302   2.894  10.717   7.016 -0.1588 -0.9842  0.0246
   86MOL0     H11303   2.894  10.912   6.841 -0.1220 -1.4957 -4.8336
   86MOL0     H11304   2.776  10.928   6.967  0.9760  2.2205 -1.8187
   86MOL0     H11305   2.508  10.856   6.886  0.2426  1.3330  0.9699
   86MOL0     H11306   2.335  10.886   6.586  0.3381 -0.4741 -0.8991
   86MOL0     H11307   2.375  11.046   6.568  2.0188 -0.7672 -1.2566
   86MOL0     H11308   2.340  11.102   6.826 -1.0416  1.5530 -0.8328
   86MOL0     H11309   2.268  10.939   6.841 -2.4296  1.8538  1.6102
   86MOL0     H11310   2.171  11.174   6.693 -1.2330 -0.4661 -0.6673
   86MOL0     H11311   2.116  11.018   6.640  0.3283 -2.3020  1.1526
   86MOL0     H11312   2.092  11.094   6.923  0.0698  3.2411 -0.7905
   86MOL0     H11313   2.000  10.972   6.834  0.0320  0.1643  3.3781
   86MOL0     H11314   1.759  11.339   6.714 -5.0282  0.6240 -1.5573
   86MOL0     H11315   1.577  11.419   6.846  0.7768  0.1671 -1.3129
   86MOL0     H11316   1.236  11.336   7.183  0.4077 -0.3846  1.4101
   86MOL0     H11317   1.032  11.432   7.246 -1.6061  0.1534 -1.2315
   86MOL0     H11318   0.842  11.651   6.951 -0.1952  1.0438 -0.4041
   86MOL0     H11319   0.897  11.809   7.006 -1.3575  0.0188 -0.2007
   86MOL0     H11320   0.666  11.816   6.973 -0.9110 -1.1105 -0.1752
   86MOL0     H11321   0.709  11.834   7.142 -1.0509  0.7521  0.5519
   86MOL0     H11322   0.630  11.621   7.215  1.1727  2.9635 -0.2839
   86MOL0     H11323   0.587  11.567   7.052 -0.6895  0.1192 -0.6850
   86MOL0     H11324   0.443  11.820   7.141 -1.3322  0.0465  1.2181
   86MOL0     H11325   0.423  11.711   7.014 -2.3052 -2.3260  0.2660
   86MOL0     H11326   0.254  11.681   7.209  1.0648  1.1320 -0.2371
   86MOL0     H11327   0.392  11.645   7.315 -1.1091 -1.5868  0.8407
   86MOL0     H11328   0.441  11.437   7.196  1.4529  1.4457 -0.9251
   86MOL0     H11329   0.348  11.474   7.053  1.0539 -3.4596  0.1363
   86MOL0     H11330   0.222  11.457   7.338 -3.9457  0.4273  0.0753
   86MOL0     H11331   0.129  11.447   7.186 -1.2548 -1.7200  0.5570
   86MOL0     H11332   0.316  11.230   7.255 -0.5773  0.5567 -0.1097
   86MOL0     H11333   0.213  11.238   7.127 -1.4656 -2.1092  0.6156
   86MOL0     H11334   1.121  11.772   6.977 -0.0964 -0.3081 -0.5431
   86MOL0     H11335   1.340  11.666   6.930  0.1873 -0.3270 -0.7849
   86MOL0     H11336   1.679  11.147   7.161 -1.9977 -0.5052  0.1141
   86MOL0     H11337   1.877  11.082   7.028  0.9821  1.1780 -0.4472
   86MOL0     H11338   3.369  10.784   6.451  0.5619  1.5993 -0.8960
   86MOL0     H11339   3.556  10.881   6.351 -1.5517 -0.1246 -0.3354
   86MOL0     H11340   4.160  10.767   6.353 -2.0749 -1.2772 -0.6745
   86MOL0     H11341   4.352  10.908   6.317 -0.3157 -0.4992  1.8643
   86MOL0     H11342   4.480  11.064   6.191 -0.6886  1.1604 -1.7179
   86MOL0     H11343   4.488  11.064   6.366  1.2875  2.0620  1.0297
   86MOL0     H11344   4.553  11.289   6.168 -0.5424  1.3964 -0.2518
   86MOL0     H11345   4.555  11.298   6.349  3.2464  1.2870 -0.7295
   86MOL0     H11346   4.719  11.104   6.189 -0.2014  0.0100  0.7057
   86MOL0     H11347   4.721  11.127   6.360 -1.7281 -3.7919 -0.7564
   86MOL0     H11348   4.837  11.314   6.145  0.1343 -3.6123 -1.3438
   86MOL0     H11349   4.779  11.371   6.309 -0.6686  0.1087  1.1717
   86MOL0     H11350   5.148  11.176   6.399 -1.0086 -0.1454  2.5564
   86MOL0     H11351   4.103  11.256   6.300 -3.0416 -0.1132  0.4797
   86MOL0     H11352   3.908  11.118   6.370 -0.1584  0.9087 -0.7012
   87MOL0     O11353   6.612   7.931   0.575  0.1307  0.4627 -0.3054
   87MOL0     C11354   6.566   8.036   0.615  0.4434  0.3307 -0.3733
   87MOL0     O11355   6.463   8.045   0.700  1.0322 -0.0568  0.3084
   87MOL0     C11356   6.421   7.942   0.787 -0.4417 -0.6354 -0.4870
   87MOL0     C11357   6.286   7.914   0.795  0.4084 -1.1343 -0.3186
   87MOL0     C11358   6.234   7.806   0.868 -0.0171  0.3660 -0.4348
   87MOL0     C11359   6.317   7.727   0.950 -0.7328 -0.0176 -0.3057
   87MOL0     O11360   6.269   7.615   1.023 -0.5163 -0.3008 -0.3893
   87MOL0     C11361   6.175   7.521   0.961 -0.2394  0.6360  0.3444
   87MOL0     C11362   6.060   7.492   1.046  0.2532  0.8340  0.2745
   87MOL0     C11363   5.968   7.384   0.979 -0.1732 -0.5274 -0.5021
   87MOL0     C11364   6.030   7.244   0.954 -0.0469  0.0851  0.1941
   87MOL0     C11365   5.921   7.140   0.924 -0.2157  0.1814 -0.8414
   87MOL0     C11366   5.837   7.171   0.801 -0.1251 -0.3362 -1.0034
   87MOL0     C11367   5.729   7.066   0.767  0.5662  0.8903 -0.3388
   87MOL0     C11368   5.628   7.055   0.883 -0.1246  0.6470  0.4169
   87MOL0     N11369   5.535   6.950   0.851  1.1876  0.4825  0.0617
   87MOL0     C11370   5.515   6.826   0.915  0.0097 -0.4178  1.3677
   87MOL0     C11371   5.432   6.758   0.832 -0.0099  0.1611  0.3313
   87MOL0     C11372   5.379   6.615   0.861  0.3703 -0.2131 -0.0752
   87MOL0     C11373   5.224   6.639   0.864  0.0200  0.6676  0.1308
   87MOL0     C11374   5.143   6.520   0.927 -0.1672 -0.0398  0.0979
   87MOL0     C11375   4.987   6.526   0.925 -0.2401 -0.5178  0.2073
   87MOL0     O11376   4.967   6.594   0.805  0.1798  0.0841 -0.0107
   87MOL0     C11377   4.839   6.600   0.747  0.6562 -0.0525  0.4058
   87MOL0     C11378   4.728   6.579   0.822  0.0486 -0.9908  0.5616
   87MOL0     C11379   4.610   6.604   0.764 -0.0779  0.8904  0.4979
   87MOL0     C11380   4.593   6.641   0.630 -0.2466 -0.8799  0.4256
   87MOL0     C11381   4.466   6.635   0.560  0.6331  0.0547 -0.0100
   87MOL0     O11382   4.464   6.638   0.425 -0.0081  0.0429  0.0885
   87MOL0     C11383   4.335   6.639   0.368 -0.9521  0.3475  0.0130
   87MOL0     C11384   4.241   6.751   0.371 -0.5200  0.1228 -0.3051
   87MOL0     C11385   4.125   6.746   0.294 -0.1083 -0.2657 -0.5904
   87MOL0     C11386   4.096   6.628   0.221 -0.6280  0.1020 -0.5184
   87MOL0     O11387   3.989   6.604   0.141  0.1611  0.0642  0.4758
   87MOL0     C11388   3.920   6.709   0.077 -0.4682 -0.4091 -0.1186
   87MOL0     C11389   3.825   6.652  -0.036  0.3436 -0.8068  0.1290
   87MOL0     C11390   3.701   6.585   0.020 -0.8067 -0.2033 -0.2033
   87MOL0     C11391   3.616   6.547  -0.098  0.5994 -0.3350  1.5037
   87MOL0     C11392   3.480   6.513  -0.056 -0.7535  0.2022  0.3772
   87MOL0     C11393   3.375   6.506  -0.169 -0.4646  0.4303  0.1479
   87MOL0     C11394   3.410   6.420  -0.295  0.9651 -0.2847 -0.1330
   87MOL0     C11395   3.332   6.473  -0.414 -1.0294  0.1056  0.4717
   87MOL0    Cl11396   3.155   6.474  -0.370 -0.1126  0.1916 -0.1735
   87MOL0     C11397   4.174   6.520   0.227 -0.1374  0.1811 -0.0490
   87MOL0     C11398   4.293   6.521   0.297 -0.0209 -0.6420  0.4259
   87MOL0     O11399   4.365   6.628   0.634 -0.2652  0.4702 -0.1744
   87MOL0     C11400   4.713   6.655   0.555  0.2883 -0.3178 -0.1924
   87MOL0     C11401   4.832   6.636   0.613  0.0711  1.0114  0.1325
   87MOL0     N11402   5.395   6.833   0.719  0.0810  0.7075 -0.4696
   87MOL0     N11403   5.467   6.949   0.734  0.1739 -0.6040  0.5349
   87MOL0     C11404   6.450   7.760   0.951 -1.2316 -0.4337  0.9733
   87MOL0     C11405   6.510   7.864   0.865  0.2505 -0.6621 -0.1802
   87MOL0     C11406   6.627   8.155   0.566 -0.6098  0.4432  0.7948
   87MOL0     C11407   6.731   8.157   0.469 -0.1390 -0.3503 -0.8794
   87MOL0     C11408   6.781   8.280   0.433  0.0798  0.4884 -0.1847
   87MOL0     C11409   6.749   8.401   0.496 -0.6994  0.1654  0.4619
   87MOL0     O11410   6.823   8.504   0.442  0.4738 -0.4102 -0.5022
   87MOL0     C11411   6.787   8.632   0.473  0.8708 -0.2515  0.0169
   87MOL0     C11412   6.835   8.730   0.362 -0.9646 -0.2742  0.3690
   87MOL0     C11413   6.967   8.682   0.299  0.6731  0.1505  0.1861
   87MOL0     C11414   7.015   8.771   0.190 -0.0467  0.1891  0.1802
   87MOL0     C11415   7.137   8.728   0.134 -0.1326  0.3607 -0.1384
   87MOL0     C11416   7.236   8.689   0.080 -0.4263 -0.1393  1.1953
   87MOL0     C11417   6.662   8.397   0.601  0.1486  0.1203  0.1243
   87MOL0     C11418   6.605   8.275   0.639 -0.0822 -0.4098 -0.5062
   87MOL0     H11419   6.226   7.979   0.733 -1.2920 -1.6522  0.7024
   87MOL0     H11420   6.126   7.794   0.871  0.0459 -0.0326  0.4162
   87MOL0     H11421   6.232   7.430   0.940  0.0385  1.1625 -1.3853
   87MOL0     H11422   6.134   7.558   0.866 -1.6734  4.5212  2.2402
   87MOL0     H11423   6.006   7.586   1.059 -2.2941 -0.7387  1.9621
   87MOL0     H11424   6.100   7.447   1.137  2.4727  2.9401  0.4171
   87MOL0     H11425   5.936   7.430   0.885 -0.1597  1.4519  0.4141
   87MOL0     H11426   5.875   7.373   1.036  0.2060 -0.1373  0.1997
   87MOL0     H11427   6.104   7.247   0.874 -0.4678 -1.5474 -0.2900
   87MOL0     H11428   6.081   7.212   1.045 -3.0632 -2.1284  1.2846
   87MOL0     H11429   5.857   7.133   1.012  0.1869 -2.0602 -0.6610
   87MOL0     H11430   5.964   7.040   0.910 -0.8635 -1.2857  5.0030
   87MOL0     H11431   5.899   7.190   0.713  1.0342  1.4763  0.1527
   87MOL0     H11432   5.784   7.265   0.819 -0.2076 -0.7966  1.5467
   87MOL0     H11433   5.672   7.111   0.685  0.0971  3.6370  1.3398
   87MOL0     H11434   5.766   6.966   0.743 -1.6185  0.1936 -1.0503
   87MOL0     H11435   5.569   7.143   0.909 -1.8724 -0.6164  0.8728
   87MOL0     H11436   5.685   7.031   0.974 -1.9369 -0.4107  1.3298
   87MOL0     H11437   5.556   6.785   1.006 -0.8090 -5.5858 -0.2913
   87MOL0     H11438   5.408   6.575   0.959 -1.5827 -0.0252  0.6205
   87MOL0     H11439   5.394   6.547   0.776 -1.5222 -1.0458  0.1996
   87MOL0     H11440   5.196   6.657   0.760  0.4770 -1.8213 -0.4715
   87MOL0     H11441   5.192   6.728   0.920  0.7688  0.8581  0.2660
   87MOL0     H11442   5.166   6.434   0.863 -3.4761 -0.2636 -1.0165
   87MOL0     H11443   5.175   6.507   1.031  0.0389  1.6236  0.2640
   87MOL0     H11444   4.951   6.581   1.012  0.0907 -0.4662  0.3139
   87MOL0     H11445   4.946   6.425   0.920 -1.3369 -0.0957  0.3716
   87MOL0     H11446   4.732   6.543   0.924  2.7760  1.1879  1.3487
   87MOL0     H11447   4.519   6.593   0.823  0.0738  0.2203  0.6159
   87MOL0     H11448   4.268   6.841   0.427 -2.6310 -0.7028  2.2895
   87MOL0     H11449   4.070   6.839   0.290 -0.0251 -0.1210  0.9526
   87MOL0     H11450   3.988   6.777   0.028 -1.7448  0.4727 -0.7243
   87MOL0     H11451   3.877   6.764   0.161 -2.8766 -4.6581  1.7828
   87MOL0     H11452   3.875   6.579  -0.099 -1.5473 -2.3318  0.3011
   87MOL0     H11453   3.796   6.732  -0.105  5.3749  0.3810 -0.9610
   87MOL0     H11454   3.642   6.648   0.088 -0.6668  2.5064 -2.4382
   87MOL0     H11455   3.732   6.490   0.064 -1.0236 -0.3363 -0.3373
   87MOL0     H11456   3.608   6.629  -0.170 -0.2996 -0.9450  0.8822
   87MOL0     H11457   3.661   6.464  -0.154  0.9896 -0.7793  2.4411
   87MOL0     H11458   3.439   6.576   0.022  1.3532  0.4978  1.3253
   87MOL0     H11459   3.487   6.413  -0.012 -1.2581  0.4147  0.9433
   87MOL0     H11460   3.359   6.611  -0.197  0.5703  0.0146 -2.2466
   87MOL0     H11461   3.285   6.476  -0.115 -1.0193  1.6562 -0.0514
   87MOL0     H11462   3.517   6.414  -0.317  1.3153 -1.3235  1.6236
   87MOL0     H11463   3.384   6.314  -0.288  1.1036 -0.4963 -2.1245
   87MOL0     H11464   3.352   6.401  -0.494 -2.0624 -2.7165  2.5667
   87MOL0     H11465   3.381   6.570  -0.418  1.1049 -0.9518 -1.8337
   87MOL0     H11466   4.146   6.423   0.188 -0.1448  0.9925 -2.2670
   87MOL0     H11467   4.355   6.432   0.294 -1.4695 -1.6338 -0.8781
   87MOL0     H11468   4.699   6.667   0.448  2.2633 -3.3087 -0.9197
   87MOL0     H11469   4.930   6.630   0.568  1.8339  1.3240  3.6452
   87MOL0     H11470   6.518   7.715   1.022  1.1199  0.2010 -0.7267
   87MOL0     H11471   6.617   7.883   0.864 -0.1222  1.6854 -1.2822
   87MOL0     H11472   6.765   8.071   0.413  1.9279  1.6758 -3.0093
   87MOL0     H11473   6.851   8.282   0.350  2.5494 -2.0420  1.6372
   87MOL0     H11474   6.827   8.660   0.571  2.0450 -0.1763 -0.4561
   87MOL0     H11475   6.679   8.641   0.478  0.7633  3.5759 -3.5058
   87MOL0     H11476   6.764   8.721   0.279  1.4038 -2.1843 -1.6065
   87MOL0     H11477   6.847   8.830   0.404  2.0220 -0.3629 -0.0324
   87MOL0     H11478   6.946   8.588   0.248  1.6859 -0.3565  0.6685
   87MOL0     H11479   7.036   8.667   0.383 -0.2356 -1.0494  0.7349
   87MOL0     H11480   6.942   8.768   0.109  3.1467 -1.2795 -2.9888
   87MOL0     H11481   7.034   8.871   0.230  2.2577 -0.9424  2.2119
   87MOL0     H11482   7.322   8.653   0.028 -1.3804  1.6677 -1.8815
   87MOL0     H11483   6.649   8.493   0.651  0.3314 -0.6878  1.8240
   87MOL0     H11484   6.543   8.271   0.728 -0.2029 -0.9510 -0.6080
   88MOL0     O11485   6.922   9.468   8.901  0.2257 -0.2012  0.4769
   88MOL0     C11486   6.952   9.384   8.816 -0.4972  0.0560  1.3006
   88MOL0     O11487   6.870   9.344   8.718 -0.1087 -0.6908  0.1751
   88MOL0     C11488   6.744   9.402   8.728 -0.2538 -0.5597  0.2085
   88MOL0     C11489   6.698   9.515   8.658  0.3196  0.5717  0.3700
   88MOL0     C11490   6.570   9.565   8.694  0.3909  0.1791 -1.1756
   88MOL0     C11491   6.486   9.503   8.791  0.1724  0.1053 -0.6147
   88MOL0     O11492   6.364   9.553   8.802  0.9766 -0.1727  0.5637
   88MOL0     C11493   6.262   9.468   8.856  0.6100 -0.4741 -0.6611
   88MOL0     C11494   6.118   9.532   8.841 -0.2481  0.3766  0.3231
   88MOL0     C11495   6.036   9.487   8.719 -0.5274  0.1000 -0.0500
   88MOL0     C11496   5.894   9.530   8.733 -0.5414 -0.7244  0.3583
   88MOL0     C11497   5.800   9.474   8.623 -0.2546 -1.1233 -0.0879
   88MOL0     C11498   5.655   9.466   8.680 -0.5801  0.3528  0.0201
   88MOL0     C11499   5.542   9.463   8.577 -1.4257  0.6088  0.0577
   88MOL0     C11500   5.411   9.467   8.661 -0.4849  0.0926  0.1497
   88MOL0     N11501   5.403   9.339   8.735 -0.0107  0.1523 -0.4489
   88MOL0     C11502   5.447   9.216   8.704  0.2176  0.2403 -0.1553
   88MOL0     C11503   5.451   9.142   8.810 -0.0039 -0.9928 -1.6785
   88MOL0     C11504   5.500   9.006   8.832 -0.0579  0.6738 -0.3958
   88MOL0     C11505   5.623   8.968   8.740 -0.6038  0.1951  0.6192
   88MOL0     C11506   5.754   9.044   8.774 -0.3884 -0.1097  0.4697
   88MOL0     C11507   5.865   8.982   8.689  0.1888 -0.1970  0.3959
   88MOL0     O11508   5.983   9.059   8.693  0.4098  0.0397 -1.0330
   88MOL0     C11509   6.105   9.002   8.695 -0.2346  0.3123  0.1087
   88MOL0     C11510   6.132   8.897   8.612 -0.0744  0.0683 -0.0137
   88MOL0     C11511   6.255   8.840   8.603 -0.0302 -0.2422  0.1251
   88MOL0     C11512   6.349   8.877   8.695 -0.3294  0.5808  0.4514
   88MOL0     C11513   6.482   8.812   8.684 -0.2204  0.4689  0.6674
   88MOL0     O11514   6.575   8.839   8.779 -0.1586  0.2461  0.1570
   88MOL0     C11515   6.683   8.749   8.774  0.0951 -0.1629 -0.2728
   88MOL0     C11516   6.670   8.614   8.801  0.2077  0.0370 -1.0745
   88MOL0     C11517   6.784   8.536   8.811  0.5434 -0.1099 -0.3587
   88MOL0     C11518   6.909   8.578   8.765 -0.6582  0.1125 -0.1795
   88MOL0     O11519   7.019   8.483   8.745 -0.1671 -0.3961  0.2831
   88MOL0     C11520   7.159   8.530   8.732  0.1997 -0.2541  0.7625
   88MOL0     C11521   7.217   8.562   8.864  0.8248  0.7698  0.4062
   88MOL0     C11522   7.362   8.612   8.859  0.5872 -0.9496 -1.1966
   88MOL0     C11523   7.458   8.517   8.797 -0.0396 -0.2215  0.7404
   88MOL0     C11524   7.602   8.561   8.814  0.0902 -0.0768 -0.1534
   88MOL0     C11525   7.653   8.680   8.736 -0.9585  0.3941  0.3992
   88MOL0     C11526   7.809   8.674   8.718 -0.4105  0.9575 -0.6875
   88MOL0     C11527   7.866   8.765   8.610 -0.4167 -0.4641  0.2283
   88MOL0    Cl11528   7.767   8.765   8.459  0.0817 -0.0287  0.3287
   88MOL0     C11529   6.914   8.714   8.735  0.9337  0.1604  0.6304
   88MOL0     C11530   6.809   8.800   8.746  0.3698 -0.0158  0.4350
   88MOL0     O11531   6.495   8.731   8.588  0.1828  0.2430  0.5717
   88MOL0     C11532   6.328   8.985   8.777 -0.3387  1.4016 -0.2797
   88MOL0     C11533   6.202   9.050   8.780  0.7238  0.4308 -0.7479
   88MOL0     N11534   5.386   9.213   8.909  0.3775  0.4467  0.0294
   88MOL0     N11535   5.363   9.330   8.864 -0.8884  0.6486 -0.3156
   88MOL0     C11536   6.534   9.396   8.858 -0.6587  0.2766 -0.5007
   88MOL0     C11537   6.664   9.350   8.823  0.2372  0.8873 -1.0802
   88MOL0     C11538   7.100   9.366   8.814  0.1985 -0.0097 -0.5388
   88MOL0     C11539   7.153   9.283   8.716  1.0231  0.8421  0.4598
   88MOL0     C11540   7.285   9.245   8.712  0.0921 -0.7280 -0.2195
   88MOL0     C11541   7.378   9.312   8.800 -0.0001 -0.2537 -0.5421
   88MOL0     O11542   7.517   9.288   8.807  0.5257 -0.3269 -0.1076
   88MOL0     C11543   7.576   9.298   8.672 -0.9704 -0.7799  0.2010
   88MOL0     C11544   7.724   9.336   8.701  0.4481  0.7301 -0.4468
   88MOL0     C11545   7.821   9.292   8.588  0.2705 -0.3390  0.0810
   88MOL0     C11546   7.855   9.149   8.590  0.4204  0.7235 -0.3072
   88MOL0     C11547   7.902   9.083   8.469  0.3119  0.7051  0.4811
   88MOL0     C11548   7.948   9.042   8.362 -0.8649 -0.6861 -0.4122
   88MOL0     C11549   7.325   9.398   8.905  0.5129 -0.1464 -0.3916
   88MOL0     C11550   7.187   9.418   8.913  0.3674  0.6068 -0.2796
   88MOL0     H11551   6.765   9.540   8.577 -0.9058 -3.6955 -2.2307
   88MOL0     H11552   6.538   9.648   8.631 -1.0931  0.0185 -0.6692
   88MOL0     H11553   6.277   9.447   8.962 -0.7482 -0.6173 -0.4783
   88MOL0     H11554   6.265   9.373   8.802  3.4667 -1.6909  1.3490
   88MOL0     H11555   6.124   9.641   8.837 -2.6412  0.7424  3.2875
   88MOL0     H11556   6.066   9.513   8.935  1.7910  2.8882  2.1090
   88MOL0     H11557   6.037   9.380   8.695 -2.5914  0.2104 -0.8178
   88MOL0     H11558   6.068   9.528   8.623 -0.7077 -0.8412 -0.5212
   88MOL0     H11559   5.863   9.486   8.828  0.5510 -1.1601  0.5219
   88MOL0     H11560   5.877   9.638   8.737  4.4652  0.3349 -0.0990
   88MOL0     H11561   5.835   9.379   8.581 -1.8695 -1.6934 -0.2388
   88MOL0     H11562   5.793   9.550   8.546 -0.8913 -1.3982 -0.3105
   88MOL0     H11563   5.641   9.557   8.739  0.5334  0.1579  0.6271
   88MOL0     H11564   5.658   9.380   8.749  0.2240 -1.1468 -1.7991
   88MOL0     H11565   5.540   9.555   8.517 -0.9918 -0.3956 -1.5550
   88MOL0     H11566   5.537   9.376   8.512  0.1584  0.7028 -0.2442
   88MOL0     H11567   5.330   9.464   8.587 -1.4721  1.4658  1.1433
   88MOL0     H11568   5.404   9.556   8.723 -0.2407 -0.6836  1.3164
   88MOL0     H11569   5.462   9.186   8.601  0.8919 -3.2229  0.8490
   88MOL0     H11570   5.412   8.942   8.822 -1.6281  2.9066 -1.5834
   88MOL0     H11571   5.549   9.008   8.930  2.0019  2.1050 -1.3740
   88MOL0     H11572   5.603   8.982   8.634  1.4434 -0.3047  0.1387
   88MOL0     H11573   5.647   8.862   8.750  1.2273  0.5983  0.7217
   88MOL0     H11574   5.756   9.152   8.762 -0.3613 -0.0749  0.7672
   88MOL0     H11575   5.777   9.037   8.881 -3.1407  3.5257  1.5128
   88MOL0     H11576   5.827   8.982   8.586  0.4989 -0.9996  0.2769
   88MOL0     H11577   5.886   8.879   8.721  0.5886  0.2664  1.6993
   88MOL0     H11578   6.061   8.867   8.535  2.1238 -0.5442 -1.9116
   88MOL0     H11579   6.268   8.762   8.529 -0.7888  1.8226 -2.3408
   88MOL0     H11580   6.573   8.568   8.817  1.3027 -1.7852  0.9010
   88MOL0     H11581   6.784   8.431   8.839 -0.9145 -1.5773 -5.0380
   88MOL0     H11582   7.175   8.602   8.651 -0.6159 -3.1945 -2.2617
   88MOL0     H11583   7.219   8.443   8.702  0.2112 -0.0341  0.1394
   88MOL0     H11584   7.209   8.476   8.931  2.1956 -0.1952 -0.6167
   88MOL0     H11585   7.160   8.640   8.915 -1.6120 -1.2832  1.0675
   88MOL0     H11586   7.387   8.643   8.961 -1.3262 -1.4428 -0.5386
   88MOL0     H11587   7.357   8.703   8.799 -1.6725 -0.1163  0.1330
   88MOL0     H11588   7.448   8.415   8.837 -3.7436 -1.2329 -2.1137
   88MOL0     H11589   7.443   8.504   8.689  1.0832 -0.0547  0.5482
   88MOL0     H11590   7.656   8.476   8.772 -1.4913 -1.2688  0.1091
   88MOL0     H11591   7.628   8.575   8.919 -1.2215  0.7412  0.0880
   88MOL0     H11592   7.613   8.774   8.774 -0.1150  1.0345 -0.2449
   88MOL0     H11593   7.615   8.668   8.634  3.4602  2.8771 -1.8395
   88MOL0     H11594   7.870   8.685   8.809  0.6453 -0.1377 -1.2259
   88MOL0     H11595   7.823   8.570   8.685 -1.1906 -0.9126  3.9588
   88MOL0     H11596   7.969   8.736   8.587  0.1863  1.4689  0.3107
   88MOL0     H11597   7.873   8.869   8.644 -0.0497  1.2930 -4.4879
   88MOL0     H11598   6.999   8.750   8.677  0.1750 -3.1912 -2.9495
   88MOL0     H11599   6.821   8.905   8.723  0.3307  0.4797  2.4409
   88MOL0     H11600   6.399   9.027   8.848  0.8281  0.5333 -0.8818
   88MOL0     H11601   6.181   9.132   8.848  0.0677  0.1945 -0.6632
   88MOL0     H11602   6.486   9.356   8.946  0.3871  1.9047  0.8749
   88MOL0     H11603   6.688   9.263   8.883 -3.4320  0.0573 -0.5702
   88MOL0     H11604   7.076   9.230   8.661  2.0235 -0.3463  0.1628
   88MOL0     H11605   7.323   9.180   8.633 -1.1294 -2.2624  0.4102
   88MOL0     H11606   7.528   9.370   8.605 -0.6779  0.4934  1.3175
   88MOL0     H11607   7.559   9.203   8.621  0.1112 -1.0017  0.2362
   88MOL0     H11608   7.725   9.444   8.719  1.2846  0.7758 -0.7527
   88MOL0     H11609   7.751   9.289   8.796 -0.9964  2.9025  1.1373
   88MOL0     H11610   7.910   9.352   8.571  2.1231 -2.9242 -0.0480
   88MOL0     H11611   7.769   9.297   8.492  0.5507  1.6501  0.0014
   88MOL0     H11612   7.934   9.139   8.665 -0.3618 -1.2461  0.3392
   88MOL0     H11613   7.774   9.092   8.638  1.6433 -2.1321 -1.4311
   88MOL0     H11614   7.993   8.996   8.276  1.6931 -2.4022  1.6945
   88MOL0     H11615   7.388   9.439   8.983  3.7837 -0.1827 -2.7671
   88MOL0     H11616   7.147   9.477   8.995 -1.8805  2.1970 -2.3604
   89MOL0     O11617   8.146   2.791   1.869 -1.2473  0.3035 -0.5765
   89MOL0     C11618   8.152   2.685   1.809  1.0640  0.4042  0.2671
   89MOL0     O11619   8.049   2.597   1.794 -0.0384  0.2656  0.1892
   89MOL0     C11620   7.926   2.644   1.820 -0.0397 -0.0192  0.1301
   89MOL0     C11621   7.877   2.673   1.944 -0.6647  0.6524 -1.0793
   89MOL0     C11622   7.742   2.691   1.975 -0.2010  1.0873 -0.4959
   89MOL0     C11623   7.644   2.679   1.873 -1.0375 -0.4221 -0.3902
   89MOL0     O11624   7.511   2.690   1.893  0.7664  0.1823  0.2423
   89MOL0     C11625   7.428   2.597   1.819  0.6784 -0.7969 -1.3251
   89MOL0     C11626   7.300   2.579   1.916 -0.5317  0.5729 -0.3153
   89MOL0     C11627   7.220   2.709   1.926  0.2693 -0.5165 -0.0690
   89MOL0     C11628   7.149   2.758   1.794 -0.3349  0.8716 -0.0717
   89MOL0     C11629   7.058   2.880   1.814 -0.5137 -0.5709  0.4103
   89MOL0     C11630   6.988   2.926   1.680  0.5686  0.0766  0.5731
   89MOL0     C11631   6.905   3.048   1.703  0.3681 -0.0277  0.4024
   89MOL0     C11632   6.780   3.023   1.787 -0.3954  0.4352 -0.0985
   89MOL0     N11633   6.670   3.116   1.788  0.4409 -1.2762  0.1976
   89MOL0     C11634   6.543   3.086   1.744  0.4136 -0.2671 -0.7760
   89MOL0     C11635   6.460   3.183   1.783 -1.1272 -0.4747  0.1150
   89MOL0     C11636   6.309   3.199   1.769  0.1640 -0.6289  0.9476
   89MOL0     C11637   6.257   3.191   1.911  0.2933 -0.1163  0.2151
   89MOL0     C11638   6.276   3.054   1.978 -0.6850 -0.2556 -0.6314
   89MOL0     C11639   6.214   3.062   2.121 -0.2347 -0.9183  0.0107
   89MOL0     O11640   6.074   3.072   2.120  0.7807  0.2539 -0.4193
   89MOL0     C11641   6.009   3.018   2.228  0.1520  0.0262 -0.1105
   89MOL0     C11642   6.062   3.012   2.358  0.1394  1.0849  0.2435
   89MOL0     C11643   5.978   2.976   2.468 -1.0144 -0.7257  1.1703
   89MOL0     C11644   5.852   2.922   2.455 -0.0899  0.6993 -0.6801
   89MOL0     C11645   5.773   2.871   2.573  0.0954 -0.0023  0.1302
   89MOL0     O11646   5.643   2.846   2.563 -0.1004 -0.0262  0.0439
   89MOL0     C11647   5.579   2.767   2.662  0.5366  0.5342 -0.1565
   89MOL0     C11648   5.441   2.794   2.675 -0.1192  0.3086 -0.2944
   89MOL0     C11649   5.361   2.712   2.748 -0.3440  0.2710 -0.9092
   89MOL0     C11650   5.414   2.602   2.821  0.7107 -0.2020  0.1774
   89MOL0     O11651   5.340   2.527   2.912  0.1448 -0.0468 -0.1535
   89MOL0     C11652   5.196   2.515   2.898  0.1527  0.2347  0.2706
   89MOL0     C11653   5.135   2.435   3.010 -0.6532 -0.5703  0.0949
   89MOL0     C11654   4.997   2.387   2.974  0.1471 -0.0822 -0.8241
   89MOL0     C11655   4.883   2.483   2.997  0.6607  0.3551 -0.3090
   89MOL0     C11656   4.763   2.417   2.939  0.0209  0.0091 -0.4850
   89MOL0     C11657   4.645   2.515   2.951  0.1961 -0.1313  0.4214
   89MOL0     C11658   4.514   2.474   2.877 -0.1954 -0.4080 -0.1111
   89MOL0     C11659   4.464   2.337   2.912  0.2369  0.5437  0.4594
   89MOL0    Cl11660   4.376   2.369   3.060 -0.5805  0.1348 -0.1679
   89MOL0     C11661   5.552   2.586   2.817 -0.2818 -0.4317 -0.6099
   89MOL0     C11662   5.635   2.663   2.733 -0.9888 -0.4434  0.0320
   89MOL0     O11663   5.839   2.857   2.676  0.0675  0.1883  0.1627
   89MOL0     C11664   5.792   2.926   2.323  0.3581 -0.3337 -0.1698
   89MOL0     C11665   5.872   2.979   2.214  0.1880  0.5354  0.4541
   89MOL0     N11666   6.545   3.277   1.844  0.5775  1.0744  0.2392
   89MOL0     N11667   6.668   3.236   1.854  0.6843  0.0092 -0.4591
   89MOL0     C11668   7.690   2.657   1.744  0.0354 -0.9445 -0.4018
   89MOL0     C11669   7.831   2.638   1.715 -0.1228 -0.4298 -0.1124
   89MOL0     C11670   8.274   2.643   1.751 -0.4312  0.8419 -0.2894
   89MOL0     C11671   8.395   2.712   1.747 -0.0232 -0.5855  0.3997
   89MOL0     C11672   8.511   2.661   1.684  0.5381 -0.9488 -0.3681
   89MOL0     C11673   8.512   2.539   1.616  0.8156 -0.9505 -0.5670
   89MOL0     O11674   8.627   2.506   1.549  0.0085 -0.1453 -0.1747
   89MOL0     C11675   8.630   2.388   1.468  0.0972 -0.3767  0.4035
   89MOL0     C11676   8.772   2.399   1.396  0.9487  0.0892  0.9156
   89MOL0     C11677   8.885   2.409   1.493  0.3673 -0.4930 -0.2215
   89MOL0     C11678   9.015   2.443   1.418 -0.5328 -0.1070  0.7166
   89MOL0     C11679   9.126   2.403   1.502 -0.4422 -0.1601  0.2606
   89MOL0     C11680   9.221   2.393   1.576  0.0314 -0.5117  0.3883
   89MOL0     C11681   8.393   2.462   1.628 -0.1673  0.3163  0.7829
   89MOL0     C11682   8.280   2.516   1.691 -0.2894 -0.3984  0.6804
   89MOL0     H11683   7.954   2.683   2.019 -2.6246  3.7583  0.7566
   89MOL0     H11684   7.708   2.690   2.078 -1.1844 -1.0877 -0.7726
   89MOL0     H11685   7.478   2.501   1.809  3.1015  0.2837 -0.5564
   89MOL0     H11686   7.389   2.628   1.721 -2.2590  2.7201  0.7131
   89MOL0     H11687   7.336   2.556   2.017  0.3706 -0.0003 -0.7622
   89MOL0     H11688   7.242   2.494   1.880  0.1197  0.3843 -0.9333
   89MOL0     H11689   7.287   2.787   1.962 -0.7510  0.4027 -0.1438
   89MOL0     H11690   7.149   2.693   2.008 -0.0440  0.3238 -0.1738
   89MOL0     H11691   7.230   2.781   1.725  0.0480 -0.0821  0.0500
   89MOL0     H11692   7.081   2.677   1.764  0.2046  0.0991  0.7366
   89MOL0     H11693   7.124   2.959   1.851 -1.2362  1.1168 -1.6785
   89MOL0     H11694   6.981   2.865   1.890 -0.0468  1.1383  1.2887
   89MOL0     H11695   6.937   2.843   1.631 -0.0663  1.8327 -1.9767
   89MOL0     H11696   7.071   2.957   1.615  0.2259  1.6413  0.8413
   89MOL0     H11697   6.963   3.122   1.759 -0.0741 -0.4495  1.4429
   89MOL0     H11698   6.886   3.087   1.603  4.2200 -1.6033 -1.1647
   89MOL0     H11699   6.814   3.017   1.891  4.1768  4.0934 -1.0824
   89MOL0     H11700   6.743   2.922   1.766 -0.7470  0.1291  1.7690
   89MOL0     H11701   6.507   3.000   1.689 -0.3426  0.0657 -0.8137
   89MOL0     H11702   6.268   3.114   1.713  0.7562 -0.5445  0.3710
   89MOL0     H11703   6.291   3.298   1.726  0.4029 -0.6920  0.6983
   89MOL0     H11704   6.149   3.210   1.908  0.0708 -1.1042  1.2169
   89MOL0     H11705   6.300   3.271   1.972  1.6211  1.9822 -3.2077
   89MOL0     H11706   6.234   2.974   1.917  0.7302 -0.2649 -1.6567
   89MOL0     H11707   6.380   3.019   1.987 -1.1573 -1.5493 -0.0308
   89MOL0     H11708   6.266   3.131   2.187 -1.7435 -0.2322  0.5250
   89MOL0     H11709   6.247   2.965   2.160 -1.7089 -0.7142  1.9173
   89MOL0     H11710   6.163   3.036   2.390 -0.3457  1.1830  1.7760
   89MOL0     H11711   6.017   2.989   2.569  0.9762  0.6170  0.3126
   89MOL0     H11712   5.397   2.882   2.630  0.0862  0.2850 -0.5428
   89MOL0     H11713   5.257   2.737   2.765 -0.2079  0.0298  0.3546
   89MOL0     H11714   5.167   2.459   2.809 -1.1268  1.6776 -0.2767
   89MOL0     H11715   5.141   2.610   2.893  1.2095  1.0247  2.3691
   89MOL0     H11716   5.133   2.484   3.108 -0.4738  0.9383 -0.6282
   89MOL0     H11717   5.202   2.349   3.013  1.1243  0.4564 -3.6012
   89MOL0     H11718   4.970   2.301   3.036 -1.1747 -0.3986 -1.7840
   89MOL0     H11719   4.995   2.358   2.868  1.7059 -0.1433 -0.8564
   89MOL0     H11720   4.874   2.505   3.104  4.6469 -1.2834  0.5684
   89MOL0     H11721   4.903   2.577   2.945  0.7065  0.3194 -0.3555
   89MOL0     H11722   4.743   2.324   2.993  2.0454 -0.0059  0.3236
   89MOL0     H11723   4.762   2.390   2.833 -1.6463 -1.8776 -0.0299
   89MOL0     H11724   4.670   2.614   2.912  1.6745  0.7077  3.2420
   89MOL0     H11725   4.625   2.529   3.057 -1.5106 -0.2038  0.1336
   89MOL0     H11726   4.442   2.551   2.905  1.0232  1.0520 -0.8406
   89MOL0     H11727   4.522   2.491   2.769  1.5144 -0.5590 -0.0396
   89MOL0     H11728   4.547   2.266   2.926 -0.0340 -0.2875 -1.6962
   89MOL0     H11729   4.393   2.297   2.839 -3.4195  0.8647  3.5031
   89MOL0     H11730   5.603   2.516   2.883  0.0907  1.1710  0.8722
   89MOL0     H11731   5.742   2.643   2.734 -0.6302  1.1144 -1.9393
   89MOL0     H11732   5.698   2.876   2.303  1.2520 -1.1956 -2.5714
   89MOL0     H11733   5.834   2.970   2.112 -2.2020 -1.8209  1.4306
   89MOL0     H11734   7.634   2.635   1.653  1.4047 -2.6884 -0.8597
   89MOL0     H11735   7.865   2.617   1.614  0.0460 -0.1192 -0.1199
   89MOL0     H11736   8.396   2.814   1.785  2.5484 -0.5164  0.3374
   89MOL0     H11737   8.601   2.722   1.678  1.6478 -2.6209 -2.0368
   89MOL0     H11738   8.544   2.387   1.401  0.3162 -0.0185  0.1064
   89MOL0     H11739   8.634   2.299   1.531  2.0109  0.2299  1.2387
   89MOL0     H11740   8.789   2.310   1.334  0.1884  1.5600 -1.5553
   89MOL0     H11741   8.763   2.487   1.331 -1.5398 -1.0853 -0.4966
   89MOL0     H11742   8.900   2.311   1.539 -0.1461 -0.2849  0.4009
   89MOL0     H11743   8.863   2.480   1.573 -0.7670 -0.7587 -0.2805
   89MOL0     H11744   9.012   2.380   1.328 -2.0439  0.3439  0.4107
   89MOL0     H11745   9.024   2.549   1.395  1.9459 -0.4456 -0.1964
   89MOL0     H11746   9.312   2.386   1.633  0.1453 -1.0186  0.1422
   89MOL0     H11747   8.388   2.363   1.585 -2.8003  1.4491 -1.8461
   89MOL0     H11748   8.193   2.452   1.698 -1.7318  1.6380  2.2368
   90MOL0     O11749   2.811   8.704   9.947 -0.0826 -0.5932 -0.2809
   90MOL0     C11750   2.818   8.820  10.002  0.1322 -0.1681  0.7110
   90MOL0     O11751   2.707   8.895  10.029 -0.2923 -0.4202 -0.1727
   90MOL0     C11752   2.581   8.841  10.018  0.1182 -0.2877  0.2648
   90MOL0     C11753   2.521   8.784  10.122  0.4054 -0.1175  0.2682
   90MOL0     C11754   2.385   8.748  10.115 -0.6446 -0.5783  0.4377
   90MOL0     C11755   2.313   8.758   9.997 -0.4428  0.4347 -0.5517
   90MOL0     O11756   2.182   8.713   9.990 -0.0881  0.4325  0.0411
   90MOL0     C11757   2.121   8.710   9.862  1.0981  0.4845  0.0995
   90MOL0     C11758   1.988   8.634   9.884 -0.7464  0.5466  0.7862
   90MOL0     C11759   1.999   8.483   9.888  0.5250  1.3360 -0.9031
   90MOL0     C11760   1.853   8.428   9.926  0.2734 -0.0355  0.8803
   90MOL0     C11761   1.832   8.278   9.939  0.8896 -0.7331  0.6295
   90MOL0     C11762   1.924   8.214  10.049 -0.0432  0.4957  0.4122
   90MOL0     C11763   1.948   8.068  10.029 -0.4521 -0.6478  0.3107
   90MOL0     C11764   1.978   7.994  10.159 -0.4124 -0.4350 -0.5132
   90MOL0     N11765   2.108   8.025  10.222  0.1321 -0.0714  0.0003
   90MOL0     C11766   2.226   7.978  10.180 -0.6920 -0.3789  0.8509
   90MOL0     C11767   2.325   8.047  10.248 -0.2749  0.5772  0.6133
   90MOL0     C11768   2.476   8.027  10.226 -0.0985  0.3831 -0.3758
   90MOL0     C11769   2.566   8.039  10.352 -0.3447  0.4459 -0.1317
   90MOL0     C11770   2.711   8.051  10.302 -0.9174  0.3732 -0.3773
   90MOL0     C11771   2.808   8.065  10.419  0.3216  0.5250 -0.1130
   90MOL0     O11772   2.939   8.089  10.354  0.8246  0.2001 -0.5278
   90MOL0     C11773   3.053   8.098  10.430 -0.1908  0.5025 -0.0617
   90MOL0     C11774   3.063   8.091  10.567  0.4468 -0.2115 -0.5882
   90MOL0     C11775   3.188   8.127  10.626  1.1878 -0.4053 -0.7093
   90MOL0     C11776   3.300   8.155  10.546  0.1830  0.3623 -0.6470
   90MOL0     C11777   3.436   8.177  10.617 -0.3450  0.5754  1.0413
   90MOL0     O11778   3.441   8.244  10.737  0.4933 -0.0048 -0.4671
   90MOL0     C11779   3.552   8.314  10.781 -0.2471  0.5169  0.8334
   90MOL0     C11780   3.538   8.453  10.827 -0.7046 -0.0210  0.4111
   90MOL0     C11781   3.646   8.516  10.892 -0.2927 -0.2157  0.3217
   90MOL0     C11782   3.770   8.441  10.911  0.2212 -0.2744 -0.1502
   90MOL0     O11783   3.879   8.492  10.973  0.3610  0.0715 -0.0179
   90MOL0     C11784   3.849   8.598  11.063 -0.2534 -0.6797  0.7174
   90MOL0     C11785   3.986   8.651  11.113 -0.1424  0.2147  0.4282
   90MOL0     C11786   4.075   8.711  11.007 -0.4927 -0.2369  0.3430
   90MOL0     C11787   4.210   8.752  11.074 -0.2968  0.0235  0.4554
   90MOL0     C11788   4.301   8.844  11.003  0.0857  0.4713  0.6363
   90MOL0     C11789   4.428   8.887  11.075  0.4263 -0.5813 -0.6582
   90MOL0     C11790   4.418   8.945  11.217  0.0262  0.0684  0.6987
   90MOL0     C11791   4.542   9.002  11.277 -0.8207  0.7142 -0.8975
   90MOL0    Cl11792   4.617   9.132  11.182  0.3918  0.7660  0.0383
   90MOL0     C11793   3.782   8.316  10.863  0.3071  1.0422  0.1163
   90MOL0     C11794   3.676   8.251  10.806 -0.4910 -0.0977 -0.3602
   90MOL0     O11795   3.531   8.151  10.548 -1.1630 -0.0928 -0.2508
   90MOL0     C11796   3.289   8.164  10.411 -0.1756  0.4859  0.4275
   90MOL0     C11797   3.166   8.123  10.356 -0.5348  0.0149  0.2276
   90MOL0     N11798   2.259   8.139  10.327 -0.3453  0.6828 -0.0633
   90MOL0     N11799   2.128   8.128  10.310 -0.3634 -0.0201 -0.3008
   90MOL0     C11800   2.377   8.815   9.886 -0.2911 -0.6756  0.3289
   90MOL0     C11801   2.515   8.852   9.891  0.1044  0.0752  0.4718
   90MOL0     C11802   2.948   8.860  10.049 -1.1997 -0.6664  1.2297
   90MOL0     C11803   3.061   8.775  10.057  0.3052 -0.1969  0.0824
   90MOL0     C11804   3.176   8.825  10.110  0.4007  0.9794 -0.3705
   90MOL0     C11805   3.199   8.962  10.136  0.0499 -0.1022  0.1650
   90MOL0     O11806   3.312   9.015  10.182 -0.5948  0.0621 -0.3852
   90MOL0     C11807   3.432   8.935  10.216 -1.3932 -0.7227  0.3916
   90MOL0     C11808   3.543   9.039  10.240  0.5738  0.1111 -0.5315
   90MOL0     C11809   3.675   8.973  10.283 -0.5300 -0.0720 -0.0480
   90MOL0     C11810   3.768   8.917  10.165 -0.4063 -0.9510  0.3899
   90MOL0     C11811   3.703   8.812  10.087 -0.6951 -0.0096 -0.4552
   90MOL0     C11812   3.640   8.721  10.039 -0.3379 -0.6248  0.9206
   90MOL0     C11813   3.088   9.046  10.119 -0.7913 -0.3264  0.0113
   90MOL0     C11814   2.963   8.990  10.077 -0.1666  0.2772 -0.2932
   90MOL0     H11815   2.586   8.775  10.208  2.7801 -1.8473 -1.5873
   90MOL0     H11816   2.342   8.705  10.205 -1.1713  0.6431  0.8016
   90MOL0     H11817   2.175   8.659   9.781 -0.2633  3.0813 -2.6280
   90MOL0     H11818   2.101   8.813   9.832 -0.7996 -0.1145 -0.8341
   90MOL0     H11819   1.915   8.659   9.806 -1.0093 -3.1061 -0.2846
   90MOL0     H11820   1.944   8.665   9.980 -1.0384 -2.4655  1.7337
   90MOL0     H11821   2.068   8.447   9.965 -0.6774 -2.8317 -1.5086
   90MOL0     H11822   2.023   8.440   9.791  0.7741 -0.8011  0.0569
   90MOL0     H11823   1.816   8.484  10.012 -0.4459 -0.2838  0.7406
   90MOL0     H11824   1.784   8.466   9.850 -1.5659 -1.2756  1.8801
   90MOL0     H11825   1.843   8.229   9.841 -2.2432  1.1425 -0.8416
   90MOL0     H11826   1.731   8.250   9.972  0.2956  0.4980 -0.0580
   90MOL0     H11827   1.865   8.237  10.138 -0.3077 -1.1835  0.7120
   90MOL0     H11828   2.025   8.257  10.050  0.4262 -0.0228 -4.0823
   90MOL0     H11829   1.859   8.026   9.982  0.0749 -0.1478 -1.2019
   90MOL0     H11830   2.030   8.056   9.957 -0.2533 -2.6305  0.8077
   90MOL0     H11831   1.981   7.892  10.121 -1.2974 -0.1424 -1.4332
   90MOL0     H11832   1.899   7.995  10.235 -0.4775  0.3234 -0.5802
   90MOL0     H11833   2.248   7.916  10.094  0.7903  0.7009  0.4131
   90MOL0     H11834   2.501   8.106  10.155  0.0422  1.5621  0.9516
   90MOL0     H11835   2.490   7.932  10.173 -0.9021 -0.2185  0.4397
   90MOL0     H11836   2.565   7.946  10.410  1.5371 -1.7922 -3.3750
   90MOL0     H11837   2.529   8.120  10.416  0.2373  1.6937 -1.3203
   90MOL0     H11838   2.740   7.959  10.249  0.7835  1.0907 -0.7657
   90MOL0     H11839   2.725   8.130  10.228 -2.1495  1.5407  0.5850
   90MOL0     H11840   2.820   7.974  10.478  1.7655 -0.5548 -1.9599
   90MOL0     H11841   2.781   8.157  10.471 -0.0914  1.7609 -2.3682
   90MOL0     H11842   2.975   8.070  10.626  0.1822 -1.9948 -1.5631
   90MOL0     H11843   3.199   8.126  10.734  1.7552 -3.1603 -0.7337
   90MOL0     H11844   3.442   8.504  10.821  0.4660  2.3086  0.3178
   90MOL0     H11845   3.625   8.617  10.926  3.1940  0.5497  0.5257
   90MOL0     H11846   3.787   8.563  11.147  0.1145 -2.4492  0.2879
   90MOL0     H11847   3.798   8.682  11.014 -0.9521 -0.6262  1.5019
   90MOL0     H11848   4.042   8.571  11.164  1.4991  1.3237  0.4255
   90MOL0     H11849   3.958   8.714  11.198 -2.4440  0.4771 -0.4515
   90MOL0     H11850   4.044   8.801  10.953  2.3120 -1.2092 -3.3301
   90MOL0     H11851   4.091   8.631  10.934  0.2298 -1.0276  1.3477
   90MOL0     H11852   4.182   8.808  11.164  0.4179 -1.0159  1.3583
   90MOL0     H11853   4.264   8.661  11.102  0.2994 -0.4134 -1.8887
   90MOL0     H11854   4.247   8.934  10.972 -0.1203  0.1260 -0.0329
   90MOL0     H11855   4.316   8.779  10.916 -0.4668 -2.0600  2.3182
   90MOL0     H11856   4.475   8.960  11.008  1.1801 -0.7858 -0.3569
   90MOL0     H11857   4.496   8.802  11.087  0.2891 -0.4680  1.1734
   90MOL0     H11858   4.340   9.022  11.217 -0.5032 -0.4158  2.8555
   90MOL0     H11859   4.387   8.866  11.286  1.8461  0.0361  1.5243
   90MOL0     H11860   4.614   8.920  11.289 -0.2945  1.3853  0.8157
   90MOL0     H11861   4.507   9.036  11.375 -1.4064 -1.5745 -0.2461
   90MOL0     H11862   3.873   8.259  10.877  1.1222  1.4626 -2.8162
   90MOL0     H11863   3.696   8.146  10.789  0.8660 -0.0183  0.5805
   90MOL0     H11864   3.378   8.174  10.349  0.3292 -2.0187  0.6372
   90MOL0     H11865   3.159   8.127  10.248 -0.0001 -0.5603  0.1618
   90MOL0     H11866   2.328   8.825   9.789 -0.9079 -1.6024  0.5326
   90MOL0     H11867   2.549   8.909   9.804 -0.1340 -0.4219  0.0493
   90MOL0     H11868   3.058   8.676  10.012 -0.8780 -0.1906  0.1096
   90MOL0     H11869   3.251   8.748  10.126 -0.1512  0.2522 -1.1907
   90MOL0     H11870   3.460   8.869  10.133 -0.2505 -1.0681  1.0225
   90MOL0     H11871   3.420   8.875  10.307  0.7381  2.7868  3.2548
   90MOL0     H11872   3.562   9.095  10.148  0.8831 -0.6609 -0.9438
   90MOL0     H11873   3.510   9.114  10.312  1.7668 -1.0884  1.3513
   90MOL0     H11874   3.647   8.896  10.356  0.3782  0.1490  0.5630
   90MOL0     H11875   3.733   9.045  10.342 -1.1680  0.7243 -0.3925
   90MOL0     H11876   3.790   9.003  10.101 -0.3347 -1.3753 -0.1621
   90MOL0     H11877   3.866   8.884  10.200 -0.7614 -1.2374  1.1245
   90MOL0     H11878   3.574   8.652   9.990 -0.0176  0.2089 -0.7764
   90MOL0     H11879   3.108   9.147  10.152  3.4811 -1.2032  0.7166
   90MOL0     H11880   2.886   9.067  10.076 -1.5290 -1.0090  1.0454
   91MOL0     O11881   4.825   5.430   4.344 -0.1463 -0.1468  0.2223
   91MOL0     C11882   4.936   5.387   4.318 -0.5582 -0.9932 -0.4953
   91MOL0     O11883   4.968   5.258   4.307  0.1733 -0.2466 -0.6445
   91MOL0     C11884   4.863   5.167   4.327 -0.2108  0.2607  1.1466
   91MOL0     C11885   4.845   5.094   4.440 -0.5020  0.2312 -0.6059
   91MOL0     C11886   4.766   4.982   4.444 -0.5979  1.0202 -0.3589
   91MOL0     C11887   4.686   4.942   4.336  0.7920 -1.1818  0.0116
   91MOL0     O11888   4.593   4.833   4.348  0.1318  0.7637 -0.2571
   91MOL0     C11889   4.562   4.755   4.232  0.6613  0.2757  0.2164
   91MOL0     C11890   4.494   4.625   4.265 -0.1535 -0.5192  0.3208
   91MOL0     C11891   4.366   4.651   4.349 -0.1186 -0.0732  0.0263
   91MOL0     C11892   4.280   4.519   4.347  0.5532 -0.1454  0.3784
   91MOL0     C11893   4.341   4.410   4.430  0.0953  1.2489 -0.5228
   91MOL0     C11894   4.244   4.284   4.417  0.9074 -0.0832  0.4137
   91MOL0     C11895   4.304   4.150   4.475  0.8200 -0.0190  0.2008
   91MOL0     C11896   4.204   4.037   4.504  0.4541 -0.8179  0.1365
   91MOL0     N11897   4.141   3.980   4.386  0.5370  0.5139 -0.1624
   91MOL0     C11898   4.061   4.050   4.295 -0.8874  0.2298 -0.3550
   91MOL0     C11899   4.030   3.959   4.201  0.3113 -0.6187  0.0566
   91MOL0     C11900   3.949   4.005   4.086  0.2548  1.0563  0.4480
   91MOL0     C11901   3.797   3.963   4.112 -0.5108  0.0071  0.3716
   91MOL0     C11902   3.708   3.983   3.994 -0.1224 -0.2832 -0.2269
   91MOL0     C11903   3.556   3.985   4.024  0.2376  0.3340 -0.3636
   91MOL0     O11904   3.482   4.012   3.909  0.4008  0.2648 -0.2836
   91MOL0     C11905   3.351   4.048   3.922 -0.0993 -0.5522 -1.3004
   91MOL0     C11906   3.291   4.093   4.043 -0.2537 -0.1057  0.3184
   91MOL0     C11907   3.153   4.134   4.044 -0.5744  0.3004 -0.5012
   91MOL0     C11908   3.077   4.132   3.928 -0.8156 -0.4655  0.5427
   91MOL0     C11909   2.938   4.170   3.919  0.3309 -0.3689 -0.5510
   91MOL0     O11910   2.877   4.193   4.043  1.0655 -0.5588 -0.2023
   91MOL0     C11911   2.745   4.223   4.065  1.0973 -0.2481 -0.4030
   91MOL0     C11912   2.707   4.185   4.196 -0.0653  0.7832 -0.4406
   91MOL0     C11913   2.577   4.204   4.242  0.2514  0.4178  0.0451
   91MOL0     C11914   2.483   4.248   4.149 -0.1695  0.0397 -0.4149
   91MOL0     O11915   2.358   4.261   4.197 -0.1892  0.0994  0.5224
   91MOL0     C11916   2.333   4.373   4.290  0.3613  0.2681  0.3732
   91MOL0     C11917   2.179   4.377   4.292 -0.4770  0.1417  0.3484
   91MOL0     C11918   2.132   4.477   4.402  0.5103  0.4120 -0.0965
   91MOL0     C11919   1.984   4.466   4.436 -0.7889 -0.0603 -0.8679
   91MOL0     C11920   1.941   4.574   4.529  0.5224  0.3287 -0.1661
   91MOL0     C11921   1.788   4.549   4.567 -1.0468  1.4997  0.3844
   91MOL0     C11922   1.751   4.645   4.680  0.1178  0.3905  0.7264
   91MOL0     C11923   1.600   4.621   4.720  0.0825 -0.2324 -0.8687
   91MOL0    Cl11924   1.546   4.745   4.841  0.1515  0.1895  0.2198
   91MOL0     C11925   2.516   4.281   4.015 -0.1789 -0.3546  0.4785
   91MOL0     C11926   2.646   4.269   3.969 -1.3354 -1.0084 -0.2491
   91MOL0     O11927   2.876   4.170   3.815  0.5411  0.0713  0.3992
   91MOL0     C11928   3.137   4.079   3.812 -0.1182  0.9467 -0.3860
   91MOL0     C11929   3.275   4.036   3.815  0.2754 -0.2126  0.8622
   91MOL0     N11930   4.107   3.843   4.230  0.1152  0.1704  0.0461
   91MOL0     N11931   4.162   3.851   4.347 -0.1584 -0.0300  0.5709
   91MOL0     C11932   4.699   5.015   4.220 -0.0302 -0.5376  0.0759
   91MOL0     C11933   4.785   5.128   4.214 -0.4018  0.1865  0.4592
   91MOL0     C11934   5.037   5.492   4.290  0.0583 -0.1849  0.4008
   91MOL0     C11935   5.006   5.627   4.265  0.1095  0.0063  0.3040
   91MOL0     C11936   5.103   5.717   4.227  0.5226  0.1905  0.9044
   91MOL0     C11937   5.233   5.675   4.233  0.5565 -0.7287  0.9166
   91MOL0     O11938   5.338   5.771   4.216  0.5527 -0.4149  0.4650
   91MOL0     C11939   5.415   5.782   4.342 -0.1041 -0.1162 -0.5781
   91MOL0     C11940   5.498   5.906   4.342  0.0315 -0.3513 -0.2498
   91MOL0     C11941   5.618   5.889   4.435  0.2632 -0.1293  0.1319
   91MOL0     C11942   5.583   5.882   4.594  0.6551  0.9057  0.4550
   91MOL0     C11943   5.693   5.918   4.678  0.1369 -1.1394  0.5308
   91MOL0     C11944   5.792   5.940   4.747  1.1607  0.0369 -0.2278
   91MOL0     C11945   5.268   5.541   4.258 -0.1805 -0.7176  0.8971
   91MOL0     C11946   5.172   5.456   4.292 -0.3381 -0.1158  0.2668
   91MOL0     H11947   4.900   5.108   4.533  0.5408 -0.5291 -1.0750
   91MOL0     H11948   4.741   4.927   4.534  1.2913 -0.3170 -0.5911
   91MOL0     H11949   4.655   4.736   4.177  0.7740 -1.4853  0.9561
   91MOL0     H11950   4.507   4.812   4.156  0.3068 -0.4348 -0.0643
   91MOL0     H11951   4.568   4.567   4.321  0.3926 -0.6944 -0.5666
   91MOL0     H11952   4.477   4.571   4.171  2.7764 -0.0915 -0.5352
   91MOL0     H11953   4.315   4.738   4.307  0.0085  1.0169  2.0334
   91MOL0     H11954   4.386   4.691   4.449 -1.4857 -0.2171  0.3756
   91MOL0     H11955   4.189   4.541   4.403 -1.0003 -1.5145 -1.4882
   91MOL0     H11956   4.247   4.487   4.248  2.4060 -1.0980  0.0127
   91MOL0     H11957   4.338   4.434   4.536 -0.2929 -2.3120  0.4019
   91MOL0     H11958   4.442   4.386   4.395  1.5673  2.5531  2.4679
   91MOL0     H11959   4.241   4.275   4.308  0.6276 -1.0320  0.4899
   91MOL0     H11960   4.146   4.304   4.461  0.5652  2.1661 -1.2355
   91MOL0     H11961   4.371   4.110   4.398  0.3351 -0.8835  0.2094
   91MOL0     H11962   4.369   4.169   4.561 -1.8156 -2.0111  2.8666
   91MOL0     H11963   4.136   4.077   4.580  1.1648 -0.1560  0.4456
   91MOL0     H11964   4.260   3.953   4.547  0.0284 -0.3786  1.6188
   91MOL0     H11965   4.038   4.155   4.285 -0.2524  0.3810 -0.3104
   91MOL0     H11966   3.990   3.959   3.995  0.4140  0.9747  0.5603
   91MOL0     H11967   3.936   4.113   4.076  0.6136  0.9178 -2.6153
   91MOL0     H11968   3.759   4.023   4.196 -0.2654  2.7363 -1.3287
   91MOL0     H11969   3.786   3.859   4.142 -1.3579 -0.4286 -1.3465
   91MOL0     H11970   3.746   4.075   3.949 -3.1543  1.3931  0.3604
   91MOL0     H11971   3.718   3.903   3.921 -0.8343 -0.6588  0.0724
   91MOL0     H11972   3.539   4.056   4.105 -0.1219 -1.4034  1.1497
   91MOL0     H11973   3.529   3.885   4.060  0.5179  0.6301  0.7158
   91MOL0     H11974   3.348   4.111   4.134  0.1620  0.1610  0.0131
   91MOL0     H11975   3.104   4.154   4.139  1.1249  1.5995  0.1566
   91MOL0     H11976   2.776   4.144   4.269  0.2342 -0.1539 -1.2199
   91MOL0     H11977   2.547   4.194   4.346  1.4477 -0.0900  0.3589
   91MOL0     H11978   2.370   4.464   4.242 -0.6258  0.7671  0.5328
   91MOL0     H11979   2.388   4.355   4.383  1.1179  2.6754  0.4434
   91MOL0     H11980   2.137   4.283   4.330 -1.5385  0.8025  0.8684
   91MOL0     H11981   2.146   4.402   4.191  1.4263  0.7496 -0.1556
   91MOL0     H11982   2.156   4.581   4.379  1.0276  1.1680  3.2623
   91MOL0     H11983   2.182   4.450   4.496 -0.3847  1.1565  0.6101
   91MOL0     H11984   1.925   4.482   4.346  0.8543  0.2795 -1.9363
   91MOL0     H11985   1.963   4.365   4.472 -1.4984  0.5080  0.3948
   91MOL0     H11986   1.954   4.672   4.484  0.0517  0.3957 -0.1621
   91MOL0     H11987   1.997   4.572   4.623 -0.4905  1.8608  0.5083
   91MOL0     H11988   1.777   4.446   4.602 -0.9514  1.5970  0.7109
   91MOL0     H11989   1.718   4.555   4.484 -2.1525 -3.4585  0.6514
   91MOL0     H11990   1.808   4.628   4.772  0.4648 -1.5294  0.2112
   91MOL0     H11991   1.770   4.749   4.653  0.6481  0.6232  1.9141
   91MOL0     H11992   1.590   4.521   4.763  1.5797 -1.1591 -2.5582
   91MOL0     H11993   1.536   4.630   4.631 -0.2428 -2.4081 -0.9089
   91MOL0     H11994   2.435   4.328   3.958 -0.0265  0.7442  1.1364
   91MOL0     H11995   2.675   4.293   3.867 -0.6659 -0.6429  0.0265
   91MOL0     H11996   3.082   4.065   3.720  1.1250  0.7021 -1.1146
   91MOL0     H11997   3.307   3.984   3.726 -3.9995 -0.8049 -0.5795
   91MOL0     H11998   4.638   4.993   4.132  1.5384  3.1113 -2.1613
   91MOL0     H11999   4.790   5.185   4.122  0.8276  0.6856  0.8053
   91MOL0     H12000   4.904   5.658   4.286 -0.3217  0.3536 -2.0332
   91MOL0     H12001   5.080   5.823   4.228  1.4320  0.4380 -0.9454
   91MOL0     H12002   5.477   5.693   4.359 -2.1489 -1.5849 -0.5233
   91MOL0     H12003   5.349   5.789   4.429  0.1245 -1.1807 -0.2983
   91MOL0     H12004   5.534   5.922   4.240  0.1304  1.7173  0.0755
   91MOL0     H12005   5.455   6.005   4.360  1.8710  0.7521 -1.5051
   91MOL0     H12006   5.683   5.976   4.429  0.2750 -0.2246 -1.9038
   91MOL0     H12007   5.665   5.798   4.396  0.9008  0.8660 -1.5303
   91MOL0     H12008   5.502   5.953   4.606 -0.8634 -0.8986  1.4209
   91MOL0     H12009   5.545   5.782   4.618  0.7422 -0.2002 -3.3942
   91MOL0     H12010   5.857   5.969   4.828  3.2566 -0.9187 -1.5003
   91MOL0     H12011   5.372   5.512   4.250  0.0262  0.0376  0.7038
   91MOL0     H12012   5.209   5.359   4.322  1.4545  0.5947  0.4967
   92MOL0     O12013   0.771   7.090   6.534 -0.0224  0.1555  0.5083
   92MOL0     C12014   0.863   7.155   6.480 -0.2575  0.6275 -1.1679
   92MOL0     O12015   0.893   7.162   6.344  0.6314 -0.4212 -0.4231
   92MOL0     C12016   0.822   7.087   6.252  0.4609 -0.0859 -0.2466
   92MOL0     C12017   0.890   7.070   6.128  0.2453  0.0612  0.8740
   92MOL0     C12018   0.827   6.984   6.031 -0.0200 -0.0022  0.4648
   92MOL0     C12019   0.701   6.930   6.055  0.3373 -0.4423 -0.5534
   92MOL0     O12020   0.646   6.868   5.939  0.0982  0.2704  0.0070
   92MOL0     C12021   0.600   6.733   5.959  0.2030  0.3952 -0.7719
   92MOL0     C12022   0.509   6.658   5.860  0.4473  0.0849  0.3511
   92MOL0     C12023   0.360   6.707   5.861 -0.1418  0.0928  0.7707
   92MOL0     C12024   0.297   6.653   5.740  0.0213  0.0952  0.4628
   92MOL0     C12025   0.142   6.690   5.732 -1.0500  0.6957  0.5060
   92MOL0     C12026   0.071   6.621   5.844  0.6054 -1.2255 -0.0480
   92MOL0     C12027  -0.085   6.666   5.841 -0.1250  0.3788  0.2638
   92MOL0     C12028  -0.177   6.592   5.733 -0.0580 -0.3035  0.5531
   92MOL0     N12029  -0.310   6.634   5.740  0.5891 -0.2710  0.4739
   92MOL0     C12030  -0.355   6.763   5.705 -0.2603  0.8073 -0.1722
   92MOL0     C12031  -0.484   6.769   5.767 -1.1650 -0.2630 -0.2988
   92MOL0     C12032  -0.577   6.889   5.773  0.0156  0.5077  0.2854
   92MOL0     C12033  -0.543   6.980   5.890 -0.3039  0.2507 -0.2798
   92MOL0     C12034  -0.615   6.944   6.018 -0.1442 -0.1716 -0.3170
   92MOL0     C12035  -0.592   6.802   6.068  0.9026 -0.3614  0.1711
   92MOL0     O12036  -0.645   6.779   6.201  0.0248  0.3696 -0.3963
   92MOL0     C12037  -0.781   6.786   6.224 -0.0060 -0.5976 -0.2781
   92MOL0     C12038  -0.822   6.814   6.353  0.1161 -0.1522 -0.3887
   92MOL0     C12039  -0.951   6.798   6.394  0.3369 -1.0998 -0.6374
   92MOL0     C12040  -1.050   6.742   6.313  0.1297  0.5476  0.3948
   92MOL0     C12041  -1.190   6.732   6.357 -0.4657 -0.1715  0.1036
   92MOL0     O12042  -1.195   6.716   6.498  0.4022 -0.2412 -0.4048
   92MOL0     C12043  -1.306   6.677   6.572 -0.2438 -0.8021  0.4726
   92MOL0     C12044  -1.283   6.653   6.708 -0.1212 -0.3179 -0.1084
   92MOL0     C12045  -1.389   6.606   6.790 -0.6211 -0.1106 -0.0383
   92MOL0     C12046  -1.523   6.596   6.752 -0.3161  0.4031 -0.5057
   92MOL0     O12047  -1.628   6.552   6.832  0.0328  0.2189  0.2462
   92MOL0     C12048  -1.591   6.439   6.921  0.5543  0.7542  0.5733
   92MOL0     C12049  -1.685   6.318   6.894  0.3402  0.3383  0.2543
   92MOL0     C12050  -1.827   6.346   6.948 -0.4180 -0.5022  0.0317
   92MOL0     C12051  -1.908   6.216   6.945 -0.1155 -0.2620 -0.0822
   92MOL0     C12052  -2.020   6.215   7.041 -0.0115 -0.3718  0.2574
   92MOL0     C12053  -2.143   6.289   6.980 -0.4605  0.8244  0.1263
   92MOL0     C12054  -2.222   6.209   6.878  0.6671  0.3289 -0.1519
   92MOL0     C12055  -2.357   6.274   6.853 -0.7323 -0.3100 -0.2321
   92MOL0    Cl12056  -2.457   6.306   6.998 -0.6043 -0.0290 -0.6056
   92MOL0     C12057  -1.547   6.629   6.616  0.0931  0.2636  0.9201
   92MOL0     C12058  -1.445   6.668   6.525 -0.0019 -0.0098 -1.0534
   92MOL0     O12059  -1.283   6.728   6.275 -0.1908 -0.2743 -0.0715
   92MOL0     C12060  -1.018   6.736   6.170  0.6952  0.0586  0.0857
   92MOL0     C12061  -0.889   6.758   6.127 -0.0691 -0.3627  0.4659
   92MOL0     N12062  -0.513   6.639   5.808  0.0375  0.0826  0.2916
   92MOL0     N12063  -0.408   6.563   5.798 -0.2274  0.4765  0.1315
   92MOL0     C12064   0.634   6.955   6.174 -0.3535 -0.2676  0.2674
   92MOL0     C12065   0.690   7.040   6.269 -0.2873 -0.3724 -0.6033
   92MOL0     C12066   0.940   7.232   6.585 -0.5340 -0.4885 -0.0233
   92MOL0     C12067   0.927   7.212   6.726 -0.1804 -0.4335 -0.0623
   92MOL0     C12068   0.997   7.294   6.813  0.4874 -0.7525 -0.2204
   92MOL0     C12069   1.090   7.391   6.769 -0.1375 -0.6419  0.0512
   92MOL0     O12070   1.146   7.483   6.865 -0.4368  0.1112 -0.0255
   92MOL0     C12071   1.269   7.548   6.833 -0.2322  0.5374  0.6037
   92MOL0     C12072   1.335   7.596   6.965 -0.6533 -0.8244  0.5525
   92MOL0     C12073   1.448   7.701   6.941 -0.1336 -0.7655 -0.3730
   92MOL0     C12074   1.515   7.751   7.077 -0.2235 -0.1400  0.2566
   92MOL0     C12075   1.563   7.888   7.060  0.4672 -0.3013 -0.5423
   92MOL0     C12076   1.611   7.999   7.027  0.0827  0.8982 -0.6200
   92MOL0     C12077   1.104   7.407   6.632 -0.8269  0.0940  0.4776
   92MOL0     C12078   1.039   7.324   6.547  0.5946 -0.4138  0.8129
   92MOL0     H12079   0.979   7.126   6.104  0.0805 -0.2927 -0.6469
   92MOL0     H12080   0.872   6.963   5.934  0.4548  2.0860  0.1951
   92MOL0     H12081   0.548   6.721   6.055 -0.2330 -1.7822 -1.2101
   92MOL0     H12082   0.694   6.681   5.977 -0.6741 -0.4474  1.8790
   92MOL0     H12083   0.503   6.555   5.898 -0.1009 -0.3396 -0.8310
   92MOL0     H12084   0.558   6.653   5.762  2.0177  0.4876  1.0790
   92MOL0     H12085   0.357   6.817   5.861 -1.2333  0.0837 -0.2082
   92MOL0     H12086   0.303   6.676   5.950  0.0371 -2.7403 -0.0195
   92MOL0     H12087   0.349   6.700   5.656  0.9667  0.4220  1.2104
   92MOL0     H12088   0.300   6.544   5.735 -1.3507 -0.0362  1.7239
   92MOL0     H12089   0.100   6.644   5.642  2.6834 -3.8282  0.7186
   92MOL0     H12090   0.126   6.798   5.726  0.7672  0.9193 -2.2092
   92MOL0     H12091   0.112   6.650   5.941  2.4627  0.9141 -1.3917
   92MOL0     H12092   0.076   6.512   5.830 -1.3342 -1.4277  0.5491
   92MOL0     H12093  -0.125   6.654   5.943  1.0374 -1.2557  0.5780
   92MOL0     H12094  -0.072   6.772   5.817  1.2073 -0.1377 -1.4911
   92MOL0     H12095  -0.158   6.485   5.750 -1.7322 -0.9948 -1.4821
   92MOL0     H12096  -0.138   6.609   5.632  0.4475  1.4189  1.0155
   92MOL0     H12097  -0.297   6.847   5.670 -1.1618  2.0143  1.0893
   92MOL0     H12098  -0.681   6.859   5.784 -0.1170  0.4734 -0.9157
   92MOL0     H12099  -0.551   6.946   5.683  1.8972  0.2744  0.6460
   92MOL0     H12100  -0.558   7.087   5.873 -0.7744  0.6488  2.3016
   92MOL0     H12101  -0.435   6.979   5.908 -0.3332  1.2003  0.0190
   92MOL0     H12102  -0.580   7.001   6.105 -0.7004 -3.6991  2.4571
   92MOL0     H12103  -0.721   6.966   6.005  0.0837  2.4381  1.3309
   92MOL0     H12104  -0.484   6.787   6.069  1.0768  0.3423 -2.2304
   92MOL0     H12105  -0.632   6.726   6.000 -2.0084  1.5004 -0.3816
   92MOL0     H12106  -0.753   6.855   6.427  2.1971  0.0787 -2.3462
   92MOL0     H12107  -0.971   6.833   6.495 -3.3272  0.2632 -1.6744
   92MOL0     H12108  -1.185   6.652   6.753 -0.7933 -0.0327  1.4087
   92MOL0     H12109  -1.360   6.584   6.892 -0.5774 -0.2957 -0.0912
   92MOL0     H12110  -1.602   6.469   7.025 -1.7864  0.7413  0.3875
   92MOL0     H12111  -1.490   6.407   6.893  1.1601  1.8087  1.4914
   92MOL0     H12112  -1.642   6.225   6.934  1.5647  0.7174 -0.1602
   92MOL0     H12113  -1.688   6.305   6.785 -0.9526  0.6039  0.2355
   92MOL0     H12114  -1.884   6.411   6.882 -2.0817 -3.1040 -1.2654
   92MOL0     H12115  -1.826   6.389   7.049 -0.3584  0.9556 -0.5735
   92MOL0     H12116  -1.942   6.194   6.843  1.4613 -2.2761 -0.2310
   92MOL0     H12117  -1.840   6.143   6.990 -1.3674  0.2287  2.8249
   92MOL0     H12118  -1.999   6.269   7.134 -2.4540  0.9187  0.1416
   92MOL0     H12119  -2.041   6.112   7.073 -1.8601 -0.7999 -2.0077
   92MOL0     H12120  -2.109   6.377   6.927 -0.7096  0.5257 -0.5353
   92MOL0     H12121  -2.203   6.314   7.069 -0.5118 -0.3980  0.4566
   92MOL0     H12122  -2.174   6.204   6.780  0.1614  2.9767 -0.6029
   92MOL0     H12123  -2.239   6.110   6.922 -0.0955 -0.6369 -2.4680
   92MOL0     H12124  -2.417   6.226   6.775  1.8071  0.1035 -2.5672
   92MOL0     H12125  -2.322   6.371   6.816  3.5891 -1.9997 -1.1553
   92MOL0     H12126  -1.652   6.631   6.589  0.7284  1.8018 -1.8274
   92MOL0     H12127  -1.457   6.703   6.423  0.1912  1.7285 -0.5139
   92MOL0     H12128  -1.095   6.702   6.101  1.5464 -2.4997  0.2892
   92MOL0     H12129  -0.860   6.748   6.023  3.0292  0.3235  1.1542
   92MOL0     H12130   0.536   6.908   6.182 -0.4792  0.1859  1.6715
   92MOL0     H12131   0.630   7.073   6.353 -1.4064 -0.9960 -1.1400
   92MOL0     H12132   0.858   7.147   6.779 -0.2381 -1.4127 -1.2977
   92MOL0     H12133   0.990   7.292   6.921  0.1511 -1.8087 -0.2524
   92MOL0     H12134   1.255   7.633   6.766  0.8631  0.6211  0.4554
   92MOL0     H12135   1.333   7.472   6.787 -2.6173  0.0523 -2.2166
   92MOL0     H12136   1.263   7.654   7.024  0.2750  0.7468  0.2087
   92MOL0     H12137   1.375   7.510   7.019 -0.2658 -0.7781  0.3395
   92MOL0     H12138   1.411   7.790   6.891 -0.3335 -0.4151  0.3779
   92MOL0     H12139   1.523   7.654   6.877 -2.1498 -3.7000 -0.7900
   92MOL0     H12140   1.434   7.752   7.152  0.4157 -0.5888  0.9696
   92MOL0     H12141   1.597   7.689   7.113 -1.2622 -0.8997  1.4129
   92MOL0     H12142   1.647   8.093   6.990  0.3972  0.0492 -2.6115
   92MOL0     H12143   1.170   7.488   6.603  0.9319 -0.6003  2.3049
   92MOL0     H12144   1.062   7.352   6.444  0.3976  3.5360  1.6908
   93MOL0     O12145   0.854   5.937  10.441  0.2885  0.4260  0.0810
   93MOL0     C12146   0.885   5.968  10.327  0.4401 -0.6830 -1.1400
   93MOL0     O12147   0.799   5.997  10.225 -0.2033  0.3671  0.1201
   93MOL0     C12148   0.666   6.000  10.229 -0.5403 -0.9564 -0.6700
   93MOL0     C12149   0.590   5.951  10.127  1.0477 -0.2623  0.5297
   93MOL0     C12150   0.449   5.945  10.141  0.5013 -0.1325  0.0034
   93MOL0     C12151   0.384   6.008  10.247 -0.0767  0.5095  0.2899
   93MOL0     O12152   0.245   6.016  10.248 -0.0426  0.6733 -0.4830
   93MOL0     C12153   0.177   6.116  10.316 -0.4890 -0.4313 -0.5835
   93MOL0     C12154   0.032   6.080  10.276 -0.9254  1.1296  0.1358
   93MOL0     C12155  -0.058   6.193  10.294 -0.0373 -0.0618  0.3708
   93MOL0     C12156  -0.203   6.153  10.294  1.0056 -0.1491  0.3303
   93MOL0     C12157  -0.296   6.269  10.322  0.3054 -0.6197  0.2198
   93MOL0     C12158  -0.270   6.338  10.454  0.1939 -0.3637  0.4100
   93MOL0     C12159  -0.386   6.434  10.483  0.5612  0.2399  0.6930
   93MOL0     C12160  -0.348   6.527  10.602  0.4449  0.3328  0.3658
   93MOL0     N12161  -0.473   6.585  10.658  0.5583  0.2199 -0.1893
   93MOL0     C12162  -0.551   6.675  10.599 -0.1631  0.7878 -0.2717
   93MOL0     C12163  -0.670   6.673  10.656 -0.2928  0.3018 -0.3575
   93MOL0     C12164  -0.781   6.761  10.633  0.8087 -0.4237 -0.0513
   93MOL0     C12165  -0.878   6.707  10.536  0.4025 -0.1603 -0.4369
   93MOL0     C12166  -0.967   6.600  10.602 -0.2071  0.5465 -0.1489
   93MOL0     C12167  -1.040   6.513  10.499  0.2894  0.0561 -0.6368
   93MOL0     O12168  -1.114   6.603  10.416  0.6016  0.9603  0.3605
   93MOL0     C12169  -1.231   6.664  10.461 -0.7146  0.3482  0.2977
   93MOL0     C12170  -1.321   6.617  10.565 -0.7059 -0.4140  0.1655
   93MOL0     C12171  -1.439   6.681  10.596  0.4077 -0.7099  0.5607
   93MOL0     C12172  -1.468   6.802  10.532  0.7643 -0.5046  0.9171
   93MOL0     C12173  -1.591   6.874  10.567  0.0629  0.7600  0.5980
   93MOL0     O12174  -1.653   6.830  10.676  0.5775  0.3283  0.5389
   93MOL0     C12175  -1.775   6.877  10.716  0.9089 -0.2101  0.9891
   93MOL0     C12176  -1.797   6.872  10.851 -0.0421 -0.5049 -0.2364
   93MOL0     C12177  -1.924   6.892  10.911 -0.0383  0.6087  0.4457
   93MOL0     C12178  -2.033   6.932  10.834 -0.0003 -0.9359  0.1547
   93MOL0     O12179  -2.151   6.982  10.873  0.9885  0.1688  0.1746
   93MOL0     C12180  -2.179   7.022  11.009  0.6879  0.6413 -0.1770
   93MOL0     C12181  -2.318   7.082  11.010  0.2895  0.2160  0.3928
   93MOL0     C12182  -2.373   7.102  11.154  0.0011  0.2850 -0.4116
   93MOL0     C12183  -2.433   6.969  11.213 -0.2681 -0.6224  0.2172
   93MOL0     C12184  -2.494   6.990  11.352 -0.1714 -0.1517 -0.3592
   93MOL0     C12185  -2.641   7.014  11.351 -0.4726 -0.6599  0.1479
   93MOL0     C12186  -2.726   6.903  11.310 -0.0316 -0.2470 -0.3234
   93MOL0     C12187  -2.884   6.927  11.315  0.8253  0.1108  0.1236
   93MOL0    Cl12188  -2.942   6.997  11.479 -0.2961  0.5216 -0.0953
   93MOL0     C12189  -2.017   6.932  10.692 -0.5993  0.3248 -0.0434
   93MOL0     C12190  -1.892   6.917  10.640 -1.9085  0.0802  0.7125
   93MOL0     O12191  -1.628   6.966  10.494 -0.6384  0.5113 -0.8372
   93MOL0     C12192  -1.378   6.853  10.438 -0.6124 -1.0819 -0.5240
   93MOL0     C12193  -1.261   6.781  10.404  0.0687 -1.0640 -0.0922
   93MOL0     N12194  -0.663   6.587  10.765  0.5999  0.3439 -0.1820
   93MOL0     N12195  -0.547   6.527  10.759 -0.5903 -0.3664  0.1625
   93MOL0     C12196   0.458   6.065  10.344 -0.4225 -0.7903 -1.2634
   93MOL0     C12197   0.595   6.062  10.334 -0.1946  0.3775  0.0355
   93MOL0     C12198   1.018   5.952  10.288 -0.0045  0.2981  1.0088
   93MOL0     C12199   1.086   5.859  10.362 -0.3428 -0.1367 -1.0192
   93MOL0     C12200   1.216   5.819  10.326 -0.6028 -0.0004  0.5694
   93MOL0     C12201   1.281   5.870  10.212  0.4907 -0.0893 -0.2391
   93MOL0     O12202   1.411   5.827  10.183  0.2436 -0.8544  0.0896
   93MOL0     C12203   1.475   5.876  10.066  0.4908 -0.0794 -0.5109
   93MOL0     C12204   1.579   5.771  10.027  0.5584  0.0364 -0.6961
   93MOL0     C12205   1.708   5.773  10.120  0.2418  0.3754  0.8048
   93MOL0     C12206   1.752   5.898  10.194  0.1432 -0.3355  0.2450
   93MOL0     C12207   1.791   6.016  10.108  0.0987 -0.5829  0.2861
   93MOL0     C12208   1.820   6.106  10.026  0.5832  0.3557 -0.4929
   93MOL0     C12209   1.206   5.968  10.135 -0.8720  0.2660 -0.7859
   93MOL0     C12210   1.076   6.010  10.174 -1.4237  0.1285  0.2726
   93MOL0     H12211   0.636   5.907  10.040 -0.2751 -1.3558  0.3583
   93MOL0     H12212   0.381   5.909  10.065  0.6565  1.4122 -0.9047
   93MOL0     H12213   0.207   6.208  10.265 -0.3553 -1.2816 -2.0813
   93MOL0     H12214   0.186   6.120  10.425 -1.4464 -3.4892 -0.3159
   93MOL0     H12215   0.004   5.988  10.329  2.6851 -0.2557 -0.0861
   93MOL0     H12216   0.046   6.068  10.168  1.7842  1.6139  0.3755
   93MOL0     H12217  -0.028   6.282  10.238 -1.0758  0.0871  0.0335
   93MOL0     H12218  -0.035   6.224  10.396  2.3228  1.9697 -0.6679
   93MOL0     H12219  -0.241   6.103  10.204  0.3030  0.0819  0.4910
   93MOL0     H12220  -0.221   6.084  10.377 -4.2209  0.5249  0.1125
   93MOL0     H12221  -0.402   6.244  10.327 -0.0630  0.6822 -0.5455
   93MOL0     H12222  -0.286   6.331  10.232  1.8362 -3.2332 -1.5738
   93MOL0     H12223  -0.179   6.398  10.440 -0.5690  0.0913 -4.3620
   93MOL0     H12224  -0.268   6.256  10.526  0.9743 -0.2569  0.5193
   93MOL0     H12225  -0.422   6.494  10.399  0.2348  2.5311  2.3760
   93MOL0     H12226  -0.470   6.379  10.526 -0.3407  1.2317  0.2600
   93MOL0     H12227  -0.285   6.609  10.568  2.9827 -1.5269  0.2857
   93MOL0     H12228  -0.300   6.469  10.682 -0.4133  0.2436  0.8328
   93MOL0     H12229  -0.509   6.730  10.515 -1.5075 -0.7563 -2.0206
   93MOL0     H12230  -0.729   6.838  10.574  2.2727 -1.3832 -0.0716
   93MOL0     H12231  -0.822   6.811  10.721 -1.6057 -1.3831 -0.5467
   93MOL0     H12232  -0.828   6.684  10.441  1.2176  2.0340 -0.6111
   93MOL0     H12233  -0.956   6.781  10.512  0.3124 -0.7447 -2.0804
   93MOL0     H12234  -0.900   6.548  10.672 -0.2736  1.9809  1.0386
   93MOL0     H12235  -1.045   6.652  10.658 -0.5712 -0.6313  0.4703
   93MOL0     H12236  -1.115   6.450  10.548 -2.2998  1.7275 -2.2382
   93MOL0     H12237  -0.987   6.448  10.429 -0.3984  0.5848 -1.6796
   93MOL0     H12238  -1.293   6.523  10.612  0.3954 -1.0305 -1.6056
   93MOL0     H12239  -1.511   6.636  10.663  0.4604  1.9831  2.5715
   93MOL0     H12240  -1.716   6.852  10.920 -0.5895 -1.9480  0.0155
   93MOL0     H12241  -1.943   6.884  11.018 -3.0870 -1.2176 -0.1239
   93MOL0     H12242  -2.107   7.092  11.052  0.1710  1.5931 -0.8352
   93MOL0     H12243  -2.174   6.933  11.073 -0.2325  2.0721  1.9632
   93MOL0     H12244  -2.384   7.034  10.937  1.4746  1.9722 -1.9643
   93MOL0     H12245  -2.304   7.181  10.966 -2.1927  0.1728 -0.6453
   93MOL0     H12246  -2.461   7.167  11.158 -2.0135 -2.2857  3.9538
   93MOL0     H12247  -2.304   7.153  11.223 -2.0826  2.2668  0.3554
   93MOL0     H12248  -2.503   6.920  11.145  1.2972 -1.6129 -0.7339
   93MOL0     H12249  -2.347   6.905  11.230  0.2980  0.1249  0.2140
   93MOL0     H12250  -2.451   7.075  11.406 -1.3269 -0.4308  1.0550
   93MOL0     H12251  -2.490   6.906  11.421 -2.7813  1.4401  1.9668
   93MOL0     H12252  -2.654   7.086  11.270  1.4801 -1.7346 -1.1877
   93MOL0     H12253  -2.683   7.047  11.447 -0.4453  0.6792 -0.2750
   93MOL0     H12254  -2.692   6.862  11.214  2.0508 -1.9564  1.0502
   93MOL0     H12255  -2.711   6.830  11.390  0.3602  0.1887  0.0012
   93MOL0     H12256  -2.919   6.825  11.296  4.3664 -0.7740 -2.9776
   93MOL0     H12257  -2.912   6.993  11.232  4.0284  2.0791  0.4284
   93MOL0     H12258  -2.093   6.963  10.621 -0.6722 -1.0215 -0.5810
   93MOL0     H12259  -1.882   6.938  10.534 -1.5535  2.0187  1.1063
   93MOL0     H12260  -1.391   6.953  10.397 -0.0095 -0.3144  1.0789
   93MOL0     H12261  -1.200   6.819  10.323 -1.6210  1.3888 -0.3363
   93MOL0     H12262   0.407   6.116  10.426 -2.1360 -1.2427 -2.0007
   93MOL0     H12263   0.651   6.120  10.407  0.7209  1.7335 -1.6591
   93MOL0     H12264   1.056   5.816  10.457 -0.3456  2.8620  0.4380
   93MOL0     H12265   1.263   5.747  10.393 -2.8876 -0.1766  2.0894
   93MOL0     H12266   1.513   5.975  10.091 -2.2185  1.5301 -2.2750
   93MOL0     H12267   1.398   5.881   9.989  0.8625 -1.2676 -0.9742
   93MOL0     H12268   1.539   5.669  10.022  0.5963  0.0123 -0.5250
   93MOL0     H12269   1.616   5.802   9.928  0.4224  4.0346  0.3542
   93MOL0     H12270   1.791   5.730  10.062 -1.3365  3.0954 -4.0417
   93MOL0     H12271   1.673   5.702  10.195 -2.7763 -1.7963 -2.3492
   93MOL0     H12272   1.666   5.933  10.251 -0.2015 -0.8395  0.0460
   93MOL0     H12273   1.843   5.882  10.253 -0.8353 -1.4016  1.5160
   93MOL0     H12274   1.860   6.173   9.953  2.1318  1.1475  1.0130
   93MOL0     H12275   1.242   6.006  10.041  0.6661  2.3937  0.5942
   93MOL0     H12276   1.030   6.075  10.100  0.7549  0.1759 -1.1147
   94MOL0     O12277   4.297   4.798   5.993  0.1444  0.1011 -0.4552
   94MOL0     C12278   4.320   4.799   5.872  0.0385 -0.3662 -0.4659
   94MOL0     O12279   4.239   4.760   5.775 -0.1327 -0.5181  0.1750
   94MOL0     C12280   4.120   4.699   5.801  0.3465 -0.5735  0.2707
   94MOL0     C12281   4.098   4.585   5.881 -0.1072 -0.0059 -0.4347
   94MOL0     C12282   3.964   4.538   5.909  0.4230 -0.1109 -0.1766
   94MOL0     C12283   3.844   4.604   5.859 -0.3328 -0.4189 -0.6852
   94MOL0     O12284   3.724   4.551   5.890  0.2566  0.2150  0.1773
   94MOL0     C12285   3.612   4.637   5.903  0.9304 -0.2302  0.4938
   94MOL0     C12286   3.519   4.597   6.018 -0.2008  1.2495  0.4963
   94MOL0     C12287   3.457   4.454   5.994 -0.0616 -0.5178  0.2363
   94MOL0     C12288   3.397   4.402   6.131 -0.0330 -0.0542  0.3347
   94MOL0     C12289   3.271   4.481   6.162  0.0880  0.1493 -0.4772
   94MOL0     C12290   3.232   4.477   6.315 -1.2601  0.1824 -0.1180
   94MOL0     C12291   3.085   4.505   6.351 -0.3406  0.6894 -0.2266
   94MOL0     C12292   3.088   4.635   6.437 -0.7088  0.2790  0.0309
   94MOL0     N12293   2.959   4.666   6.501  0.3174 -0.2393  0.5022
   94MOL0     C12294   2.914   4.626   6.625  0.5564  0.3493 -1.2755
   94MOL0     C12295   2.795   4.683   6.653  0.1850  0.0228 -0.7681
   94MOL0     C12296   2.713   4.658   6.771  0.0540  0.1057  0.7392
   94MOL0     C12297   2.673   4.779   6.852  1.0263  0.7673  0.4997
   94MOL0     C12298   2.642   4.742   6.998 -0.8983 -0.5505 -0.9498
   94MOL0     C12299   2.586   4.868   7.075 -0.0933  0.2407 -0.2513
   94MOL0     O12300   2.578   4.851   7.216  0.8100  0.3659  0.3063
   94MOL0     C12301   2.456   4.830   7.272 -0.4717 -0.8093 -0.9733
   94MOL0     C12302   2.362   4.749   7.212  0.7313 -0.2461 -0.1081
   94MOL0     C12303   2.231   4.728   7.264 -0.1731  0.2250 -0.4376
   94MOL0     C12304   2.194   4.803   7.380 -0.0316  0.0939 -0.3063
   94MOL0     C12305   2.056   4.789   7.435 -0.2076  0.2146 -0.5117
   94MOL0     O12306   2.010   4.878   7.522  0.1560 -0.3825  0.5295
   94MOL0     C12307   1.889   4.867   7.592 -0.2477 -0.6863  0.4213
   94MOL0     C12308   1.817   4.986   7.625 -0.2391  0.3918 -0.0427
   94MOL0     C12309   1.701   4.973   7.704 -0.3112  0.5433  0.8257
   94MOL0     C12310   1.642   4.853   7.745  0.0619 -0.3197 -0.8794
   94MOL0     O12311   1.516   4.867   7.804  0.4432  0.2017  0.2112
   94MOL0     C12312   1.451   4.747   7.845 -0.0517 -0.9919 -0.2024
   94MOL0     C12313   1.322   4.763   7.925 -0.6564  0.4768  0.2538
   94MOL0     C12314   1.203   4.804   7.838 -0.3735 -0.3485  0.0890
   94MOL0     C12315   1.075   4.817   7.917  0.6386 -0.1427  0.2285
   94MOL0     C12316   0.948   4.817   7.816 -0.1626 -0.2758 -0.0971
   94MOL0     C12317   0.825   4.851   7.904 -0.3982  0.0992  0.1189
   94MOL0     C12318   0.698   4.839   7.816  0.6830  0.0415 -0.6931
   94MOL0     C12319   0.589   4.925   7.876 -0.4368 -0.9722  0.5403
   94MOL0    Cl12320   0.551   4.883   8.051  0.1174 -0.0378  0.3330
   94MOL0     C12321   1.722   4.742   7.721  0.2601 -0.2221  0.9304
   94MOL0     C12322   1.844   4.744   7.648 -0.2884  1.0110  0.2770
   94MOL0     O12323   1.995   4.687   7.398 -0.1136  0.4659  0.2407
   94MOL0     C12324   2.283   4.896   7.440 -0.9385  0.0981 -0.3845
   94MOL0     C12325   2.416   4.902   7.390  0.4777 -1.2701  0.8022
   94MOL0     N12326   2.763   4.754   6.540  0.2075 -0.0871  0.8144
   94MOL0     N12327   2.858   4.740   6.449 -1.3274  0.4827  0.3463
   94MOL0     C12328   3.875   4.710   5.768  0.1837  0.3382  0.0547
   94MOL0     C12329   4.000   4.744   5.734  0.1873 -0.2647  0.7240
   94MOL0     C12330   4.437   4.876   5.838 -0.2690  0.3911 -0.6316
   94MOL0     C12331   4.457   4.909   5.704 -0.7562 -0.4946  0.4829
   94MOL0     C12332   4.574   4.974   5.672 -0.8470 -0.3582 -0.5114
   94MOL0     C12333   4.678   5.003   5.757  0.4723  0.7495 -0.0157
   94MOL0     O12334   4.795   5.056   5.727 -0.5055 -0.1952 -0.3371
   94MOL0     C12335   4.817   5.096   5.585 -0.8706 -0.9166  0.5726
   94MOL0     C12336   4.952   5.164   5.577 -0.6189 -0.6143  0.1551
   94MOL0     C12337   4.933   5.296   5.656  0.0291 -0.1013  0.1895
   94MOL0     C12338   5.053   5.388   5.670 -0.6132  0.1556 -0.0398
   94MOL0     C12339   5.023   5.518   5.743  0.0283  1.2088  0.0649
   94MOL0     C12340   5.015   5.623   5.805  0.5593  0.3616 -0.2873
   94MOL0     C12341   4.657   4.969   5.893  0.2115 -0.1930  0.3057
   94MOL0     C12342   4.538   4.905   5.932  0.5272  0.8450  0.5115
   94MOL0     H12343   4.188   4.539   5.923  0.7666  1.6059 -0.4609
   94MOL0     H12344   3.948   4.447   5.967 -1.0516  1.5894  2.2330
   94MOL0     H12345   3.549   4.634   5.814  1.5047 -6.3228 -0.1377
   94MOL0     H12346   3.639   4.743   5.910  1.5692 -0.3018 -0.5632
   94MOL0     H12347   3.439   4.671   6.020 -3.2307 -1.7793  1.2092
   94MOL0     H12348   3.571   4.601   6.114 -0.7107 -1.2486  0.9589
   94MOL0     H12349   3.539   4.390   5.960  0.7701  0.2866  0.7043
   94MOL0     H12350   3.393   4.462   5.906  0.8049 -3.6157 -0.7964
   94MOL0     H12351   3.377   4.295   6.118  1.2552 -0.3497  0.5650
   94MOL0     H12352   3.470   4.406   6.213  0.0850  0.5676  0.2054
   94MOL0     H12353   3.188   4.441   6.103 -0.8672  0.9621  0.2867
   94MOL0     H12354   3.279   4.585   6.128  0.9411  0.0996 -0.4581
   94MOL0     H12355   3.307   4.534   6.370  0.3455 -2.6594  0.8451
   94MOL0     H12356   3.247   4.372   6.345  1.2999  0.4593 -0.2320
   94MOL0     H12357   3.027   4.513   6.258 -0.6297 -0.9861 -0.2352
   94MOL0     H12358   3.059   4.412   6.403  2.3106 -1.5333 -2.5094
   94MOL0     H12359   3.123   4.714   6.369  1.8351 -0.8978 -0.1529
   94MOL0     H12360   3.155   4.610   6.520  0.3765  0.5215 -0.7456
   94MOL0     H12361   2.956   4.550   6.691 -0.5758  0.2216 -0.6784
   94MOL0     H12362   2.775   4.596   6.836  2.2284  0.9984 -0.3812
   94MOL0     H12363   2.634   4.590   6.741 -0.4866  0.9849  0.1269
   94MOL0     H12364   2.575   4.805   6.811 -0.2436 -3.1300  0.6594
   94MOL0     H12365   2.745   4.860   6.837  1.4239  0.3206 -0.0381
   94MOL0     H12366   2.571   4.660   7.005 -0.3879 -1.0803 -1.8046
   94MOL0     H12367   2.738   4.714   7.042 -0.9800 -0.1214 -0.4886
   94MOL0     H12368   2.485   4.888   7.038 -1.0373  0.0081  2.0173
   94MOL0     H12369   2.653   4.952   7.057 -0.7788  1.0776  0.9754
   94MOL0     H12370   2.377   4.692   7.121 -2.9017 -0.4506 -0.7401
   94MOL0     H12371   2.158   4.661   7.218 -0.3672 -1.5170  2.1976
   94MOL0     H12372   1.849   5.084   7.593 -2.1136  0.3184 -2.5067
   94MOL0     H12373   1.633   5.057   7.708  1.0625  1.7492 -0.0976
   94MOL0     H12374   1.521   4.686   7.903  3.5740  1.5603 -1.5173
   94MOL0     H12375   1.426   4.687   7.756  1.3702 -0.8809 -0.7028
   94MOL0     H12376   1.338   4.842   7.999  0.6999 -1.2598  1.9413
   94MOL0     H12377   1.297   4.670   7.977  0.9447 -2.1412 -3.2443
   94MOL0     H12378   1.199   4.723   7.764  2.4891  0.0079 -0.5535
   94MOL0     H12379   1.240   4.895   7.790  1.2212 -0.3631  1.2263
   94MOL0     H12380   1.067   4.742   7.996  1.8696  1.4760  1.9697
   94MOL0     H12381   1.072   4.909   7.976  0.2570 -1.2014  1.9121
   94MOL0     H12382   0.923   4.718   7.778  0.5787  0.9256 -4.1844
   94MOL0     H12383   0.963   4.887   7.733 -1.1118  0.6672  0.4867
   94MOL0     H12384   0.833   4.955   7.938 -1.4929  0.2245  0.0420
   94MOL0     H12385   0.818   4.790   7.995 -2.0907  1.7989  1.2112
   94MOL0     H12386   0.716   4.881   7.717 -0.1659 -1.9764 -1.7528
   94MOL0     H12387   0.675   4.734   7.794  1.9966 -0.1915 -1.0830
   94MOL0     H12388   0.501   4.903   7.814 -1.0082  0.4753  0.7764
   94MOL0     H12389   0.612   5.030   7.856  0.9990 -1.4919 -0.6933
   94MOL0     H12390   1.696   4.644   7.759  1.4637 -0.7198  0.5216
   94MOL0     H12391   1.896   4.649   7.638  1.4485  1.5494  3.0476
   94MOL0     H12392   2.252   4.958   7.523  0.7035 -0.5247  0.7489
   94MOL0     H12393   2.477   4.976   7.441  1.7800  0.0429 -2.3451
   94MOL0     H12394   3.793   4.760   5.718  1.1975  1.1116 -0.8783
   94MOL0     H12395   4.017   4.821   5.659  1.1400  0.6161  1.8122
   94MOL0     H12396   4.392   4.889   5.620 -1.7654 -1.8135  1.5401
   94MOL0     H12397   4.592   4.998   5.568 -0.3941  2.4929  0.1151
   94MOL0     H12398   4.741   5.168   5.555  0.1905  0.0664  0.1857
   94MOL0     H12399   4.817   5.015   5.511 -2.2832  0.8409 -1.4651
   94MOL0     H12400   5.027   5.106   5.633 -0.2706  2.6704  3.4250
   94MOL0     H12401   4.980   5.187   5.474  3.1033  1.8676  1.5017
   94MOL0     H12402   4.901   5.268   5.757 -3.0229 -0.9266 -0.8823
   94MOL0     H12403   4.855   5.354   5.606  0.0719  0.2855  0.5620
   94MOL0     H12404   5.140   5.342   5.718  1.0741  1.4377 -1.7325
   94MOL0     H12405   5.094   5.418   5.573 -0.2721 -1.9532 -0.6067
   94MOL0     H12406   5.000   5.719   5.850 -0.6340 -1.2581  3.0980
   94MOL0     H12407   4.739   4.984   5.963 -1.7052  2.1442  2.2333
   94MOL0     H12408   4.524   4.886   6.038 -0.7426  1.6211  0.5008
   95MOL0     O12409   9.417  11.177   4.714  0.2277 -0.1849 -0.0368
   95MOL0     C12410   9.469  11.084   4.780  0.3162 -0.4766  0.1534
   95MOL0     O12411   9.401  10.978   4.838  0.3743  0.6499  0.0599
   95MOL0     C12412   9.265  10.983   4.852  0.4262  0.1448  0.2962
   95MOL0     C12413   9.181  10.989   4.743 -0.2964  0.4831  0.5640
   95MOL0     C12414   9.040  10.991   4.750  0.1690 -1.1892 -0.0895
   95MOL0     C12415   8.985  11.012   4.876  0.9339 -0.2282  0.1428
   95MOL0     O12416   8.852  11.029   4.891 -0.8404  0.1800  0.0701
   95MOL0     C12417   8.779  10.929   4.958  0.1725 -0.0706 -0.4826
   95MOL0     C12418   8.668  10.986   5.048 -0.7452  0.7749  0.0859
   95MOL0     C12419   8.718  11.086   5.151  0.0767  0.2092  0.3561
   95MOL0     C12420   8.763  11.026   5.283 -0.1972  0.0788 -0.1189
   95MOL0     C12421   8.817  11.118   5.391  0.0803  1.1784 -0.4082
   95MOL0     C12422   8.895  11.239   5.338  0.3235  0.0117  0.6001
   95MOL0     C12423   8.975  11.310   5.443 -0.2574  0.2940  0.7492
   95MOL0     C12424   9.060  11.426   5.382  0.0299  0.3774 -0.7983
   95MOL0     N12425   9.149  11.489   5.482 -0.2449  0.5420 -0.2815
   95MOL0     C12426   9.188  11.427   5.599  0.5009  1.4770 -0.2132
   95MOL0     C12427   9.245  11.526   5.659  0.6545 -0.8175 -0.0633
   95MOL0     C12428   9.292  11.520   5.794  0.2745 -0.9170 -1.3284
   95MOL0     C12429   9.168  11.536   5.882  0.2090 -0.9562 -0.3573
   95MOL0     C12430   9.198  11.548   6.027 -0.3775  0.0151 -0.3128
   95MOL0     C12431   9.091  11.640   6.099  0.1399 -0.3351 -0.1810
   95MOL0     O12432   8.961  11.587   6.105 -0.6319  0.0317  0.1944
   95MOL0     C12433   8.858  11.639   6.177 -0.2394 -0.4700  0.0998
   95MOL0     C12434   8.839  11.769   6.186 -1.0278 -0.0873 -0.4951
   95MOL0     C12435   8.724  11.819   6.253  0.1515  0.1854 -0.2107
   95MOL0     C12436   8.653  11.729   6.340  0.2046 -0.4273  0.0489
   95MOL0     C12437   8.542  11.785   6.412  0.6092 -0.3992 -1.3847
   95MOL0     O12438   8.455  11.704   6.482 -0.0289  0.1667  0.0413
   95MOL0     C12439   8.343  11.753   6.545  0.6014 -0.4025  0.4493
   95MOL0     C12440   8.246  11.836   6.478  0.0880  0.2078 -0.1218
   95MOL0     C12441   8.124  11.876   6.538 -0.2755  0.3125  0.5109
   95MOL0     C12442   8.097  11.839   6.669 -0.4196 -0.7354 -0.9390
   95MOL0     O12443   7.980  11.876   6.732  0.2263  0.0533  0.0874
   95MOL0     C12444   7.860  11.887   6.654  0.2671  0.1579  0.6740
   95MOL0     C12445   7.739  11.904   6.757  0.0064 -0.8121 -0.0398
   95MOL0     C12446   7.609  11.940   6.674  0.2119  0.6336  0.4664
   95MOL0     C12447   7.479  11.907   6.754 -0.3827 -0.6212  0.4897
   95MOL0     C12448   7.479  11.954   6.900 -0.9799 -0.3258 -1.0361
   95MOL0     C12449   7.339  11.997   6.956  0.1625 -0.1468  0.9392
   95MOL0     C12450   7.339  12.034   7.105 -0.2015 -0.2371  1.3513
   95MOL0     C12451   7.204  12.081   7.150 -0.0192  0.6429  0.4265
   95MOL0    Cl12452   7.086  11.956   7.115 -0.2282 -0.1750 -0.1908
   95MOL0     C12453   8.202  11.762   6.731  0.3016 -0.4003 -0.1149
   95MOL0     C12454   8.319  11.709   6.669  0.5190 -0.6091  1.1522
   95MOL0     O12455   8.533  11.906   6.411 -0.6177  0.6054  0.3353
   95MOL0     C12456   8.681  11.590   6.331  0.1618 -0.2761 -0.2745
   95MOL0     C12457   8.782  11.545   6.243 -0.0026  0.2838 -0.6908
   95MOL0     N12458   9.226  11.640   5.591 -0.8680 -0.5359  0.3851
   95MOL0     N12459   9.170  11.623   5.486 -0.2964  0.2724  0.4152
   95MOL0     C12460   9.070  11.006   4.987  0.2225 -0.6634 -0.5839
   95MOL0     C12461   9.210  10.984   4.981 -0.0745  0.3155  0.2722
   95MOL0     C12462   9.618  11.085   4.794  0.2940 -0.1256 -0.3191
   95MOL0     C12463   9.684  10.969   4.841 -0.7866 -0.2880  0.2097
   95MOL0     C12464   9.825  10.977   4.876  0.2397  0.8433 -0.3720
   95MOL0     C12465   9.898  11.094   4.853 -0.1898 -0.1427 -0.4169
   95MOL0     O12466  10.033  11.096   4.880 -0.4916  0.0134 -0.1692
   95MOL0     C12467  10.125  11.205   4.847 -0.1171  0.3419  0.7234
   95MOL0     C12468  10.171  11.274   4.967 -0.6699  0.3458  0.4562
   95MOL0     C12469  10.060  11.320   5.064 -0.4932  0.4248  0.2860
   95MOL0     C12470  10.127  11.342   5.206  0.0651  0.2750  0.3006
   95MOL0     C12471  10.244  11.427   5.208  0.4447  0.1011 -0.5147
   95MOL0     C12472  10.347  11.498   5.219  0.8878 -1.4054  0.1922
   95MOL0     C12473   9.836  11.207   4.796 -0.1950  0.0809  0.5545
   95MOL0     C12474   9.697  11.203   4.772 -0.0201  1.1714 -0.1475
   95MOL0     H12475   9.222  10.984   4.642  2.1961  1.1547  1.4660
   95MOL0     H12476   8.974  10.999   4.664  0.1633  0.8688  0.0442
   95MOL0     H12477   8.840  10.863   5.020  1.8217 -0.9875 -2.8963
   95MOL0     H12478   8.738  10.862   4.882  0.8874  0.6527 -1.5363
   95MOL0     H12479   8.610  10.902   5.087  0.0574 -0.8996 -2.1120
   95MOL0     H12480   8.600  11.043   4.984 -0.1305  1.6575  0.2095
   95MOL0     H12481   8.632  11.149   5.176 -0.8407 -0.6587 -0.5235
   95MOL0     H12482   8.794  11.153   5.110 -0.3762 -0.2095 -1.2261
   95MOL0     H12483   8.672  10.978   5.320 -0.4765 -0.1153 -1.0463
   95MOL0     H12484   8.845  10.954   5.267 -1.0629 -1.0580  0.3863
   95MOL0     H12485   8.888  11.072   5.460 -1.0386 -0.2296 -0.1454
   95MOL0     H12486   8.730  11.154   5.446 -0.0358  1.1300 -0.5592
   95MOL0     H12487   8.820  11.302   5.288  0.4820 -0.6991 -0.5807
   95MOL0     H12488   8.957  11.204   5.255  0.4018  3.0030 -0.7240
   95MOL0     H12489   8.898  11.356   5.506 -1.9234 -0.7367 -0.4545
   95MOL0     H12490   9.034  11.241   5.505 -1.0081 -1.7262 -0.6665
   95MOL0     H12491   8.994  11.502   5.338 -0.8982  3.3867  4.8886
   95MOL0     H12492   9.126  11.390   5.302 -0.2804 -1.1776 -0.3837
   95MOL0     H12493   9.194  11.326   5.638  1.9282  1.3851 -0.6196
   95MOL0     H12494   9.358  11.601   5.824  1.0909 -2.4637  1.4356
   95MOL0     H12495   9.347  11.430   5.821  0.0739 -0.4676  0.7685
   95MOL0     H12496   9.102  11.449   5.883 -0.8819 -0.1809 -1.8460
   95MOL0     H12497   9.113  11.625   5.852 -0.3142 -0.2744  2.3771
   95MOL0     H12498   9.197  11.452   6.078  1.8744  1.6755  3.2584
   95MOL0     H12499   9.300  11.585   6.045 -0.2731 -0.2886 -0.2752
   95MOL0     H12500   9.074  11.732   6.043 -1.1275 -0.9126 -0.7730
   95MOL0     H12501   9.137  11.661   6.196  0.6436 -0.7984 -0.3079
   95MOL0     H12502   8.909  11.834   6.135  1.0331 -0.8810  1.1902
   95MOL0     H12503   8.699  11.924   6.245  2.4249  0.9286  1.4552
   95MOL0     H12504   8.242  11.860   6.373 -1.1019 -0.3044 -0.2130
   95MOL0     H12505   8.052  11.937   6.484 -2.5262 -0.6402  2.2820
   95MOL0     H12506   7.832  11.796   6.600  1.3744 -1.5368  2.7867
   95MOL0     H12507   7.863  11.975   6.590  0.2200  0.7097  1.4155
   95MOL0     H12508   7.762  11.988   6.824 -1.6347 -0.8946  0.6781
   95MOL0     H12509   7.723  11.808   6.806  0.6759 -1.1750 -0.5155
   95MOL0     H12510   7.612  11.897   6.574  1.4535 -1.0708  1.1764
   95MOL0     H12511   7.601  12.048   6.663 -0.0521  0.5381 -0.2970
   95MOL0     H12512   7.407  11.976   6.709 -0.3660 -1.9859 -1.7688
   95MOL0     H12513   7.443  11.806   6.734 -2.7280  0.5161 -1.6596
   95MOL0     H12514   7.539  12.045   6.902  1.9565 -2.1247 -1.7922
   95MOL0     H12515   7.533  11.880   6.959  1.8348  1.1965 -1.5535
   95MOL0     H12516   7.281  11.908   6.932 -0.8675  1.5084 -4.0622
   95MOL0     H12517   7.302  12.077   6.890  0.4359 -0.4670  0.3852
   95MOL0     H12518   7.351  11.947   7.170  0.1381 -1.2579 -0.0454
   95MOL0     H12519   7.414  12.113   7.119  0.0715 -0.1505 -0.3581
   95MOL0     H12520   7.160  12.165   7.096 -1.6377 -1.3530 -1.5368
   95MOL0     H12521   7.205  12.105   7.256 -3.5516  2.7875  0.0953
   95MOL0     H12522   8.178  11.716   6.827  2.3563 -0.8919  0.2269
   95MOL0     H12523   8.390  11.655   6.730  0.8400 -0.6298  0.7654
   95MOL0     H12524   8.640  11.520   6.403  1.3405 -0.4623  0.2460
   95MOL0     H12525   8.795  11.437   6.241 -3.2151 -0.3412  2.0686
   95MOL0     H12526   9.029  11.016   5.087 -0.4248 -0.4020 -0.8626
   95MOL0     H12527   9.272  10.971   5.069  0.8078 -4.2384 -0.7704
   95MOL0     H12528   9.640  10.871   4.859  1.7223 -0.8244  5.2268
   95MOL0     H12529   9.877  10.883   4.893  0.3206  1.1719  1.3844
   95MOL0     H12530  10.083  11.274   4.774  0.7453  2.9751  2.5823
   95MOL0     H12531  10.207  11.161   4.790 -2.5953  0.4237 -3.3483
   95MOL0     H12532  10.225  11.201   5.026 -1.4384  1.2764  2.3975
   95MOL0     H12533  10.243  11.350   4.937  1.2981 -0.3890  2.9928
   95MOL0     H12534   9.981  11.246   5.078 -2.7856  2.5833 -0.4380
   95MOL0     H12535  10.006  11.411   5.035 -1.0230  0.9760  2.7617
   95MOL0     H12536  10.049  11.384   5.270 -1.8621 -2.0922 -0.3239
   95MOL0     H12537  10.156  11.244   5.246  0.3547  0.0851 -0.3621
   95MOL0     H12538  10.433  11.559   5.200  0.1299 -0.0157  1.0847
   95MOL0     H12539   9.884  11.304   4.786  0.7057 -0.5043 -1.3143
   95MOL0     H12540   9.643  11.285   4.724  0.6115  2.2771  0.9650
   96MOL0     O12541   5.733   0.619   8.323 -0.2944  0.2124  0.6945
   96MOL0     C12542   5.820   0.712   8.321 -0.3078  0.4398  0.8314
   96MOL0     O12543   5.830   0.811   8.413 -0.2882  0.8229  0.5614
   96MOL0     C12544   5.708   0.861   8.463 -0.7700 -0.2321 -0.6343
   96MOL0     C12545   5.693   0.900   8.599  0.7162  1.2042 -0.1700
   96MOL0     C12546   5.564   0.938   8.647 -0.1376  0.1664 -0.3920
   96MOL0     C12547   5.451   0.955   8.568 -0.2437  0.5625  0.6187
   96MOL0     O12548   5.325   0.983   8.616  0.1845  0.1675  0.1609
   96MOL0     C12549   5.210   0.925   8.555  0.3665  0.8675 -0.9281
   96MOL0     C12550   5.189   0.772   8.575  0.5358 -0.0444 -0.1454
   96MOL0     C12551   5.056   0.740   8.659 -0.0002  0.0865 -0.2732
   96MOL0     C12552   4.930   0.787   8.588  0.4280  0.4641 -0.2651
   96MOL0     C12553   4.818   0.689   8.629  0.6716 -0.1601  0.2019
   96MOL0     C12554   4.688   0.681   8.540 -0.4747  0.8226 -0.4370
   96MOL0     C12555   4.573   0.594   8.602  0.0907  0.3498 -0.6058
   96MOL0     C12556   4.575   0.436   8.572  0.1510  0.8110 -0.0688
   96MOL0     N12557   4.450   0.363   8.615  0.5801  0.0150 -0.1572
   96MOL0     C12558   4.377   0.295   8.519  0.1773  0.4259 -0.6148
   96MOL0     C12559   4.301   0.206   8.588 -0.4342  0.4053 -0.2201
   96MOL0     C12560   4.231   0.086   8.521 -0.2153 -0.8942  0.1916
   96MOL0     C12561   4.099   0.041   8.590 -0.2902 -0.1955 -0.2245
   96MOL0     C12562   3.999   0.158   8.609 -0.2797  0.0867 -0.2332
   96MOL0     C12563   3.874   0.110   8.674  0.1171 -0.3135 -0.5249
   96MOL0     O12564   3.804   0.042   8.569 -0.0419  0.9845  0.4402
   96MOL0     C12565   3.665   0.020   8.573  0.3461 -0.2646 -0.6335
   96MOL0     C12566   3.581   0.050   8.687  0.1423 -0.8884  1.0559
   96MOL0     C12567   3.449   0.023   8.679 -0.0168  0.5892  0.5108
   96MOL0     C12568   3.394  -0.046   8.571  0.7351  0.0310 -0.5336
   96MOL0     C12569   3.247  -0.081   8.567 -0.0741  0.1710 -0.0137
   96MOL0     O12570   3.206  -0.163   8.474  0.5792  0.1820 -0.1528
   96MOL0     C12571   3.089  -0.237   8.485  0.3257  0.1424 -0.2181
   96MOL0     C12572   3.082  -0.348   8.403 -0.2684 -0.0283  0.6326
   96MOL0     C12573   2.968  -0.429   8.393  0.1261 -0.4279 -0.6918
   96MOL0     C12574   2.857  -0.397   8.471  0.5949 -0.2490  0.3732
   96MOL0     O12575   2.734  -0.461   8.462 -0.5754 -0.5943  0.8493
   96MOL0     C12576   2.749  -0.603   8.433  0.0362  1.2923  0.1893
   96MOL0     C12577   2.603  -0.654   8.451  0.1050 -0.7532  0.8299
   96MOL0     C12578   2.528  -0.598   8.328 -0.4272 -0.3414  0.3556
   96MOL0     C12579   2.380  -0.632   8.350  0.5051 -0.0859  0.0360
   96MOL0     C12580   2.307  -0.616   8.219  0.3009  0.1403  0.0386
   96MOL0     C12581   2.159  -0.651   8.224  0.2292  0.4318 -0.0367
   96MOL0     C12582   2.091  -0.595   8.107 -0.3971  0.6675 -0.6886
   96MOL0     C12583   1.946  -0.647   8.118  0.3347 -0.7111  0.5156
   96MOL0    Cl12584   1.944  -0.821   8.063  0.3052 -0.2213 -0.1848
   96MOL0     C12585   2.853  -0.278   8.543 -1.0535  0.0518 -0.9519
   96MOL0     C12586   2.974  -0.202   8.553  0.3187 -0.2687  0.4234
   96MOL0     O12587   3.178  -0.034   8.652 -0.1186 -0.5778 -0.6695
   96MOL0     C12588   3.477  -0.075   8.458 -0.7169  0.0963 -0.3887
   96MOL0     C12589   3.608  -0.049   8.471 -0.2287 -0.6878  0.2274
   96MOL0     N12590   4.343   0.210   8.724  0.7444  0.8991 -0.0966
   96MOL0     N12591   4.425   0.302   8.735 -0.0591  0.3825 -0.1671
   96MOL0     C12592   5.474   0.930   8.428  0.1299 -0.3330 -0.2502
   96MOL0     C12593   5.593   0.878   8.382  0.6260  0.2742  0.0284
   96MOL0     C12594   5.897   0.719   8.199 -0.4656  0.5247 -0.6328
   96MOL0     C12595   6.001   0.817   8.190 -0.4786  0.7009 -0.1653
   96MOL0     C12596   6.093   0.814   8.085 -0.7749  0.6321 -0.0127
   96MOL0     C12597   6.063   0.735   7.964 -0.0701 -1.6703  0.2040
   96MOL0     O12598   6.130   0.740   7.842  0.1138 -0.2756  0.8949
   96MOL0     C12599   6.241   0.826   7.822  0.2802  0.2461  0.0054
   96MOL0     C12600   6.363   0.747   7.865  0.1398 -0.3970 -0.0327
   96MOL0     C12601   6.437   0.690   7.737 -0.1684 -0.1410 -0.0601
   96MOL0     C12602   6.467   0.770   7.616  0.0227  0.2139 -0.1923
   96MOL0     C12603   6.510   0.906   7.648 -0.3288  0.0949 -0.2128
   96MOL0     C12604   6.551   1.017   7.679  0.1255 -0.7053  0.1537
   96MOL0     C12605   5.953   0.648   7.968 -0.6708 -0.6178 -0.4303
   96MOL0     C12606   5.872   0.633   8.086 -0.1392  0.2544 -0.0899
   96MOL0     H12607   5.781   0.892   8.662 -0.2410 -2.3236  0.8940
   96MOL0     H12608   5.556   0.955   8.754 -1.9186 -2.6311  0.0157
   96MOL0     H12609   5.211   0.942   8.447 -1.3157  1.5145 -0.8655
   96MOL0     H12610   5.124   0.985   8.587  1.6772  0.7784  3.3697
   96MOL0     H12611   5.274   0.718   8.618  1.7679  1.2161 -0.9409
   96MOL0     H12612   5.183   0.726   8.476  2.9047 -0.5307 -0.1206
   96MOL0     H12613   5.058   0.779   8.761 -0.4627 -3.2923  1.1392
   96MOL0     H12614   5.048   0.632   8.667  0.7872  0.1460  2.0128
   96MOL0     H12615   4.902   0.886   8.623 -0.6399  0.0288  0.1555
   96MOL0     H12616   4.945   0.790   8.479  1.1387  1.4724 -0.1541
   96MOL0     H12617   4.790   0.725   8.728  0.4239  3.4827 -1.0398
   96MOL0     H12618   4.852   0.585   8.631  1.4686  0.1038  1.8884
   96MOL0     H12619   4.698   0.642   8.438 -3.0434  0.4597 -0.6181
   96MOL0     H12620   4.647   0.782   8.538 -0.4295  0.8295 -1.0231
   96MOL0     H12621   4.571   0.602   8.711  0.2454 -2.5296 -0.3148
   96MOL0     H12622   4.479   0.626   8.556 -0.4816 -0.7165 -0.2186
   96MOL0     H12623   4.661   0.400   8.630 -1.2046  0.8791  2.1271
   96MOL0     H12624   4.595   0.417   8.467  0.2027  0.0097  0.0764
   96MOL0     H12625   4.387   0.289   8.412  3.1514 -0.7987 -0.3722
   96MOL0     H12626   4.304   0.004   8.523 -0.4312 -1.0945  2.4132
   96MOL0     H12627   4.211   0.113   8.417 -1.0106 -2.6703 -0.1466
   96MOL0     H12628   4.130   0.002   8.687 -0.9194 -0.4338 -0.1148
   96MOL0     H12629   4.057  -0.042   8.532  0.1136 -0.1724 -0.5498
   96MOL0     H12630   4.058   0.225   8.672  2.8837 -2.0484 -0.6938
   96MOL0     H12631   3.975   0.210   8.516 -0.3219  1.4383  0.4968
   96MOL0     H12632   3.809   0.193   8.705  0.6360  0.0813 -0.4857
   96MOL0     H12633   3.905   0.051   8.760  2.8197 -1.0729 -1.9314
   96MOL0     H12634   3.627   0.101   8.771  1.1585 -1.6032  0.9531
   96MOL0     H12635   3.392   0.049   8.767 -1.6475  3.1812 -1.1710
   96MOL0     H12636   3.167  -0.375   8.341 -1.0978  1.9984 -1.5652
   96MOL0     H12637   2.968  -0.507   8.318  0.5068  0.7803 -1.9899
   96MOL0     H12638   2.814  -0.647   8.509  0.4646  0.2639 -0.7586
   96MOL0     H12639   2.788  -0.637   8.337 -0.6259  0.9048  0.0512
   96MOL0     H12640   2.561  -0.616   8.545 -1.1119  1.9440 -0.6872
   96MOL0     H12641   2.584  -0.761   8.448 -1.2578 -0.5140  0.2946
   96MOL0     H12642   2.570  -0.646   8.240 -1.4434  0.3495 -0.5400
   96MOL0     H12643   2.553  -0.492   8.320  0.1518 -0.5204 -0.2514
   96MOL0     H12644   2.363  -0.739   8.369  1.9551 -0.7233 -1.9484
   96MOL0     H12645   2.344  -0.567   8.430  2.3237  0.3050  0.5790
   96MOL0     H12646   2.360  -0.683   8.151  2.0522  1.3871  0.1320
   96MOL0     H12647   2.304  -0.512   8.187 -1.2528  0.1066 -0.0399
   96MOL0     H12648   2.118  -0.615   8.319 -0.3044  0.5895 -0.3249
   96MOL0     H12649   2.151  -0.760   8.231  2.7011  0.2560  1.1607
   96MOL0     H12650   2.086  -0.486   8.107 -2.7306  0.7431  3.0989
   96MOL0     H12651   2.140  -0.634   8.017 -0.0720  0.3531 -0.3779
   96MOL0     H12652   1.876  -0.588   8.059  0.9462  0.2819  0.7700
   96MOL0     H12653   1.905  -0.636   8.218 -2.3524 -1.2020 -0.4450
   96MOL0     H12654   2.758  -0.256   8.590  0.2912  0.7433  1.6495
   96MOL0     H12655   2.973  -0.116   8.620  1.7480  0.6434 -0.6813
   96MOL0     H12656   3.447  -0.117   8.363  0.4295 -0.3552 -0.5696
   96MOL0     H12657   3.679  -0.072   8.392 -0.2879  1.2099 -0.4424
   96MOL0     H12658   5.392   0.952   8.359 -1.2310 -1.6710  0.8589
   96MOL0     H12659   5.601   0.867   8.275  2.6642  1.3753  0.0162
   96MOL0     H12660   6.019   0.887   8.271 -1.4234 -1.5187  2.0769
   96MOL0     H12661   6.165   0.895   8.082  0.2835 -0.0363  3.3502
   96MOL0     H12662   6.237   0.918   7.881 -2.7240  1.5981 -2.0200
   96MOL0     H12663   6.254   0.863   7.719  1.2473 -3.7470 -1.4940
   96MOL0     H12664   6.433   0.814   7.916  0.6176  0.1309 -1.3278
   96MOL0     H12665   6.336   0.667   7.935  1.5714  1.4654  2.8235
   96MOL0     H12666   6.363   0.617   7.702 -0.3946  0.4390 -0.8371
   96MOL0     H12667   6.524   0.638   7.776 -0.6150 -0.8641 -0.0204
   96MOL0     H12668   6.551   0.732   7.557  0.5542 -0.6533  1.0683
   96MOL0     H12669   6.372   0.778   7.563  0.2330  0.8518 -0.4872
   96MOL0     H12670   6.592   1.110   7.713  1.4068 -0.2822 -2.3571
   96MOL0     H12671   5.935   0.578   7.887  1.6600 -0.4285 -1.1931
   96MOL0     H12672   5.793   0.560   8.100  0.2018  0.3218  2.7403
   97MOL0     O12673   1.142   5.092   5.808  0.0061 -0.4004  0.0750
   97MOL0     C12674   1.192   5.177   5.733 -0.0600  0.2085 -0.8105
   97MOL0     O12675   1.121   5.281   5.677 -0.2808  0.9944  0.3381
   97MOL0     C12676   0.990   5.294   5.692 -0.1939  0.2805  0.6597
   97MOL0     C12677   0.951   5.418   5.731 -0.1385 -0.1966  0.1688
   97MOL0     C12678   0.815   5.440   5.759 -0.2174  0.4089  0.0871
   97MOL0     C12679   0.715   5.341   5.731 -0.0233  0.5309  0.5804
   97MOL0     O12680   0.588   5.372   5.746 -0.9197  0.4913  0.4942
   97MOL0     C12681   0.499   5.331   5.643  0.2464 -0.1298 -0.2062
   97MOL0     C12682   0.381   5.424   5.652  0.3513 -0.6196  0.2348
   97MOL0     C12683   0.261   5.382   5.569  0.3481  0.5891  0.9967
   97MOL0     C12684   0.144   5.466   5.593 -0.5612 -0.4317 -1.6608
   97MOL0     C12685   0.035   5.421   5.503 -0.2096 -0.7010 -0.5789
   97MOL0     C12686  -0.084   5.523   5.512 -0.4640  0.6531 -0.6246
   97MOL0     C12687  -0.205   5.473   5.440  1.7401  0.2995  0.6610
   97MOL0     C12688  -0.217   5.525   5.293 -0.7107 -0.1007 -0.0790
   97MOL0     N12689  -0.247   5.668   5.273 -0.4052 -0.3294 -0.3769
   97MOL0     C12690  -0.342   5.736   5.351  0.1235 -0.5199  0.6396
   97MOL0     C12691  -0.356   5.863   5.297  0.2441  0.6844  0.1736
   97MOL0     C12692  -0.457   5.968   5.341 -0.0051  0.1642 -0.5720
   97MOL0     C12693  -0.572   5.979   5.244 -0.1629  0.3347 -0.8773
   97MOL0     C12694  -0.680   6.054   5.309 -0.1274 -1.1482 -0.8050
   97MOL0     C12695  -0.810   6.030   5.229 -1.1165 -0.7838  0.7640
   97MOL0     O12696  -0.911   6.085   5.303 -0.6096  0.7577 -0.5054
   97MOL0     C12697  -1.043   6.097   5.245  0.3730 -0.3339  0.7492
   97MOL0     C12698  -1.073   6.033   5.125  0.1336  0.5635 -0.3482
   97MOL0     C12699  -1.205   6.048   5.072  0.1612  0.8670  0.1211
   97MOL0     C12700  -1.316   6.106   5.138  0.4252  0.0392 -0.3580
   97MOL0     C12701  -1.454   6.127   5.072 -0.4641 -0.4678 -0.9629
   97MOL0     O12702  -1.554   6.176   5.161  0.2336  0.6962 -0.1809
   97MOL0     C12703  -1.680   6.204   5.121 -0.7042  0.4273  0.3241
   97MOL0     C12704  -1.763   6.226   5.239 -0.2899  0.3356  0.2868
   97MOL0     C12705  -1.899   6.254   5.208  0.1974  0.1807  0.4450
   97MOL0     C12706  -1.950   6.268   5.069 -0.1532  0.3074  0.0374
   97MOL0     O12707  -2.075   6.317   5.035 -0.4363  0.1303 -0.0939
   97MOL0     C12708  -2.179   6.305   5.135 -0.2530  0.4556 -0.1438
   97MOL0     C12709  -2.320   6.337   5.085  0.3573 -0.4542  0.1870
   97MOL0     C12710  -2.331   6.480   5.015 -0.8874  0.8102 -0.7753
   97MOL0     C12711  -2.476   6.493   4.963 -0.1428  0.2022 -0.2133
   97MOL0     C12712  -2.487   6.610   4.870 -0.5148 -0.8691  0.7799
   97MOL0     C12713  -2.613   6.619   4.780  0.8887 -0.0070 -0.4308
   97MOL0     C12714  -2.613   6.528   4.656  1.4573  0.6616  1.1067
   97MOL0     C12715  -2.756   6.525   4.589 -0.4000  0.2167  0.0803
   97MOL0    Cl12716  -2.761   6.433   4.440  0.1272 -0.2366 -0.4131
   97MOL0     C12717  -1.864   6.234   4.960  0.4056  0.1297  0.0498
   97MOL0     C12718  -1.733   6.198   4.986  0.2582  0.0941  0.0807
   97MOL0     O12719  -1.457   6.107   4.953  0.4409 -0.3367  0.1828
   97MOL0     C12720  -1.276   6.171   5.259 -0.2654 -0.0025  0.3661
   97MOL0     C12721  -1.144   6.166   5.311  0.3330  0.1932  0.2291
   97MOL0     N12722  -0.269   5.868   5.193  0.0209  0.5435  0.4376
   97MOL0     N12723  -0.204   5.751   5.178 -0.1968 -0.2093 -0.0568
   97MOL0     C12724   0.754   5.212   5.681  0.1374  0.2871 -0.1724
   97MOL0     C12725   0.895   5.192   5.666 -0.3403  0.0386  0.0641
   97MOL0     C12726   1.337   5.174   5.714  0.2252 -0.4660  0.4383
   97MOL0     C12727   1.425   5.098   5.797  1.3535 -0.3801  0.5472
   97MOL0     C12728   1.560   5.111   5.776  0.0379  0.2838 -0.8831
   97MOL0     C12729   1.612   5.195   5.681 -0.3330 -0.6735  0.4195
   97MOL0     O12730   1.746   5.181   5.655  0.2964 -0.1966  0.0732
   97MOL0     C12731   1.813   5.277   5.563  0.7139  1.1861 -0.6776
   97MOL0     C12732   1.961   5.250   5.534  1.1669 -0.0245 -0.2720
   97MOL0     C12733   2.055   5.266   5.657  0.3397 -0.3197  0.2104
   97MOL0     C12734   2.198   5.228   5.620  0.4543  0.3494  0.9210
   97MOL0     C12735   2.286   5.228   5.742  0.4406 -0.1236 -0.3009
   97MOL0     C12736   2.348   5.230   5.848  0.4167 -0.3078  0.3693
   97MOL0     C12737   1.532   5.285   5.615  0.1633  0.4526  0.9353
   97MOL0     C12738   1.393   5.275   5.643 -0.5102 -0.3001  0.0402
   97MOL0     H12739   1.033   5.487   5.749  2.8788 -3.2193 -1.0222
   97MOL0     H12740   0.777   5.538   5.786  0.8744  0.7240  0.5265
   97MOL0     H12741   0.459   5.232   5.666  0.9660 -0.1704  0.9154
   97MOL0     H12742   0.544   5.331   5.543 -1.1768 -2.2677 -0.9169
   97MOL0     H12743   0.411   5.520   5.610  0.5938  0.4423  2.6902
   97MOL0     H12744   0.351   5.439   5.756 -0.4047  2.1269 -0.2966
   97MOL0     H12745   0.236   5.276   5.581 -2.0227 -0.2279 -6.3759
   97MOL0     H12746   0.289   5.385   5.463  0.0658  0.1715  0.9090
   97MOL0     H12747   0.114   5.461   5.698  2.2233 -0.7191 -0.8000
   97MOL0     H12748   0.166   5.573   5.578 -3.6830  0.3500 -1.2296
   97MOL0     H12749  -0.007   5.327   5.540 -0.8456 -0.2586 -0.1690
   97MOL0     H12750   0.082   5.412   5.405  0.7001 -2.4819 -0.0243
   97MOL0     H12751  -0.058   5.622   5.475  1.7915 -0.1608 -1.4000
   97MOL0     H12752  -0.102   5.535   5.620  1.8268  1.7054 -0.3010
   97MOL0     H12753  -0.187   5.365   5.429 -0.6497 -0.2373  1.3551
   97MOL0     H12754  -0.301   5.476   5.491  0.7436 -0.1334 -1.1066
   97MOL0     H12755  -0.288   5.458   5.244 -0.0383 -0.2634 -0.8499
   97MOL0     H12756  -0.128   5.493   5.238 -0.2195 -1.6044  1.5107
   97MOL0     H12757  -0.386   5.709   5.446 -1.5414  3.0710  1.0402
   97MOL0     H12758  -0.404   6.063   5.329 -1.3591  1.2511  1.4114
   97MOL0     H12759  -0.479   5.958   5.448  1.3150 -0.8534 -0.3662
   97MOL0     H12760  -0.608   5.877   5.230  1.8132 -0.9286  2.2355
   97MOL0     H12761  -0.545   6.020   5.146  1.1683  1.7500  0.0183
   97MOL0     H12762  -0.697   6.022   5.412 -0.7898  0.4071 -0.3980
   97MOL0     H12763  -0.667   6.162   5.304 -1.3597 -0.8642  1.1382
   97MOL0     H12764  -0.824   5.925   5.203  2.0114 -0.9721 -0.6542
   97MOL0     H12765  -0.787   6.083   5.136  0.0908  1.9626  2.4782
   97MOL0     H12766  -0.996   5.975   5.077 -0.8261 -2.2713  1.3074
   97MOL0     H12767  -1.226   6.010   4.973  1.5617 -0.5704  0.3365
   97MOL0     H12768  -1.729   6.219   5.342  0.4488  1.5982  0.1508
   97MOL0     H12769  -1.967   6.279   5.289 -1.7874  0.6765 -1.2833
   97MOL0     H12770  -2.161   6.377   5.216  1.5173 -0.7995  0.6314
   97MOL0     H12771  -2.177   6.204   5.178 -0.0719 -0.7618 -2.8536
   97MOL0     H12772  -2.389   6.341   5.169 -1.7578  0.7866 -1.5044
   97MOL0     H12773  -2.336   6.251   5.019  1.5140 -0.2280 -0.4180
   97MOL0     H12774  -2.261   6.484   4.931 -1.1724  0.6826 -1.0193
   97MOL0     H12775  -2.314   6.559   5.089  2.0065  0.8804 -1.3960
   97MOL0     H12776  -2.524   6.401   4.928 -1.2207  0.7003 -0.0894
   97MOL0     H12777  -2.549   6.516   5.041 -2.6195 -2.7808 -1.4138
   97MOL0     H12778  -2.402   6.599   4.803 -0.3893  1.1308  0.5527
   97MOL0     H12779  -2.469   6.701   4.928 -0.1717  0.6061 -1.5081
   97MOL0     H12780  -2.633   6.721   4.748 -3.6366 -0.2942  0.8164
   97MOL0     H12781  -2.698   6.600   4.847  0.3298  0.7548 -0.9105
   97MOL0     H12782  -2.542   6.555   4.576  1.1597 -1.6949 -0.0264
   97MOL0     H12783  -2.592   6.424   4.680  1.8142  0.1333 -1.1735
   97MOL0     H12784  -2.784   6.628   4.566 -1.2264  0.0745  0.4253
   97MOL0     H12785  -2.828   6.492   4.665 -2.5500  1.8999 -1.1124
   97MOL0     H12786  -1.898   6.253   4.859  0.7317  1.2344  0.1358
   97MOL0     H12787  -1.661   6.190   4.905 -0.8599 -2.9058 -0.7338
   97MOL0     H12788  -1.339   6.242   5.310  1.2544 -0.1886  2.6331
   97MOL0     H12789  -1.117   6.212   5.405 -0.5989  1.5594 -0.1349
   97MOL0     H12790   0.680   5.136   5.661 -2.4171  2.8851 -1.3735
   97MOL0     H12791   0.934   5.094   5.640 -0.7159 -0.4430  1.2135
   97MOL0     H12792   1.393   5.027   5.873  2.9490 -1.4036  0.2991
   97MOL0     H12793   1.630   5.056   5.838 -0.4464 -0.8243 -1.2974
   97MOL0     H12794   1.799   5.376   5.605  1.2404  1.4526 -1.1171
   97MOL0     H12795   1.752   5.274   5.472  0.8288 -3.1355 -0.8590
   97MOL0     H12796   1.985   5.154   5.486 -0.0666  0.2140 -1.4286
   97MOL0     H12797   1.996   5.324   5.462  2.9829 -1.0577 -0.5309
   97MOL0     H12798   2.020   5.204   5.740 -0.9343  2.7061  2.1116
   97MOL0     H12799   2.055   5.368   5.698  2.5454 -0.6149  1.0509
   97MOL0     H12800   2.196   5.133   5.565  0.5427  1.7437 -1.6577
   97MOL0     H12801   2.237   5.300   5.547  1.7979 -1.7367 -0.5502
   97MOL0     H12802   2.410   5.248   5.934  0.9438  3.0916 -0.6000
   97MOL0     H12803   1.567   5.342   5.529  2.2285 -1.6658  0.2894
   97MOL0     H12804   1.332   5.352   5.598 -1.2522 -0.8133  0.1441
   98MOL0     O12805   1.436   0.345   4.553 -0.0934  0.0416  0.5156
   98MOL0     C12806   1.487   0.233   4.548  0.6027  0.3448 -0.1604
   98MOL0     O12807   1.420   0.112   4.548  0.0257  0.0984 -0.3337
   98MOL0     C12808   1.282   0.096   4.578  0.3906  0.5269 -0.0713
   98MOL0     C12809   1.201   0.198   4.640 -0.4417  0.8451 -0.0017
   98MOL0     C12810   1.073   0.165   4.673 -0.0311 -0.3569 -0.6587
   98MOL0     C12811   1.002   0.048   4.632 -0.6633 -0.3244  0.1882
   98MOL0     O12812   0.868   0.025   4.646 -0.4967  0.5675  0.9285
   98MOL0     C12813   0.792   0.130   4.714  0.6190  0.1937 -0.4410
   98MOL0     C12814   0.644   0.092   4.724 -0.5418 -0.5560  0.1995
   98MOL0     C12815   0.555   0.208   4.776 -0.5609  0.3029  0.1853
   98MOL0     C12816   0.409   0.158   4.785 -1.1298  0.1068  0.2229
   98MOL0     C12817   0.319   0.277   4.820  0.7828 -0.6886 -0.4891
   98MOL0     C12818   0.168   0.253   4.813 -0.7880 -0.4809 -0.2857
   98MOL0     C12819   0.082   0.364   4.882  0.2515 -0.0296  0.6301
   98MOL0     C12820  -0.000   0.309   4.994  0.1017 -0.0004  0.5423
   98MOL0     N12821  -0.091   0.406   5.055 -0.0853  0.1566 -0.0731
   98MOL0     C12822  -0.191   0.472   4.996  0.3222 -0.5340  0.8342
   98MOL0     C12823  -0.256   0.539   5.094 -0.6963  0.4589 -0.6909
   98MOL0     C12824  -0.365   0.639   5.083 -0.8042 -0.3479 -0.1060
   98MOL0     C12825  -0.504   0.578   5.109 -0.1434 -0.1327 -0.8162
   98MOL0     C12826  -0.540   0.455   5.019  0.2496  0.2533  0.9167
   98MOL0     C12827  -0.532   0.485   4.866  0.7323  0.6187  0.6595
   98MOL0     O12828  -0.596   0.373   4.791  0.6264 -0.3855 -0.3356
   98MOL0     C12829  -0.731   0.378   4.770  0.1272 -0.6386 -0.6241
   98MOL0     C12830  -0.820   0.468   4.834 -0.6024 -0.0535  0.2990
   98MOL0     C12831  -0.960   0.461   4.814  0.5936 -0.8732  0.5995
   98MOL0     C12832  -1.009   0.354   4.734 -1.0126 -0.5863 -0.3599
   98MOL0     C12833  -1.155   0.335   4.724 -1.2609  0.3518  0.0587
   98MOL0     O12834  -1.232   0.429   4.774  0.6872  0.1458 -0.6034
   98MOL0     C12835  -1.370   0.409   4.794 -0.4121 -0.5624 -0.3313
   98MOL0     C12836  -1.414   0.400   4.928 -0.2513  0.4460  0.1920
   98MOL0     C12837  -1.558   0.396   4.951  0.6324  0.7154  0.1804
   98MOL0     C12838  -1.642   0.405   4.846  0.0204 -1.0231 -0.1190
   98MOL0     O12839  -1.773   0.437   4.875 -0.4972  1.0283 -0.0251
   98MOL0     C12840  -1.822   0.565   4.832  0.1318  0.0424 -0.1408
   98MOL0     C12841  -1.962   0.599   4.892  0.0287  0.2974  0.2456
   98MOL0     C12842  -1.946   0.604   5.042 -0.0109 -0.1734  0.7485
   98MOL0     C12843  -2.086   0.648   5.097  0.4046  0.7290 -0.3296
   98MOL0     C12844  -2.199   0.559   5.062  0.5733 -0.2751  0.8107
   98MOL0     C12845  -2.328   0.589   5.137 -0.1183 -0.4197  0.1822
   98MOL0     C12846  -2.418   0.467   5.168 -0.5120  0.5522 -0.0630
   98MOL0     C12847  -2.446   0.394   5.041  0.7592 -0.2188 -0.4092
   98MOL0    Cl12848  -2.572   0.281   5.070 -0.2353  0.7229 -0.0374
   98MOL0     C12849  -1.596   0.420   4.710 -0.1272  0.7999 -0.3808
   98MOL0     C12850  -1.464   0.424   4.688 -0.2259  0.4504 -1.0530
   98MOL0     O12851  -1.192   0.228   4.685 -0.2941 -0.3418  0.1224
   98MOL0     C12852  -0.924   0.268   4.672  0.1884  0.2738  0.8219
   98MOL0     C12853  -0.787   0.278   4.686 -0.0012 -1.0177 -0.0251
   98MOL0     N12854  -0.183   0.517   5.218 -0.3105  0.6108  0.4189
   98MOL0     N12855  -0.086   0.441   5.185  0.1350 -0.4380 -0.7215
   98MOL0     C12856   1.074  -0.045   4.574 -0.3794 -0.6425  0.1043
   98MOL0     C12857   1.214  -0.027   4.554 -0.2171 -0.1874  0.2059
   98MOL0     C12858   1.632   0.213   4.526  0.2603 -0.7735 -0.5164
   98MOL0     C12859   1.710   0.329   4.527 -0.8695  0.3053  0.1502
   98MOL0     C12860   1.847   0.326   4.500 -0.7271  0.5634 -0.8928
   98MOL0     C12861   1.914   0.206   4.490 -0.1698  0.5058  0.3244
   98MOL0     O12862   2.053   0.206   4.458 -0.4813  1.1344 -0.5722
   98MOL0     C12863   2.094   0.116   4.347  0.1710 -0.2551  1.3151
   98MOL0     C12864   2.164  -0.006   4.389 -0.6034  0.8884 -0.6186
   98MOL0     C12865   2.301   0.031   4.466  0.1353  0.1764 -0.1343
   98MOL0     C12866   2.372  -0.103   4.516  1.0232 -0.7806 -0.0163
   98MOL0     C12867   2.421  -0.188   4.407  0.5922  0.3776  0.0773
   98MOL0     C12868   2.475  -0.235   4.310 -0.2549 -0.3553  0.5499
   98MOL0     C12869   1.831   0.094   4.485 -0.0394 -0.1535  0.0590
   98MOL0     C12870   1.691   0.096   4.501  0.4576  1.0541  0.3437
   98MOL0     H12871   1.258   0.288   4.660  1.5145 -0.1074 -0.9700
   98MOL0     H12872   1.015   0.242   4.723  1.9984  1.5746 -1.1349
   98MOL0     H12873   0.812   0.229   4.672 -1.4702  0.6285 -0.5096
   98MOL0     H12874   0.824   0.133   4.818 -1.4958  1.5399  0.2387
   98MOL0     H12875   0.643   0.002   4.786  0.8230  0.2987  1.5458
   98MOL0     H12876   0.600   0.060   4.629 -1.0659 -1.4220  0.7199
   98MOL0     H12877   0.536   0.285   4.700 -0.9683  1.1822  1.1627
   98MOL0     H12878   0.589   0.253   4.870 -0.5130  1.2189 -0.2530
   98MOL0     H12879   0.372   0.113   4.692  0.9293  1.0597 -1.1240
   98MOL0     H12880   0.390   0.084   4.863 -1.7257 -0.8313 -0.7753
   98MOL0     H12881   0.325   0.362   4.752 -0.1351  1.1472  1.6039
   98MOL0     H12882   0.344   0.304   4.923 -1.8356 -3.0479  0.9104
   98MOL0     H12883   0.141   0.153   4.849  1.1443 -0.9756 -0.1305
   98MOL0     H12884   0.130   0.245   4.711 -1.4405 -3.3107  0.1087
   98MOL0     H12885   0.151   0.439   4.921  1.0422 -0.2978 -0.2142
   98MOL0     H12886   0.012   0.413   4.813  1.7716 -1.0346 -1.7343
   98MOL0     H12887   0.069   0.276   5.073  1.0526  0.5204 -0.0500
   98MOL0     H12888  -0.065   0.225   4.967  0.0356  0.1360  0.2741
   98MOL0     H12889  -0.214   0.475   4.890  1.2531 -2.5039  0.5326
   98MOL0     H12890  -0.373   0.692   4.987  2.7045  1.5730  0.4834
   98MOL0     H12891  -0.355   0.720   5.156 -2.9023  2.2858 -2.5016
   98MOL0     H12892  -0.576   0.658   5.089 -0.1900  0.0784  0.1391
   98MOL0     H12893  -0.502   0.562   5.218  0.6429  3.4416 -0.1843
   98MOL0     H12894  -0.481   0.365   5.042  1.6033  0.9625  0.3479
   98MOL0     H12895  -0.643   0.427   5.042  0.2499 -1.4088 -0.7501
   98MOL0     H12896  -0.425   0.481   4.844  0.8114 -1.0009  1.1747
   98MOL0     H12897  -0.575   0.583   4.846  0.7031  0.2682 -1.1821
   98MOL0     H12898  -0.796   0.562   4.883  1.2946 -1.0450  1.3650
   98MOL0     H12899  -1.026   0.535   4.857  1.9949  1.8162 -1.5304
   98MOL0     H12900  -1.344   0.388   5.009 -0.3919  0.1467  0.2711
   98MOL0     H12901  -1.601   0.409   5.049  1.8424  0.9508  0.7028
   98MOL0     H12902  -1.825   0.579   4.723 -1.2470 -0.2760 -0.1554
   98MOL0     H12903  -1.754   0.644   4.866 -0.8748  0.1405  1.7332
   98MOL0     H12904  -2.038   0.531   4.852 -0.7409  0.3144  1.6036
   98MOL0     H12905  -1.986   0.703   4.867  0.2315  1.4275  4.0618
   98MOL0     H12906  -1.876   0.685   5.064 -3.2794  2.6400  1.6436
   98MOL0     H12907  -1.909   0.509   5.082 -0.9872 -1.4010 -1.0999
   98MOL0     H12908  -2.076   0.658   5.205  0.6490  0.9292 -0.3705
   98MOL0     H12909  -2.118   0.744   5.056  0.0354  0.5664 -0.4237
   98MOL0     H12910  -2.157   0.462   5.090  1.5745 -0.0106  0.2679
   98MOL0     H12911  -2.215   0.577   4.955  1.9240  1.6504  0.8880
   98MOL0     H12912  -2.381   0.658   5.071  0.6753 -0.4716 -0.5229
   98MOL0     H12913  -2.307   0.641   5.231 -0.4722 -0.2531  0.1671
   98MOL0     H12914  -2.363   0.409   5.242 -1.3792 -0.6670 -0.3467
   98MOL0     H12915  -2.508   0.496   5.223 -0.5305  0.3142  0.0307
   98MOL0     H12916  -2.355   0.335   5.025 -0.5010 -2.3973  0.0958
   98MOL0     H12917  -2.468   0.458   4.955 -1.2143  0.6305  0.6646
   98MOL0     H12918  -1.651   0.433   4.617  2.3684  2.2331 -1.7590
   98MOL0     H12919  -1.417   0.446   4.593 -0.4119  0.3022 -1.1801
   98MOL0     H12920  -0.967   0.178   4.630 -1.0640  2.0780 -2.0312
   98MOL0     H12921  -0.723   0.200   4.644 -0.6744 -1.1928 -0.7478
   98MOL0     H12922   1.020  -0.136   4.550  0.7326 -1.3678  0.3111
   98MOL0     H12923   1.282  -0.102   4.516 -0.9375 -0.8034  0.0941
   98MOL0     H12924   1.658   0.424   4.525 -0.2688  0.7530 -3.9615
   98MOL0     H12925   1.897   0.421   4.489  1.3435 -0.3209  0.3767
   98MOL0     H12926   2.149   0.173   4.271 -0.8726 -0.4340  0.3872
   98MOL0     H12927   2.003   0.086   4.294  2.0329 -2.5694 -0.7958
   98MOL0     H12928   2.094  -0.066   4.448 -1.0170  1.6891 -0.2815
   98MOL0     H12929   2.193  -0.059   4.297  4.6028 -0.0701  1.2540
   98MOL0     H12930   2.274   0.085   4.557  1.2812  0.4194  0.0840
   98MOL0     H12931   2.370   0.087   4.402  0.1685 -0.4194 -0.6339
   98MOL0     H12932   2.455  -0.075   4.582  4.0638 -0.3545 -3.6962
   98MOL0     H12933   2.295  -0.159   4.570  1.9298 -0.3775  1.7932
   98MOL0     H12934   2.518  -0.298   4.235  1.6475  1.2484  0.2429
   98MOL0     H12935   1.865  -0.008   4.465 -1.2617 -0.4168 -0.7891
   98MOL0     H12936   1.626   0.011   4.491  2.1730 -0.1125 -1.7092
   99MOL0     O12937   5.126   3.616   0.507  0.3415  0.2441 -0.4778
   99MOL0     C12938   5.126   3.739   0.489 -0.0392 -0.0861 -0.3955
   99MOL0     O12939   5.024   3.823   0.511  0.0750  0.5346 -0.8815
   99MOL0     C12940   4.907   3.768   0.560 -0.3026  0.4657 -0.1766
   99MOL0     C12941   4.786   3.792   0.496  0.1883 -0.0353  0.7739
   99MOL0     C12942   4.667   3.762   0.566  0.4417  0.5100 -0.3034
   99MOL0     C12943   4.669   3.673   0.682 -0.0289  0.6804  0.4412
   99MOL0     O12944   4.557   3.610   0.743 -1.0321  0.2925  0.1963
   99MOL0     C12945   4.431   3.617   0.672 -0.0287  0.0536 -0.2800
   99MOL0     C12946   4.352   3.531   0.770  0.5191 -0.8722 -0.2728
   99MOL0     C12947   4.204   3.556   0.750  0.4324 -0.2021 -0.1771
   99MOL0     C12948   4.115   3.475   0.840  0.3307  0.2128 -0.5104
   99MOL0     C12949   3.964   3.490   0.805  0.0148 -0.2458  0.1141
   99MOL0     C12950   3.866   3.464   0.919 -0.1013 -0.1432  0.9794
   99MOL0     C12951   3.728   3.508   0.888  0.4051  0.6688 -0.4496
   99MOL0     C12952   3.661   3.413   0.801  0.5744 -0.2959  0.9247
   99MOL0     N12953   3.517   3.449   0.806  0.2274  0.0436 -0.6222
   99MOL0     C12954   3.452   3.560   0.744 -0.7949  0.7853 -0.8032
   99MOL0     C12955   3.336   3.565   0.803 -0.6825 -0.7535  0.1997
   99MOL0     C12956   3.228   3.671   0.776  0.2923  0.0820  0.1705
   99MOL0     C12957   3.144   3.639   0.651  0.7303  0.7501  0.1013
   99MOL0     C12958   3.111   3.490   0.619 -0.2395 -0.1281 -0.7844
   99MOL0     C12959   3.019   3.474   0.501 -0.3555 -0.2944 -0.0532
   99MOL0     O12960   2.886   3.478   0.559 -0.0428 -0.2316  0.4122
   99MOL0     C12961   2.785   3.453   0.472 -0.0921  0.1084 -0.0419
   99MOL0     C12962   2.663   3.413   0.530 -0.2712  0.7853 -1.4830
   99MOL0     C12963   2.556   3.374   0.453 -0.1768 -1.0878  0.2667
   99MOL0     C12964   2.575   3.378   0.309 -0.1750 -0.0455 -0.1745
   99MOL0     C12965   2.455   3.378   0.217 -0.1157  0.6015  0.1431
   99MOL0     O12966   2.476   3.382   0.080  0.0410  0.2664 -0.3952
   99MOL0     C12967   2.354   3.378   0.010 -0.6512 -0.2611  0.7401
   99MOL0     C12968   2.314   3.255  -0.039  0.2355  0.2938  0.6154
   99MOL0     C12969   2.202   3.239  -0.123 -0.1063  0.3139 -0.5668
   99MOL0     C12970   2.122   3.353  -0.160 -0.5727 -0.6937 -0.0050
   99MOL0     O12971   2.023   3.338  -0.260 -0.0707 -0.4110 -0.3817
   99MOL0     C12972   1.892   3.383  -0.217  0.8105  0.5956 -0.6304
   99MOL0     C12973   1.796   3.305  -0.306  0.6400 -0.4539 -0.7168
   99MOL0     C12974   1.779   3.359  -0.445  0.4941  0.3474 -0.0080
   99MOL0     C12975   1.672   3.288  -0.520 -0.5373  1.1281 -0.8275
   99MOL0     C12976   1.651   3.344  -0.658  0.2442 -0.2606  0.2649
   99MOL0     C12977   1.555   3.242  -0.730  0.2255 -0.9129 -0.2044
   99MOL0     C12978   1.513   3.294  -0.866 -0.2026 -0.6621  0.0118
   99MOL0     C12979   1.368   3.342  -0.880  0.0858  0.2658  0.9386
   99MOL0    Cl12980   1.357   3.488  -0.784  0.1071  0.3844 -0.2095
   99MOL0     C12981   2.162   3.480  -0.100  0.2977  1.1109 -0.6394
   99MOL0     C12982   2.278   3.491  -0.024 -0.4365 -0.0761  0.2629
   99MOL0     O12983   2.344   3.371   0.271 -0.4377 -0.4016  0.3746
   99MOL0     C12984   2.704   3.401   0.257 -0.2730  0.3753  0.2010
   99MOL0     C12985   2.807   3.428   0.334 -0.0359  0.2373  0.2882
   99MOL0     N12986   3.327   3.459   0.892  0.3135 -0.0970  0.4898
   99MOL0     N12987   3.436   3.397   0.898 -0.5720  0.7287  0.1099
   99MOL0     C12988   4.795   3.643   0.732  0.9792 -0.3054  0.5812
   99MOL0     C12989   4.911   3.698   0.679  0.2153  0.0448 -0.2683
   99MOL0     C12990   5.251   3.802   0.451  0.5781 -1.1448 -0.0222
   99MOL0     C12991   5.370   3.725   0.426  0.3708 -0.4274  0.2869
   99MOL0     C12992   5.492   3.792   0.408  1.3203 -0.4125 -1.5486
   99MOL0     C12993   5.491   3.936   0.413  0.0334  0.6965 -0.5601
   99MOL0     O12994   5.615   3.974   0.380 -0.5336 -0.4132  0.3942
   99MOL0     C12995   5.639   4.114   0.333  0.4048 -0.2101  0.3107
   99MOL0     C12996   5.775   4.117   0.261  0.1884 -0.2832 -0.4725
   99MOL0     C12997   5.887   4.110   0.367  0.8323  0.0809  0.8233
   99MOL0     C12998   6.016   4.069   0.286 -0.5043  0.0795 -0.0633
   99MOL0     C12999   6.134   4.059   0.373  0.1431  0.1820  0.2069
   99MOL0     C13000   6.217   4.039   0.460  0.6770  0.5762  0.0902
   99MOL0     C13001   5.378   4.011   0.419 -0.9778 -0.1216 -0.8623
   99MOL0     C13002   5.260   3.940   0.444  0.4317 -0.2204 -0.2859
   99MOL0     H13003   4.791   3.846   0.402 -4.0857  1.5796  1.2618
   99MOL0     H13004   4.575   3.792   0.517  0.9353  0.0424 -1.5562
   99MOL0     H13005   4.429   3.578   0.570 -1.7631  2.3404 -1.2055
   99MOL0     H13006   4.392   3.718   0.660  1.4166  0.5658 -0.9212
   99MOL0     H13007   4.383   3.560   0.870 -1.5688  1.0350 -0.1135
   99MOL0     H13008   4.380   3.426   0.754 -3.6621 -2.4572  1.6284
   99MOL0     H13009   4.171   3.538   0.647  1.4194 -0.9632 -0.3861
   99MOL0     H13010   4.182   3.662   0.764  3.5774  0.8073 -1.8231
   99MOL0     H13011   4.144   3.370   0.835 -2.6686 -0.6646 -2.8081
   99MOL0     H13012   4.130   3.499   0.946 -2.4411 -0.9663  0.2234
   99MOL0     H13013   3.954   3.418   0.724  0.2259 -0.9771  0.7311
   99MOL0     H13014   3.943   3.593   0.773  0.7402  0.4228  1.6764
   99MOL0     H13015   3.894   3.517   1.010 -2.3953 -0.2332  1.8157
   99MOL0     H13016   3.885   3.359   0.943  1.1363  0.1138  1.1452
   99MOL0     H13017   3.667   3.491   0.977  0.3001 -3.8486 -1.1359
   99MOL0     H13018   3.722   3.609   0.847 -0.2630  1.4462  1.4189
   99MOL0     H13019   3.673   3.310   0.834  0.3658 -0.7499 -0.3442
   99MOL0     H13020   3.702   3.420   0.700  1.1551 -1.0239  1.1021
   99MOL0     H13021   3.493   3.626   0.667  1.3453 -0.6136 -0.9557
   99MOL0     H13022   3.277   3.769   0.770  4.1474 -1.5410  2.0353
   99MOL0     H13023   3.155   3.680   0.857 -0.1492 -0.9165 -0.1072
   99MOL0     H13024   3.198   3.685   0.568 -1.4103  2.7857 -0.2819
   99MOL0     H13025   3.054   3.701   0.659  2.2195  3.3425 -1.7426
   99MOL0     H13026   3.211   3.453   0.592  0.5783  1.2876  0.1513
   99MOL0     H13027   3.075   3.429   0.702 -0.7540  1.2271  0.0232
   99MOL0     H13028   3.045   3.380   0.451 -0.5227  0.1361 -0.9669
   99MOL0     H13029   3.040   3.552   0.427 -0.4356 -1.5352 -1.4332
   99MOL0     H13030   2.654   3.424   0.637 -0.7442 -0.2183 -1.4149
   99MOL0     H13031   2.459   3.357   0.499 -0.4601  1.0048  0.5245
   99MOL0     H13032   2.378   3.169  -0.026  1.4494  0.6676 -2.1361
   99MOL0     H13033   2.172   3.143  -0.163  1.1382 -1.5174  2.5438
   99MOL0     H13034   1.882   3.490  -0.235  1.8245  0.5945 -1.2985
   99MOL0     H13035   1.864   3.363  -0.113  2.7838  0.0494 -0.1553
   99MOL0     H13036   1.699   3.306  -0.254  0.3095  0.4095 -1.3338
   99MOL0     H13037   1.821   3.199  -0.302  0.7655 -0.4205 -0.6123
   99MOL0     H13038   1.879   3.348  -0.486  1.9521 -0.5889  3.4545
   99MOL0     H13039   1.749   3.464  -0.438  0.2918  0.4010 -1.4050
   99MOL0     H13040   1.713   3.186  -0.522 -0.3679  1.1687  0.0879
   99MOL0     H13041   1.576   3.290  -0.468  0.0254 -0.7424  0.3864
   99MOL0     H13042   1.748   3.347  -0.709 -0.4860 -3.3606 -1.5906
   99MOL0     H13043   1.604   3.441  -0.644  1.5546  0.2548  1.3808
   99MOL0     H13044   1.468   3.220  -0.667  0.5141 -0.2847  0.4188
   99MOL0     H13045   1.616   3.153  -0.745  2.8011  0.3638  1.9733
   99MOL0     H13046   1.585   3.371  -0.892 -0.3634  0.8085  3.4110
   99MOL0     H13047   1.534   3.215  -0.939  0.1497  2.3182 -3.3728
   99MOL0     H13048   1.298   3.272  -0.832  1.0453 -0.2379  1.6536
   99MOL0     H13049   1.339   3.371  -0.981 -3.5830  1.7094  2.2271
   99MOL0     H13050   2.111   3.571  -0.129  3.4979  2.2478 -3.3522
   99MOL0     H13051   2.315   3.583   0.021 -0.2996  0.8829 -1.7191
   99MOL0     H13052   2.726   3.393   0.151  0.3816 -0.2631  0.3752
   99MOL0     H13053   2.907   3.427   0.291  0.6262 -0.3345  1.7743
   99MOL0     H13054   4.801   3.574   0.815 -0.8937 -0.9768  0.2069
   99MOL0     H13055   5.001   3.679   0.737  0.0580  2.8455  1.0352
   99MOL0     H13056   5.352   3.619   0.437 -1.3022 -0.1455  0.5858
   99MOL0     H13057   5.579   3.728   0.399 -0.4626 -3.7104  1.8934
   99MOL0     H13058   5.633   4.177   0.421  1.2561 -0.0915  0.2871
   99MOL0     H13059   5.566   4.142   0.256  1.2037  0.6039 -0.1666
   99MOL0     H13060   5.772   4.035   0.189 -1.3612 -0.2157 -0.5136
   99MOL0     H13061   5.777   4.209   0.203 -2.5900 -0.6479 -1.3217
   99MOL0     H13062   5.866   4.045   0.452  1.8642  1.0225  1.8215
   99MOL0     H13063   5.891   4.212   0.406  0.7010  1.3281 -2.1752
   99MOL0     H13064   5.995   3.977   0.231 -1.9710  0.7698 -0.7082
   99MOL0     H13065   6.027   4.162   0.230 -1.0082  1.0614  1.4041
   99MOL0     H13066   6.289   3.998   0.528 -1.2357 -0.5268  1.5807
   99MOL0     H13067   5.371   4.119   0.411  1.7734  0.2545  0.3459
   99MOL0     H13068   5.166   3.992   0.460  0.3584 -1.1338  2.9200
  100MOL0     O13069   7.012   2.099   5.020 -0.0570  0.0928  0.0378
  100MOL0     C13070   7.080   2.030   5.091  0.1564 -0.1994  0.0723
  100MOL0     O13071   7.047   1.917   5.143  0.0200 -0.0172 -0.1961
  100MOL0     C13072   6.930   1.843   5.108  0.5499 -0.9324  1.6733
  100MOL0     C13073   6.922   1.723   5.170 -0.4494  0.0429  0.0954
  100MOL0     C13074   6.808   1.637   5.150 -0.4135 -0.0486  0.1051
  100MOL0     C13075   6.711   1.664   5.040 -0.3738 -0.9558 -0.6941
  100MOL0     O13076   6.611   1.571   5.013 -0.2723  0.5922  0.2445
  100MOL0     C13077   6.614   1.438   5.073 -0.1697 -0.0399  0.6861
  100MOL0     C13078   6.520   1.335   5.005 -0.5438 -0.4220  0.6870
  100MOL0     C13079   6.395   1.309   5.091 -0.6198 -0.1120 -0.3335
  100MOL0     C13080   6.345   1.159   5.082 -0.3669 -0.6930 -0.1716
  100MOL0     C13081   6.217   1.136   5.157 -0.0145  0.0841  0.4193
  100MOL0     C13082   6.194   0.981   5.172  0.1649  1.0175  1.4811
  100MOL0     C13083   6.080   0.952   5.274 -0.4280  0.0007  0.7962
  100MOL0     C13084   5.946   0.972   5.204  0.4073 -0.3304 -0.0290
  100MOL0     N13085   5.832   0.932   5.288 -0.6789  0.0744  0.0053
  100MOL0     C13086   5.807   0.798   5.314 -0.4597 -0.1479  0.9832
  100MOL0     C13087   5.674   0.798   5.345  0.3328 -0.9548 -0.5197
  100MOL0     C13088   5.598   0.672   5.371 -0.6373  0.6747 -0.1169
  100MOL0     C13089   5.524   0.682   5.505  0.0462 -1.1152 -0.1922
  100MOL0     C13090   5.417   0.798   5.508 -0.5915  0.5718  0.6077
  100MOL0     C13091   5.314   0.802   5.393 -0.5337  0.0158  0.9969
  100MOL0     O13092   5.248   0.676   5.374 -0.0515  0.0674  0.6334
  100MOL0     C13093   5.157   0.623   5.459  0.1272 -0.5230  0.2471
  100MOL0     C13094   5.080   0.701   5.541  0.1405 -0.5626  0.7166
  100MOL0     C13095   4.986   0.639   5.627  1.3142  0.0687  0.4733
  100MOL0     C13096   4.976   0.499   5.629 -0.7772 -0.1450  0.1009
  100MOL0     C13097   4.873   0.425   5.710  0.8062 -1.0312  0.1754
  100MOL0     O13098   4.876   0.289   5.703 -0.4455  0.6372 -0.4875
  100MOL0     C13099   4.776   0.212   5.752 -0.7004  0.1312 -0.1155
  100MOL0     C13100   4.642   0.220   5.692  0.1189  0.5663 -0.3038
  100MOL0     C13101   4.543   0.136   5.745 -0.0384  0.4316  0.6663
  100MOL0     C13102   4.564   0.053   5.855 -0.0693 -0.8340 -0.5341
  100MOL0     O13103   4.480  -0.038   5.917 -0.6951  0.6760  0.2262
  100MOL0     C13104   4.340  -0.021   5.890  0.6057 -0.1374 -0.2118
  100MOL0     C13105   4.279   0.090   5.984 -0.3469  0.3496  0.6020
  100MOL0     C13106   4.133   0.114   5.962 -0.1683 -0.6063 -0.2168
  100MOL0     C13107   4.088   0.223   6.065  0.2980  0.6620 -0.2017
  100MOL0     C13108   3.943   0.272   6.036 -0.0598  0.7256  0.4327
  100MOL0     C13109   3.825   0.180   6.059 -1.1272  0.7352  0.5460
  100MOL0     C13110   3.796   0.137   6.203 -0.2479 -0.8129  0.1475
  100MOL0     C13111   3.684   0.037   6.217 -0.1922  0.6821 -0.4428
  100MOL0    Cl13112   3.706  -0.103   6.125 -0.0529  0.1974  0.4993
  100MOL0     C13113   4.692   0.047   5.904 -0.4190  0.0101  0.2029
  100MOL0     C13114   4.800   0.129   5.862  0.0810 -0.0965  1.0588
  100MOL0     O13115   4.789   0.492   5.758  0.6826  0.1181 -0.9600
  100MOL0     C13116   5.056   0.423   5.535 -0.1118 -1.0464 -0.5009
  100MOL0     C13117   5.156   0.490   5.458 -0.3520 -0.0220 -0.6028
  100MOL0     N13118   5.630   0.929   5.336  0.0820  0.6648  0.7292
  100MOL0     N13119   5.722   1.008   5.307  0.0397  0.1990 -0.0414
  100MOL0     C13120   6.723   1.785   4.983 -0.2848  0.1275 -0.1371
  100MOL0     C13121   6.826   1.877   5.021  0.0610  0.5361  0.6502
  100MOL0     C13122   7.230   2.055   5.088  0.1181 -0.3226  0.2085
  100MOL0     C13123   7.291   2.176   5.036  0.5683  0.3256 -0.8614
  100MOL0     C13124   7.431   2.185   5.030  0.3010 -0.8375 -0.3298
  100MOL0     C13125   7.519   2.081   5.074  0.3078 -0.9771 -0.1626
  100MOL0     O13126   7.652   2.082   5.069 -1.2947  0.2589 -0.1585
  100MOL0     C13127   7.718   2.209   5.060 -0.0069 -0.4967  0.0426
  100MOL0     C13128   7.865   2.193   5.031  0.2064 -0.2539  1.0804
  100MOL0     C13129   7.928   2.085   5.124 -0.0122  0.6429 -0.7264
  100MOL0     C13130   7.938   2.144   5.272 -0.0930  0.4853 -0.5578
  100MOL0     C13131   8.010   2.053   5.374 -0.0829  0.3407  0.7195
  100MOL0     C13132   8.062   1.981   5.459  0.8264  1.3191  0.0751
  100MOL0     C13133   7.460   1.964   5.107  0.7077  0.4170  0.4571
  100MOL0     C13134   7.325   1.949   5.107  0.9021  0.6264 -0.5284
  100MOL0     H13135   6.993   1.684   5.243 -0.6781 -2.1452 -0.7838
  100MOL0     H13136   6.820   1.541   5.200 -0.5873 -0.7364 -1.1349
  100MOL0     H13137   6.597   1.442   5.181  0.5975  0.1774  0.8088
  100MOL0     H13138   6.716   1.400   5.055 -0.8769 -1.2194 -1.1663
  100MOL0     H13139   6.583   1.246   4.989 -0.6834 -0.2605 -0.9636
  100MOL0     H13140   6.497   1.359   4.901  0.3857 -0.1485  0.5287
  100MOL0     H13141   6.307   1.365   5.060  0.7833  1.9773 -0.8228
  100MOL0     H13142   6.414   1.336   5.196 -2.9265  3.4681 -0.6743
  100MOL0     H13143   6.330   1.122   4.980  2.5194  1.9197 -1.7059
  100MOL0     H13144   6.430   1.101   5.121  1.3842  2.0415  0.3498
  100MOL0     H13145   6.132   1.176   5.100 -0.0139 -3.6583 -2.5613
  100MOL0     H13146   6.241   1.172   5.258  1.4852 -1.2264  0.5615
  100MOL0     H13147   6.286   0.933   5.205 -0.3404 -0.7867  0.3786
  100MOL0     H13148   6.184   0.933   5.075  0.4197  0.3037  1.8039
  100MOL0     H13149   6.080   0.846   5.298 -0.7600 -1.3992 -4.2390
  100MOL0     H13150   6.076   1.018   5.361 -1.7573  0.1122  0.6754
  100MOL0     H13151   5.944   0.912   5.113 -2.1164  2.2450 -1.8650
  100MOL0     H13152   5.928   1.077   5.180 -2.4284  0.0106  2.7672
  100MOL0     H13153   5.876   0.715   5.309 -2.2867 -1.6868 -1.6307
  100MOL0     H13154   5.657   0.580   5.374 -1.3191  0.2107 -0.6482
  100MOL0     H13155   5.522   0.648   5.296 -1.7656  1.2271  0.8187
  100MOL0     H13156   5.603   0.713   5.575 -0.6356 -2.4599  1.2185
  100MOL0     H13157   5.495   0.580   5.532  2.7734 -1.5502  1.5274
  100MOL0     H13158   5.355   0.786   5.598 -2.2300 -2.3444 -0.7666
  100MOL0     H13159   5.453   0.901   5.512 -2.5908  1.4387 -1.6475
  100MOL0     H13160   5.359   0.842   5.301 -0.1334  0.2432  1.2913
  100MOL0     H13161   5.234   0.873   5.415  2.0686  4.4112 -2.1408
  100MOL0     H13162   5.083   0.808   5.554 -4.1310 -0.1701  0.1301
  100MOL0     H13163   4.928   0.703   5.692 -0.9230 -1.5847  0.2266
  100MOL0     H13164   4.634   0.298   5.617 -1.0969  1.1729  0.4237
  100MOL0     H13165   4.442   0.135   5.705 -1.0660  1.8653  2.9764
  100MOL0     H13166   4.293  -0.114   5.923 -1.5554  0.2579 -1.9461
  100MOL0     H13167   4.323  -0.006   5.783 -0.5270  1.7379  0.1842
  100MOL0     H13168   4.328   0.186   5.964 -0.1763  0.0345 -0.5545
  100MOL0     H13169   4.297   0.062   6.088  0.4385 -0.1747  0.3311
  100MOL0     H13170   4.068   0.030   5.990 -1.0602  0.7473  2.1364
  100MOL0     H13171   4.117   0.138   5.856  1.7296 -0.7230 -0.5524
  100MOL0     H13172   4.105   0.188   6.167 -1.6465  2.4019  0.7974
  100MOL0     H13173   4.158   0.305   6.044 -0.3554  1.5932  1.1055
  100MOL0     H13174   3.932   0.302   5.932  0.5459  0.1300  0.1847
  100MOL0     H13175   3.918   0.361   6.094 -1.2988  1.4069 -1.1037
  100MOL0     H13176   3.857   0.091   6.004 -1.0531 -0.5866  2.6301
  100MOL0     H13177   3.735   0.220   6.011 -2.8320 -1.8447  1.3816
  100MOL0     H13178   3.890   0.109   6.251  0.0675  1.6366  1.1432
  100MOL0     H13179   3.769   0.228   6.258  0.3175 -0.5038 -0.0700
  100MOL0     H13180   3.591   0.086   6.186 -0.8007  0.9676  1.6729
  100MOL0     H13181   3.675   0.005   6.321 -0.5479 -0.4733 -0.8031
  100MOL0     H13182   4.703  -0.032   5.977 -0.7956  0.2291  0.4976
  100MOL0     H13183   4.902   0.122   5.898  1.3188  0.9210 -1.9227
  100MOL0     H13184   5.044   0.315   5.537 -2.2147 -0.8787 -1.4168
  100MOL0     H13185   5.211   0.442   5.377 -1.3916  0.2674 -1.4967
  100MOL0     H13186   6.646   1.816   4.912 -1.6512 -0.8512  0.8845
  100MOL0     H13187   6.824   1.975   4.976  1.3794  1.2745  2.1191
  100MOL0     H13188   7.235   2.264   5.005  0.1532  1.1602  1.9934
  100MOL0     H13189   7.466   2.285   5.010 -0.5175  0.1953  2.7958
  100MOL0     H13190   7.691   2.280   5.139 -1.9832  0.6790 -1.6184
  100MOL0     H13191   7.675   2.247   4.968 -0.3527  0.2814  0.5164
  100MOL0     H13192   7.875   2.157   4.928  2.8328 -0.6583  1.4085
  100MOL0     H13193   7.922   2.286   5.035 -0.3881  0.4859 -3.1899
  100MOL0     H13194   8.024   2.044   5.091 -0.7672 -2.2342  0.3883
  100MOL0     H13195   7.864   1.997   5.131 -0.4975  1.1017  2.8524
  100MOL0     H13196   7.982   2.242   5.290 -1.3220  0.6356  2.3142
  100MOL0     H13197   7.835   2.156   5.307  0.3639  1.4866  0.5206
  100MOL0     H13198   8.102   1.910   5.529 -0.1516 -0.5522 -1.1494
  100MOL0     H13199   7.516   1.877   5.139 -4.0329 -4.4451 -2.7297
  100MOL0     H13200   7.289   1.851   5.137 -0.2974  1.0726 -0.4523
  101MOL0     O13201   4.878  11.241  10.775  0.3390 -0.5944  0.4766
  101MOL0     C13202   4.855  11.121  10.793 -0.2977  0.3017  0.8173
  101MOL0     O13203   4.957  11.037  10.836  0.0550 -0.0559  0.2016
  101MOL0     C13204   5.061  11.022  10.756 -0.7299 -0.7432 -0.7823
  101MOL0     C13205   5.078  11.047  10.619 -1.1593  0.4331  0.0915
  101MOL0     C13206   5.205  11.021  10.569 -0.9810 -0.0243  0.3278
  101MOL0     C13207   5.318  10.976  10.638  0.5869  0.5295 -1.8212
  101MOL0     O13208   5.445  10.975  10.583 -0.3194 -0.7145 -0.2082
  101MOL0     C13209   5.474  10.861  10.499  0.4613 -0.2485  0.3568
  101MOL0     C13210   5.612  10.875  10.438 -0.3093  1.0084  0.0008
  101MOL0     C13211   5.644  10.741  10.353  0.5960  0.0710  0.3390
  101MOL0     C13212   5.792  10.742  10.315 -1.1737  0.3642  0.4462
  101MOL0     C13213   5.813  10.633  10.201 -0.8718  0.2640 -0.4098
  101MOL0     C13214   5.960  10.590  10.169  0.1075  0.0197 -0.0875
  101MOL0     C13215   6.054  10.523  10.283  0.2299 -0.3957  0.5663
  101MOL0     C13216   6.027  10.381  10.334  0.4311 -0.2560  0.3794
  101MOL0     N13217   5.898  10.366  10.406 -0.3219  0.5726 -0.2567
  101MOL0     C13218   5.871  10.425  10.527 -0.1066 -0.1470  0.2071
  101MOL0     C13219   5.738  10.395  10.538 -0.4728 -0.2630 -0.6437
  101MOL0     C13220   5.664  10.424  10.666  0.0541  0.0570 -0.3666
  101MOL0     C13221   5.600  10.563  10.668 -0.2525 -0.0699  0.2539
  101MOL0     C13222   5.550  10.607  10.807 -0.0485  0.0261  0.2705
  101MOL0     C13223   5.403  10.579  10.824 -0.9478  0.4533  0.6037
  101MOL0     O13224   5.358  10.658  10.933  0.9842  0.4791  0.2482
  101MOL0     C13225   5.221  10.635  10.972 -0.3721 -0.5282 -0.5970
  101MOL0     C13226   5.122  10.578  10.896 -0.0763 -0.4968 -0.6511
  101MOL0     C13227   4.986  10.587  10.942  0.0686  0.6117  0.8592
  101MOL0     C13228   4.951  10.653  11.062 -0.4962 -0.1152 -1.0296
  101MOL0     C13229   4.811  10.651  11.102  0.1205  0.1017  0.3712
  101MOL0     O13230   4.768  10.689  11.230 -0.3528 -0.1026 -0.6893
  101MOL0     C13231   4.640  10.745  11.243  0.3402  0.0863 -0.2444
  101MOL0     C13232   4.585  10.723  11.360  0.9997  0.0957 -0.1049
  101MOL0     C13233   4.455  10.773  11.395 -0.0455  0.6178  0.6015
  101MOL0     C13234   4.380  10.849  11.307  0.2230  0.2372 -0.2300
  101MOL0     O13235   4.248  10.885  11.329 -0.2529  0.1237 -0.6581
  101MOL0     C13236   4.165  10.785  11.395 -0.0699  0.1817 -0.3125
  101MOL0     C13237   4.024  10.809  11.360  0.2289  0.4513  0.1665
  101MOL0     C13238   3.931  10.709  11.430  0.5562 -0.7159  0.4190
  101MOL0     C13239   3.791  10.739  11.374 -0.1470 -0.1034 -0.5243
  101MOL0     C13240   3.699  10.630  11.434 -0.1398 -0.0482  0.1425
  101MOL0     C13241   3.552  10.670  11.426  0.9206 -0.1962  0.1522
  101MOL0     C13242   3.471  10.604  11.535  1.1294  0.4187 -0.7439
  101MOL0     C13243   3.317  10.640  11.514  0.9790  0.5627  0.5250
  101MOL0    Cl13244   3.255  10.570  11.364  0.1974 -0.0887  0.3486
  101MOL0     C13245   4.448  10.893  11.193  1.0137 -0.2541  0.5937
  101MOL0     C13246   4.578  10.838  11.153  0.3864  0.4545  0.1480
  101MOL0     O13247   4.738  10.639  11.011  0.8455  0.1754  0.1803
  101MOL0     C13248   5.053  10.705  11.147  0.7317  0.1037 -0.1770
  101MOL0     C13249   5.176  10.696  11.094 -0.2123  0.6230  0.2168
  101MOL0     N13250   5.689  10.315  10.439 -0.9705  0.4598 -0.6834
  101MOL0     N13251   5.793  10.287  10.366 -0.2027  0.2633  0.7378
  101MOL0     C13252   5.304  10.962  10.781  0.4737  0.3351  0.2162
  101MOL0     C13253   5.175  10.972  10.835  0.1071 -0.7047 -0.6590
  101MOL0     C13254   4.714  11.072  10.772  0.8034 -0.5916 -0.9382
  101MOL0     C13255   4.611  11.162  10.755 -0.4521  0.5617 -0.3955
  101MOL0     C13256   4.484  11.123  10.781  0.0575  0.0425 -0.3974
  101MOL0     C13257   4.448  10.989  10.800 -0.3780  1.1375  0.2519
  101MOL0     O13258   4.314  10.962  10.794  0.0749  0.3145 -0.5746
  101MOL0     C13259   4.281  10.831  10.837  0.3122 -0.2068  0.8277
  101MOL0     C13260   4.129  10.824  10.871 -0.2927 -0.6660  0.1681
  101MOL0     C13261   4.086  10.702  10.952 -0.0212  0.3708 -0.4129
  101MOL0     C13262   3.937  10.708  10.985  0.8188 -0.1212 -0.5654
  101MOL0     C13263   3.852  10.692  10.872  0.4651 -0.7483  0.3428
  101MOL0     C13264   3.795  10.674  10.768  0.4025  0.4303  0.3388
  101MOL0     C13265   4.550  10.891  10.799  0.1117 -0.3180 -0.6950
  101MOL0     C13266   4.677  10.933  10.793 -0.2309 -0.3195  0.4207
  101MOL0     H13267   4.997  11.069  10.551 -1.3053  0.4769  0.2766
  101MOL0     H13268   5.212  11.041  10.462 -2.8473  1.0994  0.3688
  101MOL0     H13269   5.393  10.854  10.425 -1.1028  0.9714  1.8548
  101MOL0     H13270   5.480  10.770  10.558  1.5990  0.3008  1.1059
  101MOL0     H13271   5.678  10.871  10.525 -1.0473  1.4544  0.5905
  101MOL0     H13272   5.625  10.965  10.376 -1.1251  0.8442 -0.4320
  101MOL0     H13273   5.576  10.744  10.267  2.4935  0.0932 -1.2229
  101MOL0     H13274   5.614  10.653  10.409 -0.4767  0.5900  0.6196
  101MOL0     H13275   5.835  10.823  10.255  1.3895 -0.2756  1.2852
  101MOL0     H13276   5.856  10.740  10.405 -0.7902  0.7781  0.1888
  101MOL0     H13277   5.771  10.674  10.110  0.5455 -0.6061 -1.5125
  101MOL0     H13278   5.753  10.543  10.218  0.0620 -0.2261  0.4802
  101MOL0     H13279   6.014  10.681  10.139  1.3297 -1.0148 -1.1437
  101MOL0     H13280   5.964  10.520  10.085 -0.2208 -0.4514  0.2923
  101MOL0     H13281   6.151  10.514  10.232 -1.9703  0.4302 -4.4217
  101MOL0     H13282   6.062  10.600  10.360 -0.7404  2.2811 -1.8257
  101MOL0     H13283   6.111  10.338  10.389 -1.9284 -2.9576  2.1395
  101MOL0     H13284   6.019  10.315  10.247 -1.6590  0.3837  0.0140
  101MOL0     H13285   5.933  10.482  10.595  0.1092 -0.2908  0.1325
  101MOL0     H13286   5.734  10.417  10.750 -0.3005  1.5586  0.0922
  101MOL0     H13287   5.588  10.347  10.681 -1.8523  1.2630 -2.9404
  101MOL0     H13288   5.521  10.565  10.592  0.1436  0.8456 -0.1501
  101MOL0     H13289   5.669  10.641  10.634  0.0798 -0.1161  0.8131
  101MOL0     H13290   5.609  10.573  10.893  0.1113 -0.2678  0.0490
  101MOL0     H13291   5.572  10.714  10.809  1.1842 -0.1804 -0.6488
  101MOL0     H13292   5.394  10.471  10.839  0.2609  0.4778  1.5638
  101MOL0     H13293   5.340  10.608  10.739 -0.4562  2.0992  0.7687
  101MOL0     H13294   5.141  10.537  10.797  1.8105 -1.3123  0.0035
  101MOL0     H13295   4.916  10.538  10.875  1.4417  2.2625 -1.9948
  101MOL0     H13296   4.648  10.653  11.412  1.1697 -1.5398 -2.3643
  101MOL0     H13297   4.406  10.732  11.483 -1.3797  0.4315 -0.1908
  101MOL0     H13298   4.185  10.788  11.503 -0.9321 -1.1527 -0.0931
  101MOL0     H13299   4.194  10.687  11.356  2.8358  0.0739  1.7642
  101MOL0     H13300   4.021  10.787  11.253  0.1963  1.3318 -0.0206
  101MOL0     H13301   3.997  10.912  11.384 -1.4508 -0.0162  0.4407
  101MOL0     H13302   3.928  10.717  11.539  1.5947 -3.0741  0.6870
  101MOL0     H13303   3.959  10.606  11.408  2.3629  0.0283 -1.0875
  101MOL0     H13304   3.749  10.838  11.397  0.8891  1.1630 -3.5463
  101MOL0     H13305   3.786  10.737  11.265  0.0355 -3.7523 -0.5803
  101MOL0     H13306   3.727  10.616  11.539 -1.6836 -1.4030  0.4177
  101MOL0     H13307   3.715  10.538  11.377  2.2120  1.3164 -1.5919
  101MOL0     H13308   3.500  10.631  11.338 -1.0626 -1.2458  1.6966
  101MOL0     H13309   3.539  10.778  11.436 -2.2251 -0.3319 -1.4636
  101MOL0     H13310   3.478  10.495  11.545 -1.5498  0.1164 -1.1816
  101MOL0     H13311   3.486  10.648  11.634  0.1092  0.6745 -0.6934
  101MOL0     H13312   3.295  10.747  11.517  3.8764  1.4395 -3.0556
  101MOL0     H13313   3.262  10.587  11.593 -1.1906  0.0760 -1.2168
  101MOL0     H13314   4.398  10.958  11.122  1.6850  0.1194  0.4544
  101MOL0     H13315   4.631  10.870  11.064  0.0231 -0.3131 -0.3565
  101MOL0     H13316   5.025  10.740  11.245  1.9149  0.6570 -0.0141
  101MOL0     H13317   5.258  10.739  11.152 -1.3269  0.5778  1.8911
  101MOL0     H13318   5.391  10.927  10.836  0.3176  0.5053  0.5760
  101MOL0     H13319   5.152  10.966  10.941 -2.2883  0.4675 -1.0252
  101MOL0     H13320   4.635  11.264  10.726  2.6137 -0.0330 -0.2943
  101MOL0     H13321   4.404  11.196  10.775 -1.1046 -1.1092  0.3783
  101MOL0     H13322   4.325  10.810  10.935 -0.8378 -1.0258  1.1932
  101MOL0     H13323   4.311  10.755  10.764 -1.4250 -2.1157  2.0209
  101MOL0     H13324   4.106  10.918  10.922 -1.0303  0.4733 -2.1204
  101MOL0     H13325   4.064  10.844  10.786 -1.0263  2.0130  1.2582
  101MOL0     H13326   4.133  10.702  11.050 -1.6760  0.5039  0.4180
  101MOL0     H13327   4.108  10.606  10.904 -3.4092 -0.5551 -0.4132
  101MOL0     H13328   3.910  10.628  11.054  0.3856  0.1156 -0.4596
  101MOL0     H13329   3.907  10.795  11.044 -2.0731  0.8816 -3.2658
  101MOL0     H13330   3.757  10.665  10.669 -1.6766  2.6651  0.8484
  101MOL0     H13331   4.523  10.786  10.789  0.0791 -0.2129 -1.8439
  101MOL0     H13332   4.761  10.867  10.808  2.0961  2.4750  0.6511
  102MOL0     O13333   3.482   3.895   0.738  0.2058 -0.3652  0.5097
  102MOL0     C13334   3.492   4.016   0.730 -0.1341  0.3760  0.5647
  102MOL0     O13335   3.393   4.109   0.740 -0.0852 -0.0692 -0.6439
  102MOL0     C13336   3.268   4.054   0.760  0.5091  0.0384 -0.4687
  102MOL0     C13337   3.192   4.025   0.649 -0.7600  0.0373 -0.6612
  102MOL0     C13338   3.061   3.973   0.658 -0.1775  0.8224 -0.9707
  102MOL0     C13339   3.011   3.948   0.787 -0.0754 -0.5613 -1.5010
  102MOL0     O13340   2.886   3.893   0.806 -0.1137  0.5028 -0.2646
  102MOL0     C13341   2.853   3.805   0.911  0.0726 -0.3185 -0.2188
  102MOL0     C13342   2.749   3.706   0.888  0.7359  0.4483  0.1365
  102MOL0     C13343   2.616   3.741   0.953  0.5132 -0.5460  0.2563
  102MOL0     C13344   2.516   3.639   0.908 -0.1378  1.1873 -0.1914
  102MOL0     C13345   2.380   3.689   0.959 -0.4649  0.2904  0.0078
  102MOL0     C13346   2.318   3.791   0.865 -0.3315 -0.0937 -0.3683
  102MOL0     C13347   2.178   3.825   0.908  0.2384  0.7302 -0.2851
  102MOL0     C13348   2.081   3.721   0.852  0.2645  0.1255 -0.5265
  102MOL0     N13349   1.945   3.774   0.857  0.4492 -0.3104 -0.0254
  102MOL0     C13350   1.883   3.815   0.969 -0.6747  0.2699  0.6844
  102MOL0     C13351   1.768   3.879   0.937  0.0221  0.4565  1.3242
  102MOL0     C13352   1.664   3.940   1.029 -0.2633  0.1832  0.5345
  102MOL0     C13353   1.522   3.896   0.985  0.2153 -0.0576 -0.0303
  102MOL0     C13354   1.435   3.858   1.112 -0.5352 -0.1664  1.0898
  102MOL0     C13355   1.288   3.831   1.084  0.8233  0.5268  0.0531
  102MOL0     O13356   1.250   3.759   1.207 -0.1483  0.5890  0.8538
  102MOL0     C13357   1.133   3.794   1.260 -0.4572 -0.3476  0.7749
  102MOL0     C13358   1.122   3.808   1.402 -0.0098 -0.6775 -0.1235
  102MOL0     C13359   1.001   3.841   1.460  0.0178 -0.4803  1.1153
  102MOL0     C13360   0.883   3.867   1.377 -0.0543 -0.9236  0.3191
  102MOL0     C13361   0.751   3.894   1.437 -0.4977 -0.0650 -0.5626
  102MOL0     O13362   0.644   3.907   1.350  0.3037 -0.1736 -0.5839
  102MOL0     C13363   0.509   3.931   1.379  0.4884  0.8073 -0.7800
  102MOL0     C13364   0.441   3.919   1.507  0.2080  1.0879  0.7236
  102MOL0     C13365   0.300   3.942   1.527 -0.1031 -0.1419 -0.2940
  102MOL0     C13366   0.230   3.981   1.410  0.7022 -0.5967 -0.5622
  102MOL0     O13367   0.101   4.029   1.433 -0.3369 -0.1500  0.1329
  102MOL0     C13368   0.087   4.166   1.381  0.4715  0.1783 -0.2190
  102MOL0     C13369  -0.054   4.206   1.385 -0.6426 -0.6025  0.3801
  102MOL0     C13370  -0.109   4.203   1.529 -0.2759 -0.2390  0.8636
  102MOL0     C13371  -0.264   4.249   1.536 -0.3554 -0.0064 -0.1654
  102MOL0     C13372  -0.307   4.248   1.680  0.6176  0.1532  0.3696
  102MOL0     C13373  -0.447   4.312   1.708 -0.8175 -0.3641 -0.8917
  102MOL0     C13374  -0.467   4.305   1.858 -0.2658  0.7266 -0.3479
  102MOL0     C13375  -0.599   4.371   1.897  0.4338 -0.1566 -0.1271
  102MOL0    Cl13376  -0.578   4.385   2.066  0.0359 -0.2670 -0.0092
  102MOL0     C13377   0.291   3.986   1.284  1.1032 -0.7464  0.1955
  102MOL0     C13378   0.430   3.958   1.271  1.3241  0.4175  0.4841
  102MOL0     O13379   0.751   3.898   1.561 -0.2133 -0.5244 -0.3064
  102MOL0     C13380   0.900   3.874   1.240 -0.8262  0.4740 -0.0490
  102MOL0     C13381   1.021   3.828   1.184 -0.6811  0.6165 -0.0960
  102MOL0     N13382   1.767   3.877   0.792 -0.1375  0.1376 -0.1652
  102MOL0     N13383   1.878   3.819   0.754  0.5120 -1.3760  0.1950
  102MOL0     C13384   3.085   3.987   0.905 -0.1409  0.1731 -0.3344
  102MOL0     C13385   3.211   4.040   0.887 -0.0583  0.0185  0.0449
  102MOL0     C13386   3.631   4.060   0.708 -0.0036  0.1245 -0.4601
  102MOL0     C13387   3.717   3.985   0.624  0.0429  0.1048  0.2329
  102MOL0     C13388   3.843   4.022   0.601 -0.4478 -0.1791 -1.3803
  102MOL0     C13389   3.899   4.135   0.661 -0.3588  0.5741  0.2701
  102MOL0     O13390   4.025   4.163   0.624 -0.2867 -0.1215  0.0594
  102MOL0     C13391   4.109   4.252   0.695 -0.9018 -0.3133  0.5518
  102MOL0     C13392   4.257   4.220   0.650 -0.6195 -0.1445  0.9797
  102MOL0     C13393   4.332   4.123   0.742  0.8136  0.6370  0.0162
  102MOL0     C13394   4.471   4.084   0.682 -0.4414 -0.3453 -0.1062
  102MOL0     C13395   4.462   4.032   0.547  0.1290 -0.1547  0.5054
  102MOL0     C13396   4.438   3.995   0.433 -0.3003 -0.2595  0.2670
  102MOL0     C13397   3.820   4.216   0.746 -0.0345  0.1309 -0.0201
  102MOL0     C13398   3.688   4.176   0.776  0.2590  0.1595  0.7510
  102MOL0     H13399   3.224   4.038   0.546 -2.2472  1.5605 -0.9952
  102MOL0     H13400   3.007   3.935   0.572 -2.3386  1.3067  0.1077
  102MOL0     H13401   2.842   3.857   1.006  2.8924 -0.7993  0.4656
  102MOL0     H13402   2.939   3.738   0.919  0.7778  0.5099 -0.6529
  102MOL0     H13403   2.766   3.603   0.919  0.4948  0.5025  0.4605
  102MOL0     H13404   2.729   3.702   0.781 -2.9359  0.8147  0.7008
  102MOL0     H13405   2.573   3.836   0.919  0.7689 -0.3866  0.3738
  102MOL0     H13406   2.625   3.739   1.062 -3.1356 -0.8811  0.6769
  102MOL0     H13407   2.523   3.636   0.799 -2.4725  0.8520 -0.3627
  102MOL0     H13408   2.553   3.547   0.954 -1.2844 -1.0877 -3.4324
  102MOL0     H13409   2.393   3.740   1.055  2.8149  5.8518 -2.8567
  102MOL0     H13410   2.314   3.602   0.957  0.4708 -0.4275 -1.6344
  102MOL0     H13411   2.332   3.758   0.761  3.7034 -0.3777  0.1422
  102MOL0     H13412   2.384   3.878   0.869  2.0594 -1.7753 -1.1090
  102MOL0     H13413   2.189   3.824   1.017  1.1901  0.4223 -0.3706
  102MOL0     H13414   2.147   3.915   0.854 -0.8313  0.6134  0.1122
  102MOL0     H13415   2.085   3.627   0.908 -0.1051  1.8453  2.5994
  102MOL0     H13416   2.096   3.706   0.745  2.9258 -0.1347 -0.1769
  102MOL0     H13417   1.933   3.800   1.064  0.5188  1.2319  0.2375
  102MOL0     H13418   1.658   4.048   1.012 -0.8187 -0.2093 -2.4226
  102MOL0     H13419   1.689   3.923   1.134  2.6500 -1.0460 -0.2627
  102MOL0     H13420   1.517   3.815   0.910  0.0501  0.4119 -0.5332
  102MOL0     H13421   1.467   3.978   0.939 -2.9080 -0.5811  2.3883
  102MOL0     H13422   1.477   3.768   1.157 -2.3041 -0.9972  1.1661
  102MOL0     H13423   1.443   3.941   1.184  0.1845  3.9050 -3.1812
  102MOL0     H13424   1.256   3.769   1.000 -2.9060  2.0830  0.1121
  102MOL0     H13425   1.223   3.917   1.065 -3.6411 -2.6853 -0.6926
  102MOL0     H13426   1.215   3.808   1.458  1.1601  1.6820 -1.9105
  102MOL0     H13427   0.989   3.831   1.567 -1.1198  0.4294  1.0984
  102MOL0     H13428   0.502   3.892   1.593  0.2205  0.3496  0.4872
  102MOL0     H13429   0.252   3.940   1.624 -0.0767  0.8493 -0.2453
  102MOL0     H13430   0.132   4.177   1.282  0.7009 -0.5819 -0.2022
  102MOL0     H13431   0.147   4.231   1.445 -0.1736  0.6825 -0.1225
  102MOL0     H13432  -0.124   4.150   1.323 -3.4630  0.5355  2.3286
  102MOL0     H13433  -0.070   4.313   1.363 -3.2871 -1.1150 -0.6015
  102MOL0     H13434  -0.051   4.264   1.598  0.8329 -0.4315  0.1296
  102MOL0     H13435  -0.110   4.097   1.559 -1.9509  0.4614  3.6292
  102MOL0     H13436  -0.281   4.349   1.494 -1.9083  0.5705  1.6846
  102MOL0     H13437  -0.327   4.178   1.481 -1.3321  1.1207 -0.5451
  102MOL0     H13438  -0.236   4.306   1.740  0.9717  1.9960 -1.7161
  102MOL0     H13439  -0.307   4.148   1.724 -0.9450  1.1775  2.8987
  102MOL0     H13440  -0.527   4.251   1.664 -2.5955 -0.4945  2.2419
  102MOL0     H13441  -0.451   4.410   1.661  0.6454 -0.3652 -1.0701
  102MOL0     H13442  -0.467   4.202   1.895  1.8827  0.8430  0.0801
  102MOL0     H13443  -0.386   4.355   1.911  0.9181  1.4671 -2.7022
  102MOL0     H13444  -0.685   4.308   1.873  0.6044 -0.2057 -0.6119
  102MOL0     H13445  -0.619   4.471   1.856 -1.8047 -0.2332  0.6497
  102MOL0     H13446   0.232   4.005   1.194  2.2085  0.5292 -0.3000
  102MOL0     H13447   0.467   3.934   1.172 -0.3541  3.5260 -1.0461
  102MOL0     H13448   0.824   3.893   1.166  0.3927  0.0406 -1.4639
  102MOL0     H13449   1.029   3.831   1.076 -0.7946  0.2746 -0.1151
  102MOL0     H13450   3.049   3.979   1.007 -0.0368 -0.1251 -0.3202
  102MOL0     H13451   3.284   4.047   0.967  0.7075 -0.3863 -0.5964
  102MOL0     H13452   3.680   3.891   0.585 -0.0949 -0.5888  1.9598
  102MOL0     H13453   3.914   3.983   0.529  0.9109 -0.7693  0.2072
  102MOL0     H13454   4.102   4.235   0.803 -1.4649 -0.9857  0.4140
  102MOL0     H13455   4.078   4.355   0.678  3.6974  1.5302  1.7514
  102MOL0     H13456   4.257   4.178   0.549  0.4193 -1.4229  1.4780
  102MOL0     H13457   4.311   4.315   0.643 -2.2868  0.7179 -1.3246
  102MOL0     H13458   4.266   4.036   0.749  1.9907 -0.1505  2.7875
  102MOL0     H13459   4.336   4.158   0.845 -1.6832 -2.1593  1.2280
  102MOL0     H13460   4.528   4.177   0.673 -0.9822 -0.0609 -0.7061
  102MOL0     H13461   4.522   4.016   0.750  2.0135 -0.4996 -1.9359
  102MOL0     H13462   4.408   3.961   0.336 -1.8170 -1.0776  1.0019
  102MOL0     H13463   3.849   4.307   0.798 -1.5381  0.7515 -0.2208
  102MOL0     H13464   3.616   4.225   0.840 -0.9100 -0.2021 -0.2395
  103MOL0     O13465  10.403   7.273  10.231 -0.0721 -0.2712 -0.5930
  103MOL0     C13466  10.494   7.235  10.304  0.0123 -0.4020 -0.6531
  103MOL0     O13467  10.568   7.318  10.385  0.6655 -0.2412 -0.3018
  103MOL0     C13468  10.526   7.445  10.396  0.3779 -0.1265 -0.5358
  103MOL0     C13469  10.397   7.475  10.452 -0.7588 -0.5996  0.1083
  103MOL0     C13470  10.352   7.604  10.446  0.6580  1.0377 -0.1664
  103MOL0     C13471  10.431   7.709  10.396 -0.3508 -0.4087 -0.4226
  103MOL0     O13472  10.404   7.841  10.413  0.3800 -0.0558  0.1205
  103MOL0     C13473  10.278   7.881  10.475 -0.3085  1.0912 -0.9454
  103MOL0     C13474  10.293   8.022  10.521  0.0213  0.3856 -0.3186
  103MOL0     C13475  10.166   8.071  10.582  0.7766 -1.0927 -0.4000
  103MOL0     C13476  10.150   8.223  10.602 -0.4439 -0.4572  0.3699
  103MOL0     C13477  10.012   8.272  10.645  0.8505 -0.2157  0.1218
  103MOL0     C13478  10.003   8.427  10.633  0.0412  0.2560  0.2041
  103MOL0     C13479   9.857   8.482  10.637 -0.0232 -0.7973 -0.1138
  103MOL0     C13480   9.853   8.623  10.685  0.8152 -0.2015  0.2031
  103MOL0     N13481   9.721   8.674  10.656  0.7875 -0.5571  0.1969
  103MOL0     C13482   9.606   8.684  10.739 -0.3229 -0.3213  0.0897
  103MOL0     C13483   9.519   8.753  10.670  0.3584 -0.1187  0.0929
  103MOL0     C13484   9.380   8.771  10.739  0.4498 -0.1961 -0.3930
  103MOL0     C13485   9.331   8.917  10.728 -0.0496  0.2311  0.0342
  103MOL0     C13486   9.248   8.931  10.601 -0.3935  0.4265  0.6406
  103MOL0     C13487   9.216   9.082  10.585 -0.2416 -0.0481 -0.2891
  103MOL0     O13488   9.119   9.114  10.479 -0.4437 -0.1590 -0.2867
  103MOL0     C13489   9.016   9.192  10.511 -0.2045 -0.0877 -0.0055
  103MOL0     C13490   8.886   9.163  10.468 -0.3031 -1.3877 -0.6418
  103MOL0     C13491   8.776   9.242  10.505 -0.2204 -0.6414  0.2812
  103MOL0     C13492   8.784   9.343  10.598 -0.4713  0.1258  0.0034
  103MOL0     C13493   8.672   9.421  10.659 -0.9108  0.7436  0.6837
  103MOL0     O13494   8.556   9.356  10.665  0.2085  0.3339 -0.1759
  103MOL0     C13495   8.437   9.414  10.702 -0.3664  1.1052 -0.4838
  103MOL0     C13496   8.418   9.546  10.707  0.6278 -0.6428 -0.3360
  103MOL0     C13497   8.309   9.603  10.764  0.5547  1.0643  1.0833
  103MOL0     C13498   8.204   9.512  10.808 -0.6310 -0.5098 -0.2548
  103MOL0     O13499   8.090   9.561  10.861 -0.5620 -0.2350 -0.8859
  103MOL0     C13500   8.031   9.670  10.799  0.6799  0.0266  0.4887
  103MOL0     C13501   7.889   9.675  10.857  0.0250  0.1406 -0.1575
  103MOL0     C13502   7.803   9.560  10.796 -0.0381  0.3991 -0.7402
  103MOL0     C13503   7.656   9.601  10.814 -0.0307  0.4012  0.3384
  103MOL0     C13504   7.572   9.475  10.787  0.5795  0.1162  0.0469
  103MOL0     C13505   7.455   9.508  10.695  0.6459  0.1602  0.1410
  103MOL0     C13506   7.345   9.601  10.739 -0.0716 -0.1622 -0.4032
  103MOL0     C13507   7.270   9.666  10.634 -0.1010  0.3029 -0.0995
  103MOL0    Cl13508   7.144   9.559  10.561 -0.4247  0.2944  0.1737
  103MOL0     C13509   8.229   9.378  10.807  0.3988  0.4009  0.6739
  103MOL0     C13510   8.349   9.324  10.755 -0.9169  0.5172 -0.1649
  103MOL0     O13511   8.698   9.539  10.694  0.0470  0.1094  0.3091
  103MOL0     C13512   8.911   9.361  10.642 -0.0936 -0.6444  0.2797
  103MOL0     C13513   9.029   9.303  10.598  0.7177 -0.7097 -0.7556
  103MOL0     N13514   9.567   8.783  10.539  0.1609 -0.6903 -0.7879
  103MOL0     N13515   9.688   8.733  10.535  0.2610 -0.4686 -0.5616
  103MOL0     C13516  10.565   7.678  10.367  0.4168 -0.0098 -0.0540
  103MOL0     C13517  10.616   7.545  10.358 -0.6582 -0.2053  0.1172
  103MOL0     C13518  10.536   7.093  10.295  1.1709  0.6339 -0.3529
  103MOL0     C13519  10.661   7.046  10.334 -0.1986 -0.3378  0.1577
  103MOL0     C13520  10.700   6.908  10.315 -0.0723  0.0576  0.3948
  103MOL0     C13521  10.608   6.814  10.267 -0.1895  0.2686  0.5994
  103MOL0     O13522  10.660   6.684  10.256  0.1099 -1.0852 -0.9937
  103MOL0     C13523  10.610   6.600  10.151  0.0235 -0.0849  0.5501
  103MOL0     C13524  10.684   6.463  10.149  1.0354 -0.2679  0.6876
  103MOL0     C13525  10.620   6.376  10.037  0.3145  1.2862  0.4486
  103MOL0     C13526  10.650   6.230  10.051  0.4138  0.0029  0.4987
  103MOL0     C13527  10.771   6.203   9.978  0.4600 -0.6846  0.1190
  103MOL0     C13528  10.861   6.170   9.906 -0.0527  0.6003  0.1204
  103MOL0     C13529  10.476   6.859  10.227  0.0777 -0.2846 -0.3626
  103MOL0     C13530  10.442   6.994  10.245  0.0286  0.0768 -0.8692
  103MOL0     H13531  10.328   7.398  10.486 -3.0305  0.9050 -0.8626
  103MOL0     H13532  10.249   7.620  10.476  0.9183 -0.0497  1.4576
  103MOL0     H13533  10.256   7.817  10.562  0.3839  2.2348  0.1029
  103MOL0     H13534  10.193   7.892  10.407 -0.9714  0.0934 -0.3107
  103MOL0     H13535  10.314   8.082  10.432  3.8200  0.4183  0.4111
  103MOL0     H13536  10.381   8.029  10.585 -1.5613 -0.5968  2.1005
  103MOL0     H13537  10.131   8.027  10.676 -2.2612  1.6313 -0.0604
  103MOL0     H13538  10.082   8.038  10.520 -0.4337 -2.1375  1.6709
  103MOL0     H13539  10.225   8.252  10.676  0.6742 -0.5180 -0.7030
  103MOL0     H13540  10.163   8.271  10.504 -0.0216  2.4063  1.7237
  103MOL0     H13541   9.993   8.247  10.750  0.2233  3.1469  0.9471
  103MOL0     H13542   9.941   8.229  10.575  0.7703  1.2643 -0.7560
  103MOL0     H13543  10.045   8.449  10.534 -4.0779 -2.4070 -2.4930
  103MOL0     H13544  10.058   8.464  10.719 -1.3037 -0.7934  1.5686
  103MOL0     H13545   9.826   8.475  10.532 -0.6485 -3.4029  0.1720
  103MOL0     H13546   9.786   8.418  10.692  0.5047 -3.2913 -2.1638
  103MOL0     H13547   9.935   8.678  10.637  1.4615  0.0830  1.5774
  103MOL0     H13548   9.883   8.637  10.789  1.7564  1.9973 -0.3024
  103MOL0     H13549   9.584   8.640  10.836 -5.3135  1.7566  0.1831
  103MOL0     H13550   9.386   8.743  10.844 -2.2867  2.6815  0.6693
  103MOL0     H13551   9.303   8.709  10.693  1.2224 -1.1139 -0.4910
  103MOL0     H13552   9.417   8.983  10.723  0.3601 -0.3262 -0.4057
  103MOL0     H13553   9.263   8.944  10.810 -0.6970 -0.1643 -0.3580
  103MOL0     H13554   9.293   8.882  10.514 -2.5271 -1.1311  0.3394
  103MOL0     H13555   9.151   8.883  10.620 -0.1831  0.4730  1.8720
  103MOL0     H13556   9.309   9.136  10.565  0.3965 -1.4595 -1.2952
  103MOL0     H13557   9.173   9.099  10.684 -0.3034  0.1175 -0.3436
  103MOL0     H13558   8.871   9.080  10.399  1.6706 -1.3107 -1.2233
  103MOL0     H13559   8.680   9.218  10.459 -0.6251  0.2700  0.6178
  103MOL0     H13560   8.490   9.614  10.664 -0.3195 -0.7135 -2.0983
  103MOL0     H13561   8.300   9.710  10.752 -3.1833  0.7475 -0.3397
  103MOL0     H13562   8.027   9.655  10.691 -0.9925 -3.4073  0.8967
  103MOL0     H13563   8.092   9.758  10.821  3.4254 -1.4511 -0.7715
  103MOL0     H13564   7.852   9.768  10.813  1.7019 -0.7941 -4.0022
  103MOL0     H13565   7.883   9.674  10.966 -3.9009  1.5297 -0.1909
  103MOL0     H13566   7.829   9.470  10.852  2.9729  0.9070 -1.1490
  103MOL0     H13567   7.842   9.543  10.695  1.2423 -5.2468  0.3673
  103MOL0     H13568   7.636   9.647  10.911 -0.6163  0.6797  0.0933
  103MOL0     H13569   7.638   9.681  10.741 -0.8136  1.3001  1.4975
  103MOL0     H13570   7.525   9.457  10.884  0.5048  2.2941  0.4496
  103MOL0     H13571   7.633   9.390  10.754 -1.5606 -0.3937 -2.9653
  103MOL0     H13572   7.393   9.420  10.674  2.7631 -0.8801 -2.5271
  103MOL0     H13573   7.489   9.538  10.595 -2.1612  2.2785 -0.2862
  103MOL0     H13574   7.276   9.555  10.810  0.1909  1.4506  0.9615
  103MOL0     H13575   7.392   9.678  10.802 -1.4001  0.3821 -0.0388
  103MOL0     H13576   7.333   9.706  10.554 -0.3710  1.1088  0.0744
  103MOL0     H13577   7.217   9.753  10.676 -1.6592 -0.8661  0.4492
  103MOL0     H13578   8.159   9.305  10.847 -0.5825  1.2819  0.5979
  103MOL0     H13579   8.359   9.217  10.735 -1.7135  0.7572 -2.0485
  103MOL0     H13580   8.925   9.454  10.697 -1.5960  0.2711 -0.8191
  103MOL0     H13581   9.128   9.329  10.635 -0.5472  0.3020  2.1824
  103MOL0     H13582  10.624   7.763  10.336 -0.5794  1.6923  2.3641
  103MOL0     H13583  10.715   7.525  10.318 -1.1485 -1.8573 -0.3791
  103MOL0     H13584  10.724   7.125  10.375 -1.8869  2.6530 -2.5392
  103MOL0     H13585  10.803   6.877  10.332  0.8191  0.7649 -2.9690
  103MOL0     H13586  10.610   6.653  10.055 -2.6451 -1.9555 -0.5890
  103MOL0     H13587  10.506   6.574  10.173  0.4577 -0.9772  1.6708
  103MOL0     H13588  10.783   6.483  10.108  0.4031  2.7321  0.3983
  103MOL0     H13589  10.681   6.425  10.252 -0.0467 -1.3914  0.2710
  103MOL0     H13590  10.656   6.419   9.943  1.9612 -1.0203 -0.0593
  103MOL0     H13591  10.513   6.388  10.054  0.3875  0.2260  1.8706
  103MOL0     H13592  10.650   6.194  10.155 -0.2643  5.6719  2.8133
  103MOL0     H13593  10.569   6.179   9.998 -0.2643  0.1592  1.3561
  103MOL0     H13594  10.941   6.130   9.848  1.5067 -1.5934  3.4871
  103MOL0     H13595  10.391   6.799  10.198  0.0710 -0.6382  0.3755
  103MOL0     H13596  10.342   7.025  10.214 -0.0390 -0.2908 -1.0256
  104MOL0     O13597   0.450   4.389   4.240 -0.4120 -0.3232 -0.7284
  104MOL0     C13598   0.485   4.309   4.152  0.3535  0.3151 -0.0325
  104MOL0     O13599   0.404   4.226   4.075 -0.4037 -0.4132  0.5971
  104MOL0     C13600   0.268   4.239   4.100 -1.0948 -0.7423 -0.7395
  104MOL0     C13601   0.186   4.327   4.036 -0.9553  1.0286  0.6340
  104MOL0     C13602   0.052   4.349   4.075 -0.9044 -0.6142  0.8473
  104MOL0     C13603   0.001   4.266   4.174  0.9619  0.4822 -0.2617
  104MOL0     O13604  -0.135   4.286   4.202 -0.2245 -0.3241 -0.0068
  104MOL0     C13605  -0.193   4.253   4.329 -0.1480 -0.2973  0.4201
  104MOL0     C13606  -0.345   4.265   4.323  1.0252  0.0720  0.6298
  104MOL0     C13607  -0.393   4.273   4.459 -0.1340 -0.2498  0.7246
  104MOL0     C13608  -0.534   4.213   4.478  0.3563 -0.2003 -0.3138
  104MOL0     C13609  -0.650   4.307   4.423  0.3438  0.7682  0.3318
  104MOL0     C13610  -0.691   4.440   4.489  0.1451  0.1972 -0.3730
  104MOL0     C13611  -0.804   4.507   4.407 -0.6352 -0.1251  0.2513
  104MOL0     C13612  -0.835   4.648   4.455 -1.1175 -0.0678 -0.2295
  104MOL0     N13613  -0.952   4.678   4.371 -0.9202 -0.9180 -0.2637
  104MOL0     C13614  -1.073   4.701   4.431  0.1507 -0.1803 -0.1332
  104MOL0     C13615  -1.135   4.769   4.335 -0.2323  0.4461 -0.0452
  104MOL0     C13616  -1.278   4.812   4.350  0.1652  0.2939 -0.0700
  104MOL0     C13617  -1.327   4.899   4.232 -0.4482  0.2786  0.6670
  104MOL0     C13618  -1.470   4.943   4.270 -0.4390  0.7302 -0.6726
  104MOL0     C13619  -1.549   5.016   4.159 -1.1703 -0.4712 -0.9026
  104MOL0     O13620  -1.682   5.043   4.195 -0.1365  0.1715 -0.2438
  104MOL0     C13621  -1.767   5.072   4.087 -0.0556 -0.3488  0.1121
  104MOL0     C13622  -1.905   5.055   4.120  0.2401  0.3843 -0.6925
  104MOL0     C13623  -1.998   5.096   4.029 -0.1513  0.1578  0.4433
  104MOL0     C13624  -1.969   5.152   3.908  0.5833  0.0914 -0.6420
  104MOL0     C13625  -2.066   5.181   3.808  0.5393  1.2259  0.6154
  104MOL0     O13626  -2.201   5.143   3.838 -0.7356 -0.2780 -0.1793
  104MOL0     C13627  -2.312   5.192   3.773 -0.2555  0.5073 -0.0679
  104MOL0     C13628  -2.433   5.132   3.816  0.1325 -0.3684 -0.3593
  104MOL0     C13629  -2.561   5.176   3.775 -0.6768 -0.1574 -0.8517
  104MOL0     C13630  -2.570   5.279   3.682 -0.5051  0.4509  0.6136
  104MOL0     O13631  -2.698   5.305   3.639 -0.5572  0.1821  0.0086
  104MOL0     C13632  -2.718   5.411   3.545 -0.5435  0.7238  1.2209
  104MOL0     C13633  -2.864   5.459   3.551 -0.5019  0.1453  0.4595
  104MOL0     C13634  -2.880   5.589   3.463 -0.4969  0.2383  0.1543
  104MOL0     C13635  -3.020   5.652   3.461  0.3443  0.5204 -0.3918
  104MOL0     C13636  -3.034   5.732   3.591 -0.5372 -0.0690 -0.4596
  104MOL0     C13637  -3.143   5.833   3.594  0.3394  0.4800 -0.5538
  104MOL0     C13638  -3.134   5.913   3.724  0.2883 -0.9270  0.3971
  104MOL0     C13639  -3.071   6.046   3.703 -0.6628  0.6134  0.1998
  104MOL0    Cl13640  -3.016   6.108   3.862 -0.3182  0.1778 -0.3060
  104MOL0     C13641  -2.451   5.331   3.625  0.1673  0.7510 -0.4323
  104MOL0     C13642  -2.322   5.295   3.680 -0.0410  0.0019 -1.3101
  104MOL0     O13643  -2.031   5.233   3.703  0.3594 -0.2370 -0.0184
  104MOL0     C13644  -1.834   5.187   3.889  0.3443  0.2807  0.9528
  104MOL0     C13645  -1.729   5.152   3.977  1.2621  0.4118 -0.8679
  104MOL0     N13646  -1.053   4.792   4.227 -0.3013 -0.0268  0.1657
  104MOL0     N13647  -0.939   4.741   4.247  0.1359 -0.2226 -0.6062
  104MOL0     C13648   0.076   4.167   4.229  0.2633 -0.0769 -0.1238
  104MOL0     C13649   0.211   4.158   4.188  0.0627 -0.0648 -0.6245
  104MOL0     C13650   0.631   4.303   4.124  0.6168  0.6490 -1.0207
  104MOL0     C13651   0.666   4.248   4.009 -0.3835 -0.2231  0.0094
  104MOL0     C13652   0.801   4.212   3.998  0.4431 -0.3479  0.0597
  104MOL0     C13653   0.893   4.257   4.094 -0.2619  0.6549 -0.1187
  104MOL0     O13654   1.026   4.218   4.091 -1.2103 -0.3448 -0.2999
  104MOL0     C13655   1.069   4.122   3.988  0.1592  0.2197 -0.9356
  104MOL0     C13656   1.194   4.048   4.036  0.1621 -0.1419  0.1818
  104MOL0     C13657   1.326   4.116   4.018  0.9522  0.3092  0.5784
  104MOL0     C13658   1.454   4.025   4.010  0.3987  0.3348  0.7333
  104MOL0     C13659   1.460   3.940   3.893  0.1979  0.5455  0.1730
  104MOL0     C13660   1.469   3.868   3.796 -0.0801 -0.2997 -0.0300
  104MOL0     C13661   0.854   4.341   4.200 -0.2453 -0.3227 -0.8658
  104MOL0     C13662   0.716   4.354   4.221 -0.2680  0.1194 -0.6661
  104MOL0     H13663   0.239   4.369   3.951  2.5900 -2.8853  0.5894
  104MOL0     H13664  -0.005   4.430   4.032  1.0119  1.4686  1.9784
  104MOL0     H13665  -0.161   4.318   4.411 -3.5015 -0.6402  2.1852
  104MOL0     H13666  -0.156   4.152   4.353 -0.9589 -0.2278  2.1391
  104MOL0     H13667  -0.381   4.173   4.276  1.0474  0.5014 -0.2398
  104MOL0     H13668  -0.371   4.349   4.258  1.0317 -1.1138 -0.9553
  104MOL0     H13669  -0.399   4.372   4.506 -1.5795 -0.8182  1.8486
  104MOL0     H13670  -0.329   4.218   4.528 -1.3265 -1.0216  1.2513
  104MOL0     H13671  -0.554   4.114   4.437  0.5038 -0.6772  0.7316
  104MOL0     H13672  -0.555   4.216   4.586 -4.1734  3.0808 -0.9801
  104MOL0     H13673  -0.741   4.251   4.401 -0.3777  1.8129  0.5811
  104MOL0     H13674  -0.607   4.332   4.326  1.0274 -0.1452  0.3847
  104MOL0     H13675  -0.597   4.494   4.503  1.9118 -2.7180 -0.3356
  104MOL0     H13676  -0.736   4.417   4.587 -0.7882 -1.2463 -1.1072
  104MOL0     H13677  -0.777   4.518   4.301 -1.5803  0.0062  0.0174
  104MOL0     H13678  -0.886   4.435   4.407 -2.2113  1.5690  2.3383
  104MOL0     H13679  -0.761   4.720   4.420 -1.8870  0.0745 -1.6576
  104MOL0     H13680  -0.856   4.653   4.562 -1.4919 -0.7039 -0.2705
  104MOL0     H13681  -1.118   4.679   4.528 -0.4373 -1.7813 -0.7201
  104MOL0     H13682  -1.296   4.850   4.451  0.0125  1.1587 -0.4126
  104MOL0     H13683  -1.335   4.720   4.333 -0.3889  0.7114 -0.4926
  104MOL0     H13684  -1.335   4.834   4.145 -1.9369  2.1753 -0.6976
  104MOL0     H13685  -1.268   4.985   4.197 -2.9961  1.6689 -0.5396
  104MOL0     H13686  -1.534   4.860   4.302  0.0926  1.0722  1.4310
  104MOL0     H13687  -1.464   5.012   4.354 -0.2771  1.0199 -0.9196
  104MOL0     H13688  -1.543   4.944   4.077 -1.1963 -2.5431  0.8598
  104MOL0     H13689  -1.493   5.107   4.132 -0.3580  0.0474  2.1761
  104MOL0     H13690  -1.919   5.024   4.223  1.1913  2.4586  0.1104
  104MOL0     H13691  -2.104   5.083   4.051 -0.6717  1.3933 -1.0992
  104MOL0     H13692  -2.434   5.049   3.886 -1.1952 -0.0092  0.0851
  104MOL0     H13693  -2.653   5.129   3.807 -0.0159 -1.8347 -1.3068
  104MOL0     H13694  -2.697   5.371   3.445 -1.2149  0.5572  1.1429
  104MOL0     H13695  -2.652   5.491   3.579  0.8136  0.1868 -0.0453
  104MOL0     H13696  -2.886   5.481   3.656 -3.9886  1.7711 -0.4594
  104MOL0     H13697  -2.943   5.388   3.523  0.3284 -2.3692  3.8384
  104MOL0     H13698  -2.862   5.567   3.358  2.3116 -2.4824  1.0725
  104MOL0     H13699  -2.806   5.655   3.509 -2.6409  1.1654  2.5514
  104MOL0     H13700  -3.031   5.719   3.376 -0.1679  3.4841  1.8624
  104MOL0     H13701  -3.087   5.565   3.459  0.5940  0.2193 -4.2479
  104MOL0     H13702  -2.948   5.799   3.606 -0.9285  1.0492 -2.8264
  104MOL0     H13703  -3.042   5.671   3.681  2.1906  0.8475  0.5371
  104MOL0     H13704  -3.233   5.770   3.595  1.7934 -1.6865  1.3129
  104MOL0     H13705  -3.141   5.894   3.503 -2.1953 -0.8820 -1.6419
  104MOL0     H13706  -3.227   5.944   3.774 -0.1237 -0.5607 -0.5879
  104MOL0     H13707  -3.082   5.860   3.805  1.3132 -1.4792 -0.5949
  104MOL0     H13708  -3.137   6.117   3.654  3.4537  4.0341 -1.0067
  104MOL0     H13709  -2.989   6.032   3.632 -2.6158 -1.6565 -1.7942
  104MOL0     H13710  -2.447   5.388   3.533 -2.2313 -1.1634 -1.8285
  104MOL0     H13711  -2.232   5.334   3.634  0.8666  0.6404  0.8968
  104MOL0     H13712  -1.809   5.245   3.801 -1.1443 -0.9764 -0.3659
  104MOL0     H13713  -1.625   5.180   3.960  2.4710 -2.4768  0.8952
  104MOL0     H13714   0.038   4.093   4.298 -1.3133 -0.0525 -0.9203
  104MOL0     H13715   0.263   4.081   4.244 -3.2466 -0.3975  2.4280
  104MOL0     H13716   0.595   4.212   3.936  2.3184 -1.7608 -2.0527
  104MOL0     H13717   0.837   4.143   3.922 -0.7346  0.3686 -1.1954
  104MOL0     H13718   1.090   4.162   3.888  1.0643 -0.6879 -1.1319
  104MOL0     H13719   0.998   4.039   3.989  0.5958 -0.1658  0.2747
  104MOL0     H13720   1.175   4.040   4.143 -0.0753  2.6003  0.3951
  104MOL0     H13721   1.203   3.947   3.994 -2.3677 -1.1789  1.8840
  104MOL0     H13722   1.340   4.200   4.087  2.3484  1.3869 -0.9477
  104MOL0     H13723   1.315   4.164   3.921 -1.9669 -2.6290 -0.7436
  104MOL0     H13724   1.542   4.090   4.008  1.8181 -1.5176  0.1446
  104MOL0     H13725   1.445   3.966   4.102  0.1913 -2.5787 -1.0603
  104MOL0     H13726   1.464   3.804   3.710  1.3335  1.5916 -1.6022
  104MOL0     H13727   0.925   4.383   4.271 -0.4575 -0.0527 -0.8137
  104MOL0     H13728   0.678   4.396   4.314  2.9594  2.7043 -0.3584
  105MOL0     O13729   2.048   2.658   5.873  0.1373 -0.2099  0.0795
  105MOL0     C13730   2.067   2.773   5.827  0.3291  0.5824  0.2894
  105MOL0     O13731   1.992   2.881   5.859  0.6197  0.5004 -0.9789
  105MOL0     C13732   1.865   2.863   5.909 -0.4653  0.5180 -1.0689
  105MOL0     C13733   1.836   2.893   6.043 -0.2810 -0.0081  0.0247
  105MOL0     C13734   1.705   2.886   6.088 -0.0020 -0.0903 -0.5441
  105MOL0     C13735   1.595   2.845   6.006  0.2378  0.1286  0.7878
  105MOL0     O13736   1.470   2.829   6.046 -0.0436 -0.1866  0.2607
  105MOL0     C13737   1.424   2.886   6.170  1.0364  0.4255  0.3371
  105MOL0     C13738   1.267   2.905   6.189  0.4230  0.7869  0.0669
  105MOL0     C13739   1.206   3.010   6.090  0.0951 -0.0637  0.5347
  105MOL0     C13740   1.061   3.020   6.117 -0.1692 -0.5721  0.2157
  105MOL0     C13741   0.988   3.100   6.003  0.3722  0.9476  1.3689
  105MOL0     C13742   0.857   3.165   6.042 -0.4394  0.1338  0.5402
  105MOL0     C13743   0.738   3.080   6.060  0.9080  0.6656 -0.0977
  105MOL0     C13744   0.719   2.978   5.951  0.6164 -0.2944  0.1287
  105MOL0     N13745   0.709   3.035   5.819 -0.0792  0.1156  0.1119
  105MOL0     C13746   0.634   3.140   5.783 -0.0618 -0.6081 -0.3187
  105MOL0     C13747   0.664   3.153   5.657 -0.3197 -0.8977 -0.6715
  105MOL0     C13748   0.602   3.264   5.574 -0.2497  0.8754 -0.2954
  105MOL0     C13749   0.457   3.228   5.534  0.0296 -0.2941 -0.6368
  105MOL0     C13750   0.392   3.353   5.490 -0.0474 -0.0870  0.0963
  105MOL0     C13751   0.244   3.334   5.458 -0.0382  0.3869  0.0466
  105MOL0     O13752   0.185   3.462   5.437 -0.0434 -0.2095  0.7093
  105MOL0     C13753   0.047   3.464   5.447  0.2015 -0.1537 -1.1965
  105MOL0     C13754  -0.033   3.349   5.460  0.0256  0.5319  0.4608
  105MOL0     C13755  -0.169   3.355   5.494 -0.1896 -0.4761  1.0939
  105MOL0     C13756  -0.239   3.479   5.502  0.6539  0.0364  0.2780
  105MOL0     C13757  -0.388   3.495   5.516  0.1388  0.8566 -0.2451
  105MOL0     O13758  -0.456   3.616   5.548  0.1990  0.0139  0.5328
  105MOL0     C13759  -0.588   3.604   5.572  0.2281 -0.3720  0.2862
  105MOL0     C13760  -0.634   3.609   5.703  0.0227  0.2400  0.4672
  105MOL0     C13761  -0.773   3.603   5.726  0.8411 -0.5156  0.3293
  105MOL0     C13762  -0.863   3.587   5.622  0.3512 -0.7864  0.0041
  105MOL0     O13763  -0.997   3.577   5.655 -0.2965 -0.2600  0.7117
  105MOL0     C13764  -1.055   3.705   5.659  0.9374 -0.9059 -0.5989
  105MOL0     C13765  -1.213   3.713   5.626 -0.0694  0.1627  0.6195
  105MOL0     C13766  -1.250   3.680   5.474  0.5129 -0.1487  0.1443
  105MOL0     C13767  -1.404   3.690   5.448  0.7382  0.5436 -0.0720
  105MOL0     C13768  -1.486   3.598   5.533  0.2639 -0.9429 -0.2887
  105MOL0     C13769  -1.631   3.580   5.471 -0.8084 -0.0322 -0.6605
  105MOL0     C13770  -1.624   3.504   5.339  0.2872  0.1204  0.9107
  105MOL0     C13771  -1.767   3.445   5.310  0.1902 -0.4368 -0.2771
  105MOL0    Cl13772  -1.867   3.593   5.281  0.2304 -0.0078 -0.4758
  105MOL0     C13773  -0.810   3.576   5.491 -0.1319 -0.1816 -0.1990
  105MOL0     C13774  -0.678   3.587   5.463 -1.0048  0.1352 -0.7616
  105MOL0     O13775  -0.448   3.387   5.515 -0.3182 -0.0370  0.0933
  105MOL0     C13776  -0.158   3.595   5.489  0.2885 -0.3569 -0.5767
  105MOL0     C13777  -0.018   3.582   5.462  0.2068 -0.6041 -0.8469
  105MOL0     N13778   0.755   3.057   5.616  0.2577 -0.1466 -0.3685
  105MOL0     N13779   0.777   2.981   5.715 -0.9973  0.1341  0.4679
  105MOL0     C13780   1.630   2.813   5.875  0.0989  0.0964  0.2220
  105MOL0     C13781   1.757   2.828   5.827 -0.5209  0.1090 -1.0564
  105MOL0     C13782   2.185   2.783   5.755  0.1060  0.5691 -0.5803
  105MOL0     C13783   2.190   2.870   5.649 -0.5101 -0.4913 -0.4515
  105MOL0     C13784   2.307   2.882   5.581 -0.6797  0.5832  1.5463
  105MOL0     C13785   2.422   2.809   5.618 -0.8093  0.5312  0.8968
  105MOL0     O13786   2.545   2.821   5.559  0.3941  0.2789 -0.2346
  105MOL0     C13787   2.617   2.710   5.504  0.2542  0.0807 -0.2854
  105MOL0     C13788   2.763   2.697   5.549  0.1711 -0.2497 -0.1114
  105MOL0     C13789   2.841   2.828   5.549 -0.4293  0.1263 -0.5384
  105MOL0     C13790   2.997   2.805   5.518  0.3265  0.3495 -0.2068
  105MOL0     C13791   3.069   2.743   5.636 -0.4848 -0.1999  0.0065
  105MOL0     C13792   3.140   2.705   5.726  0.5201 -0.3392  0.5065
  105MOL0     C13793   2.422   2.732   5.733  0.0078  0.3502  0.1511
  105MOL0     C13794   2.307   2.724   5.804  0.0988  0.0701  0.7565
  105MOL0     H13795   1.907   2.925   6.118  0.5167  0.4054 -0.8803
  105MOL0     H13796   1.695   2.910   6.194  2.2529 -4.2814  0.8582
  105MOL0     H13797   1.473   2.982   6.186  2.1256 -0.4196  2.3850
  105MOL0     H13798   1.457   2.820   6.251 -1.1286 -1.6565 -0.3504
  105MOL0     H13799   1.252   2.923   6.296 -1.6251 -1.8825  0.3589
  105MOL0     H13800   1.230   2.807   6.156  3.0071  0.2004 -1.3517
  105MOL0     H13801   1.227   2.968   5.992  1.4508 -2.6756  1.8373
  105MOL0     H13802   1.257   3.107   6.096 -0.9871  0.4615  1.9490
  105MOL0     H13803   1.017   2.920   6.108 -2.6237  0.2358  2.0326
  105MOL0     H13804   1.034   3.060   6.215  2.0940  1.8148 -0.0306
  105MOL0     H13805   0.976   3.039   5.914 -3.1564  2.2197  0.8249
  105MOL0     H13806   1.054   3.181   5.968  0.6101  1.4786  2.9509
  105MOL0     H13807   0.825   3.244   5.974 -3.9597 -0.9319  0.7273
  105MOL0     H13808   0.859   3.229   6.131 -0.5165 -1.1031  1.4618
  105MOL0     H13809   0.749   3.030   6.157  0.0363  1.0885  0.2311
  105MOL0     H13810   0.654   3.150   6.054  0.5614  0.1590 -1.4680
  105MOL0     H13811   0.633   2.913   5.969  1.0343 -0.2964  2.3643
  105MOL0     H13812   0.814   2.923   5.948  1.4558  0.8415  2.7007
  105MOL0     H13813   0.560   3.196   5.839  0.3917 -2.0023  1.8137
  105MOL0     H13814   0.660   3.276   5.482 -0.0230 -1.2377 -0.4726
  105MOL0     H13815   0.604   3.357   5.631  1.7031 -0.7628  2.5234
  105MOL0     H13816   0.402   3.194   5.622 -1.6338  0.3011 -1.4152
  105MOL0     H13817   0.446   3.151   5.458 -0.3711 -0.3126 -0.5627
  105MOL0     H13818   0.399   3.423   5.573  2.1905 -0.7620  0.5415
  105MOL0     H13819   0.435   3.395   5.398 -1.9589 -0.0055 -0.8258
  105MOL0     H13820   0.199   3.275   5.538  2.7728 -0.1881  1.3357
  105MOL0     H13821   0.238   3.288   5.359 -1.5445 -0.5935  0.5635
  105MOL0     H13822  -0.004   3.245   5.453 -1.5874  0.0833  0.0719
  105MOL0     H13823  -0.224   3.262   5.500  0.4692 -0.9526 -0.0379
  105MOL0     H13824  -0.567   3.628   5.787  0.0504 -1.4399  0.8561
  105MOL0     H13825  -0.820   3.614   5.824 -2.6450  3.9112 -1.4572
  105MOL0     H13826  -1.003   3.781   5.598  2.3189 -0.4831  1.0332
  105MOL0     H13827  -1.059   3.752   5.757 -1.3555  1.7696 -1.8136
  105MOL0     H13828  -1.248   3.816   5.641  0.7319  0.6376 -0.5548
  105MOL0     H13829  -1.265   3.650   5.698  2.0156 -1.5938  0.6904
  105MOL0     H13830  -1.207   3.585   5.440  1.4385 -0.0478  0.9800
  105MOL0     H13831  -1.201   3.758   5.415  1.5271  0.7830  2.1318
  105MOL0     H13832  -1.452   3.788   5.454 -2.8621 -1.0636 -0.2981
  105MOL0     H13833  -1.425   3.665   5.344  0.1939 -1.2900  0.4496
  105MOL0     H13834  -1.504   3.628   5.637 -1.2034 -0.0099 -0.7896
  105MOL0     H13835  -1.438   3.500   5.536  2.9359  0.2673 -0.5145
  105MOL0     H13836  -1.684   3.676   5.461 -0.5656  0.0335 -1.3670
  105MOL0     H13837  -1.691   3.515   5.535 -0.5623  0.2001 -0.1864
  105MOL0     H13838  -1.597   3.575   5.260  3.5032  0.8463  2.5150
  105MOL0     H13839  -1.557   3.419   5.337 -0.5991 -0.6203  1.8613
  105MOL0     H13840  -1.809   3.388   5.394 -2.8037  1.6164 -0.2184
  105MOL0     H13841  -1.775   3.380   5.222 -3.5525 -0.3525 -0.1540
  105MOL0     H13842  -0.880   3.582   5.408 -0.3020  0.8736  0.0143
  105MOL0     H13843  -0.633   3.569   5.366  0.5163  1.2975 -0.3250
  105MOL0     H13844  -0.196   3.695   5.505 -0.2535 -0.6716  0.1343
  105MOL0     H13845   0.028   3.680   5.452  0.3921 -0.5184  0.6564
  105MOL0     H13846   1.552   2.781   5.807  0.6812 -1.4400  0.2306
  105MOL0     H13847   1.775   2.827   5.720 -0.5027  1.4450 -1.0803
  105MOL0     H13848   2.105   2.935   5.627 -0.7784 -0.6875 -0.0118
  105MOL0     H13849   2.311   2.934   5.486 -0.0369 -0.4118  1.0070
  105MOL0     H13850   2.618   2.729   5.396  2.4032  1.7398 -0.0466
  105MOL0     H13851   2.568   2.615   5.526  1.0429 -0.4243 -0.6767
  105MOL0     H13852   2.757   2.668   5.655 -2.8319 -2.6780 -0.7891
  105MOL0     H13853   2.819   2.621   5.494  1.6875 -0.3831  1.5388
  105MOL0     H13854   2.830   2.859   5.653 -1.4907 -0.1129 -0.5762
  105MOL0     H13855   2.784   2.889   5.478 -0.5725 -1.5095 -1.8980
  105MOL0     H13856   3.004   2.743   5.428 -2.1616 -2.0078  1.0381
  105MOL0     H13857   3.036   2.903   5.489 -3.3965  1.7620 -1.0146
  105MOL0     H13858   3.183   2.662   5.815 -3.2599 -1.3917  2.0386
  105MOL0     H13859   2.513   2.680   5.760 -0.2677 -0.0817  0.2567
  105MOL0     H13860   2.307   2.656   5.889 -2.8113 -0.7811  0.1780
  106MOL0     O13861   7.743   0.834  10.901 -0.3569 -0.2250 -0.1288
  106MOL0     C13862   7.805   0.895  10.815  0.0979  0.6617  0.2434
  106MOL0     O13863   7.741   0.959  10.708 -1.4634  0.8725 -0.0329
  106MOL0     C13864   7.611   0.944  10.666 -0.6463 -0.3418 -0.8898
  106MOL0     C13865   7.509   0.888  10.748 -0.5775  0.1336  0.4512
  106MOL0     C13866   7.376   0.896  10.704  0.5017  0.3672 -0.5600
  106MOL0     C13867   7.343   0.941  10.576 -0.6018  0.6997 -0.4588
  106MOL0     O13868   7.211   0.952  10.532 -0.0774  0.3030 -0.1912
  106MOL0     C13869   7.188   0.928  10.395 -0.6517  0.3070  0.7800
  106MOL0     C13870   7.036   0.924  10.371 -0.1925  0.0108 -0.5043
  106MOL0     C13871   6.990   1.030  10.269  0.2202  0.2408 -0.2209
  106MOL0     C13872   6.833   1.034  10.267 -0.6176  0.7394  0.3310
  106MOL0     C13873   6.782   1.137  10.174  0.0333 -0.7094  0.1941
  106MOL0     C13874   6.633   1.125  10.161  0.4795 -0.0968 -0.8177
  106MOL0     C13875   6.577   1.239  10.070 -0.7212  0.5691 -0.1461
  106MOL0     C13876   6.427   1.214  10.044 -0.3693  0.6059 -0.3020
  106MOL0     N13877   6.380   1.315   9.953  0.4347 -0.1331  0.4069
  106MOL0     C13878   6.322   1.446   9.977  0.0877  0.3256  0.1813
  106MOL0     C13879   6.305   1.488   9.856 -0.4608 -1.2810  0.3876
  106MOL0     C13880   6.225   1.608   9.819 -0.6415  0.6056 -0.5744
  106MOL0     C13881   6.156   1.588   9.691 -0.2927 -0.4305 -0.2299
  106MOL0     C13882   6.042   1.686   9.680  0.3341 -0.5565 -0.4654
  106MOL0     C13883   5.936   1.635   9.585  0.6535  0.1842  0.0927
  106MOL0     O13884   5.859   1.537   9.662 -0.0595  0.0337  0.2046
  106MOL0     C13885   5.729   1.509   9.628  0.3538 -0.2869 -0.4928
  106MOL0     C13886   5.664   1.541   9.516  0.1646 -0.4148 -0.0267
  106MOL0     C13887   5.527   1.505   9.501 -0.0001  0.4592 -0.3412
  106MOL0     C13888   5.455   1.428   9.604 -0.3336 -1.3167  0.5494
  106MOL0     C13889   5.312   1.390   9.589 -0.1347 -0.1957 -0.2447
  106MOL0     O13890   5.276   1.356   9.469 -0.0899  0.4241 -0.5359
  106MOL0     C13891   5.162   1.276   9.457  0.0296  0.3828 -0.2401
  106MOL0     C13892   5.161   1.136   9.490  0.7220 -0.5468  1.0253
  106MOL0     C13893   5.040   1.063   9.463 -0.0633  0.1198 -0.5099
  106MOL0     C13894   4.924   1.129   9.413 -0.0916 -0.3314  0.6176
  106MOL0     O13895   4.813   1.051   9.398  0.5779  0.1915  0.3176
  106MOL0     C13896   4.744   1.042   9.521  0.0806 -0.7241  0.5092
  106MOL0     C13897   4.632   0.937   9.506  0.0941  0.4468  0.2934
  106MOL0     C13898   4.510   0.989   9.433  1.0869  0.6753 -0.8261
  106MOL0     C13899   4.410   0.869   9.406 -0.2030 -0.1339  0.8990
  106MOL0     C13900   4.307   0.903   9.299 -0.1018 -0.4460 -0.5913
  106MOL0     C13901   4.241   1.046   9.324 -0.6970  0.0485 -0.2769
  106MOL0     C13902   4.118   1.060   9.241 -0.8957  0.9043  0.3897
  106MOL0     C13903   4.141   1.070   9.089  0.3342  0.0574 -0.2599
  106MOL0    Cl13904   4.245   1.201   9.040  0.2252  0.4480  0.2415
  106MOL0     C13905   4.934   1.261   9.370  0.4137 -0.0524  0.0472
  106MOL0     C13906   5.047   1.335   9.395  0.2864  0.1562 -0.0787
  106MOL0     O13907   5.233   1.407   9.681  0.7211 -0.1496  0.6582
  106MOL0     C13908   5.526   1.395   9.720  0.4631 -0.1291  0.0852
  106MOL0     C13909   5.659   1.436   9.729  0.6445 -0.7718  0.3799
  106MOL0     N13910   6.347   1.395   9.765 -0.2632 -0.3054  0.6000
  106MOL0     N13911   6.396   1.293   9.823  1.0456  0.2031 -0.2587
  106MOL0     C13912   7.446   0.994  10.493 -0.2277 -1.3701 -0.5795
  106MOL0     C13913   7.576   1.004  10.541  0.3438  0.7014  0.4576
  106MOL0     C13914   7.956   0.904  10.832  0.1185 -0.8953  0.1750
  106MOL0     C13915   8.032   0.938  10.722 -0.0212  0.3995  0.7264
  106MOL0     C13916   8.167   0.939  10.725 -0.4175 -0.1997 -0.2063
  106MOL0     C13917   8.235   0.911  10.847  0.3112  0.4651 -0.0948
  106MOL0     O13918   8.370   0.904  10.830 -0.2499 -0.5962  0.0805
  106MOL0     C13919   8.445   0.869  10.949  0.2670  0.8420 -0.2662
  106MOL0     C13920   8.456   0.984  11.049 -0.7743 -0.0792  1.2373
  106MOL0     C13921   8.551   0.947  11.160  0.5426  1.4319 -0.2066
  106MOL0     C13922   8.506   0.830  11.249  0.2229 -0.1244 -0.4620
  106MOL0     C13923   8.372   0.837  11.310  0.4208  0.2056 -0.7455
  106MOL0     C13924   8.271   0.857  11.369 -0.2238  0.5854 -1.1534
  106MOL0     C13925   8.164   0.887  10.966 -0.4200  0.4615 -0.2862
  106MOL0     C13926   8.025   0.872  10.948  0.0379 -0.6983 -0.1163
  106MOL0     H13927   7.522   0.847  10.848 -0.2243  1.2454  0.8788
  106MOL0     H13928   7.288   0.864  10.757  0.6352 -0.9627 -1.0961
  106MOL0     H13929   7.238   0.837  10.362 -0.0595  1.9854 -3.7137
  106MOL0     H13930   7.234   1.008  10.336 -0.3405  0.2008  0.8792
  106MOL0     H13931   6.983   0.944  10.465 -1.6044 -1.2919 -0.9816
  106MOL0     H13932   7.001   0.821  10.358 -1.4224  0.3872 -0.2997
  106MOL0     H13933   7.021   0.995  10.170  1.4159  1.1627 -0.1936
  106MOL0     H13934   7.022   1.132  10.296 -2.6775  1.4022 -0.7786
  106MOL0     H13935   6.799   0.933  10.238  0.8626  0.8477 -2.0768
  106MOL0     H13936   6.806   1.053  10.371 -1.7499  2.5130 -0.2418
  106MOL0     H13937   6.825   1.126  10.073 -0.6285 -0.0763 -0.1638
  106MOL0     H13938   6.805   1.236  10.213 -1.2557 -0.0458 -0.6691
  106MOL0     H13939   6.586   1.119  10.260  0.0462 -1.1058 -1.0682
  106MOL0     H13940   6.615   1.033  10.104 -1.2736 -0.3393  0.0743
  106MOL0     H13941   6.594   1.336  10.117 -1.7611  1.6786 -1.9440
  106MOL0     H13942   6.634   1.242   9.977 -0.4118  1.1481  0.0556
  106MOL0     H13943   6.365   1.212  10.134 -1.2367 -0.6540 -0.8888
  106MOL0     H13944   6.412   1.118   9.994 -1.0493  0.0904  0.8578
  106MOL0     H13945   6.291   1.494  10.070  1.4649  0.1405  0.7586
  106MOL0     H13946   6.292   1.692   9.798 -0.5744  0.6803 -0.0775
  106MOL0     H13947   6.158   1.633   9.902 -0.4881 -6.0719  2.1726
  106MOL0     H13948   6.125   1.483   9.683 -2.4753  0.1677 -0.2797
  106MOL0     H13949   6.225   1.601   9.607  1.3938  3.2814  1.5045
  106MOL0     H13950   5.990   1.696   9.776 -0.8749 -1.3277 -1.0199
  106MOL0     H13951   6.082   1.781   9.645  1.7157 -0.9346  0.0423
  106MOL0     H13952   5.988   1.592   9.499  1.6989 -0.9669  1.2450
  106MOL0     H13953   5.876   1.721   9.553 -1.9027 -1.0584  1.2038
  106MOL0     H13954   5.724   1.590   9.440  1.4827  0.6943  1.6763
  106MOL0     H13955   5.468   1.541   9.417 -2.2396 -0.9467  0.5300
  106MOL0     H13956   5.250   1.092   9.535  3.4548  2.4545 -0.9564
  106MOL0     H13957   5.024   0.957   9.482 -0.8213  0.4364  0.7154
  106MOL0     H13958   4.700   1.136   9.557  1.1868 -1.2578  3.6339
  106MOL0     H13959   4.813   1.019   9.603  0.8160  0.0468  0.1181
  106MOL0     H13960   4.604   0.896   9.604 -1.5065  1.0037  0.1021
  106MOL0     H13961   4.674   0.853   9.449 -1.1893 -1.1294  1.5588
  106MOL0     H13962   4.528   1.035   9.335  1.3247 -1.3754 -1.7952
  106MOL0     H13963   4.456   1.063   9.493  0.0860 -0.3029 -0.4965
  106MOL0     H13964   4.461   0.777   9.375  2.9103  2.2139 -1.6330
  106MOL0     H13965   4.356   0.860   9.501  1.9798 -0.6616  2.1812
  106MOL0     H13966   4.232   0.825   9.288 -0.9857  0.1421  0.9173
  106MOL0     H13967   4.365   0.912   9.207 -1.1799  1.5398 -1.1230
  106MOL0     H13968   4.319   1.124   9.325  1.6831 -2.1274 -1.9401
  106MOL0     H13969   4.192   1.043   9.421 -0.7725 -2.3957 -0.3498
  106MOL0     H13970   4.073   0.964   9.268  5.5853 -2.2420  2.2965
  106MOL0     H13971   4.064   1.152   9.263  1.4642  2.3982  0.3135
  106MOL0     H13972   4.047   1.086   9.034  0.4954  2.5883  0.0853
  106MOL0     H13973   4.181   0.972   9.058  1.3484  1.0498 -2.2883
  106MOL0     H13974   4.849   1.322   9.341  0.9666  1.7938  2.1178
  106MOL0     H13975   5.047   1.435   9.354  1.3112 -0.9571 -3.0892
  106MOL0     H13976   5.477   1.335   9.796  4.3351 -0.5661  2.5369
  106MOL0     H13977   5.712   1.408   9.819 -0.1165 -4.8110 -0.2137
  106MOL0     H13978   7.428   1.041  10.396  0.9946  3.6493  1.3193
  106MOL0     H13979   7.640   1.068  10.482  1.0922  1.2196  1.7824
  106MOL0     H13980   7.982   0.969  10.631 -1.3996  1.7879  1.9006
  106MOL0     H13981   8.234   0.961  10.643  0.5660 -1.0934  0.3278
  106MOL0     H13982   8.534   0.816  10.914 -0.9210 -0.1658 -1.9385
  106MOL0     H13983   8.398   0.780  10.992 -1.2831  0.8553 -1.7941
  106MOL0     H13984   8.489   1.069  10.989 -0.2354 -0.9572  0.2588
  106MOL0     H13985   8.363   1.027  11.088 -1.2863  1.1505 -1.1576
  106MOL0     H13986   8.571   1.035  11.222  1.6413  0.1792  1.3159
  106MOL0     H13987   8.644   0.931  11.106 -1.1104 -1.2741 -2.5503
  106MOL0     H13988   8.498   0.737  11.192 -0.5617  0.2575 -0.9861
  106MOL0     H13989   8.582   0.810  11.326  2.3572 -0.3049 -2.4921
  106MOL0     H13990   8.170   0.866  11.402 -0.5102  0.0307 -1.8533
  106MOL0     H13991   8.193   0.845  11.061 -1.2911  2.3406  0.8707
  106MOL0     H13992   7.968   0.830  11.030 -2.4693  3.7575  0.7385
  107MOL0     O13993   6.552   4.354   2.359  0.4783 -0.9208 -0.2557
  107MOL0     C13994   6.492   4.394   2.459 -0.4390  0.6782  0.2770
  107MOL0     O13995   6.564   4.458   2.559 -0.2857  0.8258 -0.2902
  107MOL0     C13996   6.697   4.488   2.548  1.2821  0.1157  0.6961
  107MOL0     C13997   6.791   4.425   2.621 -0.3015  0.1841 -0.4993
  107MOL0     C13998   6.925   4.470   2.603 -0.4015  0.8770 -0.2458
  107MOL0     C13999   6.968   4.577   2.521 -0.3177  0.4663  0.6262
  107MOL0     O14000   7.094   4.634   2.510 -0.1611 -0.1470  0.0185
  107MOL0     C14001   7.116   4.763   2.458  0.3631  0.5728 -0.2451
  107MOL0     C14002   7.255   4.818   2.490  0.7067  0.1613 -0.7378
  107MOL0     C14003   7.260   4.857   2.641  1.0072 -1.0548 -0.2532
  107MOL0     C14004   7.404   4.900   2.684 -0.0304  0.3556 -0.9573
  107MOL0     C14005   7.421   4.881   2.837 -0.2102  0.1172 -0.6834
  107MOL0     C14006   7.565   4.916   2.875  0.1318 -0.4336 -0.6108
  107MOL0     C14007   7.582   5.071   2.893  0.3769 -0.8938 -0.7446
  107MOL0     C14008   7.510   5.146   3.010 -0.5226  0.6973  0.2767
  107MOL0     N14009   7.365   5.180   2.989 -0.2816  0.6135 -0.9006
  107MOL0     C14010   7.266   5.149   3.081 -0.3994 -0.4645 -0.1157
  107MOL0     C14011   7.157   5.215   3.030  0.1849 -0.0803 -1.0489
  107MOL0     C14012   7.019   5.208   3.086 -0.0769  0.3245  0.1171
  107MOL0     C14013   6.905   5.181   2.978 -1.2413 -0.2422  0.7097
  107MOL0     C14014   6.899   5.030   2.940 -0.4683  0.1612  0.4528
  107MOL0     C14015   6.786   4.999   2.846 -0.1197 -0.1553 -0.3964
  107MOL0     O14016   6.753   4.855   2.844 -0.0308 -0.3566  0.6241
  107MOL0     C14017   6.619   4.830   2.812 -0.5844 -0.0281  0.2940
  107MOL0     C14018   6.569   4.853   2.689  0.6132  0.2596  0.1729
  107MOL0     C14019   6.432   4.846   2.665  0.5036 -0.1547  0.6815
  107MOL0     C14020   6.339   4.807   2.759  0.8191  0.3183  0.3089
  107MOL0     C14021   6.203   4.785   2.727 -0.1947  0.5206  0.1328
  107MOL0     O14022   6.152   4.881   2.645  0.7076  0.3471 -0.4019
  107MOL0     C14023   6.023   4.864   2.611 -0.1856  0.5437  0.2494
  107MOL0     C14024   5.980   4.766   2.523 -0.3353 -0.4283 -0.4769
  107MOL0     C14025   5.840   4.747   2.495 -0.8646  0.4190  0.0386
  107MOL0     C14026   5.750   4.830   2.561  0.2764  0.4455  0.0291
  107MOL0     O14027   5.610   4.804   2.571 -0.6997 -0.7161  0.0287
  107MOL0     C14028   5.545   4.875   2.466 -0.6277 -1.0047  0.0928
  107MOL0     C14029   5.399   4.855   2.487 -0.4918 -0.4655 -0.5462
  107MOL0     C14030   5.315   4.954   2.393 -0.7028  0.2727 -0.1924
  107MOL0     C14031   5.182   4.887   2.359  0.2829 -0.4005 -0.1026
  107MOL0     C14032   5.092   4.987   2.280 -0.2528 -0.0688 -0.3523
  107MOL0     C14033   4.950   4.950   2.297  0.9185 -0.2566 -0.4160
  107MOL0     C14034   4.913   4.813   2.228  0.2313 -0.6660 -0.2756
  107MOL0     C14035   4.761   4.810   2.192  0.1239 -0.4566 -0.4529
  107MOL0    Cl14036   4.709   4.654   2.136  0.3547  0.2188  0.2238
  107MOL0     C14037   5.794   4.939   2.643 -1.5433  0.1379 -0.7061
  107MOL0     C14038   5.934   4.951   2.663  0.1509 -0.8677  0.2881
  107MOL0     O14039   6.143   4.692   2.781  0.2035 -0.0749 -0.1303
  107MOL0     C14040   6.390   4.802   2.884 -0.1846  0.0132 -0.0413
  107MOL0     C14041   6.531   4.816   2.911  0.9491  0.0300 -0.6149
  107MOL0     N14042   7.201   5.290   2.920  0.3981  0.6724  0.4524
  107MOL0     N14043   7.320   5.261   2.895 -0.5490 -0.5292 -0.0399
  107MOL0     C14044   6.862   4.625   2.439 -0.1165  0.1857 -0.7246
  107MOL0     C14045   6.728   4.583   2.459  0.4209 -0.5131  0.2175
  107MOL0     C14046   6.347   4.362   2.485 -0.7531  1.0608 -0.6149
  107MOL0     C14047   6.262   4.334   2.381 -1.0212  0.0096 -0.6265
  107MOL0     C14048   6.133   4.328   2.401 -0.3827  0.6123 -0.3078
  107MOL0     C14049   6.081   4.357   2.526 -0.3449 -0.4108 -0.5896
  107MOL0     O14050   5.945   4.365   2.535 -0.6022 -0.1135 -0.8380
  107MOL0     C14051   5.889   4.438   2.646  0.1348 -0.7070 -0.0858
  107MOL0     C14052   5.739   4.444   2.632  0.3778  0.3494  0.4717
  107MOL0     C14053   5.660   4.307   2.642 -0.7502 -0.6065 -0.0681
  107MOL0     C14054   5.521   4.336   2.700 -0.2172  0.6836  0.1415
  107MOL0     C14055   5.448   4.401   2.591 -0.4575  0.1024 -1.4848
  107MOL0     C14056   5.386   4.445   2.506 -0.5755  0.2753 -0.1777
  107MOL0     C14057   6.164   4.395   2.639  0.0899 -0.0545  0.7318
  107MOL0     C14058   6.305   4.384   2.615  0.4835  0.5962 -0.2187
  107MOL0     H14059   6.768   4.341   2.687  0.1090  0.9134  0.5961
  107MOL0     H14060   7.005   4.424   2.660 -1.0320  0.8583  0.6310
  107MOL0     H14061   7.043   4.837   2.491  0.7317  0.7529  0.1756
  107MOL0     H14062   7.119   4.743   2.351 -2.7989 -1.3628 -0.0767
  107MOL0     H14063   7.269   4.904   2.425  0.6343  1.5612  1.0384
  107MOL0     H14064   7.329   4.739   2.478  0.9170  0.3968 -0.9822
  107MOL0     H14065   7.223   4.776   2.704  0.8988  1.3989  3.1431
  107MOL0     H14066   7.194   4.944   2.646  4.2621  1.6473 -0.6556
  107MOL0     H14067   7.481   4.843   2.630  0.7175 -0.9210  1.3426
  107MOL0     H14068   7.417   5.008   2.673 -1.2178  0.9348  2.2526
  107MOL0     H14069   7.405   4.773   2.838 -2.1913  0.2894 -2.7922
  107MOL0     H14070   7.336   4.926   2.890  0.5433 -0.6280  1.2486
  107MOL0     H14071   7.632   4.872   2.801 -2.8184 -2.2120 -2.4036
  107MOL0     H14072   7.584   4.861   2.968 -3.0419  0.2350  0.5393
  107MOL0     H14073   7.690   5.082   2.903  0.6084 -0.9585 -2.7472
  107MOL0     H14074   7.560   5.121   2.798  0.5261 -1.3775 -1.0383
  107MOL0     H14075   7.549   5.245   3.036 -0.7826  0.2191  2.8145
  107MOL0     H14076   7.524   5.079   3.096 -0.6191 -1.7967 -1.5466
  107MOL0     H14077   7.280   5.087   3.170 -1.7353 -3.6133 -1.9198
  107MOL0     H14078   7.003   5.291   3.156 -1.3954 -2.0503  2.8394
  107MOL0     H14079   7.014   5.130   3.162  1.6635 -0.2682 -0.3288
  107MOL0     H14080   6.936   5.238   2.890 -0.1582 -1.6483  0.1614
  107MOL0     H14081   6.808   5.219   3.013 -1.5775  0.0242 -0.4842
  107MOL0     H14082   6.997   5.011   2.896 -0.9314  3.6609 -2.5320
  107MOL0     H14083   6.882   4.969   3.030 -1.0421  1.3086  1.1527
  107MOL0     H14084   6.806   5.025   2.742 -3.6741  3.1074 -0.5041
  107MOL0     H14085   6.696   5.058   2.868 -0.7546 -0.6438 -1.5906
  107MOL0     H14086   6.636   4.877   2.608  0.1088 -0.5309 -0.4968
  107MOL0     H14087   6.384   4.860   2.569 -0.8996 -0.0553  1.3666
  107MOL0     H14088   6.053   4.713   2.463 -0.6117 -0.0270 -1.1894
  107MOL0     H14089   5.802   4.672   2.426  0.6088  0.0347 -0.4010
  107MOL0     H14090   5.568   4.831   2.369 -0.0195 -0.0533 -0.2116
  107MOL0     H14091   5.566   4.983   2.470  2.4720 -1.4739 -0.6535
  107MOL0     H14092   5.367   4.870   2.591 -0.0704 -0.0330 -0.4749
  107MOL0     H14093   5.376   4.748   2.479 -1.5204 -0.2680 -0.3886
  107MOL0     H14094   5.379   4.968   2.306 -0.2851 -1.2039 -0.1468
  107MOL0     H14095   5.293   5.044   2.452  0.1390  0.0193  0.5334
  107MOL0     H14096   5.204   4.800   2.297  0.6604  0.2665 -0.9169
  107MOL0     H14097   5.128   4.863   2.451  0.7289  0.7515  0.4922
  107MOL0     H14098   5.126   4.980   2.177  2.0609  1.8434  0.1996
  107MOL0     H14099   5.114   5.086   2.322  5.5870 -0.9926 -0.3591
  107MOL0     H14100   4.896   5.028   2.243  0.0868  1.6049  2.8169
  107MOL0     H14101   4.904   4.950   2.396 -0.7618 -3.3867 -1.0723
  107MOL0     H14102   4.968   4.807   2.134  1.0398  0.3930  0.1158
  107MOL0     H14103   4.936   4.732   2.297 -0.4654  0.8193  1.7936
  107MOL0     H14104   4.744   4.888   2.117  0.9670  0.3517  0.1754
  107MOL0     H14105   4.704   4.834   2.282  0.5422  0.2151 -0.3607
  107MOL0     H14106   5.727   5.005   2.697 -1.5511  0.9421 -1.6689
  107MOL0     H14107   5.972   5.031   2.727 -0.0914 -0.6213  0.1293
  107MOL0     H14108   6.332   4.786   2.975 -0.7899 -1.9732 -0.7171
  107MOL0     H14109   6.550   4.795   3.016 -3.0173  1.9149  0.7042
  107MOL0     H14110   6.886   4.708   2.374 -1.8163  1.3098  0.0190
  107MOL0     H14111   6.641   4.620   2.406  1.0179  0.0427 -0.4033
  107MOL0     H14112   6.303   4.324   2.281 -1.2394 -2.6046 -0.5395
  107MOL0     H14113   6.064   4.305   2.321  1.1163 -3.6549 -0.5947
  107MOL0     H14114   5.936   4.537   2.649 -0.2227 -0.5011 -0.9384
  107MOL0     H14115   5.903   4.394   2.745 -2.6723  0.9231  1.1805
  107MOL0     H14116   5.705   4.516   2.707 -1.1792  0.4188 -0.2526
  107MOL0     H14117   5.722   4.489   2.533  0.5192 -1.9727 -0.6856
  107MOL0     H14118   5.712   4.249   2.719 -2.9835 -2.2315  0.3183
  107MOL0     H14119   5.653   4.255   2.546 -1.0399 -1.3628  0.3556
  107MOL0     H14120   5.478   4.240   2.730  1.2889 -1.1027 -2.8899
  107MOL0     H14121   5.536   4.413   2.776  1.2575 -0.2204  0.8007
  107MOL0     H14122   5.320   4.496   2.439  2.3020  3.1123 -1.1553
  107MOL0     H14123   6.123   4.430   2.734 -0.3275  0.6220  0.3067
  107MOL0     H14124   6.373   4.422   2.691 -0.5179  0.5777  0.7163
  108MOL0     O14125   9.524   0.794   5.322  0.3533  0.4300 -0.0040
  108MOL0     C14126   9.491   0.694   5.381  0.3312  0.2904  1.3126
  108MOL0     O14127   9.376   0.691   5.457 -0.0323  0.4253  0.1686
  108MOL0     C14128   9.295   0.793   5.477 -0.2331  0.2782 -0.6821
  108MOL0     C14129   9.158   0.759   5.465  0.3543  0.8499  0.0591
  108MOL0     C14130   9.060   0.859   5.479 -0.3362  0.3383  0.0196
  108MOL0     C14131   9.092   0.990   5.510  0.0387  0.1158 -0.1028
  108MOL0     O14132   9.003   1.082   5.546  0.3125 -0.3112 -0.0847
  108MOL0     C14133   8.871   1.038   5.569  0.5764 -0.0907  0.0668
  108MOL0     C14134   8.782   1.129   5.643 -0.3427  0.1271 -1.2108
  108MOL0     C14135   8.636   1.082   5.643 -0.0644  0.6401  0.4035
  108MOL0     C14136   8.543   1.184   5.704 -0.6962  0.1426 -0.6770
  108MOL0     C14137   8.407   1.129   5.723  0.1530 -0.0797 -0.2918
  108MOL0     C14138   8.329   1.238   5.801 -0.0194 -0.3307  0.0800
  108MOL0     C14139   8.179   1.212   5.794  0.3874  0.0541  0.2497
  108MOL0     C14140   8.092   1.312   5.864  0.3336 -0.2509 -0.5850
  108MOL0     N14141   7.952   1.281   5.862  0.0237 -0.1550  0.4796
  108MOL0     C14142   7.898   1.162   5.903 -0.0834  0.5009 -0.3395
  108MOL0     C14143   7.783   1.151   5.837 -0.2462 -1.6182  0.4301
  108MOL0     C14144   7.700   1.027   5.821 -0.4609  0.7062 -0.1974
  108MOL0     C14145   7.567   1.043   5.900 -0.3333  0.6545 -0.1144
  108MOL0     C14146   7.505   0.910   5.888 -0.0301 -0.1904 -0.3185
  108MOL0     C14147   7.360   0.926   5.912  0.1656  0.5993 -0.4737
  108MOL0     O14148   7.290   0.801   5.918 -0.2863  0.0807  0.3137
  108MOL0     C14149   7.157   0.791   5.950 -0.4735  0.2326  1.3151
  108MOL0     C14150   7.067   0.895   5.938  0.5898  0.2802 -0.4441
  108MOL0     C14151   6.931   0.866   5.974 -0.1245  0.7866 -0.3458
  108MOL0     C14152   6.888   0.743   6.030 -0.0260  1.0383  0.5045
  108MOL0     C14153   6.758   0.714   6.108 -0.5366  0.4174 -0.3218
  108MOL0     O14154   6.728   0.582   6.127 -0.5585  0.1749 -0.5066
  108MOL0     C14155   6.644   0.562   6.230 -0.1968  0.1795  0.1037
  108MOL0     C14156   6.697   0.503   6.342 -0.2753 -1.2636 -1.0510
  108MOL0     C14157   6.615   0.489   6.454 -0.2776  0.4610  0.1917
  108MOL0     C14158   6.477   0.527   6.448  0.2931 -0.1366  0.9062
  108MOL0     O14159   6.401   0.506   6.564  0.4512  1.1003  0.2152
  108MOL0     C14160   6.313   0.609   6.596  0.0865 -0.0219  0.3533
  108MOL0     C14161   6.249   0.579   6.733 -0.1761  0.9400  0.6469
  108MOL0     C14162   6.106   0.642   6.745  0.1966  0.2186  0.9696
  108MOL0     C14163   6.121   0.797   6.762  0.4390  0.0760 -0.1131
  108MOL0     C14164   5.984   0.849   6.810 -0.2357  0.7541  0.5263
  108MOL0     C14165   5.885   0.842   6.702 -0.4718 -0.0923 -0.0078
  108MOL0     C14166   5.757   0.907   6.726 -0.9923 -0.9610 -0.2752
  108MOL0     C14167   5.717   1.005   6.611 -0.5869 -0.6037  0.2158
  108MOL0    Cl14168   5.663   0.928   6.462  0.1375 -0.0747  0.0473
  108MOL0     C14169   6.427   0.578   6.334  0.0048 -0.3759 -0.3623
  108MOL0     C14170   6.506   0.589   6.223 -0.0567 -0.1545 -0.5257
  108MOL0     O14171   6.695   0.805   6.153 -0.3297 -0.0440 -0.0156
  108MOL0     C14172   6.982   0.636   6.016  0.5459 -0.2989  0.1776
  108MOL0     C14173   7.113   0.664   5.973 -0.2398 -0.2507  0.9374
  108MOL0     N14174   7.761   1.270   5.768 -1.0842  0.4759  0.4493
  108MOL0     N14175   7.864   1.345   5.774 -0.1901  0.3519  0.6862
  108MOL0     C14176   9.226   1.026   5.515  0.5700  0.6244 -0.1936
  108MOL0     C14177   9.326   0.930   5.503 -0.7236 -0.0949  0.0884
  108MOL0     C14178   9.582   0.572   5.366  0.1049 -0.5819 -0.6454
  108MOL0     C14179   9.716   0.576   5.325 -0.2845 -0.2836 -1.7875
  108MOL0     C14180   9.797   0.468   5.308 -0.0289  0.9074 -0.3964
  108MOL0     C14181   9.742   0.349   5.366 -0.6064 -0.5069 -0.4091
  108MOL0     O14182   9.826   0.242   5.373  0.0095  0.0711  0.1374
  108MOL0     C14183   9.905   0.244   5.487 -0.1898  0.4210 -0.2782
  108MOL0     C14184   9.873   0.121   5.580  0.9958  0.2388  0.0260
  108MOL0     C14185   9.740   0.121   5.662  0.0919  1.5257  0.0490
  108MOL0     C14186   9.721   0.240   5.754  0.4926  0.2836 -0.2778
  108MOL0     C14187   9.816   0.244   5.866 -0.7670  0.4597  0.3426
  108MOL0     C14188   9.901   0.244   5.955  0.0514 -0.4425  0.3421
  108MOL0     C14189   9.611   0.334   5.409 -0.0987 -0.6262  0.6074
  108MOL0     C14190   9.530   0.443   5.400  0.5166  0.2437 -0.5095
  108MOL0     H14191   9.122   0.657   5.457 -1.3988  1.4957 -0.9050
  108MOL0     H14192   8.954   0.847   5.462 -1.2868  3.9659  2.3956
  108MOL0     H14193   8.866   0.944   5.624 -0.6890  1.0231  1.9578
  108MOL0     H14194   8.820   1.029   5.473  1.0701  0.2186 -0.2275
  108MOL0     H14195   8.780   1.233   5.607 -1.1876  0.7530  0.4883
  108MOL0     H14196   8.808   1.133   5.749 -2.7769 -0.9757 -0.4907
  108MOL0     H14197   8.634   0.986   5.695 -1.7546  0.6519  0.3907
  108MOL0     H14198   8.604   1.070   5.539 -2.6256  0.7686  1.1180
  108MOL0     H14199   8.577   1.222   5.800  1.6290 -1.7086 -0.6679
  108MOL0     H14200   8.545   1.266   5.631  0.4348  1.4411  0.7439
  108MOL0     H14201   8.412   1.035   5.779 -2.0005 -1.2189 -1.8932
  108MOL0     H14202   8.358   1.102   5.629  1.6451 -1.4801 -0.7116
  108MOL0     H14203   8.343   1.330   5.743  2.1797 -0.9097 -0.3732
  108MOL0     H14204   8.363   1.254   5.903  0.5587  0.8545 -0.2770
  108MOL0     H14205   8.145   1.211   5.690 -0.4661  3.3120  0.3780
  108MOL0     H14206   8.161   1.114   5.839  0.0143  1.1748  2.7618
  108MOL0     H14207   8.106   1.415   5.830  2.1882 -0.0450  0.6611
  108MOL0     H14208   8.128   1.314   5.967  3.1202  0.7534 -1.5062
  108MOL0     H14209   7.946   1.078   5.952 -0.6179  2.2639  3.5481
  108MOL0     H14210   7.760   0.944   5.860  2.8996  3.2618  0.4784
  108MOL0     H14211   7.678   1.006   5.716  0.1082 -0.4169 -0.1064
  108MOL0     H14212   7.509   1.122   5.852 -1.0453 -0.1007 -0.5283
  108MOL0     H14213   7.580   1.051   6.008 -1.2484 -1.4523  0.2019
  108MOL0     H14214   7.511   0.861   5.790 -4.4307 -0.3939 -0.6842
  108MOL0     H14215   7.553   0.838   5.954  0.8887  0.8285  0.1487
  108MOL0     H14216   7.307   0.983   5.835 -0.4679  0.4388 -0.1641
  108MOL0     H14217   7.349   0.982   6.005  0.1701 -3.0977  1.9786
  108MOL0     H14218   7.087   0.996   5.903  1.1963  0.3710  0.1453
  108MOL0     H14219   6.884   0.963   5.983  2.6908  2.0539  2.8841
  108MOL0     H14220   6.802   0.477   6.340 -0.3424 -1.8773 -4.7635
  108MOL0     H14221   6.636   0.432   6.543 -2.5724 -3.5052 -1.5263
  108MOL0     H14222   6.231   0.619   6.525 -0.0121 -2.3449  0.0729
  108MOL0     H14223   6.374   0.699   6.610  0.5523 -0.5915  2.2914
  108MOL0     H14224   6.312   0.626   6.809  1.2621 -0.1118  0.1316
  108MOL0     H14225   6.223   0.474   6.747 -2.1160  1.4834  1.5155
  108MOL0     H14226   6.058   0.595   6.832 -2.5598 -0.2736 -0.7102
  108MOL0     H14227   6.035   0.608   6.670  0.2546 -0.5004  1.2321
  108MOL0     H14228   6.199   0.819   6.835 -1.4474  2.6864  1.2819
  108MOL0     H14229   6.146   0.853   6.672 -0.9600  1.8465  0.5499
  108MOL0     H14230   5.998   0.956   6.830  0.9057  0.4091  1.7275
  108MOL0     H14231   5.949   0.796   6.899 -0.0832  0.2014  0.2576
  108MOL0     H14232   5.867   0.736   6.683  0.3232  0.1734 -2.6422
  108MOL0     H14233   5.929   0.888   6.613  1.4247 -2.3736 -0.3520
  108MOL0     H14234   5.676   0.835   6.740 -1.3815 -0.6641 -0.9384
  108MOL0     H14235   5.747   0.950   6.826 -4.1641 -1.8239 -0.1192
  108MOL0     H14236   5.801   1.066   6.577 -1.0888  0.6171  1.1131
  108MOL0     H14237   5.642   1.075   6.648 -1.3525 -0.4569 -1.5595
  108MOL0     H14238   6.323   0.608   6.328  1.1911  4.3648 -4.5567
  108MOL0     H14239   6.474   0.636   6.131  0.7194 -1.2709 -1.3939
  108MOL0     H14240   6.960   0.538   6.055  3.0001 -0.7708  0.5380
  108MOL0     H14241   7.181   0.579   5.970  0.4996  0.3443  0.3766
  108MOL0     H14242   9.259   1.127   5.537 -2.1308  1.1606  1.9133
  108MOL0     H14243   9.430   0.961   5.494 -0.3246 -1.1979  0.8220
  108MOL0     H14244   9.757   0.673   5.298 -0.2380  0.3149  0.2448
  108MOL0     H14245   9.898   0.474   5.270  0.8991 -1.4469  1.4713
  108MOL0     H14246   9.901   0.341   5.536  3.2615  0.1807  0.7088
  108MOL0     H14247  10.006   0.229   5.450  0.8755  1.2288  2.0991
  108MOL0     H14248   9.869   0.029   5.521  1.2337 -1.0961  2.0100
  108MOL0     H14249   9.952   0.116   5.655  1.6105  0.3478 -0.6014
  108MOL0     H14250   9.742   0.029   5.722 -1.3009  1.8607  0.6419
  108MOL0     H14251   9.652   0.116   5.597 -0.4188  0.4398  0.7871
  108MOL0     H14252   9.709   0.332   5.696  0.5126 -0.6954 -1.8986
  108MOL0     H14253   9.626   0.228   5.807  1.6427  0.9989  2.0760
  108MOL0     H14254   9.972   0.221   6.033  0.2303 -1.7168 -0.1624
  108MOL0     H14255   9.560   0.246   5.447 -0.8270  0.6085  2.6543
  108MOL0     H14256   9.434   0.429   5.449  0.8144  2.2646  0.7857
  109MOL0     O14257   1.034   7.884   5.446  0.9917 -0.3256 -0.3202
  109MOL0     C14258   1.045   7.810   5.548  1.1290 -0.0744 -0.1683
  109MOL0     O14259   0.939   7.742   5.605  0.3490  0.8766  0.0040
  109MOL0     C14260   0.803   7.773   5.581  0.4394  0.5131 -0.2539
  109MOL0     C14261   0.711   7.733   5.680  0.1247  0.5250  0.2795
  109MOL0     C14262   0.578   7.725   5.650  0.1634 -0.3032 -0.6340
  109MOL0     C14263   0.529   7.780   5.531  0.8948  0.1041  1.0791
  109MOL0     O14264   0.405   7.803   5.489 -0.0045 -0.0888  0.2360
  109MOL0     C14265   0.296   7.824   5.588  0.2152 -0.4815 -0.4808
  109MOL0     C14266   0.233   7.697   5.615  1.2469 -0.1521 -0.1346
  109MOL0     C14267   0.150   7.701   5.739 -0.8179 -1.1012 -0.2929
  109MOL0     C14268   0.045   7.591   5.732 -0.0305  0.1058 -0.7091
  109MOL0     C14269  -0.037   7.565   5.858 -0.2590 -0.8064  0.0184
  109MOL0     C14270  -0.127   7.440   5.840  0.5200 -0.0734 -0.2049
  109MOL0     C14271  -0.193   7.387   5.965 -0.0192  0.4754 -0.6748
  109MOL0     C14272  -0.260   7.248   5.958  0.1764  0.2187 -0.3906
  109MOL0     N14273  -0.163   7.127   5.969  0.6577 -0.9739  0.0742
  109MOL0     C14274  -0.025   7.125   5.965  0.1862 -0.8611 -0.2769
  109MOL0     C14275   0.014   7.004   6.004 -0.0541 -0.0268  0.3922
  109MOL0     C14276   0.165   6.979   6.014  1.0442 -0.1123  0.1486
  109MOL0     C14277   0.196   6.985   6.167  0.6927 -0.1940  0.1629
  109MOL0     C14278   0.143   6.857   6.236  0.1438  0.5618  0.6687
  109MOL0     C14279   0.168   6.882   6.380 -0.2708 -0.9612 -0.7818
  109MOL0     O14280   0.301   6.870   6.433 -0.5751 -0.5880  0.9411
  109MOL0     C14281   0.341   6.936   6.545 -0.1078 -0.2347  0.1378
  109MOL0     C14282   0.258   7.014   6.625 -0.8862 -0.3639  0.5998
  109MOL0     C14283   0.303   7.100   6.726  0.5461 -0.5393  0.0001
  109MOL0     C14284   0.434   7.089   6.761 -0.2161 -0.5603 -0.1789
  109MOL0     C14285   0.485   7.152   6.888  0.1056  0.6011  0.6544
  109MOL0     O14286   0.624   7.135   6.906 -0.2566 -0.1575 -0.3885
  109MOL0     C14287   0.659   7.189   7.029  0.5191  0.7659  0.6115
  109MOL0     C14288   0.712   7.318   7.043  0.1028  0.0789  0.3816
  109MOL0     C14289   0.753   7.368   7.165  1.2382  1.0261  0.0141
  109MOL0     C14290   0.750   7.286   7.277 -0.1130 -0.7064  0.0421
  109MOL0     O14291   0.794   7.350   7.394 -0.5916  0.1121 -0.1379
  109MOL0     C14292   0.701   7.354   7.505 -0.1865 -0.0418 -0.0999
  109MOL0     C14293   0.660   7.498   7.523 -0.0934 -0.7620 -0.4114
  109MOL0     C14294   0.769   7.608   7.534  0.1323 -0.7159 -0.3330
  109MOL0     C14295   0.697   7.730   7.593  0.3170 -0.3879 -0.1005
  109MOL0     C14296   0.799   7.827   7.638 -0.5296 -0.3218  0.7540
  109MOL0     C14297   0.854   7.800   7.779  0.0112 -0.6618  0.4840
  109MOL0     C14298   0.938   7.913   7.836  0.3271 -0.3221 -0.8420
  109MOL0     C14299   0.981   7.879   7.978 -0.3193  0.4161  0.2826
  109MOL0    Cl14300   1.089   8.011   8.024 -0.1587 -0.3230  0.3074
  109MOL0     C14301   0.700   7.160   7.269 -0.0161  0.5775  0.8374
  109MOL0     C14302   0.652   7.111   7.144  0.8239 -0.3100  0.0729
  109MOL0     O14303   0.409   7.214   6.958  0.8682 -0.8309  1.1324
  109MOL0     C14304   0.518   7.005   6.692 -0.2384 -0.2904 -0.1198
  109MOL0     C14305   0.475   6.936   6.582  0.9514 -0.5135  0.3590
  109MOL0     N14306  -0.101   6.925   6.028  0.3299  0.1289  0.2009
  109MOL0     N14307  -0.197   7.004   6.008  0.8426  0.2937 -0.3555
  109MOL0     C14308   0.629   7.824   5.435  0.4552 -0.1116 -0.4249
  109MOL0     C14309   0.761   7.815   5.457 -0.7619  0.3260  0.6352
  109MOL0     C14310   1.188   7.797   5.601  0.1341  0.5131  1.0057
  109MOL0     C14311   1.213   7.717   5.712  0.5822  0.6866  0.0268
  109MOL0     C14312   1.338   7.686   5.761 -0.1927 -0.1405 -0.2241
  109MOL0     C14313   1.448   7.755   5.705  0.3854 -0.0175  0.9165
  109MOL0     O14314   1.566   7.732   5.777  0.4104  0.1614  0.1945
  109MOL0     C14315   1.693   7.800   5.748  0.5184 -0.3395 -0.5685
  109MOL0     C14316   1.799   7.680   5.763  0.7679  0.0165 -0.2869
  109MOL0     C14317   1.944   7.718   5.757 -0.1958 -0.2038 -0.7952
  109MOL0     C14318   1.986   7.814   5.652 -0.9830 -0.5734 -0.6611
  109MOL0     C14319   2.139   7.817   5.649 -1.4751 -0.2934  0.1727
  109MOL0     C14320   2.263   7.831   5.638 -0.3844 -0.1495  0.5581
  109MOL0     C14321   1.430   7.841   5.595  0.7330  1.0187 -0.0312
  109MOL0     C14322   1.297   7.862   5.545 -0.2192 -0.7683  0.0284
  109MOL0     H14323   0.749   7.698   5.776 -2.2662 -3.9854 -0.1474
  109MOL0     H14324   0.500   7.688   5.716  0.6489 -0.6579 -0.2537
  109MOL0     H14325   0.232   7.899   5.542  2.1986  1.7637  0.2195
  109MOL0     H14326   0.349   7.860   5.676  2.3621 -2.1530 -0.9982
  109MOL0     H14327   0.317   7.628   5.606  1.5238  0.3149 -1.3567
  109MOL0     H14328   0.173   7.664   5.531  2.1605 -1.3324 -0.3588
  109MOL0     H14329   0.103   7.797   5.762  1.3786  0.4315 -1.8000
  109MOL0     H14330   0.213   7.687   5.827 -0.4959 -2.6059 -0.7209
  109MOL0     H14331  -0.034   7.612   5.659  0.1653  0.2285 -0.8871
  109MOL0     H14332   0.090   7.499   5.693  0.5246  0.4926 -1.0035
  109MOL0     H14333  -0.109   7.644   5.882 -0.9191 -1.2439 -0.4647
  109MOL0     H14334   0.023   7.559   5.949  3.8035 -2.0075 -2.5201
  109MOL0     H14335  -0.062   7.360   5.801  0.8500 -0.6847  1.5247
  109MOL0     H14336  -0.196   7.463   5.758 -0.8968 -1.8488  0.4205
  109MOL0     H14337  -0.127   7.367   6.050 -0.0084 -2.8835 -1.3277
  109MOL0     H14338  -0.268   7.462   5.991 -0.0222  0.9688 -2.0368
  109MOL0     H14339  -0.318   7.239   5.866 -0.0452  0.3051 -0.2591
  109MOL0     H14340  -0.329   7.240   6.042  0.9286  0.9328  0.3237
  109MOL0     H14341   0.039   7.201   5.922 -0.4316  0.1342  0.5050
  109MOL0     H14342   0.225   7.047   5.953  1.3650  0.3682  0.9741
  109MOL0     H14343   0.179   6.878   5.973  0.7019  0.0216 -0.2977
  109MOL0     H14344   0.138   7.069   6.205  0.0915  0.8712 -2.8369
  109MOL0     H14345   0.303   7.004   6.179  0.6174 -0.1423  0.7808
  109MOL0     H14346   0.037   6.833   6.224  0.5674 -0.5861 -1.1568
  109MOL0     H14347   0.197   6.770   6.197 -2.3321 -0.8324  0.1955
  109MOL0     H14348   0.092   6.830   6.439  0.5396 -0.3959  0.8016
  109MOL0     H14349   0.140   6.987   6.394 -0.3207 -1.3598  3.4193
  109MOL0     H14350   0.151   7.013   6.609 -0.7128  0.1634 -0.7172
  109MOL0     H14351   0.227   7.165   6.768  2.9636  0.3923  3.3758
  109MOL0     H14352   0.713   7.390   6.962  0.5040  0.1710  0.4668
  109MOL0     H14353   0.796   7.467   7.176  2.0261  1.0004 -2.2967
  109MOL0     H14354   0.747   7.331   7.602  0.7978 -0.5717 -0.6785
  109MOL0     H14355   0.607   7.299   7.494 -1.5179  2.4339 -2.1744
  109MOL0     H14356   0.600   7.500   7.615 -1.2741  1.4273 -1.1550
  109MOL0     H14357   0.605   7.536   7.437  2.2675 -0.7469 -1.9856
  109MOL0     H14358   0.809   7.623   7.433  1.1333  0.2414  0.1872
  109MOL0     H14359   0.848   7.579   7.603  0.5270  1.6616  0.2938
  109MOL0     H14360   0.640   7.771   7.509  3.0802  2.1687 -0.9153
  109MOL0     H14361   0.634   7.712   7.680 -0.5987  0.0915 -0.6392
  109MOL0     H14362   0.754   7.926   7.645 -1.6323 -0.7297 -0.3717
  109MOL0     H14363   0.884   7.822   7.569  0.0168 -1.1615  1.4593
  109MOL0     H14364   0.909   7.706   7.781  1.8063  0.2924 -1.0949
  109MOL0     H14365   0.771   7.796   7.851  0.7209 -0.1512  1.3517
  109MOL0     H14366   1.034   7.920   7.785  1.6136 -1.9040  1.1948
  109MOL0     H14367   0.879   8.005   7.831  0.4034 -0.2133  0.0594
  109MOL0     H14368   1.030   7.782   7.984 -2.8101 -0.8825  0.8396
  109MOL0     H14369   0.894   7.879   8.044  0.5895 -3.9431  1.8113
  109MOL0     H14370   0.672   7.099   7.355 -0.9748  4.3192  3.4229
  109MOL0     H14371   0.608   7.012   7.141  0.2628 -0.1231  1.2843
  109MOL0     H14372   0.618   6.971   6.720 -0.0194  1.2286  1.0621
  109MOL0     H14373   0.543   6.876   6.523  0.0166 -1.1323 -0.1225
  109MOL0     H14374   0.591   7.865   5.342  0.1133 -0.8096 -0.5994
  109MOL0     H14375   0.821   7.834   5.368 -3.2629  1.3325 -0.9358
  109MOL0     H14376   1.126   7.676   5.762  1.4164  3.0788  3.8273
  109MOL0     H14377   1.353   7.628   5.851  2.7495  1.1960  0.2458
  109MOL0     H14378   1.714   7.884   5.816 -2.4191  0.8745 -1.0189
  109MOL0     H14379   1.701   7.839   5.646  0.8837 -2.9321 -1.6062
  109MOL0     H14380   1.787   7.637   5.862  1.1227  0.8780  0.1384
  109MOL0     H14381   1.780   7.613   5.679  0.6458 -0.0183 -0.2317
  109MOL0     H14382   2.005   7.627   5.751 -2.3587 -1.7761 -0.0792
  109MOL0     H14383   1.962   7.769   5.852 -2.7544 -0.7695  0.0615
  109MOL0     H14384   1.961   7.770   5.556  3.3812 -2.7072 -1.0666
  109MOL0     H14385   1.939   7.911   5.674  0.1036 -0.6212  2.3454
  109MOL0     H14386   2.368   7.851   5.631 -0.6717  1.5913  0.8198
  109MOL0     H14387   1.506   7.902   5.547 -0.2010  3.4324  1.3965
  109MOL0     H14388   1.301   7.930   5.460 -3.1488 -0.3871  0.1054
  110MOL0     O14389  10.489   4.470   5.264 -0.0166  0.2044  0.2899
  110MOL0     C14390  10.531   4.482   5.377  0.5688 -0.1697 -0.1486
  110MOL0     O14391  10.451   4.506   5.484  0.2178  0.3461 -0.2046
  110MOL0     C14392  10.312   4.483   5.486  0.2119  0.3138  0.9744
  110MOL0     C14393  10.234   4.396   5.404  0.4601  0.7962 -0.3843
  110MOL0     C14394  10.101   4.363   5.429 -0.4834  0.0528  0.5684
  110MOL0     C14395  10.032   4.428   5.530  0.3141  0.3840  0.3937
  110MOL0     O14396   9.899   4.391   5.558  0.7911 -0.2977  0.3396
  110MOL0     C14397   9.820   4.499   5.603  0.5571 -0.8025  0.3366
  110MOL0     C14398   9.673   4.450   5.616  0.5240 -0.5235 -0.1110
  110MOL0     C14399   9.591   4.569   5.650  0.5887 -0.0537 -0.0952
  110MOL0     C14400   9.596   4.606   5.795  0.0649 -1.0657  0.0568
  110MOL0     C14401   9.505   4.728   5.831 -0.0734  0.7926 -0.0725
  110MOL0     C14402   9.540   4.862   5.758  0.7360  0.5826  0.3391
  110MOL0     C14403   9.451   4.974   5.794  0.2996 -0.4540  0.2416
  110MOL0     C14404   9.330   4.982   5.699 -0.0242  0.4694 -0.3848
  110MOL0     N14405   9.252   5.106   5.709 -0.3835  0.3150  0.2513
  110MOL0     C14406   9.204   5.155   5.828  0.5409 -0.1088  1.0558
  110MOL0     C14407   9.173   5.285   5.813 -0.9474 -0.9413 -0.4676
  110MOL0     C14408   9.129   5.391   5.913  0.1248  0.5508 -0.6995
  110MOL0     C14409   8.980   5.426   5.875 -0.3597  0.3842 -0.5868
  110MOL0     C14410   8.885   5.321   5.943 -0.4311 -0.3583  0.6980
  110MOL0     C14411   8.744   5.351   5.902  0.4813  0.2460  0.4873
  110MOL0     O14412   8.662   5.235   5.921  0.2068 -0.3801 -0.0902
  110MOL0     C14413   8.526   5.254   5.942 -0.7292  0.9206  0.3870
  110MOL0     C14414   8.458   5.148   5.999  0.4220  0.1206  0.0558
  110MOL0     C14415   8.318   5.148   6.029 -0.7082 -0.6043 -0.1597
  110MOL0     C14416   8.244   5.269   6.016  0.0988 -0.0544 -0.2763
  110MOL0     C14417   8.105   5.269   6.061 -0.2905 -0.1265 -0.3914
  110MOL0     O14418   8.048   5.158   6.100 -0.2293 -0.2661  0.1665
  110MOL0     C14419   7.912   5.173   6.146 -0.2750  0.0402 -0.3683
  110MOL0     C14420   7.802   5.148   6.066 -0.2622 -0.1226  0.4618
  110MOL0     C14421   7.666   5.149   6.113  0.9343  0.5635 -0.3247
  110MOL0     C14422   7.636   5.199   6.237 -0.1169  0.4892 -0.0984
  110MOL0     O14423   7.510   5.192   6.289 -0.1776 -0.1257 -0.6490
  110MOL0     C14424   7.479   5.289   6.389  0.4725 -0.1830  0.1066
  110MOL0     C14425   7.328   5.313   6.386  0.6168 -0.7515  0.1969
  110MOL0     C14426   7.253   5.237   6.494 -0.3487  0.0538 -0.5369
  110MOL0     C14427   7.106   5.230   6.478  0.8283  0.4372  0.0785
  110MOL0     C14428   7.043   5.372   6.490  0.0240  0.9492 -0.4340
  110MOL0     C14429   6.892   5.376   6.527  0.1063  0.4984 -0.0759
  110MOL0     C14430   6.815   5.310   6.417  0.9156 -0.4544  0.1113
  110MOL0     C14431   6.669   5.279   6.446  0.6204  0.2091  0.2384
  110MOL0    Cl14432   6.641   5.159   6.571 -0.1056 -0.7746  0.2139
  110MOL0     C14433   7.747   5.231   6.319 -0.1488  0.2540  0.2844
  110MOL0     C14434   7.880   5.207   6.278  0.4949 -0.4615  0.3691
  110MOL0     O14435   8.052   5.383   6.064  0.4626  0.0074 -0.2772
  110MOL0     C14436   8.304   5.378   5.954  0.5596  1.0211 -0.0177
  110MOL0     C14437   8.444   5.368   5.914  0.2527 -0.7004 -0.6045
  110MOL0     N14438   9.206   5.308   5.684  0.5834 -0.0701  0.0784
  110MOL0     N14439   9.250   5.212   5.626  0.7814 -0.6222  0.5834
  110MOL0     C14440  10.106   4.519   5.609  0.5944 -0.4811 -0.6026
  110MOL0     C14441  10.244   4.549   5.587  0.9465 -0.1634 -0.5282
  110MOL0     C14442  10.675   4.492   5.388  0.1390  0.6171 -0.8392
  110MOL0     C14443  10.767   4.554   5.302 -0.1400  0.0010 -0.1487
  110MOL0     C14444  10.901   4.583   5.332  0.6452 -0.3033  0.6764
  110MOL0     C14445  10.957   4.550   5.455  0.1869  0.5091 -0.3132
  110MOL0     O14446  11.086   4.565   5.489 -0.5981 -0.5748 -0.2530
  110MOL0     C14447  11.191   4.589   5.395  0.2590 -0.2356  0.1514
  110MOL0     C14448  11.306   4.499   5.443  0.0522  0.4279 -1.2010
  110MOL0     C14449  11.438   4.500   5.358  0.1055 -0.7962 -0.2901
  110MOL0     C14450  11.558   4.474   5.450 -0.0263  0.0904  1.1366
  110MOL0     C14451  11.554   4.335   5.498  0.7071  0.5529 -0.9087
  110MOL0     C14452  11.556   4.215   5.539 -0.1702 -0.7994  0.7625
  110MOL0     C14453  10.872   4.491   5.549  0.1097 -0.4776  0.2413
  110MOL0     C14454  10.743   4.463   5.512 -0.2964  0.1233  0.4378
  110MOL0     H14455  10.272   4.347   5.315 -1.5936 -0.3705 -0.6745
  110MOL0     H14456  10.053   4.295   5.360  0.6873  1.0135 -1.2784
  110MOL0     H14457   9.836   4.574   5.525  0.1025 -2.1928 -1.1504
  110MOL0     H14458   9.859   4.545   5.694 -1.0657 -2.8697  2.1891
  110MOL0     H14459   9.666   4.367   5.687  1.3574 -0.5496 -0.0579
  110MOL0     H14460   9.626   4.419   5.522 -1.4475  2.0975 -0.1104
  110MOL0     H14461   9.489   4.546   5.620  1.4752 -3.9414 -0.6392
  110MOL0     H14462   9.625   4.652   5.587 -2.8521  0.5519 -1.3846
  110MOL0     H14463   9.553   4.520   5.846 -2.6728  0.6301  0.8724
  110MOL0     H14464   9.698   4.620   5.832  1.3719  1.2389 -3.7839
  110MOL0     H14465   9.513   4.750   5.938 -0.5480 -2.9612  0.8737
  110MOL0     H14466   9.401   4.703   5.812 -0.6468  2.0739  1.2046
  110MOL0     H14467   9.529   4.852   5.650 -2.4535  1.0580  0.5313
  110MOL0     H14468   9.645   4.881   5.783  2.3893 -4.9451 -1.0007
  110MOL0     H14469   9.417   4.953   5.895  1.2579  0.9688  0.8849
  110MOL0     H14470   9.499   5.072   5.793  0.4532 -0.5163  1.2560
  110MOL0     H14471   9.262   4.900   5.721  1.6130 -1.6625 -2.6801
  110MOL0     H14472   9.362   4.961   5.596 -0.0729 -0.7931 -0.1503
  110MOL0     H14473   9.221   5.099   5.920  1.0986 -1.0675  0.3927
  110MOL0     H14474   9.181   5.487   5.908 -2.6236  2.4100  2.4023
  110MOL0     H14475   9.140   5.358   6.016  0.6404  1.4139 -0.4671
  110MOL0     H14476   8.977   5.429   5.766  0.3200  1.6723 -0.5939
  110MOL0     H14477   8.953   5.528   5.904  0.6918  0.4526  0.2266
  110MOL0     H14478   8.904   5.219   5.909 -1.9681 -0.0818 -1.2346
  110MOL0     H14479   8.896   5.318   6.051 -0.9022 -1.6373  0.7303
  110MOL0     H14480   8.737   5.384   5.798 -1.5703 -1.3561  0.0541
  110MOL0     H14481   8.706   5.433   5.964 -2.7493 -2.8405  2.9917
  110MOL0     H14482   8.504   5.050   6.009 -0.1060 -0.3397 -1.6137
  110MOL0     H14483   8.288   5.053   6.072 -1.4585  0.1330  0.9971
  110MOL0     H14484   7.808   5.117   5.962 -0.8312 -0.4039  0.5083
  110MOL0     H14485   7.581   5.118   6.053  1.4329  2.6347 -2.2372
  110MOL0     H14486   7.527   5.381   6.355  0.8394 -0.6216 -0.5770
  110MOL0     H14487   7.520   5.282   6.490  1.6815 -0.8689 -0.4164
  110MOL0     H14488   7.298   5.297   6.282 -0.6328  1.0201  0.2242
  110MOL0     H14489   7.304   5.418   6.406 -1.7450 -1.1268 -0.3092
  110MOL0     H14490   7.271   5.275   6.595 -0.4652 -2.0310  0.3246
  110MOL0     H14491   7.293   5.135   6.498 -2.1544 -0.6990 -0.8335
  110MOL0     H14492   7.082   5.174   6.387 -1.5426 -1.4493  1.7636
  110MOL0     H14493   7.058   5.169   6.555  0.2471  0.2242 -0.4482
  110MOL0     H14494   7.065   5.412   6.390 -0.1378  3.6619  0.5303
  110MOL0     H14495   7.091   5.434   6.566 -0.8892  0.2208  0.7639
  110MOL0     H14496   6.859   5.480   6.537 -1.1415 -0.0666  2.4069
  110MOL0     H14497   6.887   5.326   6.624  1.3736  2.1469  0.9152
  110MOL0     H14498   6.819   5.356   6.317 -0.3301  2.3325  1.2364
  110MOL0     H14499   6.858   5.211   6.401 -0.2352 -0.9937  0.2846
  110MOL0     H14500   6.617   5.253   6.354 -0.0775  1.3195  0.2919
  110MOL0     H14501   6.624   5.374   6.478  0.1153  0.5884 -1.4714
  110MOL0     H14502   7.743   5.261   6.423  2.6736  1.6223  0.1078
  110MOL0     H14503   7.970   5.225   6.337  1.4072 -1.1166 -0.7694
  110MOL0     H14504   8.238   5.460   5.927  1.4462  2.2956  1.5004
  110MOL0     H14505   8.473   5.455   5.857 -0.2571  0.3161  0.6544
  110MOL0     H14506  10.056   4.566   5.693 -0.3586 -0.5451 -1.1168
  110MOL0     H14507  10.298   4.627   5.640 -0.3926  1.0777 -0.9405
  110MOL0     H14508  10.730   4.585   5.204  0.8251  0.2251 -0.4555
  110MOL0     H14509  10.964   4.613   5.248 -2.1769 -0.5828 -1.7209
  110MOL0     H14510  11.217   4.695   5.399  1.0059 -0.2956 -1.9381
  110MOL0     H14511  11.177   4.563   5.290  0.4422 -0.9171  0.2952
  110MOL0     H14512  11.329   4.540   5.542  0.7842 -1.6493 -0.4483
  110MOL0     H14513  11.268   4.396   5.443  1.7938 -0.2620 -2.5562
  110MOL0     H14514  11.458   4.594   5.305 -0.1403  0.1167  1.1868
  110MOL0     H14515  11.420   4.419   5.286 -2.5408  1.0590 -1.8702
  110MOL0     H14516  11.642   4.495   5.383 -2.0421  0.0735 -1.5516
  110MOL0     H14517  11.566   4.541   5.536  0.4707  2.4825 -0.6722
  110MOL0     H14518  11.558   4.113   5.573  2.3727 -0.7532  0.9326
  110MOL0     H14519  10.925   4.466   5.640  1.1815  1.5330  0.2354
  110MOL0     H14520  10.686   4.425   5.596  0.9044 -0.9161  0.8260
  111MOL0     O14521   9.095   7.911   4.903 -0.1214 -0.6768 -0.5510
  111MOL0     C14522   9.182   8.004   4.902 -0.4775 -0.1692 -1.2122
  111MOL0     O14523   9.161   8.138   4.911  0.1394 -0.1475  0.4847
  111MOL0     C14524   9.032   8.178   4.950  0.2993  1.1001 -0.9468
  111MOL0     C14525   9.021   8.262   5.065 -1.1899  0.8585  1.2589
  111MOL0     C14526   8.907   8.323   5.113 -1.2915  0.7231 -0.2390
  111MOL0     C14527   8.784   8.290   5.052  0.2166 -0.6206 -0.2209
  111MOL0     O14528   8.669   8.343   5.113  0.6734 -0.2614 -0.1161
  111MOL0     C14529   8.552   8.368   5.029  0.0364  0.2062  0.4331
  111MOL0     C14530   8.447   8.431   5.115  0.4157 -0.4261 -0.1169
  111MOL0     C14531   8.312   8.468   5.049  0.0519  0.6270  0.3262
  111MOL0     C14532   8.214   8.535   5.150 -0.4164 -0.8213  0.9133
  111MOL0     C14533   8.074   8.555   5.097  0.8436 -0.3427 -0.3867
  111MOL0     C14534   7.979   8.622   5.199 -0.8584 -0.1582 -0.1506
  111MOL0     C14535   7.839   8.637   5.141  0.5125  0.2010  0.8807
  111MOL0     C14536   7.747   8.707   5.231  0.9910 -0.6169  0.2833
  111MOL0     N14537   7.615   8.743   5.178 -0.0052  0.5048 -0.1911
  111MOL0     C14538   7.519   8.782   5.255  0.2421 -0.1305  0.3122
  111MOL0     C14539   7.415   8.811   5.178 -0.2782 -0.4272  0.0484
  111MOL0     C14540   7.278   8.847   5.227 -0.0645  0.1349 -0.6051
  111MOL0     C14541   7.174   8.753   5.181  0.3718  0.4305  0.2114
  111MOL0     C14542   7.054   8.754   5.275  0.3164  0.5408  0.4531
  111MOL0     C14543   6.924   8.694   5.203 -0.2198 -0.1105  0.0556
  111MOL0     O14544   6.813   8.731   5.281  0.0234  0.6082 -0.2625
  111MOL0     C14545   6.710   8.800   5.218  0.4535  0.1858 -0.4262
  111MOL0     C14546   6.649   8.922   5.261 -0.1442  0.3216 -0.7191
  111MOL0     C14547   6.523   8.959   5.222  0.5932 -0.2082  0.3460
  111MOL0     C14548   6.444   8.875   5.146  1.0150  0.4597  0.3509
  111MOL0     C14549   6.310   8.926   5.095 -0.1245  0.7274 -0.4581
  111MOL0     O14550   6.223   8.826   5.062  0.8781  0.0450  0.1977
  111MOL0     C14551   6.089   8.860   5.043 -0.3522  0.5690 -0.1597
  111MOL0     C14552   6.043   8.900   4.911  1.0681 -0.0504 -0.3747
  111MOL0     C14553   5.901   8.935   4.895  0.0129  0.2575  0.8292
  111MOL0     C14554   5.815   8.930   5.013  0.2966  0.8933  0.0285
  111MOL0     O14555   5.692   8.961   5.017  0.8505 -0.9527 -0.0881
  111MOL0     C14556   5.636   9.059   4.920 -0.6141 -0.2514 -0.0198
  111MOL0     C14557   5.484   9.095   4.929  0.1031  0.1743  0.5097
  111MOL0     C14558   5.395   8.993   5.000  0.1815  0.4148  0.1014
  111MOL0     C14559   5.248   9.021   4.985 -0.6074  0.4280  0.0987
  111MOL0     C14560   5.217   9.144   5.072  0.3367  0.0724 -0.6049
  111MOL0     C14561   5.062   9.146   5.110 -0.7911 -0.8351  0.4656
  111MOL0     C14562   5.035   9.263   5.208  0.6586  1.0797 -0.2905
  111MOL0     C14563   4.971   9.397   5.151 -0.7172  1.0167 -0.0815
  111MOL0    Cl14564   4.845   9.375   5.023  0.1854 -0.2691 -0.3828
  111MOL0     C14565   5.863   8.880   5.130  0.6324  0.0902  0.2432
  111MOL0     C14566   5.997   8.839   5.148  0.4392  0.2205 -0.4807
  111MOL0     O14567   6.283   9.044   5.094 -0.1276  0.0416  0.2726
  111MOL0     C14568   6.493   8.752   5.100 -0.2883 -0.2730  0.7557
  111MOL0     C14569   6.625   8.720   5.136 -0.0078  0.4202 -0.3178
  111MOL0     N14570   7.457   8.801   5.049  0.3879 -0.3960 -0.6660
  111MOL0     N14571   7.567   8.737   5.052  0.0614  0.6368  0.0170
  111MOL0     C14572   8.786   8.216   4.936 -0.2051  0.5269  0.3231
  111MOL0     C14573   8.910   8.159   4.885 -0.6090 -0.8524  0.4270
  111MOL0     C14574   9.323   7.962   4.897 -0.2468 -0.6554 -0.0935
  111MOL0     C14575   9.439   8.052   4.905 -0.3064  0.3618  0.2464
  111MOL0     C14576   9.570   8.003   4.895 -0.3055  0.0012  0.0923
  111MOL0     C14577   9.596   7.865   4.861 -0.2182 -0.2804 -1.4252
  111MOL0     O14578   9.725   7.812   4.848 -0.0144  1.2122 -0.2914
  111MOL0     C14579   9.829   7.892   4.899  0.5232  0.1727  0.0492
  111MOL0     C14580   9.965   7.815   4.909  0.4369  0.3231 -0.0152
  111MOL0     C14581  10.014   7.790   4.776  0.6140 -0.1421 -0.1735
  111MOL0     C14582  10.141   7.708   4.786 -0.1898  0.0921  0.4652
  111MOL0     C14583  10.170   7.635   4.662  0.0630  0.4136 -0.7016
  111MOL0     C14584  10.192   7.573   4.563 -1.0916  1.0966 -0.0689
  111MOL0     C14585   9.486   7.780   4.859  0.3139  0.4921  0.2482
  111MOL0     C14586   9.355   7.826   4.877  0.0274  0.2352 -0.1630
  111MOL0     H14587   9.117   8.278   5.114 -1.8814  1.8389  2.3627
  111MOL0     H14588   8.913   8.376   5.207 -2.0642 -1.1285  0.9198
  111MOL0     H14589   8.516   8.278   4.978  1.2043  0.5972 -1.1660
  111MOL0     H14590   8.573   8.442   4.952 -3.3698  0.7113 -0.1617
  111MOL0     H14591   8.492   8.518   5.164 -0.5618  0.2551 -0.3805
  111MOL0     H14592   8.419   8.365   5.197  0.4554 -1.0185 -0.5759
  111MOL0     H14593   8.251   8.379   5.031 -4.4422  3.1823  1.5883
  111MOL0     H14594   8.313   8.515   4.950  0.7621 -0.1183 -0.0387
  111MOL0     H14595   8.213   8.479   5.244  2.3354 -2.1574  0.2596
  111MOL0     H14596   8.251   8.633   5.183 -0.8397  0.1950 -1.4713
  111MOL0     H14597   8.025   8.458   5.078  1.7227 -0.6017 -1.4024
  111MOL0     H14598   8.075   8.618   5.008 -0.6931  0.4869  0.1406
  111MOL0     H14599   8.013   8.724   5.220 -0.0399 -0.7593  1.6566
  111MOL0     H14600   7.973   8.572   5.297 -0.6042  0.0295 -0.0380
  111MOL0     H14601   7.840   8.693   5.047  0.2591 -1.5239 -0.1905
  111MOL0     H14602   7.802   8.539   5.110  0.3752  0.5817 -0.1755
  111MOL0     H14603   7.788   8.807   5.242 -0.7234  0.1124  0.4125
  111MOL0     H14604   7.737   8.660   5.329  0.3991  0.5979  0.8172
  111MOL0     H14605   7.509   8.779   5.363  0.9787  2.5004  0.5300
  111MOL0     H14606   7.259   8.950   5.196  0.0878  0.3814  0.1006
  111MOL0     H14607   7.276   8.855   5.336 -0.5944  1.5553 -0.7033
  111MOL0     H14608   7.203   8.648   5.172 -4.4775 -1.3665  2.0811
  111MOL0     H14609   7.152   8.798   5.084  0.8083  0.4025  0.0964
  111MOL0     H14610   7.083   8.700   5.366 -0.9970 -0.4329  0.3195
  111MOL0     H14611   7.034   8.860   5.294 -0.5991  0.4244  0.2013
  111MOL0     H14612   6.928   8.586   5.181  0.1859 -0.3450  1.2314
  111MOL0     H14613   6.922   8.740   5.104 -0.2534 -2.1165 -0.9336
  111MOL0     H14614   6.707   8.986   5.326  2.8128 -1.0540 -1.8276
  111MOL0     H14615   6.485   9.058   5.246 -1.6033 -0.7093 -0.8367
  111MOL0     H14616   6.113   8.922   4.832  2.1518  0.3648  0.6797
  111MOL0     H14617   5.867   8.979   4.802 -0.1571  0.9884  1.2295
  111MOL0     H14618   5.650   9.022   4.818 -0.9480 -0.2474 -0.0692
  111MOL0     H14619   5.687   9.155   4.929 -1.8749  0.6603 -1.7801
  111MOL0     H14620   5.443   9.128   4.833  0.8523  1.4363  0.6000
  111MOL0     H14621   5.465   9.185   4.988 -2.2028  1.0224 -1.3882
  111MOL0     H14622   5.426   8.991   5.105  1.7423  2.4135 -0.2412
  111MOL0     H14623   5.407   8.898   4.948  1.2594  2.0027 -2.8351
  111MOL0     H14624   5.232   9.016   4.877  1.9964 -4.7922 -0.3470
  111MOL0     H14625   5.178   8.946   5.024  0.1265 -1.0118 -1.2481
  111MOL0     H14626   5.235   9.240   5.023 -2.8250  0.5607 -1.0478
  111MOL0     H14627   5.269   9.150   5.168  2.8183 -2.4056 -1.6775
  111MOL0     H14628   5.039   9.053   5.163 -1.2372 -0.0445  1.7028
  111MOL0     H14629   5.000   9.152   5.020  2.9385  0.7331 -2.2492
  111MOL0     H14630   4.962   9.224   5.279  0.3685  2.4898  0.2239
  111MOL0     H14631   5.126   9.282   5.266  1.1334 -0.3701 -0.5242
  111MOL0     H14632   5.058   9.454   5.117 -0.5741  0.5154 -0.5789
  111MOL0     H14633   4.924   9.442   5.240 -1.4851 -0.2399  0.1711
  111MOL0     H14634   5.791   8.874   5.212 -1.3566 -2.6627 -1.5377
  111MOL0     H14635   6.048   8.796   5.234  1.0238  0.8296 -0.5165
  111MOL0     H14636   6.436   8.677   5.045  1.4234 -1.5125  0.5777
  111MOL0     H14637   6.663   8.622   5.108 -1.1042 -1.4051  3.8712
  111MOL0     H14638   8.694   8.200   4.880  1.4272 -2.2640 -1.8098
  111MOL0     H14639   8.904   8.095   4.798 -0.9801 -3.6059  2.3672
  111MOL0     H14640   9.424   8.160   4.905 -2.4654  0.1890 -2.8177
  111MOL0     H14641   9.659   8.065   4.903 -1.3736  1.3753  2.2058
  111MOL0     H14642   9.814   7.931   5.000  0.7049 -1.9359  0.9366
  111MOL0     H14643   9.848   7.975   4.829 -3.3332  1.3706  0.1772
  111MOL0     H14644  10.040   7.870   4.966  2.3879 -0.5391 -1.6523
  111MOL0     H14645   9.954   7.716   4.955  0.4736  0.2623 -0.1374
  111MOL0     H14646  10.027   7.883   4.720  1.9512 -0.2216 -0.0267
  111MOL0     H14647   9.940   7.741   4.713  2.1769 -0.9322 -1.4932
  111MOL0     H14648  10.226   7.776   4.797  1.2561 -1.3783 -1.0750
  111MOL0     H14649  10.145   7.630   4.862 -1.1171 -2.8246 -2.2930
  111MOL0     H14650  10.220   7.509   4.482 -1.4385  1.5646 -0.5648
  111MOL0     H14651   9.493   7.672   4.854 -1.7474  0.1988  2.2132
  111MOL0     H14652   9.277   7.750   4.866  1.1093 -0.6895 -2.0459
  112MOL0     O14653   8.203   6.947  10.110  0.3175 -0.0984  0.3194
  112MOL0     C14654   8.233   6.830  10.110  0.0560 -0.0886  0.1344
  112MOL0     O14655   8.153   6.723  10.147 -0.1050 -0.1645 -0.1530
  112MOL0     C14656   8.034   6.737  10.224 -0.5878 -0.1356  0.0416
  112MOL0     C14657   7.979   6.860  10.276 -0.0235  0.2101  0.1537
  112MOL0     C14658   7.848   6.858  10.328 -1.2026  0.1401 -0.0376
  112MOL0     C14659   7.774   6.732  10.333 -0.5909  0.7182 -0.5159
  112MOL0     O14660   7.656   6.724  10.398 -0.3748 -0.0805  0.1062
  112MOL0     C14661   7.567   6.833  10.376  0.5222 -0.1866 -0.0367
  112MOL0     C14662   7.432   6.788  10.419  0.4898 -0.4503 -0.2409
  112MOL0     C14663   7.397   6.768  10.572  0.9541 -0.1448  0.2083
  112MOL0     C14664   7.297   6.656  10.591 -0.6315  0.0220 -0.3945
  112MOL0     C14665   7.157   6.693  10.552 -0.3169  0.2938  0.0285
  112MOL0     C14666   7.090   6.761  10.669 -0.7703  0.0337 -0.4313
  112MOL0     C14667   6.952   6.814  10.616  0.3344 -0.1279 -0.1688
  112MOL0     C14668   6.936   6.957  10.597  0.3161 -0.0496  0.5898
  112MOL0     N14669   6.805   6.982  10.560  0.1556 -0.4101  1.2048
  112MOL0     C14670   6.743   6.949  10.443  0.0803 -0.6727 -0.3090
  112MOL0     C14671   6.617   6.983  10.458 -0.2912 -0.6464 -0.0204
  112MOL0     C14672   6.508   6.967  10.355 -0.2037  0.9193  0.1183
  112MOL0     C14673   6.449   6.826  10.345  0.2829 -0.1359 -0.1012
  112MOL0     C14674   6.349   6.817  10.232  0.0628  0.1796 -0.1028
  112MOL0     C14675   6.269   6.684  10.227  0.4540 -0.1386  1.0154
  112MOL0     O14676   6.179   6.676  10.109  0.4820 -0.7151 -0.1358
  112MOL0     C14677   6.099   6.560  10.097 -0.1134 -0.8022  0.7517
  112MOL0     C14678   6.088   6.450  10.178 -0.3991 -0.1557 -0.4347
  112MOL0     C14679   5.994   6.350  10.169  0.8779  0.1395  0.1872
  112MOL0     C14680   5.906   6.352  10.059  1.1925 -0.2018  0.2486
  112MOL0     C14681   5.801   6.250  10.034  0.3461  0.2044 -0.3806
  112MOL0     O14682   5.732   6.263   9.918 -0.0883  0.9479 -0.4006
  112MOL0     C14683   5.639   6.176   9.888  0.0362  0.7866  0.1413
  112MOL0     C14684   5.505   6.212   9.852 -0.2205  0.2946 -0.1398
  112MOL0     C14685   5.409   6.119   9.818  0.2934 -0.3715 -0.5915
  112MOL0     C14686   5.433   5.984   9.816  0.8200 -0.4796 -0.2466
  112MOL0     O14687   5.332   5.896   9.778  0.7220 -0.4157  0.4029
  112MOL0     C14688   5.358   5.764   9.729  0.9691 -0.1122 -0.1650
  112MOL0     C14689   5.280   5.729   9.607  0.7288  0.8855 -0.4984
  112MOL0     C14690   5.284   5.580   9.576  0.9925 -0.0112 -0.0530
  112MOL0     C14691   5.420   5.533   9.531  0.2736  0.4569 -0.1600
  112MOL0     C14692   5.406   5.392   9.474  0.1078 -0.1448  0.7763
  112MOL0     C14693   5.523   5.359   9.375 -0.7514  0.8475  0.2669
  112MOL0     C14694   5.532   5.214   9.312  0.1706  0.0742 -0.5837
  112MOL0     C14695   5.619   5.110   9.383 -0.6938  0.4214 -0.1844
  112MOL0    Cl14696   5.795   5.155   9.368 -0.1391 -0.1289 -0.4470
  112MOL0     C14697   5.564   5.943   9.843 -0.3536  1.0040 -0.3984
  112MOL0     C14698   5.668   6.039   9.870 -0.1051  0.2803  0.5860
  112MOL0     O14699   5.796   6.157  10.109  0.1937  0.4031  0.2087
  112MOL0     C14700   5.919   6.458   9.958  0.2151  0.5630  0.6125
  112MOL0     C14701   6.014   6.556   9.981 -0.0523  0.2369  0.6442
  112MOL0     N14702   6.607   7.047  10.581  0.2049 -0.1835 -0.4467
  112MOL0     N14703   6.717   7.064  10.637 -0.0477  0.4211  0.0420
  112MOL0     C14704   7.844   6.611  10.297  0.1564  0.1990  0.3622
  112MOL0     C14705   7.969   6.619  10.237  0.0680 -0.5389  0.2163
  112MOL0     C14706   8.370   6.801  10.077  0.0259  0.0028  1.2960
  112MOL0     C14707   8.416   6.668  10.047  0.1857 -0.0301  0.5389
  112MOL0     C14708   8.554   6.645  10.010  1.0063  0.0461 -0.1800
  112MOL0     C14709   8.645   6.748  10.001  0.5069  0.0930  0.6565
  112MOL0     O14710   8.778   6.723   9.980  0.0852 -0.0152 -0.0853
  112MOL0     C14711   8.810   6.596   9.924  0.0128  0.0225 -0.2100
  112MOL0     C14712   8.953   6.589   9.866  0.0163 -1.3831 -0.6894
  112MOL0     C14713   9.065   6.597   9.974  0.3862  0.0907 -1.3708
  112MOL0     C14714   9.097   6.738  10.037 -0.7322 -0.6043 -0.2971
  112MOL0     C14715   9.127   6.836   9.933  0.2879 -0.4376 -0.7329
  112MOL0     C14716   9.162   6.913   9.852  0.3445 -0.1258 -0.1741
  112MOL0     C14717   8.593   6.877  10.016  0.2872 -0.7479 -1.2565
  112MOL0     C14718   8.459   6.907  10.055  0.3607 -0.2976  0.6692
  112MOL0     H14719   8.022   6.960  10.264  1.2924 -0.3884 -0.3281
  112MOL0     H14720   7.829   6.957  10.368 -1.4099 -0.2725  0.8997
  112MOL0     H14721   7.572   6.875  10.275 -0.0415  1.2867  0.5009
  112MOL0     H14722   7.599   6.917  10.440  2.2523 -1.0920  0.3334
  112MOL0     H14723   7.406   6.698  10.363  0.3980 -1.6511  1.6535
  112MOL0     H14724   7.355   6.853  10.375  2.1726  1.5716 -0.3484
  112MOL0     H14725   7.342   6.858  10.601  2.9120  1.6158 -1.3024
  112MOL0     H14726   7.485   6.749  10.633  1.3176 -1.1052 -0.5853
  112MOL0     H14727   7.332   6.579  10.521 -3.7958 -1.0402 -0.9808
  112MOL0     H14728   7.297   6.629  10.697  2.9403  2.8284  0.4964
  112MOL0     H14729   7.091   6.606  10.538  1.1045 -1.0784  1.4710
  112MOL0     H14730   7.162   6.746  10.456  0.0542 -0.5292 -0.4204
  112MOL0     H14731   7.148   6.841  10.717 -2.7635  1.2465  0.0460
  112MOL0     H14732   7.074   6.696  10.756  0.6803  0.2452  0.0330
  112MOL0     H14733   6.927   6.762  10.523 -3.9647  1.4437 -0.1250
  112MOL0     H14734   6.879   6.783  10.691  2.4611 -1.2178  1.5888
  112MOL0     H14735   7.007   6.987  10.519 -0.3347 -2.0268 -0.8622
  112MOL0     H14736   6.959   7.012  10.688  1.6230  0.0513  0.2214
  112MOL0     H14737   6.781   6.891  10.360 -1.9556 -4.4626  1.1799
  112MOL0     H14738   6.548   6.995  10.257  0.4662 -1.5883 -0.3874
  112MOL0     H14739   6.422   7.029  10.378 -2.7080 -2.5106  0.7868
  112MOL0     H14740   6.411   6.814  10.447  1.7226  2.1476  0.7785
  112MOL0     H14741   6.517   6.742  10.328 -1.4212 -2.2813  2.9120
  112MOL0     H14742   6.278   6.899  10.238 -3.3965 -2.3732 -2.5437
  112MOL0     H14743   6.398   6.822  10.134  0.6617 -0.1823  0.1715
  112MOL0     H14744   6.197   6.679  10.308  1.1967  0.5980  1.7343
  112MOL0     H14745   6.346   6.606  10.231  1.3756  0.7189  0.6255
  112MOL0     H14746   6.149   6.446  10.268 -1.8932 -2.0812  0.5653
  112MOL0     H14747   5.990   6.258  10.227  0.0160 -1.5568 -2.4094
  112MOL0     H14748   5.483   6.318   9.860  0.8199  0.4990  0.2115
  112MOL0     H14749   5.308   6.146   9.787 -0.0778 -1.1207 -0.0695
  112MOL0     H14750   5.341   5.698   9.815 -1.0259  1.6196  0.8745
  112MOL0     H14751   5.464   5.762   9.703  0.5176 -1.1793 -2.1040
  112MOL0     H14752   5.306   5.781   9.514 -0.3674 -0.4243 -1.5782
  112MOL0     H14753   5.177   5.761   9.628 -0.4007 -1.2216 -2.4755
  112MOL0     H14754   5.212   5.566   9.494  0.8141  0.0667  0.0893
  112MOL0     H14755   5.256   5.512   9.657  0.4451 -0.4859 -0.6284
  112MOL0     H14756   5.452   5.599   9.451  1.8126 -0.0756 -0.0212
  112MOL0     H14757   5.493   5.529   9.613 -0.1740  1.7644  0.3234
  112MOL0     H14758   5.310   5.377   9.424 -0.7622  2.4198  1.5008
  112MOL0     H14759   5.407   5.316   9.552 -2.4031 -0.5257  0.5129
  112MOL0     H14760   5.621   5.369   9.422 -1.2271  0.3519  1.4033
  112MOL0     H14761   5.512   5.431   9.293  0.9305  1.0691  0.2150
  112MOL0     H14762   5.430   5.174   9.310  0.2254 -0.1067  0.1271
  112MOL0     H14763   5.577   5.220   9.212 -2.2281  0.6619 -1.6993
  112MOL0     H14764   5.613   5.018   9.323  1.6531  0.8115 -1.1126
  112MOL0     H14765   5.588   5.100   9.488 -2.5047 -0.8054 -0.7739
  112MOL0     H14766   5.594   5.839   9.840 -0.1578  1.0751 -1.7029
  112MOL0     H14767   5.766   5.999   9.893  0.1031  1.4195  1.7639
  112MOL0     H14768   5.853   6.471   9.873  0.3071  0.5943  0.5451
  112MOL0     H14769   6.045   6.625   9.903  0.7426  2.1278  2.5336
  112MOL0     H14770   7.787   6.519  10.310  0.2487  0.4924  4.2683
  112MOL0     H14771   8.005   6.532  10.183 -0.3616  0.0121 -0.9884
  112MOL0     H14772   8.358   6.580  10.072  0.5048 -0.1190  0.9821
  112MOL0     H14773   8.583   6.541  10.017  0.3744 -0.1828 -0.9051
  112MOL0     H14774   8.736   6.557   9.854 -0.0510 -1.0070  0.4218
  112MOL0     H14775   8.808   6.519  10.002  1.7806 -1.7152 -1.7760
  112MOL0     H14776   8.972   6.495   9.813  0.4568 -0.3516 -2.4591
  112MOL0     H14777   8.965   6.672   9.795 -2.3279  1.2584  1.6892
  112MOL0     H14778   9.163   6.559   9.945  0.1429 -1.6063 -0.1294
  112MOL0     H14779   9.031   6.536  10.058 -2.3249  1.1547 -1.6066
  112MOL0     H14780   9.022   6.779  10.105 -0.0519 -1.0978  0.7706
  112MOL0     H14781   9.188   6.716  10.093  0.1664  1.8789 -0.6309
  112MOL0     H14782   9.168   6.972   9.762 -0.1965  1.3091  0.7107
  112MOL0     H14783   8.667   6.956  10.004 -1.1338  1.5989  3.3456
  112MOL0     H14784   8.432   7.012  10.054  1.3728 -0.0011 -1.6591
  113MOL0     O14785   1.746   9.299   3.215 -0.3353  0.3914  0.1037
  113MOL0     C14786   1.713   9.284   3.100  0.3381  0.5359 -0.3672
  113MOL0     O14787   1.591   9.227   3.055 -0.3267  0.2498 -0.2497
  113MOL0     C14788   1.472   9.251   3.127  0.9655  0.1000 -0.1290
  113MOL0     C14789   1.360   9.176   3.085 -0.6534 -0.3320  1.2240
  113MOL0     C14790   1.238   9.174   3.156 -0.1986  0.4262 -0.3171
  113MOL0     C14791   1.214   9.264   3.262 -0.4062 -0.3590 -0.7049
  113MOL0     O14792   1.091   9.252   3.317 -0.1315 -0.8279  0.3213
  113MOL0     C14793   1.076   9.304   3.445  0.0167  0.0947  0.4443
  113MOL0     C14794   0.942   9.274   3.499  0.8842  0.8542  0.4402
  113MOL0     C14795   0.918   9.339   3.634  0.1007  0.2677 -1.0039
  113MOL0     C14796   0.918   9.496   3.637  0.0359  1.0263  0.8042
  113MOL0     C14797   0.873   9.548   3.775  0.0867 -0.3624  0.6478
  113MOL0     C14798   0.719   9.541   3.795  0.1638 -0.3066  0.1222
  113MOL0     C14799   0.630   9.615   3.691 -0.4189  0.3897  0.1687
  113MOL0     C14800   0.493   9.654   3.754  0.0446 -0.6680  0.2169
  113MOL0     N14801   0.419   9.533   3.794 -0.0763 -0.0250  0.0356
  113MOL0     C14802   0.311   9.528   3.878 -0.1033  0.2654 -0.7742
  113MOL0     C14803   0.260   9.402   3.843  0.1277  1.1715 -1.2470
  113MOL0     C14804   0.137   9.336   3.892 -0.5049  1.0061 -0.4684
  113MOL0     C14805   0.023   9.433   3.919  0.3353  0.2418 -0.3871
  113MOL0     C14806  -0.121   9.364   3.922 -0.8467 -0.3114  0.3293
  113MOL0     C14807  -0.227   9.466   3.895 -0.8689  0.3380  0.1210
  113MOL0     O14808  -0.347   9.390   3.873 -0.3609  0.2643  0.4994
  113MOL0     C14809  -0.440   9.402   3.967  0.2826  1.3767 -0.8140
  113MOL0     C14810  -0.549   9.488   3.950  0.6225  1.1049 -0.0177
  113MOL0     C14811  -0.653   9.478   4.036  0.8979 -0.1200 -0.2401
  113MOL0     C14812  -0.640   9.396   4.161 -0.1871 -0.6253 -0.1917
  113MOL0     C14813  -0.742   9.404   4.268  0.4556 -0.2059  0.6949
  113MOL0     O14814  -0.835   9.507   4.251 -0.1282 -0.4835 -0.4479
  113MOL0     C14815  -0.936   9.527   4.340 -0.4662 -0.5678  0.3183
  113MOL0     C14816  -0.978   9.659   4.329  0.1923 -0.4406  0.1346
  113MOL0     C14817  -1.081   9.704   4.406 -0.3145 -0.4803  0.2258
  113MOL0     C14818  -1.156   9.618   4.491  0.6049  0.4040 -0.0801
  113MOL0     O14819  -1.271   9.668   4.549 -0.1312  0.0886 -0.4192
  113MOL0     C14820  -1.276   9.661   4.689 -0.8465 -0.0407 -0.7641
  113MOL0     C14821  -1.226   9.796   4.758 -0.2533 -0.0597 -0.3259
  113MOL0     C14822  -1.179   9.762   4.901  0.7884  0.3812 -0.0042
  113MOL0     C14823  -1.036   9.711   4.905 -1.1683 -0.0373  0.5487
  113MOL0     C14824  -0.969   9.666   5.033 -0.1333 -0.3636 -0.1893
  113MOL0     C14825  -1.046   9.559   5.116 -0.0759  0.2708  0.0558
  113MOL0     C14826  -1.031   9.429   5.052  1.0362  0.5437  0.0828
  113MOL0     C14827  -1.129   9.329   5.128 -0.6990  0.0418  0.3147
  113MOL0    Cl14828  -1.303   9.376   5.097 -0.0630 -0.0159 -0.0533
  113MOL0     C14829  -1.103   9.487   4.508 -0.4301 -0.7425  0.3533
  113MOL0     C14830  -0.992   9.438   4.432  0.6282 -0.2104  0.3789
  113MOL0     O14831  -0.721   9.344   4.366 -0.2331  0.2160 -0.3853
  113MOL0     C14832  -0.534   9.306   4.167  0.0053  0.6783 -0.0123
  113MOL0     C14833  -0.433   9.305   4.071 -0.0000 -0.1530  0.1223
  113MOL0     N14834   0.328   9.345   3.742 -0.4035  0.0515 -0.1066
  113MOL0     N14835   0.428   9.422   3.715  0.5271  0.1833  0.8204
  113MOL0     C14836   1.326   9.337   3.305 -0.0820  0.3446 -1.2062
  113MOL0     C14837   1.455   9.333   3.244  0.6058 -0.3561  0.4209
  113MOL0     C14838   1.816   9.308   2.996  0.6480 -0.4116 -0.5474
  113MOL0     C14839   1.768   9.307   2.858  0.1046  0.0850 -0.8173
  113MOL0     C14840   1.841   9.355   2.757  0.0565  0.1369  0.6148
  113MOL0     C14841   1.972   9.379   2.794 -0.7503  0.6860  0.3251
  113MOL0     O14842   2.059   9.425   2.699 -0.0182  0.3530  0.3296
  113MOL0     C14843   2.177   9.346   2.687  0.0104 -0.3335 -0.7904
  113MOL0     C14844   2.169   9.230   2.592  0.0732  1.5396  0.2713
  113MOL0     C14845   2.301   9.204   2.522 -0.2253 -0.0805  0.7046
  113MOL0     C14846   2.410   9.130   2.611 -1.6679  0.0115 -0.0639
  113MOL0     C14847   2.367   8.997   2.664  0.8783 -0.4734  0.6247
  113MOL0     C14848   2.329   8.885   2.692 -0.3583 -0.7501 -0.2184
  113MOL0     C14849   2.018   9.388   2.920 -0.1433  0.8258 -0.4675
  113MOL0     C14850   1.942   9.357   3.029  0.2523  0.7811  0.0171
  113MOL0     H14851   1.363   9.103   3.006 -0.5274 -0.2887  1.1886
  113MOL0     H14852   1.155   9.107   3.136  0.4102 -1.0004  1.6760
  113MOL0     H14853   1.093   9.412   3.430 -0.1829  0.1469  0.5976
  113MOL0     H14854   1.152   9.264   3.513  0.0924 -0.1051  0.2417
  113MOL0     H14855   0.935   9.166   3.510  1.4730  0.8381  0.7099
  113MOL0     H14856   0.868   9.291   3.420 -0.1435 -4.8161 -0.2222
  113MOL0     H14857   0.998   9.315   3.705 -1.7907  0.4366  1.3112
  113MOL0     H14858   0.827   9.301   3.682  0.8165 -1.0026 -0.6038
  113MOL0     H14859   1.020   9.534   3.626 -1.0517  3.8042 -0.6373
  113MOL0     H14860   0.864   9.548   3.557  1.2069 -0.2386 -0.8704
  113MOL0     H14861   0.910   9.650   3.786 -2.3699  0.5764  1.0220
  113MOL0     H14862   0.919   9.478   3.845 -0.0804 -0.6354  0.4873
  113MOL0     H14863   0.698   9.590   3.890  1.3353  0.8494 -0.1913
  113MOL0     H14864   0.705   9.432   3.803  2.5041 -0.5349  2.2227
  113MOL0     H14865   0.686   9.699   3.650  0.2677  1.6177  3.3293
  113MOL0     H14866   0.610   9.557   3.600  0.5466  1.6544 -0.8920
  113MOL0     H14867   0.440   9.716   3.681  2.3068  0.7251 -0.3423
  113MOL0     H14868   0.512   9.718   3.840 -1.7545  2.3288 -1.4331
  113MOL0     H14869   0.273   9.594   3.955  0.9748 -3.1071  3.0025
  113MOL0     H14870   0.156   9.274   3.980  2.2507  0.9279 -1.0353
  113MOL0     H14871   0.102   9.278   3.807  1.6408 -1.1988  0.0406
  113MOL0     H14872   0.007   9.501   3.835 -1.5838  0.0353 -0.2392
  113MOL0     H14873   0.037   9.497   4.006  0.0930 -1.4577  0.9582
  113MOL0     H14874  -0.129   9.290   3.841  0.1387  1.1501 -1.1829
  113MOL0     H14875  -0.145   9.310   4.013 -0.9283  1.0530  1.1404
  113MOL0     H14876  -0.201   9.515   3.801  0.4822  0.0692  0.3455
  113MOL0     H14877  -0.222   9.543   3.973  3.4884 -0.0688  0.4896
  113MOL0     H14878  -0.559   9.564   3.874  0.5086  2.2019  1.0660
  113MOL0     H14879  -0.735   9.545   4.012  1.2405 -0.1169 -1.4813
  113MOL0     H14880  -0.940   9.728   4.254  0.6743 -3.2633 -2.4293
  113MOL0     H14881  -1.118   9.805   4.394  0.2689 -0.2480  0.3786
  113MOL0     H14882  -1.212   9.582   4.727  2.1658  1.3986 -2.4340
  113MOL0     H14883  -1.374   9.634   4.731 -0.4309 -1.7350 -0.8197
  113MOL0     H14884  -1.308   9.868   4.749 -0.3039  0.0955  1.1759
  113MOL0     H14885  -1.138   9.841   4.711 -0.6028  1.7322  0.6616
  113MOL0     H14886  -1.249   9.690   4.943  1.9226 -1.1099 -0.5775
  113MOL0     H14887  -1.187   9.852   4.963 -0.9102 -0.1612  0.6079
  113MOL0     H14888  -1.028   9.628   4.833 -2.2363  1.0693 -0.9012
  113MOL0     H14889  -0.964   9.785   4.868  1.1403 -2.0527  0.7024
  113MOL0     H14890  -0.969   9.756   5.096 -1.1959 -1.0273  0.8048
  113MOL0     H14891  -0.865   9.643   5.007 -0.3250  0.2350 -1.5783
  113MOL0     H14892  -1.146   9.602   5.124  0.9897  2.9681 -0.1018
  113MOL0     H14893  -1.007   9.567   5.218 -0.2138 -1.6479  0.2975
  113MOL0     H14894  -1.055   9.416   4.947 -1.5364 -2.1381  0.8779
  113MOL0     H14895  -0.931   9.387   5.065  0.9726  0.0513 -0.9211
  113MOL0     H14896  -1.107   9.344   5.234 -1.0825  0.5721  0.3224
  113MOL0     H14897  -1.110   9.229   5.088 -2.6432  0.1251 -0.9447
  113MOL0     H14898  -1.157   9.415   4.569 -1.1828  0.9618  1.7774
  113MOL0     H14899  -0.969   9.332   4.442  1.0047 -0.2260 -0.5738
  113MOL0     H14900  -0.519   9.232   4.245  1.9234 -0.1003 -1.0429
  113MOL0     H14901  -0.351   9.234   4.071 -0.4295 -0.6527  0.1129
  113MOL0     H14902   1.303   9.399   3.391 -2.4771 -1.5858 -0.3310
  113MOL0     H14903   1.534   9.397   3.284  1.3433 -1.8854  1.5324
  113MOL0     H14904   1.669   9.275   2.825 -1.0105  2.0231  0.4846
  113MOL0     H14905   1.810   9.378   2.655  2.5972  1.4442  0.0662
  113MOL0     H14906   2.207   9.307   2.784 -0.7406  0.7498 -0.0994
  113MOL0     H14907   2.257   9.413   2.652 -1.9563  3.4161  1.3158
  113MOL0     H14908   2.131   9.139   2.640 -0.5897  0.6151 -1.9263
  113MOL0     H14909   2.090   9.256   2.521  0.5548 -1.6481 -1.6430
  113MOL0     H14910   2.343   9.294   2.477  0.7802 -2.1989 -2.9966
  113MOL0     H14911   2.273   9.137   2.441  1.6987  0.2552 -0.3049
  113MOL0     H14912   2.503   9.114   2.555 -1.6146  2.2589 -0.7321
  113MOL0     H14913   2.427   9.186   2.703 -2.0817  0.5003 -0.2815
  113MOL0     H14914   2.281   8.789   2.701 -2.5363  0.3671  1.1136
  113MOL0     H14915   2.115   9.429   2.945  0.7264  1.1452 -3.8646
  113MOL0     H14916   1.968   9.340   3.133 -1.3043 -4.6251 -0.2097
  114MOL0     O14917   5.213  10.670   9.719 -0.5033 -0.1089  0.1765
  114MOL0     C14918   5.289  10.585   9.675 -0.8906  0.1687 -0.4097
  114MOL0     O14919   5.249  10.464   9.621 -0.1667  0.1508 -0.1380
  114MOL0     C14920   5.116  10.437   9.633 -0.5872  0.1426  0.2865
  114MOL0     C14921   5.077  10.316   9.698 -0.3964 -0.1047  0.1294
  114MOL0     C14922   4.945  10.294   9.718  0.7345 -0.0901  0.4759
  114MOL0     C14923   4.846  10.374   9.675 -0.3317 -0.1349 -0.4630
  114MOL0     O14924   4.724  10.321   9.701  0.3152 -0.2329 -0.9079
  114MOL0     C14925   4.619  10.420   9.736 -0.5526 -0.1732 -0.3868
  114MOL0     C14926   4.536  10.470   9.617 -0.2992  0.1419 -0.0383
  114MOL0     C14927   4.391  10.494   9.650  0.0164  0.0879 -0.6504
  114MOL0     C14928   4.312  10.365   9.679  0.1362  0.5611 -0.3731
  114MOL0     C14929   4.191  10.351   9.596  0.7803  0.0288 -0.4377
  114MOL0     C14930   4.096  10.475   9.595 -0.2797 -0.0014  0.3054
  114MOL0     C14931   3.954  10.430   9.577 -0.2771  0.5867 -0.5200
  114MOL0     C14932   3.858  10.534   9.525  0.3287  0.9994  0.0772
  114MOL0     N14933   3.719  10.491   9.519  0.7876 -0.0345  0.3738
  114MOL0     C14934   3.617  10.533   9.595  0.6033 -0.4030 -0.3095
  114MOL0     C14935   3.516  10.456   9.554  0.1542 -0.3361  0.4846
  114MOL0     C14936   3.372  10.472   9.584  0.6219 -0.2793 -0.0539
  114MOL0     C14937   3.336  10.425   9.725  0.4027 -0.2102 -0.7735
  114MOL0     C14938   3.285  10.279   9.707  0.2878  0.2495  0.0568
  114MOL0     C14939   3.140  10.269   9.663 -0.1671  0.1837 -0.3335
  114MOL0     O14940   3.099  10.137   9.678 -0.9140 -0.3086  0.6510
  114MOL0     C14941   2.969  10.127   9.697 -0.3090  0.6247  0.0038
  114MOL0     C14942   2.927  10.018   9.782  0.3251 -0.7327 -1.1333
  114MOL0     C14943   2.790   9.999   9.806  0.4849  0.1589  0.2650
  114MOL0     C14944   2.687  10.081   9.742 -0.1386 -0.0276  0.5588
  114MOL0     C14945   2.544  10.059   9.762  0.2996 -0.1403 -0.0276
  114MOL0     O14946   2.462  10.133   9.684  0.2002  0.2822 -0.6378
  114MOL0     C14947   2.328  10.107   9.689 -0.3259 -0.7068 -0.0507
  114MOL0     C14948   2.261  10.093   9.814  0.5493  0.9699  0.1976
  114MOL0     C14949   2.130  10.062   9.821  0.3600  0.3802  0.5290
  114MOL0     C14950   2.058  10.052   9.704 -0.7672 -0.1496  0.2155
  114MOL0     O14951   1.930  10.024   9.706  0.2682  0.5280  0.1178
  114MOL0     C14952   1.912   9.879   9.702  0.2848  0.1162 -0.4511
  114MOL0     C14953   1.762   9.864   9.740  0.1612  0.0995  0.2665
  114MOL0     C14954   1.667   9.920   9.626  0.0202  0.0780 -0.1733
  114MOL0     C14955   1.687   9.852   9.489  0.0824 -0.6420 -0.3878
  114MOL0     C14956   1.579   9.891   9.393  0.5187 -0.1067  0.7917
  114MOL0     C14957   1.587   9.801   9.266 -0.1893  0.0525 -0.4599
  114MOL0     C14958   1.533   9.660   9.299 -0.6824 -0.5826 -0.0950
  114MOL0     C14959   1.385   9.630   9.252 -0.0233 -0.1662  0.1691
  114MOL0    Cl14960   1.369   9.468   9.300 -0.3448  0.2035  0.1057
  114MOL0     C14961   2.119  10.079   9.582 -0.1301  0.1211  0.0529
  114MOL0     C14962   2.254  10.112   9.580  0.5970  0.1936  0.1400
  114MOL0     O14963   2.509   9.964   9.834  0.3618  0.0527 -0.0283
  114MOL0     C14964   2.733  10.180   9.652  0.0475  0.2769 -0.4436
  114MOL0     C14965   2.871  10.202   9.629 -0.3460  0.1804 -0.1352
  114MOL0     N14966   3.561  10.355   9.474  0.0236  0.1760 -1.2857
  114MOL0     N14967   3.686  10.377   9.453 -1.0253 -0.3373  0.0382
  114MOL0     C14968   4.880  10.494   9.613  0.3007 -0.0376  0.1637
  114MOL0     C14969   5.013  10.519   9.586 -0.6521 -0.4774  0.2968
  114MOL0     C14970   5.434  10.613   9.658 -0.6531  0.0846 -0.3031
  114MOL0     C14971   5.511  10.531   9.571 -0.0192  0.0336 -0.6674
  114MOL0     C14972   5.649  10.548   9.563  0.0716 -0.6026 -0.4109
  114MOL0     C14973   5.719  10.645   9.635  0.3161 -0.2716 -0.6674
  114MOL0     O14974   5.857  10.661   9.616  0.6635 -0.2206 -0.1836
  114MOL0     C14975   5.930  10.732   9.719 -0.1463  1.4670  0.5826
  114MOL0     C14976   6.032  10.645   9.788 -0.1295  0.1747 -0.5333
  114MOL0     C14977   6.105  10.554   9.685  0.0038  0.1474 -0.4079
  114MOL0     C14978   6.247  10.526   9.724 -0.6621  0.4597  0.9494
  114MOL0     C14979   6.328  10.646   9.686 -0.0072  0.2237 -0.2648
  114MOL0     C14980   6.369  10.753   9.662  0.9308  0.3909 -0.4359
  114MOL0     C14981   5.633  10.739   9.704  0.2334  0.9226 -0.2626
  114MOL0     C14982   5.495  10.721   9.722 -0.3117 -0.4860  0.1548
  114MOL0     H14983   5.160  10.256   9.735  2.2110  3.0356 -0.1564
  114MOL0     H14984   4.928  10.195   9.759  0.2701 -0.9548 -1.6534
  114MOL0     H14985   4.657  10.508   9.787  0.2200 -0.2514 -0.8092
  114MOL0     H14986   4.548  10.374   9.805  0.8405 -3.6671 -1.0497
  114MOL0     H14987   4.533  10.385   9.547  0.3231 -0.8592  1.1219
  114MOL0     H14988   4.577  10.559   9.568 -1.0527  0.9790  0.8171
  114MOL0     H14989   4.347  10.561   9.576  0.2502  1.2953  0.2608
  114MOL0     H14990   4.378  10.545   9.746 -1.5549 -1.8975  0.2641
  114MOL0     H14991   4.369  10.273   9.662 -0.8012 -0.3714  1.3125
  114MOL0     H14992   4.297  10.355   9.787 -3.7341 -1.7530 -0.9204
  114MOL0     H14993   4.127  10.265   9.620 -0.4893  0.5468 -1.7832
  114MOL0     H14994   4.218  10.331   9.492 -0.6521 -0.4711 -0.7336
  114MOL0     H14995   4.125  10.545   9.516 -1.4785  2.0333  1.5784
  114MOL0     H14996   4.107  10.540   9.682 -0.4676  2.5092 -1.4392
  114MOL0     H14997   3.949  10.342   9.513  0.3568  0.1422  0.0186
  114MOL0     H14998   3.925  10.413   9.681 -0.5735  2.5018 -0.2588
  114MOL0     H14999   3.891  10.547   9.422  2.2257  0.9956  0.6436
  114MOL0     H15000   3.883  10.628   9.575  1.9149  0.5362  0.2227
  114MOL0     H15001   3.623  10.608   9.674 -1.9208  0.7563 -1.1307
  114MOL0     H15002   3.309  10.429   9.505  1.2121 -0.7902 -0.2570
  114MOL0     H15003   3.359  10.580   9.579 -0.1973 -0.4332 -2.1517
  114MOL0     H15004   3.250  10.482   9.762  0.9673 -1.2380  2.4882
  114MOL0     H15005   3.422  10.422   9.793  0.6951 -0.9175 -1.1609
  114MOL0     H15006   3.348  10.243   9.625 -0.9439  1.2145 -1.3726
  114MOL0     H15007   3.288  10.224   9.801 -0.1949  0.3896  0.1580
  114MOL0     H15008   3.121  10.297   9.559 -2.6236 -0.8123 -0.2266
  114MOL0     H15009   3.085  10.341   9.724 -0.5203  0.3023 -0.7830
  114MOL0     H15010   2.991   9.956   9.845  1.3127 -1.1149 -2.4761
  114MOL0     H15011   2.761   9.919   9.873 -2.3734  0.2241 -0.7619
  114MOL0     H15012   2.314  10.103   9.908  0.0420  0.7187  0.5148
  114MOL0     H15013   2.086  10.059   9.921 -2.7186  1.3644 -0.6861
  114MOL0     H15014   1.977   9.836   9.779  1.3893  1.7098 -0.4457
  114MOL0     H15015   1.925   9.831   9.605 -1.6067 -2.4861  0.4617
  114MOL0     H15016   1.750   9.921   9.832 -1.7151 -1.6448  1.2028
  114MOL0     H15017   1.742   9.757   9.753  2.5234 -0.4019  0.1460
  114MOL0     H15018   1.666  10.029   9.618 -0.9541  0.1648  0.8374
  114MOL0     H15019   1.567   9.898   9.663  0.3878 -1.4480 -0.0198
  114MOL0     H15020   1.781   9.892   9.449 -1.0471 -0.3152 -2.9277
  114MOL0     H15021   1.699   9.747   9.517  2.4720 -0.5110 -0.6882
  114MOL0     H15022   1.583   9.996   9.362  1.9162 -0.7982 -1.6080
  114MOL0     H15023   1.478   9.879   9.434  0.5669 -0.2411  0.8708
  114MOL0     H15024   1.692   9.784   9.242 -0.3811 -0.3758 -1.0280
  114MOL0     H15025   1.535   9.855   9.186  0.4297  2.0479  0.4095
  114MOL0     H15026   1.601   9.590   9.250  1.8969  0.0292  2.3379
  114MOL0     H15027   1.547   9.639   9.405  0.3824 -0.2452 -0.1466
  114MOL0     H15028   1.376   9.642   9.143  2.0723 -0.3725 -0.0780
  114MOL0     H15029   1.301   9.682   9.300  1.3795  0.7825  1.6961
  114MOL0     H15030   2.059  10.072   9.492  1.5665  0.9075 -1.2063
  114MOL0     H15031   2.285  10.130   9.478  1.8739 -0.8277  0.3195
  114MOL0     H15032   2.666  10.243   9.595 -0.6193 -0.1678 -0.1583
  114MOL0     H15033   2.905  10.265   9.547  2.2006 -0.4214  0.4025
  114MOL0     H15034   4.804  10.562   9.575  1.8263  0.1713 -2.8413
  114MOL0     H15035   5.044  10.610   9.534  2.3454 -2.5727 -1.9592
  114MOL0     H15036   5.468  10.444   9.521  1.8921 -0.3412 -1.7567
  114MOL0     H15037   5.706  10.472   9.510 -2.8874 -1.7892 -2.1294
  114MOL0     H15038   5.870  10.770   9.802  0.0907  3.2795 -0.0226
  114MOL0     H15039   5.991  10.807   9.668  0.9816  0.5031  0.4620
  114MOL0     H15040   6.098  10.701   9.855 -0.0562 -0.8080  0.2453
  114MOL0     H15041   5.972  10.584   9.856  1.5738  0.2501  1.1190
  114MOL0     H15042   6.105  10.589   9.581 -0.8290  0.2713 -0.3719
  114MOL0     H15043   6.038  10.468   9.684  0.5294 -0.3025  0.8829
  114MOL0     H15044   6.261  10.510   9.831 -0.5846  0.7454  0.9842
  114MOL0     H15045   6.287  10.442   9.666  1.3888  1.2016  1.2035
  114MOL0     H15046   6.418  10.848   9.659  0.4963  0.6631  0.6754
  114MOL0     H15047   5.670  10.830   9.750 -1.0806  1.1032  0.4615
  114MOL0     H15048   5.443  10.773   9.802 -1.9662 -2.2911  0.3468
  115MOL0     O15049   6.517   8.267   9.689 -0.0082  0.2445  0.5322
  115MOL0     C15050   6.517   8.346   9.598  0.8462 -0.3684 -0.3156
  115MOL0     O15051   6.613   8.441   9.563 -0.2782  0.0775 -0.0938
  115MOL0     C15052   6.735   8.440   9.620  0.0411 -0.6475  0.5282
  115MOL0     C15053   6.770   8.389   9.744  0.4762 -0.2757 -0.0954
  115MOL0     C15054   6.899   8.408   9.801  0.3409 -0.6442 -0.2277
  115MOL0     C15055   6.989   8.478   9.731 -0.3001 -0.4589 -0.8878
  115MOL0     O15056   7.111   8.491   9.785  0.1161  0.2319  0.1026
  115MOL0     C15057   7.179   8.370   9.769 -0.1754 -0.1654  0.5572
  115MOL0     C15058   7.327   8.399   9.745 -0.9880  0.3667 -0.5306
  115MOL0     C15059   7.397   8.264   9.736 -0.4664  0.0547 -0.2657
  115MOL0     C15060   7.540   8.281   9.704 -0.0728 -0.3621 -0.8925
  115MOL0     C15061   7.625   8.155   9.719  0.7554  0.4011  0.5393
  115MOL0     C15062   7.664   8.128   9.864 -0.5234  0.0339 -0.6339
  115MOL0     C15063   7.785   8.041   9.865  0.0847  0.7375 -0.3398
  115MOL0     C15064   7.847   8.008  10.004  0.3457  0.8141  0.0002
  115MOL0     N15065   7.969   7.933   9.975  0.5507 -0.3297  0.4783
  115MOL0     C15066   7.969   7.795   9.972 -0.4125  0.3332 -0.0557
  115MOL0     C15067   8.100   7.764   9.947  0.4051 -0.1867  0.0120
  115MOL0     C15068   8.140   7.620   9.908 -0.6601 -1.1505 -0.4434
  115MOL0     C15069   8.185   7.628   9.762  0.7974 -0.1278 -0.2482
  115MOL0     C15070   8.239   7.488   9.722 -0.2645  0.5203  0.4299
  115MOL0     C15071   8.231   7.460   9.573  0.0689  0.0631 -0.0810
  115MOL0     O15072   8.334   7.526   9.504  0.9219  0.0769 -0.0098
  115MOL0     C15073   8.457   7.467   9.488  0.5131  0.3112  0.0861
  115MOL0     C15074   8.456   7.348   9.413  0.2743 -0.4722 -0.5306
  115MOL0     C15075   8.576   7.295   9.372  0.0275 -0.4203  0.4191
  115MOL0     C15076   8.701   7.349   9.413  0.1823 -0.2773 -0.7864
  115MOL0     C15077   8.827   7.269   9.379  0.7955 -0.5935  0.3303
  115MOL0     O15078   8.811   7.135   9.354 -0.5270 -0.4142  0.5750
  115MOL0     C15079   8.933   7.072   9.334  0.2708  0.4882  0.1941
  115MOL0     C15080   8.983   7.008   9.450  0.7588 -0.2888  0.2009
  115MOL0     C15081   9.105   6.945   9.453  0.2334  0.7485 -0.5004
  115MOL0     C15082   9.184   6.952   9.331  0.6101  0.4158 -0.3976
  115MOL0     O15083   9.311   6.903   9.314 -0.0768  0.7079 -0.4210
  115MOL0     C15084   9.388   6.865   9.432  1.2524 -0.2503 -0.3743
  115MOL0     C15085   9.527   6.800   9.402  0.2459  0.0875 -0.2279
  115MOL0     C15086   9.609   6.785   9.531 -0.4618  0.4811 -0.0981
  115MOL0     C15087   9.567   6.661   9.617  0.4619 -0.7661 -0.6443
  115MOL0     C15088   9.656   6.650   9.740 -0.2173  0.6826  0.0484
  115MOL0     C15089   9.620   6.540   9.826 -0.0099 -1.3767 -0.4145
  115MOL0     C15090   9.475   6.556   9.890  1.1918 -0.1464 -0.7488
  115MOL0     C15091   9.454   6.468  10.011  1.0514  0.2066 -0.2227
  115MOL0    Cl15092   9.408   6.291   9.952  0.1203  0.1250 -0.2980
  115MOL0     C15093   9.126   7.011   9.212  0.4079 -0.6300  0.0717
  115MOL0     C15094   9.001   7.076   9.212 -0.6380  0.2674 -0.0978
  115MOL0     O15095   8.933   7.329   9.363 -0.4697  0.2198 -0.2235
  115MOL0     C15096   8.701   7.459   9.498  0.3253  0.7422  0.0826
  115MOL0     C15097   8.580   7.518   9.531  1.0132 -0.4394  0.1969
  115MOL0     N15098   8.173   7.882   9.928 -0.1009  0.8323  0.6323
  115MOL0     N15099   8.088   7.984   9.934 -0.4725  0.3819 -0.2196
  115MOL0     C15100   6.960   8.526   9.603 -0.4231 -0.2319  0.7416
  115MOL0     C15101   6.841   8.512   9.544  0.5498 -0.6543  0.6054
  115MOL0     C15102   6.389   8.359   9.516  0.2446 -1.0952 -0.4878
  115MOL0     C15103   6.278   8.275   9.528  0.7973 -0.8708 -0.4424
  115MOL0     C15104   6.166   8.306   9.465 -0.1667 -0.1583 -0.7027
  115MOL0     C15105   6.145   8.419   9.394  0.3146  0.2540  0.0916
  115MOL0     O15106   6.032   8.429   9.319  0.0408 -0.0924 -0.3987
  115MOL0     C15107   5.904   8.379   9.367  0.0095 -0.0775 -0.3423
  115MOL0     C15108   5.860   8.238   9.325 -0.6620 -0.1341 -0.0715
  115MOL0     C15109   5.733   8.192   9.399 -0.0876  0.2012 -0.5689
  115MOL0     C15110   5.609   8.248   9.335 -0.3493  0.3896 -0.5461
  115MOL0     C15111   5.490   8.190   9.397  0.4285 -1.0361  0.0239
  115MOL0     C15112   5.390   8.149   9.450 -0.2160 -0.8802  0.9561
  115MOL0     C15113   6.251   8.513   9.379  0.1503  0.2262  0.1015
  115MOL0     C15114   6.372   8.485   9.437  0.4194  0.3478 -0.8139
  115MOL0     H15115   6.703   8.323   9.799  1.4806 -1.5398 -0.3415
  115MOL0     H15116   6.924   8.364   9.897  0.5656  0.2808  0.1418
  115MOL0     H15117   7.139   8.312   9.686  0.1263  1.2097 -0.5839
  115MOL0     H15118   7.167   8.314   9.863 -0.5268 -0.1469  0.5241
  115MOL0     H15119   7.374   8.457   9.825  0.0517 -2.1233  0.7636
  115MOL0     H15120   7.348   8.451   9.651  0.4705  1.2599  0.2484
  115MOL0     H15121   7.349   8.201   9.661 -2.1557  0.2952  0.5574
  115MOL0     H15122   7.391   8.216   9.835  0.0728  1.4896  0.4932
  115MOL0     H15123   7.551   8.301   9.597 -2.2447  2.6755 -0.6538
  115MOL0     H15124   7.584   8.365   9.758  4.1170 -2.8570  0.0497
  115MOL0     H15125   7.712   8.154   9.652  1.3656  0.1329  1.3234
  115MOL0     H15126   7.563   8.070   9.691  1.0599  0.1808  0.5305
  115MOL0     H15127   7.572   8.090   9.910 -0.7781  0.7219 -0.5543
  115MOL0     H15128   7.697   8.214   9.923 -1.1184 -2.0743  3.0966
  115MOL0     H15129   7.763   7.950   9.808  0.9727  1.2974 -1.6270
  115MOL0     H15130   7.863   8.091   9.807  0.8959 -0.3556 -0.2127
  115MOL0     H15131   7.781   7.944  10.064  2.3003 -2.3481 -0.9237
  115MOL0     H15132   7.861   8.099  10.063  0.3529  0.3256  0.7691
  115MOL0     H15133   7.891   7.720   9.971  1.2757 -1.5392  0.6135
  115MOL0     H15134   8.051   7.557   9.914 -0.9332 -0.8747 -1.4721
  115MOL0     H15135   8.223   7.587   9.971  0.5600  0.0579 -1.3436
  115MOL0     H15136   8.261   7.703   9.739 -1.1896  2.3725  0.7927
  115MOL0     H15137   8.097   7.638   9.698  1.2374  0.5979 -0.7449
  115MOL0     H15138   8.342   7.490   9.759 -0.3501 -0.8261  0.7900
  115MOL0     H15139   8.183   7.407   9.770 -4.2194  0.8444 -3.0911
  115MOL0     H15140   8.133   7.483   9.531 -1.2036 -2.7989  1.1092
  115MOL0     H15141   8.244   7.352   9.573 -0.1374  0.0153  1.2816
  115MOL0     H15142   8.365   7.312   9.368 -0.4361 -0.2039  0.6408
  115MOL0     H15143   8.576   7.213   9.301  1.1519 -1.2614  1.3379
  115MOL0     H15144   8.929   6.985   9.541 -1.1033 -1.1486 -1.0476
  115MOL0     H15145   9.134   6.901   9.547 -1.2805  0.8429  0.0459
  115MOL0     H15146   9.327   6.793   9.487  0.4222  1.0217  0.4471
  115MOL0     H15147   9.403   6.947   9.503 -0.7654 -0.3311  0.1962
  115MOL0     H15148   9.577   6.857   9.323 -0.6521 -0.0378 -0.9059
  115MOL0     H15149   9.519   6.705   9.349 -0.2932  0.2244 -0.4050
  115MOL0     H15150   9.594   6.875   9.591  0.1088  0.2963  0.3258
  115MOL0     H15151   9.714   6.780   9.503  0.0508  6.1293 -0.3842
  115MOL0     H15152   9.468   6.678   9.659  1.2189 -1.8406  1.7074
  115MOL0     H15153   9.572   6.569   9.557  0.0928 -0.6265 -0.8879
  115MOL0     H15154   9.666   6.740   9.800 -0.3290 -0.5515  2.0096
  115MOL0     H15155   9.757   6.624   9.706 -0.7256 -0.2714 -0.7922
  115MOL0     H15156   9.692   6.536   9.908 -0.1354  0.8193 -0.1239
  115MOL0     H15157   9.621   6.442   9.779 -1.6161 -1.7578  0.2788
  115MOL0     H15158   9.457   6.656   9.929  1.2832 -0.0630 -0.9180
  115MOL0     H15159   9.405   6.531   9.810  2.8156 -0.7655 -2.0466
  115MOL0     H15160   9.366   6.498  10.068  0.2723 -0.7362 -0.9114
  115MOL0     H15161   9.541   6.478  10.077  1.3777  2.3884 -0.8998
  115MOL0     H15162   9.185   7.018   9.122  2.3541  0.7025  1.3745
  115MOL0     H15163   8.966   7.126   9.122 -0.6616  0.4372  0.0041
  115MOL0     H15164   8.797   7.488   9.538  1.0672 -1.4278 -0.0206
  115MOL0     H15165   8.588   7.618   9.571  0.0153 -1.4999  3.3705
  115MOL0     H15166   7.037   8.582   9.552  0.7072 -0.1394  2.4907
  115MOL0     H15167   6.838   8.552   9.443 -0.0360 -0.1402  0.8180
  115MOL0     H15168   6.279   8.188   9.593 -1.0194  0.2426  1.2118
  115MOL0     H15169   6.090   8.229   9.476  0.1089 -1.0558 -3.8910
  115MOL0     H15170   5.820   8.446   9.348 -1.5642 -2.0652 -0.6699
  115MOL0     H15171   5.905   8.383   9.476 -0.4007  0.6508 -0.3527
  115MOL0     H15172   5.830   8.248   9.220  0.3039 -2.3991 -0.6261
  115MOL0     H15173   5.939   8.162   9.325 -0.6754 -0.1535  0.9385
  115MOL0     H15174   5.739   8.238   9.498  1.9620  1.5876 -1.2562
  115MOL0     H15175   5.731   8.083   9.407  0.9773  0.2477  0.5531
  115MOL0     H15176   5.610   8.355   9.358 -0.8125 -0.0584  1.7917
  115MOL0     H15177   5.615   8.212   9.232 -0.0521  1.7412 -1.0243
  115MOL0     H15178   5.304   8.095   9.484  0.3764 -3.4584 -1.3533
  115MOL0     H15179   6.243   8.603   9.320  2.9889 -0.3949 -1.4347
  115MOL0     H15180   6.455   8.553   9.424 -0.1324  0.7396 -2.5594
  116MOL0     O15181   2.543   3.751  10.302 -0.5421  0.6695 -0.3589
  116MOL0     C15182   2.561   3.845  10.377 -0.4890  0.3902 -0.2881
  116MOL0     O15183   2.459   3.924  10.423 -0.0227 -0.3698 -0.2917
  116MOL0     C15184   2.338   3.905  10.366  0.4523  0.2647 -0.1875
  116MOL0     C15185   2.227   3.916  10.454 -0.7640 -0.2467  0.8501
  116MOL0     C15186   2.102   3.893  10.407  0.2153  0.8749 -0.0489
  116MOL0     C15187   2.076   3.869  10.278 -0.7016 -0.5663  0.7850
  116MOL0     O15188   1.943   3.854  10.245  0.1949 -0.1992  0.4935
  116MOL0     C15189   1.911   3.757  10.145 -0.4038 -0.0855  0.1617
  116MOL0     C15190   1.761   3.723  10.173 -0.1492 -0.3048  0.5853
  116MOL0     C15191   1.674   3.839  10.137  0.0905 -1.1003  0.2752
  116MOL0     C15192   1.516   3.816  10.122 -0.8417  0.3975  1.1850
  116MOL0     C15193   1.488   3.671  10.069 -0.4375  0.3526 -0.3476
  116MOL0     C15194   1.351   3.654  10.001 -0.4258  0.5402  0.5392
  116MOL0     C15195   1.346   3.731   9.867 -0.7634 -0.0470 -0.7828
  116MOL0     C15196   1.211   3.707   9.809  0.0056 -0.5826  0.5214
  116MOL0     N15197   1.141   3.830   9.846  1.0441  0.3879 -0.4694
  116MOL0     C15198   1.099   3.863   9.966  0.4779 -0.1362 -0.7443
  116MOL0     C15199   1.027   3.975   9.956 -0.7949  0.8973  1.4007
  116MOL0     C15200   0.974   4.055  10.073 -0.8560 -1.4777 -0.0154
  116MOL0     C15201   0.861   4.150  10.024  0.0533 -0.0849  0.1322
  116MOL0     C15202   0.785   4.198  10.148  0.3712  1.0451 -0.0089
  116MOL0     C15203   0.696   4.310  10.111  0.5391 -0.5077 -0.2843
  116MOL0     O15204   0.602   4.270  10.011  0.1791 -0.8210  0.0577
  116MOL0     C15205   0.467   4.265  10.049 -0.2509 -0.6402 -0.0404
  116MOL0     C15206   0.422   4.205  10.169  1.1220  0.0094 -0.0106
  116MOL0     C15207   0.288   4.210  10.194 -0.0494  0.2888 -0.4201
  116MOL0     C15208   0.194   4.290  10.118 -0.4551 -0.1655 -0.0015
  116MOL0     C15209   0.051   4.306  10.164  0.0648 -0.0023  0.3131
  116MOL0     O15210  -0.026   4.406  10.109 -0.0768 -0.4796 -0.3219
  116MOL0     C15211  -0.165   4.391  10.124 -0.6967  0.9072  0.2931
  116MOL0     C15212  -0.227   4.355  10.010 -0.0797 -0.3103  0.1766
  116MOL0     C15213  -0.364   4.325  10.014  0.0670  0.0797  0.7604
  116MOL0     C15214  -0.431   4.347  10.134  0.2435  0.4602 -0.0221
  116MOL0     O15215  -0.566   4.325  10.121  0.7007  0.3754 -0.0614
  116MOL0     C15216  -0.632   4.448  10.153 -0.4840 -0.3928 -0.2590
  116MOL0     C15217  -0.735   4.478  10.043 -0.1407 -0.5189  0.4240
  116MOL0     C15218  -0.844   4.577  10.094 -0.1594  0.6577  0.4072
  116MOL0     C15219  -0.914   4.647   9.974  0.0195  1.4847 -0.2314
  116MOL0     C15220  -0.994   4.769  10.015 -0.2831 -0.1995 -0.0729
  116MOL0     C15221  -1.087   4.741  10.125 -0.2402 -0.3278 -0.2169
  116MOL0     C15222  -1.188   4.628  10.118 -0.5985 -0.4560 -0.2959
  116MOL0     C15223  -1.304   4.672  10.026  0.1779 -0.1049  0.4929
  116MOL0    Cl15224  -1.430   4.732  10.134  0.3564  0.7332 -0.1584
  116MOL0     C15225  -0.364   4.385  10.246  1.0349 -0.1155 -0.5585
  116MOL0     C15226  -0.231   4.409  10.246  0.0219 -0.5137 -0.0399
  116MOL0     O15227   0.007   4.228  10.244  0.4502 -0.3104  0.1476
  116MOL0     C15228   0.244   4.354   9.996  0.3491 -0.2835 -0.5967
  116MOL0     C15229   0.378   4.332   9.965 -0.0525 -0.2153  0.6042
  116MOL0     N15230   1.016   3.992   9.818  0.8262 -0.2237  0.2618
  116MOL0     N15231   1.084   3.915   9.752 -0.9028 -0.1844 -0.3402
  116MOL0     C15232   2.186   3.855  10.187  0.3021  0.0756 -0.3907
  116MOL0     C15233   2.320   3.879  10.234 -0.2146 -0.6364 -0.3419
  116MOL0     C15234   2.705   3.882  10.417  0.2529  0.7739  0.5590
  116MOL0     C15235   2.748   3.991  10.495  0.2111  0.2104  0.6077
  116MOL0     C15236   2.881   4.011  10.513 -0.2330 -0.1854  0.2882
  116MOL0     C15237   2.974   3.921  10.461  0.4452  0.1080  0.1162
  116MOL0     O15238   3.103   3.944  10.496  0.2605  0.1064  0.4767
  116MOL0     C15239   3.206   3.864  10.443 -0.2196 -0.3515  1.3994
  116MOL0     C15240   3.221   3.883  10.289  0.2897 -1.2298 -0.7965
  116MOL0     C15241   3.362   3.929  10.253  0.2591  0.3090  0.0441
  116MOL0     C15242   3.366   3.938  10.098 -0.3235  0.0400 -0.2837
  116MOL0     C15243   3.496   3.990  10.063 -0.1799 -0.1203  0.3449
  116MOL0     C15244   3.597   4.029  10.019  0.1738  0.8470 -0.4561
  116MOL0     C15245   2.932   3.815  10.378  0.1421 -1.0559 -0.5657
  116MOL0     C15246   2.801   3.805  10.342  0.7963  0.1356  0.5673
  116MOL0     H15247   2.258   3.938  10.556  1.9747  4.3126 -0.6569
  116MOL0     H15248   2.018   3.909  10.474 -1.1788 -0.3119 -1.4125
  116MOL0     H15249   1.978   3.671  10.138 -0.7696 -0.3076 -0.7812
  116MOL0     H15250   1.929   3.812  10.052  0.0847 -0.4113  0.0614
  116MOL0     H15251   1.741   3.712  10.280 -1.2721  0.2332  0.4409
  116MOL0     H15252   1.740   3.633  10.115  0.7177  1.6174 -3.0175
  116MOL0     H15253   1.708   3.877  10.040 -1.1853 -1.3731 -0.2989
  116MOL0     H15254   1.690   3.927  10.200  0.2245 -1.8195  1.2624
  116MOL0     H15255   1.460   3.830  10.215 -2.4351 -0.7920  0.4525
  116MOL0     H15256   1.469   3.894  10.061 -2.8462  0.7624  3.0353
  116MOL0     H15257   1.503   3.599  10.150  1.8429 -0.2996 -1.2781
  116MOL0     H15258   1.562   3.654   9.990 -0.8192 -2.3216 -0.2302
  116MOL0     H15259   1.265   3.680  10.062 -0.1744 -1.2919  1.7731
  116MOL0     H15260   1.352   3.548   9.974  2.1943  0.1323  1.8991
  116MOL0     H15261   1.368   3.838   9.869 -2.3470  0.3611 -2.5729
  116MOL0     H15262   1.426   3.700   9.799 -2.1787  0.0791 -2.5580
  116MOL0     H15263   1.152   3.626   9.852 -1.3194  0.8928  1.5846
  116MOL0     H15264   1.203   3.698   9.700 -1.7008  1.1374  0.4295
  116MOL0     H15265   1.105   3.804  10.058 -0.5077  1.5002  0.4199
  116MOL0     H15266   1.057   4.122  10.101 -1.9755 -0.1823  0.3110
  116MOL0     H15267   0.938   3.994  10.157  0.5700 -2.8640 -0.3541
  116MOL0     H15268   0.788   4.111   9.951 -1.3964 -0.6262  1.8022
  116MOL0     H15269   0.898   4.242   9.977 -1.7424  0.4265 -0.3820
  116MOL0     H15270   0.728   4.111  10.178  1.1652  0.3323 -0.5255
  116MOL0     H15271   0.859   4.227  10.224  2.6524 -5.1569  0.6934
  116MOL0     H15272   0.741   4.401  10.071 -0.2045 -0.3800 -0.8586
  116MOL0     H15273   0.642   4.346  10.200  0.7037  1.0136 -0.7584
  116MOL0     H15274   0.482   4.141  10.232 -0.3986 -1.5003 -0.0394
  116MOL0     H15275   0.244   4.172  10.286  3.7205 -0.1133  1.3906
  116MOL0     H15276  -0.163   4.333   9.925  2.4657 -1.5509  2.2742
  116MOL0     H15277  -0.412   4.294   9.922  0.5657 -3.8446  1.6133
  116MOL0     H15278  -0.572   4.539  10.167  0.7276 -1.1302 -0.5245
  116MOL0     H15279  -0.677   4.439  10.252  1.2517  1.5417  0.7922
  116MOL0     H15280  -0.799   4.391  10.023 -1.0826  0.0945  0.7049
  116MOL0     H15281  -0.689   4.517   9.952 -1.2963 -1.9992 -0.8490
  116MOL0     H15282  -0.800   4.654  10.157  0.5531 -1.5046  2.6827
  116MOL0     H15283  -0.917   4.513  10.145  0.2341 -0.7001 -0.6673
  116MOL0     H15284  -0.833   4.672   9.905 -1.2138 -0.2880 -2.4955
  116MOL0     H15285  -0.974   4.573   9.919 -1.8786  2.9709 -0.2438
  116MOL0     H15286  -1.051   4.811   9.932 -1.4538 -0.7056  0.4484
  116MOL0     H15287  -0.929   4.850  10.051  0.3503 -0.6060 -0.2740
  116MOL0     H15288  -1.134   4.835  10.155 -1.3457  0.6090 -4.3209
  116MOL0     H15289  -1.024   4.730  10.214 -4.1353  2.9832  3.4078
  116MOL0     H15290  -1.143   4.531  10.091  3.5577  1.3112 -0.4429
  116MOL0     H15291  -1.236   4.616  10.215  1.5481 -1.1034  0.7602
  116MOL0     H15292  -1.347   4.580   9.986  0.1704 -0.7186  1.8491
  116MOL0     H15293  -1.284   4.740   9.943 -1.3354 -0.6184 -0.3320
  116MOL0     H15294  -0.413   4.389  10.342  0.1001  0.5501 -1.0396
  116MOL0     H15295  -0.174   4.451  10.328  0.1275 -1.8243  0.5763
  116MOL0     H15296   0.177   4.417   9.939 -1.5478 -0.6727  1.0682
  116MOL0     H15297   0.423   4.387   9.883 -2.1431 -1.2493 -1.3450
  116MOL0     H15298   2.183   3.827  10.082  2.5953 -1.9354 -0.0166
  116MOL0     H15299   2.404   3.875  10.166 -0.8638 -0.0781 -1.2104
  116MOL0     H15300   2.676   4.043  10.557 -0.5563 -1.9001  1.5747
  116MOL0     H15301   2.907   4.106  10.558 -1.6026 -0.9567  2.8627
  116MOL0     H15302   3.197   3.762  10.483  1.5450 -0.3417  1.9043
  116MOL0     H15303   3.294   3.903  10.493 -0.6004  0.7408  1.2537
  116MOL0     H15304   3.203   3.784  10.247 -1.9759 -3.0416  3.7163
  116MOL0     H15305   3.153   3.957  10.245 -4.9255 -3.9781  1.7078
  116MOL0     H15306   3.434   3.865  10.303  0.2853  1.1589  1.1198
  116MOL0     H15307   3.381   4.026  10.300 -0.4456  0.7597 -0.5541
  116MOL0     H15308   3.353   3.837  10.057  0.7005 -0.7781  1.3154
  116MOL0     H15309   3.286   4.004  10.064 -1.4845 -0.4201  1.4661
  116MOL0     H15310   3.671   4.075   9.956  1.0762 -1.7398 -1.4237
  116MOL0     H15311   3.005   3.747  10.336 -0.0982 -2.4264  1.1634
  116MOL0     H15312   2.762   3.732  10.272 -1.8736  1.5272  0.4801
  117MOL0     O15313   0.368   9.619   5.139  0.2409  0.3388 -0.1795
  117MOL0     C15314   0.361   9.713   5.059 -0.1123  0.0441  0.8495
  117MOL0     O15315   0.262   9.808   5.059  0.3549 -0.3011 -0.0885
  117MOL0     C15316   0.153   9.799   5.132  0.3273  0.2023 -0.0478
  117MOL0     C15317   0.040   9.833   5.064 -0.4252 -0.8709 -0.2912
  117MOL0     C15318  -0.080   9.815   5.116 -0.2607  0.0774 -0.8134
  117MOL0     C15319  -0.101   9.759   5.242  1.2145 -0.3511 -0.5216
  117MOL0     O15320  -0.230   9.731   5.283 -0.4152  0.0007  0.6975
  117MOL0     C15321  -0.245   9.585   5.303  0.2176 -1.2020 -0.7415
  117MOL0     C15322  -0.391   9.544   5.291  0.2390  0.0182 -0.3173
  117MOL0     C15323  -0.502   9.615   5.372  0.4130 -0.1279 -0.4904
  117MOL0     C15324  -0.638   9.548   5.365 -0.2319 -0.6932  0.1097
  117MOL0     C15325  -0.739   9.627   5.455  0.6515  0.0843 -0.0866
  117MOL0     C15326  -0.774   9.762   5.391  0.8772  0.3476  0.2387
  117MOL0     C15327  -0.862   9.859   5.477 -0.6070 -0.6374 -0.2144
  117MOL0     C15328  -1.005   9.815   5.501 -0.3797  0.4614  0.7669
  117MOL0     N15329  -1.085   9.918   5.572 -0.4947 -0.6101 -0.6191
  117MOL0     C15330  -1.116   9.916   5.707 -0.7268  0.2624  0.4542
  117MOL0     C15331  -1.229   9.985   5.719  0.7065 -0.2691  0.8008
  117MOL0     C15332  -1.289  10.014   5.850 -0.2125 -0.7580  0.6152
  117MOL0     C15333  -1.347  10.158   5.867  0.1839  0.1427  0.5687
  117MOL0     C15334  -1.457  10.150   5.982 -0.8238 -0.1592  0.7736
  117MOL0     C15335  -1.538  10.271   5.983  0.5691  0.0707 -0.6207
  117MOL0     O15336  -1.625  10.255   6.093 -0.3418 -0.0496 -0.1004
  117MOL0     C15337  -1.752  10.304   6.085  0.4978  0.0431 -0.5315
  117MOL0     C15338  -1.854  10.253   6.165  0.3294 -0.1984  0.0720
  117MOL0     C15339  -1.982  10.303   6.165 -0.5280 -0.0200 -0.0503
  117MOL0     C15340  -2.014  10.409   6.079  0.1868 -0.2623 -0.7114
  117MOL0     C15341  -2.156  10.456   6.072  0.3985 -1.0453 -0.2293
  117MOL0     O15342  -2.249  10.375   6.128  0.4656 -0.0210 -0.5644
  117MOL0     C15343  -2.378  10.410   6.139  0.0220 -0.4671 -0.0951
  117MOL0     C15344  -2.447  10.333   6.230  1.0370  0.5421 -0.2242
  117MOL0     C15345  -2.585  10.351   6.261 -0.2862  0.5239  0.4732
  117MOL0     C15346  -2.656  10.453   6.189  0.2163  0.1772  0.3865
  117MOL0     O15347  -2.792  10.478   6.207  0.4445 -0.3271  0.2632
  117MOL0     C15348  -2.816  10.523   6.343 -0.0078  0.3128  1.1531
  117MOL0     C15349  -2.962  10.552   6.384  0.0926  0.8751 -0.1613
  117MOL0     C15350  -2.957  10.605   6.533  0.4776  0.0128 -0.3060
  117MOL0     C15351  -3.092  10.632   6.601 -1.1460  0.1422  0.5389
  117MOL0     C15352  -3.063  10.703   6.733  0.9420  0.3836 -0.0897
  117MOL0     C15353  -3.181  10.696   6.830  0.2480 -0.1143 -0.6043
  117MOL0     C15354  -3.283  10.799   6.798 -0.7827 -0.1694 -0.7374
  117MOL0     C15355  -3.425  10.744   6.800  0.0621 -1.0676 -0.2236
  117MOL0    Cl15356  -3.499  10.730   6.958 -0.3951 -0.0182 -0.2738
  117MOL0     C15357  -2.592  10.518   6.084 -0.4708 -0.0623  0.2750
  117MOL0     C15358  -2.455  10.492   6.063 -0.4170  0.0128 -0.2262
  117MOL0     O15359  -2.176  10.559   6.017  0.1019 -0.3297 -0.0526
  117MOL0     C15360  -1.922  10.454   5.989  0.2808 -0.2791 -0.6059
  117MOL0     C15361  -1.788  10.415   6.004  0.5015  0.8612  0.2700
  117MOL0     N15362  -1.261  10.036   5.599 -0.6790 -0.2072 -0.2552
  117MOL0     N15363  -1.174   9.998   5.508 -0.4661  0.6220  0.2981
  117MOL0     C15364   0.008   9.733   5.320 -0.3174  1.1086  0.6334
  117MOL0     C15365   0.134   9.746   5.263  0.4975 -0.7822 -0.5104
  117MOL0     C15366   0.467   9.729   4.955 -0.4455  0.5424 -0.3857
  117MOL0     C15367   0.599   9.696   4.987  0.5478  0.4735  0.0561
  117MOL0     C15368   0.704   9.712   4.886  0.6186 -0.5351  0.6398
  117MOL0     C15369   0.666   9.758   4.761  0.1346  0.0107 -0.2071
  117MOL0     O15370   0.755   9.782   4.652  0.4315  0.1207 -0.0968
  117MOL0     C15371   0.776   9.666   4.565  0.3175 -0.1936 -0.3336
  117MOL0     C15372   0.860   9.549   4.624  0.0413 -0.8216  0.7162
  117MOL0     C15373   0.991   9.606   4.669 -0.4736  0.7821 -0.1626
  117MOL0     C15374   1.081   9.484   4.696 -0.3331 -0.1331  0.6691
  117MOL0     C15375   1.121   9.401   4.582 -0.3381  0.2524 -0.0008
  117MOL0     C15376   1.152   9.326   4.489 -0.8570 -0.1548 -0.6093
  117MOL0     C15377   0.539   9.809   4.741  0.6107  0.1344 -0.5156
  117MOL0     C15378   0.433   9.790   4.834 -0.0092  0.1638 -0.1206
  117MOL0     H15379   0.044   9.882   4.968  0.9285  1.6473  0.9340
  117MOL0     H15380  -0.164   9.846   5.053  0.5894  1.4265 -1.3303
  117MOL0     H15381  -0.214   9.552   5.403 -0.7462  0.1064  0.0249
  117MOL0     H15382  -0.176   9.537   5.234  3.0031  0.4782  0.7023
  117MOL0     H15383  -0.391   9.438   5.317 -1.3003  0.1619  0.3669
  117MOL0     H15384  -0.418   9.553   5.186  1.6183  0.3888 -0.6628
  117MOL0     H15385  -0.499   9.716   5.332 -3.5092  0.8945  1.3600
  117MOL0     H15386  -0.470   9.614   5.477  0.5303  0.4889 -0.5166
  117MOL0     H15387  -0.671   9.548   5.261 -1.9264  0.9483  0.6025
  117MOL0     H15388  -0.626   9.446   5.402 -1.2984 -1.1470 -0.7600
  117MOL0     H15389  -0.700   9.640   5.556 -1.1531  2.4640  0.3924
  117MOL0     H15390  -0.836   9.577   5.460 -0.0609  0.8359 -3.3922
  117MOL0     H15391  -0.830   9.741   5.299  0.2339  1.5944  0.3307
  117MOL0     H15392  -0.686   9.820   5.364 -0.6984  2.0118 -1.6758
  117MOL0     H15393  -0.828   9.877   5.580  2.8230 -0.0888 -1.3125
  117MOL0     H15394  -0.850   9.957   5.430  2.9097 -1.8780 -2.3396
  117MOL0     H15395  -1.024   9.718   5.545 -1.0149  0.3286  0.2226
  117MOL0     H15396  -1.058   9.812   5.405  0.6757  1.5052  0.1206
  117MOL0     H15397  -1.061   9.874   5.790 -0.0099  2.7323  1.3118
  117MOL0     H15398  -1.211  10.004   5.926  1.6072  2.7035 -0.5431
  117MOL0     H15399  -1.370   9.941   5.859 -0.3998 -0.5067  0.9699
  117MOL0     H15400  -1.374  10.202   5.771 -0.5783 -3.0201 -0.7891
  117MOL0     H15401  -1.265  10.227   5.889  1.5046 -0.6567 -1.5821
  117MOL0     H15402  -1.522  10.064   5.963  0.5598 -1.4313  1.5688
  117MOL0     H15403  -1.405  10.140   6.077 -2.6750 -1.4784  1.7036
  117MOL0     H15404  -1.582  10.279   5.884 -1.5643 -1.9275  0.0638
  117MOL0     H15405  -1.472  10.357   5.998 -0.3508  0.7280 -0.2981
  117MOL0     H15406  -1.834  10.170   6.233  1.3601 -0.4876 -0.5577
  117MOL0     H15407  -2.062  10.264   6.228  0.4202 -1.8211  0.0988
  117MOL0     H15408  -2.397  10.249   6.277 -2.8564 -1.2434  1.1007
  117MOL0     H15409  -2.649  10.285   6.319 -0.6536  0.2128 -0.2792
  117MOL0     H15410  -2.762  10.617   6.359  0.1374  0.4403 -0.0075
  117MOL0     H15411  -2.780  10.449   6.415  0.9158 -2.4084 -1.8615
  117MOL0     H15412  -3.019  10.460   6.369 -0.4151  0.5896  2.9185
  117MOL0     H15413  -3.002  10.626   6.313  1.1433  0.9529 -0.6942
  117MOL0     H15414  -2.891  10.692   6.535 -0.1627  0.5453 -1.3215
  117MOL0     H15415  -2.904  10.529   6.591 -1.2215  0.9079  2.6637
  117MOL0     H15416  -3.149  10.711   6.552 -0.3013 -0.5328 -1.6741
  117MOL0     H15417  -3.154  10.543   6.611 -0.9190 -0.1591 -0.6155
  117MOL0     H15418  -3.032  10.808   6.722  1.4248  0.0870 -1.9809
  117MOL0     H15419  -2.978  10.655   6.781 -0.7065 -1.5630  1.0295
  117MOL0     H15420  -3.131  10.703   6.927 -0.6815 -0.5083 -0.0845
  117MOL0     H15421  -3.228  10.598   6.816  0.6356  0.0743 -4.3766
  117MOL0     H15422  -3.290  10.885   6.865 -0.7760  1.2402 -2.4825
  117MOL0     H15423  -3.271  10.846   6.700  1.7470  1.4649  0.2500
  117MOL0     H15424  -3.437  10.641   6.764  0.9140 -0.7820 -1.3705
  117MOL0     H15425  -3.490  10.800   6.732 -0.5583 -1.1130  0.3243
  117MOL0     H15426  -2.642  10.593   6.024 -2.2263 -0.1716  1.5027
  117MOL0     H15427  -2.405  10.541   5.980 -2.0922  1.5401 -0.3846
  117MOL0     H15428  -1.934  10.533   5.916 -2.1098 -0.3227 -0.3271
  117MOL0     H15429  -1.711  10.455   5.940  0.6689 -0.0247 -0.0904
  117MOL0     H15430   0.006   9.681   5.415  3.6766  0.7198  0.6723
  117MOL0     H15431   0.223   9.717   5.318  0.3312 -0.2460  0.0580
  117MOL0     H15432   0.635   9.638   5.071 -0.8507  0.2558  0.5325
  117MOL0     H15433   0.812   9.698   4.897  0.5841  0.6449  3.4956
  117MOL0     H15434   0.835   9.709   4.484 -2.1871  0.8140 -1.7282
  117MOL0     H15435   0.675   9.630   4.543 -0.1248 -1.8190  3.4755
  117MOL0     H15436   0.805   9.507   4.708 -1.3358 -2.8696 -1.1106
  117MOL0     H15437   0.876   9.469   4.551 -0.3032 -1.5293  1.4106
  117MOL0     H15438   0.984   9.667   4.759 -1.8229  0.4616 -0.0314
  117MOL0     H15439   1.030   9.674   4.592  0.4304  0.4923  0.0162
  117MOL0     H15440   1.166   9.516   4.757 -0.1489  0.2117  0.2366
  117MOL0     H15441   1.022   9.410   4.751  0.5311 -1.2293  0.1634
  117MOL0     H15442   1.190   9.249   4.425  1.7762  0.3202  0.2364
  117MOL0     H15443   0.520   9.872   4.655 -1.3212  2.3916  1.3850
  117MOL0     H15444   0.332   9.820   4.807 -0.1004 -1.5072 -1.8334
  118MOL0     O15445   0.308   4.561   6.711 -0.2290 -0.3538  0.1105
  118MOL0     C15446   0.347   4.631   6.807 -0.1495  0.4174 -0.3595
  118MOL0     O15447   0.273   4.722   6.877 -0.7968  0.9209 -0.1562
  118MOL0     C15448   0.157   4.770   6.823 -0.2246  0.5696  0.5652
  118MOL0     C15449   0.134   4.779   6.684 -0.7324  0.7970 -0.2317
  118MOL0     C15450   0.009   4.829   6.636  0.0906 -0.3524 -0.3313
  118MOL0     C15451  -0.094   4.873   6.724 -0.3534 -0.6926 -0.3338
  118MOL0     O15452  -0.217   4.912   6.682  0.1627 -0.1278  0.3458
  118MOL0     C15453  -0.328   4.942   6.777 -1.2669 -0.4455  0.1715
  118MOL0     C15454  -0.458   4.969   6.701 -0.1543 -0.5229  0.3116
  118MOL0     C15455  -0.580   4.970   6.795 -0.1342 -0.0352 -0.2696
  118MOL0     C15456  -0.698   5.019   6.708  1.0610 -0.0575 -0.2431
  118MOL0     C15457  -0.833   4.992   6.767 -0.1330  0.7788 -0.1839
  118MOL0     C15458  -0.865   5.078   6.892  0.2579  0.0606  0.6728
  118MOL0     C15459  -1.001   5.054   6.962  1.5879  0.3010  0.0392
  118MOL0     C15460  -0.993   4.917   7.036  0.5352  0.2106 -0.4724
  118MOL0     N15461  -1.134   4.875   7.075  0.0997  0.1398  0.0115
  118MOL0     C15462  -1.219   4.948   7.148 -0.1173 -0.5573 -0.2608
  118MOL0     C15463  -1.342   4.884   7.142  0.1824 -0.4015  1.1072
  118MOL0     C15464  -1.473   4.928   7.202  1.0530 -0.1772 -0.3279
  118MOL0     C15465  -1.525   4.853   7.326 -0.0815 -0.1687 -0.1401
  118MOL0     C15466  -1.645   4.912   7.393 -0.8445 -0.2659  0.2148
  118MOL0     C15467  -1.774   4.900   7.317 -0.2171  0.3278 -0.3594
  118MOL0     O15468  -1.812   4.764   7.330  1.1083 -0.5900 -0.5086
  118MOL0     C15469  -1.934   4.721   7.285 -0.7427 -0.4169 -0.1035
  118MOL0     C15470  -1.978   4.597   7.336 -0.3674 -0.3636  0.5363
  118MOL0     C15471  -2.097   4.544   7.285 -0.2692  0.0237 -0.1531
  118MOL0     C15472  -2.182   4.611   7.193 -0.2489  0.2132  0.4505
  118MOL0     C15473  -2.311   4.552   7.151 -0.7215 -0.6099  0.6274
  118MOL0     O15474  -2.370   4.466   7.230 -1.0972  0.2476 -0.1437
  118MOL0     C15475  -2.498   4.432   7.212  0.1703  0.8945 -0.6419
  118MOL0     C15476  -2.519   4.299   7.178  0.5193  0.2927 -0.2507
  118MOL0     C15477  -2.655   4.264   7.147 -0.0015  0.6836 -0.2021
  118MOL0     C15478  -2.765   4.348   7.155  0.0726 -0.6768 -0.4668
  118MOL0     O15479  -2.898   4.308   7.139 -0.4561 -0.4169 -0.1964
  118MOL0     C15480  -2.941   4.176   7.164 -1.0270 -0.3695  0.9733
  118MOL0     C15481  -3.094   4.180   7.169 -0.1535  0.4178 -0.3351
  118MOL0     C15482  -3.136   4.038   7.200  0.7880 -0.1858  0.3065
  118MOL0     C15483  -3.281   4.029   7.246  0.4344  0.5224 -0.1045
  118MOL0     C15484  -3.386   4.076   7.141 -0.5777  0.0956 -0.6733
  118MOL0     C15485  -3.534   4.013   7.157 -0.8281  0.1353  0.0571
  118MOL0     C15486  -3.589   4.048   7.290  0.4952 -0.2318 -1.0672
  118MOL0     C15487  -3.742   4.045   7.305  0.0515 -0.1337  0.7858
  118MOL0    Cl15488  -3.787   4.111   7.464  0.4640 -0.0348 -0.1166
  118MOL0     C15489  -2.733   4.480   7.186  0.3157 -0.6984 -0.5848
  118MOL0     C15490  -2.602   4.531   7.216  0.3261  0.2761 -0.2276
  118MOL0     O15491  -2.354   4.588   7.040  0.0552  0.9730  0.1909
  118MOL0     C15492  -2.146   4.744   7.154 -0.2996 -0.4813  0.5085
  118MOL0     C15493  -2.009   4.792   7.187  0.5479  1.0201  0.5922
  118MOL0     N15494  -1.326   4.780   7.048 -0.7113  0.5024  0.1586
  118MOL0     N15495  -1.205   4.781   7.005  0.3818  0.5328 -0.2639
  118MOL0     C15496  -0.070   4.863   6.859 -0.2011  0.2238 -0.1848
  118MOL0     C15497   0.055   4.813   6.910  0.1754 -0.3944 -0.0951
  118MOL0     C15498   0.496   4.606   6.840 -0.4636  0.4383 -0.3427
  118MOL0     C15499   0.585   4.540   6.756 -0.4776  0.4686 -0.2669
  118MOL0     C15500   0.722   4.521   6.781 -0.0413 -0.3121  0.2389
  118MOL0     C15501   0.781   4.571   6.896  0.5046  0.1797  0.3383
  118MOL0     O15502   0.909   4.544   6.924 -0.2022 -0.1994 -1.2786
  118MOL0     C15503   0.979   4.615   7.030  0.4284  0.4231  0.4786
  118MOL0     C15504   1.098   4.540   7.063 -0.0296  0.0667 -0.5022
  118MOL0     C15505   1.215   4.565   6.965  0.9278 -0.0490 -0.1265
  118MOL0     C15506   1.304   4.683   7.010 -0.4847  0.2752 -0.4925
  118MOL0     C15507   1.437   4.681   6.939 -0.1790  0.7066  0.5758
  118MOL0     C15508   1.558   4.688   6.907 -0.5708  0.8796 -0.3033
  118MOL0     C15509   0.699   4.649   6.965 -0.5731 -0.3977 -0.1347
  118MOL0     C15510   0.563   4.668   6.947  0.6861  0.0918  0.0104
  118MOL0     H15511   0.205   4.754   6.606 -1.1752 -3.0063  0.4051
  118MOL0     H15512  -0.011   4.835   6.529 -0.3655  0.0580 -0.2285
  118MOL0     H15513  -0.298   5.032   6.831  1.4496 -1.0523 -0.1751
  118MOL0     H15514  -0.330   4.856   6.846  4.6569 -1.5356 -0.5148
  118MOL0     H15515  -0.469   4.896   6.620  0.3145  2.8477 -3.0497
  118MOL0     H15516  -0.460   5.064   6.648 -1.7311 -0.0024  1.2387
  118MOL0     H15517  -0.568   5.030   6.885  0.4190  0.1279 -0.4480
  118MOL0     H15518  -0.601   4.868   6.830  0.6946 -0.7104 -1.6422
  118MOL0     H15519  -0.703   5.126   6.688 -3.0022  0.0699  0.5597
  118MOL0     H15520  -0.694   4.971   6.610 -0.5204 -1.3919  0.2811
  118MOL0     H15521  -0.837   4.885   6.793  2.9381 -0.2560 -3.2531
  118MOL0     H15522  -0.920   4.993   6.701 -1.7434 -3.5438  1.4311
  118MOL0     H15523  -0.857   5.179   6.851  0.8454 -0.8625 -1.6531
  118MOL0     H15524  -0.787   5.060   6.966  2.0138  2.2151 -0.5216
  118MOL0     H15525  -1.031   5.123   7.042  0.8784 -1.5921  1.4637
  118MOL0     H15526  -1.075   5.042   6.883 -0.4430 -0.9371  2.0325
  118MOL0     H15527  -0.927   4.922   7.123  0.0129 -1.7163  0.0749
  118MOL0     H15528  -0.958   4.837   6.971  0.0015 -2.1020  1.8808
  118MOL0     H15529  -1.190   5.032   7.210  0.9428 -2.1727  1.5208
  118MOL0     H15530  -1.548   4.924   7.122 -2.1243 -1.4260  2.4709
  118MOL0     H15531  -1.464   5.034   7.226  0.2797  0.0764 -1.0829
  118MOL0     H15532  -1.446   4.839   7.400  0.0115 -0.9755 -0.3855
  118MOL0     H15533  -1.548   4.754   7.285 -1.4977  0.7464 -1.6793
  118MOL0     H15534  -1.654   4.875   7.496 -1.5898  1.7453  0.9247
  118MOL0     H15535  -1.613   5.016   7.397  1.6527 -1.0017  0.9651
  118MOL0     H15536  -1.754   4.936   7.216  0.1097 -0.7621 -0.7009
  118MOL0     H15537  -1.844   4.971   7.363 -1.2277  0.7399 -2.4151
  118MOL0     H15538  -1.921   4.535   7.404 -0.3461 -1.4014 -0.3902
  118MOL0     H15539  -2.112   4.444   7.323  1.7605  0.3342  1.6223
  118MOL0     H15540  -2.436   4.231   7.162  0.4478  0.3033 -0.6985
  118MOL0     H15541  -2.681   4.165   7.112 -0.1054  0.8248 -0.5240
  118MOL0     H15542  -2.906   4.147   7.263  1.2362  1.9972  0.9939
  118MOL0     H15543  -2.896   4.099   7.101 -1.0561 -0.7535  1.4169
  118MOL0     H15544  -3.121   4.205   7.066  0.4120 -3.4811 -1.6070
  118MOL0     H15545  -3.130   4.255   7.240  1.8722  1.2517 -0.1326
  118MOL0     H15546  -3.071   4.002   7.280 -0.9534 -2.7346  0.6747
  118MOL0     H15547  -3.115   3.980   7.109  1.7878  0.2131  0.2722
  118MOL0     H15548  -3.298   3.921   7.251 -0.7122  0.6473 -0.8792
  118MOL0     H15549  -3.286   4.075   7.345  3.6431 -2.3494  1.5810
  118MOL0     H15550  -3.343   4.059   7.042 -1.1269 -0.6701 -0.7866
  118MOL0     H15551  -3.399   4.184   7.138 -0.7530  0.0825 -4.1009
  118MOL0     H15552  -3.531   3.904   7.148  2.5156  0.1406 -0.0049
  118MOL0     H15553  -3.606   4.049   7.083  2.6722  3.8248 -1.9424
  118MOL0     H15554  -3.547   3.984   7.369  0.0598  1.4673  0.6424
  118MOL0     H15555  -3.557   4.142   7.338 -0.3582  0.8750 -2.5656
  118MOL0     H15556  -3.764   3.939   7.288 -0.6738 -0.0963  1.4720
  118MOL0     H15557  -3.787   4.102   7.223  1.6831  1.9915  1.2746
  118MOL0     H15558  -2.812   4.554   7.185 -1.4244 -2.4695 -0.5125
  118MOL0     H15559  -2.577   4.634   7.240  0.8002 -0.2211  1.6012
  118MOL0     H15560  -2.211   4.806   7.093 -2.5114 -0.4745  2.7243
  118MOL0     H15561  -1.989   4.893   7.152 -1.2913  0.8693 -1.0082
  118MOL0     H15562  -0.141   4.881   6.939  3.3138  3.1667  2.6293
  118MOL0     H15563   0.068   4.799   7.016  0.4997  3.0625  0.4463
  118MOL0     H15564   0.546   4.498   6.664  2.4808  1.3590 -2.0863
  118MOL0     H15565   0.786   4.461   6.717 -0.7684 -1.9678  1.0041
  118MOL0     H15566   0.919   4.626   7.121 -0.5722  2.5976 -0.3776
  118MOL0     H15567   1.011   4.717   7.005  1.2085 -0.2785 -1.5619
  118MOL0     H15568   1.133   4.565   7.164 -1.3707  0.8744 -0.2084
  118MOL0     H15569   1.078   4.433   7.078  0.3075  0.2618  1.6838
  118MOL0     H15570   1.171   4.582   6.867 -0.6373  3.1974  0.9717
  118MOL0     H15571   1.284   4.481   6.954  1.3311  0.6328 -6.1584
  118MOL0     H15572   1.261   4.781   6.987  3.9796  1.8122 -3.3180
  118MOL0     H15573   1.320   4.682   7.118 -2.0885 -1.1110 -0.2179
  118MOL0     H15574   1.656   4.677   6.865 -0.1358 -3.2195  1.3664
  118MOL0     H15575   0.735   4.700   7.054 -2.7641 -0.3525  0.8069
  118MOL0     H15576   0.508   4.738   7.009  1.5417 -0.0575  0.9761
  119MOL0     O15577   8.466   6.056   1.507  0.0006  0.4378 -0.5870
  119MOL0     C15578   8.518   6.087   1.400 -0.7992 -0.1638  0.0443
  119MOL0     O15579   8.453   6.116   1.288 -0.4428 -0.0531 -0.1178
  119MOL0     C15580   8.322   6.089   1.281  0.5164 -0.1996 -0.5083
  119MOL0     C15581   8.273   5.960   1.296 -0.1158 -0.3748 -0.1166
  119MOL0     C15582   8.130   5.944   1.315 -0.3454 -0.1578  0.6901
  119MOL0     C15583   8.037   6.053   1.313  0.3873  0.2424 -0.1019
  119MOL0     O15584   7.898   6.039   1.338 -0.0702 -0.0212  0.3710
  119MOL0     C15585   7.843   5.916   1.395  0.3820  0.0337  0.8739
  119MOL0     C15586   7.691   5.920   1.388 -0.4517 -1.1842 -0.3430
  119MOL0     C15587   7.635   5.813   1.481  0.1711  0.4389  0.0782
  119MOL0     C15588   7.487   5.802   1.452  0.6669 -0.5714 -0.0931
  119MOL0     C15589   7.415   5.669   1.483 -0.6788 -0.1623 -0.0304
  119MOL0     C15590   7.265   5.660   1.471  0.8998 -0.2462 -0.7538
  119MOL0     C15591   7.202   5.529   1.530  0.0475  0.4188  0.4196
  119MOL0     C15592   7.049   5.522   1.552 -0.9042 -0.2315 -0.5657
  119MOL0     N15593   6.974   5.517   1.428  0.9662 -0.6735 -0.3103
  119MOL0     C15594   6.835   5.490   1.424 -0.4826 -0.3277 -0.0755
  119MOL0     C15595   6.818   5.442   1.298  0.7334 -0.5461 -0.1211
  119MOL0     C15596   6.681   5.396   1.261 -0.3147  0.3195  0.2825
  119MOL0     C15597   6.572   5.503   1.260 -0.3808  0.2324 -0.0534
  119MOL0     C15598   6.433   5.452   1.243 -0.3708 -0.5847 -0.0790
  119MOL0     C15599   6.384   5.400   1.377 -0.2005  0.4629  0.1077
  119MOL0     O15600   6.320   5.502   1.449  0.2922  0.4157  0.1002
  119MOL0     C15601   6.189   5.539   1.424 -0.4607  0.3182 -0.2048
  119MOL0     C15602   6.125   5.613   1.521 -0.0963  0.2234 -0.1283
  119MOL0     C15603   5.989   5.650   1.517 -0.3025  0.2969 -0.4756
  119MOL0     C15604   5.914   5.619   1.402 -0.1994 -0.8300  0.4844
  119MOL0     C15605   5.771   5.666   1.377  0.3758  0.1765  0.0295
  119MOL0     O15606   5.704   5.622   1.263 -0.6399 -0.7831 -0.2252
  119MOL0     C15607   5.577   5.662   1.233  0.6954 -0.0529 -0.1434
  119MOL0     C15608   5.500   5.571   1.153  0.2634  0.1970 -1.4318
  119MOL0     C15609   5.366   5.592   1.122  0.1580 -0.0031  0.0695
  119MOL0     C15610   5.299   5.712   1.163 -0.2587 -0.6395 -0.3574
  119MOL0     O15611   5.160   5.741   1.148  1.0885 -0.3040  0.3969
  119MOL0     C15612   5.085   5.658   1.062  0.0510  0.3203 -0.4655
  119MOL0     C15613   4.936   5.713   1.060 -0.5757  0.4493 -0.1574
  119MOL0     C15614   4.840   5.617   0.977 -0.4636 -0.3579 -0.4112
  119MOL0     C15615   4.699   5.678   0.973 -0.2702 -0.8089 -0.2907
  119MOL0     C15616   4.586   5.605   0.895  0.1798  0.3891 -0.2926
  119MOL0     C15617   4.589   5.611   0.735 -0.2526 -0.0487 -0.7342
  119MOL0     C15618   4.473   5.533   0.664  0.1754  0.6767 -0.6173
  119MOL0     C15619   4.468   5.373   0.655  0.1063 -0.4572  0.1716
  119MOL0    Cl15620   4.631   5.308   0.627 -0.0811 -0.0022  0.4175
  119MOL0     C15621   5.370   5.804   1.241 -0.0699 -0.2238 -0.5795
  119MOL0     C15622   5.507   5.782   1.271  0.1799  0.3083  0.4301
  119MOL0     O15623   5.713   5.724   1.471 -0.2905 -0.4869  0.2124
  119MOL0     C15624   5.986   5.548   1.304 -0.1072 -1.1651  0.6172
  119MOL0     C15625   6.125   5.513   1.308  0.1630 -0.9479 -0.4997
  119MOL0     N15626   6.937   5.440   1.229 -0.3430  0.6260 -0.4590
  119MOL0     N15627   7.028   5.484   1.308  0.1110  0.6882  0.8403
  119MOL0     C15628   8.094   6.181   1.282 -0.4713 -0.2315 -0.5335
  119MOL0     C15629   8.232   6.195   1.276  0.8730  0.7699  0.7578
  119MOL0     C15630   8.666   6.087   1.405  0.0161 -0.0680 -0.4533
  119MOL0     C15631   8.731   6.056   1.530  0.2047 -0.4484  0.0953
  119MOL0     C15632   8.868   6.042   1.533 -0.1195 -0.2067 -0.5067
  119MOL0     C15633   8.940   6.061   1.420 -0.0974  0.0444  0.0181
  119MOL0     O15634   9.076   6.049   1.440 -0.0294 -0.0103  0.5126
  119MOL0     C15635   9.155   6.076   1.328  0.6088 -0.2997 -0.3904
  119MOL0     C15636   9.307   6.061   1.358 -0.3627  0.6302  0.4414
  119MOL0     C15637   9.360   5.921   1.327  0.3466  0.7844 -0.3690
  119MOL0     C15638   9.511   5.904   1.298  0.4373  0.0546  0.1457
  119MOL0     C15639   9.523   5.776   1.229 -0.5968 -0.6844  0.0144
  119MOL0     C15640   9.523   5.683   1.150  0.2012 -0.2634  0.0827
  119MOL0     C15641   8.883   6.073   1.298 -0.3936 -0.1540 -0.8957
  119MOL0     C15642   8.748   6.088   1.292  1.1746  0.4435  0.1082
  119MOL0     H15643   8.350   5.885   1.314  0.5495  0.4627  0.6234
  119MOL0     H15644   8.096   5.842   1.326  0.5263 -0.3826  1.2811
  119MOL0     H15645   7.883   5.901   1.496 -1.5597 -0.4134  1.6341
  119MOL0     H15646   7.874   5.833   1.332 -1.9561 -0.7309  0.6154
  119MOL0     H15647   7.653   5.906   1.286 -2.8441  1.8010  0.0006
  119MOL0     H15648   7.664   6.014   1.436 -1.8070  0.9093 -4.7108
  119MOL0     H15649   7.655   5.822   1.589 -1.3551 -2.2574  0.6584
  119MOL0     H15650   7.674   5.717   1.446 -1.1829 -0.1907  0.2492
  119MOL0     H15651   7.435   5.878   1.511  1.9267 -0.8951  1.5094
  119MOL0     H15652   7.473   5.809   1.344 -0.7436  1.8393  0.1798
  119MOL0     H15653   7.444   5.648   1.586  1.9300  0.5035 -0.5326
  119MOL0     H15654   7.457   5.589   1.420  2.6124  2.0102 -0.9094
  119MOL0     H15655   7.240   5.676   1.365  0.3318 -0.9661 -0.7341
  119MOL0     H15656   7.216   5.741   1.525 -0.5652  0.0753 -2.4665
  119MOL0     H15657   7.231   5.439   1.475 -0.9666  0.5404 -0.3368
  119MOL0     H15658   7.247   5.513   1.628  1.7757 -0.5040 -0.4614
  119MOL0     H15659   7.026   5.609   1.614  1.3325 -1.4801  2.1946
  119MOL0     H15660   7.032   5.431   1.609 -2.5263  0.4406  0.0520
  119MOL0     H15661   6.757   5.493   1.499 -1.1230  1.3762 -0.7632
  119MOL0     H15662   6.654   5.313   1.326  0.0137 -0.1867 -0.2220
  119MOL0     H15663   6.690   5.347   1.164 -0.4046 -0.8327  0.8431
  119MOL0     H15664   6.602   5.558   1.170 -0.8875 -1.2948 -1.1981
  119MOL0     H15665   6.582   5.566   1.348 -0.5611  1.3240 -0.7930
  119MOL0     H15666   6.381   5.543   1.212  0.7272 -1.2068 -4.4460
  119MOL0     H15667   6.430   5.383   1.158 -0.3509 -1.2100  0.4229
  119MOL0     H15668   6.461   5.355   1.440 -1.6546  0.4101  1.9275
  119MOL0     H15669   6.315   5.319   1.355  1.8109 -1.6139  0.9448
  119MOL0     H15670   6.171   5.624   1.618  2.1639 -1.6935 -0.8830
  119MOL0     H15671   5.931   5.682   1.603 -2.9425 -2.9136 -0.8531
  119MOL0     H15672   5.544   5.476   1.126  0.1368 -1.4097  3.2437
  119MOL0     H15673   5.314   5.518   1.063 -1.1320 -0.6457  1.9213
  119MOL0     H15674   5.082   5.553   1.095  0.9284  1.1906  2.8149
  119MOL0     H15675   5.132   5.658   0.964 -0.7702  0.0727 -0.8670
  119MOL0     H15676   4.937   5.812   1.013 -1.8236  0.3985 -0.3054
  119MOL0     H15677   4.880   5.718   1.154 -1.3262 -0.6303 -0.5295
  119MOL0     H15678   4.837   5.523   1.033 -2.0979  0.0299  0.2141
  119MOL0     H15679   4.891   5.606   0.881 -0.9519  1.0240 -0.8434
  119MOL0     H15680   4.662   5.694   1.075 -1.2576 -2.6722 -0.3120
  119MOL0     H15681   4.705   5.773   0.919  0.6965 -0.0578  1.0745
  119MOL0     H15682   4.487   5.632   0.933 -0.8342 -0.8015 -1.9532
  119MOL0     H15683   4.609   5.502   0.925  1.6927  0.8792  0.3255
  119MOL0     H15684   4.688   5.581   0.699 -1.0845 -1.4327 -1.9485
  119MOL0     H15685   4.586   5.717   0.709  1.3196 -0.1501 -1.4481
  119MOL0     H15686   4.381   5.581   0.700  0.0523  0.0712 -0.1162
  119MOL0     H15687   4.476   5.562   0.558 -2.0721 -0.1153 -0.9633
  119MOL0     H15688   4.395   5.332   0.586 -2.0948 -0.1985  2.2074
  119MOL0     H15689   4.447   5.325   0.751 -1.4331  3.3194  1.9068
  119MOL0     H15690   5.309   5.883   1.284  0.4586 -0.4649  0.6567
  119MOL0     H15691   5.558   5.862   1.325  0.5721 -0.7834  1.7133
  119MOL0     H15692   5.929   5.520   1.215  0.1376  1.2749 -0.3782
  119MOL0     H15693   6.171   5.464   1.223 -0.8429  0.4697 -1.9380
  119MOL0     H15694   8.036   6.270   1.263  2.2952  1.6392 -0.9126
  119MOL0     H15695   8.279   6.293   1.273 -1.1232  1.8693  2.5008
  119MOL0     H15696   8.671   6.041   1.619  0.9622 -0.6620  0.5782
  119MOL0     H15697   8.908   6.035   1.634 -0.2390  0.0422 -0.4413
  119MOL0     H15698   9.144   6.179   1.291 -0.2456 -0.5812 -0.9218
  119MOL0     H15699   9.133   6.008   1.246  3.8896 -0.6192 -1.1615
  119MOL0     H15700   9.357   6.131   1.291 -0.1722 -0.6050 -0.7490
  119MOL0     H15701   9.336   6.079   1.462  0.4815  1.6163  0.0590
  119MOL0     H15702   9.314   5.877   1.238  1.6611 -0.6892 -0.3695
  119MOL0     H15703   9.328   5.865   1.415 -1.9817  1.2190 -0.8672
  119MOL0     H15704   9.537   5.982   1.226  0.8423  0.0711  0.3084
  119MOL0     H15705   9.574   5.910   1.387  1.4530 -2.5590 -0.3055
  119MOL0     H15706   9.512   5.598   1.086 -1.8715 -0.2532  0.3517
  119MOL0     H15707   8.925   6.087   1.199 -1.3700  0.6698 -1.2120
  119MOL0     H15708   8.709   6.104   1.192 -0.5822  0.3008  0.7265
  120MOL0     O15709   5.270   2.924   6.613  0.0056  0.2772  0.1794
  120MOL0     C15710   5.304   3.046   6.619 -0.5395  0.0380 -0.2900
  120MOL0     O15711   5.215   3.144   6.620 -0.4625 -0.4807  0.7886
  120MOL0     C15712   5.079   3.112   6.636 -1.2575  0.7006 -0.1496
  120MOL0     C15713   5.028   3.090   6.764  0.0220 -1.1771 -0.1739
  120MOL0     C15714   4.886   3.077   6.785 -0.1338  0.1458  0.0673
  120MOL0     C15715   4.806   3.065   6.673  0.7176  0.4903  0.9268
  120MOL0     O15716   4.678   3.026   6.702  0.6337  0.1631 -0.0303
  120MOL0     C15717   4.580   3.131   6.675  0.0531 -0.1435 -0.2319
  120MOL0     C15718   4.449   3.085   6.729 -0.3447  0.0949 -0.6536
  120MOL0     C15719   4.344   3.192   6.751 -1.2570 -0.5654  0.1818
  120MOL0     C15720   4.218   3.130   6.806  0.1927  0.5692  0.7301
  120MOL0     C15721   4.126   3.210   6.894  0.2623 -0.2236  1.0365
  120MOL0     C15722   3.993   3.158   6.905 -0.2134 -1.1387 -0.3122
  120MOL0     C15723   3.901   3.261   6.965  0.1603  0.4169  0.2152
  120MOL0     C15724   3.776   3.201   7.027 -0.0058  0.7363  0.4321
  120MOL0     N15725   3.700   3.137   6.916  0.2904  0.6724 -0.5624
  120MOL0     C15726   3.672   2.999   6.904  0.2092 -0.5421 -0.5557
  120MOL0     C15727   3.612   2.984   6.784  0.1123 -0.1625 -0.0232
  120MOL0     C15728   3.541   2.860   6.730  1.1607 -0.4615  0.5043
  120MOL0     C15729   3.397   2.861   6.787  0.0979 -0.6623  0.3580
  120MOL0     C15730   3.316   2.976   6.717 -0.3777  0.0215 -0.8594
  120MOL0     C15731   3.176   2.991   6.769  0.3544 -0.8664  0.5319
  120MOL0     O15732   3.119   2.862   6.801 -1.1432  0.3425 -0.3954
  120MOL0     C15733   3.004   2.860   6.874 -1.5354  0.6308  0.0252
  120MOL0     C15734   2.968   2.735   6.932 -0.6435 -0.0204 -0.4880
  120MOL0     C15735   2.847   2.718   7.002 -0.5201 -1.1661 -0.6338
  120MOL0     C15736   2.758   2.825   7.015 -0.5369  0.7151 -0.0750
  120MOL0     C15737   2.624   2.813   7.088  0.6645  0.1618  0.6214
  120MOL0     O15738   2.549   2.928   7.110  0.5235 -0.1343 -0.4336
  120MOL0     C15739   2.424   2.925   7.159  0.5404 -0.5308 -0.2156
  120MOL0     C15740   2.395   3.004   7.269 -0.0624 -1.2517  0.3942
  120MOL0     C15741   2.266   3.010   7.322 -0.1365 -0.8870  0.9754
  120MOL0     C15742   2.161   2.944   7.256  0.0023 -0.1928 -1.5311
  120MOL0     O15743   2.034   2.977   7.304  0.1050  0.3909  0.4298
  120MOL0     C15744   1.926   2.885   7.276 -0.5479 -0.1995 -0.2262
  120MOL0     C15745   1.847   2.896   7.410 -0.3974  0.1954 -0.1110
  120MOL0     C15746   1.719   2.810   7.412 -0.3761 -0.3982 -0.1720
  120MOL0     C15747   1.644   2.848   7.543  0.1770 -0.4485  0.8778
  120MOL0     C15748   1.537   2.740   7.565  0.5735 -0.0481 -0.4306
  120MOL0     C15749   1.456   2.762   7.691 -0.4530 -1.4977  0.1088
  120MOL0     C15750   1.362   2.647   7.716 -0.3146  0.9852 -0.4197
  120MOL0     C15751   1.237   2.681   7.804 -0.5832 -0.2453 -0.2341
  120MOL0    Cl15752   1.106   2.711   7.687 -0.4880 -0.1691 -0.2866
  120MOL0     C15753   2.181   2.876   7.142 -0.0281 -0.7023 -0.3088
  120MOL0     C15754   2.313   2.861   7.097 -0.6245  0.1458 -1.3694
  120MOL0     O15755   2.586   2.701   7.116 -1.0760 -0.7565  0.3728
  120MOL0     C15756   2.806   2.950   6.971  0.0613 -1.2953 -0.1740
  120MOL0     C15757   2.921   2.965   6.891  0.8994  0.4432 -0.4347
  120MOL0     N15758   3.618   3.109   6.720  0.1095  0.1091 -0.3378
  120MOL0     N15759   3.657   3.192   6.803 -0.1545 -0.2427 -0.6095
  120MOL0     C15760   4.859   3.078   6.547  0.0144  0.7791 -0.1462
  120MOL0     C15761   4.997   3.110   6.524 -0.1750  0.2598 -0.0288
  120MOL0     C15762   5.455   3.064   6.627 -0.0442  0.3580 -0.3115
  120MOL0     C15763   5.548   2.961   6.646 -0.5007 -0.6625  0.5989
  120MOL0     C15764   5.687   2.994   6.657 -0.2574  0.2823 -0.8757
  120MOL0     C15765   5.734   3.126   6.635  0.4258  0.7622  1.0609
  120MOL0     O15766   5.862   3.155   6.652 -0.7652 -0.2501  0.3680
  120MOL0     C15767   5.938   3.196   6.539  0.4753 -0.6732  0.4003
  120MOL0     C15768   6.041   3.093   6.493  0.4558  0.5592  0.3155
  120MOL0     C15769   6.132   3.058   6.610  0.4965  0.5160 -0.0459
  120MOL0     C15770   6.208   3.174   6.674  0.3840 -0.2294  0.0911
  120MOL0     C15771   6.305   3.236   6.580 -0.1936 -0.3158  0.4685
  120MOL0     C15772   6.371   3.292   6.496 -0.1517  0.5358 -0.1809
  120MOL0     C15773   5.637   3.223   6.618 -0.1423 -0.8992 -0.3840
  120MOL0     C15774   5.503   3.197   6.606  0.8994 -0.1119  0.9973
  120MOL0     H15775   5.094   3.082   6.850 -0.1944  0.1313  0.1327
  120MOL0     H15776   4.836   3.055   6.879 -1.1632 -0.4153 -0.5756
  120MOL0     H15777   4.569   3.154   6.568  0.8484 -0.1105 -0.3121
  120MOL0     H15778   4.619   3.224   6.717  0.0687 -0.3874  0.3071
  120MOL0     H15779   4.474   3.038   6.825  1.6609 -1.4078 -1.8271
  120MOL0     H15780   4.413   3.011   6.656  0.7232 -1.7404  0.5909
  120MOL0     H15781   4.323   3.234   6.652 -2.1998  0.6277  0.8535
  120MOL0     H15782   4.382   3.265   6.823  0.2509 -0.9912 -0.1568
  120MOL0     H15783   4.165   3.092   6.718  1.4809  1.6060 -0.5386
  120MOL0     H15784   4.252   3.039   6.856 -1.3572  0.2099  1.1751
  120MOL0     H15785   4.126   3.305   6.840 -0.5777 -1.2780 -0.9238
  120MOL0     H15786   4.167   3.232   6.993 -1.8321  3.0098  1.3574
  120MOL0     H15787   3.990   3.065   6.964 -0.6954 -1.1304 -0.3129
  120MOL0     H15788   3.961   3.126   6.806 -0.8476  3.3319 -1.7777
  120MOL0     H15789   3.957   3.316   7.041 -0.3264 -2.8779  3.2678
  120MOL0     H15790   3.869   3.329   6.886 -0.5365 -0.4686 -0.2948
  120MOL0     H15791   3.717   3.269   7.090 -1.3400 -0.1166  0.1417
  120MOL0     H15792   3.812   3.128   7.100  2.9144 -0.4141 -1.9439
  120MOL0     H15793   3.708   2.917   6.965  0.2961 -1.0038 -1.2217
  120MOL0     H15794   3.591   2.772   6.772  0.1130 -2.5551 -2.2517
  120MOL0     H15795   3.543   2.849   6.621 -3.4919 -1.5534  0.3123
  120MOL0     H15796   3.392   2.891   6.892 -1.4993  1.1222 -0.1748
  120MOL0     H15797   3.345   2.766   6.780  1.5956 -1.3568 -3.2677
  120MOL0     H15798   3.358   3.075   6.736  3.9673 -1.7167 -0.2266
  120MOL0     H15799   3.318   2.960   6.609  0.0803 -3.5368 -0.4596
  120MOL0     H15800   3.119   3.036   6.687  3.1377 -0.1059 -1.1221
  120MOL0     H15801   3.175   3.054   6.859 -1.0527 -0.7082  0.4266
  120MOL0     H15802   3.038   2.653   6.919 -3.1108 -2.1392 -1.1056
  120MOL0     H15803   2.832   2.617   7.040  2.7245 -2.3781 -2.1388
  120MOL0     H15804   2.475   3.054   7.323 -1.4233  1.3132  0.2242
  120MOL0     H15805   2.249   3.071   7.411 -0.6596  1.7678 -0.8279
  120MOL0     H15806   1.960   2.781   7.273 -0.2479 -0.1294  0.5272
  120MOL0     H15807   1.866   2.911   7.188 -1.9527  0.4110  0.8801
  120MOL0     H15808   1.828   3.003   7.421  0.3487  0.1525  1.9841
  120MOL0     H15809   1.911   2.877   7.497 -0.9589  2.2318  0.7980
  120MOL0     H15810   1.748   2.704   7.415 -0.0926 -0.3333 -0.5023
  120MOL0     H15811   1.659   2.838   7.325  0.6155  2.8906  0.1050
  120MOL0     H15812   1.713   2.852   7.627  1.6467 -2.0497 -0.1785
  120MOL0     H15813   1.591   2.943   7.532  2.6511  1.0702  1.5278
  120MOL0     H15814   1.590   2.645   7.570 -0.6066 -0.7586 -1.0114
  120MOL0     H15815   1.458   2.738   7.490 -0.6126  2.3346  0.6445
  120MOL0     H15816   1.395   2.849   7.664 -0.7790 -2.2247 -1.6313
  120MOL0     H15817   1.530   2.765   7.771  0.3334  1.1821 -0.6033
  120MOL0     H15818   1.334   2.604   7.620 -0.1251  1.7042 -0.8054
  120MOL0     H15819   1.414   2.567   7.769 -1.9251 -1.5303 -2.4225
  120MOL0     H15820   1.261   2.761   7.876  1.6584 -1.0089 -0.0389
  120MOL0     H15821   1.209   2.589   7.856 -2.7248 -1.2231 -2.9182
  120MOL0     H15822   2.096   2.831   7.091 -1.3144  3.3156 -2.0653
  120MOL0     H15823   2.329   2.814   7.001 -5.3613  3.3631 -4.1491
  120MOL0     H15824   2.748   3.037   6.999 -0.2355 -2.0176  1.5782
  120MOL0     H15825   2.945   3.065   6.854  2.2722 -0.2864 -1.6044
  120MOL0     H15826   4.794   3.070   6.460 -0.5554  4.0025 -0.1448
  120MOL0     H15827   5.024   3.127   6.421 -2.6169  2.4702 -0.3895
  120MOL0     H15828   5.513   2.860   6.665 -0.0616 -0.7905  0.7317
  120MOL0     H15829   5.752   2.917   6.696 -0.7080  1.8945  3.5563
  120MOL0     H15830   5.984   3.287   6.579  0.2020 -0.6792  0.7255
  120MOL0     H15831   5.872   3.223   6.456 -3.3707  0.4370  3.5037
  120MOL0     H15832   5.985   3.004   6.461  0.1316 -0.0286  2.3263
  120MOL0     H15833   6.104   3.136   6.416  0.7854 -1.0512 -0.3547
  120MOL0     H15834   6.195   2.978   6.572  0.8536  1.2089 -0.9539
  120MOL0     H15835   6.066   3.018   6.688 -0.7957  1.6051 -0.5420
  120MOL0     H15836   6.136   3.247   6.712  0.7954 -0.4784  1.3951
  120MOL0     H15837   6.264   3.148   6.764 -0.4991 -0.7410  0.5116
  120MOL0     H15838   6.438   3.344   6.431  1.0486  0.0591  0.6361
  120MOL0     H15839   5.666   3.327   6.615  0.2802 -1.0332 -2.5027
  120MOL0     H15840   5.435   3.279   6.586 -1.5417 -1.1941  3.9659
  121MOL0     O15841  10.974   9.501  10.415  0.0625 -0.2127 -0.1791
  121MOL0     C15842  10.933   9.386  10.437 -0.1824  0.7731  0.5366
  121MOL0     O15843  10.801   9.354  10.445  0.7921  0.4898  0.3515
  121MOL0     C15844  10.696   9.433  10.404 -0.9332 -0.9110  1.0855
  121MOL0     C15845  10.702   9.532  10.296  0.8100  0.0510 -0.5300
  121MOL0     C15846  10.585   9.613  10.268  0.5662 -0.0554  0.8373
  121MOL0     C15847  10.461   9.592  10.334  0.2391  0.1517  0.1402
  121MOL0     O15848  10.352   9.670  10.316  0.1883 -0.6931 -0.0414
  121MOL0     C15849  10.285   9.658  10.188 -0.1211  0.5270  0.4723
  121MOL0     C15850  10.130   9.674  10.192 -1.3154 -0.5122  0.4667
  121MOL0     C15851  10.100   9.793  10.284 -0.1036 -0.0376 -0.3266
  121MOL0     C15852   9.946   9.819  10.278  0.7463  0.7014 -0.0395
  121MOL0     C15853   9.868   9.758  10.398 -0.2572  0.2148  0.0735
  121MOL0     C15854   9.743   9.834  10.434 -0.2502  0.4080  1.5533
  121MOL0     C15855   9.637   9.810  10.330  0.7300  0.2195  0.1733
  121MOL0     C15856   9.499   9.885  10.371 -0.3124 -1.0562  0.9557
  121MOL0     N15857   9.395   9.809  10.453  0.2039  0.5196  0.3386
  121MOL0     C15858   9.276   9.760  10.396  0.4061  0.2045 -0.0735
  121MOL0     C15859   9.198   9.720  10.509  0.5762  0.4215  0.3129
  121MOL0     C15860   9.054   9.670  10.507 -0.5984 -0.8924 -0.3232
  121MOL0     C15861   8.952   9.777  10.455 -0.9084  0.0307 -0.1935
  121MOL0     C15862   8.815   9.707  10.434  0.2808 -0.4809 -0.3518
  121MOL0     C15863   8.706   9.812  10.470  0.7304 -0.3961 -0.1274
  121MOL0     O15864   8.584   9.736  10.447 -0.0757 -0.1736  0.5083
  121MOL0     C15865   8.461   9.796  10.469 -0.1839  0.4843 -0.0889
  121MOL0     C15866   8.350   9.724  10.428 -0.7245  0.7590  0.7009
  121MOL0     C15867   8.221   9.770  10.454  0.2647 -0.1160  0.4819
  121MOL0     C15868   8.204   9.899  10.510 -0.5422  0.1917 -0.8822
  121MOL0     C15869   8.071   9.963  10.515  0.0599 -0.2261 -0.0401
  121MOL0     O15870   7.964   9.902  10.453  0.0028  0.9059 -0.0763
  121MOL0     C15871   7.837   9.956  10.480  0.0626  0.3659 -0.5864
  121MOL0     C15872   7.792  10.086  10.453  0.4506 -0.2348 -0.2361
  121MOL0     C15873   7.654  10.114  10.466  0.4996 -0.6072  0.4711
  121MOL0     C15874   7.562  10.016  10.503  0.1998 -0.0335 -0.2158
  121MOL0     O15875   7.431  10.038  10.539  0.2608  0.2773 -0.7702
  121MOL0     C15876   7.372  10.177  10.525  0.4162  0.2264 -1.0488
  121MOL0     C15877   7.236  10.188  10.591  0.2230  0.3323  0.2160
  121MOL0     C15878   7.144  10.082  10.545  0.4827  0.8406  0.5227
  121MOL0     C15879   7.005  10.103  10.587  0.1395 -0.1127 -0.7123
  121MOL0     C15880   6.934   9.968  10.596 -0.8797 -0.5913 -0.3498
  121MOL0     C15881   6.894   9.903  10.458  0.5170 -0.0524  0.1892
  121MOL0     C15882   6.785   9.791  10.466  0.5455 -0.6607 -0.8889
  121MOL0     C15883   6.771   9.728  10.328 -0.0549 -0.7465 -0.3716
  121MOL0    Cl15884   6.594   9.652  10.329 -0.2733  0.1082  0.3076
  121MOL0     C15885   7.609   9.885  10.533 -1.0022  0.8584  0.0236
  121MOL0     C15886   7.749   9.858  10.526 -0.0730 -0.7830 -0.2876
  121MOL0     O15887   8.060  10.051  10.594 -0.7405  0.0681  0.4424
  121MOL0     C15888   8.320   9.983  10.546 -0.5166  0.6104 -0.3536
  121MOL0     C15889   8.447   9.924  10.521  0.6311  1.3545  0.1037
  121MOL0     N15890   9.280   9.738  10.620 -0.6999  0.3574 -0.2623
  121MOL0     N15891   9.397   9.782  10.582  0.0108  0.7201  0.2552
  121MOL0     C15892  10.454   9.483  10.427 -0.5351  0.2703 -0.0831
  121MOL0     C15893  10.569   9.408  10.462  0.6982  0.0668  0.6987
  121MOL0     C15894  11.041   9.286  10.456 -0.5723  0.4835  0.3158
  121MOL0     C15895  10.998   9.153  10.455  0.2109  0.0208 -0.1076
  121MOL0     C15896  11.104   9.056  10.443  0.3705 -0.6318 -0.0710
  121MOL0     C15897  11.236   9.094  10.445  0.1739  0.2892  0.0997
  121MOL0     O15898  11.338   9.002  10.427 -0.1081 -0.6976  0.3609
  121MOL0     C15899  11.326   8.867  10.475  0.6225 -0.1298  0.2708
  121MOL0     C15900  11.441   8.777  10.443 -0.6463  0.7647  0.5769
  121MOL0     C15901  11.465   8.757  10.287 -0.4780 -0.3373 -0.6150
  121MOL0     C15902  11.606   8.705  10.244  0.4026 -0.1235  0.0883
  121MOL0     C15903  11.628   8.570  10.293  0.2420 -0.5122 -0.3011
  121MOL0     C15904  11.637   8.455  10.332  0.3770  1.1480 -0.2200
  121MOL0     C15905  11.268   9.223  10.456 -0.4675 -0.0149  0.0084
  121MOL0     C15906  11.178   9.324  10.457  0.3905 -0.4909 -0.3825
  121MOL0     H15907  10.796   9.548  10.244 -0.1969  1.5096 -1.9979
  121MOL0     H15908  10.584   9.694  10.195  2.2143 -0.5971  0.1665
  121MOL0     H15909  10.297   9.566  10.131 -6.9101 -0.7283  0.2428
  121MOL0     H15910  10.318   9.748  10.136 -0.5619  1.8459  2.3664
  121MOL0     H15911  10.076   9.591  10.239  0.1389 -2.0331 -0.4389
  121MOL0     H15912  10.094   9.689  10.090 -0.7630  0.6027  0.4218
  121MOL0     H15913  10.151   9.887  10.260  1.7406  0.0067  3.1274
  121MOL0     H15914  10.116   9.773  10.390 -1.4384  1.3872  0.1893
  121MOL0     H15915   9.930   9.927  10.286  1.8116  0.8936 -0.3150
  121MOL0     H15916   9.907   9.789  10.180  1.8745 -0.9456 -0.0221
  121MOL0     H15917   9.925   9.758  10.491  1.8768  0.4099 -1.1706
  121MOL0     H15918   9.849   9.653  10.375 -0.5360  0.3300 -0.2281
  121MOL0     H15919   9.761   9.941  10.454 -0.2088  0.4752  1.1580
  121MOL0     H15920   9.708   9.795  10.530 -0.6511 -3.1770  0.0831
  121MOL0     H15921   9.670   9.833  10.228  2.5441 -0.1908  0.6377
  121MOL0     H15922   9.607   9.705  10.335  0.5258  0.2586 -0.1691
  121MOL0     H15923   9.460   9.907  10.271  1.1899  0.5094  0.6632
  121MOL0     H15924   9.502   9.983  10.419 -2.1154 -0.8464  0.7020
  121MOL0     H15925   9.249   9.768  10.291  0.7005 -1.0401 -0.2652
  121MOL0     H15926   9.023   9.635  10.606 -3.3157 -1.1558 -1.1988
  121MOL0     H15927   9.033   9.582  10.445  0.3264  1.5588 -4.5509
  121MOL0     H15928   8.984   9.820  10.360 -0.6073  1.6167  0.5820
  121MOL0     H15929   8.951   9.855  10.533  1.2662 -0.5276  0.4644
  121MOL0     H15930   8.802   9.675  10.331 -0.2587 -2.4601  0.2893
  121MOL0     H15931   8.818   9.620  10.501  0.8031 -1.4050 -1.5483
  121MOL0     H15932   8.714   9.905  10.412  2.7947  0.1127  0.8499
  121MOL0     H15933   8.703   9.844  10.575  0.9832  1.9681 -0.7814
  121MOL0     H15934   8.370   9.633  10.373  2.2319  2.4745 -1.2958
  121MOL0     H15935   8.141   9.707  10.415  2.4822 -2.3045 -0.8077
  121MOL0     H15936   7.859  10.167  10.429 -1.8138  2.5181  1.9656
  121MOL0     H15937   7.624  10.217  10.452  0.2609 -0.4924  1.7035
  121MOL0     H15938   7.373  10.217  10.423 -1.5952  1.7248 -0.5400
  121MOL0     H15939   7.438  10.249  10.574 -0.1363  3.1666 -4.2497
  121MOL0     H15940   7.206  10.291  10.571  2.2828  1.1315  0.9933
  121MOL0     H15941   7.258  10.188  10.698 -1.1012  3.6409  0.5876
  121MOL0     H15942   7.187   9.993  10.591  3.8115  2.9203  1.8696
  121MOL0     H15943   7.141  10.076  10.435 -2.6643  1.6758  0.4646
  121MOL0     H15944   7.005  10.159  10.681 -1.9062  0.9304 -1.2689
  121MOL0     H15945   6.953  10.165  10.513 -1.9457 -0.9664 -0.0599
  121MOL0     H15946   6.836   9.978  10.642 -1.8461 -0.7585 -2.2820
  121MOL0     H15947   7.000   9.903  10.655  1.6269  1.9028 -0.1740
  121MOL0     H15948   6.984   9.851  10.421 -1.8519 -3.6723 -1.0332
  121MOL0     H15949   6.874   9.982  10.385 -0.3504 -0.4380  0.0031
  121MOL0     H15950   6.808   9.719  10.545  1.7447 -1.3485 -1.8267
  121MOL0     H15951   6.688   9.830  10.498  1.6128  0.4041  1.2667
  121MOL0     H15952   6.841   9.647  10.307 -0.6393 -0.6149 -3.2797
  121MOL0     H15953   6.797   9.790  10.241  3.0619 -0.4411  0.6653
  121MOL0     H15954   7.549   9.804  10.572 -0.9630  0.8893  0.1513
  121MOL0     H15955   7.785   9.760  10.554  1.0083 -1.4544 -3.5641
  121MOL0     H15956   8.311  10.085  10.581 -2.5686  0.3979 -0.1465
  121MOL0     H15957   8.537   9.984  10.537  0.8196  0.7876  1.2925
  121MOL0     H15958  10.366   9.473  10.490 -0.8819  0.3924 -0.5394
  121MOL0     H15959  10.572   9.329  10.537  0.5490 -1.2358 -0.6265
  121MOL0     H15960  10.894   9.130  10.437 -0.4945  1.7784  1.4647
  121MOL0     H15961  11.070   8.957  10.416  3.5959 -1.4578 -1.7080
  121MOL0     H15962  11.240   8.827  10.420  1.5544  0.3998 -1.6612
  121MOL0     H15963  11.311   8.867  10.583 -1.1533  1.1171  0.0797
  121MOL0     H15964  11.531   8.825  10.483  1.6439 -2.7940  0.1557
  121MOL0     H15965  11.428   8.679  10.490  2.4213 -0.7744 -1.4737
  121MOL0     H15966  11.457   8.860  10.252  3.0601  1.0185  1.9026
  121MOL0     H15967  11.383   8.699  10.245 -2.1938  2.1752 -0.9285
  121MOL0     H15968  11.605   8.691  10.135 -1.6099  2.1046 -0.2600
  121MOL0     H15969  11.693   8.760  10.280  0.6954 -1.4208  1.4813
  121MOL0     H15970  11.647   8.356  10.373 -4.7678  0.6215  0.4342
  121MOL0     H15971  11.370   9.256  10.472 -0.3226 -0.1919 -0.5339
  121MOL0     H15972  11.209   9.428  10.452 -0.7154  0.3024  4.2995
  122MOL0     O15973  10.571   3.412   8.849 -0.3598  0.8784 -0.7169
  122MOL0     C15974  10.669   3.347   8.888  0.0662 -0.0635  0.4301
  122MOL0     O15975  10.660   3.231   8.957  0.0707 -0.1592  0.3182
  122MOL0     C15976  10.536   3.190   9.003  0.4913  0.0146 -0.2927
  122MOL0     C15977  10.509   3.052   8.999  0.0771  0.2217  0.3739
  122MOL0     C15978  10.385   2.992   9.038 -0.0914  0.3112 -0.1866
  122MOL0     C15979  10.286   3.076   9.086  0.3069  0.1381 -0.2871
  122MOL0     O15980  10.160   3.015   9.116 -0.1782 -0.8738 -0.3163
  122MOL0     C15981  10.042   3.098   9.121  0.0489 -1.0509 -0.1003
  122MOL0     C15982   9.927   3.005   9.100 -0.7179 -0.5735  0.0513
  122MOL0     C15983   9.799   3.084   9.115  0.4896  0.0302 -0.1264
  122MOL0     C15984   9.671   3.000   9.070  0.7733 -0.2412 -0.0359
  122MOL0     C15985   9.533   3.058   9.106 -0.3463 -0.9353  0.1427
  122MOL0     C15986   9.527   3.079   9.259 -0.9436  0.3008  0.0932
  122MOL0     C15987   9.393   3.119   9.318 -0.6558 -0.2728 -0.0792
  122MOL0     C15988   9.362   3.280   9.338 -1.1687 -0.1815 -0.0021
  122MOL0     N15989   9.241   3.271   9.428  1.0850 -0.7616  0.5832
  122MOL0     C15990   9.131   3.191   9.405 -0.2363 -0.0882 -0.5817
  122MOL0     C15991   9.038   3.229   9.495  0.3938  0.7245  0.6349
  122MOL0     C15992   8.901   3.178   9.489 -0.0880  0.1730 -0.1606
  122MOL0     C15993   8.798   3.277   9.441  0.4381  0.2475 -0.1729
  122MOL0     C15994   8.657   3.250   9.507  0.0733 -0.1390  0.0640
  122MOL0     C15995   8.560   3.340   9.451  0.3019 -0.6001  0.5564
  122MOL0     O15996   8.433   3.270   9.468 -0.5563  0.0075  0.2607
  122MOL0     C15997   8.315   3.311   9.412 -0.6537 -0.5410 -0.3187
  122MOL0     C15998   8.273   3.446   9.419 -0.3579 -0.0648  0.0910
  122MOL0     C15999   8.147   3.492   9.384 -0.2822 -0.5957  0.8521
  122MOL0     C16000   8.048   3.397   9.335 -0.3189 -0.0764 -0.3453
  122MOL0     C16001   7.914   3.440   9.318 -0.1089 -0.5654 -0.2678
  122MOL0     O16002   7.818   3.340   9.293 -0.2074  0.4555 -1.0669
  122MOL0     C16003   7.687   3.363   9.270 -0.3058  0.2738  0.4901
  122MOL0     C16004   7.635   3.335   9.145  1.4292 -0.0937 -0.1088
  122MOL0     C16005   7.503   3.363   9.118 -0.1979 -0.2433 -0.4469
  122MOL0     C16006   7.420   3.421   9.206  0.2036  0.4421 -0.7216
  122MOL0     O16007   7.284   3.446   9.187 -0.7843 -1.2660  0.3291
  122MOL0     C16008   7.222   3.422   9.062  0.0565 -0.1985 -0.1463
  122MOL0     C16009   7.073   3.403   9.081 -0.8319  0.4167 -0.2544
  122MOL0     C16010   6.988   3.415   8.955  1.0207  0.1926 -0.0730
  122MOL0     C16011   6.976   3.560   8.925 -0.0324  0.1650 -0.8902
  122MOL0     C16012   6.889   3.588   8.808 -0.1804 -0.3282 -0.0666
  122MOL0     C16013   6.742   3.567   8.858  0.4770  0.4115 -0.1749
  122MOL0     C16014   6.650   3.588   8.745  0.4153  0.2063  0.1573
  122MOL0     C16015   6.505   3.589   8.797 -0.6587  0.4385  0.1162
  122MOL0    Cl16016   6.392   3.617   8.667 -0.7322  0.2431  0.0988
  122MOL0     C16017   7.472   3.441   9.335 -0.2635 -0.3428  0.9763
  122MOL0     C16018   7.603   3.411   9.373 -0.6406  0.5365 -0.0939
  122MOL0     O16019   7.896   3.565   9.321  0.5173  0.8844 -0.0700
  122MOL0     C16020   8.088   3.266   9.326  0.1946  0.4920 -0.2552
  122MOL0     C16021   8.217   3.227   9.358 -1.0363 -0.1427  1.0366
  122MOL0     N16022   9.098   3.318   9.581  0.4500 -0.4093  0.0026
  122MOL0     N16023   9.224   3.343   9.543 -0.2049  0.4108  0.1079
  122MOL0     C16024  10.317   3.209   9.107 -0.2700  0.1239 -0.2104
  122MOL0     C16025  10.435   3.270   9.063 -0.0347  0.9575 -0.5800
  122MOL0     C16026  10.806   3.397   8.861  0.1272  0.2099  0.0278
  122MOL0     C16027  10.918   3.371   8.947  0.1014 -0.1902 -0.7522
  122MOL0     C16028  11.040   3.441   8.931  0.3353 -0.1866 -0.5855
  122MOL0     C16029  11.050   3.546   8.842  1.0054 -0.5525  0.1412
  122MOL0     O16030  11.169   3.601   8.826 -0.5562 -0.1029  0.4893
  122MOL0     C16031  11.195   3.710   8.731 -0.0145  0.1846 -0.4298
  122MOL0     C16032  11.350   3.701   8.717 -0.3292  0.1480  0.2568
  122MOL0     C16033  11.422   3.743   8.846 -0.5615 -0.2059 -0.1534
  122MOL0     C16034  11.564   3.719   8.824  0.1772 -0.5675  0.2642
  122MOL0     C16035  11.623   3.813   8.725 -0.8001  0.4830  0.4903
  122MOL0     C16036  11.670   3.899   8.653  0.0890  0.0383  0.4370
  122MOL0     C16037  10.939   3.573   8.762  1.5445 -1.3912 -0.0458
  122MOL0     C16038  10.819   3.503   8.774  0.4048  0.8891  0.1766
  122MOL0     H16039  10.582   2.978   8.969 -1.1763 -0.8875 -0.0467
  122MOL0     H16040  10.369   2.885   9.030  0.3908 -0.2073  3.9194
  122MOL0     H16041  10.046   3.179   9.048 -4.6245  0.6956  1.1981
  122MOL0     H16042  10.031   3.130   9.225 -2.5067 -1.4712 -0.1740
  122MOL0     H16043   9.935   2.930   9.180  2.1130  2.2619  2.6941
  122MOL0     H16044   9.932   2.973   8.995 -2.4790  1.9682 -0.9017
  122MOL0     H16045   9.805   3.162   9.037 -1.0769 -1.6975 -2.0930
  122MOL0     H16046   9.796   3.121   9.218  0.7638 -0.2446 -0.0190
  122MOL0     H16047   9.673   2.990   8.961  0.2969  1.9479 -0.2813
  122MOL0     H16048   9.672   2.898   9.110  0.6184  0.0312  0.6675
  122MOL0     H16049   9.455   2.988   9.076 -0.7485 -0.5478  0.2809
  122MOL0     H16050   9.512   3.153   9.058  0.2371  0.7610  3.0233
  122MOL0     H16051   9.593   3.156   9.299 -2.5247  0.3275  2.9237
  122MOL0     H16052   9.559   2.984   9.303  1.6660  0.6200 -0.9426
  122MOL0     H16053   9.317   3.070   9.256  0.9416 -1.3152 -1.2848
  122MOL0     H16054   9.402   3.068   9.414 -0.5886 -1.5713 -0.7546
  122MOL0     H16055   9.348   3.318   9.236 -0.2745  0.9628  0.2733
  122MOL0     H16056   9.444   3.341   9.378 -1.7814  0.6273  0.0508
  122MOL0     H16057   9.117   3.120   9.324  1.5281 -0.1185 -0.8959
  122MOL0     H16058   8.883   3.140   9.590 -1.2832  0.2425 -0.3404
  122MOL0     H16059   8.895   3.097   9.415 -1.5904 -1.5526  1.7234
  122MOL0     H16060   8.781   3.266   9.333 -0.0508 -0.8195  0.0065
  122MOL0     H16061   8.832   3.380   9.459  1.3868  0.3729 -2.2850
  122MOL0     H16062   8.631   3.145   9.488  0.2525  0.1053 -1.6749
  122MOL0     H16063   8.674   3.257   9.615  0.4060  0.1333 -0.0059
  122MOL0     H16064   8.584   3.358   9.346  0.7625  1.3591  0.9582
  122MOL0     H16065   8.575   3.427   9.516 -0.8002 -2.3575  3.3204
  122MOL0     H16066   8.352   3.501   9.469 -1.7993  1.2038  1.0291
  122MOL0     H16067   8.123   3.592   9.417 -2.2866 -0.7845  0.1290
  122MOL0     H16068   7.689   3.281   9.067  3.6025 -0.5947  1.6645
  122MOL0     H16069   7.464   3.325   9.025 -1.4789 -0.2015  0.0529
  122MOL0     H16070   7.246   3.323   9.022 -1.8104 -2.1282  3.0842
  122MOL0     H16071   7.250   3.492   8.983 -0.1051 -0.5565 -0.5216
  122MOL0     H16072   7.033   3.484   9.142  1.5227  2.5603 -1.3962
  122MOL0     H16073   7.068   3.307   9.134  0.5188  0.7009  0.4405
  122MOL0     H16074   6.895   3.357   8.959 -0.2282  1.9676 -1.6021
  122MOL0     H16075   7.041   3.368   8.872 -2.7501 -1.8458 -1.5910
  122MOL0     H16076   6.945   3.620   9.011  0.9638  2.2902 -1.9288
  122MOL0     H16077   7.076   3.603   8.910  0.8675 -1.0668  1.0968
  122MOL0     H16078   6.912   3.515   8.730 -2.5395 -2.2298  0.8850
  122MOL0     H16079   6.897   3.688   8.766 -2.6651  0.0543  0.2422
  122MOL0     H16080   6.719   3.647   8.929 -1.4801 -0.7805  0.6021
  122MOL0     H16081   6.724   3.473   8.911  2.3445 -0.1511 -0.4621
  122MOL0     H16082   6.679   3.680   8.693  0.9570 -1.1215 -2.0197
  122MOL0     H16083   6.663   3.520   8.661  0.7770  0.6274 -0.1324
  122MOL0     H16084   6.496   3.657   8.882  1.3472  0.3929  0.4288
  122MOL0     H16085   6.488   3.488   8.835 -1.1103 -0.6893 -2.8334
  122MOL0     H16086   7.409   3.489   9.410 -0.0152  0.1277  0.8935
  122MOL0     H16087   7.633   3.426   9.476  1.1209 -2.1858 -0.1084
  122MOL0     H16088   8.024   3.183   9.297  0.0093  0.1926  0.9589
  122MOL0     H16089   8.245   3.122   9.356  0.2990  0.1709 -2.2336
  122MOL0     H16090  10.242   3.272   9.154 -0.9430 -0.3698 -0.6045
  122MOL0     H16091  10.451   3.378   9.058  1.1875  0.8131 -0.0134
  122MOL0     H16092  10.917   3.292   9.022  0.2513 -1.3626 -1.9284
  122MOL0     H16093  11.124   3.409   8.992 -1.2694  0.5518  2.1997
  122MOL0     H16094  11.175   3.806   8.780  1.1616 -0.4501  1.3858
  122MOL0     H16095  11.136   3.699   8.639 -1.8153  0.3491  0.6629
  122MOL0     H16096  11.391   3.606   8.683 -2.0016 -0.3149 -0.5614
  122MOL0     H16097  11.382   3.777   8.644  4.3073  2.9954  4.5896
  122MOL0     H16098  11.393   3.676   8.928  0.7866  1.0642  1.4293
  122MOL0     H16099  11.390   3.843   8.876  0.0385  0.1152 -0.5676
  122MOL0     H16100  11.621   3.747   8.913  0.1664 -0.0700  0.1185
  122MOL0     H16101  11.581   3.611   8.816 -1.7139 -1.2744  3.6304
  122MOL0     H16102  11.725   3.957   8.582 -2.0132  1.0168 -0.4608
  122MOL0     H16103  10.941   3.651   8.686  0.6399 -1.0293  0.2836
  122MOL0     H16104  10.733   3.532   8.714 -0.4419 -3.4927 -1.1321
  123MOL0     O16105   6.007   9.135   7.999 -0.2742  0.1538 -0.1617
  123MOL0     C16106   6.093   9.076   8.064  0.3369  0.7973  0.1008
  123MOL0     O16107   6.072   9.005   8.180 -0.1423  0.4086 -0.2535
  123MOL0     C16108   5.941   8.999   8.214  0.0368  0.0371 -0.3034
  123MOL0     C16109   5.880   9.079   8.314 -0.0735  0.0645  0.3018
  123MOL0     C16110   5.746   9.069   8.343 -1.0396 -0.0120  0.1293
  123MOL0     C16111   5.674   8.967   8.295  0.0240 -0.1605  0.0882
  123MOL0     O16112   5.548   8.947   8.342  0.0143 -0.7122  0.0647
  123MOL0     C16113   5.513   8.815   8.384 -0.7926 -0.9178 -0.7913
  123MOL0     C16114   5.375   8.821   8.442  0.6174 -0.3394 -0.2476
  123MOL0     C16115   5.263   8.792   8.351 -0.1444  0.1639 -0.3712
  123MOL0     C16116   5.119   8.830   8.411 -0.6449 -0.0568 -0.1587
  123MOL0     C16117   5.004   8.794   8.305  0.0089 -0.3348  0.0091
  123MOL0     C16118   4.859   8.778   8.368 -0.6263 -0.9036 -0.1460
  123MOL0     C16119   4.748   8.743   8.269  0.1602 -0.2761 -0.1118
  123MOL0     C16120   4.716   8.864   8.175  0.3256  0.7353  1.1088
  123MOL0     N16121   4.616   8.843   8.067 -0.1552  0.6801  0.7453
  123MOL0     C16122   4.477   8.819   8.082 -0.5216  0.5225 -0.1522
  123MOL0     C16123   4.429   8.798   7.961 -0.0890  0.1485  0.6396
  123MOL0     C16124   4.285   8.780   7.932 -0.3397  0.2124 -0.0627
  123MOL0     C16125   4.201   8.908   7.974 -0.9868  0.6784  0.6330
  123MOL0     C16126   4.172   8.996   7.849  0.8079 -0.6574 -0.4302
  123MOL0     C16127   4.064   8.924   7.767  0.6944  0.4534 -0.4911
  123MOL0     O16128   3.930   8.925   7.824  0.0189 -0.4562  0.3882
  123MOL0     C16129   3.823   8.867   7.762 -0.5822 -0.0351 -0.2459
  123MOL0     C16130   3.840   8.787   7.648  0.7520 -0.2469  1.0941
  123MOL0     C16131   3.726   8.730   7.593  0.6347  0.0173  0.4320
  123MOL0     C16132   3.597   8.758   7.637  1.3625  0.8076  0.1140
  123MOL0     C16133   3.479   8.697   7.568  0.4257 -0.0157 -0.0948
  123MOL0     O16134   3.354   8.743   7.607 -0.0200 -0.1350  0.4867
  123MOL0     C16135   3.251   8.686   7.535  0.3635 -0.3251 -0.7432
  123MOL0     C16136   3.233   8.684   7.395 -0.3494 -0.5288 -0.6995
  123MOL0     C16137   3.117   8.622   7.335  0.5393  0.2813 -0.0707
  123MOL0     C16138   3.022   8.573   7.419  0.5092  0.4495  0.0174
  123MOL0     O16139   2.900   8.528   7.372 -0.3873 -0.4744  0.0061
  123MOL0     C16140   2.825   8.630   7.302  0.0067 -0.1365  0.6091
  123MOL0     C16141   2.683   8.588   7.283 -0.0298 -0.0661 -0.2458
  123MOL0     C16142   2.594   8.689   7.211 -0.3826 -0.2248 -0.1001
  123MOL0     C16143   2.453   8.630   7.201  0.7791  0.5754  0.4323
  123MOL0     C16144   2.348   8.715   7.123  0.3779 -0.0683 -0.0141
  123MOL0     C16145   2.336   8.862   7.185  0.1198 -0.1848 -0.7014
  123MOL0     C16146   2.319   8.849   7.338  0.5439 -0.3919 -0.2529
  123MOL0     C16147   2.259   8.973   7.403 -0.3044 -0.6987 -0.5906
  123MOL0    Cl16148   2.083   8.974   7.375  0.0181  0.3102  0.0430
  123MOL0     C16149   3.036   8.570   7.554  0.2764 -0.3027 -0.4698
  123MOL0     C16150   3.152   8.622   7.614  0.1378  1.1829 -0.1651
  123MOL0     O16151   3.505   8.609   7.481  0.5244 -0.3146 -0.2188
  123MOL0     C16152   3.582   8.832   7.752 -0.9255 -0.0832 -0.4391
  123MOL0     C16153   3.697   8.895   7.807  0.2900 -0.3009 -0.6764
  123MOL0     N16154   4.536   8.795   7.875 -0.2800 -0.7802 -0.4523
  123MOL0     N16155   4.650   8.834   7.931  0.6658  0.1897  0.0176
  123MOL0     C16156   5.725   8.885   8.193 -0.5857 -0.0442  0.0738
  123MOL0     C16157   5.861   8.899   8.156  0.7530 -0.5129 -0.0468
  123MOL0     C16158   6.234   9.095   8.031  0.8145 -0.4902  0.3068
  123MOL0     C16159   6.263   9.173   7.920 -0.2898 -0.6065 -0.5445
  123MOL0     C16160   6.400   9.202   7.880  0.7826 -0.4619  1.1943
  123MOL0     C16161   6.509   9.150   7.950  0.0564  0.9589 -0.1377
  123MOL0     O16162   6.632   9.178   7.900  0.6822  0.3222  0.9792
  123MOL0     C16163   6.754   9.138   7.955 -0.1984 -0.3075 -0.1549
  123MOL0     C16164   6.862   9.236   7.956 -0.7586 -0.1053  0.4598
  123MOL0     C16165   6.818   9.382   7.958  0.3967 -0.3215 -0.2382
  123MOL0     C16166   6.726   9.425   8.076 -0.1681 -0.0100  0.0968
  123MOL0     C16167   6.809   9.473   8.186  0.4408 -0.2986  0.1496
  123MOL0     C16168   6.859   9.518   8.291 -0.7166  0.4628 -0.3852
  123MOL0     C16169   6.481   9.079   8.069 -0.1436  0.2950  0.5360
  123MOL0     C16170   6.345   9.054   8.111  0.9284 -0.6185  0.1739
  123MOL0     H16171   5.950   9.152   8.353  0.7913 -0.0229 -1.0142
  123MOL0     H16172   5.713   9.134   8.424  0.0421 -3.1470  3.3151
  123MOL0     H16173   5.564   8.783   8.475 -4.6112 -2.9084  0.8580
  123MOL0     H16174   5.518   8.744   8.301 -0.5417 -0.5731 -1.0765
  123MOL0     H16175   5.352   8.924   8.470  2.5576 -0.3931  1.8253
  123MOL0     H16176   5.356   8.765   8.534  0.9855  2.0549  1.3636
  123MOL0     H16177   5.264   8.687   8.318 -1.7813  0.7118 -2.3571
  123MOL0     H16178   5.274   8.851   8.260 -0.3963  2.2464  0.8921
  123MOL0     H16179   5.100   8.767   8.498  0.7454 -2.6180 -1.5732
  123MOL0     H16180   5.125   8.935   8.439  1.2517 -0.4921  1.3047
  123MOL0     H16181   5.022   8.702   8.248 -0.2364  0.1725 -0.9215
  123MOL0     H16182   5.001   8.874   8.230  0.9984 -1.7201 -1.6060
  123MOL0     H16183   4.832   8.876   8.409 -0.1041 -0.9875  0.4143
  123MOL0     H16184   4.856   8.698   8.443 -1.8647  0.2291  1.0589
  123MOL0     H16185   4.780   8.648   8.225  1.4463  0.6026 -1.1462
  123MOL0     H16186   4.656   8.725   8.325  1.5685  2.2600  3.3618
  123MOL0     H16187   4.808   8.893   8.124 -1.6812 -1.8784 -4.9250
  123MOL0     H16188   4.674   8.940   8.242 -0.3056  0.0146  1.5489
  123MOL0     H16189   4.429   8.820   8.179  1.9238 -0.6723  1.1680
  123MOL0     H16190   4.246   8.697   7.991  0.1344  0.7683  1.0463
  123MOL0     H16191   4.290   8.754   7.825  4.3284 -0.4889  0.1171
  123MOL0     H16192   4.256   8.964   8.050  0.5139 -2.7753  2.2875
  123MOL0     H16193   4.106   8.877   8.019 -1.0145  0.6178  0.5347
  123MOL0     H16194   4.126   9.086   7.889 -1.1095 -1.2511 -1.1895
  123MOL0     H16195   4.264   9.021   7.794  1.3185 -0.8190  0.3353
  123MOL0     H16196   4.090   8.821   7.738 -1.3024 -0.0816 -0.5096
  123MOL0     H16197   4.060   8.974   7.669  1.5489  1.6051  0.0324
  123MOL0     H16198   3.939   8.768   7.607 -0.0165 -3.1923  0.3235
  123MOL0     H16199   3.731   8.661   7.510  1.9769 -1.7350  1.8866
  123MOL0     H16200   3.310   8.720   7.327 -1.7498 -0.1690 -2.1530
  123MOL0     H16201   3.106   8.621   7.227  1.3836 -2.3338 -0.2054
  123MOL0     H16202   2.873   8.651   7.206  1.2881 -1.0114  1.0223
  123MOL0     H16203   2.826   8.725   7.356 -3.8790  1.0894 -1.1785
  123MOL0     H16204   2.641   8.588   7.383  0.8850  1.3499  0.1642
  123MOL0     H16205   2.675   8.486   7.242  2.2517  0.1746 -1.4790
  123MOL0     H16206   2.635   8.713   7.113 -1.7281  0.7639 -0.4498
  123MOL0     H16207   2.612   8.787   7.257 -1.2294 -1.0887  2.2377
  123MOL0     H16208   2.454   8.533   7.151  0.9142  1.5686 -1.5707
  123MOL0     H16209   2.412   8.601   7.299 -0.0442  0.9142  0.1965
  123MOL0     H16210   2.249   8.669   7.122  0.8607 -1.1258 -0.6067
  123MOL0     H16211   2.388   8.722   7.021  2.0322  2.4996  0.6937
  123MOL0     H16212   2.253   8.910   7.132  0.7198  1.4717 -0.1879
  123MOL0     H16213   2.432   8.911   7.168 -0.5623  0.5315 -2.8333
  123MOL0     H16214   2.244   8.772   7.356 -1.8104  1.6303 -0.9672
  123MOL0     H16215   2.418   8.826   7.380  0.3457 -1.4809 -0.3552
  123MOL0     H16216   2.305   9.069   7.382 -0.4500  0.2438  2.7825
  123MOL0     H16217   2.276   8.955   7.510  0.0158  2.4826 -0.0073
  123MOL0     H16218   2.973   8.517   7.625 -0.5604 -0.0900 -1.0297
  123MOL0     H16219   3.155   8.615   7.723 -1.0856 -0.1019 -0.1901
  123MOL0     H16220   3.484   8.842   7.796  0.1470  0.2684  2.0578
  123MOL0     H16221   3.682   8.949   7.900 -2.2272 -3.2160  0.7997
  123MOL0     H16222   5.673   8.809   8.136 -3.4272  1.1018  0.9684
  123MOL0     H16223   5.904   8.842   8.074  1.0695  0.5415 -0.6349
  123MOL0     H16224   6.181   9.206   7.857 -1.9788 -2.3912  0.6156
  123MOL0     H16225   6.431   9.255   7.791  1.4017  0.9314  2.2130
  123MOL0     H16226   6.791   9.054   7.896 -0.6688 -1.3031  0.9222
  123MOL0     H16227   6.728   9.105   8.056 -0.2326 -0.8011 -0.3261
  123MOL0     H16228   6.925   9.225   8.045  2.0158  2.3590 -0.9991
  123MOL0     H16229   6.916   9.215   7.863 -2.1665 -1.9508 -0.0055
  123MOL0     H16230   6.762   9.410   7.869  0.9808 -0.3662 -0.6226
  123MOL0     H16231   6.909   9.442   7.961 -0.6558  1.3676 -0.5768
  123MOL0     H16232   6.655   9.495   8.032  1.1060  0.4800 -1.2659
  123MOL0     H16233   6.661   9.341   8.100  0.2320 -0.5721 -0.7257
  123MOL0     H16234   6.890   9.548   8.388 -2.4279 -1.1258  0.7308
  123MOL0     H16235   6.557   9.053   8.142 -1.2963  3.5244  3.1490
  123MOL0     H16236   6.316   9.013   8.207 -1.5944 -0.3722 -0.4057
  124MOL0     O16237   9.014   3.444   1.651  0.9303  0.4374 -1.1919
  124MOL0     C16238   9.053   3.439   1.536 -0.2840 -0.1244 -0.1833
  124MOL0     O16239   9.008   3.366   1.434 -0.5881  0.7462  0.7661
  124MOL0     C16240   8.896   3.292   1.456 -0.1180  0.0101  0.5082
  124MOL0     C16241   8.774   3.363   1.479  0.6555  0.0239 -0.2495
  124MOL0     C16242   8.640   3.303   1.489  0.6870 -0.0206  0.0108
  124MOL0     C16243   8.641   3.156   1.490  0.3915 -0.3120 -0.2839
  124MOL0     O16244   8.526   3.072   1.506  0.0329 -0.6270  0.4758
  124MOL0     C16245   8.403   3.135   1.473 -0.6990  0.1801 -1.0987
  124MOL0     C16246   8.290   3.040   1.505 -0.2400  0.4802 -0.8815
  124MOL0     C16247   8.153   3.095   1.493 -0.1931  0.1799 -0.5862
  124MOL0     C16248   8.040   2.990   1.484 -0.6518  0.0708 -0.7796
  124MOL0     C16249   7.918   3.040   1.564  1.0232 -0.3562  0.3504
  124MOL0     C16250   7.812   2.935   1.546  0.4419  0.0990  0.0482
  124MOL0     C16251   7.744   2.918   1.409  0.1162  0.7558 -0.1899
  124MOL0     C16252   7.616   2.819   1.425 -0.7376 -0.8366 -0.4198
  124MOL0     N16253   7.556   2.781   1.293  0.5379 -0.1980  0.1478
  124MOL0     C16254   7.469   2.852   1.214  0.5845  0.3200  0.7560
  124MOL0     C16255   7.458   2.790   1.100 -0.2196  0.5724  0.0535
  124MOL0     C16256   7.373   2.834   0.989 -0.3704  0.3521  0.8370
  124MOL0     C16257   7.223   2.796   0.993  0.0334 -0.2240 -0.1708
  124MOL0     C16258   7.200   2.640   1.017  0.7201  0.7026 -0.9478
  124MOL0     C16259   7.055   2.610   1.045 -0.8031 -0.1952  0.2454
  124MOL0     O16260   6.993   2.610   0.919  0.3087  0.0764 -0.3635
  124MOL0     C16261   6.855   2.622   0.922 -0.0648 -0.6194  0.1173
  124MOL0     C16262   6.790   2.748   0.892 -0.1607  0.2035  0.2044
  124MOL0     C16263   6.650   2.751   0.889 -0.6776  0.4377 -0.7114
  124MOL0     C16264   6.570   2.641   0.933 -0.7892  0.7081 -0.1117
  124MOL0     C16265   6.424   2.645   0.917 -0.2938  0.3276  0.0884
  124MOL0     O16266   6.371   2.762   0.906 -0.5113  0.1719  0.6948
  124MOL0     C16267   6.238   2.773   0.880 -0.1666  1.0395  0.0802
  124MOL0     C16268   6.159   2.850   0.965 -0.3590 -0.2868 -0.4285
  124MOL0     C16269   6.022   2.864   0.954 -1.0141 -0.7849  0.7866
  124MOL0     C16270   5.953   2.798   0.850  1.1870  0.1905  0.1620
  124MOL0     O16271   5.807   2.799   0.849  0.2357  0.3335 -0.0614
  124MOL0     C16272   5.748   2.675   0.812 -0.3394  0.4466  0.1442
  124MOL0     C16273   5.600   2.684   0.844  0.0976 -0.0909  0.2462
  124MOL0     C16274   5.541   2.537   0.851  0.1515 -0.8351  0.5512
  124MOL0     C16275   5.504   2.488   0.704  0.2309 -0.4461 -0.8927
  124MOL0     C16276   5.406   2.366   0.708 -0.0976 -0.2717  0.9040
  124MOL0     C16277   5.270   2.404   0.764 -0.0864  0.1048  0.4030
  124MOL0     C16278   5.150   2.357   0.679  0.7124 -0.6695  0.7155
  124MOL0     C16279   5.020   2.322   0.754  0.1925  0.4403  0.6779
  124MOL0    Cl16280   4.937   2.471   0.819 -0.1958  0.4738  0.0261
  124MOL0     C16281   6.029   2.729   0.756  0.5488 -0.0475 -0.2342
  124MOL0     C16282   6.164   2.711   0.776  0.5729 -0.2577  0.1108
  124MOL0     O16283   6.361   2.542   0.911  0.0684  0.2635  0.6862
  124MOL0     C16284   6.643   2.529   0.975  0.0903  0.4857 -0.0314
  124MOL0     C16285   6.780   2.524   0.977  0.5196 -0.6083  0.1183
  124MOL0     N16286   7.538   2.680   1.104  0.6109  0.6635  0.5343
  124MOL0     N16287   7.606   2.685   1.217  0.2089 -0.0557 -0.3392
  124MOL0     C16288   8.766   3.088   1.475 -0.4058 -0.2105  0.0390
  124MOL0     C16289   8.892   3.153   1.444  0.2982 -0.3664 -0.6234
  124MOL0     C16290   9.178   3.519   1.507 -0.3363  0.6786 -0.3421
  124MOL0     C16291   9.239   3.600   1.605  0.0102  0.0183  0.2870
  124MOL0     C16292   9.356   3.665   1.580  0.4733  0.0141  0.0375
  124MOL0     C16293   9.424   3.639   1.465 -0.4240 -0.0006 -0.0562
  124MOL0     O16294   9.548   3.697   1.445 -0.1881 -0.6256  0.0295
  124MOL0     C16295   9.639   3.667   1.332  0.7222 -0.1029  0.1029
  124MOL0     C16296   9.772   3.746   1.335 -0.2697  0.7495  1.2809
  124MOL0     C16297   9.871   3.711   1.453  0.0018  0.4620 -0.3874
  124MOL0     C16298  10.009   3.778   1.421  0.0083  0.5489  0.5440
  124MOL0     C16299  10.009   3.920   1.451 -1.2347 -0.3676  1.0793
  124MOL0     C16300  10.008   4.039   1.473 -0.9687 -0.2362 -0.4852
  124MOL0     C16301   9.371   3.562   1.361  0.4095 -0.6963  0.2071
  124MOL0     C16302   9.241   3.509   1.380  0.0937  0.8475 -0.5430
  124MOL0     H16303   8.767   3.471   1.468 -3.0442 -0.1970 -1.3640
  124MOL0     H16304   8.552   3.366   1.486 -0.2703 -1.2926  0.7079
  124MOL0     H16305   8.394   3.163   1.368 -0.1838 -1.3414 -1.5712
  124MOL0     H16306   8.397   3.227   1.532  1.5534 -0.8497  0.8796
  124MOL0     H16307   8.296   3.008   1.609 -2.5426  0.0907 -0.8155
  124MOL0     H16308   8.294   2.954   1.437  0.7192 -0.3408  0.1927
  124MOL0     H16309   8.143   3.151   1.400  1.5449  1.0799 -0.2689
  124MOL0     H16310   8.134   3.160   1.580  1.3357  0.6109 -0.5384
  124MOL0     H16311   8.032   2.950   1.383  1.5254  0.4335 -1.1346
  124MOL0     H16312   8.069   2.905   1.547  0.8986  0.7323 -0.5568
  124MOL0     H16313   7.881   3.129   1.513  0.6525 -0.8850 -0.3238
  124MOL0     H16314   7.946   3.069   1.666  2.4617  0.4284 -0.2273
  124MOL0     H16315   7.740   2.943   1.629  1.3953 -2.0029  1.1437
  124MOL0     H16316   7.858   2.838   1.563 -1.4926 -1.7026 -3.7967
  124MOL0     H16317   7.711   3.016   1.374 -0.4065  0.0825 -1.6667
  124MOL0     H16318   7.813   2.869   1.339  0.9893  0.4161  0.8848
  124MOL0     H16319   7.551   2.867   1.499  1.2166 -1.8669  2.1225
  124MOL0     H16320   7.647   2.729   1.479  0.8311  1.0180  1.9782
  124MOL0     H16321   7.418   2.947   1.229 -2.7946 -1.0714 -0.7689
  124MOL0     H16322   7.423   2.795   0.900  1.9945  2.6063  1.0585
  124MOL0     H16323   7.376   2.943   0.983  1.8164  0.3422  0.8919
  124MOL0     H16324   7.165   2.828   0.906 -0.1661 -0.1633 -0.0171
  124MOL0     H16325   7.183   2.861   1.071  0.0681 -0.1564 -0.2086
  124MOL0     H16326   7.238   2.579   0.934  3.2787 -0.8932  1.2085
  124MOL0     H16327   7.254   2.614   1.109 -0.1255  0.3786 -0.5387
  124MOL0     H16328   7.010   2.686   1.111  2.6140  0.7283  1.7626
  124MOL0     H16329   7.046   2.509   1.086 -2.1314 -0.4925 -0.7294
  124MOL0     H16330   6.861   2.827   0.869  1.6917 -0.9819  1.5779
  124MOL0     H16331   6.599   2.840   0.852 -1.8069  1.0037  2.0019
  124MOL0     H16332   6.210   2.895   1.049  0.7528 -0.2685 -1.0872
  124MOL0     H16333   5.961   2.909   1.032  2.6817  1.4694  2.6729
  124MOL0     H16334   5.789   2.592   0.869  1.3848  0.5097 -0.9165
  124MOL0     H16335   5.763   2.648   0.707  0.7645  0.7885  0.2023
  124MOL0     H16336   5.543   2.745   0.773 -0.7475 -1.3605 -0.1936
  124MOL0     H16337   5.588   2.719   0.947  0.1715 -1.5645  0.7778
  124MOL0     H16338   5.452   2.544   0.914  0.0547  0.5749  0.2792
  124MOL0     H16339   5.605   2.459   0.894  1.4870 -0.2795 -0.3459
  124MOL0     H16340   5.453   2.563   0.643 -2.1157 -1.7123 -0.6093
  124MOL0     H16341   5.598   2.452   0.661  0.8299 -3.5896  2.4988
  124MOL0     H16342   5.456   2.284   0.759 -0.7536 -1.1109  0.2416
  124MOL0     H16343   5.397   2.331   0.605 -0.5229  1.6457  0.2476
  124MOL0     H16344   5.263   2.512   0.777  2.8690  0.3109  0.8864
  124MOL0     H16345   5.256   2.371   0.867  2.9391  2.2824  1.6356
  124MOL0     H16346   5.128   2.428   0.599 -1.2429 -2.1281 -0.1300
  124MOL0     H16347   5.166   2.259   0.632  1.5867 -0.1729 -0.0668
  124MOL0     H16348   5.034   2.258   0.841 -0.4595  3.5524  3.2520
  124MOL0     H16349   4.952   2.266   0.690  0.7702 -0.9919  1.2939
  124MOL0     H16350   5.978   2.686   0.670 -0.7615  0.4649  0.2660
  124MOL0     H16351   6.226   2.653   0.708  1.4570  0.5114  0.2344
  124MOL0     H16352   6.588   2.441   1.007  0.2107  1.4971  3.3239
  124MOL0     H16353   6.830   2.434   1.011 -0.3904 -0.4626  1.9496
  124MOL0     H16354   8.759   2.980   1.470 -1.2565 -0.3034  2.1275
  124MOL0     H16355   8.986   3.100   1.434 -0.5880 -2.8343  2.5311
  124MOL0     H16356   9.184   3.618   1.698  1.5749  0.1979  1.2082
  124MOL0     H16357   9.400   3.732   1.653 -1.2415  4.1324 -2.3533
  124MOL0     H16358   9.589   3.700   1.240 -3.0478 -0.4874  1.8391
  124MOL0     H16359   9.651   3.559   1.333 -2.0575 -0.5625 -1.7591
  124MOL0     H16360   9.818   3.738   1.236 -2.5639  4.1824 -0.2500
  124MOL0     H16361   9.771   3.856   1.338  2.5165  0.9242 -0.3119
  124MOL0     H16362   9.886   3.603   1.450  1.4151  0.3816  3.7123
  124MOL0     H16363   9.818   3.734   1.546 -1.7402 -2.3167 -0.5968
  124MOL0     H16364  10.086   3.718   1.471 -2.5856 -1.5887  2.2614
  124MOL0     H16365  10.033   3.765   1.315  1.8718 -0.9919  1.0864
  124MOL0     H16366   9.992   4.139   1.507 -2.4890  0.9890 -4.3104
  124MOL0     H16367   9.423   3.550   1.267 -1.8643 -1.0467 -1.0986
  124MOL0     H16368   9.187   3.462   1.298 -3.9681  1.7777  1.2999
  125MOL0     O16369   7.444   1.822   2.149 -0.9060 -0.0503 -0.5783
  125MOL0     C16370   7.459   1.715   2.096  1.7070 -0.6557 -0.0483
  125MOL0     O16371   7.362   1.621   2.074  0.3447 -0.5783 -0.3961
  125MOL0     C16372   7.243   1.611   2.138 -0.3619 -0.4549 -0.9129
  125MOL0     C16373   7.167   1.734   2.185 -0.5089  0.2215  0.0344
  125MOL0     C16374   7.041   1.711   2.249 -0.8379  0.0477  0.2915
  125MOL0     C16375   6.990   1.584   2.266  0.7871  0.0175 -0.5138
  125MOL0     O16376   6.876   1.562   2.336  0.0639 -0.0770 -0.0886
  125MOL0     C16377   6.776   1.661   2.329 -1.5640  0.1855  0.2126
  125MOL0     C16378   6.651   1.608   2.393  0.1609  0.7808 -1.1892
  125MOL0     C16379   6.543   1.704   2.375  0.0366  0.7153  0.5016
  125MOL0     C16380   6.424   1.650   2.451 -0.1050  0.3422 -0.2564
  125MOL0     C16381   6.297   1.743   2.455 -0.6580  0.1057 -0.6218
  125MOL0     C16382   6.249   1.790   2.319  0.2542 -0.5781  0.4657
  125MOL0     C16383   6.107   1.866   2.320  0.1665  0.1478 -0.8733
  125MOL0     C16384   6.058   1.923   2.191 -0.2882 -0.1490 -1.1313
  125MOL0     N16385   5.928   1.986   2.189  0.1832 -0.4696 -0.7263
  125MOL0     C16386   5.819   1.940   2.113  0.0534 -0.7275 -0.4898
  125MOL0     C16387   5.725   2.027   2.148 -0.3560  0.0937  0.1635
  125MOL0     C16388   5.587   2.030   2.087 -0.2504  1.0395 -1.2739
  125MOL0     C16389   5.494   2.109   2.179 -0.0210 -0.1232 -0.0873
  125MOL0     C16390   5.360   2.139   2.113 -0.0227  0.5195  0.2700
  125MOL0     C16391   5.262   2.195   2.217  0.1688  0.2642 -0.2305
  125MOL0     O16392   5.198   2.095   2.296 -0.2311  0.2759 -0.3095
  125MOL0     C16393   5.070   2.057   2.265 -1.3729 -0.0027 -0.4430
  125MOL0     C16394   5.010   1.982   2.366  0.0949 -0.1060 -0.6595
  125MOL0     C16395   4.874   1.938   2.360 -0.2556 -0.3977 -0.2024
  125MOL0     C16396   4.798   1.966   2.242 -0.3009 -0.1718 -0.2371
  125MOL0     C16397   4.658   1.916   2.228  0.2613  0.1862  0.1401
  125MOL0     O16398   4.604   1.865   2.334 -0.0679  0.3813  0.0512
  125MOL0     C16399   4.472   1.824   2.323  0.1865  0.8434  0.1498
  125MOL0     C16400   4.356   1.905   2.347 -0.5156  0.3520  0.5579
  125MOL0     C16401   4.227   1.849   2.344 -0.5156 -0.3791 -0.2702
  125MOL0     C16402   4.205   1.717   2.310 -0.5795 -0.2538  0.0755
  125MOL0     O16403   4.070   1.683   2.312 -0.4780 -0.2707 -1.0207
  125MOL0     C16404   4.019   1.551   2.307 -0.6023 -0.1253  0.2562
  125MOL0     C16405   3.866   1.568   2.307  0.2408 -1.2146  0.0241
  125MOL0     C16406   3.793   1.437   2.301 -0.1281 -0.1881  0.3069
  125MOL0     C16407   3.741   1.416   2.158 -0.6117  0.4090  0.0885
  125MOL0     C16408   3.705   1.274   2.120 -0.7655 -1.3790 -0.2499
  125MOL0     C16409   3.651   1.290   1.975 -0.6587  0.4787 -0.1084
  125MOL0     C16410   3.621   1.153   1.906  0.7120  0.5321 -0.3539
  125MOL0     C16411   3.603   1.178   1.754 -0.1667 -0.5310 -0.3211
  125MOL0    Cl16412   3.535   1.035   1.670 -0.0421 -0.0442 -0.0894
  125MOL0     C16413   4.319   1.630   2.300 -0.5916  0.8488 -0.2051
  125MOL0     C16414   4.450   1.683   2.311  0.0858  1.7875 -0.2846
  125MOL0     O16415   4.608   1.936   2.117  0.4507 -0.0731 -0.5037
  125MOL0     C16416   4.865   2.028   2.134  0.4628  0.0460  0.1114
  125MOL0     C16417   4.999   2.078   2.151  0.3635 -0.3330 -0.6483
  125MOL0     N16418   5.773   2.120   2.238  0.1380  0.5653  0.0213
  125MOL0     N16419   5.896   2.085   2.271  0.1491 -0.1139  0.3801
  125MOL0     C16420   7.061   1.473   2.229  0.2297  0.2149  0.2670
  125MOL0     C16421   7.185   1.486   2.169 -0.5327  0.2790  0.7688
  125MOL0     C16422   7.599   1.690   2.070  0.0654 -0.6865  0.4786
  125MOL0     C16423   7.690   1.799   2.071  0.3744 -0.7247  0.5499
  125MOL0     C16424   7.819   1.776   2.018  0.3585 -0.8242  0.2195
  125MOL0     C16425   7.862   1.656   1.984 -0.5931 -0.4306  0.3665
  125MOL0     O16426   7.990   1.635   1.940 -0.1111 -0.4947 -0.9349
  125MOL0     C16427   8.105   1.706   1.995  0.3889  0.4837 -0.0784
  125MOL0     C16428   8.226   1.623   1.964 -0.3558  0.5911  0.0508
  125MOL0     C16429   8.347   1.694   2.039  0.1822 -0.2124  0.6139
  125MOL0     C16430   8.475   1.616   2.011 -0.5621 -0.4475  0.1298
  125MOL0     C16431   8.586   1.663   2.088  0.4326 -0.0996  0.2814
  125MOL0     C16432   8.684   1.693   2.151  0.0640 -0.2689 -0.2029
  125MOL0     C16433   7.776   1.546   1.987  0.2166  0.4622  0.3684
  125MOL0     C16434   7.636   1.560   2.022 -0.4643 -0.6653  0.3302
  125MOL0     H16435   7.198   1.837   2.168  0.5163 -0.0482  0.2096
  125MOL0     H16436   6.986   1.792   2.294  0.2019 -0.2148  2.0993
  125MOL0     H16437   6.766   1.690   2.224  2.0865  0.4757 -0.2043
  125MOL0     H16438   6.816   1.747   2.384  3.1582  0.5871 -3.1579
  125MOL0     H16439   6.670   1.589   2.499 -1.3365 -2.4399 -1.3469
  125MOL0     H16440   6.627   1.508   2.354 -0.7310  0.6578 -0.3681
  125MOL0     H16441   6.529   1.700   2.267  1.1479  0.1393  0.3578
  125MOL0     H16442   6.566   1.806   2.405 -0.1028  0.9275 -0.1009
  125MOL0     H16443   6.395   1.549   2.421  0.4192  0.2884 -0.5797
  125MOL0     H16444   6.447   1.648   2.558  1.2469 -1.1124 -0.5543
  125MOL0     H16445   6.324   1.820   2.528 -1.5695 -1.3346  1.3015
  125MOL0     H16446   6.216   1.682   2.495 -0.0729  0.6202  1.4411
  125MOL0     H16447   6.227   1.705   2.255 -3.6037 -0.4643  1.3981
  125MOL0     H16448   6.326   1.855   2.276 -2.0069  1.9310 -0.1336
  125MOL0     H16449   6.023   1.806   2.357  0.3566 -0.6777 -1.7506
  125MOL0     H16450   6.120   1.951   2.387 -0.1178 -1.0838  0.8357
  125MOL0     H16451   6.048   1.842   2.118  2.7501  0.1842 -2.0596
  125MOL0     H16452   6.132   1.998   2.160  0.0069  0.1260  0.1761
  125MOL0     H16453   5.812   1.865   2.035  1.9931 -0.9217 -0.5368
  125MOL0     H16454   5.551   1.928   2.072  0.1718  0.5422  0.6980
  125MOL0     H16455   5.591   2.081   1.990  0.5393 -0.6079 -2.1588
  125MOL0     H16456   5.539   2.199   2.221 -1.3169  0.9668 -0.9854
  125MOL0     H16457   5.470   2.049   2.267  1.8741  1.4755  1.6055
  125MOL0     H16458   5.369   2.212   2.032 -3.7810  0.0519 -0.7632
  125MOL0     H16459   5.324   2.040   2.082  0.2518 -0.6145  3.3028
  125MOL0     H16460   5.184   2.259   2.174 -1.3028 -0.0246  1.8162
  125MOL0     H16461   5.310   2.252   2.298 -0.9843 -2.1873  2.3859
  125MOL0     H16462   5.071   1.957   2.453  0.7259  0.3535 -0.9625
  125MOL0     H16463   4.825   1.880   2.438 -1.0777 -0.9692 -1.1218
  125MOL0     H16464   4.374   2.012   2.354  1.2093  0.2105 -0.9134
  125MOL0     H16465   4.139   1.911   2.356  1.0379  1.4805  2.9859
  125MOL0     H16466   4.049   1.490   2.393  1.8191  0.4126 -0.1347
  125MOL0     H16467   4.053   1.501   2.217 -1.0068  3.5270 -2.1450
  125MOL0     H16468   3.827   1.631   2.226  2.4685 -2.3556 -2.0823
  125MOL0     H16469   3.841   1.626   2.396  0.6346  0.1785 -0.7414
  125MOL0     H16470   3.706   1.435   2.368 -1.3671  0.4217 -1.2417
  125MOL0     H16471   3.852   1.350   2.329 -1.5349 -1.1246  0.4499
  125MOL0     H16472   3.655   1.483   2.146 -1.3854 -0.5243  0.2961
  125MOL0     H16473   3.806   1.460   2.083  0.3948  1.5541  1.5768
  125MOL0     H16474   3.628   1.248   2.194 -0.8462  1.9509  1.0238
  125MOL0     H16475   3.789   1.204   2.124 -0.9134 -1.5665 -0.4354
  125MOL0     H16476   3.733   1.337   1.919 -0.7164  2.1419  1.1219
  125MOL0     H16477   3.566   1.359   1.973  0.4560  1.8870 -1.0259
  125MOL0     H16478   3.699   1.078   1.913  0.4305  0.2785  0.0912
  125MOL0     H16479   3.531   1.109   1.949  2.8282 -0.7266  3.1532
  125MOL0     H16480   3.697   1.199   1.704  0.3509 -2.3306 -0.1436
  125MOL0     H16481   3.543   1.267   1.731 -0.2436 -0.4543  0.1617
  125MOL0     H16482   4.310   1.524   2.278  0.6640  0.5462  0.6613
  125MOL0     H16483   4.529   1.608   2.318 -1.3459  0.3514  1.6607
  125MOL0     H16484   4.808   2.039   2.043  2.4981  1.9239 -1.0131
  125MOL0     H16485   5.040   2.136   2.068  3.1305 -2.1683 -0.7266
  125MOL0     H16486   7.024   1.373   2.250  1.2867 -0.0975  0.7134
  125MOL0     H16487   7.240   1.393   2.150 -0.5472  0.1286  1.4453
  125MOL0     H16488   7.667   1.899   2.105  2.8643  1.1945 -2.7544
  125MOL0     H16489   7.877   1.867   2.004 -1.8717  0.2830 -3.0020
  125MOL0     H16490   8.093   1.710   2.104  0.6944 -1.6224  0.0756
  125MOL0     H16491   8.119   1.810   1.965  0.4080  0.3953 -0.3737
  125MOL0     H16492   8.233   1.517   1.990  1.3552  1.3452  3.2722
  125MOL0     H16493   8.246   1.627   1.857  0.3198  1.1855  0.1869
  125MOL0     H16494   8.330   1.701   2.147  0.9741 -2.0628  0.8855
  125MOL0     H16495   8.366   1.789   1.989 -0.7475 -0.3609 -0.0400
  125MOL0     H16496   8.454   1.511   2.035  0.5739 -0.1067  3.0345
  125MOL0     H16497   8.495   1.620   1.904 -2.1387 -0.4493 -0.1938
  125MOL0     H16498   8.767   1.731   2.206  1.1153 -0.2986 -1.7020
  125MOL0     H16499   7.810   1.453   1.943  2.3883  1.2121  0.3199
  125MOL0     H16500   7.567   1.476   2.014 -2.1712  0.7839 -0.8772
  126MOL0     O16501   0.515   4.001   0.531  0.5083  0.0062 -0.0915
  126MOL0     C16502   0.587   4.091   0.472 -0.0063  0.0327  0.4162
  126MOL0     O16503   0.555   4.226   0.456 -0.3076  0.2511  0.1120
  126MOL0     C16504   0.424   4.246   0.473 -0.3744  0.7918 -0.4294
  126MOL0     C16505   0.386   4.354   0.554  0.5039  0.5047 -0.7452
  126MOL0     C16506   0.249   4.394   0.563 -0.2040 -0.4847 -0.3585
  126MOL0     C16507   0.154   4.337   0.486  0.7705 -0.0252 -0.3080
  126MOL0     O16508   0.017   4.371   0.504 -0.3588 -0.3769  0.1832
  126MOL0     C16509  -0.055   4.412   0.384 -0.4198  0.4279  0.7605
  126MOL0     C16510  -0.192   4.468   0.416 -0.1224  1.3345  0.7527
  126MOL0     C16511  -0.204   4.580   0.519  1.1342  0.6841  0.0921
  126MOL0     C16512  -0.349   4.635   0.522 -0.0051  0.2821 -0.0680
  126MOL0     C16513  -0.385   4.749   0.613 -0.3304 -0.2323 -0.7063
  126MOL0     C16514  -0.315   4.888   0.584 -0.0042  0.0384 -1.0202
  126MOL0     C16515  -0.380   5.010   0.665  0.8320 -0.1446  0.1287
  126MOL0     C16516  -0.380   5.134   0.587 -0.6181 -0.3541  0.7064
  126MOL0     N16517  -0.246   5.178   0.555 -0.1359  0.2420 -0.6465
  126MOL0     C16518  -0.162   5.148   0.456  0.0618  0.0814  1.0813
  126MOL0     C16519  -0.046   5.223   0.468  0.3641 -0.5795  0.4460
  126MOL0     C16520   0.073   5.243   0.387  0.3652  0.5560  0.5855
  126MOL0     C16521   0.066   5.386   0.335 -0.4253  0.1191 -0.4817
  126MOL0     C16522   0.164   5.430   0.227 -0.4011 -0.0888 -0.3141
  126MOL0     C16523   0.301   5.358   0.231 -0.7124 -0.8674 -0.5645
  126MOL0     O16524   0.383   5.427   0.137  0.1399  0.0404  0.2242
  126MOL0     C16525   0.516   5.436   0.139  0.3975  0.2627  0.2806
  126MOL0     C16526   0.600   5.374   0.237  0.0617  0.4098  0.3602
  126MOL0     C16527   0.737   5.389   0.217 -0.8083  0.0986 -0.8072
  126MOL0     C16528   0.792   5.449   0.109 -0.2071 -0.7598  0.5064
  126MOL0     C16529   0.937   5.453   0.087 -0.9118  0.0313 -0.1122
  126MOL0     O16530   1.026   5.365   0.153  0.4170 -0.4052 -0.3142
  126MOL0     C16531   1.161   5.371   0.161  0.5339 -1.3935  0.2510
  126MOL0     C16532   1.231   5.264   0.132 -0.1024  0.6271  0.1472
  126MOL0     C16533   1.375   5.277   0.134  0.2180 -0.1819  0.0850
  126MOL0     C16534   1.440   5.396   0.159  0.1834  0.0212  0.5790
  126MOL0     O16535   1.579   5.393   0.160  0.3100 -0.3075 -0.8211
  126MOL0     C16536   1.645   5.507   0.227  0.0332 -0.4154  0.5409
  126MOL0     C16537   1.771   5.459   0.303 -0.1387 -0.3684 -0.1839
  126MOL0     C16538   1.877   5.402   0.212  1.5791 -0.3932  0.1882
  126MOL0     C16539   2.004   5.378   0.293 -0.3189 -0.3478 -0.0818
  126MOL0     C16540   2.118   5.334   0.210  0.6754  0.5740 -0.3002
  126MOL0     C16541   2.255   5.319   0.287  0.1714 -1.0436 -0.5589
  126MOL0     C16542   2.346   5.256   0.189 -0.4948  0.2344 -0.1202
  126MOL0     C16543   2.490   5.241   0.245 -1.0559 -0.3297  0.0519
  126MOL0    Cl16544   2.610   5.200   0.120 -0.3754 -0.8092 -0.0384
  126MOL0     C16545   1.359   5.511   0.185  0.0670  0.1058 -0.7891
  126MOL0     C16546   1.219   5.498   0.187 -0.6883 -0.2107  0.5712
  126MOL0     O16547   0.972   5.540   0.004 -0.0625 -0.2474 -0.6710
  126MOL0     C16548   0.705   5.495   0.009  0.4696 -0.1468  0.4008
  126MOL0     C16549   0.570   5.503   0.030  0.6607  0.0023  0.3962
  126MOL0     N16550  -0.062   5.293   0.583  0.4906 -0.2456 -0.7675
  126MOL0     N16551  -0.182   5.267   0.638  0.4462  0.2576 -0.3013
  126MOL0     C16552   0.186   4.234   0.400  0.0624 -1.1316 -0.4593
  126MOL0     C16553   0.322   4.191   0.392  0.2100 -1.1091 -0.4874
  126MOL0     C16554   0.720   4.045   0.416 -1.2532 -0.2520 -0.2693
  126MOL0     C16555   0.794   3.936   0.470 -0.0275 -0.6066  0.0633
  126MOL0     C16556   0.913   3.895   0.412  1.4691  0.6727 -0.6124
  126MOL0     C16557   0.976   3.962   0.312  0.1535 -0.1300  0.0410
  126MOL0     O16558   1.109   3.930   0.274  0.0985  0.0922 -0.2938
  126MOL0     C16559   1.155   3.792   0.295  0.4954  0.4183  0.5308
  126MOL0     C16560   1.288   3.768   0.217 -0.0172  0.6697  1.1641
  126MOL0     C16561   1.412   3.813   0.292  0.3058 -0.3640  0.5820
  126MOL0     C16562   1.539   3.735   0.247  0.3628 -0.4504 -0.0715
  126MOL0     C16563   1.660   3.787   0.325 -0.5876 -0.0434  0.5411
  126MOL0     C16564   1.762   3.820   0.387 -1.1279 -0.1684 -0.5329
  126MOL0     C16565   0.902   4.073   0.254 -0.2724  0.0430 -0.1424
  126MOL0     C16566   0.776   4.117   0.301 -0.0518 -0.4464 -0.4978
  126MOL0     H16567   0.466   4.413   0.597  0.4928  2.0695 -2.6949
  126MOL0     H16568   0.199   4.471   0.620 -1.0034 -1.4691  0.2946
  126MOL0     H16569  -0.044   4.332   0.310  1.0075  0.1580  1.2506
  126MOL0     H16570  -0.009   4.499   0.337 -2.2802  1.1470  0.1488
  126MOL0     H16571  -0.263   4.389   0.444 -0.9303  1.0436 -1.8784
  126MOL0     H16572  -0.236   4.502   0.322  0.7573 -0.6625 -0.4454
  126MOL0     H16573  -0.145   4.670   0.500  0.9398  0.4467 -1.8094
  126MOL0     H16574  -0.175   4.548   0.619 -0.7110 -0.7278  0.2189
  126MOL0     H16575  -0.376   4.670   0.421  3.3291 -2.2742 -2.0356
  126MOL0     H16576  -0.410   4.549   0.550  1.5163 -1.7205 -2.4822
  126MOL0     H16577  -0.355   4.714   0.713  0.9551  0.9716 -0.6348
  126MOL0     H16578  -0.491   4.775   0.611 -1.0186 -2.5209  0.9288
  126MOL0     H16579  -0.332   4.903   0.477  0.2813 -0.1216 -1.0898
  126MOL0     H16580  -0.207   4.880   0.597  0.1074  1.3949 -0.9502
  126MOL0     H16581  -0.485   4.987   0.683  0.6905 -2.0065 -2.5018
  126MOL0     H16582  -0.329   5.027   0.761  1.5750 -0.0948 -0.2724
  126MOL0     H16583  -0.431   5.220   0.631 -0.2509 -0.8951  2.2832
  126MOL0     H16584  -0.428   5.105   0.493  0.6729  1.0463 -0.4262
  126MOL0     H16585  -0.180   5.078   0.375  2.5926  0.7458 -0.1673
  126MOL0     H16586   0.066   5.167   0.309 -0.1098  0.1635  1.0075
  126MOL0     H16587   0.163   5.229   0.447  1.1080 -0.1741 -0.6592
  126MOL0     H16588   0.082   5.451   0.422 -1.1352  0.2357 -0.4288
  126MOL0     H16589  -0.040   5.394   0.311 -0.8760  0.0967  1.3188
  126MOL0     H16590   0.126   5.409   0.126  1.6975 -1.2914 -0.9210
  126MOL0     H16591   0.180   5.538   0.235 -1.5125  0.0466  0.3186
  126MOL0     H16592   0.294   5.253   0.204  3.0296 -0.3756 -4.4388
  126MOL0     H16593   0.342   5.376   0.331 -1.2563  0.7925 -0.5965
  126MOL0     H16594   0.564   5.326   0.328 -1.4607 -1.3506 -1.0986
  126MOL0     H16595   0.800   5.340   0.290 -3.0747 -1.9582 -0.1395
  126MOL0     H16596   1.194   5.163   0.113  3.3489 -0.8481  0.3560
  126MOL0     H16597   1.436   5.198   0.091  0.2726  0.5510 -1.2587
  126MOL0     H16598   1.586   5.569   0.294  0.7241  0.8333  0.0332
  126MOL0     H16599   1.661   5.572   0.140 -1.8447 -0.3033  0.2433
  126MOL0     H16600   1.734   5.387   0.376 -0.4666  0.8530  0.8959
  126MOL0     H16601   1.818   5.536   0.366 -0.0496 -2.6433  2.7235
  126MOL0     H16602   1.900   5.481   0.140 -0.2889  1.7951  1.8071
  126MOL0     H16603   1.841   5.310   0.165 -3.8289  0.4922  1.8901
  126MOL0     H16604   2.034   5.465   0.352 -1.6484  0.1954 -0.1780
  126MOL0     H16605   1.993   5.300   0.370  0.9046  0.2901  0.7725
  126MOL0     H16606   2.128   5.405   0.127 -2.4220  2.0764  0.4629
  126MOL0     H16607   2.092   5.245   0.152  0.9192  1.1473 -1.3109
  126MOL0     H16608   2.241   5.262   0.379  1.4786 -1.2707 -0.4924
  126MOL0     H16609   2.296   5.417   0.313  3.0363 -2.1965 -0.4471
  126MOL0     H16610   2.295   5.163   0.161  1.9562 -0.8722 -1.1261
  126MOL0     H16611   2.340   5.323   0.103 -2.1067 -1.3810 -1.3377
  126MOL0     H16612   2.492   5.159   0.318  0.3843  0.0175  0.4281
  126MOL0     H16613   2.512   5.334   0.297 -2.2160  0.7785 -1.3568
  126MOL0     H16614   1.413   5.601   0.215  0.5381 -0.5894  0.5366
  126MOL0     H16615   1.142   5.573   0.204 -4.3299 -2.5332 -3.4457
  126MOL0     H16616   0.730   5.536  -0.088  0.6880 -0.7468  0.1982
  126MOL0     H16617   0.505   5.537  -0.050  1.8988 -2.2010 -1.6725
  126MOL0     H16618   0.111   4.179   0.344  1.8287 -0.5335 -3.6143
  126MOL0     H16619   0.357   4.115   0.323  1.8177 -0.8164 -0.0274
  126MOL0     H16620   0.767   3.888   0.563  1.9664 -2.4906 -0.2301
  126MOL0     H16621   0.959   3.822   0.478  0.7982  0.8707  0.0975
  126MOL0     H16622   1.090   3.717   0.248  4.3642 -2.5840 -0.5436
  126MOL0     H16623   1.166   3.767   0.401  3.3194 -3.1585 -0.4068
  126MOL0     H16624   1.291   3.660   0.205  0.5156  0.8968 -1.4318
  126MOL0     H16625   1.280   3.816   0.119 -0.5409 -0.3892  0.6762
  126MOL0     H16626   1.404   3.805   0.400  1.9027 -0.3747  0.7297
  126MOL0     H16627   1.419   3.919   0.265 -0.8840 -0.6894 -1.1756
  126MOL0     H16628   1.533   3.628   0.271  0.5288 -0.4869 -0.1897
  126MOL0     H16629   1.549   3.739   0.138  0.8073 -1.5847 -0.0888
  126MOL0     H16630   1.834   3.843   0.464 -1.6735 -0.7712  0.1720
  126MOL0     H16631   0.950   4.122   0.170  1.5633 -1.6519 -0.1558
  126MOL0     H16632   0.735   4.208   0.259  3.3843  0.5484 -2.1401
  127MOL0     O16633   1.911  11.034   2.742  0.4992  0.0707  0.9785
  127MOL0     C16634   1.936  11.155   2.737 -1.0276 -0.2847  0.8500
  127MOL0     O16635   1.861  11.261   2.714  0.0975 -0.5344  0.1136
  127MOL0     C16636   1.726  11.232   2.705 -0.4903 -0.7178 -0.2185
  127MOL0     C16637   1.662  11.197   2.577  0.7181  0.6759 -0.3368
  127MOL0     C16638   1.523  11.169   2.580 -0.3972  0.8493 -0.1641
  127MOL0     C16639   1.457  11.164   2.705 -0.1760 -0.0441  0.2655
  127MOL0     O16640   1.319  11.132   2.703  0.0481  0.7367  0.4753
  127MOL0     C16641   1.282  10.994   2.676  0.9340  0.5711 -0.5827
  127MOL0     C16642   1.129  10.988   2.684  0.3206  0.5842  0.1659
  127MOL0     C16643   1.073  11.033   2.823 -0.2162  0.6018  0.0949
  127MOL0     C16644   0.920  11.048   2.816 -0.0179 -0.7041 -0.4215
  127MOL0     C16645   0.864  11.047   2.963  1.1902  1.0489  1.1802
  127MOL0     C16646   0.711  11.013   2.966  0.4760 -0.3433 -0.0785
  127MOL0     C16647   0.618  11.108   2.887 -0.2987  0.3033  0.8145
  127MOL0     C16648   0.619  11.250   2.945 -0.6045 -0.0209 -0.4829
  127MOL0     N16649   0.701  11.342   2.872 -0.3561  0.1798 -0.7217
  127MOL0     C16650   0.702  11.370   2.738 -0.3132  0.3065  0.6842
  127MOL0     C16651   0.796  11.463   2.729  1.3023  0.2158  0.6279
  127MOL0     C16652   0.857  11.515   2.603 -0.0660 -0.7213  0.1587
  127MOL0     C16653   1.008  11.571   2.624  0.0564  0.4316  0.2414
  127MOL0     C16654   1.092  11.444   2.651  0.4634  0.3117  0.2068
  127MOL0     C16655   1.244  11.476   2.650  0.5150 -0.5743 -0.2296
  127MOL0     O16656   1.268  11.574   2.756 -0.5509 -0.3332  0.5848
  127MOL0     C16657   1.386  11.638   2.755 -0.6804  0.3626  0.8870
  127MOL0     C16658   1.390  11.753   2.837  0.1237  0.6857 -0.0355
  127MOL0     C16659   1.511  11.830   2.846 -0.5844  0.2261  0.3791
  127MOL0     C16660   1.630  11.790   2.776  0.5545  0.8945 -0.7227
  127MOL0     C16661   1.764  11.855   2.809  0.7092  0.0472 -0.2724
  127MOL0     O16662   1.763  11.965   2.892  0.5257  0.4277  0.4275
  127MOL0     C16663   1.884  12.010   2.936 -0.8314  0.8216 -0.0306
  127MOL0     C16664   1.966  11.929   3.009  0.0687 -0.8672  0.4268
  127MOL0     C16665   2.090  11.975   3.051  0.0640  0.0905  0.4157
  127MOL0     C16666   2.141  12.106   3.022  0.7726  0.0085  0.1363
  127MOL0     O16667   2.269  12.157   3.051 -0.5061  0.0965 -0.3957
  127MOL0     C16668   2.386  12.069   3.063 -0.1148  0.3992 -0.1978
  127MOL0     C16669   2.509  12.160   3.079  0.7261  0.0801  1.0186
  127MOL0     C16670   2.650  12.090   3.089  0.6473  0.1167 -0.5935
  127MOL0     C16671   2.766  12.192   3.130  0.6735 -0.4858 -0.1495
  127MOL0     C16672   2.905  12.133   3.119 -0.3294  0.0485 -0.0540
  127MOL0     C16673   3.001  12.240   3.172  0.4699 -0.7612  0.8215
  127MOL0     C16674   3.140  12.206   3.134  0.3432  0.1650 -0.0423
  127MOL0     C16675   3.238  12.288   3.214  0.1819  0.1285  0.3110
  127MOL0    Cl16676   3.395  12.217   3.179  0.0549 -0.0756  0.1282
  127MOL0     C16677   2.045  12.188   2.960 -0.3448 -1.2270  0.3415
  127MOL0     C16678   1.921  12.145   2.921 -0.2710  0.0502  0.8491
  127MOL0     O16679   1.864  11.804   2.761 -0.9116  0.2312 -0.2888
  127MOL0     C16680   1.628  11.665   2.703  0.9921 -0.1339  0.4183
  127MOL0     C16681   1.505  11.593   2.694  1.1280 -0.1512 -0.7368
  127MOL0     N16682   0.839  11.504   2.853  0.3058 -0.0703  0.1257
  127MOL0     N16683   0.791  11.418   2.934  0.2835  0.0637  0.0756
  127MOL0     C16684   1.524  11.194   2.825  0.8657  0.0149  0.4545
  127MOL0     C16685   1.657  11.239   2.822 -0.6333  0.9212  0.7326
  127MOL0     C16686   2.069  11.188   2.792  0.0908 -0.4705  0.1090
  127MOL0     C16687   2.096  11.316   2.844 -0.0521 -0.3223 -0.9891
  127MOL0     C16688   2.227  11.353   2.877 -0.0159  0.0865 -0.3848
  127MOL0     C16689   2.321  11.259   2.875 -0.9354 -0.0366  0.2561
  127MOL0     O16690   2.446  11.277   2.925  0.1487  0.8561  0.5629
  127MOL0     C16691   2.446  11.304   3.067 -0.6798  0.1412  0.0278
  127MOL0     C16692   2.578  11.259   3.131 -0.8244 -0.7023  0.1946
  127MOL0     C16693   2.691  11.346   3.079 -0.4271  0.5387 -0.7996
  127MOL0     C16694   2.777  11.274   2.967  0.2930 -0.1402  0.0983
  127MOL0     C16695   2.722  11.323   2.847  0.4355 -0.3354 -0.0010
  127MOL0     C16696   2.687  11.356   2.739  0.2247 -0.8716 -0.7242
  127MOL0     C16697   2.297  11.130   2.831 -0.4467  0.6004  0.1019
  127MOL0     C16698   2.171  11.085   2.786 -0.0887 -0.2125  0.3707
  127MOL0     H16699   1.717  11.192   2.484  0.7633 -0.0145 -0.2766
  127MOL0     H16700   1.479  11.137   2.486 -1.2388 -1.3095  0.8915
  127MOL0     H16701   1.332  10.920   2.739 -0.9461 -1.3642 -1.2381
  127MOL0     H16702   1.303  10.961   2.574  2.7906 -1.3441  0.3416
  127MOL0     H16703   1.107  10.883   2.665  1.7947  0.7839 -3.2545
  127MOL0     H16704   1.087  11.061   2.614 -1.9522 -0.9431 -0.1673
  127MOL0     H16705   1.122  11.126   2.854 -2.0238  0.9579  2.1375
  127MOL0     H16706   1.098  10.953   2.893  1.3049  1.1843  0.2510
  127MOL0     H16707   0.892  11.139   2.762 -0.9053 -2.4365 -3.0726
  127MOL0     H16708   0.877  10.966   2.758 -1.7883  0.5071 -0.9131
  127MOL0     H16709   0.884  11.140   3.018 -0.8388  0.8794  2.3198
  127MOL0     H16710   0.912  10.967   3.019  1.9575  0.7571  0.1280
  127MOL0     H16711   0.677  11.015   3.070 -0.9039 -1.6882 -0.4758
  127MOL0     H16712   0.687  10.914   2.925 -1.4321 -0.3998  1.0883
  127MOL0     H16713   0.629  11.113   2.778  0.5440 -0.3280  0.8576
  127MOL0     H16714   0.513  11.076   2.887 -1.2475  2.4247 -4.4680
  127MOL0     H16715   0.652  11.244   3.049  1.9202 -3.1137 -1.2977
  127MOL0     H16716   0.513  11.278   2.946 -1.3035 -2.2581  2.3794
  127MOL0     H16717   0.641  11.320   2.663 -0.1496  2.7869 -1.2266
  127MOL0     H16718   0.789  11.590   2.560  0.6166 -1.7441 -2.9972
  127MOL0     H16719   0.861  11.444   2.519  0.0523  0.0690 -0.5210
  127MOL0     H16720   1.021  11.643   2.705  1.0203 -1.1696  1.5710
  127MOL0     H16721   1.051  11.618   2.535  1.2117 -1.0143  0.0169
  127MOL0     H16722   1.075  11.393   2.746  0.6100  0.6981  0.4418
  127MOL0     H16723   1.075  11.369   2.573 -0.7302 -1.0206  1.6856
  127MOL0     H16724   1.258  11.517   2.550  0.3639 -0.6908 -0.3008
  127MOL0     H16725   1.309  11.391   2.674  2.1246  0.3986 -0.9890
  127MOL0     H16726   1.298  11.794   2.878  0.2439  0.4187  0.4971
  127MOL0     H16727   1.515  11.920   2.907 -0.1004  1.3363 -1.2459
  127MOL0     H16728   1.942  11.825   3.026 -2.1529 -0.1515  2.1021
  127MOL0     H16729   2.157  11.908   3.103  0.6430  0.3405  0.0056
  127MOL0     H16730   2.399  12.003   2.976 -1.6138  0.2915 -0.3710
  127MOL0     H16731   2.365  12.010   3.153 -2.1502  2.1821  0.5825
  127MOL0     H16732   2.500  12.223   3.168 -1.9308  0.4140  0.5881
  127MOL0     H16733   2.523  12.230   2.996 -0.6678  0.3766  1.0030
  127MOL0     H16734   2.659  12.037   2.994  3.0784 -0.4411 -0.1200
  127MOL0     H16735   2.653  12.014   3.167 -2.9542  1.2193  0.8148
  127MOL0     H16736   2.766  12.281   3.066  1.0882 -0.9686 -0.8393
  127MOL0     H16737   2.741  12.220   3.233  1.0978  0.3809 -0.2732
  127MOL0     H16738   2.918  12.107   3.013  0.0717 -2.5863  0.5790
  127MOL0     H16739   2.908  12.044   3.181 -2.7274  0.0182  0.1102
  127MOL0     H16740   2.996  12.251   3.281 -0.6023 -0.4093  0.7512
  127MOL0     H16741   2.983  12.337   3.123 -0.6096  0.0075  2.6141
  127MOL0     H16742   3.153  12.099   3.157 -1.2476 -0.1046 -0.2735
  127MOL0     H16743   3.146  12.213   3.025  3.9376 -1.3987 -0.1027
  127MOL0     H16744   3.222  12.284   3.322  0.3262 -1.5845  0.2903
  127MOL0     H16745   3.220  12.387   3.172 -1.6840  0.2326  1.2627
  127MOL0     H16746   2.062  12.295   2.952 -0.9957 -0.7602  3.7744
  127MOL0     H16747   1.859  12.224   2.882  2.2988  2.1226  0.7288
  127MOL0     H16748   1.711  11.624   2.647  0.4234 -2.4539  1.1893
  127MOL0     H16749   1.502  11.516   2.618 -1.0221 -1.9400  1.0265
  127MOL0     H16750   1.467  11.173   2.915  2.7211 -0.6702  1.5327
  127MOL0     H16751   1.705  11.266   2.916 -0.7580  0.0501  1.0668
  127MOL0     H16752   2.015  11.386   2.859  0.2271 -0.5340  2.3886
  127MOL0     H16753   2.233  11.453   2.918 -0.0612 -0.5288  1.2043
  127MOL0     H16754   2.361  11.255   3.117 -1.4987 -2.2369 -3.3275
  127MOL0     H16755   2.430  11.412   3.075  1.5714  0.6618 -1.5986
  127MOL0     H16756   2.565  11.283   3.236 -1.0667  1.9134 -0.3676
  127MOL0     H16757   2.597  11.152   3.115 -0.9239 -0.6759 -0.1067
  127MOL0     H16758   2.755  11.354   3.167 -2.1372 -0.2208  0.5589
  127MOL0     H16759   2.660  11.446   3.049  2.4444  1.3035 -1.5810
  127MOL0     H16760   2.880  11.311   2.974 -0.9174  3.5511  0.5791
  127MOL0     H16761   2.770  11.164   2.970 -0.8781 -0.2699 -3.1082
  127MOL0     H16762   2.650  11.397   2.648 -3.0664  0.3767  1.0295
  127MOL0     H16763   2.377  11.058   2.841 -1.6078 -0.4170  3.5662
  127MOL0     H16764   2.151  10.990   2.736  2.5236 -0.8207  0.3159
  128MOL0     O16765   7.862   5.577   7.110  0.1486 -1.1610  0.3724
  128MOL0     C16766   7.806   5.663   7.044  0.1018 -0.2562  0.2913
  128MOL0     O16767   7.684   5.724   7.067  0.7636 -0.5972  0.8589
  128MOL0     C16768   7.567   5.648   7.104  0.3226 -0.7050  0.8298
  128MOL0     C16769   7.549   5.515   7.112 -0.0858  0.1290 -0.0199
  128MOL0     C16770   7.431   5.456   7.159 -0.3562  0.2155 -0.8609
  128MOL0     C16771   7.313   5.530   7.189  0.3618 -0.5016  0.5866
  128MOL0     O16772   7.193   5.471   7.224  0.1473  0.1035 -0.5861
  128MOL0     C16773   7.142   5.530   7.339 -0.4147  1.3192 -0.2076
  128MOL0     C16774   7.057   5.424   7.414 -0.9867 -0.8686 -0.4903
  128MOL0     C16775   6.958   5.346   7.323  0.0113  0.5178 -0.2273
  128MOL0     C16776   6.874   5.232   7.394 -0.2167  0.4710 -0.1228
  128MOL0     C16777   6.788   5.138   7.305 -0.4336 -0.5233 -0.4696
  128MOL0     C16778   6.711   5.030   7.378  0.1336  0.1434  0.2187
  128MOL0     C16779   6.631   5.086   7.494  0.4807 -0.4405 -0.5502
  128MOL0     C16780   6.517   4.989   7.525 -0.1846  0.0908  0.1354
  128MOL0     N16781   6.418   4.990   7.413 -0.4114 -0.0609  0.3734
  128MOL0     C16782   6.322   5.087   7.390  1.2857  0.2265  0.5865
  128MOL0     C16783   6.261   5.038   7.277 -0.1101 -0.2757 -0.3378
  128MOL0     C16784   6.146   5.108   7.213  0.9884 -0.5276  0.0156
  128MOL0     C16785   6.130   5.068   7.063  0.2029  0.2930 -0.0866
  128MOL0     C16786   6.255   5.114   6.981  0.2771  1.3128 -0.4524
  128MOL0     C16787   6.228   5.087   6.834 -0.2623  0.0591 -0.2763
  128MOL0     O16788   6.254   4.951   6.803  0.1089 -0.5142  0.3704
  128MOL0     C16789   6.215   4.911   6.675  0.3698 -0.9144 -0.1288
  128MOL0     C16790   6.091   4.868   6.638  0.1483  0.2209 -0.0534
  128MOL0     C16791   6.070   4.824   6.506  0.9344 -0.3905  0.7285
  128MOL0     C16792   6.165   4.830   6.407  0.5417 -0.8231 -0.9011
  128MOL0     C16793   6.140   4.792   6.272 -0.0878  0.7198 -0.5053
  128MOL0     O16794   6.025   4.722   6.243  0.3478  0.6308  0.5562
  128MOL0     C16795   5.995   4.705   6.111 -0.3131 -0.0373 -0.2429
  128MOL0     C16796   5.905   4.788   6.049 -0.1020  0.0940  0.4905
  128MOL0     C16797   5.870   4.767   5.911  0.1867 -0.5399  0.5478
  128MOL0     C16798   5.934   4.665   5.831 -0.1006  0.1263  0.1725
  128MOL0     O16799   5.893   4.650   5.699 -0.1158  0.0119  0.3388
  128MOL0     C16800   5.916   4.525   5.631  0.1489  0.3642 -0.2394
  128MOL0     C16801   5.794   4.492   5.539 -0.4805 -0.3039 -0.1282
  128MOL0     C16802   5.670   4.432   5.607 -0.2033 -1.0193  0.4245
  128MOL0     C16803   5.680   4.280   5.623  0.4484 -0.2060  0.1010
  128MOL0     C16804   5.541   4.220   5.658 -0.2608  0.4937 -0.6982
  128MOL0     C16805   5.512   4.257   5.805  0.2005 -0.7653 -0.0609
  128MOL0     C16806   5.375   4.209   5.854 -0.2883  0.6158 -0.4059
  128MOL0     C16807   5.340   4.258   5.992 -0.3865  0.4408 -0.3706
  128MOL0    Cl16808   5.204   4.168   6.059 -0.6358 -0.0633 -0.0772
  128MOL0     C16809   6.027   4.587   5.898 -0.3738  1.0839 -0.0298
  128MOL0     C16810   6.062   4.608   6.030 -0.2973  0.2811 -0.0417
  128MOL0     O16811   6.227   4.822   6.193  0.0801 -0.0135  0.5212
  128MOL0     C16812   6.286   4.894   6.443 -0.7644  0.0879  0.5864
  128MOL0     C16813   6.305   4.925   6.576 -0.1495  1.3983  0.3852
  128MOL0     N16814   6.312   4.916   7.233 -0.0136  0.3912 -0.0568
  128MOL0     N16815   6.405   4.891   7.311 -0.3586 -0.1411  0.0919
  128MOL0     C16816   7.336   5.676   7.178  0.0867  0.0281 -1.1884
  128MOL0     C16817   7.461   5.729   7.136  0.4096 -0.0527  0.6114
  128MOL0     C16818   7.874   5.709   6.917  1.3452  0.3311  0.1694
  128MOL0     C16819   7.986   5.640   6.871 -0.6414  0.2359  0.9281
  128MOL0     C16820   8.055   5.690   6.757 -0.8709  0.0038 -0.0683
  128MOL0     C16821   8.022   5.808   6.693  0.7513  1.5287 -0.2338
  128MOL0     O16822   8.099   5.833   6.582  0.0730  0.1989 -0.4873
  128MOL0     C16823   8.076   5.965   6.528  0.1400  0.4242 -0.7570
  128MOL0     C16824   8.167   6.008   6.411 -0.1677 -0.3269  0.2960
  128MOL0     C16825   8.318   5.968   6.434 -0.7341  0.1220 -0.5817
  128MOL0     C16826   8.418   6.017   6.325 -0.0606 -0.0833 -0.3405
  128MOL0     C16827   8.545   5.956   6.361  0.0059  0.3347  0.8015
  128MOL0     C16828   8.652   5.907   6.389 -0.3506  0.0894  0.1453
  128MOL0     C16829   7.915   5.877   6.749 -1.1030 -0.4318  0.3064
  128MOL0     C16830   7.838   5.833   6.856  0.8119  0.1571 -0.7049
  128MOL0     H16831   7.615   5.432   7.086 -1.8133 -1.8698  1.5560
  128MOL0     H16832   7.416   5.349   7.149  0.7665 -0.0744  0.2668
  128MOL0     H16833   7.080   5.618   7.318  0.4101  2.3125  1.3811
  128MOL0     H16834   7.222   5.553   7.409  1.2324  1.9462 -2.2145
  128MOL0     H16835   7.009   5.487   7.490 -1.3170  0.5191 -1.7925
  128MOL0     H16836   7.121   5.357   7.472 -1.9353 -0.8972  0.5443
  128MOL0     H16837   7.012   5.298   7.241  1.1385 -1.2164  1.4224
  128MOL0     H16838   6.885   5.418   7.288 -1.6249  0.8226  3.3300
  128MOL0     H16839   6.941   5.160   7.442 -0.1718  1.0654  0.7258
  128MOL0     H16840   6.814   5.281   7.471 -0.2788  0.4465 -0.1555
  128MOL0     H16841   6.862   5.089   7.240  1.2421  0.3308  0.7160
  128MOL0     H16842   6.720   5.199   7.245  0.3874 -1.7361 -2.7703
  128MOL0     H16843   6.774   4.949   7.416 -2.3677 -1.7538  0.6320
  128MOL0     H16844   6.648   4.969   7.312 -2.4095 -1.0472  3.4783
  128MOL0     H16845   6.692   5.100   7.584 -0.9396 -1.2551  0.5664
  128MOL0     H16846   6.580   5.180   7.470 -1.7477 -1.3160  0.4740
  128MOL0     H16847   6.456   5.023   7.609 -1.0963  0.6766 -0.7519
  128MOL0     H16848   6.559   4.889   7.543 -0.7933 -0.9713 -3.4851
  128MOL0     H16849   6.300   5.175   7.449 -2.3910  0.3540 -0.7172
  128MOL0     H16850   6.152   5.217   7.228 -3.1947 -0.3239  1.3615
  128MOL0     H16851   6.052   5.080   7.262 -0.4429 -0.7700 -2.6787
  128MOL0     H16852   6.046   5.129   7.029  0.7178 -0.5233 -3.0972
  128MOL0     H16853   6.099   4.965   7.041  1.4773  0.5474 -3.6237
  128MOL0     H16854   6.279   5.220   6.995 -1.4265  1.7301 -0.3984
  128MOL0     H16855   6.345   5.057   7.007  0.4153  2.0904  0.8551
  128MOL0     H16856   6.300   5.150   6.782 -1.7060  1.2330 -0.9229
  128MOL0     H16857   6.128   5.120   6.807  0.2956  2.8344  0.6258
  128MOL0     H16858   6.012   4.872   6.713  0.8535 -1.3266  0.8301
  128MOL0     H16859   5.973   4.782   6.484  0.3748  1.4880 -0.6721
  128MOL0     H16860   5.848   4.869   6.093 -0.2543  0.5671 -0.5583
  128MOL0     H16861   5.806   4.836   5.857  1.7404 -0.2087 -0.9596
  128MOL0     H16862   5.941   4.439   5.694  1.8588  2.1398  1.6952
  128MOL0     H16863   6.001   4.536   5.564  1.2051 -1.4735  0.7181
  128MOL0     H16864   5.828   4.427   5.457  0.2067  0.7894 -0.7466
  128MOL0     H16865   5.767   4.587   5.492 -0.6366  0.8226  2.1022
  128MOL0     H16866   5.586   4.451   5.539  1.0636 -0.4361 -1.0416
  128MOL0     H16867   5.654   4.495   5.694 -0.0915  0.5890 -0.6780
  128MOL0     H16868   5.717   4.248   5.525  1.9746  1.2004  0.1678
  128MOL0     H16869   5.759   4.270   5.698  0.0869  1.3305  0.7404
  128MOL0     H16870   5.552   4.111   5.654  4.3951  0.3488  3.9596
  128MOL0     H16871   5.455   4.245   5.595 -1.0027 -1.6405 -0.6274
  128MOL0     H16872   5.519   4.366   5.818  4.7736 -0.6623 -1.4832
  128MOL0     H16873   5.582   4.199   5.866 -0.7936 -1.7564  0.1616
  128MOL0     H16874   5.297   4.227   5.780 -0.9133 -2.1984 -0.5423
  128MOL0     H16875   5.379   4.100   5.859 -0.8177  0.5792 -0.7728
  128MOL0     H16876   5.306   4.362   6.000 -1.2364  0.0323  3.3565
  128MOL0     H16877   5.430   4.254   6.054 -1.4645  0.1002  1.2305
  128MOL0     H16878   6.074   4.506   5.844 -2.1593 -2.2470  2.9478
  128MOL0     H16879   6.137   4.546   6.079  0.0532  1.9964  1.7473
  128MOL0     H16880   6.372   4.903   6.378 -0.0775 -2.2666  1.0558
  128MOL0     H16881   6.400   4.961   6.614  2.5750 -2.4539 -2.0014
  128MOL0     H16882   7.249   5.739   7.196  1.6803  2.9537 -2.9815
  128MOL0     H16883   7.463   5.837   7.124  1.2731 -0.2515 -1.3108
  128MOL0     H16884   8.027   5.552   6.919  1.0828  0.2977 -0.3418
  128MOL0     H16885   8.145   5.639   6.722  0.3800  1.1448  1.3479
  128MOL0     H16886   8.088   6.032   6.613  0.0096  0.2305 -0.5848
  128MOL0     H16887   7.972   5.970   6.493 -0.5901 -1.9099  0.8184
  128MOL0     H16888   8.125   5.967   6.319 -0.7039 -0.7386  0.7241
  128MOL0     H16889   8.167   6.116   6.393 -0.2227 -0.1402  1.3824
  128MOL0     H16890   8.328   5.859   6.432 -1.7822 -0.0048 -3.6240
  128MOL0     H16891   8.346   5.995   6.537 -0.9555 -1.4099 -0.0905
  128MOL0     H16892   8.399   5.979   6.224 -2.5130  2.9091 -1.1479
  128MOL0     H16893   8.424   6.123   6.301  1.4020  0.2588  1.3416
  128MOL0     H16894   8.750   5.881   6.425  0.0221  2.1682  0.7961
  128MOL0     H16895   7.883   5.976   6.715 -0.3723  0.0892  1.1053
  128MOL0     H16896   7.755   5.893   6.891  0.6803  0.5214 -1.6198
  129MOL0     O16897   9.689  10.410   1.214 -0.6189 -0.2912  0.4975
  129MOL0     C16898   9.792  10.476   1.243  0.4499  0.8758 -1.4259
  129MOL0     O16899   9.785  10.587   1.320  0.5213  0.1964 -0.1629
  129MOL0     C16900   9.654  10.630   1.335 -0.3697 -0.2292 -0.0643
  129MOL0     C16901   9.612  10.751   1.275 -0.8996 -0.2641  0.7640
  129MOL0     C16902   9.487  10.803   1.304  0.6475  0.8126 -0.2658
  129MOL0     C16903   9.398  10.734   1.397  0.0589  0.3119  1.3866
  129MOL0     O16904   9.276  10.780   1.420  0.3224 -0.3172  0.0800
  129MOL0     C16905   9.268  10.922   1.440  0.4762 -0.3959 -0.9246
  129MOL0     C16906   9.155  10.963   1.532 -0.7593  0.1787  0.8953
  129MOL0     C16907   9.133  11.114   1.540 -0.0239 -0.2027  0.2622
  129MOL0     C16908   9.011  11.155   1.622  0.3466  0.1024 -0.1574
  129MOL0     C16909   8.990  11.304   1.607  0.9786 -1.1457  0.0299
  129MOL0     C16910   8.873  11.346   1.697  0.0018  0.6327 -0.1569
  129MOL0     C16911   8.834  11.500   1.672 -0.1889  0.5048 -0.8214
  129MOL0     C16912   8.777  11.567   1.798 -0.3207  0.0871  0.2032
  129MOL0     N16913   8.647  11.505   1.850  0.0815 -0.1673  0.5950
  129MOL0     C16914   8.515  11.537   1.829 -0.0751  0.4258  0.4366
  129MOL0     C16915   8.438  11.453   1.911 -0.9593  0.1331  0.4565
  129MOL0     C16916   8.293  11.466   1.947  0.0456 -0.2825  0.1893
  129MOL0     C16917   8.237  11.332   1.974 -0.6269 -0.2537  0.5962
  129MOL0     C16918   8.079  11.330   1.970 -0.2118 -0.2188 -0.5003
  129MOL0     C16919   8.009  11.429   2.070  0.3913  0.3247 -0.2338
  129MOL0     O16920   7.873  11.392   2.086 -0.6010  0.4436 -0.5955
  129MOL0     C16921   7.790  11.452   2.166  0.6582 -1.5738  0.3909
  129MOL0     C16922   7.670  11.387   2.183  1.0695  0.0721  0.3540
  129MOL0     C16923   7.568  11.444   2.270 -0.6709  0.1734  0.2498
  129MOL0     C16924   7.602  11.555   2.349  0.4515 -0.7093 -0.5572
  129MOL0     C16925   7.506  11.598   2.454  0.0478 -0.4498  0.7303
  129MOL0     O16926   7.559  11.679   2.542  0.1248  0.0768 -0.6007
  129MOL0     C16927   7.483  11.754   2.628 -0.7003  0.0188  0.7163
  129MOL0     C16928   7.359  11.724   2.690 -0.6087  0.3999  0.3437
  129MOL0     C16929   7.287  11.821   2.757  0.0064 -0.5334  0.0410
  129MOL0     C16930   7.354  11.948   2.783  0.9245  0.0479  0.5337
  129MOL0     O16931   7.298  12.053   2.843  0.0932 -0.0230 -1.1946
  129MOL0     C16932   7.209  12.123   2.752 -0.0881  0.0627  0.2053
  129MOL0     C16933   7.073  12.150   2.814  0.2794 -0.5979  0.2407
  129MOL0     C16934   6.974  12.029   2.792  0.2795 -0.6247 -0.3318
  129MOL0     C16935   6.845  12.055   2.879  0.4461  0.0745 -0.4448
  129MOL0     C16936   6.718  11.988   2.821  0.2378  0.1468  0.5794
  129MOL0     C16937   6.578  12.042   2.863 -0.5249  0.1235  0.9692
  129MOL0     C16938   6.469  11.987   2.773 -0.2571  0.1247 -0.5629
  129MOL0     C16939   6.326  12.017   2.822 -0.0157  0.7589 -0.2793
  129MOL0    Cl16940   6.207  11.909   2.745 -0.5141 -0.1004  0.5457
  129MOL0     C16941   7.482  11.970   2.743 -0.7263 -0.0766 -0.2262
  129MOL0     C16942   7.539  11.882   2.654  0.0820 -0.7346 -0.0652
  129MOL0     O16943   7.388  11.579   2.441 -0.1451  0.1995  0.5177
  129MOL0     C16944   7.724  11.618   2.327  0.0266  1.1585  0.0808
  129MOL0     C16945   7.819  11.568   2.232  0.6483 -0.6108 -1.0425
  129MOL0     N16946   8.533  11.369   1.987  0.9918 -0.7589 -0.4935
  129MOL0     N16947   8.650  11.406   1.937 -0.1576  0.8571  0.9342
  129MOL0     C16948   9.441  10.614   1.452  0.9990 -0.0589 -0.4901
  129MOL0     C16949   9.562  10.562   1.418 -0.3719  0.3377  0.6976
  129MOL0     C16950   9.933  10.426   1.195 -0.1511 -1.0302 -0.1804
  129MOL0     C16951   9.954  10.309   1.112 -0.0894 -0.2761  0.5446
  129MOL0     C16952  10.085  10.270   1.065  1.0736 -0.2143  0.3492
  129MOL0     C16953  10.198  10.343   1.103 -0.2892  0.1391  0.8005
  129MOL0     O16954  10.327  10.314   1.049  0.3807 -0.6496  0.3839
  129MOL0     C16955  10.342  10.232   0.933  0.2140  0.3061 -0.3551
  129MOL0     C16956  10.487  10.244   0.872 -0.6607  0.4240 -0.1151
  129MOL0     C16957  10.531  10.116   0.812 -0.3191 -0.3585 -0.8023
  129MOL0     C16958  10.663  10.143   0.745 -0.0341  1.2761 -0.4427
  129MOL0     C16959  10.717  10.019   0.699 -0.0672  0.1471 -0.5504
  129MOL0     C16960  10.766   9.913   0.666  0.2062 -0.3067  0.2133
  129MOL0     C16961  10.184  10.455   1.185  0.4346  0.0965  0.6987
  129MOL0     C16962  10.058  10.491   1.234 -0.4113 -0.0165 -0.0479
  129MOL0     H16963   9.678  10.806   1.209 -2.0407  0.6249  0.3485
  129MOL0     H16964   9.462  10.895   1.253  0.9319  1.0207 -0.0343
  129MOL0     H16965   9.247  10.977   1.348  1.0195  0.9559 -0.2690
  129MOL0     H16966   9.358  10.960   1.489 -0.1931  1.8247 -1.2987
  129MOL0     H16967   9.165  10.927   1.634 -1.4116  4.2350  2.6007
  129MOL0     H16968   9.076  10.921   1.470  1.9373  0.6134 -3.2732
  129MOL0     H16969   9.133  11.161   1.442  1.6070  0.8400  0.7191
  129MOL0     H16970   9.222  11.161   1.584 -0.4938  1.4910 -0.5366
  129MOL0     H16971   8.926  11.101   1.579  0.6776 -0.2549 -0.3678
  129MOL0     H16972   9.015  11.122   1.726  4.2523  2.8633  0.7764
  129MOL0     H16973   8.971  11.333   1.504  0.5919 -0.8945  0.1685
  129MOL0     H16974   9.078  11.356   1.647 -0.5771  0.8576  1.0219
  129MOL0     H16975   8.903  11.333   1.801  3.0270  1.4042 -0.8090
  129MOL0     H16976   8.789  11.277   1.697 -0.4861  1.2195  0.0520
  129MOL0     H16977   8.924  11.558   1.646  1.3328 -0.9202  0.9525
  129MOL0     H16978   8.768  11.500   1.585 -0.5345  1.1125 -0.5689
  129MOL0     H16979   8.755  11.673   1.779 -3.2019 -0.6930 -1.5555
  129MOL0     H16980   8.855  11.561   1.874 -0.7259  0.7165  0.6749
  129MOL0     H16981   8.466  11.600   1.755 -1.4344 -3.2235 -2.0968
  129MOL0     H16982   8.240  11.493   1.855 -2.1362 -2.0433  0.8396
  129MOL0     H16983   8.269  11.549   2.013 -0.9762 -0.8723  0.5746
  129MOL0     H16984   8.276  11.286   2.065 -1.5371 -0.5675  0.8426
  129MOL0     H16985   8.265  11.265   1.892  0.6341 -1.4378  1.9497
  129MOL0     H16986   8.051  11.334   1.864  1.8413 -1.8493 -1.1726
  129MOL0     H16987   8.047  11.231   2.003  0.3973 -0.5525 -0.8878
  129MOL0     H16988   8.019  11.536   2.047 -0.6587  1.4900  3.8664
  129MOL0     H16989   8.064  11.434   2.165 -0.7858  3.6214  0.4233
  129MOL0     H16990   7.662  11.302   2.115  1.0392 -0.5406  1.1056
  129MOL0     H16991   7.470  11.397   2.274 -1.2503  1.2628 -0.4854
  129MOL0     H16992   7.318  11.624   2.678  2.1917 -0.8211  0.0049
  129MOL0     H16993   7.193  11.790   2.802  0.5923 -0.8099  1.1033
  129MOL0     H16994   7.195  12.063   2.661  1.9551 -0.6821  0.3271
  129MOL0     H16995   7.257  12.215   2.718  0.0519 -0.9472 -2.6147
  129MOL0     H16996   7.033  12.242   2.771  1.2242 -0.9324 -1.4557
  129MOL0     H16997   7.087  12.150   2.922  1.6091  0.9281  0.1073
  129MOL0     H16998   7.025  11.935   2.814  1.3662 -1.1900 -4.3205
  129MOL0     H16999   6.948  12.026   2.685  1.0340 -2.2166 -0.5035
  129MOL0     H17000   6.864  12.015   2.979  3.6329  0.6000 -0.7423
  129MOL0     H17001   6.833  12.163   2.886  1.5186  0.1213  0.9813
  129MOL0     H17002   6.712  11.887   2.863 -0.4017  0.5268  1.4351
  129MOL0     H17003   6.737  11.981   2.713 -2.2071 -0.4906  0.1174
  129MOL0     H17004   6.577  12.151   2.851  0.9336 -0.0543 -1.4727
  129MOL0     H17005   6.551  12.025   2.968  0.0690  1.8892  1.4455
  129MOL0     H17006   6.492  12.030   2.675 -0.3670 -1.4193 -1.3130
  129MOL0     H17007   6.486  11.878   2.775  5.4584  0.6889  1.0257
  129MOL0     H17008   6.314  12.125   2.811 -2.3106  0.5272 -0.6803
  129MOL0     H17009   6.315  11.982   2.925  1.0435 -1.3209 -0.8177
  129MOL0     H17010   7.522  12.068   2.767 -0.0595 -0.7511  1.6298
  129MOL0     H17011   7.627  11.912   2.599  0.2327 -0.5844  0.2595
  129MOL0     H17012   7.737  11.711   2.381 -2.2616  1.2660  0.5503
  129MOL0     H17013   7.913  11.618   2.211 -0.1755  1.3840 -0.2366
  129MOL0     H17014   9.372  10.553   1.509  2.3965 -1.6719 -0.4360
  129MOL0     H17015   9.607  10.482   1.477 -0.5791 -0.2960  0.0161
  129MOL0     H17016   9.877  10.243   1.075 -0.1160 -0.0653  0.2178
  129MOL0     H17017  10.093  10.185   0.997  1.5532 -1.1020  1.4876
  129MOL0     H17018  10.266  10.252   0.856  0.8053  2.1937 -0.4972
  129MOL0     H17019  10.325  10.131   0.971  2.4625 -0.2624 -0.7207
  129MOL0     H17020  10.480  10.325   0.799  1.6656  0.7386 -0.0567
  129MOL0     H17021  10.559  10.282   0.946  1.4176 -3.6162  0.2063
  129MOL0     H17022  10.465  10.086   0.730 -1.7687 -2.1881  0.9299
  129MOL0     H17023  10.526  10.045   0.895 -0.8678  2.0094  1.3405
  129MOL0     H17024  10.649  10.211   0.661 -1.5755  0.7583 -0.6298
  129MOL0     H17025  10.732  10.182   0.821 -1.7942 -1.9343  3.1858
  129MOL0     H17026  10.825   9.825   0.647  2.0987  0.9551 -0.0664
  129MOL0     H17027  10.272  10.518   1.198  1.2855 -0.7897 -0.5911
  129MOL0     H17028  10.055  10.584   1.289  0.6469  1.1448 -1.8690
  130MOL0     O17029   2.517   4.146   8.600 -0.3497 -0.2284 -0.6528
  130MOL0     C17030   2.425   4.227   8.611  0.1173 -0.0847 -0.2520
  130MOL0     O17031   2.300   4.202   8.570  0.4894 -0.0036 -0.6768
  130MOL0     C17032   2.250   4.089   8.507 -0.5993  0.1542  0.3263
  130MOL0     C17033   2.325   4.027   8.401 -0.2245 -0.0226 -0.8002
  130MOL0     C17034   2.276   3.915   8.327 -0.6294  0.6494 -0.6009
  130MOL0     C17035   2.155   3.865   8.357  0.1772 -0.3981 -0.8991
  130MOL0     O17036   2.104   3.764   8.278  0.0818  0.6404 -0.2508
  130MOL0     C17037   2.024   3.663   8.348 -0.0984  0.3701 -0.9220
  130MOL0     C17038   2.124   3.552   8.403  0.0069 -0.2222  0.7228
  130MOL0     C17039   2.044   3.449   8.480 -0.0537 -0.0293 -0.1510
  130MOL0     C17040   2.120   3.346   8.552 -0.6992 -0.7647  0.4057
  130MOL0     C17041   2.026   3.251   8.621  0.1052 -0.0415  0.7632
  130MOL0     C17042   2.092   3.126   8.674  0.0579  0.0354 -0.0740
  130MOL0     C17043   2.186   3.158   8.788 -0.4789  0.4561 -0.3951
  130MOL0     C17044   2.114   3.231   8.905  0.5691 -0.4113 -0.4792
  130MOL0     N17045   1.992   3.175   8.957  0.1992 -0.0613  0.8351
  130MOL0     C17046   1.898   3.254   9.013  0.0560  0.0531  0.2791
  130MOL0     C17047   1.810   3.166   9.053  0.0958  0.1575  0.1899
  130MOL0     C17048   1.710   3.207   9.156 -0.4716 -0.8435 -1.2791
  130MOL0     C17049   1.574   3.215   9.102  0.1999 -0.2472  0.6134
  130MOL0     C17050   1.505   3.081   9.084  0.4313  0.7080  0.3388
  130MOL0     C17051   1.465   3.013   9.220  0.4451  0.3822 -0.0201
  130MOL0     O17052   1.353   3.093   9.263 -0.0638  0.7536 -0.2911
  130MOL0     C17053   1.223   3.070   9.230 -1.0479  0.0901  0.1973
  130MOL0     C17054   1.178   2.950   9.167  0.1679 -0.4533 -0.1417
  130MOL0     C17055   1.043   2.938   9.121 -0.0251 -0.2238  0.6677
  130MOL0     C17056   0.956   3.040   9.158  1.5829  0.5898 -0.0400
  130MOL0     C17057   0.812   3.033   9.108  0.3211  0.7795  0.7485
  130MOL0     O17058   0.762   2.911   9.056 -0.4829  0.2373  0.1947
  130MOL0     C17059   0.629   2.878   9.073  0.3545  0.2835  0.0162
  130MOL0     C17060   0.597   2.744   9.056  0.2277 -0.2369  1.2092
  130MOL0     C17061   0.465   2.702   9.062 -0.5677  0.3844 -0.8963
  130MOL0     C17062   0.364   2.780   9.119  0.0309  0.6087  0.3641
  130MOL0     O17063   0.239   2.726   9.134 -0.2024 -0.6642 -0.0644
  130MOL0     C17064   0.118   2.808   9.185 -0.3460  0.6153  0.4144
  130MOL0     C17065   0.004   2.718   9.234 -0.5905  0.5206  0.0425
  130MOL0     C17066  -0.038   2.609   9.133 -0.0789 -0.9626 -0.2394
  130MOL0     C17067  -0.167   2.532   9.173 -0.0623 -0.4868 -0.0354
  130MOL0     C17068  -0.251   2.480   9.055 -0.2882 -1.0422  0.1275
  130MOL0     C17069  -0.181   2.362   8.978  0.0069  0.1954 -0.1852
  130MOL0     C17070  -0.240   2.350   8.835 -0.6123 -0.5564  0.3065
  130MOL0     C17071  -0.164   2.242   8.765  0.0000 -0.0252  0.1702
  130MOL0    Cl17072   0.011   2.281   8.724 -0.0120 -0.0633 -0.5487
  130MOL0     C17073   0.392   2.907   9.146 -0.5122 -1.0189 -0.0497
  130MOL0     C17074   0.526   2.960   9.117  0.8974  0.4191  0.2780
  130MOL0     O17075   0.756   3.136   9.106  0.6153 -0.2556 -0.7174
  130MOL0     C17076   1.000   3.143   9.232 -0.0811 -0.6131  0.6125
  130MOL0     C17077   1.137   3.165   9.263  1.1533 -0.2371  0.1379
  130MOL0     N17078   1.857   3.040   9.033 -0.2809 -0.2800 -0.2341
  130MOL0     N17079   1.966   3.045   8.975  0.5001 -0.3847  0.5138
  130MOL0     C17080   2.076   3.934   8.460  0.6282  0.7434 -0.3015
  130MOL0     C17081   2.122   4.042   8.530  0.2333 -0.1476  0.8674
  130MOL0     C17082   2.475   4.364   8.641 -0.3243  0.1768  1.5774
  130MOL0     C17083   2.383   4.476   8.668  0.6991 -0.2040 -0.8500
  130MOL0     C17084   2.427   4.611   8.686  0.8685 -0.0037 -0.2741
  130MOL0     C17085   2.563   4.643   8.678  0.5994  0.2414  0.8283
  130MOL0     O17086   2.618   4.772   8.687 -0.1558  0.2084  0.5389
  130MOL0     C17087   2.525   4.876   8.703 -0.4515 -0.0156 -0.7979
  130MOL0     C17088   2.607   5.003   8.711 -0.0268 -0.2739 -0.1515
  130MOL0     C17089   2.619   5.054   8.562  0.0224 -0.7013  0.3165
  130MOL0     C17090   2.704   5.180   8.549 -0.0050 -0.3362  0.3081
  130MOL0     C17091   2.841   5.140   8.564 -0.3400 -0.2414 -0.8798
  130MOL0     C17092   2.957   5.096   8.579  0.4739  0.1749  0.6716
  130MOL0     C17093   2.654   4.535   8.659 -1.0820  0.3117  0.1536
  130MOL0     C17094   2.612   4.400   8.635 -0.0385  0.0519 -0.0149
  130MOL0     H17095   2.420   4.074   8.381 -0.1305  0.1001 -0.1018
  130MOL0     H17096   2.338   3.885   8.244 -1.1566 -0.4945 -0.6015
  130MOL0     H17097   1.956   3.613   8.279 -0.5922 -1.0031  0.4775
  130MOL0     H17098   1.964   3.702   8.431 -0.2154 -1.1722 -0.2464
  130MOL0     H17099   2.194   3.601   8.472  0.2964 -0.0579  0.3148
  130MOL0     H17100   2.172   3.516   8.312 -0.2813  4.8561 -1.7207
  130MOL0     H17101   1.971   3.401   8.414  0.9467 -1.7895 -0.0517
  130MOL0     H17102   1.991   3.499   8.560 -0.6169 -0.1951 -0.4151
  130MOL0     H17103   2.171   3.284   8.477  0.3180 -0.4865  0.8532
  130MOL0     H17104   2.197   3.388   8.618 -1.1962  0.9507 -0.0742
  130MOL0     H17105   1.956   3.207   8.549  1.3872 -0.8925 -0.0098
  130MOL0     H17106   1.970   3.306   8.697  0.6588  3.1165 -0.9484
  130MOL0     H17107   2.153   3.075   8.600 -0.1950  3.2532 -2.7394
  130MOL0     H17108   2.015   3.057   8.710  1.6642 -1.5135  0.4949
  130MOL0     H17109   2.218   3.065   8.835  0.9322  0.9397 -0.3390
  130MOL0     H17110   2.271   3.221   8.757 -0.6174  0.8871  0.0700
  130MOL0     H17111   2.083   3.331   8.872 -1.8789 -0.9413  0.0032
  130MOL0     H17112   2.186   3.246   8.986 -0.5003  2.6716  0.0602
  130MOL0     H17113   1.892   3.360   9.034 -2.1114  0.5459 -2.1916
  130MOL0     H17114   1.733   3.302   9.205  0.6000 -1.5562 -0.3311
  130MOL0     H17115   1.717   3.135   9.238  3.3146 -0.4093 -1.0204
  130MOL0     H17116   1.573   3.265   9.005  0.7538 -4.4008 -1.7895
  130MOL0     H17117   1.510   3.267   9.173 -0.6653  0.7007 -0.8018
  130MOL0     H17118   1.417   3.109   9.025  0.8725 -2.1441 -1.8813
  130MOL0     H17119   1.547   3.001   9.024 -0.3178  0.6227 -0.0774
  130MOL0     H17120   1.551   3.023   9.288  0.8458 -1.3532 -0.2106
  130MOL0     H17121   1.440   2.909   9.196 -2.1479  0.7237  0.9065
  130MOL0     H17122   1.241   2.869   9.131 -0.9346 -0.6381 -1.8051
  130MOL0     H17123   1.014   2.857   9.054  0.1482 -0.1063  0.4502
  130MOL0     H17124   0.681   2.679   9.032  0.3248  0.4352 -0.4155
  130MOL0     H17125   0.443   2.604   9.022 -2.4291  0.0513  0.7921
  130MOL0     H17126   0.076   2.873   9.107 -2.4383  2.3269  2.8081
  130MOL0     H17127   0.143   2.878   9.265 -3.0565 -0.3854  2.2890
  130MOL0     H17128  -0.086   2.778   9.253 -1.6739 -0.8211 -0.7115
  130MOL0     H17129   0.028   2.664   9.326 -0.4980  1.3353  0.5088
  130MOL0     H17130   0.035   2.539   9.092 -0.8885 -0.6700 -2.2546
  130MOL0     H17131  -0.065   2.652   9.036  0.2074  2.0434  0.8896
  130MOL0     H17132  -0.143   2.450   9.241 -0.0710  3.3057  5.1830
  130MOL0     H17133  -0.231   2.591   9.240  0.8586 -2.1328  2.4275
  130MOL0     H17134  -0.274   2.562   8.986 -2.3090 -0.3419  1.5251
  130MOL0     H17135  -0.349   2.446   9.089 -0.7913 -1.4012 -1.5868
  130MOL0     H17136  -0.199   2.272   9.037 -0.2969 -0.5442 -1.3950
  130MOL0     H17137  -0.072   2.376   8.977 -0.1261  1.3041 -1.4248
  130MOL0     H17138  -0.347   2.325   8.839 -0.2590 -1.9919  3.3479
  130MOL0     H17139  -0.227   2.446   8.784  0.1516  0.9646  3.1252
  130MOL0     H17140  -0.212   2.227   8.668  1.3101  0.6122 -0.6050
  130MOL0     H17141  -0.185   2.147   8.815  1.3092 -1.9843 -2.7385
  130MOL0     H17142   0.310   2.971   9.176  0.2012 -1.1972  2.4520
  130MOL0     H17143   0.528   3.067   9.136  2.0626  0.4157  0.2240
  130MOL0     H17144   0.943   3.230   9.261  0.9177 -0.3237  1.7739
  130MOL0     H17145   1.170   3.259   9.306 -0.2758  0.6979 -0.6911
  130MOL0     H17146   1.973   3.908   8.483  1.2419 -1.8053 -0.1274
  130MOL0     H17147   2.056   4.084   8.605 -2.8738 -0.1290 -1.6963
  130MOL0     H17148   2.279   4.445   8.675  1.3944 -2.4567  0.6975
  130MOL0     H17149   2.353   4.690   8.692  1.1781  0.3040 -0.4724
  130MOL0     H17150   2.481   4.865   8.803 -1.2736 -2.0005 -1.3265
  130MOL0     H17151   2.444   4.885   8.630 -2.7000 -2.0524  1.2952
  130MOL0     H17152   2.553   5.078   8.770  0.9915  1.5546 -1.4293
  130MOL0     H17153   2.705   4.991   8.758  0.4794 -2.4457 -1.6185
  130MOL0     H17154   2.524   5.080   8.514 -0.6969 -3.3040  0.1898
  130MOL0     H17155   2.666   4.980   8.497 -0.9934 -0.0653 -1.1939
  130MOL0     H17156   2.681   5.219   8.449 -1.1588 -1.9166 -0.1005
  130MOL0     H17157   2.677   5.244   8.634  1.7233 -1.3560  1.6833
  130MOL0     H17158   3.062   5.076   8.575  0.2758 -0.8969  0.4373
  130MOL0     H17159   2.761   4.553   8.651 -1.1375 -0.1421 -2.2880
  130MOL0     H17160   2.688   4.326   8.614  0.7886  1.5279 -2.7297
  131MOL0     O17161   7.788   4.246   5.253  0.6906  0.9271  0.6986
  131MOL0     C17162   7.892   4.305   5.211 -0.2240 -0.6752 -0.8662
  131MOL0     O17163   7.911   4.441   5.214  0.0538 -0.6020  0.0929
  131MOL0     C17164   7.799   4.527   5.217 -0.3089  0.5537  0.0767
  131MOL0     C17165   7.713   4.517   5.321  0.1296 -0.3954  0.2755
  131MOL0     C17166   7.613   4.605   5.348  0.4397  0.3650 -0.1634
  131MOL0     C17167   7.599   4.725   5.278  0.8279 -0.0054 -0.4441
  131MOL0     O17168   7.517   4.825   5.327 -0.1027  0.0166 -0.4287
  131MOL0     C17169   7.469   4.935   5.238  0.3169 -0.0185 -0.2941
  131MOL0     C17170   7.398   5.038   5.331  0.0000  0.2806  0.0307
  131MOL0     C17171   7.323   5.146   5.244 -0.6657  0.0928 -0.2409
  131MOL0     C17172   7.237   5.232   5.337 -0.8502  0.2535 -0.5803
  131MOL0     C17173   7.153   5.342   5.265  1.0967  0.9783  0.5755
  131MOL0     C17174   7.078   5.438   5.363  1.0008  0.6729 -0.0565
  131MOL0     C17175   6.950   5.498   5.305 -0.1175 -0.4021 -0.0272
  131MOL0     C17176   6.904   5.618   5.400 -0.2827 -0.4372 -1.3114
  131MOL0     N17177   6.777   5.674   5.354  0.3526  0.3469 -0.6375
  131MOL0     C17178   6.756   5.731   5.232 -0.1867 -0.4231 -0.9942
  131MOL0     C17179   6.647   5.819   5.252  0.5278 -0.5768  0.7909
  131MOL0     C17180   6.591   5.914   5.143 -0.2988  0.2827 -0.2473
  131MOL0     C17181   6.700   6.009   5.089  0.3593 -0.0049  0.0856
  131MOL0     C17182   6.716   6.134   5.172  0.1496  0.3214  0.4959
  131MOL0     C17183   6.845   6.200   5.123 -0.2428  0.3790  0.1066
  131MOL0     O17184   6.945   6.112   5.179  0.1505 -0.5589 -0.1350
  131MOL0     C17185   7.073   6.139   5.159 -0.7757 -0.0030 -0.8077
  131MOL0     C17186   7.151   6.069   5.251  0.7953 -0.2186 -0.0687
  131MOL0     C17187   7.286   6.083   5.251 -0.6027  0.3747  1.7131
  131MOL0     C17188   7.357   6.182   5.172  0.8631 -0.5637 -1.1733
  131MOL0     C17189   7.506   6.196   5.188  0.5810 -0.2474  0.6994
  131MOL0     O17190   7.563   6.293   5.119  0.1803 -0.6256  0.5292
  131MOL0     C17191   7.693   6.271   5.072  0.5905 -0.7927 -0.2993
  131MOL0     C17192   7.709   6.274   4.936  0.1293 -0.0193  0.0016
  131MOL0     C17193   7.839   6.254   4.891  0.0679 -0.0339 -0.3081
  131MOL0     C17194   7.956   6.251   4.969  0.4927 -0.2116 -0.0321
  131MOL0     O17195   8.085   6.235   4.924  0.3051 -0.4808  0.8487
  131MOL0     C17196   8.109   6.284   4.785  0.4697 -0.5643 -0.6558
  131MOL0     C17197   8.249   6.257   4.751  0.6577 -0.3756 -0.2797
  131MOL0     C17198   8.279   6.109   4.763 -0.2449  0.5944  0.8088
  131MOL0     C17199   8.182   6.009   4.706 -0.1118  0.6367 -0.1278
  131MOL0     C17200   8.244   5.868   4.724 -1.2649 -0.7971  0.0691
  131MOL0     C17201   8.146   5.765   4.696 -0.1361 -0.2407 -0.6786
  131MOL0     C17202   8.111   5.751   4.546  0.2660 -0.1638 -0.4568
  131MOL0     C17203   8.024   5.629   4.526 -0.2173  0.5642  0.5351
  131MOL0    Cl17204   8.126   5.494   4.484 -0.3828 -0.1574  0.0092
  131MOL0     C17205   7.935   6.256   5.107 -0.3427 -0.0745 -0.3301
  131MOL0     C17206   7.805   6.269   5.155 -0.2262 -0.4983 -0.1306
  131MOL0     O17207   7.559   6.111   5.257 -0.2958  0.3663 -0.4297
  131MOL0     C17208   7.276   6.266   5.099 -0.0552 -0.6777 -0.1876
  131MOL0     C17209   7.135   6.240   5.078  0.0876 -0.2391  0.3380
  131MOL0     N17210   6.609   5.813   5.381  1.0578 -0.5248  0.4706
  131MOL0     N17211   6.682   5.728   5.441 -0.7873 -0.0784  0.2517
  131MOL0     C17212   7.679   4.732   5.152 -0.4786  0.1227  0.5014
  131MOL0     C17213   7.787   4.641   5.135 -0.3237  0.9564  0.3614
  131MOL0     C17214   8.020   4.233   5.183  0.1454  0.1023 -0.5774
  131MOL0     C17215   8.040   4.098   5.233 -0.1668 -0.3640 -0.0213
  131MOL0     C17216   8.152   4.029   5.191  0.0850  0.4444  1.3213
  131MOL0     C17217   8.253   4.090   5.114  0.6212  0.4235 -0.3461
  131MOL0     O17218   8.373   4.024   5.062  0.0367 -0.3374 -0.1121
  131MOL0     C17219   8.411   3.909   5.137 -0.5764 -0.4392 -0.2617
  131MOL0     C17220   8.558   3.882   5.099  0.0635  0.2015 -0.1375
  131MOL0     C17221   8.616   3.764   5.190 -0.2354  0.6353  0.6019
  131MOL0     C17222   8.759   3.727   5.162 -0.4192 -0.7674 -1.0423
  131MOL0     C17223   8.762   3.661   5.030  0.1345  0.7467  0.5674
  131MOL0     C17224   8.777   3.607   4.922  0.2862  0.8537  0.0258
  131MOL0     C17225   8.230   4.223   5.072 -0.8243  1.0634 -0.4730
  131MOL0     C17226   8.124   4.291   5.112 -0.2383 -0.6274 -0.0653
  131MOL0     H17227   7.732   4.436   5.391  3.4210 -1.3311 -1.4992
  131MOL0     H17228   7.549   4.592   5.434  0.8544  1.6416  0.3761
  131MOL0     H17229   7.394   4.897   5.168  1.6774 -1.1645 -1.1882
  131MOL0     H17230   7.548   4.992   5.189  1.0319 -1.5942 -1.0556
  131MOL0     H17231   7.480   5.080   5.390  0.2523  0.0604 -0.1613
  131MOL0     H17232   7.336   4.984   5.403 -0.5440 -0.0691 -0.6753
  131MOL0     H17233   7.260   5.096   5.170 -3.5340  1.7164  0.9793
  131MOL0     H17234   7.397   5.205   5.188 -0.4185 -0.4010 -0.4408
  131MOL0     H17235   7.170   5.165   5.391  1.5240 -1.9584 -0.1998
  131MOL0     H17236   7.312   5.275   5.404  0.0178 -1.1958 -0.6005
  131MOL0     H17237   7.079   5.295   5.200  2.5920  0.6230 -0.9605
  131MOL0     H17238   7.226   5.382   5.194  0.3778 -1.1294 -1.4773
  131MOL0     H17239   7.149   5.518   5.389  1.2234  0.3715  0.2805
  131MOL0     H17240   7.060   5.386   5.458  3.0037 -1.8646 -0.9658
  131MOL0     H17241   6.984   5.530   5.206 -1.0353 -1.8787 -0.8510
  131MOL0     H17242   6.875   5.419   5.299 -0.7200  0.2287 -1.0337
  131MOL0     H17243   6.989   5.685   5.415  0.6457 -2.0878  2.0792
  131MOL0     H17244   6.900   5.573   5.500  1.6349  1.8211 -0.1295
  131MOL0     H17245   6.815   5.723   5.141  2.1307  1.9473  0.1353
  131MOL0     H17246   6.506   5.971   5.182 -2.5078 -1.0951 -2.7460
  131MOL0     H17247   6.558   5.859   5.054  2.2581 -0.0715 -1.0491
  131MOL0     H17248   6.679   6.037   4.986 -1.3232 -0.2930  0.3299
  131MOL0     H17249   6.793   5.952   5.079  0.9421  1.2234 -2.0441
  131MOL0     H17250   6.626   6.196   5.163  0.6894  0.9952 -0.4160
  131MOL0     H17251   6.733   6.107   5.277  0.5491  0.8811  0.5814
  131MOL0     H17252   6.853   6.298   5.172  0.7789  0.0320  0.6718
  131MOL0     H17253   6.848   6.214   5.015 -2.3028  1.0018  0.0879
  131MOL0     H17254   7.105   5.998   5.319  0.4825 -0.4389 -0.5041
  131MOL0     H17255   7.342   6.017   5.316  0.3810  1.0444  1.5751
  131MOL0     H17256   7.625   6.277   4.867 -1.1290 -0.1905  1.4636
  131MOL0     H17257   7.844   6.247   4.782 -0.1761 -1.5139 -0.2488
  131MOL0     H17258   8.085   6.391   4.783  0.3415 -0.5344  0.9406
  131MOL0     H17259   8.048   6.234   4.709  0.8726 -0.4266 -1.0784
  131MOL0     H17260   8.305   6.303   4.833 -1.2555 -0.1081  0.9587
  131MOL0     H17261   8.283   6.302   4.657 -0.0239 -1.2895 -0.9847
  131MOL0     H17262   8.296   6.082   4.868  0.5985 -0.6426  0.3674
  131MOL0     H17263   8.371   6.102   4.705 -0.4106 -1.3718  0.7134
  131MOL0     H17264   8.087   6.004   4.760  1.6742 -1.8627  3.1563
  131MOL0     H17265   8.150   6.025   4.603 -0.1605 -1.5861 -0.5155
  131MOL0     H17266   8.288   5.870   4.824 -1.4976 -0.1355  0.1588
  131MOL0     H17267   8.326   5.859   4.652 -1.9913  1.4806 -1.1441
  131MOL0     H17268   8.058   5.790   4.756  2.0101  0.2206  2.4765
  131MOL0     H17269   8.189   5.674   4.738 -1.4584 -0.3602  0.4855
  131MOL0     H17270   8.059   5.838   4.505 -0.8579 -0.3029  0.6334
  131MOL0     H17271   8.199   5.747   4.481  0.1116  0.2182 -0.6972
  131MOL0     H17272   7.945   5.646   4.453  0.6021  0.1827 -0.4664
  131MOL0     H17273   7.966   5.613   4.617 -0.9058  2.4630  0.4697
  131MOL0     H17274   8.017   6.247   5.177 -0.5884  1.3460  0.1820
  131MOL0     H17275   7.780   6.271   5.260 -1.1482 -0.5395 -0.3377
  131MOL0     H17276   7.324   6.352   5.052 -2.7657 -0.0739 -2.0705
  131MOL0     H17277   7.077   6.305   5.013  1.2841  0.3044 -0.2262
  131MOL0     H17278   7.664   4.818   5.088  1.2578 -0.6900 -1.1143
  131MOL0     H17279   7.860   4.662   5.057 -1.3453  1.0026 -0.6150
  131MOL0     H17280   7.965   4.054   5.298 -0.5629  2.1353  1.3291
  131MOL0     H17281   8.161   3.923   5.212  1.6843  0.6858  2.0060
  131MOL0     H17282   8.347   3.823   5.117 -2.7217  1.1097 -0.4843
  131MOL0     H17283   8.399   3.931   5.243 -1.2653  2.8941 -0.9111
  131MOL0     H17284   8.556   3.848   4.995  1.6933 -2.5335  0.6273
  131MOL0     H17285   8.623   3.970   5.108  1.9646 -0.8923 -2.1826
  131MOL0     H17286   8.551   3.676   5.183  0.1066  0.4954 -3.4689
  131MOL0     H17287   8.608   3.801   5.292  0.1093  1.6870  0.2653
  131MOL0     H17288   8.810   3.823   5.153 -1.0388  0.1806  3.4649
  131MOL0     H17289   8.810   3.674   5.243 -0.1155 -1.4915 -1.6985
  131MOL0     H17290   8.800   3.552   4.833  0.0776 -1.1792  1.1879
  131MOL0     H17291   8.302   4.270   5.006 -1.7033  1.5986 -1.0693
  131MOL0     H17292   8.104   4.391   5.073 -0.4125 -0.4973  0.3466
  132MOL0     O17293   0.356   2.488   2.689  0.8880 -0.4701 -0.6552
  132MOL0     C17294   0.387   2.426   2.792 -0.4990 -1.1304  0.2663
  132MOL0     O17295   0.300   2.379   2.888  0.5989  1.2915 -0.4184
  132MOL0     C17296   0.164   2.389   2.871  0.4227  0.0171 -0.1598
  132MOL0     C17297   0.082   2.278   2.861 -0.6465 -0.3020 -0.2063
  132MOL0     C17298  -0.056   2.292   2.870 -0.0336 -0.1752  0.0731
  132MOL0     C17299  -0.113   2.416   2.873 -0.3486  0.8232 -0.8012
  132MOL0     O17300  -0.252   2.434   2.878  0.4421 -0.0824 -0.3625
  132MOL0     C17301  -0.328   2.341   2.809 -0.2953 -0.7752  0.4727
  132MOL0     C17302  -0.401   2.250   2.903  0.3382 -0.1510  0.0693
  132MOL0     C17303  -0.512   2.152   2.830 -0.4579 -0.5298  0.3045
  132MOL0     C17304  -0.573   2.052   2.920 -0.8561  0.5484  0.2950
  132MOL0     C17305  -0.695   1.981   2.861  0.3213  0.4425  0.6399
  132MOL0     C17306  -0.754   1.890   2.972 -1.2096  0.3938  0.3890
  132MOL0     C17307  -0.890   1.831   2.940  0.3659 -0.3823 -0.5631
  132MOL0     C17308  -0.946   1.735   3.056 -0.8593  1.1242  0.3265
  132MOL0     N17309  -1.093   1.712   3.043 -0.5616 -0.4591  0.6864
  132MOL0     C17310  -1.162   1.622   3.118  0.5130  0.7888 -0.0738
  132MOL0     C17311  -1.295   1.619   3.073 -0.7198 -0.6121 -0.9810
  132MOL0     C17312  -1.404   1.565   3.161 -0.1911  0.4622  1.2279
  132MOL0     C17313  -1.502   1.493   3.069 -0.0861  0.0249 -0.1812
  132MOL0     C17314  -1.579   1.381   3.144  0.5662  0.2615  0.3913
  132MOL0     C17315  -1.702   1.437   3.226  0.1359  0.0227 -0.1786
  132MOL0     O17316  -1.761   1.339   3.314 -1.0896 -0.6682 -0.3196
  132MOL0     C17317  -1.874   1.367   3.386 -0.5105  0.2728 -0.6974
  132MOL0     C17318  -1.948   1.486   3.382 -0.5665 -0.1449  0.4283
  132MOL0     C17319  -2.062   1.496   3.452  0.6398  1.0804 -0.1882
  132MOL0     C17320  -2.108   1.393   3.545 -0.1741  0.5919 -0.0396
  132MOL0     C17321  -2.232   1.394   3.610 -0.6411  0.9123 -0.3902
  132MOL0     O17322  -2.320   1.470   3.550  0.2453  0.1544  0.6458
  132MOL0     C17323  -2.451   1.491   3.592 -0.2534 -0.5751 -0.3247
  132MOL0     C17324  -2.513   1.615   3.560 -0.0509  1.3587  0.3197
  132MOL0     C17325  -2.647   1.644   3.589  0.5367  0.4563 -0.8045
  132MOL0     C17326  -2.725   1.548   3.656  0.4157  0.0044  0.2090
  132MOL0     O17327  -2.855   1.588   3.672  0.5474  0.2719 -0.4916
  132MOL0     C17328  -2.932   1.511   3.774 -0.6393 -1.6778 -0.1084
  132MOL0     C17329  -3.083   1.536   3.780  0.0574 -0.7902  0.0350
  132MOL0     C17330  -3.130   1.669   3.837 -0.5326  0.0097 -0.6688
  132MOL0     C17331  -3.273   1.694   3.811 -0.4058  0.4939  0.2162
  132MOL0     C17332  -3.370   1.594   3.883 -0.0293 -0.4464  0.1426
  132MOL0     C17333  -3.516   1.648   3.879 -0.3824 -0.4255 -0.0604
  132MOL0     C17334  -3.572   1.650   3.734 -0.4510  0.6808 -0.1926
  132MOL0     C17335  -3.721   1.611   3.723  0.4484  0.6438 -0.4625
  132MOL0    Cl17336  -3.731   1.434   3.752  0.2694  0.1286  0.3549
  132MOL0     C17337  -2.671   1.423   3.685  0.4059 -0.8175  0.7699
  132MOL0     C17338  -2.540   1.391   3.644  0.2221  0.3827  0.2694
  132MOL0     O17339  -2.250   1.330   3.715  0.1664  0.4733 -0.6091
  132MOL0     C17340  -2.025   1.281   3.550  0.0831 -0.0756  0.3682
  132MOL0     C17341  -1.917   1.265   3.466 -0.0275 -0.8802  1.0245
  132MOL0     N17342  -1.296   1.706   2.961  0.1185 -0.4321 -1.1397
  132MOL0     N17343  -1.178   1.757   2.945  0.2519  0.5658  0.7242
  132MOL0     C17344  -0.037   2.525   2.877  0.3850  0.9498  0.7750
  132MOL0     C17345   0.103   2.520   2.872 -0.0472  0.3556  0.2983
  132MOL0     C17346   0.536   2.419   2.816 -0.3193 -0.2455 -0.2493
  132MOL0     C17347   0.634   2.505   2.759  0.2121  0.5504 -0.1465
  132MOL0     C17348   0.768   2.522   2.813 -0.0015 -0.3656 -0.1265
  132MOL0     C17349   0.800   2.428   2.912  0.0827 -0.3378 -0.1169
  132MOL0     O17350   0.932   2.422   2.971  0.4498  0.1294  0.6385
  132MOL0     C17351   1.045   2.492   2.919 -0.8673  0.4139  0.0532
  132MOL0     C17352   1.165   2.468   3.012 -0.6454 -0.2105  0.3842
  132MOL0     C17353   1.147   2.565   3.134  0.3403 -0.3892 -0.2106
  132MOL0     C17354   1.267   2.546   3.225 -0.0164  0.3535  0.1513
  132MOL0     C17355   1.362   2.662   3.204  1.2194  0.2905  0.8910
  132MOL0     C17356   1.444   2.750   3.180 -1.3741  0.1016 -0.0076
  132MOL0     C17357   0.713   2.337   2.968  0.1914 -0.0137  0.1725
  132MOL0     C17358   0.578   2.339   2.924  0.7271  0.5604  0.0632
  132MOL0     H17359   0.128   2.180   2.873 -0.1621 -0.0305  0.1844
  132MOL0     H17360  -0.115   2.201   2.872 -0.1781 -0.0979 -0.5424
  132MOL0     H17361  -0.271   2.270   2.749 -0.7196 -2.4083  1.9206
  132MOL0     H17362  -0.406   2.390   2.749  0.3751  0.4957  0.6029
  132MOL0     H17363  -0.456   2.302   2.982 -1.2484 -0.6043 -0.6992
  132MOL0     H17364  -0.328   2.182   2.948 -0.9013 -0.1740  2.1890
  132MOL0     H17365  -0.452   2.105   2.752 -2.0813  2.4225 -3.0211
  132MOL0     H17366  -0.583   2.216   2.778  0.3963 -2.0356 -2.9646
  132MOL0     H17367  -0.493   1.980   2.943 -0.8173  0.8402  1.1265
  132MOL0     H17368  -0.603   2.109   3.009 -2.1999 -3.5467  2.7069
  132MOL0     H17369  -0.670   1.923   2.772 -3.0900  2.0588 -1.5701
  132MOL0     H17370  -0.759   2.061   2.822  4.2542  2.7600 -1.7492
  132MOL0     H17371  -0.755   1.955   3.060  1.5049  1.7939 -0.4866
  132MOL0     H17372  -0.683   1.808   2.986 -0.4812  0.0357 -3.9275
  132MOL0     H17373  -0.957   1.917   2.934 -2.3684 -2.0191  2.8319
  132MOL0     H17374  -0.888   1.785   2.841 -1.5359 -0.6437 -0.5044
  132MOL0     H17375  -0.931   1.788   3.150  2.1951  1.0930 -0.0598
  132MOL0     H17376  -0.886   1.643   3.052 -1.3865  0.7668  0.3916
  132MOL0     H17377  -1.131   1.572   3.209  0.0903  0.3980 -0.1418
  132MOL0     H17378  -1.458   1.650   3.203 -0.2099  1.4522 -0.6906
  132MOL0     H17379  -1.371   1.494   3.238  0.8140 -2.0794 -1.3379
  132MOL0     H17380  -1.444   1.448   2.988  0.8737 -0.5633  0.8178
  132MOL0     H17381  -1.567   1.569   3.024  3.8353  2.9302 -1.4818
  132MOL0     H17382  -1.624   1.304   3.080  1.1057 -1.1475  1.6592
  132MOL0     H17383  -1.508   1.330   3.209 -1.1041 -0.7173  1.5103
  132MOL0     H17384  -1.769   1.457   3.143  0.7887 -2.1204 -1.3101
  132MOL0     H17385  -1.670   1.524   3.284  2.5591 -1.7464  1.3657
  132MOL0     H17386  -1.918   1.577   3.332  1.4199 -0.0724  1.6217
  132MOL0     H17387  -2.120   1.588   3.451 -0.9742  0.1139  0.2919
  132MOL0     H17388  -2.457   1.689   3.504 -2.6792  1.5562 -2.3140
  132MOL0     H17389  -2.685   1.741   3.558  0.0945 -0.0177 -1.7926
  132MOL0     H17390  -2.896   1.539   3.873  0.8703  0.8652 -1.2806
  132MOL0     H17391  -2.928   1.405   3.750 -0.0607 -2.0333  1.4500
  132MOL0     H17392  -3.118   1.466   3.857  1.4860  1.9622  3.4929
  132MOL0     H17393  -3.128   1.523   3.682  0.2271  1.8934 -0.4947
  132MOL0     H17394  -3.068   1.748   3.793 -1.1137 -0.6330 -2.7663
  132MOL0     H17395  -3.119   1.666   3.946 -2.4216  2.2177 -0.3304
  132MOL0     H17396  -3.285   1.795   3.850 -0.3126  0.1471  1.1551
  132MOL0     H17397  -3.293   1.704   3.704  0.3291  1.7858  0.1773
  132MOL0     H17398  -3.342   1.577   3.987 -1.5532  0.2388  0.7022
  132MOL0     H17399  -3.376   1.499   3.829  0.1447 -1.4127  1.7578
  132MOL0     H17400  -3.524   1.747   3.924 -2.4181  0.3468 -1.9196
  132MOL0     H17401  -3.578   1.579   3.936  0.3286  1.9097  3.8944
  132MOL0     H17402  -3.555   1.754   3.702  1.1835  0.0838 -1.4089
  132MOL0     H17403  -3.521   1.590   3.659 -1.6936 -0.4167 -0.2011
  132MOL0     H17404  -3.758   1.627   3.622  1.9722 -0.0834 -1.1805
  132MOL0     H17405  -3.774   1.674   3.795 -1.4881 -0.3588 -0.9433
  132MOL0     H17406  -2.722   1.342   3.736 -0.3777  0.3981  2.0082
  132MOL0     H17407  -2.499   1.290   3.648  1.0462  0.7445  1.2557
  132MOL0     H17408  -2.049   1.201   3.619  1.7270 -0.4229  0.5985
  132MOL0     H17409  -1.852   1.178   3.464  1.1950  0.0083  1.0107
  132MOL0     H17410  -0.086   2.621   2.865  1.4214  1.4777  0.6897
  132MOL0     H17411   0.152   2.615   2.855 -0.1746  0.3097 -0.3595
  132MOL0     H17412   0.616   2.574   2.677  0.8325 -0.6760 -1.3539
  132MOL0     H17413   0.835   2.589   2.761  3.1382 -3.2122 -0.0853
  132MOL0     H17414   1.027   2.600   2.911 -4.1055 -0.0428 -0.2730
  132MOL0     H17415   1.065   2.442   2.824  0.8957 -0.1137  0.6748
  132MOL0     H17416   1.167   2.361   3.037 -1.3686 -0.1735  0.6310
  132MOL0     H17417   1.257   2.488   2.957 -0.5532  0.8931  0.9120
  132MOL0     H17418   1.053   2.528   3.177 -0.2819  0.5747 -0.6888
  132MOL0     H17419   1.126   2.671   3.115  1.4888 -0.3279 -1.1908
  132MOL0     H17420   1.226   2.538   3.326 -1.5245 -2.7530 -0.5999
  132MOL0     H17421   1.326   2.455   3.214  2.4544  1.8007  0.7724
  132MOL0     H17422   1.521   2.812   3.140 -1.9070  0.5322 -0.3778
  132MOL0     H17423   0.757   2.285   3.052  0.6027  0.8686  0.5156
  132MOL0     H17424   0.510   2.278   2.981 -1.3225  3.7398  1.3206
  133MOL0     O17425   5.736   8.096   6.071  0.0869 -0.3524  0.2208
  133MOL0     C17426   5.786   8.002   6.018 -0.8787 -0.1790 -0.6431
  133MOL0     O17427   5.733   7.925   5.915  0.1752  0.6918 -0.9663
  133MOL0     C17428   5.616   7.957   5.864  0.3461  0.5435  0.8701
  133MOL0     C17429   5.495   7.891   5.907  0.0334 -0.2770 -0.3003
  133MOL0     C17430   5.372   7.931   5.844 -0.4993  0.5504  0.0037
  133MOL0     C17431   5.366   8.032   5.752 -0.0323 -0.0857 -0.0089
  133MOL0     O17432   5.250   8.054   5.684  0.9164 -0.5842  0.1240
  133MOL0     C17433   5.222   7.957   5.584  0.1501  0.4558 -0.1622
  133MOL0     C17434   5.178   8.032   5.454  0.8180  0.4265  0.2517
  133MOL0     C17435   5.034   8.087   5.476 -0.4567  0.4450  0.7646
  133MOL0     C17436   4.925   7.981   5.457 -0.4248  0.5623  0.0392
  133MOL0     C17437   4.781   8.032   5.453 -0.1445 -0.0935 -0.0620
  133MOL0     C17438   4.695   7.947   5.364  1.0094 -0.0056  0.4697
  133MOL0     C17439   4.544   7.999   5.376 -0.2199 -0.1794 -0.2555
  133MOL0     C17440   4.439   7.918   5.302  0.2095  0.5963  0.1024
  133MOL0     N17441   4.478   7.904   5.161  0.0273  0.4805 -0.7533
  133MOL0     C17442   4.459   8.000   5.062  0.0667 -0.5205 -0.0361
  133MOL0     C17443   4.529   7.950   4.955  1.2354  0.9174  0.1051
  133MOL0     C17444   4.518   8.013   4.818 -0.2727  0.3243 -0.4060
  133MOL0     C17445   4.602   8.143   4.815 -0.2332  0.0980  0.2076
  133MOL0     C17446   4.750   8.107   4.832  1.1162  0.4091 -0.7826
  133MOL0     C17447   4.832   8.244   4.860  0.0947  0.5892  0.9876
  133MOL0     O17448   4.969   8.206   4.817 -0.1630 -0.0601 -0.2053
  133MOL0     C17449   5.035   8.306   4.753 -0.8174 -0.6259  0.2327
  133MOL0     C17450   5.104   8.396   4.837  0.3075 -0.5476  1.0323
  133MOL0     C17451   5.181   8.500   4.779 -0.7118 -0.5967  0.1630
  133MOL0     C17452   5.198   8.515   4.644 -1.3143 -0.3531 -0.6859
  133MOL0     C17453   5.290   8.617   4.594  0.4498  0.1749 -0.3540
  133MOL0     O17454   5.346   8.712   4.678  0.8842  0.7146  0.8023
  133MOL0     C17455   5.424   8.808   4.624  0.3752 -0.4657 -0.5265
  133MOL0     C17456   5.374   8.922   4.562  0.2904 -0.1497  0.7265
  133MOL0     C17457   5.458   9.010   4.503 -0.0167 -0.8662  0.4794
  133MOL0     C17458   5.598   8.999   4.515 -0.0008 -0.0642  0.3174
  133MOL0     O17459   5.674   9.098   4.464 -0.7629 -0.2293 -0.2160
  133MOL0     C17460   5.803   9.066   4.419 -0.6654 -0.4016 -0.0051
  133MOL0     C17461   5.864   9.189   4.350 -0.5952  0.6499 -0.7614
  133MOL0     C17462   5.864   9.314   4.430  0.1851  0.3443  0.3200
  133MOL0     C17463   5.910   9.305   4.575  0.7837  0.0324 -0.0902
  133MOL0     C17464   5.966   9.437   4.633  0.2346 -0.4303 -0.5078
  133MOL0     C17465   5.859   9.547   4.630 -0.1686 -0.2570  0.3898
  133MOL0     C17466   5.922   9.680   4.675  0.2423  0.2836 -0.0062
  133MOL0     C17467   5.973   9.691   4.817  0.6967  0.0314  0.2217
  133MOL0    Cl17468   5.859   9.648   4.944 -0.1954  0.2800 -0.0537
  133MOL0     C17469   5.647   8.881   4.570 -0.4538  0.0866 -0.5365
  133MOL0     C17470   5.561   8.787   4.621 -0.1152  0.8907  0.5172
  133MOL0     O17471   5.306   8.606   4.472  0.4154 -0.3474  0.4040
  133MOL0     C17472   5.131   8.425   4.561 -0.1111 -0.8117  0.4425
  133MOL0     C17473   5.036   8.332   4.610 -0.7085 -0.4551  0.7400
  133MOL0     N17474   4.579   7.828   4.986 -0.4627 -0.3178  0.3583
  133MOL0     N17475   4.545   7.797   5.105 -0.2805  0.7233 -0.2288
  133MOL0     C17476   5.485   8.088   5.713 -0.2416  0.2845  0.1515
  133MOL0     C17477   5.613   8.056   5.769  0.0302 -0.1128 -0.1523
  133MOL0     C17478   5.926   7.971   6.060 -0.2808 -0.9439 -0.7913
  133MOL0     C17479   5.987   7.848   6.030 -0.5625 -0.2939 -0.8433
  133MOL0     C17480   6.117   7.825   6.073  0.7930 -0.4957 -0.1285
  133MOL0     C17481   6.186   7.923   6.141  0.1438 -0.6160 -0.2076
  133MOL0     O17482   6.308   7.881   6.174  0.3748 -0.3220 -0.4738
  133MOL0     C17483   6.389   7.981   6.250 -0.1792 -0.4733  0.5547
  133MOL0     C17484   6.529   7.928   6.279 -0.3182 -0.0817  0.4846
  133MOL0     C17485   6.614   8.045   6.326  0.4157 -0.4683 -0.0416
  133MOL0     C17486   6.764   7.996   6.354 -0.5060  0.7808  0.0282
  133MOL0     C17487   6.860   8.110   6.378 -0.7576 -0.0602 -0.2268
  133MOL0     C17488   6.938   8.203   6.400  0.1077 -0.1751  0.6915
  133MOL0     C17489   6.128   8.047   6.167 -0.4558  0.1990  0.1259
  133MOL0     C17490   5.998   8.074   6.125  0.1223 -0.0075 -0.2691
  133MOL0     H17491   5.494   7.805   5.974  0.9704 -0.7813 -0.9208
  133MOL0     H17492   5.279   7.879   5.861 -1.0306  1.7672  0.9754
  133MOL0     H17493   5.141   7.887   5.606  1.5172 -1.9646 -2.2485
  133MOL0     H17494   5.316   7.906   5.562 -0.4105 -0.3595 -0.7283
  133MOL0     H17495   5.184   7.977   5.359  0.0639  2.6841 -1.1824
  133MOL0     H17496   5.242   8.120   5.446 -0.1945  1.0945 -0.8461
  133MOL0     H17497   5.025   8.157   5.393  3.5899  0.0699 -0.2017
  133MOL0     H17498   5.025   8.142   5.570 -2.4824  3.3664 -0.9720
  133MOL0     H17499   4.953   7.933   5.363 -0.7320  1.4960 -0.5435
  133MOL0     H17500   4.926   7.902   5.533 -0.9387  0.9687  0.4772
  133MOL0     H17501   4.787   8.134   5.415  0.7153 -0.1428 -0.0814
  133MOL0     H17502   4.738   8.032   5.554  2.9863 -0.3947  1.3971
  133MOL0     H17503   4.708   7.840   5.382  1.2363 -0.2431 -1.0344
  133MOL0     H17504   4.724   7.972   5.262  3.8452 -0.7855  1.0073
  133MOL0     H17505   4.520   8.000   5.483 -1.3171 -2.0644 -0.4320
  133MOL0     H17506   4.544   8.102   5.340  2.5453  0.1526  0.4643
  133MOL0     H17507   4.341   7.962   5.322  0.5382  1.1599  0.5058
  133MOL0     H17508   4.438   7.817   5.345 -2.3766  0.4481 -0.1474
  133MOL0     H17509   4.419   8.101   5.063  0.5938 -0.2789 -1.7522
  133MOL0     H17510   4.414   8.030   4.791  0.1746 -0.5681 -2.9059
  133MOL0     H17511   4.553   7.939   4.745 -0.7206  0.0871 -0.3792
  133MOL0     H17512   4.561   8.215   4.887 -0.5596  0.7886 -0.6519
  133MOL0     H17513   4.597   8.189   4.716 -1.7748  1.2732  0.7845
  133MOL0     H17514   4.752   8.042   4.920  1.4488 -1.8987 -2.4025
  133MOL0     H17515   4.790   8.058   4.743 -0.1293 -0.6769 -0.7706
  133MOL0     H17516   4.840   8.273   4.965 -2.1828  0.3458  1.2842
  133MOL0     H17517   4.791   8.331   4.808 -2.5503 -1.7398 -1.2007
  133MOL0     H17518   5.083   8.376   4.941 -1.1188 -2.0817  0.4973
  133MOL0     H17519   5.247   8.566   4.834  1.0184  0.6739 -3.1565
  133MOL0     H17520   5.268   8.937   4.543 -0.3185 -3.6563  0.6035
  133MOL0     H17521   5.417   9.094   4.448 -1.4463 -2.2372 -0.6359
  133MOL0     H17522   5.789   8.986   4.346 -0.4964  2.8282 -3.9477
  133MOL0     H17523   5.866   9.037   4.503  0.0905  2.7299  0.6460
  133MOL0     H17524   5.818   9.209   4.253  1.0435  1.6519 -1.3723
  133MOL0     H17525   5.959   9.141   4.325  0.1178  0.5284  1.9034
  133MOL0     H17526   5.765   9.360   4.434  0.9815  2.0102  1.7826
  133MOL0     H17527   5.927   9.380   4.369  1.4473 -0.7132  0.4173
  133MOL0     H17528   5.827   9.272   4.638  0.2656 -0.6431 -1.0982
  133MOL0     H17529   5.986   9.226   4.585  1.2346  0.3301 -0.9710
  133MOL0     H17530   6.055   9.467   4.578 -0.7227  1.9217 -0.8719
  133MOL0     H17531   5.982   9.413   4.738  0.7382  3.9126  0.5840
  133MOL0     H17532   5.773   9.515   4.690 -2.5496  3.8297 -0.4785
  133MOL0     H17533   5.816   9.554   4.529 -2.3550  1.8822  1.3714
  133MOL0     H17534   6.010   9.695   4.612  0.5112 -0.8663  0.0670
  133MOL0     H17535   5.846   9.759   4.666  0.0384 -0.0063 -0.8989
  133MOL0     H17536   5.994   9.799   4.819  1.1752  0.1982 -4.1202
  133MOL0     H17537   6.069   9.641   4.832  0.3063 -0.6886  0.3676
  133MOL0     H17538   5.751   8.850   4.574 -0.9566 -1.6805  0.1234
  133MOL0     H17539   5.594   8.690   4.658 -0.7720  0.3183 -0.3697
  133MOL0     H17540   5.155   8.419   4.456  0.4613 -0.1657  0.5269
  133MOL0     H17541   4.973   8.268   4.550  1.1031  1.0070 -3.0997
  133MOL0     H17542   5.480   8.168   5.640 -1.9052 -0.9550 -1.1644
  133MOL0     H17543   5.685   8.112   5.711 -0.3037 -1.4759 -1.9776
  133MOL0     H17544   5.928   7.773   5.978 -1.7685 -0.0814  0.1932
  133MOL0     H17545   6.168   7.734   6.044  0.7972 -0.7415  0.6186
  133MOL0     H17546   6.334   7.997   6.343 -0.5423 -0.6952  0.3817
  133MOL0     H17547   6.391   8.073   6.192  2.2672 -1.2578 -0.7305
  133MOL0     H17548   6.533   7.849   6.355  0.4495 -1.3010 -0.7651
  133MOL0     H17549   6.562   7.894   6.181  0.2695  1.2884  0.1858
  133MOL0     H17550   6.583   8.086   6.422  0.0476 -0.3049 -0.2259
  133MOL0     H17551   6.603   8.123   6.250 -0.5144  1.3275  1.8546
  133MOL0     H17552   6.760   7.927   6.438  0.1065  3.3416  2.3049
  133MOL0     H17553   6.806   7.945   6.267 -1.2088 -1.1767  0.7769
  133MOL0     H17554   7.012   8.281   6.404 -0.0031 -0.1197  2.4559
  133MOL0     H17555   6.165   8.135   6.219  0.3648 -0.5903  0.9067
  133MOL0     H17556   5.945   8.164   6.156 -2.0836 -1.5215  0.5897
  134MOL0     O17557   8.672   4.998   6.647  0.2604 -1.1198  0.1462
  134MOL0     C17558   8.698   5.062   6.747 -0.1563  0.8272  0.0649
  134MOL0     O17559   8.647   5.032   6.873 -0.3935  0.3764 -0.9281
  134MOL0     C17560   8.538   4.948   6.874 -0.0286  0.3916 -0.2902
  134MOL0     C17561   8.412   4.991   6.836 -0.1005  0.2765 -0.3610
  134MOL0     C17562   8.306   4.907   6.844  0.3302 -0.4332 -0.4776
  134MOL0     C17563   8.328   4.769   6.861 -0.3849 -0.1595 -0.2969
  134MOL0     O17564   8.219   4.687   6.870  0.5146 -0.0806  0.1331
  134MOL0     C17565   8.188   4.629   6.997 -0.4766  0.5176  0.1289
  134MOL0     C17566   8.069   4.696   7.066 -0.5552 -0.3230  0.2103
  134MOL0     C17567   7.941   4.694   6.975 -0.7936 -0.3270  0.3666
  134MOL0     C17568   7.807   4.687   7.033  0.9231 -0.5689  0.2196
  134MOL0     C17569   7.698   4.657   6.923  0.7200  0.5030 -0.3846
  134MOL0     C17570   7.558   4.641   6.987  0.7152  0.1963  0.1988
  134MOL0     C17571   7.451   4.634   6.889  0.4894 -0.2486 -0.6941
  134MOL0     C17572   7.318   4.652   6.960  0.4901  1.4476  0.4518
  134MOL0     N17573   7.226   4.693   6.847 -0.5188  0.8497 -0.3266
  134MOL0     C17574   7.218   4.625   6.727 -0.6747  0.3673 -0.1425
  134MOL0     C17575   7.119   4.684   6.659 -0.1204 -0.8524 -0.3497
  134MOL0     C17576   7.073   4.654   6.525  0.2427 -0.6073  0.4959
  134MOL0     C17577   6.936   4.586   6.505  0.0722 -1.2616 -0.2243
  134MOL0     C17578   6.829   4.687   6.552  0.7940  0.1029  0.3790
  134MOL0     C17579   6.694   4.614   6.512 -0.7495  0.6755 -1.0483
  134MOL0     O17580   6.683   4.601   6.371  0.0595  0.2592 -0.4689
  134MOL0     C17581   6.577   4.513   6.332  0.1718  0.3278  0.3933
  134MOL0     C17582   6.483   4.451   6.415 -0.0932  0.1305 -0.0924
  134MOL0     C17583   6.386   4.358   6.371  0.0060 -0.8206 -0.5106
  134MOL0     C17584   6.376   4.329   6.230  0.1416  0.4935 -0.3745
  134MOL0     C17585   6.264   4.241   6.176  0.3984  0.5513  0.4690
  134MOL0     O17586   6.245   4.235   6.035  0.6217 -0.0861 -0.2919
  134MOL0     C17587   6.128   4.173   5.998 -0.8156  0.2664  1.4219
  134MOL0     C17588   6.132   4.037   5.953  0.7079  0.5246  0.2149
  134MOL0     C17589   6.012   3.977   5.908 -0.3115 -0.2095 -0.2812
  134MOL0     C17590   5.889   4.049   5.897 -0.6774 -0.4074 -0.6391
  134MOL0     O17591   5.770   3.983   5.866  0.1664 -0.3835  0.0865
  134MOL0     C17592   5.771   3.864   5.787  0.3680  0.1027  0.6176
  134MOL0     C17593   5.648   3.842   5.706 -0.6274 -0.3214  0.2132
  134MOL0     C17594   5.524   3.843   5.804 -0.6255  1.6640 -0.2084
  134MOL0     C17595   5.390   3.832   5.736  0.3668 -0.5484  0.0957
  134MOL0     C17596   5.270   3.804   5.832 -0.2660 -0.4568 -0.1271
  134MOL0     C17597   5.128   3.825   5.761  0.5214 -0.2154  0.4251
  134MOL0     C17598   5.099   3.722   5.648 -0.3492 -0.2176 -0.4004
  134MOL0     C17599   4.963   3.732   5.588 -0.3816 -0.5858  0.1770
  134MOL0    Cl17600   4.956   3.639   5.435  0.1085  0.3863  0.0059
  134MOL0     C17601   5.891   4.187   5.943  1.1438 -0.3078  0.4298
  134MOL0     C17602   6.010   4.246   5.989 -0.1535 -0.4228 -0.4743
  134MOL0     O17603   6.188   4.193   6.252  0.2745 -0.6428  0.0736
  134MOL0     C17604   6.468   4.385   6.148 -1.0427 -0.5646  0.0498
  134MOL0     C17605   6.568   4.475   6.196  0.1962 -0.2692 -0.3161
  134MOL0     N17606   7.075   4.794   6.734  0.9902  0.4836 -0.1285
  134MOL0     N17607   7.134   4.789   6.848 -0.3098  0.4606  0.1696
  134MOL0     C17608   8.459   4.725   6.885  0.1362 -0.0114  0.5447
  134MOL0     C17609   8.564   4.809   6.898  0.0927 -0.6045 -0.8388
  134MOL0     C17610   8.790   5.167   6.731 -0.5029 -0.4597 -0.4936
  134MOL0     C17611   8.871   5.186   6.609 -0.0669 -0.7041 -0.2895
  134MOL0     C17612   8.959   5.292   6.599 -0.2968 -1.2828 -0.1265
  134MOL0     C17613   8.986   5.371   6.713  0.3782  0.2318 -0.0848
  134MOL0     O17614   9.091   5.456   6.698  0.0877  0.6396 -0.4797
  134MOL0     C17615   9.196   5.424   6.789  0.2823  0.2842 -0.1090
  134MOL0     C17616   9.330   5.486   6.737  0.1720 -1.1322 -0.0027
  134MOL0     C17617   9.408   5.385   6.655  0.0988 -0.5703  0.2693
  134MOL0     C17618   9.539   5.329   6.719 -0.1554  0.3862 -0.2837
  134MOL0     C17619   9.650   5.410   6.662  0.2169 -0.2896  0.7498
  134MOL0     C17620   9.733   5.479   6.605 -0.7766  0.1506 -0.3860
  134MOL0     C17621   8.910   5.351   6.832 -0.1966 -0.8770 -0.3287
  134MOL0     C17622   8.813   5.249   6.839  0.3587  0.2797 -0.3524
  134MOL0     H17623   8.388   5.095   6.816 -1.2497  0.5340  1.9592
  134MOL0     H17624   8.205   4.946   6.835  1.1074  2.3416  1.4900
  134MOL0     H17625   8.273   4.646   7.063  2.2484 -0.3231 -2.8767
  134MOL0     H17626   8.172   4.522   6.985 -0.1457  0.3737  0.9485
  134MOL0     H17627   8.092   4.802   7.076  2.9574 -1.0941  1.9375
  134MOL0     H17628   8.055   4.649   7.164  0.8372  2.3592  1.8026
  134MOL0     H17629   7.945   4.609   6.906 -1.9583  0.7810 -1.1077
  134MOL0     H17630   7.940   4.785   6.915 -0.1016  2.1022  3.7088
  134MOL0     H17631   7.809   4.602   7.101 -0.0665  0.1029  1.1248
  134MOL0     H17632   7.778   4.776   7.091 -0.4646 -2.2301  2.2007
  134MOL0     H17633   7.734   4.577   6.856  1.6431  0.0366  0.6369
  134MOL0     H17634   7.707   4.744   6.857  1.4603 -1.3061 -2.8211
  134MOL0     H17635   7.543   4.732   7.045  1.5352  0.3069  0.2535
  134MOL0     H17636   7.567   4.557   7.057 -1.2264  0.1204  0.4030
  134MOL0     H17637   7.466   4.725   6.830  0.0050  0.2946  0.0023
  134MOL0     H17638   7.460   4.538   6.837 -2.3820 -2.0124  1.6643
  134MOL0     H17639   7.316   4.725   7.041  1.3509  0.7897  1.0699
  134MOL0     H17640   7.280   4.556   6.997  0.3035  2.1712  2.2400
  134MOL0     H17641   7.275   4.536   6.701 -1.7141 -0.3510 -0.0072
  134MOL0     H17642   7.147   4.594   6.471  1.7265  2.6750 -1.4245
  134MOL0     H17643   7.079   4.749   6.471 -0.8004 -0.1990  1.0706
  134MOL0     H17644   6.920   4.491   6.557 -0.3498 -1.1635 -0.1750
  134MOL0     H17645   6.948   4.563   6.398 -0.6968 -2.0728 -0.1510
  134MOL0     H17646   6.828   4.691   6.661  0.3442  0.1809  0.3725
  134MOL0     H17647   6.848   4.789   6.517  0.2007  0.1152  0.0837
  134MOL0     H17648   6.613   4.675   6.553  0.4904  1.2219  0.6799
  134MOL0     H17649   6.696   4.518   6.564 -0.2905  0.5103 -1.3585
  134MOL0     H17650   6.483   4.466   6.522 -1.0854  1.7795 -0.2858
  134MOL0     H17651   6.318   4.309   6.440  1.6618 -0.6683  1.3181
  134MOL0     H17652   6.223   3.977   5.952  0.8646  0.6338 -2.7648
  134MOL0     H17653   6.011   3.873   5.878 -1.4194 -0.2246 -0.2050
  134MOL0     H17654   5.779   3.776   5.851 -1.4126 -1.3940 -1.1019
  134MOL0     H17655   5.859   3.861   5.722  1.1059  1.4281  1.5034
  134MOL0     H17656   5.648   3.747   5.652  1.4375  0.1643 -0.7224
  134MOL0     H17657   5.657   3.925   5.635 -1.0531 -0.3824  0.0809
  134MOL0     H17658   5.533   3.935   5.862  0.8147  0.6052  1.3410
  134MOL0     H17659   5.528   3.760   5.875  1.1230  1.6214 -0.3279
  134MOL0     H17660   5.374   3.930   5.691 -2.8482 -0.8339  0.3948
  134MOL0     H17661   5.399   3.754   5.660 -0.3767 -0.7331  0.1874
  134MOL0     H17662   5.278   3.856   5.927  0.3360 -3.2568  1.4635
  134MOL0     H17663   5.281   3.699   5.862 -1.0741 -0.7294 -0.7331
  134MOL0     H17664   5.120   3.920   5.707  2.2943 -0.1168  0.2574
  134MOL0     H17665   5.046   3.813   5.832  0.6509  0.5240  0.7076
  134MOL0     H17666   5.166   3.734   5.563 -1.7099  1.4800 -1.2879
  134MOL0     H17667   5.105   3.622   5.693 -1.6918 -0.1579 -0.0392
  134MOL0     H17668   4.938   3.836   5.566  0.1514 -0.3948  0.4545
  134MOL0     H17669   4.889   3.705   5.663 -1.2543  1.3479  0.0686
  134MOL0     H17670   5.804   4.251   5.942  1.7423  0.5623  1.7052
  134MOL0     H17671   6.009   4.351   6.016  1.0156  0.4428 -3.3920
  134MOL0     H17672   6.477   4.338   6.050 -0.2972 -0.0300 -0.1435
  134MOL0     H17673   6.623   4.519   6.114  0.5355  0.0242  0.0633
  134MOL0     H17674   8.493   4.625   6.913  2.4843  0.4328 -0.4542
  134MOL0     H17675   8.654   4.769   6.942  0.2187  0.8068  0.2698
  134MOL0     H17676   8.860   5.120   6.524  1.2103 -1.7378  0.3083
  134MOL0     H17677   9.027   5.303   6.515  0.2546 -0.5937  0.4046
  134MOL0     H17678   9.212   5.321   6.821  0.4531 -1.0463 -3.9667
  134MOL0     H17679   9.168   5.474   6.882 -0.0879  0.6135 -0.3964
  134MOL0     H17680   9.308   5.580   6.685 -3.0905 -0.1865  2.6778
  134MOL0     H17681   9.392   5.520   6.820  0.9590 -0.9608 -0.6563
  134MOL0     H17682   9.434   5.424   6.556  1.3133 -0.9709  0.4230
  134MOL0     H17683   9.339   5.303   6.633 -2.8588  1.9372 -0.6425
  134MOL0     H17684   9.541   5.339   6.828 -2.1875 -1.2425 -0.0280
  134MOL0     H17685   9.553   5.228   6.678  0.3200  0.2835  0.1259
  134MOL0     H17686   9.799   5.551   6.562 -1.4306  0.6387 -0.5993
  134MOL0     H17687   8.937   5.407   6.921 -2.6826 -0.7716  0.4101
  134MOL0     H17688   8.774   5.223   6.937  0.2652  0.6907 -0.2760
  135MOL0     O17689   7.773   5.150  11.098 -0.5452  1.1550 -0.4251
  135MOL0     C17690   7.666   5.161  11.050  0.3751 -0.9863 -0.4370
  135MOL0     O17691   7.641   5.180  10.914 -0.0134  0.1502  0.3629
  135MOL0     C17692   7.754   5.183  10.833 -0.0351 -0.2954  0.4735
  135MOL0     C17693   7.737   5.137  10.700  0.1066 -1.2968 -0.6102
  135MOL0     C17694   7.848   5.125  10.620 -0.8076  0.1650  0.4519
  135MOL0     C17695   7.980   5.156  10.658 -0.5527  0.5024  0.3336
  135MOL0     O17696   8.083   5.132  10.570  0.0934 -0.1839 -0.0878
  135MOL0     C17697   8.206   5.099  10.623 -0.1554  0.8667  0.8907
  135MOL0     C17698   8.268   5.025  10.506 -0.1216 -0.8278 -0.6662
  135MOL0     C17699   8.385   4.950  10.560 -1.3117  0.2409 -0.3839
  135MOL0     C17700   8.505   5.025  10.606  0.2933  0.3854 -0.4161
  135MOL0     C17701   8.612   4.935  10.659  0.2947 -0.0816  0.1130
  135MOL0     C17702   8.739   5.014  10.673  0.0508 -0.1469 -1.1113
  135MOL0     C17703   8.853   4.923  10.738  0.1628 -1.7515  1.1493
  135MOL0     C17704   8.989   4.979  10.717  0.5610 -0.4184  0.2915
  135MOL0     N17705   9.017   5.122  10.746  0.2970  0.0890 -0.6229
  135MOL0     C17706   8.988   5.170  10.869  0.2810 -0.7464 -0.4184
  135MOL0     C17707   8.971   5.303  10.844  0.1426  0.4747 -0.9328
  135MOL0     C17708   8.924   5.394  10.953 -0.3061  0.4242  0.4294
  135MOL0     C17709   8.771   5.381  10.959 -0.4585 -0.6095 -0.4260
  135MOL0     C17710   8.728   5.279  11.068 -0.6532 -0.7448  0.8833
  135MOL0     C17711   8.577   5.245  11.074  0.0761 -0.4897 -0.6899
  135MOL0     O17712   8.503   5.353  11.132  0.4139 -0.1273 -0.9069
  135MOL0     C17713   8.380   5.331  11.193  1.0888 -0.1749  0.8418
  135MOL0     C17714   8.332   5.411  11.300  0.6524  0.5487 -0.1195
  135MOL0     C17715   8.216   5.370  11.367  0.0687 -0.9075  0.4413
  135MOL0     C17716   8.118   5.281  11.300  0.0067 -0.0033  0.1539
  135MOL0     C17717   7.992   5.261  11.372 -0.0485  1.2580  0.2088
  135MOL0     O17718   7.951   5.371  11.442 -1.1178  0.0496  0.6063
  135MOL0     C17719   7.847   5.350  11.528  0.3053  0.1416 -0.3170
  135MOL0     C17720   7.714   5.368  11.486  0.3027  0.5555 -0.0156
  135MOL0     C17721   7.611   5.354  11.578  0.2336  0.6248 -0.9293
  135MOL0     C17722   7.638   5.309  11.708 -0.2305 -0.1690 -0.3908
  135MOL0     O17723   7.541   5.310  11.800 -0.0953 -0.7748  0.0259
  135MOL0     C17724   7.502   5.452  11.824 -0.0432 -0.1842  0.0214
  135MOL0     C17725   7.423   5.444  11.957  0.2916  0.0925  0.0384
  135MOL0     C17726   7.319   5.556  11.970 -0.3568  0.1883  0.7244
  135MOL0     C17727   7.208   5.542  11.862  0.2542  0.2450 -0.6651
  135MOL0     C17728   7.069   5.602  11.902  0.7089  0.5088  0.0122
  135MOL0     C17729   7.005   5.508  12.002 -0.2856  0.0828  0.0641
  135MOL0     C17730   6.857   5.525  12.014  0.0487 -0.4842 -1.1172
  135MOL0     C17731   6.799   5.460  12.136 -0.3630  0.3557  0.2462
  135MOL0    Cl17732   6.817   5.286  12.129  0.1051 -0.1839 -0.2906
  135MOL0     C17733   7.768   5.273  11.740  1.1939  0.8284  0.0674
  135MOL0     C17734   7.866   5.310  11.659 -0.3725  0.5132 -0.2036
  135MOL0     O17735   7.937   5.149  11.370 -0.0178 -0.4776  0.1929
  135MOL0     C17736   8.167   5.207  11.195  0.8793 -0.6255 -0.2361
  135MOL0     C17737   8.293   5.238  11.139 -0.8795 -0.5234  0.4910
  135MOL0     N17738   9.015   5.337  10.714 -0.5666  0.1539 -0.8564
  135MOL0     N17739   9.035   5.221  10.654 -0.3799  0.1780 -0.7824
  135MOL0     C17740   7.992   5.205  10.787 -0.1192  0.2365 -0.3663
  135MOL0     C17741   7.883   5.230  10.867  0.1283 -0.4895  0.6117
  135MOL0     C17742   7.559   5.169  11.139 -0.7927  0.0561 -0.1396
  135MOL0     C17743   7.576   5.140  11.273  1.0529  0.0662  0.5769
  135MOL0     C17744   7.469   5.154  11.366 -0.6085  0.7145  0.8466
  135MOL0     C17745   7.351   5.203  11.322 -0.5367  0.3288 -0.6584
  135MOL0     O17746   7.245   5.218  11.413 -0.1720 -1.0313  0.3946
  135MOL0     C17747   7.112   5.269  11.376 -0.2414  0.6317  0.6681
  135MOL0     C17748   7.096   5.417  11.359 -0.3646 -0.3567 -0.0026
  135MOL0     C17749   6.952   5.462  11.312 -0.2141  0.0543 -0.3238
  135MOL0     C17750   6.884   5.384  11.205  0.0937  0.2913 -0.5621
  135MOL0     C17751   6.961   5.364  11.079 -0.4757  0.4663 -1.3567
  135MOL0     C17752   7.023   5.320  10.991 -0.5940  0.3318  0.1370
  135MOL0     C17753   7.338   5.243  11.188  0.2283  0.6022  0.3772
  135MOL0     C17754   7.436   5.223  11.097 -0.8553  0.2590  0.2656
  135MOL0     H17755   7.643   5.097  10.662 -0.2641 -0.1008 -1.0002
  135MOL0     H17756   7.837   5.077  10.523 -0.8254 -0.7604  0.8982
  135MOL0     H17757   8.196   5.045  10.717  2.4492  0.7041  1.1465
  135MOL0     H17758   8.265   5.190  10.634 -0.1779  0.9861  0.0803
  135MOL0     H17759   8.290   5.112  10.445 -0.0735  1.6617  2.6352
  135MOL0     H17760   8.194   4.959  10.461 -1.5397  1.3734 -1.6993
  135MOL0     H17761   8.411   4.876  10.483 -0.6548 -1.1078  1.0776
  135MOL0     H17762   8.352   4.887  10.644 -0.4438  0.5033  0.1648
  135MOL0     H17763   8.550   5.078  10.522  0.4055 -0.1757 -0.7157
  135MOL0     H17764   8.482   5.099  10.683  1.1306 -1.3461  1.6095
  135MOL0     H17765   8.618   4.841  10.604 -3.7282 -0.4484 -0.0182
  135MOL0     H17766   8.589   4.898  10.760  3.9295  0.1611  1.1700
  135MOL0     H17767   8.719   5.094  10.744 -0.4822 -1.4319  0.2519
  135MOL0     H17768   8.762   5.042  10.570 -2.4441 -2.4951 -2.4577
  135MOL0     H17769   8.835   4.920  10.846 -1.9833  0.0988  0.9279
  135MOL0     H17770   8.838   4.823  10.697 -1.7018 -1.7855  1.8385
  135MOL0     H17771   8.997   4.962  10.610  3.1165  0.9090  0.1859
  135MOL0     H17772   9.058   4.918  10.777  0.6025  0.7549  1.4908
  135MOL0     H17773   8.963   5.111  10.956  1.6010 -0.3258  0.2614
  135MOL0     H17774   8.947   5.497  10.925 -0.1216  0.1132 -0.6511
  135MOL0     H17775   8.981   5.363  11.041 -0.4774 -2.1586 -0.2918
  135MOL0     H17776   8.730   5.345  10.864  1.8305  0.8099 -2.0405
  135MOL0     H17777   8.727   5.478  10.981  1.1195 -0.4131  2.3964
  135MOL0     H17778   8.787   5.190  11.044  0.4444 -0.1495  1.2959
  135MOL0     H17779   8.774   5.302  11.165  1.8287 -0.6969 -0.2195
  135MOL0     H17780   8.562   5.165  11.147 -3.1531  0.3947 -0.2214
  135MOL0     H17781   8.542   5.212  10.976 -0.2379  2.6621 -1.7522
  135MOL0     H17782   8.394   5.489  11.343  1.8177  0.9743 -2.4296
  135MOL0     H17783   8.193   5.426  11.457  0.5570  0.4814 -0.2736
  135MOL0     H17784   7.686   5.397  11.385  1.9137  1.2286 -0.3114
  135MOL0     H17785   7.507   5.383  11.572 -0.3316  0.0177  2.9367
  135MOL0     H17786   7.426   5.484  11.751 -0.4137 -0.4529  0.2820
  135MOL0     H17787   7.581   5.528  11.829  0.1481 -0.2442 -1.6297
  135MOL0     H17788   7.492   5.450  12.042 -0.1106  0.0468  0.3721
  135MOL0     H17789   7.365   5.352  11.957  1.6898 -0.8195 -0.3473
  135MOL0     H17790   7.359   5.657  11.960 -1.9245  0.9118  1.5481
  135MOL0     H17791   7.276   5.553  12.070  0.2975  1.2944  1.0520
  135MOL0     H17792   7.235   5.591  11.768 -1.5681 -1.7904 -2.3674
  135MOL0     H17793   7.191   5.441  11.823 -1.0673  0.3053 -0.3080
  135MOL0     H17794   7.014   5.614  11.808 -1.0627 -2.9211  0.4864
  135MOL0     H17795   7.079   5.703  11.944  1.8172 -0.2164  1.5887
  135MOL0     H17796   7.057   5.521  12.097  2.0526  2.3025 -1.3508
  135MOL0     H17797   7.029   5.407  11.967  0.9336  0.4859 -0.3028
  135MOL0     H17798   6.826   5.630  12.019  0.6860 -0.3692  1.2337
  135MOL0     H17799   6.808   5.489  11.923  0.9051  0.9462 -2.1819
  135MOL0     H17800   6.693   5.485  12.143 -0.0107  1.4486  4.2225
  135MOL0     H17801   6.843   5.503  12.226  1.9480  0.9934 -1.1052
  135MOL0     H17802   7.792   5.224  11.833  0.8065  2.7566  1.2450
  135MOL0     H17803   7.961   5.266  11.687  0.1705  1.5075 -0.4172
  135MOL0     H17804   8.095   5.134  11.160 -2.3672  1.6113  1.2537
  135MOL0     H17805   8.322   5.179  11.053  0.3560  1.4791 -0.5503
  135MOL0     H17806   8.092   5.228  10.821  0.5795  2.0218 -3.2466
  135MOL0     H17807   7.910   5.278  10.960  0.2090  2.5178 -0.8291
  135MOL0     H17808   7.676   5.110  11.303  2.3360  1.2050 -2.2537
  135MOL0     H17809   7.479   5.133  11.472  0.3879 -1.9000  0.3142
  135MOL0     H17810   7.041   5.241  11.454 -0.9876  0.0712 -0.1844
  135MOL0     H17811   7.079   5.214  11.287  0.7660 -0.9565  1.2283
  135MOL0     H17812   7.123   5.461  11.456  0.6947 -0.3009 -0.3077
  135MOL0     H17813   7.175   5.452  11.291  0.5704  0.1145  1.2779
  135MOL0     H17814   6.948   5.568  11.287 -2.7571  0.0764 -0.0810
  135MOL0     H17815   6.893   5.453  11.404  2.0141  1.4474  1.3313
  135MOL0     H17816   6.855   5.284  11.240  1.9666 -0.4254 -0.9254
  135MOL0     H17817   6.793   5.435  11.171 -1.8934 -1.6091  1.5129
  135MOL0     H17818   7.078   5.289  10.905 -0.0818 -1.0392  0.9242
  135MOL0     H17819   7.245   5.284  11.153  1.0545  0.7840 -1.7371
  135MOL0     H17820   7.417   5.251  10.994  1.9045 -1.1316 -0.7081
  136MOL0     O17821   8.506   9.611   2.213 -0.6425  0.1789  0.0759
  136MOL0     C17822   8.579   9.636   2.302 -0.6878 -0.8443  0.1351
  136MOL0     O17823   8.547   9.629   2.431 -0.6836  0.2939 -0.1558
  136MOL0     C17824   8.414   9.619   2.465 -0.0663  0.2503  0.6859
  136MOL0     C17825   8.374   9.521   2.559  0.1800  0.1022 -0.4833
  136MOL0     C17826   8.245   9.519   2.607 -0.3945  0.1257 -0.1274
  136MOL0     C17827   8.151   9.612   2.573  0.0524  0.0431 -0.3380
  136MOL0     O17828   8.025   9.608   2.627 -0.7619 -0.5783 -0.6863
  136MOL0     C17829   7.951   9.491   2.649  0.0133 -0.5114 -0.3129
  136MOL0     C17830   7.803   9.541   2.688  0.8030  0.2717 -0.2455
  136MOL0     C17831   7.779   9.611   2.816  0.0024 -0.1000  0.3155
  136MOL0     C17832   7.625   9.630   2.823 -0.2852 -0.5925  0.0559
  136MOL0     C17833   7.599   9.726   2.940  0.3666  0.4049  0.3090
  136MOL0     C17834   7.449   9.729   2.992 -0.3667 -1.1194  1.2897
  136MOL0     C17835   7.371   9.840   2.930 -0.9865 -0.5131  0.2184
  136MOL0     C17836   7.231   9.865   2.993 -0.6060  0.3373 -0.9874
  136MOL0     N17837   7.167   9.990   2.961 -0.1061 -0.5411 -0.0040
  136MOL0     C17838   7.088  10.010   2.851  0.3227 -0.7535  0.0286
  136MOL0     C17839   7.033  10.138   2.879 -0.1193  0.5952 -0.3980
  136MOL0     C17840   6.929  10.215   2.802 -0.1675  0.4184 -0.5190
  136MOL0     C17841   6.803  10.128   2.762 -0.0650  0.2620  0.0375
  136MOL0     C17842   6.729  10.188   2.648  0.2288 -1.1016 -0.3381
  136MOL0     C17843   6.597  10.115   2.641 -0.2619 -0.3092 -0.5152
  136MOL0     O17844   6.526  10.185   2.532 -0.4913 -0.1689  0.3582
  136MOL0     C17845   6.388  10.189   2.549 -0.7774  0.3871 -0.0159
  136MOL0     C17846   6.339  10.294   2.616  0.4185  1.3467 -1.1807
  136MOL0     C17847   6.205  10.302   2.661  0.0580 -0.2364  0.4648
  136MOL0     C17848   6.112  10.198   2.626 -0.6950  0.1406  0.0764
  136MOL0     C17849   5.972  10.198   2.682  0.7162  0.0932  0.3461
  136MOL0     O17850   5.912  10.312   2.744 -0.0097  0.3582  0.4601
  136MOL0     C17851   5.771  10.289   2.744 -0.0966 -0.1971 -2.0258
  136MOL0     C17852   5.712  10.306   2.873  0.4095 -0.5785 -0.4177
  136MOL0     C17853   5.570  10.301   2.882 -0.0399 -0.8558 -1.1742
  136MOL0     C17854   5.496  10.280   2.771  0.6401 -0.7836 -0.1287
  136MOL0     O17855   5.358  10.294   2.769  0.5190  0.8798 -0.2620
  136MOL0     C17856   5.286  10.174   2.732 -0.0673 -0.8498  0.6020
  136MOL0     C17857   5.157  10.180   2.807  0.2193  0.1945  0.2458
  136MOL0     C17858   5.174  10.184   2.960  0.7992  1.3197 -0.0304
  136MOL0     C17859   5.041  10.240   3.010 -0.3088 -0.3947  0.0724
  136MOL0     C17860   5.028  10.240   3.159  0.1760  0.2593  0.0851
  136MOL0     C17861   4.889  10.213   3.223 -0.2055 -0.2033  0.3371
  136MOL0     C17862   4.768  10.304   3.184 -0.7434  0.6096 -0.2267
  136MOL0     C17863   4.643  10.247   3.252  0.7776 -0.7533 -0.5578
  136MOL0    Cl17864   4.576  10.101   3.185  0.2662 -0.2123  0.6167
  136MOL0     C17865   5.555  10.250   2.648 -0.9829  0.2138 -0.4089
  136MOL0     C17866   5.691  10.263   2.641  0.0030 -0.4953  0.8835
  136MOL0     O17867   5.919  10.087   2.655  0.6266  0.0504  0.5796
  136MOL0     C17868   6.168  10.084   2.554 -0.2104 -0.4311 -0.1297
  136MOL0     C17869   6.301  10.086   2.507 -0.5853 -0.3599 -0.0289
  136MOL0     N17870   7.085  10.185   3.001  0.1060  0.3916  0.5113
  136MOL0     N17871   7.175  10.101   3.043 -0.2525  0.5695 -0.2599
  136MOL0     C17872   8.194   9.711   2.492 -0.3696  0.2850 -0.3648
  136MOL0     C17873   8.315   9.709   2.427 -0.8515  0.1846 -0.1408
  136MOL0     C17874   8.719   9.672   2.270 -0.8888  0.9565  0.5941
  136MOL0     C17875   8.756   9.746   2.151  0.3180  0.1770  0.0191
  136MOL0     C17876   8.893   9.788   2.137  0.5338  0.2987 -0.6374
  136MOL0     C17877   8.992   9.744   2.222 -0.0133  0.1206  0.2395
  136MOL0     O17878   9.120   9.788   2.212 -0.1953 -0.3300 -0.3285
  136MOL0     C17879   9.192   9.787   2.086  1.1052 -0.4149  0.5657
  136MOL0     C17880   9.188   9.650   2.026 -0.5175  0.2126  0.1420
  136MOL0     C17881   9.208   9.531   2.121 -0.7882 -0.3047  1.0665
  136MOL0     C17882   9.160   9.396   2.056 -0.2815  0.3041  1.2769
  136MOL0     C17883   9.015   9.382   2.064  0.5740  0.0949  0.6586
  136MOL0     C17884   8.897   9.360   2.072  0.7547 -0.9414 -0.5075
  136MOL0     C17885   8.964   9.669   2.330  0.0111  0.0796 -0.1382
  136MOL0     C17886   8.829   9.634   2.356  0.8899 -0.0635 -0.0197
  136MOL0     H17887   8.443   9.443   2.587 -1.8984 -1.3779  0.8174
  136MOL0     H17888   8.209   9.437   2.668  0.6849 -1.3608 -1.3874
  136MOL0     H17889   8.001   9.432   2.726 -2.7057 -1.8311  0.5808
  136MOL0     H17890   7.939   9.429   2.559 -0.5140 -1.0961  0.1543
  136MOL0     H17891   7.747   9.447   2.685 -2.3974  2.0647 -0.5927
  136MOL0     H17892   7.779   9.609   2.606  0.8923  0.5839 -0.0162
  136MOL0     H17893   7.835   9.705   2.824 -1.4647  0.9797 -1.3246
  136MOL0     H17894   7.817   9.546   2.895  0.3073  0.6470  0.7922
  136MOL0     H17895   7.584   9.661   2.726  1.5446 -1.5741 -1.0865
  136MOL0     H17896   7.576   9.538   2.857 -0.2082  0.0994  2.1907
  136MOL0     H17897   7.630   9.829   2.920  1.2756  0.0946  0.1029
  136MOL0     H17898   7.664   9.681   3.016 -0.0260 -1.2951 -0.3175
  136MOL0     H17899   7.445   9.739   3.100  0.9074  2.1052  1.1382
  136MOL0     H17900   7.398   9.639   2.957 -2.1963 -0.0092  0.9736
  136MOL0     H17901   7.425   9.934   2.941 -1.0845 -0.4707  0.3436
  136MOL0     H17902   7.357   9.831   2.822  2.1092  0.2667 -0.3376
  136MOL0     H17903   7.242   9.867   3.102  0.0239 -1.3510 -0.9835
  136MOL0     H17904   7.166   9.778   2.976  0.4886 -0.3096 -1.9854
  136MOL0     H17905   7.059   9.941   2.773 -1.0996 -1.4516  1.1152
  136MOL0     H17906   6.955  10.263   2.707  0.3987 -0.3018 -0.7386
  136MOL0     H17907   6.899  10.287   2.878 -0.4200  1.3335 -1.4596
  136MOL0     H17908   6.752  10.120   2.859  2.2179 -2.3108  1.1465
  136MOL0     H17909   6.834  10.029   2.730  1.0784  1.0171 -1.2868
  136MOL0     H17910   6.709  10.294   2.665  1.6032 -0.6754 -1.1883
  136MOL0     H17911   6.788  10.171   2.557 -0.6101  1.7765 -1.5381
  136MOL0     H17912   6.545  10.134   2.735  2.5892  0.8088  0.9738
  136MOL0     H17913   6.607  10.011   2.610 -2.0554  0.4898 -4.3714
  136MOL0     H17914   6.394  10.384   2.641 -0.5215  0.9483  3.2281
  136MOL0     H17915   6.165  10.391   2.708  1.7652  0.3646  0.8693
  136MOL0     H17916   5.771  10.319   2.963 -1.2534 -1.2157  0.8186
  136MOL0     H17917   5.511  10.305   2.973  1.5651 -2.6962  0.0198
  136MOL0     H17918   5.345  10.084   2.749  0.9314 -0.5033 -0.8208
  136MOL0     H17919   5.265  10.185   2.625 -1.2245  2.3185  1.0459
  136MOL0     H17920   5.102  10.091   2.772 -1.1828  1.8871 -2.1295
  136MOL0     H17921   5.100  10.264   2.766 -0.8743 -0.3631  0.5592
  136MOL0     H17922   5.262  10.234   3.003  2.9509 -3.2596  1.4983
  136MOL0     H17923   5.174  10.079   2.988 -0.0384  0.8427 -1.6865
  136MOL0     H17924   5.016  10.336   2.965  1.1193  0.6649  1.4575
  136MOL0     H17925   4.964  10.172   2.972  1.7733 -1.6702 -2.0735
  136MOL0     H17926   5.048  10.338   3.203  1.4758  0.0124  0.0626
  136MOL0     H17927   5.094  10.164   3.200 -1.3605  0.3059  2.9045
  136MOL0     H17928   4.913  10.212   3.330  1.6819 -1.3597 -0.0469
  136MOL0     H17929   4.878  10.106   3.202  0.3802 -0.3029  0.5177
  136MOL0     H17930   4.793  10.407   3.213  3.8671 -0.0106 -1.1988
  136MOL0     H17931   4.741  10.307   3.078 -4.2529  1.0831  0.5642
  136MOL0     H17932   4.558  10.316   3.255  1.5975  0.2732 -0.1369
  136MOL0     H17933   4.663  10.220   3.356  2.1362  0.4255 -0.4841
  136MOL0     H17934   5.498  10.241   2.556 -0.0991  0.2459 -0.9782
  136MOL0     H17935   5.743  10.253   2.545  0.5960 -0.7450  1.2234
  136MOL0     H17936   6.097  10.008   2.524 -0.9456  0.6393 -1.2100
  136MOL0     H17937   6.337  10.007   2.441 -0.1838  1.2713 -1.8514
  136MOL0     H17938   8.118   9.787   2.476  0.4507  0.9036 -1.3966
  136MOL0     H17939   8.336   9.787   2.354  1.9512 -0.8695 -0.5705
  136MOL0     H17940   8.674   9.769   2.084 -1.0245 -2.9356  0.4024
  136MOL0     H17941   8.920   9.856   2.056 -1.4684 -0.0942 -1.6926
  136MOL0     H17942   9.295   9.822   2.099  0.9769  0.6284 -0.9956
  136MOL0     H17943   9.145   9.854   2.013  1.2402 -0.7124  0.2006
  136MOL0     H17944   9.091   9.631   1.979 -0.9596 -1.6614  1.7202
  136MOL0     H17945   9.256   9.641   1.940 -0.5456 -0.8024  0.2178
  136MOL0     H17946   9.160   9.543   2.218  1.0838  2.0984  1.7725
  136MOL0     H17947   9.315   9.521   2.139 -1.0579 -1.3728  2.2013
  136MOL0     H17948   9.203   9.385   1.956  2.1231 -0.2793  2.2930
  136MOL0     H17949   9.204   9.316   2.116  2.7537 -0.2390 -1.3948
  136MOL0     H17950   8.791   9.353   2.084  0.8248  1.2518  2.2933
  136MOL0     H17951   9.046   9.645   2.397  1.1561 -0.3007 -1.6282
  136MOL0     H17952   8.804   9.588   2.451  0.3426 -0.2259 -0.2367
  137MOL0     O17953   4.857   5.931   5.749  0.4956 -0.1773 -0.1438
  137MOL0     C17954   4.953   5.918   5.666  0.1802  0.5922 -0.6225
  137MOL0     O17955   4.953   5.833   5.558 -0.4091  0.3123  1.1875
  137MOL0     C17956   4.839   5.768   5.511  0.1542  0.2216  0.2211
  137MOL0     C17957   4.789   5.829   5.397  1.0154 -0.0754 -0.1722
  137MOL0     C17958   4.681   5.764   5.329 -0.3382 -0.6564  0.7297
  137MOL0     C17959   4.626   5.645   5.377  0.3723  0.2482  1.0637
  137MOL0     O17960   4.536   5.568   5.303  0.8760  0.4102  0.0916
  137MOL0     C17961   4.499   5.608   5.172 -0.4588  1.0680  0.2516
  137MOL0     C17962   4.415   5.488   5.124 -0.3881  0.4215 -0.1561
  137MOL0     C17963   4.368   5.527   4.987 -0.4057  0.2294  0.5400
  137MOL0     C17964   4.224   5.478   4.955  0.4646 -0.8777  0.4977
  137MOL0     C17965   4.206   5.520   4.805  0.6876 -0.3380  0.3042
  137MOL0     C17966   4.086   5.455   4.732 -0.1131  0.6006  0.6028
  137MOL0     C17967   3.952   5.509   4.786 -0.1880  0.3637 -0.6338
  137MOL0     C17968   3.826   5.463   4.708  0.4562 -0.6545  0.3062
  137MOL0     N17969   3.690   5.522   4.740 -0.1837  0.3482 -0.2170
  137MOL0     C17970   3.653   5.651   4.791 -1.3053  0.0335 -0.1861
  137MOL0     C17971   3.526   5.636   4.831  0.2488 -0.8543 -0.1671
  137MOL0     C17972   3.425   5.737   4.879 -0.6872 -0.3276  0.6610
  137MOL0     C17973   3.435   5.872   4.811 -0.2576 -0.6246 -0.4034
  137MOL0     C17974   3.411   5.850   4.658  0.4437 -0.3125 -0.4582
  137MOL0     C17975   3.417   5.983   4.576  0.4007 -0.2320 -0.3511
  137MOL0     O17976   3.335   6.086   4.642  0.1707 -0.3313  0.0577
  137MOL0     C17977   3.195   6.094   4.640  0.9848  0.2223  0.1354
  137MOL0     C17978   3.144   6.200   4.714 -0.1276  0.7913 -0.3277
  137MOL0     C17979   3.007   6.219   4.712 -0.5101 -0.0628  0.4005
  137MOL0     C17980   2.914   6.141   4.640 -0.7270  0.4448 -0.0898
  137MOL0     C17981   2.768   6.173   4.629 -0.4115  0.0706 -1.0800
  137MOL0     O17982   2.698   6.095   4.535 -0.4016  0.1156 -0.2433
  137MOL0     C17983   2.569   6.111   4.535  0.5693  1.1991 -0.5020
  137MOL0     C17984   2.511   6.184   4.430  0.6957  0.3385 -0.5868
  137MOL0     C17985   2.378   6.221   4.432 -0.2884  0.3301 -0.2226
  137MOL0     C17986   2.290   6.160   4.530  0.6934  0.6679  0.6733
  137MOL0     O17987   2.147   6.175   4.529  0.4455  0.8046  0.0620
  137MOL0     C17988   2.097   6.296   4.465  0.7054 -0.0974  0.6997
  137MOL0     C17989   1.941   6.287   4.456  0.4500  0.0438  0.2405
  137MOL0     C17990   1.883   6.270   4.593 -0.0668 -0.6245 -0.0743
  137MOL0     C17991   1.747   6.345   4.626 -0.3264 -0.3404  0.8355
  137MOL0     C17992   1.634   6.278   4.550 -0.5172  0.9416  1.0356
  137MOL0     C17993   1.492   6.343   4.580 -0.2873  0.0832 -1.1640
  137MOL0     C17994   1.390   6.275   4.491  0.4412  0.0795 -0.0704
  137MOL0     C17995   1.263   6.270   4.562 -0.4365  0.7217  0.0001
  137MOL0    Cl17996   1.218   6.442   4.600  0.1078  0.0323  0.0626
  137MOL0     C17997   2.343   6.068   4.621 -0.3686  0.0553 -0.6043
  137MOL0     C17998   2.482   6.051   4.625  0.5371 -0.2468 -0.8511
  137MOL0     O17999   2.718   6.262   4.694  0.1782 -0.1153 -0.1837
  137MOL0     C18000   2.971   6.031   4.561 -0.2824 -0.6744  1.0817
  137MOL0     C18001   3.109   6.005   4.566  1.0770 -0.5690 -0.2432
  137MOL0     N18002   3.495   5.502   4.822 -0.1009  0.2038  0.3582
  137MOL0     N18003   3.587   5.434   4.769 -0.8494  0.1549 -0.3356
  137MOL0     C18004   4.674   5.588   5.494  0.2470 -0.8726  0.4382
  137MOL0     C18005   4.777   5.654   5.565 -0.1999  1.2075  0.0189
  137MOL0     C18006   5.072   5.991   5.692  0.3519  0.4426 -0.1214
  137MOL0     C18007   5.076   6.099   5.785  0.4511  0.0199  0.1897
  137MOL0     C18008   5.198   6.167   5.809  0.1198  0.0397 -0.1237
  137MOL0     C18009   5.309   6.147   5.735 -0.3916  0.8029  0.6926
  137MOL0     O18010   5.424   6.210   5.783  0.1081  0.4902  0.1251
  137MOL0     C18011   5.425   6.352   5.797  0.4713 -1.4792  0.8687
  137MOL0     C18012   5.514   6.417   5.683  0.7912 -0.1337 -0.1053
  137MOL0     C18013   5.664   6.394   5.680 -0.3456  0.5451  0.4474
  137MOL0     C18014   5.729   6.417   5.547  0.5227  0.5460 -0.0996
  137MOL0     C18015   5.870   6.439   5.559  0.1085 -0.7066 -0.1414
  137MOL0     C18016   5.991   6.465   5.571  0.2775  0.5535  0.7046
  137MOL0     C18017   5.314   6.035   5.648 -0.4629 -1.2991 -0.3835
  137MOL0     C18018   5.196   5.971   5.622  0.1491  0.3963 -0.5350
  137MOL0     H18019   4.844   5.920   5.377 -0.7107  1.1188  0.2768
  137MOL0     H18020   4.655   5.798   5.229  2.9179  0.5008  0.1604
  137MOL0     H18021   4.578   5.629   5.099  0.3663  0.4479  0.9440
  137MOL0     H18022   4.429   5.690   5.189 -0.7366  0.8385  0.2050
  137MOL0     H18023   4.327   5.472   5.186 -1.8077  1.5511 -1.7880
  137MOL0     H18024   4.479   5.400   5.126 -1.1051 -0.1144 -0.3952
  137MOL0     H18025   4.426   5.479   4.909 -4.8078 -3.5934 -0.8369
  137MOL0     H18026   4.364   5.635   4.971  1.5112  0.2722  0.1575
  137MOL0     H18027   4.220   5.369   4.955 -1.5557 -0.8457  0.4622
  137MOL0     H18028   4.155   5.520   5.028 -3.7397  0.1626 -3.5777
  137MOL0     H18029   4.299   5.498   4.752  1.3427  2.5022  0.0880
  137MOL0     H18030   4.195   5.629   4.797 -0.6299 -0.5842 -1.8348
  137MOL0     H18031   4.103   5.349   4.751 -1.1593  0.7280  2.5023
  137MOL0     H18032   4.090   5.473   4.624 -2.9665  0.1128  0.3275
  137MOL0     H18033   3.943   5.474   4.890  0.8079  0.0114 -0.6529
  137MOL0     H18034   3.965   5.617   4.788  0.9330  0.2704  2.0336
  137MOL0     H18035   3.820   5.355   4.721  0.5712 -1.0033 -2.1489
  137MOL0     H18036   3.859   5.478   4.605  1.1292  0.7787  0.7037
  137MOL0     H18037   3.703   5.747   4.795 -2.2679  0.6901 -2.4354
  137MOL0     H18038   3.447   5.746   4.986 -1.7719 -1.7658  1.0440
  137MOL0     H18039   3.322   5.703   4.867 -0.2532 -1.8113  0.8841
  137MOL0     H18040   3.518   5.932   4.849 -2.5625  2.4256  0.2884
  137MOL0     H18041   3.352   5.933   4.849 -0.9642 -1.3176 -0.8121
  137MOL0     H18042   3.494   5.789   4.621  1.3764  0.8684 -0.3898
  137MOL0     H18043   3.316   5.799   4.639  0.6780 -2.6852  3.4997
  137MOL0     H18044   3.377   5.965   4.476  0.0579  2.4100 -0.7798
  137MOL0     H18045   3.521   6.010   4.554  1.1963 -0.9558  2.1354
  137MOL0     H18046   3.202   6.278   4.762 -1.2880  2.3552 -1.3645
  137MOL0     H18047   2.969   6.299   4.774  2.8984  0.0962  2.5720
  137MOL0     H18048   2.558   6.230   4.343  2.4432  0.6891  0.4972
  137MOL0     H18049   2.347   6.292   4.357  0.4256  1.7488  0.7791
  137MOL0     H18050   2.132   6.322   4.364 -0.6554  0.3465  0.3235
  137MOL0     H18051   2.127   6.372   4.537  0.8520 -2.1985  2.9812
  137MOL0     H18052   1.908   6.205   4.392 -1.0258 -0.0212  1.0291
  137MOL0     H18053   1.901   6.376   4.406  1.9962 -0.4795 -2.0475
  137MOL0     H18054   1.956   6.312   4.664 -0.8390 -0.8061  0.8500
  137MOL0     H18055   1.866   6.164   4.612 -0.6741 -0.4969  0.1437
  137MOL0     H18056   1.725   6.336   4.732 -0.6457 -0.0055  0.7967
  137MOL0     H18057   1.752   6.448   4.589 -0.2641 -1.0593 -1.3335
  137MOL0     H18058   1.623   6.170   4.562 -0.4388  0.9616  1.2954
  137MOL0     H18059   1.658   6.280   4.443  1.9781 -2.0088  1.4207
  137MOL0     H18060   1.494   6.452   4.565 -1.1772  0.1303 -0.9978
  137MOL0     H18061   1.474   6.325   4.686 -2.0558  0.9608 -1.2784
  137MOL0     H18062   1.379   6.337   4.401 -1.1819  3.1553  2.0816
  137MOL0     H18063   1.431   6.178   4.459  0.6487  0.4393 -0.9278
  137MOL0     H18064   1.276   6.218   4.658 -0.3521 -0.3630 -0.5850
  137MOL0     H18065   1.187   6.226   4.497  0.0138  0.8599 -0.6324
  137MOL0     H18066   2.273   6.021   4.691  0.9183  2.1522  2.3133
  137MOL0     H18067   2.528   5.986   4.698 -1.0231  0.0548  0.4579
  137MOL0     H18068   2.909   5.965   4.502  0.6862 -0.9399  0.3378
  137MOL0     H18069   3.158   5.917   4.525  3.3721  1.0263 -1.1154
  137MOL0     H18070   4.638   5.489   5.521 -1.4334 -1.5662 -3.5600
  137MOL0     H18071   4.806   5.611   5.661 -0.7454 -1.9557 -1.1283
  137MOL0     H18072   4.990   6.129   5.844 -1.5510 -1.0636 -2.0217
  137MOL0     H18073   5.199   6.239   5.891 -0.3524 -0.0124 -0.0720
  137MOL0     H18074   5.450   6.383   5.900 -0.6615 -1.7648  1.2415
  137MOL0     H18075   5.326   6.389   5.768  0.8141 -1.9776 -1.0526
  137MOL0     H18076   5.461   6.398   5.590  0.1549  0.5885  0.1021
  137MOL0     H18077   5.497   6.524   5.699  0.2418 -0.2524  0.1445
  137MOL0     H18078   5.694   6.294   5.712  1.6850  1.2054  0.7083
  137MOL0     H18079   5.717   6.467   5.741 -0.3251  1.1244 -0.2533
  137MOL0     H18080   5.699   6.335   5.482 -0.7447 -1.0474  2.3421
  137MOL0     H18081   5.676   6.503   5.505  0.1319  0.2967 -0.1165
  137MOL0     H18082   6.096   6.486   5.580  1.2300 -3.4035  0.5265
  137MOL0     H18083   5.406   6.013   5.595 -1.1508  1.4154 -3.0132
  137MOL0     H18084   5.212   5.892   5.549 -0.0127  0.7118 -0.9144
  138MOL0     O18085   2.717   4.880   0.579 -0.2800 -0.1538  0.2902
  138MOL0     C18086   2.761   4.848   0.468 -0.9386 -0.2352 -0.1254
  138MOL0     O18087   2.691   4.823   0.355  0.1969 -0.2884  0.0903
  138MOL0     C18088   2.553   4.793   0.368 -0.5167 -0.3365 -0.2263
  138MOL0     C18089   2.496   4.707   0.461 -0.8869  0.4680 -0.7544
  138MOL0     C18090   2.360   4.700   0.473  0.7653  0.1218 -0.9091
  138MOL0     C18091   2.271   4.774   0.385 -0.4015 -0.2484  0.2530
  138MOL0     O18092   2.132   4.789   0.376 -0.2670  0.7533 -0.4012
  138MOL0     C18093   2.056   4.733   0.487 -0.2591  0.4360  0.3353
  138MOL0     C18094   1.908   4.763   0.461  0.2784 -0.3035  0.1654
  138MOL0     C18095   1.823   4.726   0.587 -0.3585  0.0410 -0.7520
  138MOL0     C18096   1.669   4.746   0.549  0.0079 -0.1097  0.1037
  138MOL0     C18097   1.567   4.690   0.652 -0.3379 -0.5529  0.7343
  138MOL0     C18098   1.425   4.734   0.601  0.8706  0.7226 -0.2938
  138MOL0     C18099   1.309   4.701   0.695  0.4966  0.1657  0.4479
  138MOL0     C18100   1.309   4.780   0.833  0.1831  0.1574 -0.0758
  138MOL0     N18101   1.170   4.770   0.897 -0.1036 -0.1028 -0.1628
  138MOL0     C18102   1.145   4.815   1.020 -0.1907 -0.1330 -1.1535
  138MOL0     C18103   1.013   4.783   1.048 -0.1354  0.0931  0.2082
  138MOL0     C18104   0.926   4.802   1.173  0.7342 -0.4271  0.7755
  138MOL0     C18105   0.832   4.685   1.178 -0.1863  0.2762 -0.3728
  138MOL0     C18106   0.747   4.689   1.306  0.2916  0.6177  0.2702
  138MOL0     C18107   0.610   4.742   1.264 -0.2822 -0.6147  0.3546
  138MOL0     O18108   0.518   4.741   1.380  0.6863  0.1191 -0.5596
  138MOL0     C18109   0.401   4.807   1.387  0.2085 -0.0793 -0.6086
  138MOL0     C18110   0.341   4.851   1.267  0.2216  0.2672 -0.0700
  138MOL0     C18111   0.220   4.932   1.271  0.2055 -0.0768 -0.5776
  138MOL0     C18112   0.158   4.947   1.393  1.0988  0.1194  0.5305
  138MOL0     C18113   0.020   5.004   1.393  0.5248 -0.1895  0.4389
  138MOL0     O18114  -0.049   4.984   1.502  0.3109  0.1752 -0.2311
  138MOL0     C18115  -0.169   5.047   1.526  0.2245  0.2872 -0.4833
  138MOL0     C18116  -0.179   5.137   1.627  0.6908 -0.0122 -0.5452
  138MOL0     C18117  -0.307   5.182   1.659 -0.2881  0.1352 -0.4527
  138MOL0     C18118  -0.423   5.136   1.593  0.7446  0.4253 -0.0026
  138MOL0     O18119  -0.547   5.161   1.633  0.1271 -0.1437  0.5514
  138MOL0     C18120  -0.573   5.294   1.695  0.1288  0.2458  0.0799
  138MOL0     C18121  -0.716   5.337   1.670  0.0559 -0.3093 -0.0622
  138MOL0     C18122  -0.803   5.326   1.796 -0.2200 -0.2248  0.3302
  138MOL0     C18123  -0.944   5.356   1.754  1.3635 -0.6354  0.3790
  138MOL0     C18124  -0.966   5.493   1.704  0.2532  0.9772 -0.0784
  138MOL0     C18125  -0.960   5.617   1.792 -0.0036  0.1422 -0.3187
  138MOL0     C18126  -1.034   5.612   1.920  0.8976 -0.1056 -1.0568
  138MOL0     C18127  -0.952   5.560   2.048 -0.2735  0.1730  0.1784
  138MOL0    Cl18128  -0.794   5.631   2.043 -0.3560 -0.2167  0.1659
  138MOL0     C18129  -0.411   5.049   1.485  0.2989  0.4560  1.0128
  138MOL0     C18130  -0.277   5.012   1.449  0.8028  0.8610  0.0634
  138MOL0     O18131  -0.022   5.065   1.293  0.2058  0.0371  0.1108
  138MOL0     C18132   0.208   4.884   1.509 -0.4158  0.8237  0.6202
  138MOL0     C18133   0.323   4.820   1.499 -0.2949  0.2612  0.0262
  138MOL0     N18134   0.970   4.719   0.939  0.4166 -0.0905 -0.1516
  138MOL0     N18135   1.057   4.708   0.847 -0.1047  0.6955 -0.7738
  138MOL0     C18136   2.333   4.846   0.288 -0.4744  0.5325 -0.1819
  138MOL0     C18137   2.469   4.858   0.278 -0.2411 -0.3909  0.2384
  138MOL0     C18138   2.904   4.839   0.472 -0.0105  0.0591 -0.0619
  138MOL0     C18139   2.970   4.841   0.351  0.4273  0.0633 -0.2396
  138MOL0     C18140   3.113   4.838   0.340  0.7404 -0.5887 -0.3839
  138MOL0     C18141   3.188   4.824   0.462 -0.2018  0.3147  1.1349
  138MOL0     O18142   3.323   4.817   0.455 -0.8282  0.5909 -0.1132
  138MOL0     C18143   3.392   4.881   0.346 -0.0214 -0.4685  0.4949
  138MOL0     C18144   3.546   4.886   0.361  0.2365 -0.6092  0.0307
  138MOL0     C18145   3.602   4.969   0.480  0.5737  0.2809 -1.0388
  138MOL0     C18146   3.758   4.950   0.490  0.0323  0.0072 -0.4065
  138MOL0     C18147   3.816   5.033   0.597 -0.6032 -0.8699 -0.6113
  138MOL0     C18148   3.843   5.100   0.694  0.4262  0.6286 -0.2228
  138MOL0     C18149   3.126   4.817   0.582 -1.0595  0.2084  0.5204
  138MOL0     C18150   2.983   4.833   0.590  0.1237  0.1946  0.5371
  138MOL0     H18151   2.559   4.653   0.531  0.1556  2.3958 -0.1270
  138MOL0     H18152   2.316   4.636   0.549 -0.0591  2.6755  0.8669
  138MOL0     H18153   2.079   4.770   0.587 -1.8899 -0.3321  1.0350
  138MOL0     H18154   2.064   4.624   0.496  1.6259  0.7588  4.5097
  138MOL0     H18155   1.878   4.707   0.372  1.4789 -1.2869  0.3443
  138MOL0     H18156   1.904   4.870   0.439 -0.6153 -0.6145 -1.2721
  138MOL0     H18157   1.856   4.780   0.676  0.2632  2.4477 -2.3558
  138MOL0     H18158   1.837   4.621   0.614  3.8987  0.0902 -2.1029
  138MOL0     H18159   1.652   4.853   0.534  0.7758 -0.0798 -0.6306
  138MOL0     H18160   1.650   4.690   0.457  1.3652  0.3535 -0.4899
  138MOL0     H18161   1.584   4.738   0.748 -0.7633  0.7831  0.1621
  138MOL0     H18162   1.574   4.580   0.657  2.1016 -0.4141  2.2436
  138MOL0     H18163   1.393   4.679   0.512  0.2419  1.3921 -0.4938
  138MOL0     H18164   1.415   4.840   0.577 -0.7467  0.5774 -0.3734
  138MOL0     H18165   1.216   4.727   0.644  0.1948  0.4759  1.1550
  138MOL0     H18166   1.299   4.593   0.708 -2.2512  0.2357 -0.4450
  138MOL0     H18167   1.339   4.885   0.823  1.4630 -0.3233 -1.7766
  138MOL0     H18168   1.382   4.726   0.893  0.0516 -2.2920 -1.9832
  138MOL0     H18169   1.209   4.865   1.092  0.8627 -1.8424 -0.8555
  138MOL0     H18170   0.869   4.892   1.149  0.6330 -0.4187  1.0458
  138MOL0     H18171   0.990   4.800   1.262  0.7682  0.2531  0.7713
  138MOL0     H18172   0.889   4.592   1.191 -0.2768  0.2422 -0.2307
  138MOL0     H18173   0.774   4.673   1.086 -1.8383 -0.1894  0.6837
  138MOL0     H18174   0.736   4.592   1.355  1.4241 -1.0250 -2.5365
  138MOL0     H18175   0.792   4.750   1.386  0.4854 -1.2072  1.6140
  138MOL0     H18176   0.580   4.685   1.175  3.7637  0.3408 -1.8953
  138MOL0     H18177   0.608   4.842   1.219  2.7752 -1.5981 -2.4005
  138MOL0     H18178   0.386   4.821   1.173  0.6276 -2.1558  0.8123
  138MOL0     H18179   0.184   4.985   1.184  0.7751  0.5972 -0.4134
  138MOL0     H18180  -0.096   5.153   1.695  0.3977 -1.3450  0.1527
  138MOL0     H18181  -0.334   5.247   1.741  1.0228 -0.1239  0.2001
  138MOL0     H18182  -0.504   5.373   1.665  0.1310 -0.3419 -1.5480
  138MOL0     H18183  -0.548   5.290   1.802 -0.4246  2.2558  0.3229
  138MOL0     H18184  -0.760   5.288   1.583 -3.7758 -0.5913  1.8154
  138MOL0     H18185  -0.700   5.439   1.634  0.2738 -0.5985 -0.8027
  138MOL0     H18186  -0.769   5.391   1.878  0.9886 -1.7383  1.0913
  138MOL0     H18187  -0.807   5.225   1.837 -1.3555 -1.4226 -2.5064
  138MOL0     H18188  -0.972   5.297   1.667  3.6111 -1.1401 -0.0547
  138MOL0     H18189  -1.016   5.328   1.831  0.7518  1.9922  0.8658
  138MOL0     H18190  -1.068   5.478   1.666  0.2735  1.7039 -0.4336
  138MOL0     H18191  -0.913   5.507   1.610  0.5211 -2.4835 -0.5719
  138MOL0     H18192  -1.002   5.701   1.736 -1.3819 -1.2429 -1.4799
  138MOL0     H18193  -0.859   5.653   1.813  0.0145 -0.7935  1.3632
  138MOL0     H18194  -1.066   5.716   1.932  0.3634 -0.4677  1.0268
  138MOL0     H18195  -1.126   5.554   1.912  1.1560 -1.0720  1.8417
  138MOL0     H18196  -0.943   5.453   2.026 -0.8065 -0.0314  0.9248
  138MOL0     H18197  -0.996   5.579   2.146 -1.3865  3.6028 -0.8527
  138MOL0     H18198  -0.495   5.012   1.428  2.0085 -1.7142 -0.2890
  138MOL0     H18199  -0.267   4.943   1.366 -2.5481 -0.9743  1.0086
  138MOL0     H18200   0.154   4.893   1.603  0.6033  1.9613  1.1319
  138MOL0     H18201   0.362   4.783   1.594 -1.5278 -2.4748 -0.4635
  138MOL0     H18202   2.267   4.894   0.216 -0.8834 -0.4290 -0.4696
  138MOL0     H18203   2.508   4.933   0.209 -2.8403 -0.2375 -1.2233
  138MOL0     H18204   2.899   4.847   0.269  0.2072 -2.7017 -0.3339
  138MOL0     H18205   3.156   4.836   0.240  0.8622  0.4609 -0.3569
  138MOL0     H18206   3.368   4.988   0.333 -0.2946 -0.3268  1.9764
  138MOL0     H18207   3.369   4.836   0.249 -1.4360  1.0181  0.0823
  138MOL0     H18208   3.583   4.784   0.369 -1.4359 -1.1895  0.7293
  138MOL0     H18209   3.589   4.927   0.269  0.1198  1.0170  0.6621
  138MOL0     H18210   3.547   4.952   0.574  3.7169  0.8327  1.0510
  138MOL0     H18211   3.590   5.077   0.466  0.8577  0.4006 -0.4203
  138MOL0     H18212   3.784   4.844   0.484  0.6319  0.1971 -1.3752
  138MOL0     H18213   3.786   4.981   0.389 -3.9472 -0.6742 -1.9071
  138MOL0     H18214   3.866   5.162   0.779  4.5217  0.0491 -0.6907
  138MOL0     H18215   3.193   4.789   0.663 -1.3494 -2.8099 -0.1856
  138MOL0     H18216   2.939   4.833   0.689  2.0963  1.7743  1.4994
  139MOL0     O18217   8.697  10.153   8.100 -0.6009  0.2748 -0.0979
  139MOL0     C18218   8.626  10.229   8.036  0.0393  0.7316  0.6539
  139MOL0     O18219   8.655  10.279   7.913  0.4212 -0.2284  0.7412
  139MOL0     C18220   8.746  10.219   7.834 -0.1094 -0.4072  0.5088
  139MOL0     C18221   8.863  10.289   7.800 -0.0622  0.2282 -0.7996
  139MOL0     C18222   8.962  10.230   7.727 -0.6447  0.3082 -0.1388
  139MOL0     C18223   8.956  10.101   7.678  0.0594  0.3030 -1.0556
  139MOL0     O18224   9.052  10.047   7.601 -0.4090 -0.5348  0.5798
  139MOL0     C18225   9.001   9.981   7.483  0.3237  0.2452 -1.1276
  139MOL0     C18226   9.074  10.022   7.364 -0.3398 -0.2271  0.1063
  139MOL0     C18227   9.044   9.937   7.244  0.1716  0.1579 -0.3953
  139MOL0     C18228   9.102  10.009   7.114  0.6047 -0.4468  0.3990
  139MOL0     C18229   8.999  10.077   7.017 -0.1187  0.5040 -0.3338
  139MOL0     C18230   8.908   9.964   6.947 -0.7418 -0.0385  0.0948
  139MOL0     C18231   8.844  10.021   6.823 -0.7367  0.4087 -0.2124
  139MOL0     C18232   8.770   9.910   6.754  0.2551  0.6775 -0.3724
  139MOL0     N18233   8.674   9.955   6.654 -0.3135 -0.2324 -0.0210
  139MOL0     C18234   8.548  10.001   6.688  0.0853  0.2518  0.5498
  139MOL0     C18235   8.516  10.069   6.573 -0.3852 -0.0403 -0.0635
  139MOL0     C18236   8.392  10.147   6.547  0.0268  0.1660  0.3424
  139MOL0     C18237   8.303  10.166   6.668 -0.5034  0.3017 -0.5258
  139MOL0     C18238   8.182  10.256   6.636  0.4945  0.9779 -0.6788
  139MOL0     C18239   8.053  10.201   6.700  0.3027  0.0554 -0.8147
  139MOL0     O18240   7.936  10.281   6.654  0.2567 -0.2334 -0.6922
  139MOL0     C18241   7.821  10.257   6.725  0.0247 -0.4001 -0.1028
  139MOL0     C18242   7.702  10.195   6.681  0.0197  0.2150 -0.4475
  139MOL0     C18243   7.585  10.193   6.764 -0.7013 -0.4361  0.2958
  139MOL0     C18244   7.592  10.267   6.885 -0.0024 -0.4525 -0.0956
  139MOL0     C18245   7.489  10.270   6.985 -0.4437 -0.2478  0.0465
  139MOL0     O18246   7.527  10.262   7.118 -0.8906  0.0955 -1.1081
  139MOL0     C18247   7.422  10.280   7.202  0.3254  0.0241  0.6329
  139MOL0     C18248   7.351  10.170   7.238  0.8386 -0.2551  0.0738
  139MOL0     C18249   7.241  10.187   7.328  0.0813  0.6086  0.0278
  139MOL0     C18250   7.219  10.312   7.381 -0.6714 -0.7597  0.6798
  139MOL0     O18251   7.124  10.337   7.470 -0.6439 -0.6023 -0.0553
  139MOL0     C18252   7.073  10.234   7.548  0.3370 -0.2544  0.4567
  139MOL0     C18253   7.017  10.277   7.686  0.4481 -0.6116 -0.2721
  139MOL0     C18254   7.125  10.366   7.766 -0.1483 -0.5091 -0.0797
  139MOL0     C18255   7.063  10.434   7.892  0.0715 -0.2001 -0.0286
  139MOL0     C18256   7.166  10.465   7.999 -0.3611  0.4189 -0.6462
  139MOL0     C18257   7.286  10.552   7.954 -0.2428 -1.1744 -0.5993
  139MOL0     C18258   7.361  10.613   8.075 -0.0068  0.5661  0.1666
  139MOL0     C18259   7.306  10.747   8.124  0.8033  0.5931 -0.4116
  139MOL0    Cl18260   7.327  10.875   8.005  0.0743 -0.2979  0.2589
  139MOL0     C18261   7.272  10.428   7.324  0.2780 -1.1229  0.6210
  139MOL0     C18262   7.371  10.407   7.235  1.0140  0.0567  0.0051
  139MOL0     O18263   7.384  10.237   6.936 -0.2672 -0.4456  0.8776
  139MOL0     C18264   7.702  10.336   6.918 -0.5350  0.2324 -0.1258
  139MOL0     C18265   7.821  10.328   6.846  0.6156 -0.3955 -0.3893
  139MOL0     N18266   8.624  10.067   6.480  0.2808  0.0976  0.0679
  139MOL0     N18267   8.721   9.990   6.526 -0.3325  0.2540  0.1584
  139MOL0     C18268   8.848  10.026   7.728  0.0769  0.0226 -0.0299
  139MOL0     C18269   8.745  10.087   7.804 -0.3937 -0.5875 -0.1942
  139MOL0     C18270   8.508  10.287   8.104  0.0171  0.0084  0.1971
  139MOL0     C18271   8.501  10.288   8.246 -0.0111  0.0296 -0.4877
  139MOL0     C18272   8.390  10.338   8.314  0.3948  0.1625 -0.4070
  139MOL0     C18273   8.277  10.376   8.245  0.0816  0.3481 -0.0839
  139MOL0     O18274   8.179  10.425   8.328  0.3621  0.2493  0.2134
  139MOL0     C18275   8.044  10.369   8.321 -0.3183 -1.0247  0.3188
  139MOL0     C18276   7.946  10.441   8.227  0.1358  0.4562 -0.6026
  139MOL0     C18277   7.915  10.584   8.265 -0.0686  0.1925 -0.0359
  139MOL0     C18278   7.784  10.619   8.193  0.4829  1.2169 -0.5971
  139MOL0     C18279   7.669  10.569   8.268 -0.2293 -0.0279  0.2049
  139MOL0     C18280   7.577  10.526   8.327 -0.2563  0.3280 -0.6935
  139MOL0     C18281   8.278  10.372   8.106 -0.0943  0.3441  0.0697
  139MOL0     C18282   8.399  10.343   8.036  0.0910 -0.6186  1.0298
  139MOL0     H18283   8.865  10.394   7.827  1.3232  0.3274 -1.2038
  139MOL0     H18284   9.051  10.290   7.707  0.9442 -1.9115 -0.1121
  139MOL0     H18285   8.893   9.996   7.471  0.3831 -0.4477 -2.7766
  139MOL0     H18286   9.013   9.874   7.500  1.5893  0.0695 -2.8466
  139MOL0     H18287   9.182  10.013   7.382 -0.0735  0.1868 -1.1811
  139MOL0     H18288   9.052  10.125   7.335 -1.1793  0.0483  1.6207
  139MOL0     H18289   8.935   9.951   7.236  0.1549  0.4681  0.2875
  139MOL0     H18290   9.064   9.829   7.250  1.3017  0.2983 -1.2840
  139MOL0     H18291   9.179  10.082   7.141  0.8160 -1.0795  1.5546
  139MOL0     H18292   9.156   9.930   7.061  0.1781 -1.9829  2.1544
  139MOL0     H18293   9.063  10.115   6.937  0.5602  1.1961  0.5312
  139MOL0     H18294   8.932  10.155   7.054  1.1955  1.2280  0.5771
  139MOL0     H18295   8.837   9.924   7.020 -1.2673 -0.1867 -0.4872
  139MOL0     H18296   8.979   9.893   6.903  0.5789  1.7414 -0.7869
  139MOL0     H18297   8.774  10.096   6.860  0.6620  1.0112  1.3113
  139MOL0     H18298   8.920  10.069   6.761  0.9060  2.5689  3.1656
  139MOL0     H18299   8.712   9.860   6.832  0.3465  2.5808  0.9538
  139MOL0     H18300   8.839   9.845   6.699  0.4802  0.5529  0.0549
  139MOL0     H18301   8.490  10.003   6.779  0.1656 -0.5004  0.6245
  139MOL0     H18302   8.327  10.094   6.476  1.0225 -0.0155 -0.4491
  139MOL0     H18303   8.422  10.243   6.504 -0.5402 -0.2017 -0.9156
  139MOL0     H18304   8.362  10.207   6.751  1.3347  0.9004 -2.0707
  139MOL0     H18305   8.271  10.065   6.695 -0.9235 -0.0742 -2.3271
  139MOL0     H18306   8.212  10.348   6.687 -0.8729  0.8301  0.4500
  139MOL0     H18307   8.177  10.264   6.527 -0.7419 -4.2483 -1.3039
  139MOL0     H18308   8.063  10.206   6.809 -2.0749  1.2118 -0.5747
  139MOL0     H18309   8.023  10.099   6.675 -0.9503  0.5476 -1.4124
  139MOL0     H18310   7.688  10.150   6.583 -1.7141  1.6678 -0.9078
  139MOL0     H18311   7.494  10.142   6.735  0.4526 -2.7031  0.3766
  139MOL0     H18312   7.360  10.076   7.184  1.3423  1.2092 -2.4909
  139MOL0     H18313   7.186  10.102   7.368 -0.4139 -0.5719 -2.8939
  139MOL0     H18314   7.150  10.157   7.563  1.4024 -0.1511 -3.4215
  139MOL0     H18315   6.995  10.183   7.491  0.9557  1.0389 -1.6628
  139MOL0     H18316   6.986  10.192   7.747 -1.5328  1.8840  2.5723
  139MOL0     H18317   6.926  10.335   7.667  0.2015 -0.9457 -0.1138
  139MOL0     H18318   7.181  10.430   7.698  1.0171 -1.5804 -0.1630
  139MOL0     H18319   7.193  10.291   7.807  0.0702 -0.8597 -1.0553
  139MOL0     H18320   7.012  10.522   7.851  1.6549 -0.6342 -3.2844
  139MOL0     H18321   6.979  10.383   7.940 -0.2417  1.4265  1.2587
  139MOL0     H18322   7.201  10.371   8.042 -0.6202  1.7107  2.6924
  139MOL0     H18323   7.113  10.508   8.085 -3.7894 -3.2488 -0.6454
  139MOL0     H18324   7.252  10.637   7.894 -1.2959  0.4790  2.1473
  139MOL0     H18325   7.352  10.481   7.904  0.6778 -2.4150  2.1535
  139MOL0     H18326   7.348  10.538   8.153 -0.5321  2.1928  1.6993
  139MOL0     H18327   7.467  10.619   8.048 -0.1043 -1.1315 -0.7229
  139MOL0     H18328   7.347  10.770   8.223 -3.8988 -0.8869  2.1584
  139MOL0     H18329   7.199  10.738   8.141  1.0625  1.3273  2.0887
  139MOL0     H18330   7.243  10.522   7.369  0.7534 -1.0093  0.7033
  139MOL0     H18331   7.423  10.493   7.195  1.2873 -0.3422 -0.5109
  139MOL0     H18332   7.727  10.395   7.006 -0.7755  0.3043 -0.1046
  139MOL0     H18333   7.902  10.386   6.888 -0.7589  2.7548 -1.7646
  139MOL0     H18334   8.838   9.919   7.709  0.5456  0.1038 -0.7963
  139MOL0     H18335   8.660  10.030   7.839 -1.0624 -0.1952 -1.1178
  139MOL0     H18336   8.579  10.240   8.305 -1.9192 -0.8407  1.4742
  139MOL0     H18337   8.389  10.343   8.422  0.7384  0.6489 -0.4223
  139MOL0     H18338   8.006  10.387   8.422  0.8944  0.4686  0.5371
  139MOL0     H18339   8.055  10.265   8.290  4.2550 -1.1669  1.7256
  139MOL0     H18340   7.978  10.427   8.123  1.2700  1.3998 -0.3978
  139MOL0     H18341   7.854  10.384   8.243  0.7262 -2.1579 -4.7674
  139MOL0     H18342   7.995  10.652   8.234  1.2286 -1.1114  0.3459
  139MOL0     H18343   7.923  10.602   8.373 -0.9679 -0.7695  0.2050
  139MOL0     H18344   7.779  10.729   8.192 -0.7205  1.2053  1.0312
  139MOL0     H18345   7.766  10.587   8.090 -0.1517 -1.2470  0.2191
  139MOL0     H18346   7.495  10.477   8.375  0.2662  0.9651  0.8953
  139MOL0     H18347   8.195  10.410   8.048 -0.7053 -0.6150  0.2969
  139MOL0     H18348   8.407  10.344   7.928  1.6301  0.6844  1.1145
  140MOL0     O18349  10.335   0.567   9.993 -0.6414  0.4398 -0.2908
  140MOL0     C18350  10.331   0.677  10.048 -0.9433 -0.9476  0.5826
  140MOL0     O18351  10.219   0.754  10.060 -0.4056 -0.0569  0.4936
  140MOL0     C18352  10.135   0.731   9.951 -0.4221 -0.6305  0.5141
  140MOL0     C18353  10.011   0.675   9.984 -0.2840 -0.0861 -0.4944
  140MOL0     C18354   9.919   0.657   9.882 -0.8857 -0.9178  0.3118
  140MOL0     C18355   9.951   0.695   9.742 -0.3479  0.2026  0.2302
  140MOL0     O18356   9.865   0.675   9.638  0.2766  0.0765 -0.2050
  140MOL0     C18357   9.724   0.662   9.651 -0.0159 -0.1721 -0.4909
  140MOL0     C18358   9.679   0.623   9.511  0.0890 -0.5591  0.4506
  140MOL0     C18359   9.532   0.626   9.483 -0.6079  0.0741  0.0251
  140MOL0     C18360   9.472   0.580   9.343  0.1279 -0.0976 -0.5471
  140MOL0     C18361   9.319   0.617   9.346  0.3894 -0.8780  0.0601
  140MOL0     C18362   9.246   0.601   9.213  0.1679  0.2236  0.2746
  140MOL0     C18363   9.104   0.629   9.238 -0.1593 -0.0185 -0.0545
  140MOL0     C18364   9.013   0.583   9.121 -0.0758  0.0329 -1.0577
  140MOL0     N18365   8.874   0.605   9.154  1.0247 -1.0510  1.3664
  140MOL0     C18366   8.799   0.722   9.150 -0.8981  0.4522 -0.4388
  140MOL0     C18367   8.676   0.685   9.180 -0.3270  0.2319 -0.0709
  140MOL0     C18368   8.551   0.770   9.199 -0.6292  0.0950  0.2216
  140MOL0     C18369   8.456   0.757   9.074 -0.3125  0.3979  0.1019
  140MOL0     C18370   8.373   0.628   9.077  0.3065  0.0120  0.7542
  140MOL0     C18371   8.252   0.630   8.979  0.3093  0.0837  0.7457
  140MOL0     O18372   8.175   0.746   8.951  0.3288 -0.4912 -0.1400
  140MOL0     C18373   8.082   0.737   8.845  0.2495 -0.0291  0.0336
  140MOL0     C18374   8.005   0.628   8.816 -0.3736  0.1048 -0.2614
  140MOL0     C18375   7.915   0.636   8.704  0.3287 -0.7453  0.6639
  140MOL0     C18376   7.905   0.753   8.622  0.8724  0.2361 -0.5647
  140MOL0     C18377   7.805   0.756   8.509  0.9555  0.2355  0.1539
  140MOL0     O18378   7.780   0.877   8.462  0.1477 -0.7085 -0.8239
  140MOL0     C18379   7.672   0.913   8.386 -0.2998 -0.9638  0.3534
  140MOL0     C18380   7.546   0.868   8.408  0.8913 -0.3097  0.3514
  140MOL0     C18381   7.437   0.937   8.342 -1.0938  0.2002  0.0376
  140MOL0     C18382   7.454   1.037   8.254  0.1657 -0.3341 -0.1651
  140MOL0     O18383   7.336   1.086   8.188 -0.5671  0.5270 -1.1631
  140MOL0     C18384   7.362   1.140   8.059  0.3051 -0.3030  0.3691
  140MOL0     C18385   7.229   1.168   7.981  0.7459 -0.1747  0.2757
  140MOL0     C18386   7.138   1.040   7.952  0.6205  0.4458  0.6333
  140MOL0     C18387   7.044   1.004   8.067  0.2196  1.1706  0.6071
  140MOL0     C18388   6.927   0.912   8.015  0.2150  0.4182  0.1785
  140MOL0     C18389   6.967   0.764   7.980  0.1048 -0.3507 -0.5334
  140MOL0     C18390   6.853   0.680   7.955  0.5941 -0.7465 -0.3345
  140MOL0     C18391   6.890   0.551   7.872  0.5462 -0.0391  0.0091
  140MOL0    Cl18392   6.745   0.464   7.807  0.2380 -0.1041 -0.0165
  140MOL0     C18393   7.584   1.080   8.227  0.1458  0.2258 -0.0397
  140MOL0     C18394   7.688   1.012   8.292  0.5395  0.1269 -0.0262
  140MOL0     O18395   7.734   0.650   8.486 -0.2989  0.5565 -0.1285
  140MOL0     C18396   7.974   0.863   8.669  0.2449  0.4366 -0.2607
  140MOL0     C18397   8.061   0.856   8.777  0.3317 -0.3210  0.0445
  140MOL0     N18398   8.665   0.547   9.196 -1.2199  0.7986  0.7038
  140MOL0     N18399   8.785   0.504   9.181  0.1751 -0.9609 -0.5954
  140MOL0     C18400  10.076   0.746   9.710 -0.6302  0.2029 -0.7201
  140MOL0     C18401  10.171   0.770   9.816  0.2860 -0.7877  1.0271
  140MOL0     C18402  10.442   0.712  10.155  0.0560 -0.0921  0.7074
  140MOL0     C18403  10.542   0.620  10.186  0.2518 -0.1392 -0.7257
  140MOL0     C18404  10.654   0.661  10.259 -0.0271 -0.1397 -0.4301
  140MOL0     C18405  10.673   0.791  10.294  0.0513 -0.0299 -0.3820
  140MOL0     O18406  10.778   0.819  10.376 -0.7307 -0.2688  0.7013
  140MOL0     C18407  10.828   0.949  10.387 -0.4901  0.1163  0.1522
  140MOL0     C18408  10.831   0.981  10.539  0.0824 -0.2688 -0.5978
  140MOL0     C18409  10.900   1.114  10.573  0.7103  0.1716 -0.1146
  140MOL0     C18410  11.047   1.134  10.517  0.3582 -0.2482  0.0463
  140MOL0     C18411  11.124   1.010  10.522  1.0589  0.3947 -0.1062
  140MOL0     C18412  11.179   0.904  10.517 -0.0942  0.0702  0.6255
  140MOL0     C18413  10.564   0.880  10.276 -0.0460  0.7942 -0.8866
  140MOL0     C18414  10.452   0.840  10.203  0.6647 -1.6300  0.1401
  140MOL0     H18415   9.990   0.647  10.087 -1.1570 -0.1925 -0.6940
  140MOL0     H18416   9.826   0.602   9.897 -0.8130 -0.8276  1.1861
  140MOL0     H18417   9.665   0.752   9.674  3.5375  3.3749 -3.6904
  140MOL0     H18418   9.696   0.579   9.716 -0.7061 -0.4119 -1.0806
  140MOL0     H18419   9.713   0.523   9.482 -0.3937 -0.4814 -0.4081
  140MOL0     H18420   9.726   0.683   9.433 -3.4197  0.2444 -1.2614
  140MOL0     H18421   9.491   0.726   9.502 -0.1244  0.5298 -1.2472
  140MOL0     H18422   9.481   0.565   9.559 -0.4287 -0.1156 -0.0059
  140MOL0     H18423   9.517   0.641   9.264 -0.6715  3.3401  1.4535
  140MOL0     H18424   9.489   0.473   9.326  1.4968 -0.1976  1.2477
  140MOL0     H18425   9.316   0.720   9.383  2.5341 -0.8933  0.3824
  140MOL0     H18426   9.283   0.550   9.424 -1.0749  0.5473  0.6729
  140MOL0     H18427   9.255   0.501   9.169 -1.6668  0.2133 -0.1932
  140MOL0     H18428   9.291   0.666   9.138 -0.7286 -0.9662 -1.3526
  140MOL0     H18429   9.074   0.561   9.318  1.3230  0.2004  0.6976
  140MOL0     H18430   9.076   0.732   9.263  2.6971  0.7444  0.2821
  140MOL0     H18431   9.039   0.477   9.111  2.2056  0.6772 -2.7988
  140MOL0     H18432   9.027   0.636   9.026  0.3842  2.0062  0.0710
  140MOL0     H18433   8.841   0.822   9.136 -2.3129  0.8990 -1.6376
  140MOL0     H18434   8.581   0.874   9.211  3.1384 -0.8806  0.6757
  140MOL0     H18435   8.509   0.733   9.293  1.5931 -1.1335  0.8058
  140MOL0     H18436   8.520   0.764   8.985 -1.1156 -1.9244 -0.7394
  140MOL0     H18437   8.389   0.842   9.089 -1.1255 -0.4378  1.4453
  140MOL0     H18438   8.436   0.548   9.037  0.9277  2.1020 -2.9132
  140MOL0     H18439   8.328   0.605   9.174 -1.5629 -0.7047 -0.2302
  140MOL0     H18440   8.195   0.540   9.005  3.5218 -1.6891  2.3021
  140MOL0     H18441   8.286   0.612   8.876 -1.9152  0.2135 -0.0769
  140MOL0     H18442   8.021   0.535   8.869 -0.7752  0.0334 -0.2634
  140MOL0     H18443   7.847   0.553   8.683 -0.7573  0.6589 -1.9816
  140MOL0     H18444   7.516   0.800   8.487  0.2963 -3.8451 -2.5947
  140MOL0     H18445   7.334   0.905   8.355 -1.4525  1.1262 -0.4353
  140MOL0     H18446   7.419   1.074   7.993 -1.2210 -0.7752 -0.5182
  140MOL0     H18447   7.415   1.231   8.086  0.6728 -0.3596 -0.1548
  140MOL0     H18448   7.262   1.226   7.894  2.0262 -2.6018 -0.9455
  140MOL0     H18449   7.167   1.237   8.039 -2.4859 -0.4026 -2.5879
  140MOL0     H18450   7.200   0.952   7.930  0.7300  0.2119  1.8050
  140MOL0     H18451   7.078   1.079   7.869 -0.1968 -2.8018 -0.4587
  140MOL0     H18452   7.099   0.941   8.138  1.0628 -1.0855 -1.8913
  140MOL0     H18453   6.994   1.085   8.122 -0.7560 -0.4796  2.2922
  140MOL0     H18454   6.883   0.953   7.923  1.7758  1.1754 -0.2663
  140MOL0     H18455   6.852   0.911   8.095 -0.4314 -0.3317 -0.4171
  140MOL0     H18456   7.024   0.711   8.057  0.4756 -3.1157 -2.5369
  140MOL0     H18457   7.038   0.766   7.897  2.4548  4.2926  1.2504
  140MOL0     H18458   6.804   0.647   8.047  2.4528  0.4087  1.1324
  140MOL0     H18459   6.774   0.735   7.904 -1.2163 -2.1970  0.7976
  140MOL0     H18460   6.958   0.491   7.933 -1.0592 -2.3307 -0.3061
  140MOL0     H18461   6.937   0.583   7.778 -3.0083  0.4389 -1.8206
  140MOL0     H18462   7.617   1.161   8.162 -1.2664  1.2190  0.4387
  140MOL0     H18463   7.792   1.034   8.269  1.2475 -3.1948 -0.3892
  140MOL0     H18464   7.973   0.959   8.618  0.7748 -0.5301 -2.2092
  140MOL0     H18465   8.104   0.954   8.796 -3.1115  1.4050 -0.1064
  140MOL0     H18466  10.099   0.774   9.607  1.7702  2.5043  0.3277
  140MOL0     H18467  10.261   0.824   9.787 -1.6502  1.1940 -1.9175
  140MOL0     H18468  10.533   0.519  10.146  0.0381 -0.4477  0.0834
  140MOL0     H18469  10.734   0.596  10.293 -0.6468  0.2239  1.9251
  140MOL0     H18470  10.762   1.024  10.343 -1.3395  0.1705  1.4602
  140MOL0     H18471  10.927   0.971  10.346  1.2251  0.6061  4.1010
  140MOL0     H18472  10.732   1.004  10.581  1.0536  0.4797  1.4086
  140MOL0     H18473  10.876   0.899  10.597 -1.8311  0.5774  2.3104
  140MOL0     H18474  10.898   1.124  10.682 -1.3605  3.8084 -0.3211
  140MOL0     H18475  10.837   1.198  10.541  0.6293 -0.1472 -0.7972
  140MOL0     H18476  11.039   1.175  10.416 -1.5789  0.3155  0.3984
  140MOL0     H18477  11.101   1.205  10.580  0.3911  0.6176 -0.9410
  140MOL0     H18478  11.231   0.810  10.520  1.7258  1.0312  3.3718
  140MOL0     H18479  10.562   0.983  10.311  1.7087  0.6300 -0.2240
  140MOL0     H18480  10.381   0.921  10.183  0.8827 -1.1265  1.3042
  141MOL0     O18481   8.410   3.279   4.759 -1.0898  0.1240  0.9582
  141MOL0     C18482   8.520   3.319   4.708 -0.0384 -0.0388 -0.6049
  141MOL0     O18483   8.558   3.450   4.667  0.2062 -0.1227  0.4839
  141MOL0     C18484   8.460   3.549   4.668 -0.7904 -0.0564  0.2406
  141MOL0     C18485   8.501   3.673   4.732  0.4133 -0.8458 -0.6174
  141MOL0     C18486   8.400   3.780   4.722 -0.9813 -1.4347 -0.2397
  141MOL0     C18487   8.282   3.766   4.650  0.9317  0.1428  0.2714
  141MOL0     O18488   8.182   3.860   4.635  0.4207  0.0037 -0.0962
  141MOL0     C18489   8.210   3.986   4.698 -0.6437  0.1986  0.2324
  141MOL0     C18490   8.111   4.096   4.646 -0.2715 -0.2910  0.0044
  141MOL0     C18491   7.959   4.084   4.696 -1.2506 -1.3077  0.0908
  141MOL0     C18492   7.965   4.121   4.845 -0.0184 -0.2036  0.5421
  141MOL0     C18493   7.821   4.136   4.894  0.0986  0.1656  0.4119
  141MOL0     C18494   7.758   4.265   4.837 -0.7332 -0.1498 -1.3705
  141MOL0     C18495   7.620   4.294   4.897  0.6081  0.4555 -0.1856
  141MOL0     C18496   7.560   4.427   4.844  0.2238  0.0773  0.2577
  141MOL0     N18497   7.447   4.450   4.923  0.0430  0.2972 -0.2607
  141MOL0     C18498   7.427   4.481   5.058  0.4708  0.0583  1.4763
  141MOL0     C18499   7.298   4.494   5.074  0.0260  0.1456 -0.5091
  141MOL0     C18500   7.232   4.535   5.199  1.0983  0.0532  0.3450
  141MOL0     C18501   7.093   4.598   5.176 -0.5059 -0.2313  0.1345
  141MOL0     C18502   7.104   4.734   5.101 -0.6785 -0.0939  0.0778
  141MOL0     C18503   6.975   4.813   5.081 -0.4587  0.8324  0.5366
  141MOL0     O18504   6.960   4.903   5.188 -0.9324 -0.2515  0.0342
  141MOL0     C18505   6.851   4.985   5.191  1.1065  0.5785  0.0651
  141MOL0     C18506   6.843   5.078   5.292 -0.0667  0.5853  0.6059
  141MOL0     C18507   6.738   5.172   5.294 -0.0339 -0.0185 -0.1871
  141MOL0     C18508   6.631   5.168   5.204  0.6550  0.4224 -0.5887
  141MOL0     C18509   6.512   5.250   5.214  0.8379 -1.1088 -0.1655
  141MOL0     O18510   6.509   5.321   5.327 -0.2894 -0.2646 -0.0000
  141MOL0     C18511   6.391   5.387   5.364 -0.3308 -0.4546  0.3128
  141MOL0     C18512   6.350   5.520   5.318 -0.2433  0.2733 -1.4501
  141MOL0     C18513   6.232   5.577   5.354 -0.3909 -0.3167 -0.3409
  141MOL0     C18514   6.140   5.514   5.445  0.7903  0.2234 -0.4158
  141MOL0     O18515   6.015   5.575   5.457 -0.4091 -0.2372 -0.3128
  141MOL0     C18516   5.906   5.497   5.510  0.1411  0.2673 -0.4417
  141MOL0     C18517   5.785   5.588   5.480 -0.1192 -0.6784  1.0243
  141MOL0     C18518   5.662   5.517   5.532 -0.0276 -0.2274 -0.2731
  141MOL0     C18519   5.540   5.601   5.493  0.3372  0.7642 -0.1335
  141MOL0     C18520   5.411   5.535   5.540  0.9294  0.3689  0.4319
  141MOL0     C18521   5.290   5.618   5.499 -0.3226 -0.3830  0.0303
  141MOL0     C18522   5.247   5.590   5.360  0.9189  1.0345  0.0628
  141MOL0     C18523   5.116   5.669   5.336 -0.1556 -0.3110 -0.6612
  141MOL0    Cl18524   5.049   5.649   5.168 -0.2305 -0.3959  0.0124
  141MOL0     C18525   6.174   5.394   5.496  0.3032  0.3843 -0.2275
  141MOL0     C18526   6.301   5.330   5.455 -0.3948 -0.1148 -0.1938
  141MOL0     O18527   6.422   5.235   5.129  0.1010  0.5227 -0.3049
  141MOL0     C18528   6.644   5.078   5.102 -0.8920  0.2204  1.0628
  141MOL0     C18529   6.757   4.992   5.090 -0.6820  0.7132 -0.2281
  141MOL0     N18530   7.237   4.469   4.956  0.4824 -0.4020  0.3119
  141MOL0     N18531   7.318   4.439   4.868 -0.5014 -0.9994 -0.6732
  141MOL0     C18532   8.248   3.642   4.597  0.2209  0.5223  0.6291
  141MOL0     C18533   8.337   3.531   4.610 -0.5534 -0.3949  0.4118
  141MOL0     C18534   8.634   3.224   4.700  0.1887  0.6146 -0.5106
  141MOL0     C18535   8.614   3.089   4.730 -0.1423  0.1394  0.6902
  141MOL0     C18536   8.715   2.988   4.712  0.2029  0.8111 -0.1953
  141MOL0     C18537   8.843   3.014   4.658 -0.3248 -0.6284  0.3880
  141MOL0     O18538   8.943   2.926   4.638 -0.6430 -0.2117 -0.5790
  141MOL0     C18539   8.946   2.804   4.717  0.4498  0.8891  0.5510
  141MOL0     C18540   9.003   2.839   4.847 -0.3933 -0.4362 -0.3820
  141MOL0     C18541   9.127   2.936   4.840 -0.1838 -1.2217 -1.0541
  141MOL0     C18542   9.167   2.979   4.983 -0.1011  1.6668 -0.5349
  141MOL0     C18543   9.287   3.059   4.998 -0.0790  0.6363 -0.4128
  141MOL0     C18544   9.393   3.123   5.004 -0.6257  0.3962 -0.0241
  141MOL0     C18545   8.856   3.153   4.626 -1.6673  0.0845 -1.0004
  141MOL0     C18546   8.762   3.248   4.648  0.9640 -0.2642  0.4277
  141MOL0     H18547   8.596   3.682   4.784  1.2420 -2.2945 -1.7741
  141MOL0     H18548   8.425   3.871   4.777 -2.5999 -1.3171  0.3500
  141MOL0     H18549   8.308   4.014   4.659 -0.8265 -1.0606 -1.2355
  141MOL0     H18550   8.223   3.985   4.807  2.3255  1.1084 -0.0122
  141MOL0     H18551   8.111   4.101   4.537 -0.4080 -1.0514 -0.0357
  141MOL0     H18552   8.168   4.187   4.668 -0.7393  0.0401 -0.1473
  141MOL0     H18553   7.922   3.982   4.689  0.5355 -1.8776 -2.4794
  141MOL0     H18554   7.899   4.154   4.637 -3.3078 -1.0385  2.3407
  141MOL0     H18555   8.012   4.034   4.891 -0.9122 -0.6907  0.5509
  141MOL0     H18556   8.016   4.215   4.868 -1.0208  0.8613 -1.3020
  141MOL0     H18557   7.824   4.150   5.003  1.8000 -1.2419  0.5965
  141MOL0     H18558   7.749   4.054   4.894  0.4659 -0.2083  2.1708
  141MOL0     H18559   7.741   4.249   4.731  0.1980 -1.6764 -1.3161
  141MOL0     H18560   7.830   4.343   4.864 -2.0073  0.2178  1.3133
  141MOL0     H18561   7.537   4.224   4.885 -3.7057  5.3006 -3.0164
  141MOL0     H18562   7.650   4.319   4.999 -1.1439  3.2887 -0.2467
  141MOL0     H18563   7.530   4.423   4.739 -2.6074 -0.4613  0.9888
  141MOL0     H18564   7.617   4.518   4.862 -4.3857  3.4343 -0.3759
  141MOL0     H18565   7.509   4.492   5.129  0.6925 -0.1583  1.2548
  141MOL0     H18566   7.296   4.610   5.247 -1.6244  3.2981 -0.6505
  141MOL0     H18567   7.216   4.452   5.267 -0.9883  1.1524  1.2833
  141MOL0     H18568   7.041   4.624   5.269  0.3474  5.7784 -0.6830
  141MOL0     H18569   7.020   4.529   5.133 -1.0310  0.0110  0.6178
  141MOL0     H18570   7.183   4.795   5.145  0.3702  1.0375 -3.0751
  141MOL0     H18571   7.142   4.710   5.001  0.5107 -1.3327  0.8018
  141MOL0     H18572   6.894   4.740   5.074  1.4667 -1.4505  0.6542
  141MOL0     H18573   6.985   4.874   4.991  0.3104  0.5268  0.3994
  141MOL0     H18574   6.924   5.072   5.364  0.2383 -5.2056  0.2248
  141MOL0     H18575   6.757   5.245   5.371  4.0641  0.9760 -1.8776
  141MOL0     H18576   6.414   5.576   5.251 -1.5043  0.0419 -2.8815
  141MOL0     H18577   6.192   5.668   5.310 -0.9144  0.0532  0.8513
  141MOL0     H18578   5.901   5.474   5.617 -2.8407 -1.7504 -0.8860
  141MOL0     H18579   5.900   5.407   5.447 -0.8196  0.0436 -0.0527
  141MOL0     H18580   5.783   5.610   5.373  4.0111  0.8714  1.0951
  141MOL0     H18581   5.786   5.681   5.537 -0.2726 -1.0477  1.6460
  141MOL0     H18582   5.667   5.499   5.640  1.1118 -1.3305 -0.4777
  141MOL0     H18583   5.650   5.418   5.487 -1.6805 -0.8010  1.2993
  141MOL0     H18584   5.544   5.696   5.548 -0.9189  1.2873 -0.9018
  141MOL0     H18585   5.536   5.624   5.386  0.9226  3.6012  0.3741
  141MOL0     H18586   5.417   5.511   5.647 -2.0244 -1.1051  0.3373
  141MOL0     H18587   5.406   5.439   5.488  2.4735 -0.7960  2.2710
  141MOL0     H18588   5.315   5.724   5.507 -1.5574  0.1215 -2.0451
  141MOL0     H18589   5.198   5.599   5.555  0.7942  1.7207  2.8215
  141MOL0     H18590   5.329   5.630   5.299  2.0418  0.6045  1.2389
  141MOL0     H18591   5.236   5.484   5.337 -0.9605  1.3257 -0.5489
  141MOL0     H18592   5.107   5.776   5.355  0.7630  0.0759 -2.2194
  141MOL0     H18593   5.042   5.622   5.401 -2.5604  3.1845 -0.6019
  141MOL0     H18594   6.109   5.349   5.569 -4.6105  2.5435 -2.7964
  141MOL0     H18595   6.330   5.240   5.509 -0.5433 -0.2273 -0.2997
  141MOL0     H18596   6.583   5.075   5.012 -0.7457 -0.1307  0.9710
  141MOL0     H18597   6.758   4.932   5.000  0.8773 -0.3692  0.4630
  141MOL0     H18598   8.149   3.625   4.556  0.8286  1.5908 -1.3853
  141MOL0     H18599   8.312   3.432   4.574  0.6184 -0.2224 -0.9478
  141MOL0     H18600   8.513   3.053   4.752 -1.4511  1.5029 -2.5328
  141MOL0     H18601   8.684   2.886   4.728 -0.3270  1.0613  0.4210
  141MOL0     H18602   9.013   2.732   4.670 -2.2375 -0.1116 -2.0555
  141MOL0     H18603   8.844   2.765   4.726  0.8310 -0.3418 -0.3023
  141MOL0     H18604   8.921   2.884   4.904 -0.8921  1.3694 -2.3905
  141MOL0     H18605   9.033   2.748   4.901 -0.5964 -1.3548 -1.7658
  141MOL0     H18606   9.101   3.033   4.798 -1.1062 -0.8811  0.2572
  141MOL0     H18607   9.219   2.904   4.788  1.2186  1.9736 -0.7400
  141MOL0     H18608   9.085   3.034   5.031 -1.4629  1.1105 -2.1564
  141MOL0     H18609   9.184   2.889   5.042  0.8372  1.2936 -1.3502
  141MOL0     H18610   9.488   3.171   5.010 -0.0039 -0.9281  1.6734
  141MOL0     H18611   8.940   3.189   4.569 -0.9511 -0.1508 -0.1080
  141MOL0     H18612   8.791   3.347   4.617  2.7567 -0.9373 -0.1432
  142MOL0     O18613   8.086   3.437   5.257  0.7071 -0.8997 -1.1394
  142MOL0     C18614   8.182   3.484   5.195  0.1189  0.3353  0.3143
  142MOL0     O18615   8.176   3.607   5.128 -0.6157 -0.3608  0.7896
  142MOL0     C18616   8.064   3.681   5.117  1.1652 -0.2721  0.7207
  142MOL0     C18617   8.007   3.707   4.987  0.0533  1.3149 -0.6438
  142MOL0     C18618   7.890   3.774   4.969 -0.5625 -1.4947 -0.1058
  142MOL0     C18619   7.823   3.833   5.081 -0.1475 -0.5872  0.4993
  142MOL0     O18620   7.702   3.889   5.052  0.5167  0.8016  0.3236
  142MOL0     C18621   7.622   3.950   5.160  0.7260 -0.6404  0.5028
  142MOL0     C18622   7.484   4.001   5.127  0.8090  0.0833  0.6959
  142MOL0     C18623   7.374   3.897   5.133  0.6483  0.2929 -0.7765
  142MOL0     C18624   7.237   3.943   5.085 -0.0157 -0.8027  0.0229
  142MOL0     C18625   7.186   4.077   5.149 -0.7007  0.4301  0.0451
  142MOL0     C18626   7.068   4.128   5.082  0.6224  0.0974  0.6047
  142MOL0     C18627   6.973   4.025   5.019 -0.0997 -0.6828 -0.4089
  142MOL0     C18628   6.836   4.080   4.988  0.0590  0.1853 -0.6228
  142MOL0     N18629   6.769   4.040   4.867  0.0548 -0.1450  0.1731
  142MOL0     C18630   6.683   3.931   4.862 -0.7250  0.7547 -0.5626
  142MOL0     C18631   6.619   3.935   4.749 -1.0313  0.4833  0.1698
  142MOL0     C18632   6.501   3.848   4.716 -0.4275 -0.4978  0.3123
  142MOL0     C18633   6.469   3.860   4.571  0.7570  0.4434 -0.6017
  142MOL0     C18634   6.332   3.804   4.536 -0.9843  0.2694 -0.0395
  142MOL0     C18635   6.306   3.807   4.385  0.0233 -0.6039  0.8528
  142MOL0     O18636   6.172   3.758   4.391  0.0206 -0.1600  0.9642
  142MOL0     C18637   6.090   3.778   4.283 -0.8436  0.0146  0.2387
  142MOL0     C18638   6.143   3.806   4.154 -0.3127  0.0755 -0.4047
  142MOL0     C18639   6.058   3.812   4.047  0.8905 -0.3033 -0.7552
  142MOL0     C18640   5.921   3.787   4.066  0.1316 -0.0808 -0.2000
  142MOL0     C18641   5.824   3.788   3.951 -0.6042 -0.7792 -0.4619
  142MOL0     O18642   5.698   3.748   3.976 -0.0258 -0.0366  0.1089
  142MOL0     C18643   5.599   3.717   3.881 -0.4692  0.3499  0.1572
  142MOL0     C18644   5.608   3.727   3.737 -0.8394 -0.3458 -0.1406
  142MOL0     C18645   5.489   3.714   3.661 -0.2167  0.5936  0.3598
  142MOL0     C18646   5.364   3.686   3.726 -0.1105  0.4984  0.0471
  142MOL0     O18647   5.244   3.675   3.668  0.4708  0.0923  1.0650
  142MOL0     C18648   5.235   3.663   3.518 -0.7299  0.0518  0.2068
  142MOL0     C18649   5.092   3.650   3.469 -0.4936  0.3665 -0.3498
  142MOL0     C18650   5.005   3.545   3.538 -0.1231 -0.5978 -0.4848
  142MOL0     C18651   4.865   3.536   3.468 -0.1147  0.1240 -0.3187
  142MOL0     C18652   4.762   3.471   3.557  0.1205 -0.3368 -0.4557
  142MOL0     C18653   4.626   3.489   3.513  0.6131 -0.2427  0.5705
  142MOL0     C18654   4.511   3.415   3.573 -0.5825  0.8715 -1.0002
  142MOL0     C18655   4.377   3.460   3.507  0.0178  1.0280  0.1190
  142MOL0    Cl18656   4.359   3.635   3.551  0.3058 -0.0383 -0.2673
  142MOL0     C18657   5.365   3.685   3.868 -0.9284 -0.0929 -0.2303
  142MOL0     C18658   5.482   3.684   3.942  0.6109 -0.5208 -0.0306
  142MOL0     O18659   5.871   3.822   3.844  0.2947  0.7343  0.3238
  142MOL0     C18660   5.871   3.757   4.194  0.4134 -0.4863 -0.6759
  142MOL0     C18661   5.956   3.757   4.304 -1.4653 -1.2698  0.1611
  142MOL0     N18662   6.666   4.049   4.675 -0.4606 -0.5483  0.7320
  142MOL0     N18663   6.751   4.109   4.748 -0.2849 -0.6808 -0.0790
  142MOL0     C18664   7.870   3.802   5.206  0.1453 -0.3207  0.1202
  142MOL0     C18665   7.989   3.728   5.226  0.2237 -0.5260 -0.0643
  142MOL0     C18666   8.306   3.414   5.186 -0.2837  0.1314 -0.7642
  142MOL0     C18667   8.390   3.441   5.079 -0.3924  0.3648 -0.1546
  142MOL0     C18668   8.505   3.355   5.063 -0.8411  0.0020 -1.2226
  142MOL0     C18669   8.537   3.253   5.155 -0.1353 -0.9210 -0.8854
  142MOL0     O18670   8.651   3.176   5.149 -0.4821  0.2659  0.1852
  142MOL0     C18671   8.767   3.238   5.084 -0.2761 -0.3453 -0.1300
  142MOL0     C18672   8.893   3.221   5.170 -0.0365 -0.6837  0.4839
  142MOL0     C18673   9.009   3.317   5.125  0.8491 -0.8509  0.4362
  142MOL0     C18674   9.143   3.301   5.191 -0.0631 -0.7399 -0.5082
  142MOL0     C18675   9.133   3.341   5.331  0.3929 -0.4688  0.2605
  142MOL0     C18676   9.125   3.364   5.453  0.6291 -0.0031  0.0260
  142MOL0     C18677   8.458   3.233   5.265 -0.1516  0.6038  0.0176
  142MOL0     C18678   8.347   3.313   5.288  0.3046 -0.1315  0.3866
  142MOL0     H18679   8.060   3.667   4.901 -1.2725 -2.1631 -0.0163
  142MOL0     H18680   7.856   3.783   4.866  0.8942  3.4695 -0.4182
  142MOL0     H18681   7.686   4.035   5.185  1.5231 -0.9816 -0.3074
  142MOL0     H18682   7.608   3.874   5.238 -1.1918 -2.3576 -1.3852
  142MOL0     H18683   7.486   4.051   5.030 -1.1914  1.0297  1.0944
  142MOL0     H18684   7.461   4.077   5.203  0.9049 -0.5350  1.3496
  142MOL0     H18685   7.364   3.865   5.238 -0.7043 -0.2027 -1.0355
  142MOL0     H18686   7.412   3.804   5.090  2.8155 -0.9496  3.3241
  142MOL0     H18687   7.261   3.969   4.981 -0.9970 -0.9260 -0.2436
  142MOL0     H18688   7.161   3.866   5.101 -2.2071  1.4444  1.0279
  142MOL0     H18689   7.270   4.146   5.135 -1.1186  0.8007 -0.6413
  142MOL0     H18690   7.161   4.048   5.252 -2.1201 -1.6687 -0.8307
  142MOL0     H18691   7.092   4.207   5.010  0.0070 -1.2056 -1.0967
  142MOL0     H18692   7.008   4.181   5.157 -0.0361 -1.0575  0.9259
  142MOL0     H18693   7.018   3.983   4.929  1.9150 -0.6360  0.5022
  142MOL0     H18694   6.959   3.942   5.089 -1.2196 -1.7835 -1.8852
  142MOL0     H18695   6.836   4.190   4.988 -3.5765  0.3111 -0.5220
  142MOL0     H18696   6.783   4.076   5.083 -0.2205 -0.0124 -0.7840
  142MOL0     H18697   6.651   3.877   4.950  0.0496 -0.8235 -1.2023
  142MOL0     H18698   6.414   3.884   4.773 -2.0897  0.4269 -2.6006
  142MOL0     H18699   6.529   3.748   4.750 -0.5428 -0.3282  0.9223
  142MOL0     H18700   6.539   3.798   4.515 -0.6082 -2.4554  0.7109
  142MOL0     H18701   6.467   3.965   4.541 -1.9959  0.7686  0.3758
  142MOL0     H18702   6.330   3.701   4.574 -1.0614  0.2175 -0.1807
  142MOL0     H18703   6.249   3.861   4.578 -1.8521 -0.0909 -1.1991
  142MOL0     H18704   6.369   3.734   4.334  0.2800  1.8506 -2.6857
  142MOL0     H18705   6.316   3.901   4.330 -0.3410 -1.8268 -1.4561
  142MOL0     H18706   6.249   3.807   4.131 -0.4301 -0.6834 -1.0041
  142MOL0     H18707   6.094   3.848   3.951  5.7603  0.2833  0.9810
  142MOL0     H18708   5.699   3.769   3.696  0.6911 -2.5823  0.7790
  142MOL0     H18709   5.479   3.737   3.556 -2.0091 -0.0187  0.3564
  142MOL0     H18710   5.281   3.572   3.478 -0.3916  0.2613  0.1183
  142MOL0     H18711   5.291   3.748   3.479 -0.0539 -1.3839 -2.1204
  142MOL0     H18712   5.106   3.631   3.362 -0.3251 -3.1584  0.2083
  142MOL0     H18713   5.041   3.747   3.478 -0.0889  0.4159  2.4177
  142MOL0     H18714   4.986   3.579   3.640 -0.8601 -1.7892 -0.2150
  142MOL0     H18715   5.056   3.449   3.554  0.8227  0.0080  0.2570
  142MOL0     H18716   4.824   3.634   3.439  1.3919  0.5475 -1.1141
  142MOL0     H18717   4.874   3.471   3.381 -2.7355  0.2031 -0.7361
  142MOL0     H18718   4.766   3.515   3.657  1.3318 -0.2624 -0.5243
  142MOL0     H18719   4.773   3.363   3.572 -0.6684 -0.1446  2.0258
  142MOL0     H18720   4.613   3.463   3.408 -2.9583  1.3106  0.4736
  142MOL0     H18721   4.608   3.597   3.520 -0.2200 -0.2589 -0.9200
  142MOL0     H18722   4.527   3.307   3.561  2.4075  0.9523  1.1876
  142MOL0     H18723   4.514   3.438   3.680  1.6033 -2.1604 -0.2495
  142MOL0     H18724   4.295   3.393   3.536 -0.4688  1.0605 -1.1065
  142MOL0     H18725   4.381   3.450   3.398  0.9137  1.6659  0.0824
  142MOL0     H18726   5.276   3.668   3.928 -0.0497 -0.3658  1.0234
  142MOL0     H18727   5.473   3.677   4.050  0.4549  1.5553  0.1471
  142MOL0     H18728   5.770   3.720   4.203 -0.0567  0.6260 -1.2522
  142MOL0     H18729   5.909   3.736   4.399 -1.1146  1.9844  1.1740
  142MOL0     H18730   7.809   3.835   5.290  0.7546  1.3717 -0.0727
  142MOL0     H18731   8.021   3.696   5.325  1.2278 -1.5551 -0.7054
  142MOL0     H18732   8.368   3.510   4.998  3.5444  0.3125 -1.4708
  142MOL0     H18733   8.563   3.377   4.974 -1.2822  1.6790 -1.1340
  142MOL0     H18734   8.752   3.346   5.076 -0.7928 -0.3842  0.2841
  142MOL0     H18735   8.778   3.195   4.984  0.9143 -0.0416 -0.1447
  142MOL0     H18736   8.860   3.229   5.274 -0.3755 -0.5518  0.3686
  142MOL0     H18737   8.924   3.118   5.152 -1.9265 -1.3897  1.1362
  142MOL0     H18738   8.975   3.420   5.135 -1.0660 -1.3685 -0.3278
  142MOL0     H18739   9.022   3.307   5.017  0.3887  1.8265  0.0703
  142MOL0     H18740   9.168   3.195   5.195 -1.0112 -0.9929 -1.0615
  142MOL0     H18741   9.213   3.377   5.153 -2.5234  1.7846 -0.3244
  142MOL0     H18742   9.115   3.375   5.559 -0.7417 -2.7733  0.2671
  142MOL0     H18743   8.484   3.157   5.338  0.6569 -1.4518 -2.2771
  142MOL0     H18744   8.287   3.284   5.374  0.1043 -0.1893  0.2287
  143MOL0     O18745   2.947   4.852   9.552 -0.6505 -0.5026 -0.4493
  143MOL0     C18746   3.000   4.867   9.440 -1.2475  0.3937 -0.1564
  143MOL0     O18747   3.070   4.765   9.375 -0.2847 -0.1464 -0.0574
  143MOL0     C18748   3.060   4.642   9.421  0.5611  0.6804  0.4974
  143MOL0     C18749   2.949   4.568   9.383  0.3500  0.1765  0.0951
  143MOL0     C18750   2.942   4.432   9.415  0.6428  0.0062  0.3958
  143MOL0     C18751   3.045   4.365   9.483  0.8802 -1.3475  0.1809
  143MOL0     O18752   3.054   4.237   9.481  0.3621  0.8343  0.0398
  143MOL0     C18753   3.065   4.180   9.613  0.0590  0.8266 -0.3616
  143MOL0     C18754   3.042   4.024   9.616  0.5455  0.4224  0.3693
  143MOL0     C18755   3.066   3.953   9.753 -0.2585  1.0615  0.8457
  143MOL0     C18756   2.986   3.981   9.874  0.3045  0.4330 -0.5899
  143MOL0     C18757   2.837   4.006   9.870  0.2254  0.2877  0.1897
  143MOL0     C18758   2.771   4.039  10.010  0.5772  0.5156 -0.0360
  143MOL0     C18759   2.617   4.019  10.013  0.5273 -0.0418 -0.4947
  143MOL0     C18760   2.556   4.106   9.903 -0.1887  0.9976 -1.2739
  143MOL0     N18761   2.415   4.126   9.927 -0.5807 -0.8793  0.5006
  143MOL0     C18762   2.358   4.196  10.030  0.7226  0.4365  0.2882
  143MOL0     C18763   2.228   4.182  10.019 -0.3058 -0.0613 -0.2335
  143MOL0     C18764   2.126   4.236  10.111  0.6414 -0.6581  0.0906
  143MOL0     C18765   1.981   4.231  10.055 -0.4645  0.1086  0.0406
  143MOL0     C18766   1.879   4.284  10.156  0.6283 -0.7757 -0.6932
  143MOL0     C18767   1.738   4.315  10.098 -0.4285  0.9452 -0.3953
  143MOL0     O18768   1.655   4.337  10.212  0.8945 -0.1960 -0.3174
  143MOL0     C18769   1.516   4.363  10.193 -0.0739 -0.1372 -0.0979
  143MOL0     C18770   1.451   4.422  10.304  0.7094 -0.3356 -0.5300
  143MOL0     C18771   1.325   4.482  10.290 -0.1677  0.0642  0.1672
  143MOL0     C18772   1.252   4.465  10.177 -0.4527  0.1871  0.5302
  143MOL0     C18773   1.111   4.508  10.169 -0.1188  0.2794  0.0292
  143MOL0     O18774   1.063   4.560  10.292  0.3371  0.7851  0.6941
  143MOL0     C18775   0.927   4.584  10.311  0.4768 -0.9315 -0.3496
  143MOL0     C18776   0.851   4.666  10.225  0.7024 -0.1073  0.1010
  143MOL0     C18777   0.720   4.696  10.246  0.5679  0.2658  1.0356
  143MOL0     C18778   0.654   4.638  10.350  0.5483  1.3193  0.1057
  143MOL0     O18779   0.518   4.661  10.360  0.3759 -0.7193 -0.1829
  143MOL0     C18780   0.422   4.572  10.418 -0.6919 -0.2975  0.1960
  143MOL0     C18781   0.277   4.609  10.375  0.1936 -1.0688  0.6463
  143MOL0     C18782   0.226   4.742  10.427  1.3855  0.1976  0.4294
  143MOL0     C18783   0.098   4.782  10.356  0.3010 -0.1994  0.0524
  143MOL0     C18784   0.043   4.908  10.418  0.2674 -0.0596 -0.4116
  143MOL0     C18785  -0.111   4.945  10.382 -0.1816 -0.9220 -0.0698
  143MOL0     C18786  -0.207   4.878  10.484  0.4400  0.2126  0.3294
  143MOL0     C18787  -0.348   4.915  10.468  0.7584  0.8386 -0.3087
  143MOL0    Cl18788  -0.435   4.820  10.332 -0.0926 -0.1838 -0.2887
  143MOL0     C18789   0.722   4.546  10.437 -0.3635  0.1172  1.2541
  143MOL0     C18790   0.856   4.529  10.421  0.0123  0.8466  0.0256
  143MOL0     O18791   1.044   4.483  10.076  0.4365 -0.4359  0.2659
  143MOL0     C18792   1.310   4.399  10.065 -0.2732 -0.2288  0.2486
  143MOL0     C18793   1.440   4.352  10.070  0.4126 -1.1927 -0.3346
  143MOL0     N18794   2.195   4.104   9.913  1.2510 -0.0615  0.0252
  143MOL0     N18795   2.313   4.077   9.852  0.9279 -0.2786 -0.6780
  143MOL0     C18796   3.161   4.438   9.519 -0.1540 -0.2091 -0.6437
  143MOL0     C18797   3.163   4.574   9.481 -0.4871  0.2829  0.8507
  143MOL0     C18798   3.002   5.001   9.384  0.0422  0.2312  0.0800
  143MOL0     C18799   3.086   5.030   9.267 -0.1694 -0.2350 -0.6653
  143MOL0     C18800   3.098   5.155   9.222 -0.2454  0.5141 -0.0132
  143MOL0     C18801   3.008   5.258   9.267 -0.4233 -0.0734 -0.2703
  143MOL0     O18802   2.999   5.377   9.197  0.4399  0.2481  0.3070
  143MOL0     C18803   3.066   5.494   9.259  0.7966  0.8911 -0.1865
  143MOL0     C18804   3.034   5.616   9.187 -0.2385 -0.3428 -1.2301
  143MOL0     C18805   3.086   5.743   9.260  0.8463  0.5992  0.6337
  143MOL0     C18806   3.222   5.790   9.216  0.0158 -0.3901 -0.3243
  143MOL0     C18807   3.328   5.745   9.310  0.6611 -0.5399 -0.8925
  143MOL0     C18808   3.412   5.721   9.386 -0.7807 -0.5308 -1.0267
  143MOL0     C18809   2.942   5.241   9.391 -0.3272  0.3818  0.3637
  143MOL0     C18810   2.938   5.109   9.443 -0.1705  0.2110 -0.2592
  143MOL0     H18811   2.868   4.611   9.325  1.3576  1.1852 -0.5902
  143MOL0     H18812   2.855   4.379   9.379 -1.2154  2.2321  1.4026
  143MOL0     H18813   2.990   4.220   9.681  0.3177 -1.0651  1.1192
  143MOL0     H18814   3.166   4.205   9.649  0.8044  0.4095 -2.0671
  143MOL0     H18815   3.113   3.971   9.552  0.6450 -2.5110  2.7428
  143MOL0     H18816   2.936   4.013   9.589 -0.1077 -0.3886  2.9938
  143MOL0     H18817   3.172   3.963   9.775  0.1946  0.0128 -0.7061
  143MOL0     H18818   3.047   3.847   9.732 -0.7157  1.3096 -0.0597
  143MOL0     H18819   2.997   3.900   9.946 -1.8103  1.7165  1.3088
  143MOL0     H18820   3.036   4.068   9.917  1.4193 -0.2519 -0.4612
  143MOL0     H18821   2.788   3.918   9.829 -0.3106  0.8235 -0.3406
  143MOL0     H18822   2.816   4.078   9.791 -5.5646  0.6689  1.5899
  143MOL0     H18823   2.788   4.146  10.027 -1.7953  1.2453 -1.7577
  143MOL0     H18824   2.797   3.974  10.094 -0.4569  1.5269  1.1062
  143MOL0     H18825   2.589   3.916   9.993 -0.1270 -0.4665  2.2705
  143MOL0     H18826   2.580   4.043  10.113  0.2778 -3.3590  0.3216
  143MOL0     H18827   2.579   4.053   9.810 -0.8872  0.5897 -1.2283
  143MOL0     H18828   2.608   4.202   9.907 -0.7534  1.3813  3.4590
  143MOL0     H18829   2.405   4.252  10.110  2.5667 -0.6309  0.0112
  143MOL0     H18830   2.154   4.340  10.128 -0.0748 -0.5815  0.8750
  143MOL0     H18831   2.128   4.178  10.203 -0.0039 -0.6537  0.1139
  143MOL0     H18832   1.947   4.128  10.041  0.8277 -0.1066 -1.7819
  143MOL0     H18833   1.983   4.281   9.957  2.6992 -0.3204 -0.2203
  143MOL0     H18834   1.870   4.213  10.239 -2.1964  0.8757  0.5694
  143MOL0     H18835   1.909   4.375  10.209  1.4192 -1.9530  0.9696
  143MOL0     H18836   1.704   4.220  10.056 -0.2715 -0.0545  1.6297
  143MOL0     H18837   1.730   4.402  10.033  0.2702  0.1530 -1.5835
  143MOL0     H18838   1.507   4.418  10.396 -1.5812 -1.7688  0.9068
  143MOL0     H18839   1.279   4.512  10.384  0.9335  1.9415  0.1530
  143MOL0     H18840   0.898   4.705  10.136  0.4580  0.4511  0.2122
  143MOL0     H18841   0.667   4.768  10.183  4.1488  0.4165 -2.1961
  143MOL0     H18842   0.431   4.578  10.527 -1.8842 -1.2150  0.3707
  143MOL0     H18843   0.437   4.469  10.382  0.6017  0.2364 -0.8761
  143MOL0     H18844   0.216   4.524  10.409 -3.3658  0.6692 -0.9452
  143MOL0     H18845   0.276   4.604  10.266 -1.8106 -2.0000  0.6636
  143MOL0     H18846   0.297   4.824  10.408  0.0229  1.6298  1.2475
  143MOL0     H18847   0.208   4.738  10.534 -3.0089  0.9514 -0.0945
  143MOL0     H18848   0.115   4.794  10.249  1.7642 -2.3546 -0.0330
  143MOL0     H18849   0.024   4.703  10.374 -2.0271  1.6718 -0.7911
  143MOL0     H18850   0.101   4.999  10.406 -1.6744  1.3205  0.0944
  143MOL0     H18851   0.051   4.880  10.524 -0.3279  2.6092  0.4164
  143MOL0     H18852  -0.138   4.915  10.281  1.5560  0.9268 -1.1538
  143MOL0     H18853  -0.129   5.052  10.391 -1.1732 -0.8947 -1.9704
  143MOL0     H18854  -0.186   4.771  10.487  1.7454  0.4628  2.1331
  143MOL0     H18855  -0.175   4.904  10.586  0.5258  1.1091  0.0849
  143MOL0     H18856  -0.357   5.023  10.453 -0.9046  0.9562  1.2739
  143MOL0     H18857  -0.407   4.881  10.554 -0.7094  1.6030 -0.9734
  143MOL0     H18858   0.675   4.499  10.523  0.8014 -1.7862  0.9047
  143MOL0     H18859   0.905   4.461  10.490 -2.0686 -0.0169  0.7358
  143MOL0     H18860   1.259   4.405   9.970  3.0347  0.6247 -1.6284
  143MOL0     H18861   1.465   4.312   9.973 -2.6833  0.7720 -2.1035
  143MOL0     H18862   3.246   4.386   9.563 -0.3435  0.7931  0.9866
  143MOL0     H18863   3.254   4.633   9.488  0.2195 -0.1160 -2.7351
  143MOL0     H18864   3.131   4.941   9.224  0.2922  0.1237 -0.9361
  143MOL0     H18865   3.158   5.169   9.132 -1.8953 -3.6669 -2.0574
  143MOL0     H18866   3.174   5.481   9.259  0.6112 -1.1643  0.9899
  143MOL0     H18867   3.037   5.510   9.364  2.2173  1.6148  0.1256
  143MOL0     H18868   3.066   5.613   9.083  0.0453 -0.1778 -1.1484
  143MOL0     H18869   2.925   5.631   9.185 -0.4981 -1.4115  1.2816
  143MOL0     H18870   3.073   5.715   9.365  0.1727 -0.8159  0.2071
  143MOL0     H18871   3.013   5.822   9.238 -0.0581  0.3296  2.4555
  143MOL0     H18872   3.252   5.768   9.113  2.5458 -0.2058  0.3051
  143MOL0     H18873   3.215   5.899   9.211  2.1285 -0.2406 -0.7809
  143MOL0     H18874   3.492   5.706   9.456  0.6933 -2.6602 -3.0125
  143MOL0     H18875   2.881   5.317   9.438  1.4315  2.4548 -0.5306
  143MOL0     H18876   2.862   5.091   9.518 -0.9931  1.6751 -0.7001
  144MOL0     O18877   6.351  10.364  10.886  0.1235 -0.0097  0.1004
  144MOL0     C18878   6.471  10.381  10.862  0.2600 -0.3635  0.0322
  144MOL0     O18879   6.542  10.323  10.756  0.8840 -0.3179  0.9578
  144MOL0     C18880   6.478  10.243  10.664 -1.0451 -0.2577 -0.1736
  144MOL0     C18881   6.564  10.177  10.574  0.1163  1.1112 -0.3204
  144MOL0     C18882   6.512  10.084  10.478  0.2993 -0.1445 -1.0349
  144MOL0     C18883   6.375  10.071  10.451  0.1896  0.7311  0.0861
  144MOL0     O18884   6.335   9.981  10.351 -1.3071  0.0170 -0.2300
  144MOL0     C18885   6.203   9.980  10.316 -0.1029 -0.4479 -1.0068
  144MOL0     C18886   6.171   9.879  10.204  0.6269  1.2005  0.8527
  144MOL0     C18887   6.019   9.883  10.178 -0.2781 -0.2359  0.1644
  144MOL0     C18888   5.932   9.801  10.274  0.0297 -0.9071  0.1677
  144MOL0     C18889   5.792   9.832  10.236  0.3986  0.2433 -0.2960
  144MOL0     C18890   5.736   9.960  10.307  0.2063  1.0939  0.9127
  144MOL0     C18891   5.581   9.959  10.304 -0.6826 -0.0268  0.5182
  144MOL0     C18892   5.527  10.053  10.192  1.0299  0.4632  0.3950
  144MOL0     N18893   5.378  10.046  10.196  0.1983 -0.5101 -0.2326
  144MOL0     C18894   5.284  10.105  10.291 -0.5983  0.4989  0.4270
  144MOL0     C18895   5.170  10.043  10.274  0.1179 -0.1132  0.5510
  144MOL0     C18896   5.043  10.077  10.352 -0.1162 -0.8320  0.1402
  144MOL0     C18897   4.993  10.219  10.316  0.2125 -0.2360 -0.6785
  144MOL0     C18898   4.971  10.242  10.167 -0.6098 -0.3188  0.5600
  144MOL0     C18899   4.891  10.372  10.139  0.2441 -0.6344 -0.0289
  144MOL0     O18900   4.756  10.368  10.192 -0.4923  0.1883 -0.1760
  144MOL0     C18901   4.649  10.300  10.143  0.3378  0.7747 -0.0787
  144MOL0     C18902   4.658  10.224  10.031 -0.2604 -0.1573 -0.0452
  144MOL0     C18903   4.556  10.152   9.971 -0.2439  0.1432 -0.2502
  144MOL0     C18904   4.427  10.149  10.030  0.8644  0.0458 -0.1461
  144MOL0     C18905   4.317  10.068   9.959  0.1779  0.1039  0.5842
  144MOL0     O18906   4.347  10.005   9.842 -0.6391  1.1995  0.0739
  144MOL0     C18907   4.253   9.925   9.792  0.4283 -0.1147 -0.7041
  144MOL0     C18908   4.146   9.970   9.721 -0.8743  0.2618 -0.2828
  144MOL0     C18909   4.073   9.874   9.645  0.0257  0.5981  0.6109
  144MOL0     C18910   4.095   9.742   9.671  1.2512 -0.4325  0.0475
  144MOL0     O18911   4.021   9.659   9.590  0.6246  0.3176 -0.1084
  144MOL0     C18912   3.906   9.603   9.649 -0.0473 -0.4212  0.2345
  144MOL0     C18913   3.928   9.490   9.741  0.0866 -0.9157  0.4509
  144MOL0     C18914   3.800   9.404   9.780 -1.2777  0.4197 -0.1860
  144MOL0     C18915   3.838   9.270   9.842  0.2086  0.3810 -0.3933
  144MOL0     C18916   3.704   9.202   9.892 -0.3115  0.1561 -0.3684
  144MOL0     C18917   3.617   9.143   9.778  0.7829 -0.4747 -0.1355
  144MOL0     C18918   3.474   9.112   9.826  0.0776 -1.2522  0.9632
  144MOL0     C18919   3.403   9.247   9.824  0.4330  0.3169  0.1254
  144MOL0    Cl18920   3.247   9.226   9.888 -0.1235 -0.2850  0.0014
  144MOL0     C18921   4.194   9.702   9.746 -0.5523 -0.3511 -0.5682
  144MOL0     C18922   4.280   9.796   9.811 -0.2217 -0.5947  0.3018
  144MOL0     O18923   4.206  10.071  10.011  0.2285 -0.3774 -0.2515
  144MOL0     C18924   4.421  10.221  10.154 -0.5987 -0.0818  0.4580
  144MOL0     C18925   4.527  10.296  10.204 -0.0686 -0.5595  0.2768
  144MOL0     N18926   5.182   9.973  10.160 -1.2020 -0.5204 -0.5602
  144MOL0     N18927   5.300   9.973  10.116 -0.7758 -0.4789 -0.4560
  144MOL0     C18928   6.287  10.136  10.536 -0.1722 -0.3855  0.3216
  144MOL0     C18929   6.341  10.218  10.641 -0.5470 -0.4225 -0.7853
  144MOL0     C18930   6.549  10.478  10.947  0.2962  0.3576  0.0918
  144MOL0     C18931   6.684  10.499  10.927 -0.2236  0.1072  0.4474
  144MOL0     C18932   6.756  10.591  11.011 -0.2927  0.2452 -0.1241
  144MOL0     C18933   6.700  10.665  11.112 -0.2509  0.2159  0.1510
  144MOL0     O18934   6.768  10.755  11.186 -0.4241 -0.8021 -0.0199
  144MOL0     C18935   6.908  10.781  11.175 -0.4583  0.3756  1.1952
  144MOL0     C18936   6.973  10.868  11.282 -0.1097 -0.9867 -0.5104
  144MOL0     C18937   6.893  11.002  11.301 -0.6941  0.5934  0.6600
  144MOL0     C18938   6.953  11.065  11.420  0.2462  0.2545  0.1079
  144MOL0     C18939   6.897  11.014  11.547 -1.4758 -0.2413  0.0385
  144MOL0     C18940   6.875  10.968  11.655 -0.4020 -0.2981  0.0474
  144MOL0     C18941   6.563  10.639  11.133  0.3844 -0.3437  0.6976
  144MOL0     C18942   6.487  10.552  11.050 -0.3484 -0.2169 -1.0894
  144MOL0     H18943   6.671  10.197  10.581  0.5494 -1.3571  1.7835
  144MOL0     H18944   6.570  10.025  10.408  3.2522  3.1316 -1.5966
  144MOL0     H18945   6.169  10.080  10.289  1.1212 -0.2806 -1.9714
  144MOL0     H18946   6.137   9.947  10.397 -0.0872 -1.4277 -1.3667
  144MOL0     H18947   6.201   9.777  10.228  0.0261  1.1883  1.6087
  144MOL0     H18948   6.216   9.911  10.110  0.2378 -0.1927  0.1764
  144MOL0     H18949   6.006   9.843  10.077  0.6985  0.6053 -0.3179
  144MOL0     H18950   5.988   9.987  10.170 -1.1988 -0.3540  1.7951
  144MOL0     H18951   5.953   9.695  10.264  2.1745 -0.5004  0.0146
  144MOL0     H18952   5.953   9.820  10.379  2.9932  1.5372 -0.7367
  144MOL0     H18953   5.744   9.746  10.283  1.9689 -1.2098 -1.2278
  144MOL0     H18954   5.775   9.830  10.128  1.1235 -0.3813 -0.4110
  144MOL0     H18955   5.774  10.056  10.271  2.2751  0.0437  0.1396
  144MOL0     H18956   5.756   9.951  10.414 -3.0748  1.5099  1.6778
  144MOL0     H18957   5.544   9.859  10.279 -0.3889  0.6440 -3.1653
  144MOL0     H18958   5.543   9.989  10.402 -0.4873 -1.4998  1.0756
  144MOL0     H18959   5.556  10.013  10.095 -2.5652 -1.3337 -0.0841
  144MOL0     H18960   5.561  10.156  10.205  0.2102  0.7906 -0.0298
  144MOL0     H18961   5.307  10.175  10.371 -1.5852 -0.3121  1.4555
  144MOL0     H18962   5.074  10.083  10.456  1.7744 -0.0220 -0.4243
  144MOL0     H18963   4.966  10.002  10.333  0.0857 -0.9976 -0.0360
  144MOL0     H18964   5.067  10.287  10.360 -1.0285  0.4729  0.3696
  144MOL0     H18965   4.896  10.234  10.363  0.5963  1.8430 -0.4179
  144MOL0     H18966   5.066  10.237  10.113  0.4251  1.0846  2.1444
  144MOL0     H18967   4.913  10.160  10.124 -1.2851  0.7042 -0.5428
  144MOL0     H18968   4.905  10.399  10.034  1.5350  1.4232  0.6066
  144MOL0     H18969   4.944  10.455  10.187 -0.6390 -0.5270  0.7813
  144MOL0     H18970   4.756  10.222   9.984  0.9954 -0.7151  2.4378
  144MOL0     H18971   4.574  10.093   9.881  0.5614 -2.2547  1.3934
  144MOL0     H18972   4.134  10.078   9.715  4.2546  1.1990  1.4776
  144MOL0     H18973   4.002   9.907   9.570  0.9357  4.5206  1.2464
  144MOL0     H18974   3.870   9.562   9.554  0.4859  0.4031 -0.3451
  144MOL0     H18975   3.838   9.675   9.697  1.4700  0.6965  0.8013
  144MOL0     H18976   3.978   9.524   9.833  1.4204  2.5194 -1.3715
  144MOL0     H18977   4.007   9.425   9.702  1.5759  1.1287 -0.1300
  144MOL0     H18978   3.742   9.389   9.689  1.9777 -2.0073 -2.0981
  144MOL0     H18979   3.741   9.465   9.849 -0.4711  0.0443  0.8738
  144MOL0     H18980   3.890   9.209   9.768  1.2315  0.7745 -0.0130
  144MOL0     H18981   3.902   9.276   9.930  0.1949  1.2266 -0.4306
  144MOL0     H18982   3.657   9.271   9.963 -1.1345 -1.6963  0.9812
  144MOL0     H18983   3.728   9.111   9.948 -1.4950  0.5606  0.8608
  144MOL0     H18984   3.663   9.049   9.747  1.9160  0.9137 -3.0475
  144MOL0     H18985   3.611   9.210   9.692 -0.5947 -0.5786 -0.1419
  144MOL0     H18986   3.419   9.052   9.753 -0.2423  4.5454 -4.3247
  144MOL0     H18987   3.474   9.062   9.923  1.4955  0.5740  1.9651
  144MOL0     H18988   3.393   9.281   9.720  0.7991  0.2996  0.0846
  144MOL0     H18989   3.464   9.319   9.879 -1.9231 -0.7304  4.5254
  144MOL0     H18990   4.222   9.599   9.765 -0.1606  0.2086  2.4909
  144MOL0     H18991   4.363   9.779   9.878  0.8783  2.6269 -0.0282
  144MOL0     H18992   4.325  10.233  10.204  0.6879  0.0151  3.0967
  144MOL0     H18993   4.511  10.357  10.293  0.3884 -0.0055 -0.0111
  144MOL0     H18994   6.180  10.120  10.523 -0.3237  0.8463 -0.0991
  144MOL0     H18995   6.268  10.247  10.716 -1.3142 -0.8162 -1.3721
  144MOL0     H18996   6.728  10.440  10.848 -3.3137  1.7382 -2.8488
  144MOL0     H18997   6.859  10.613  10.987 -0.4793 -0.0476 -1.2464
  144MOL0     H18998   6.926  10.824  11.075  2.5130 -2.2962  0.4126
  144MOL0     H18999   6.959  10.684  11.172  1.3608  1.2432 -2.5681
  144MOL0     H19000   6.974  10.816  11.378 -0.2282 -0.6006 -0.2970
  144MOL0     H19001   7.075  10.897  11.255 -0.1503  2.5604  2.3216
  144MOL0     H19002   6.788  10.974  11.312 -1.0585  2.0788  1.1819
  144MOL0     H19003   6.895  11.063  11.210  0.4666 -0.3876 -0.0011
  144MOL0     H19004   7.061  11.049  11.424  0.4146  1.3767  0.6943
  144MOL0     H19005   6.937  11.173  11.408 -0.1066 -0.0248 -2.5652
  144MOL0     H19006   6.859  10.928  11.753  1.9044  1.9497  1.4626
  144MOL0     H19007   6.509  10.691  11.211 -0.8599  1.1664 -1.0652
  144MOL0     H19008   6.383  10.524  11.059 -0.3223 -0.2226 -0.8013
  145MOL0     O19009   0.987   3.265   3.862 -0.1383 -0.1372  0.3935
  145MOL0     C19010   0.936   3.152   3.856  0.5033 -0.2674  0.5895
  145MOL0     O19011   0.801   3.126   3.846 -0.0517 -0.2182 -0.1101
  145MOL0     C19012   0.702   3.222   3.858 -0.6304  0.6276  0.7875
  145MOL0     C19013   0.705   3.356   3.879 -0.0599  0.1330 -0.0763
  145MOL0     C19014   0.587   3.427   3.896  0.0073 -0.0499 -0.0001
  145MOL0     C19015   0.463   3.371   3.879 -0.3667 -0.0505  0.3840
  145MOL0     O19016   0.350   3.449   3.884 -0.8562  0.3327  0.2509
  145MOL0     C19017   0.228   3.387   3.930 -0.1567 -0.2775  0.4915
  145MOL0     C19018   0.134   3.497   3.962  0.4785 -0.0469 -0.2130
  145MOL0     C19019  -0.015   3.443   3.995 -1.7195  0.2079 -0.1947
  145MOL0     C19020  -0.091   3.571   4.023  0.7200  0.1589  1.1777
  145MOL0     C19021  -0.245   3.540   4.026  0.8083 -1.0791  0.5659
  145MOL0     C19022  -0.282   3.468   4.154  0.2438  0.3351 -0.0313
  145MOL0     C19023  -0.424   3.427   4.152  0.0622  0.0427 -0.1347
  145MOL0     C19024  -0.528   3.537   4.154  0.0466 -0.2335  0.1027
  145MOL0     N19025  -0.666   3.495   4.187 -0.6685 -0.2272 -0.4038
  145MOL0     C19026  -0.710   3.368   4.159  0.4662  0.0418  0.1120
  145MOL0     C19027  -0.826   3.342   4.212  0.4183 -0.9519  0.1417
  145MOL0     C19028  -0.909   3.213   4.204 -0.1577 -0.5362  0.1142
  145MOL0     C19029  -0.974   3.166   4.344  0.9538  0.8562 -0.3133
  145MOL0     C19030  -0.871   3.145   4.456  0.6094 -0.2275  0.4903
  145MOL0     C19031  -0.727   3.078   4.421 -0.4271 -0.7277 -0.7861
  145MOL0     O19032  -0.749   2.960   4.346  0.8716  0.6572 -0.4318
  145MOL0     C19033  -0.643   2.872   4.334  0.4331 -0.2098  0.8505
  145MOL0     C19034  -0.657   2.733   4.333 -0.9931 -0.2301  0.7797
  145MOL0     C19035  -0.553   2.646   4.316  0.2623 -0.1572  0.0348
  145MOL0     C19036  -0.416   2.693   4.306 -0.3786 -0.5993  0.6267
  145MOL0     C19037  -0.304   2.601   4.269  1.0837 -0.2862  0.6237
  145MOL0     O19038  -0.176   2.666   4.258  0.4921 -0.0704  0.0170
  145MOL0     C19039  -0.077   2.604   4.198  0.0835  0.3979 -0.0852
  145MOL0     C19040  -0.048   2.621   4.063 -0.0596  0.2220  0.7402
  145MOL0     C19041   0.047   2.538   4.001 -0.3648  0.2641  0.1166
  145MOL0     C19042   0.134   2.455   4.079  0.0361  1.0173 -0.5966
  145MOL0     O19043   0.239   2.379   4.033 -0.5232 -0.1329 -0.3913
  145MOL0     C19044   0.261   2.347   3.900  0.6807 -0.4669  0.0333
  145MOL0     C19045   0.394   2.301   3.868  0.1300 -0.7194 -0.4498
  145MOL0     C19046   0.447   2.200   3.965  0.5441 -0.0828  0.4696
  145MOL0     C19047   0.584   2.151   3.907 -0.7148 -0.9074 -0.2288
  145MOL0     C19048   0.583   2.003   3.874  1.4670 -0.2356 -0.4225
  145MOL0     C19049   0.712   1.951   3.804 -0.5236  0.4327  0.0742
  145MOL0     C19050   0.851   1.981   3.873  0.1581 -0.4173  0.3974
  145MOL0     C19051   0.968   1.974   3.773 -0.2315 -0.2831  0.0393
  145MOL0    Cl19052   0.995   1.800   3.739  0.6783  0.1514  0.2590
  145MOL0     C19053   0.110   2.449   4.220  0.7920  0.0379  0.1949
  145MOL0     C19054  -0.004   2.514   4.277  0.3302 -0.5784 -0.4504
  145MOL0     O19055  -0.327   2.491   4.230 -0.1911  0.6876 -0.4181
  145MOL0     C19056  -0.397   2.834   4.320 -0.9861  0.4134  0.2119
  145MOL0     C19057  -0.506   2.920   4.322  0.6807 -0.6819  0.3047
  145MOL0     N19058  -0.860   3.467   4.272 -0.5777 -0.9047 -1.4057
  145MOL0     N19059  -0.758   3.555   4.260  0.2561 -0.3102 -0.4553
  145MOL0     C19060   0.460   3.237   3.858 -0.1098  0.3269  0.1391
  145MOL0     C19061   0.581   3.165   3.849  0.2291  0.4228 -0.5686
  145MOL0     C19062   1.025   3.036   3.866  0.2944 -0.7730  0.8430
  145MOL0     C19063   0.983   2.899   3.833 -0.8026  0.4814  0.4401
  145MOL0     C19064   1.075   2.797   3.838  0.0197 -0.0169  0.3454
  145MOL0     C19065   1.196   2.818   3.894 -0.0940  0.0506 -0.5588
  145MOL0     O19066   1.277   2.712   3.901 -0.0119 -0.4841  0.1040
  145MOL0     C19067   1.349   2.695   3.783 -0.3050  0.2914 -0.3685
  145MOL0     C19068   1.488   2.638   3.800  0.2485 -0.1399 -0.2673
  145MOL0     C19069   1.557   2.654   3.941 -0.0078 -0.3175  1.3118
  145MOL0     C19070   1.556   2.794   3.994  0.5392  0.5279  0.2458
  145MOL0     C19071   1.647   2.814   4.103 -0.4311 -0.6880  0.2870
  145MOL0     C19072   1.719   2.823   4.202 -0.4486 -0.2359  0.3204
  145MOL0     C19073   1.239   2.946   3.930  0.0123 -0.4314 -0.1695
  145MOL0     C19074   1.155   3.055   3.911 -0.2331  0.1868 -0.6378
  145MOL0     H19075   0.800   3.408   3.875  1.2793 -2.2074 -0.2184
  145MOL0     H19076   0.612   3.531   3.915  0.7541 -0.6761  2.9662
  145MOL0     H19077   0.242   3.316   4.012 -0.9732 -0.2365  0.6766
  145MOL0     H19078   0.191   3.324   3.848  2.4062  1.1744 -1.9540
  145MOL0     H19079   0.133   3.564   3.876 -0.7539 -0.8494 -0.8398
  145MOL0     H19080   0.177   3.537   4.055 -1.5148 -0.9023  1.1597
  145MOL0     H19081  -0.005   3.383   4.086  0.3994  0.6688 -0.0596
  145MOL0     H19082  -0.064   3.385   3.917 -0.1950 -0.3386 -0.7911
  145MOL0     H19083  -0.061   3.616   4.118  0.5791  0.5828  1.0202
  145MOL0     H19084  -0.068   3.652   3.954  2.1266 -2.0731 -1.1182
  145MOL0     H19085  -0.282   3.479   3.944  0.9438  0.3081 -0.5675
  145MOL0     H19086  -0.300   3.635   4.020  2.4137  0.0455  2.3108
  145MOL0     H19087  -0.261   3.519   4.248  2.2437 -0.0754 -0.2055
  145MOL0     H19088  -0.221   3.377   4.161 -0.0712  0.1986  0.9789
  145MOL0     H19089  -0.439   3.353   4.074  0.3106 -0.2812  0.1209
  145MOL0     H19090  -0.443   3.371   4.244 -1.3079 -0.2625 -0.5980
  145MOL0     H19091  -0.537   3.584   4.056 -3.7068 -4.3178 -1.8163
  145MOL0     H19092  -0.502   3.608   4.234  0.8968  0.0595 -0.4112
  145MOL0     H19093  -0.672   3.297   4.086 -0.0295  1.0340 -1.1612
  145MOL0     H19094  -0.837   3.135   4.180  3.0826  0.8898  4.1409
  145MOL0     H19095  -0.983   3.232   4.126  1.5646  1.2373 -1.1859
  145MOL0     H19096  -1.023   3.069   4.330 -0.5282  1.4897  0.2269
  145MOL0     H19097  -1.048   3.240   4.377 -0.8280 -1.1240  0.4129
  145MOL0     H19098  -0.863   3.241   4.507  0.4347 -1.0826  2.2088
  145MOL0     H19099  -0.920   3.081   4.530 -2.3585  0.3700 -0.8244
  145MOL0     H19100  -0.676   3.053   4.514 -0.2881  3.9703  0.6404
  145MOL0     H19101  -0.668   3.137   4.350 -1.0003  0.7210 -0.0935
  145MOL0     H19102  -0.761   2.701   4.337 -1.2941  0.2954 -1.3126
  145MOL0     H19103  -0.572   2.541   4.297 -0.2529 -0.0926  0.1820
  145MOL0     H19104  -0.112   2.686   4.004 -0.5384 -1.1426 -0.3192
  145MOL0     H19105   0.071   2.518   3.897 -0.2229 -1.2984  0.4333
  145MOL0     H19106   0.254   2.432   3.832  0.1989 -0.9399 -0.5215
  145MOL0     H19107   0.195   2.267   3.866  1.3355 -1.3203  0.7030
  145MOL0     H19108   0.463   2.385   3.882 -0.9287 -0.2010  2.3124
  145MOL0     H19109   0.404   2.265   3.765 -0.2563  0.7192 -1.0189
  145MOL0     H19110   0.368   2.123   3.962  0.4525 -0.0095  0.8693
  145MOL0     H19111   0.460   2.237   4.067  0.4642  0.1516  0.3944
  145MOL0     H19112   0.608   2.208   3.817 -3.0411 -1.0149 -1.0043
  145MOL0     H19113   0.664   2.164   3.979 -0.0564  0.3016 -1.1420
  145MOL0     H19114   0.503   1.973   3.807  1.7204  1.8128 -1.7185
  145MOL0     H19115   0.561   1.950   3.967  1.2426  0.7286  0.0901
  145MOL0     H19116   0.710   1.986   3.700  3.1810  0.5719 -0.0614
  145MOL0     H19117   0.701   1.842   3.807  0.1231  0.3835  2.7203
  145MOL0     H19118   0.850   2.078   3.923  2.2241 -0.4402  0.5865
  145MOL0     H19119   0.870   1.906   3.950  1.7744 -0.0171  0.4209
  145MOL0     H19120   1.051   2.024   3.824 -1.6468  2.0429  0.1999
  145MOL0     H19121   0.944   2.028   3.681 -1.2946  0.4812  0.7520
  145MOL0     H19122   0.175   2.408   4.297 -2.9488  0.7069  4.1367
  145MOL0     H19123  -0.026   2.509   4.383  1.2858  2.2137 -0.0264
  145MOL0     H19124  -0.295   2.872   4.315  0.8547 -2.8628  5.5224
  145MOL0     H19125  -0.484   3.026   4.327  3.5070 -1.1954  0.7443
  145MOL0     H19126   0.372   3.179   3.833 -0.0893  0.1498  0.4651
  145MOL0     H19127   0.572   3.065   3.808 -0.8202 -0.4283  1.5484
  145MOL0     H19128   0.878   2.881   3.813 -0.5558  0.8716 -1.4737
  145MOL0     H19129   1.040   2.700   3.804  2.3254 -1.7720  2.5868
  145MOL0     H19130   1.366   2.780   3.716 -1.2010  0.6813 -0.1116
  145MOL0     H19131   1.307   2.615   3.722  0.0751  1.1209 -1.7470
  145MOL0     H19132   1.459   2.533   3.789  0.4255 -0.1737 -0.4270
  145MOL0     H19133   1.548   2.679   3.718 -0.6825  0.3666 -0.7062
  145MOL0     H19134   1.660   2.623   3.923 -0.6295 -0.6202 -2.8829
  145MOL0     H19135   1.507   2.594   4.018 -2.6065 -0.5383 -0.4067
  145MOL0     H19136   1.563   2.854   3.903  1.6471 -1.5910 -1.1488
  145MOL0     H19137   1.454   2.807   4.032  0.4729 -0.9343  0.6066
  145MOL0     H19138   1.763   2.826   4.299  2.2958 -1.5352 -0.7731
  145MOL0     H19139   1.333   2.973   3.977  0.9186 -0.1608 -2.0660
  145MOL0     H19140   1.201   3.152   3.924  3.6940 -0.9315 -4.2977
  146MOL0     O19141   0.744   1.566   5.399  0.0176  0.1671 -0.8604
  146MOL0     C19142   0.820   1.470   5.416 -0.3280 -0.4872 -0.3119
  146MOL0     O19143   0.790   1.357   5.488  0.1687 -0.3700 -0.1143
  146MOL0     C19144   0.664   1.354   5.552 -0.9336  0.7957  0.2890
  146MOL0     C19145   0.637   1.445   5.647 -0.0657 -0.5041 -0.6032
  146MOL0     C19146   0.515   1.462   5.713  0.2030  0.2637  0.0042
  146MOL0     C19147   0.411   1.375   5.687 -0.2590  0.0024 -0.1942
  146MOL0     O19148   0.276   1.402   5.724  0.2585  0.0188  0.5934
  146MOL0     C19149   0.162   1.319   5.682 -0.1423 -0.8630 -0.8313
  146MOL0     C19150   0.035   1.369   5.737  0.1936 -0.0195  0.1878
  146MOL0     C19151  -0.066   1.261   5.707 -0.1623 -0.1137 -0.3211
  146MOL0     C19152  -0.194   1.323   5.749  0.3674 -0.2324  0.1685
  146MOL0     C19153  -0.303   1.233   5.688  0.6228 -0.1557  0.1438
  146MOL0     C19154  -0.438   1.244   5.764 -0.6575  0.0944  0.1617
  146MOL0     C19155  -0.552   1.181   5.691  0.8048 -0.1566 -0.6395
  146MOL0     C19156  -0.593   1.247   5.556 -0.8614 -0.2314 -0.1853
  146MOL0     N19157  -0.726   1.214   5.517  0.3384  0.5716 -0.5880
  146MOL0     C19158  -0.848   1.243   5.577 -0.2063  0.4308  0.6782
  146MOL0     C19159  -0.945   1.180   5.505 -0.3608 -0.6422  0.3661
  146MOL0     C19160  -1.092   1.195   5.541  0.5681  0.2033  0.7896
  146MOL0     C19161  -1.165   1.312   5.485 -0.6572  0.4180  0.3181
  146MOL0     C19162  -1.315   1.320   5.535 -0.2494 -0.8468 -0.7609
  146MOL0     C19163  -1.398   1.410   5.445  0.4768  0.0983  0.3311
  146MOL0     O19164  -1.520   1.424   5.518  0.1201  0.1929  0.3661
  146MOL0     C19165  -1.622   1.495   5.477 -0.5116  0.3413  0.5796
  146MOL0     C19166  -1.631   1.560   5.354 -0.0959  0.0087 -0.3351
  146MOL0     C19167  -1.744   1.630   5.329  0.3430 -0.1261 -0.1230
  146MOL0     C19168  -1.856   1.636   5.418 -0.0159 -0.0234  0.3964
  146MOL0     C19169  -1.979   1.702   5.375  0.4986 -1.1237  0.5370
  146MOL0     O19170  -1.978   1.760   5.243  0.0462 -0.6225 -0.1972
  146MOL0     C19171  -2.089   1.810   5.178  0.5813  0.6941 -0.4190
  146MOL0     C19172  -2.225   1.786   5.211  0.1076 -0.4862  0.2907
  146MOL0     C19173  -2.328   1.854   5.154 -0.4908 -0.3361  0.5266
  146MOL0     C19174  -2.310   1.931   5.032 -0.2575 -0.3807  0.1900
  146MOL0     O19175  -2.425   1.984   4.975 -0.4054 -0.5428  0.3015
  146MOL0     C19176  -2.407   2.100   4.885 -0.0842 -0.9804 -0.5256
  146MOL0     C19177  -2.527   2.122   4.794 -0.1251 -0.5657 -0.1459
  146MOL0     C19178  -2.660   2.146   4.869 -0.4476 -0.1454 -0.6421
  146MOL0     C19179  -2.783   2.154   4.773  0.5535  0.2041  0.2285
  146MOL0     C19180  -2.913   2.186   4.850 -1.1709  0.3744 -0.1416
  146MOL0     C19181  -3.031   2.209   4.754  0.3629  0.0330  0.2460
  146MOL0     C19182  -3.065   2.091   4.666 -0.2364 -0.6646 -0.1968
  146MOL0     C19183  -3.202   2.105   4.621  0.4361 -0.4600  0.3556
  146MOL0    Cl19184  -3.216   2.018   4.467 -0.5201  0.0355 -0.0667
  146MOL0     C19185  -2.169   1.952   4.998  1.0273  0.6934  0.5099
  146MOL0     C19186  -2.071   1.893   5.071 -0.2694 -0.0161  0.5324
  146MOL0     O19187  -2.073   1.698   5.457 -0.3843  0.1374  0.6656
  146MOL0     C19188  -1.844   1.562   5.538  0.0111 -0.0022 -0.4897
  146MOL0     C19189  -1.730   1.486   5.569 -0.2704 -0.1262 -0.0312
  146MOL0     N19190  -0.882   1.102   5.406  0.1852  0.0270  0.0742
  146MOL0     N19191  -0.747   1.122   5.417 -0.2833  0.6442 -0.5585
  146MOL0     C19192   0.440   1.269   5.599  0.2809 -0.7379  0.3603
  146MOL0     C19193   0.561   1.254   5.531  0.7549 -0.9059 -0.1463
  146MOL0     C19194   0.944   1.468   5.325 -0.2324 -0.1328 -0.2073
  146MOL0     C19195   1.034   1.363   5.339  0.4271 -0.1739  0.1186
  146MOL0     C19196   1.148   1.366   5.264 -0.4009 -0.2535 -0.2717
  146MOL0     C19197   1.184   1.469   5.179 -0.3711 -0.6615 -0.2908
  146MOL0     O19198   1.304   1.448   5.108  0.2126  0.9328  0.0181
  146MOL0     C19199   1.333   1.541   4.998 -0.3109 -0.6065  0.0495
  146MOL0     C19200   1.449   1.490   4.912  0.3220 -0.0006  0.7202
  146MOL0     C19201   1.576   1.477   4.982 -0.4261  0.2416  1.3926
  146MOL0     C19202   1.686   1.455   4.874  0.0562  0.8879 -1.1269
  146MOL0     C19203   1.820   1.470   4.942  0.7322  0.0747  0.9158
  146MOL0     C19204   1.936   1.487   4.986  0.0100 -0.7453  0.0948
  146MOL0     C19205   1.108   1.581   5.171  0.1030 -0.4426 -0.6388
  146MOL0     C19206   0.986   1.579   5.245  0.6143  0.6668  0.6595
  146MOL0     H19207   0.718   1.512   5.677  0.5123 -1.2901 -0.3723
  146MOL0     H19208   0.498   1.542   5.785  0.9004 -0.0982  0.5810
  146MOL0     H19209   0.180   1.220   5.725  1.1845 -0.2615  0.0797
  146MOL0     H19210   0.146   1.313   5.574  0.2011 -3.9225 -0.7961
  146MOL0     H19211   0.009   1.466   5.696 -0.1382 -0.3804 -0.4621
  146MOL0     H19212   0.041   1.371   5.847  1.1814  1.5551  0.1326
  146MOL0     H19213  -0.050   1.173   5.770  0.5000  0.1275 -0.1462
  146MOL0     H19214  -0.069   1.234   5.601  0.7315  0.5451 -0.5265
  146MOL0     H19215  -0.208   1.320   5.858 -2.2581 -0.3306 -0.1218
  146MOL0     H19216  -0.209   1.425   5.713 -1.7047  0.0029  1.5546
  146MOL0     H19217  -0.264   1.131   5.701  1.0523  0.3084  3.3515
  146MOL0     H19218  -0.310   1.261   5.583  1.2770  0.4211  0.2474
  146MOL0     H19219  -0.450   1.353   5.768  0.0977  0.3197 -2.1453
  146MOL0     H19220  -0.433   1.202   5.865 -0.3387 -1.2340 -0.3900
  146MOL0     H19221  -0.523   1.079   5.662  1.0485 -1.1390  2.6841
  146MOL0     H19222  -0.635   1.183   5.762  0.7334 -1.7257 -0.6422
  146MOL0     H19223  -0.525   1.202   5.482  0.1615 -2.0622  1.7505
  146MOL0     H19224  -0.581   1.356   5.550  0.4123 -0.3728 -0.6817
  146MOL0     H19225  -0.872   1.302   5.665 -0.7177  0.9159  0.2254
  146MOL0     H19226  -1.102   1.197   5.650  2.6296  1.1959  1.0158
  146MOL0     H19227  -1.143   1.106   5.504  2.0280 -0.3787  0.0877
  146MOL0     H19228  -1.167   1.300   5.376 -1.5403 -0.9514  0.4598
  146MOL0     H19229  -1.117   1.405   5.516  0.3250 -0.4596  1.5248
  146MOL0     H19230  -1.358   1.220   5.538  1.6120 -1.6638 -0.3010
  146MOL0     H19231  -1.321   1.344   5.642  0.1446 -5.4859  0.5221
  146MOL0     H19232  -1.411   1.357   5.350 -1.7641 -0.1756  0.7342
  146MOL0     H19233  -1.353   1.508   5.430  1.3443 -0.3679 -0.2129
  146MOL0     H19234  -1.545   1.552   5.290  0.1945 -2.2494  0.2364
  146MOL0     H19235  -1.751   1.677   5.232  0.7336 -3.6060 -1.9977
  146MOL0     H19236  -2.244   1.709   5.285 -1.7511 -1.3935 -1.0395
  146MOL0     H19237  -2.431   1.831   5.179 -0.8522 -0.2312 -0.8239
  146MOL0     H19238  -2.318   2.089   4.823 -0.6078 -2.1741 -1.0940
  146MOL0     H19239  -2.405   2.190   4.948  1.0984 -0.9793 -0.5532
  146MOL0     H19240  -2.545   2.032   4.734 -0.9789 -0.3079 -0.3024
  146MOL0     H19241  -2.515   2.206   4.724  0.8492 -1.6488 -1.3277
  146MOL0     H19242  -2.654   2.240   4.924  0.1978  0.2826 -1.4212
  146MOL0     H19243  -2.685   2.061   4.932 -0.0148 -0.2288 -0.5815
  146MOL0     H19244  -2.766   2.224   4.690  0.5914  3.0517  2.4513
  146MOL0     H19245  -2.798   2.053   4.736 -2.1629  0.8894 -0.8077
  146MOL0     H19246  -2.894   2.281   4.901 -0.9107 -1.2172  2.9766
  146MOL0     H19247  -2.923   2.107   4.925 -1.8374  1.3466  0.8213
  146MOL0     H19248  -3.014   2.303   4.700  0.6364 -0.9498 -1.4756
  146MOL0     H19249  -3.111   2.224   4.827  0.0142 -2.0384  0.3698
  146MOL0     H19250  -3.007   2.086   4.573 -0.9447  0.6714 -0.7435
  146MOL0     H19251  -3.060   1.996   4.720 -0.7104  1.7060  4.4918
  146MOL0     H19252  -3.235   2.208   4.610 -1.3308 -0.9733  0.4672
  146MOL0     H19253  -3.271   2.060   4.693 -0.9520  1.7339  0.4654
  146MOL0     H19254  -2.136   2.006   4.910 -0.5325 -3.1687 -2.7898
  146MOL0     H19255  -1.970   1.908   5.035 -0.6673 -0.1934 -0.6960
  146MOL0     H19256  -1.919   1.576   5.615  0.7140  0.4263  0.1216
  146MOL0     H19257  -1.719   1.417   5.652 -0.9563  0.9389  0.9777
  146MOL0     H19258   0.362   1.199   5.570 -0.9975  0.7148  0.1758
  146MOL0     H19259   0.571   1.182   5.450 -1.8237  0.0903 -1.4519
  146MOL0     H19260   1.003   1.281   5.402  1.9350  2.1676  4.3137
  146MOL0     H19261   1.215   1.281   5.274 -0.8766 -0.3290  4.6608
  146MOL0     H19262   1.350   1.640   5.043 -4.4205 -0.4765  1.7769
  146MOL0     H19263   1.253   1.562   4.926  1.6564 -0.3453 -2.1959
  146MOL0     H19264   1.422   1.397   4.861  3.2251 -2.1741  2.7919
  146MOL0     H19265   1.470   1.568   4.837  2.5963 -2.2177 -1.1272
  146MOL0     H19266   1.579   1.386   5.042  0.2445 -0.9767 -0.3901
  146MOL0     H19267   1.600   1.569   5.036 -3.1041  0.7362  1.9154
  146MOL0     H19268   1.674   1.353   4.837 -0.0470  1.2657 -2.1710
  146MOL0     H19269   1.677   1.526   4.792  0.3269 -1.1513 -3.0067
  146MOL0     H19270   2.035   1.487   5.027  0.2689  0.7223 -0.4568
  146MOL0     H19271   1.129   1.668   5.110 -1.1405  0.3254 -0.0218
  146MOL0     H19272   0.922   1.666   5.242  0.4459  0.5214 -0.6198
  147MOL0     O19273   7.121   0.274   1.183 -0.1461 -0.4502 -0.0465
  147MOL0     C19274   7.208   0.302   1.264  0.1202 -0.0662 -0.1782
  147MOL0     O19275   7.184   0.362   1.381 -0.1626 -0.7964  0.1337
  147MOL0     C19276   7.054   0.367   1.426  0.3446  0.2852  0.8486
  147MOL0     C19277   6.961   0.437   1.351  0.1088 -0.1168 -0.1285
  147MOL0     C19278   6.824   0.445   1.398 -0.1746  0.3400 -0.0687
  147MOL0     C19279   6.788   0.384   1.520 -0.1890  0.3654  0.7397
  147MOL0     O19280   6.666   0.393   1.580  0.5534  0.2837 -0.2045
  147MOL0     C19281   6.581   0.500   1.544  0.2922  0.6477  0.7371
  147MOL0     C19282   6.481   0.528   1.662 -0.0681  0.3589 -0.3723
  147MOL0     C19283   6.392   0.408   1.690  0.0227  0.2727 -0.0530
  147MOL0     C19284   6.266   0.394   1.591 -0.1184 -0.7779 -0.6329
  147MOL0     C19285   6.225   0.251   1.580  0.3299 -0.1435 -0.8297
  147MOL0     C19286   6.088   0.237   1.511 -0.3521  0.4159 -0.4332
  147MOL0     C19287   6.043   0.087   1.520  0.1364 -0.1658 -0.2282
  147MOL0     C19288   5.940   0.044   1.420 -0.5333  0.1059  0.4883
  147MOL0     N19289   5.860  -0.069   1.476 -0.2054  0.3772 -0.3538
  147MOL0     C19290   5.752  -0.046   1.557 -0.2238 -0.3521 -0.2611
  147MOL0     C19291   5.739  -0.161   1.629  0.0613 -0.0507 -0.2008
  147MOL0     C19292   5.641  -0.188   1.738 -0.5530  0.9060 -0.1190
  147MOL0     C19293   5.497  -0.159   1.691  0.2543 -0.0220  1.0846
  147MOL0     C19294   5.450  -0.263   1.576  1.1506  0.2748 -0.1973
  147MOL0     C19295   5.333  -0.217   1.489 -0.6317 -0.3384  1.0302
  147MOL0     O19296   5.219  -0.201   1.572  0.5097 -0.4073  0.6169
  147MOL0     C19297   5.105  -0.273   1.544  0.1468 -0.2310  0.5807
  147MOL0     C19298   4.997  -0.225   1.606  0.3035  0.1227 -0.4991
  147MOL0     C19299   4.866  -0.295   1.598 -0.1315 -0.4229  0.0708
  147MOL0     C19300   4.851  -0.410   1.530 -0.5259 -0.1737  0.3323
  147MOL0     C19301   4.724  -0.479   1.528 -1.0642 -0.0326  0.2446
  147MOL0     O19302   4.618  -0.430   1.601 -0.2649 -0.1763 -0.4691
  147MOL0     C19303   4.491  -0.473   1.584 -0.1505  0.0240 -0.1180
  147MOL0     C19304   4.423  -0.497   1.457  0.3174 -0.0897  0.0578
  147MOL0     C19305   4.297  -0.546   1.444  0.6353 -0.3489  0.5602
  147MOL0     C19306   4.227  -0.592   1.557  0.7708 -0.5719  0.2802
  147MOL0     O19307   4.099  -0.639   1.558  0.4542 -0.1718 -0.8361
  147MOL0     C19308   4.074  -0.742   1.460 -0.0835 -1.0424  0.7543
  147MOL0     C19309   3.957  -0.828   1.519 -1.0787  0.2855 -0.3651
  147MOL0     C19310   3.829  -0.813   1.439  0.3464 -0.2459  0.3752
  147MOL0     C19311   3.729  -0.927   1.474 -0.1629 -0.7233 -0.6314
  147MOL0     C19312   3.608  -0.921   1.386 -0.3625  0.1491 -0.6514
  147MOL0     C19313   3.513  -1.040   1.405  0.4023 -0.1949  0.4847
  147MOL0     C19314   3.390  -1.013   1.315 -0.5029  0.0413 -0.0217
  147MOL0     C19315   3.301  -1.139   1.316  0.1709  0.1300 -0.1633
  147MOL0    Cl19316   3.182  -1.110   1.178  0.3837  0.2448 -0.1063
  147MOL0     C19317   4.286  -0.566   1.677  0.1443 -0.3110 -0.1376
  147MOL0     C19318   4.415  -0.505   1.698  0.2612  0.3934  0.3034
  147MOL0     O19319   4.714  -0.570   1.449  0.0861 -0.3920 -0.0969
  147MOL0     C19320   4.962  -0.457   1.454 -0.0246 -0.5122  0.5104
  147MOL0     C19321   5.084  -0.381   1.459 -0.8388  0.2753  0.7926
  147MOL0     N19322   5.832  -0.251   1.588  0.3739  0.0552 -0.2677
  147MOL0     N19323   5.909  -0.197   1.498  0.0574 -0.6092 -0.2695
  147MOL0     C19324   6.882   0.322   1.590  0.1626 -0.4421 -0.1348
  147MOL0     C19325   7.015   0.314   1.542 -0.2485 -0.0892  0.4333
  147MOL0     C19326   7.350   0.272   1.218  0.5568 -0.0482  0.2215
  147MOL0     C19327   7.455   0.335   1.274  0.3510 -0.4112 -0.1528
  147MOL0     C19328   7.587   0.306   1.233  0.4949 -0.2101  0.2676
  147MOL0     C19329   7.602   0.220   1.123 -0.1759 -0.0246 -0.8967
  147MOL0     O19330   7.718   0.185   1.066 -0.0967  0.1519 -0.2381
  147MOL0     C19331   7.840   0.218   1.140  0.1599  0.1688  0.2778
  147MOL0     C19332   7.904   0.332   1.055 -0.2358  0.5616  0.1025
  147MOL0     C19333   7.974   0.275   0.929 -0.1894  0.7137 -0.0497
  147MOL0     C19334   8.067   0.366   0.865 -0.8622  0.2997  0.1508
  147MOL0     C19335   7.983   0.461   0.785  0.9974  0.5416 -1.5661
  147MOL0     C19336   7.924   0.526   0.707  0.2387 -0.3087 -0.2007
  147MOL0     C19337   7.489   0.159   1.066 -0.3818 -0.4628  0.7982
  147MOL0     C19338   7.370   0.176   1.117  0.1739 -0.0825  0.2729
  147MOL0     H19339   6.999   0.487   1.263 -0.5919 -0.5592 -0.6832
  147MOL0     H19340   6.752   0.482   1.326 -1.6901 -1.6582  0.3162
  147MOL0     H19341   6.530   0.476   1.450 -1.1264 -2.2325  2.1077
  147MOL0     H19342   6.643   0.589   1.529  2.7157 -1.1401 -0.6918
  147MOL0     H19343   6.428   0.620   1.636 -1.6360 -0.3045  0.3532
  147MOL0     H19344   6.550   0.558   1.741  1.1265 -0.4204 -1.0836
  147MOL0     H19345   6.348   0.410   1.790  0.3166  0.9705  0.0621
  147MOL0     H19346   6.460   0.324   1.674  1.4482  1.9508 -4.3165
  147MOL0     H19347   6.182   0.455   1.626  2.2882  1.5861  1.4876
  147MOL0     H19348   6.300   0.427   1.492 -1.0849 -0.1788 -0.7772
  147MOL0     H19349   6.207   0.221   1.684  3.1555 -1.9886 -0.7828
  147MOL0     H19350   6.303   0.187   1.539 -0.7091 -1.7837 -0.3492
  147MOL0     H19351   6.107   0.267   1.407 -1.0963 -0.1214 -0.7331
  147MOL0     H19352   6.022   0.311   1.556  1.3054  2.0334 -0.5289
  147MOL0     H19353   6.133   0.025   1.511  1.2287  1.1328  1.1644
  147MOL0     H19354   6.004   0.070   1.620 -1.8682  0.3417 -0.8882
  147MOL0     H19355   5.999   0.011   1.334 -0.5852  0.4322  0.3253
  147MOL0     H19356   5.882   0.130   1.384  0.4761  0.0753 -1.3281
  147MOL0     H19357   5.690   0.041   1.572 -2.5433 -1.9356 -0.2154
  147MOL0     H19358   5.651  -0.135   1.834 -3.2195  1.1597  0.1046
  147MOL0     H19359   5.641  -0.295   1.760  0.1260  1.0833  0.7903
  147MOL0     H19360   5.500  -0.054   1.661 -2.6324  0.4212  2.0202
  147MOL0     H19361   5.417  -0.147   1.765 -0.7052  1.4623 -0.1276
  147MOL0     H19362   5.538  -0.285   1.515  1.8594 -1.0390  1.2156
  147MOL0     H19363   5.437  -0.359   1.627  3.7591 -0.3510 -0.5256
  147MOL0     H19364   5.314  -0.287   1.408  0.4065 -2.5327  2.5791
  147MOL0     H19365   5.349  -0.121   1.438 -2.9987 -1.8786 -3.1151
  147MOL0     H19366   5.008  -0.138   1.670  1.5331 -2.9479  3.8677
  147MOL0     H19367   4.776  -0.246   1.635  1.3186  1.7601  0.9403
  147MOL0     H19368   4.480  -0.461   1.372  2.2988  1.4771  1.9470
  147MOL0     H19369   4.263  -0.555   1.341 -1.3169  2.0388  0.8975
  147MOL0     H19370   4.161  -0.806   1.438  0.3416 -0.2451  0.0394
  147MOL0     H19371   4.051  -0.683   1.370 -2.0756 -0.2858  1.7039
  147MOL0     H19372   3.947  -0.793   1.622 -0.6362  1.3914 -0.6806
  147MOL0     H19373   3.991  -0.931   1.518 -0.9204  0.3325 -2.3635
  147MOL0     H19374   3.845  -0.814   1.331 -0.4946  1.6973  0.1926
  147MOL0     H19375   3.789  -0.714   1.461  2.6055  0.6171  0.8209
  147MOL0     H19376   3.766  -1.028   1.452 -3.4251 -1.8216 -1.7748
  147MOL0     H19377   3.698  -0.911   1.578 -0.1817  0.5691 -0.8230
  147MOL0     H19378   3.631  -0.917   1.279  1.1151  1.6296 -0.3277
  147MOL0     H19379   3.554  -0.829   1.410 -0.9822 -0.8297  2.1997
  147MOL0     H19380   3.479  -1.060   1.507  0.3377 -2.1637  0.1207
  147MOL0     H19381   3.563  -1.133   1.377  2.5196  0.1494  2.7610
  147MOL0     H19382   3.334  -0.932   1.363 -0.7541 -0.4240  0.4947
  147MOL0     H19383   3.428  -0.984   1.217  1.8718  1.4132  1.2161
  147MOL0     H19384   3.245  -1.151   1.409  2.6613 -0.2928  1.3830
  147MOL0     H19385   3.350  -1.231   1.286  1.5255  1.1580 -1.2600
  147MOL0     H19386   4.219  -0.584   1.761 -1.6676 -1.3390 -1.7307
  147MOL0     H19387   4.450  -0.473   1.795  1.1093 -2.5907  1.0682
  147MOL0     H19388   4.956  -0.545   1.391  4.2724 -1.5877  1.2795
  147MOL0     H19389   5.166  -0.428   1.406 -2.9258 -0.1101 -2.4146
  147MOL0     H19390   6.863   0.286   1.690  1.7484 -0.3604  0.2137
  147MOL0     H19391   7.095   0.261   1.595  1.0994  2.4282  1.0622
  147MOL0     H19392   7.451   0.416   1.347 -1.6752  1.6520 -2.3742
  147MOL0     H19393   7.675   0.355   1.273  0.2955 -0.1043  0.5836
  147MOL0     H19394   7.914   0.138   1.138  0.7623  0.6738 -2.4982
  147MOL0     H19395   7.824   0.235   1.247 -0.0064 -3.8603  1.0444
  147MOL0     H19396   7.827   0.403   1.023 -1.5041 -0.1489  1.4404
  147MOL0     H19397   7.984   0.380   1.112 -1.1695  1.4619  0.6875
  147MOL0     H19398   7.899   0.238   0.858 -0.7643 -0.9473  1.3538
  147MOL0     H19399   8.045   0.198   0.959 -0.0556 -0.2355 -2.5766
  147MOL0     H19400   8.135   0.412   0.937  0.0777  0.6836 -0.9514
  147MOL0     H19401   8.132   0.304   0.803 -1.3505 -4.5394  3.9061
  147MOL0     H19402   7.874   0.585   0.632  1.9834  0.3889 -0.8684
  147MOL0     H19403   7.509   0.095   0.981 -1.0901  0.9889 -0.5192
  147MOL0     H19404   7.282   0.139   1.065 -2.4230  0.9706  3.5674
  148MOL0     O19405  10.683   8.726  11.183  0.2992  0.3908 -0.4594
  148MOL0     C19406  10.604   8.653  11.241 -0.5601  0.5658  1.2527
  148MOL0     O19407  10.628   8.523  11.285 -0.9959 -0.2031  0.1929
  148MOL0     C19408  10.747   8.456  11.271  0.4715 -1.1593  0.1378
  148MOL0     C19409  10.752   8.344  11.357 -0.6575 -0.4201 -0.0827
  148MOL0     C19410  10.871   8.269  11.359  1.3434 -0.3037  0.1196
  148MOL0     C19411  10.987   8.292  11.277  0.1390 -0.3837  0.3460
  148MOL0     O19412  11.109   8.227  11.271  0.2239 -0.2202 -0.3790
  148MOL0     C19413  11.137   8.153  11.387 -0.7811 -0.2380 -0.0012
  148MOL0     C19414  11.288   8.094  11.387 -0.6736  0.0641  0.6504
  148MOL0     C19415  11.395   8.200  11.378  0.1660 -0.9213  0.2941
  148MOL0     C19416  11.540   8.142  11.391 -0.4737  0.5046 -0.0182
  148MOL0     C19417  11.584   8.060  11.267  0.4794 -0.0357 -0.1716
  148MOL0     C19418  11.736   8.024  11.274 -0.6200 -0.1308  0.4456
  148MOL0     C19419  11.783   7.926  11.178 -0.3963  0.5920  0.2851
  148MOL0     C19420  11.811   7.793  11.235 -0.4362  0.0338  0.1079
  148MOL0     N19421  11.847   7.707  11.125  0.2552  0.3517 -0.9618
  148MOL0     C19422  11.760   7.631  11.055 -0.2205 -0.7664 -0.4845
  148MOL0     C19423  11.837   7.564  10.966  1.1032  0.0443  0.2990
  148MOL0     C19424  11.775   7.470  10.868  0.0697 -0.6320  0.0220
  148MOL0     C19425  11.748   7.331  10.931  0.5883 -0.0967 -0.1481
  148MOL0     C19426  11.722   7.228  10.820 -0.0782 -0.2829 -0.5248
  148MOL0     C19427  11.667   7.097  10.878  0.1430 -0.0441  0.8594
  148MOL0     O19428  11.626   7.008  10.774 -0.0971 -0.2717 -0.5604
  148MOL0     C19429  11.528   6.920  10.803  0.9536 -0.0252  0.4027
  148MOL0     C19430  11.438   6.883  10.701  0.0444 -0.1661  0.1166
  148MOL0     C19431  11.349   6.781  10.723  0.0811 -0.9268 -0.0301
  148MOL0     C19432  11.330   6.726  10.849 -0.1818  0.5087 -0.5928
  148MOL0     C19433  11.205   6.641  10.875 -0.0673  0.7965  0.8066
  148MOL0     O19434  11.193   6.575  10.985  0.1791 -0.0679  0.0527
  148MOL0     C19435  11.071   6.526  11.030 -0.0103  0.5234 -0.1213
  148MOL0     C19436  10.949   6.591  11.007  0.4687 -0.7613  0.0932
  148MOL0     C19437  10.827   6.539  11.054 -0.3704 -0.0934 -0.8438
  148MOL0     C19438  10.832   6.418  11.122  0.6118  0.6904  0.7707
  148MOL0     O19439  10.725   6.353  11.176 -0.4384  0.7964 -0.3201
  148MOL0     C19440  10.605   6.428  11.186 -0.4169 -0.6091 -0.1688
  148MOL0     C19441  10.491   6.356  11.248 -0.0689  0.6455 -0.5315
  148MOL0     C19442  10.365   6.431  11.239 -0.0643  0.4243  0.1207
  148MOL0     C19443  10.249   6.331  11.274 -0.2628 -0.1505  0.0120
  148MOL0     C19444  10.109   6.390  11.255  0.1673  0.4506  0.9282
  148MOL0     C19445  10.078   6.496  11.369 -0.5213 -1.2637  0.5217
  148MOL0     C19446  10.081   6.443  11.505  0.3961  0.5118 -0.1304
  148MOL0     C19447  10.029   6.554  11.602  0.0865  0.8201  0.4712
  148MOL0    Cl19448  10.011   6.477  11.762 -0.1663 -0.1543  0.0545
  148MOL0     C19449  10.948   6.341  11.132 -0.3408  0.2187  0.7659
  148MOL0     C19450  11.072   6.395  11.090 -0.2799 -0.3898 -0.2106
  148MOL0     O19451  11.135   6.627  10.775  0.1761  0.4552 -0.2911
  148MOL0     C19452  11.410   6.767  10.958 -0.0451  0.0823 -0.3220
  148MOL0     C19453  11.510   6.854  10.931 -0.4139  0.1986  1.3181
  148MOL0     N19454  11.968   7.617  10.977 -0.3278 -0.2473  0.2628
  148MOL0     N19455  11.968   7.693  11.079 -0.1399 -0.2357 -0.5606
  148MOL0     C19456  10.978   8.405  11.193 -0.1643  0.6079  0.1312
  148MOL0     C19457  10.870   8.492  11.202  0.3665 -0.2610 -0.7050
  148MOL0     C19458  10.457   8.700  11.238 -0.1296 -0.1640 -1.2955
  148MOL0     C19459  10.415   8.829  11.195 -0.2696  0.5898 -0.0504
  148MOL0     C19460  10.285   8.870  11.212  0.5107  0.8262 -0.1520
  148MOL0     C19461  10.180   8.789  11.262  0.3927 -0.6114  0.3541
  148MOL0     O19462  10.065   8.856  11.277  0.2790  0.3749 -0.3285
  148MOL0     C19463   9.949   8.780  11.326  0.0675  0.6645  0.6754
  148MOL0     C19464   9.830   8.861  11.281  0.4942  1.0469 -0.5884
  148MOL0     C19465   9.825   8.870  11.121  0.4144  0.0538  0.3588
  148MOL0     C19466   9.686   8.933  11.088  0.0669  0.2861  0.4607
  148MOL0     C19467   9.586   8.835  11.134 -0.6279 -0.1780  0.7541
  148MOL0     C19468   9.506   8.764  11.182  0.9334 -0.7616  0.1435
  148MOL0     C19469  10.220   8.669  11.307 -0.0901 -0.8012 -0.1444
  148MOL0     C19470  10.354   8.626  11.302  0.4154 -0.0155  0.6772
  148MOL0     H19471  10.663   8.319  11.414 -0.9086 -1.6073 -0.9454
  148MOL0     H19472  10.883   8.186  11.428  2.5827  0.5938  1.0464
  148MOL0     H19473  11.073   8.064  11.395  0.2624 -0.8379  2.3374
  148MOL0     H19474  11.126   8.220  11.473 -2.9074  2.5029 -2.1743
  148MOL0     H19475  11.302   8.025  11.303  0.3195  1.0673 -0.0384
  148MOL0     H19476  11.306   8.045  11.482 -1.3829  3.4380  2.6956
  148MOL0     H19477  11.392   8.253  11.473  2.0447 -0.9965  0.4270
  148MOL0     H19478  11.390   8.268  11.292  3.8350 -0.4863  0.2428
  148MOL0     H19479  11.599   8.234  11.396 -1.9702  1.5179 -0.0774
  148MOL0     H19480  11.561   8.090  11.485  1.9213  0.5975 -0.4432
  148MOL0     H19481  11.564   8.123  11.180  0.0261  1.1242  0.7531
  148MOL0     H19482  11.530   7.968  11.242  2.8571 -1.3184 -0.8860
  148MOL0     H19483  11.764   8.001  11.377  1.8844  0.6158 -0.0116
  148MOL0     H19484  11.790   8.119  11.263 -0.3154 -0.3673 -0.1019
  148MOL0     H19485  11.704   7.906  11.105  1.5385 -2.2929 -1.2147
  148MOL0     H19486  11.877   7.965  11.138  0.8007  2.0321  4.0403
  148MOL0     H19487  11.732   7.742  11.291 -1.3672 -1.3468 -2.3177
  148MOL0     H19488  11.900   7.798  11.298  0.2564  0.7333 -0.8918
  148MOL0     H19489  11.655   7.612  11.080  0.5620 -4.9085  0.5105
  148MOL0     H19490  11.841   7.457  10.781  0.1268  0.5968 -0.1276
  148MOL0     H19491  11.688   7.519  10.824  0.6506  0.6280  0.2611
  148MOL0     H19492  11.664   7.334  11.001 -0.9554 -0.9119 -1.8646
  148MOL0     H19493  11.839   7.309  10.987 -0.4561 -0.4410  1.4959
  148MOL0     H19494  11.651   7.269  10.748  0.9124 -1.7138 -2.4130
  148MOL0     H19495  11.813   7.195  10.769  0.2516 -1.1677  0.5942
  148MOL0     H19496  11.573   7.123  10.928 -0.5091 -1.7142  0.5740
  148MOL0     H19497  11.736   7.040  10.940  0.3801 -0.2992  0.3654
  148MOL0     H19498  11.442   6.924  10.601  1.4433 -0.1069  0.1654
  148MOL0     H19499  11.277   6.761  10.644 -0.3495  1.2983 -0.2511
  148MOL0     H19500  10.962   6.684  10.952 -0.1705  0.6167  2.1589
  148MOL0     H19501  10.731   6.589  11.052 -0.4382 -0.2166 -0.6834
  148MOL0     H19502  10.572   6.463  11.087 -2.3806  0.6436  0.8670
  148MOL0     H19503  10.629   6.510  11.253 -0.8223 -0.4457 -0.2171
  148MOL0     H19504  10.511   6.340  11.354 -0.2200  0.4676 -0.5311
  148MOL0     H19505  10.487   6.256  11.205  0.4515  0.4990 -0.2547
  148MOL0     H19506  10.339   6.471  11.140  1.1773  2.4046  0.5450
  148MOL0     H19507  10.374   6.523  11.298 -0.0490 -0.3732  1.3853
  148MOL0     H19508  10.257   6.242  11.212 -2.4128  0.1973 -0.8358
  148MOL0     H19509  10.262   6.297  11.378 -2.3759 -1.2433 -0.0319
  148MOL0     H19510  10.033   6.313  11.271  0.4833 -0.2032 -0.5495
  148MOL0     H19511  10.094   6.432  11.155  0.7896  1.0220  1.0651
  148MOL0     H19512   9.979   6.535  11.344  0.1347 -0.5640 -1.1801
  148MOL0     H19513  10.134   6.590  11.368 -2.1158 -0.2444 -1.8660
  148MOL0     H19514  10.014   6.357  11.515 -0.2937  1.0264 -0.2892
  148MOL0     H19515  10.175   6.399  11.541 -0.2758  0.0965  1.1679
  148MOL0     H19516   9.932   6.598  11.577 -1.6309 -1.4606  2.6045
  148MOL0     H19517  10.105   6.632  11.611 -0.0157  1.1530 -1.2389
  148MOL0     H19518  10.942   6.238  11.166  0.1218 -0.4685 -1.0836
  148MOL0     H19519  11.160   6.332  11.091 -0.2791 -0.4810 -2.2442
  148MOL0     H19520  11.389   6.725  11.056 -0.7465  0.0268 -0.4852
  148MOL0     H19521  11.570   6.877  11.019  1.9674  0.4006 -0.2533
  148MOL0     H19522  11.071   8.428  11.142  0.4668 -0.4053  0.7563
  148MOL0     H19523  10.865   8.581  11.139 -0.8762 -0.6553 -1.1914
  148MOL0     H19524  10.488   8.890  11.143  2.0020 -1.6678  0.2841
  148MOL0     H19525  10.255   8.971  11.184 -1.2023  0.7621  1.2782
  148MOL0     H19526   9.948   8.765  11.434  2.5532 -1.8930  0.4543
  148MOL0     H19527   9.949   8.680  11.283 -1.5209  0.9838 -0.1464
  148MOL0     H19528   9.745   8.814  11.332  0.4559  2.2638  0.5032
  148MOL0     H19529   9.841   8.964  11.315 -0.0225  2.0830 -3.3093
  148MOL0     H19530   9.839   8.767  11.088 -2.3701 -0.4997  0.6647
  148MOL0     H19531   9.909   8.933  11.090  0.7186 -1.3036 -1.7892
  148MOL0     H19532   9.681   9.024  11.149  0.5156  0.0488  0.8565
  148MOL0     H19533   9.677   8.957  10.981  2.3867 -0.1483  0.1268
  148MOL0     H19534   9.423   8.707  11.217  2.0496 -2.6289 -0.1089
  148MOL0     H19535  10.148   8.604  11.354  0.2260 -0.1723  1.2615
  148MOL0     H19536  10.371   8.525  11.338 -1.6866 -0.4779  0.4873
  149MOL0     O19537   1.126   3.098   7.816  0.0565 -0.1371 -0.1818
  149MOL0     C19538   1.174   3.212   7.828 -0.0898 -0.0239  0.0869
  149MOL0     O19539   1.106   3.327   7.863 -0.4121  0.4356  0.0768
  149MOL0     C19540   0.968   3.333   7.860  0.8479 -0.4679 -0.6872
  149MOL0     C19541   0.927   3.450   7.806  0.6508 -0.0610  0.7732
  149MOL0     C19542   0.794   3.486   7.808 -0.4388  0.0024 -0.1988
  149MOL0     C19543   0.697   3.397   7.849  0.5325 -0.1158  1.0958
  149MOL0     O19544   0.561   3.433   7.832  0.7806 -0.4848  0.3337
  149MOL0     C19545   0.466   3.322   7.829  0.3662 -0.5577 -0.4037
  149MOL0     C19546   0.356   3.392   7.924  0.0139  0.9130  0.4005
  149MOL0     C19547   0.225   3.310   7.941 -0.0299 -0.0667  0.9327
  149MOL0     C19548   0.149   3.350   8.072  0.1364  0.0596 -0.4578
  149MOL0     C19549   0.028   3.260   8.097 -1.1837 -0.0156 -0.2244
  149MOL0     C19550  -0.063   3.239   7.970  0.0935  0.3379 -0.4139
  149MOL0     C19551  -0.189   3.163   8.012  0.7658  0.4352  0.5786
  149MOL0     C19552  -0.294   3.232   8.099 -0.2921 -0.0281  0.5572
  149MOL0     N19553  -0.422   3.163   8.074  0.4259  0.0169 -0.8939
  149MOL0     C19554  -0.485   3.078   8.159  0.0660 -0.2319 -1.0747
  149MOL0     C19555  -0.592   3.044   8.089 -0.5872  0.1467 -0.6162
  149MOL0     C19556  -0.690   2.951   8.146 -0.0128 -0.3396  0.7572
  149MOL0     C19557  -0.783   3.038   8.227  0.4084  0.0420  1.0903
  149MOL0     C19558  -0.896   2.961   8.282 -0.2982 -0.0384  0.0306
  149MOL0     C19559  -1.003   2.929   8.173 -0.0031  0.0406  0.3981
  149MOL0     O19560  -1.107   2.870   8.254 -0.1886  0.8262 -0.0796
  149MOL0     C19561  -1.221   2.948   8.259 -0.9829  0.1900  0.6276
  149MOL0     C19562  -1.335   2.888   8.296 -0.6506  0.5027  0.3303
  149MOL0     C19563  -1.457   2.956   8.308  0.1495 -0.8128  0.0131
  149MOL0     C19564  -1.463   3.095   8.285 -0.5756  0.5954 -0.7273
  149MOL0     C19565  -1.602   3.153   8.298  1.1852  0.5230 -0.2172
  149MOL0     O19566  -1.594   3.292   8.314  0.1699 -0.7948  0.4361
  149MOL0     C19567  -1.704   3.372   8.319 -0.7747  0.7277  0.4765
  149MOL0     C19568  -1.770   3.414   8.202  0.0403 -0.1716 -0.8796
  149MOL0     C19569  -1.899   3.471   8.217 -1.4534 -0.1287 -0.0862
  149MOL0     C19570  -1.947   3.503   8.340  1.5057  0.2374 -1.5560
  149MOL0     O19571  -2.065   3.575   8.338 -0.3984  0.6082 -0.2862
  149MOL0     C19572  -2.097   3.660   8.451  0.0595 -0.0713  1.0126
  149MOL0     C19573  -2.226   3.740   8.418 -0.5600 -0.5725 -0.0044
  149MOL0     C19574  -2.339   3.640   8.422 -0.4015 -0.6221  0.3415
  149MOL0     C19575  -2.475   3.718   8.408 -0.5493  0.4864 -1.2969
  149MOL0     C19576  -2.589   3.619   8.432  0.2915 -0.0377 -0.8714
  149MOL0     C19577  -2.723   3.668   8.377  0.3935 -0.1206  0.4083
  149MOL0     C19578  -2.836   3.564   8.416 -0.4115 -0.0016 -0.0468
  149MOL0     C19579  -2.965   3.593   8.342  0.1086  0.4914 -0.1099
  149MOL0    Cl19580  -3.066   3.700   8.430  0.2451 -0.4125 -0.0617
  149MOL0     C19581  -1.884   3.454   8.449  0.0498 -0.5105 -0.5191
  149MOL0     C19582  -1.756   3.389   8.444  0.8514  0.5929  0.1174
  149MOL0     O19583  -1.703   3.086   8.303  0.1998 -0.9420  0.5087
  149MOL0     C19584  -1.349   3.160   8.239  0.0747 -0.1781  0.4653
  149MOL0     C19585  -1.232   3.085   8.232  0.6476 -1.1605 -0.5169
  149MOL0     N19586  -0.601   3.116   7.980 -0.4874  0.2613  0.8120
  149MOL0     N19587  -0.495   3.186   7.968 -0.3599 -0.6536  0.4041
  149MOL0     C19588   0.739   3.282   7.908  0.4169 -0.7169  0.1100
  149MOL0     C19589   0.877   3.247   7.925 -0.1088  0.8031  0.4662
  149MOL0     C19590   1.321   3.225   7.820 -0.8052  0.3052  0.5427
  149MOL0     C19591   1.393   3.348   7.840  0.2041 -0.0850 -0.6951
  149MOL0     C19592   1.536   3.353   7.851 -0.2205  0.5966  0.2807
  149MOL0     C19593   1.610   3.238   7.846  0.6318  0.4520  0.7920
  149MOL0     O19594   1.746   3.222   7.864 -0.3289  0.5289  0.2605
  149MOL0     C19595   1.824   3.341   7.898 -0.6690 -0.4908  0.8179
  149MOL0     C19596   1.954   3.302   7.983 -0.6803  0.2093  0.3512
  149MOL0     C19597   1.919   3.269   8.132 -0.4590  0.6650 -0.3704
  149MOL0     C19598   2.036   3.200   8.212  1.6474  0.2151  0.2361
  149MOL0     C19599   1.982   3.086   8.290 -0.7380 -0.1064  0.2489
  149MOL0     C19600   1.939   2.987   8.340 -0.9332  0.4250 -1.1832
  149MOL0     C19601   1.541   3.116   7.823 -0.2885  0.1657 -0.1409
  149MOL0     C19602   1.403   3.107   7.808  0.5867  0.9042 -0.2118
  149MOL0     H19603   0.990   3.530   7.769  0.6447 -0.2173  0.4295
  149MOL0     H19604   0.774   3.580   7.758  2.1364 -0.2407 -1.8465
  149MOL0     H19605   0.484   3.226   7.877 -0.5278 -1.4119 -1.7090
  149MOL0     H19606   0.428   3.304   7.728 -0.5253 -1.5589  0.0884
  149MOL0     H19607   0.319   3.482   7.875 -1.2212  0.3924  0.3324
  149MOL0     H19608   0.390   3.433   8.020  0.5022  0.1026  0.5833
  149MOL0     H19609   0.262   3.210   7.967  1.5993  0.5859  1.2687
  149MOL0     H19610   0.165   3.308   7.850 -0.6817  0.9687  1.3274
  149MOL0     H19611   0.213   3.357   8.160  0.3419  0.7576 -0.6519
  149MOL0     H19612   0.114   3.452   8.055 -0.8343  0.7360  4.2744
  149MOL0     H19613  -0.035   3.309   8.171 -2.1622  0.9969 -1.6633
  149MOL0     H19614   0.072   3.166   8.132 -0.4295 -0.3653 -1.9888
  149MOL0     H19615  -0.005   3.194   7.890  0.2084 -2.2718  1.0173
  149MOL0     H19616  -0.091   3.336   7.927  2.3890  1.5721  0.7065
  149MOL0     H19617  -0.236   3.133   7.917 -0.5930  1.2442  0.9593
  149MOL0     H19618  -0.145   3.066   8.036  2.0956  0.3921 -1.7050
  149MOL0     H19619  -0.298   3.335   8.065  0.5279  0.9282  3.1109
  149MOL0     H19620  -0.261   3.237   8.204  2.0235 -0.2283 -0.1025
  149MOL0     H19621  -0.457   3.037   8.255  1.1345  1.6577 -0.5252
  149MOL0     H19622  -0.637   2.872   8.201  2.2615 -0.1299 -1.0048
  149MOL0     H19623  -0.759   2.907   8.074 -1.1047 -0.6753  1.9552
  149MOL0     H19624  -0.824   3.120   8.168  0.3706 -1.0933 -0.5433
  149MOL0     H19625  -0.718   3.081   8.303  2.2748 -0.7547  0.0187
  149MOL0     H19626  -0.848   2.869   8.319  0.5001 -0.9054 -2.8932
  149MOL0     H19627  -0.931   3.009   8.374  2.6378  1.5732  0.4481
  149MOL0     H19628  -0.962   2.858   8.100 -2.5139 -0.8228 -0.3055
  149MOL0     H19629  -1.033   3.013   8.108 -1.0739 -0.8699 -0.3278
  149MOL0     H19630  -1.322   2.781   8.311 -1.8895  0.5067  1.7574
  149MOL0     H19631  -1.552   2.910   8.333  0.9802 -3.0659 -0.6671
  149MOL0     H19632  -1.732   3.372   8.109 -0.2746 -0.7206 -0.7614
  149MOL0     H19633  -1.963   3.484   8.130  0.9505 -2.6100 -2.4497
  149MOL0     H19634  -2.020   3.738   8.451  1.6205 -1.0681 -5.4006
  149MOL0     H19635  -2.102   3.619   8.553  0.8670 -0.7594  0.7883
  149MOL0     H19636  -2.216   3.784   8.319 -3.1797  3.1613  1.1538
  149MOL0     H19637  -2.235   3.824   8.488 -0.7638  0.1449 -0.8747
  149MOL0     H19638  -2.334   3.571   8.506  4.2841 -1.0048  0.0614
  149MOL0     H19639  -2.328   3.575   8.334  1.5592  0.4543 -0.2936
  149MOL0     H19640  -2.489   3.803   8.476  0.5102  1.5167 -2.3133
  149MOL0     H19641  -2.495   3.755   8.307 -1.5762 -0.2270 -1.3712
  149MOL0     H19642  -2.608   3.609   8.540 -1.0407 -0.2786 -1.1118
  149MOL0     H19643  -2.571   3.519   8.392  0.0144 -1.4819  2.2623
  149MOL0     H19644  -2.724   3.667   8.268  0.4563 -1.6625  0.3879
  149MOL0     H19645  -2.747   3.771   8.405  0.5236  0.2367 -0.7558
  149MOL0     H19646  -2.805   3.467   8.375 -0.5055  0.5082 -1.3342
  149MOL0     H19647  -2.849   3.553   8.524 -0.4071 -2.6321 -0.2532
  149MOL0     H19648  -3.029   3.508   8.315 -2.4640  0.9870  3.6859
  149MOL0     H19649  -2.944   3.646   8.249 -2.3450  0.5589 -0.6846
  149MOL0     H19650  -1.938   3.485   8.539 -0.4392  2.3970 -1.7040
  149MOL0     H19651  -1.696   3.358   8.528  2.3398  1.5202 -0.5589
  149MOL0     H19652  -1.370   3.259   8.201  0.3516  0.2856  1.4978
  149MOL0     H19653  -1.146   3.150   8.215  2.7531 -3.4925  0.6307
  149MOL0     H19654   0.671   3.219   7.964 -0.4640  1.2184  1.2937
  149MOL0     H19655   0.917   3.162   7.980 -2.6981 -0.8168  0.0615
  149MOL0     H19656   1.337   3.441   7.851  0.0145 -0.4003  1.3423
  149MOL0     H19657   1.590   3.447   7.854  0.2959  0.5356 -3.0206
  149MOL0     H19658   1.774   3.412   7.965  0.6943  0.4967  0.8372
  149MOL0     H19659   1.848   3.399   7.809 -0.2003  2.3305  2.6609
  149MOL0     H19660   1.996   3.207   7.951 -0.7573 -0.0909  1.1140
  149MOL0     H19661   2.034   3.377   7.976 -1.1718  0.8364  1.2437
  149MOL0     H19662   1.836   3.199   8.123 -0.0081  0.2953 -1.9951
  149MOL0     H19663   1.885   3.362   8.178 -3.6112 -1.6039  2.3676
  149MOL0     H19664   2.099   3.155   8.134  1.9229 -0.2581  0.7194
  149MOL0     H19665   2.084   3.275   8.275  1.4436  1.0557 -0.5985
  149MOL0     H19666   1.895   2.902   8.387  1.3712 -0.6277 -0.8014
  149MOL0     H19667   1.600   3.025   7.816  3.0251  2.2857 -3.6491
  149MOL0     H19668   1.364   3.006   7.797  1.5543  0.1377  2.3528
  150MOL0     O19669   0.663   8.842   9.706 -0.1544  0.3096 -1.0576
  150MOL0     C19670   0.670   8.755   9.617  0.3889 -1.1521  0.1455
  150MOL0     O19671   0.569   8.723   9.519 -0.8357  0.4243 -0.6030
  150MOL0     C19672   0.456   8.800   9.524 -0.0971  0.1216  0.4963
  150MOL0     C19673   0.331   8.745   9.553  0.1848 -0.4272  0.5537
  150MOL0     C19674   0.215   8.824   9.523 -0.6399 -0.3308  0.0556
  150MOL0     C19675   0.224   8.957   9.481  1.0452 -0.4191  0.3603
  150MOL0     O19676   0.114   9.032   9.469  0.2844  0.7608  0.0252
  150MOL0     C19677   0.126   9.172   9.475 -0.6357  0.1426  0.3695
  150MOL0     C19678  -0.001   9.233   9.534 -0.0346  0.4580  0.6998
  150MOL0     C19679  -0.125   9.238   9.439  0.6058 -0.2536 -0.2846
  150MOL0     C19680  -0.224   9.343   9.479 -0.0576 -0.9068 -0.0488
  150MOL0     C19681  -0.337   9.344   9.369  0.5682  0.9933  0.5738
  150MOL0     C19682  -0.449   9.427   9.406 -0.0204 -1.0841  0.2135
  150MOL0     C19683  -0.557   9.447   9.299  0.4495  0.0281  0.2101
  150MOL0     C19684  -0.587   9.311   9.235 -0.1934 -0.1825  0.0161
  150MOL0     N19685  -0.722   9.316   9.171 -0.1861  0.4694  0.3409
  150MOL0     C19686  -0.828   9.292   9.249  0.3812 -0.9395 -0.0159
  150MOL0     C19687  -0.927   9.293   9.164 -0.7953  0.7997  0.4632
  150MOL0     C19688  -1.066   9.247   9.217 -0.4898 -0.1635  0.1048
  150MOL0     C19689  -1.183   9.285   9.119 -0.0884  0.0545  0.1034
  150MOL0     C19690  -1.208   9.436   9.120  0.3058 -0.4998  0.5521
  150MOL0     C19691  -1.342   9.463   9.038  0.0676 -0.7831 -0.2189
  150MOL0     O19692  -1.440   9.356   9.055 -0.1866 -0.5359  0.6139
  150MOL0     C19693  -1.560   9.401   9.022  0.0010 -0.0741 -0.7355
  150MOL0     C19694  -1.653   9.404   9.129  0.2694  0.1225  0.1131
  150MOL0     C19695  -1.788   9.422   9.106 -0.9381 -0.3441 -0.2597
  150MOL0     C19696  -1.823   9.465   8.973  0.7971  0.3034 -0.3218
  150MOL0     C19697  -1.965   9.505   8.955 -0.4684 -0.1619 -0.2670
  150MOL0     O19698  -2.051   9.452   9.053 -0.1380 -0.0430  0.1915
  150MOL0     C19699  -2.175   9.502   9.049 -0.0662 -0.3538  0.4580
  150MOL0     C19700  -2.206   9.597   9.147  0.0663  0.0550  0.2519
  150MOL0     C19701  -2.329   9.653   9.166 -0.3506 -0.4505  0.2717
  150MOL0     C19702  -2.436   9.594   9.087 -0.9869  0.1857 -0.4168
  150MOL0     O19703  -2.568   9.628   9.097 -0.2550  0.3157  0.0017
  150MOL0     C19704  -2.605   9.765   9.116  0.1939  0.1381 -0.5139
  150MOL0     C19705  -2.646   9.804   9.258 -0.7865  0.2114 -0.6498
  150MOL0     C19706  -2.788   9.755   9.287  0.8162 -0.5757  0.2138
  150MOL0     C19707  -2.821   9.782   9.434  0.7664 -0.4311  0.1152
  150MOL0     C19708  -2.974   9.784   9.468 -0.7886 -0.3783  0.2959
  150MOL0     C19709  -3.045   9.913   9.413  0.4383 -0.4058 -0.3231
  150MOL0     C19710  -3.180   9.927   9.501 -0.5501 -0.5156  0.7606
  150MOL0     C19711  -3.259  10.043   9.451 -0.1586 -0.7230  0.3353
  150MOL0    Cl19712  -3.394  10.077   9.563  0.3437 -0.3036 -0.3007
  150MOL0     C19713  -2.405   9.494   8.991 -0.3896  0.3503  0.8936
  150MOL0     C19714  -2.273   9.450   8.973  0.5137  1.0417  0.6251
  150MOL0     O19715  -1.996   9.569   8.853 -0.4030  0.0041  0.7517
  150MOL0     C19716  -1.732   9.479   8.871 -1.0104 -0.0462  0.7072
  150MOL0     C19717  -1.597   9.442   8.895 -0.6763 -0.4366 -0.8686
  150MOL0     N19718  -0.880   9.304   9.035 -0.9424 -0.3380 -0.2253
  150MOL0     N19719  -0.751   9.320   9.042 -0.1254  0.3366  1.1192
  150MOL0     C19720   0.353   9.007   9.451  0.1313 -0.0073  0.2065
  150MOL0     C19721   0.467   8.929   9.472 -0.0603  0.1084  0.5538
  150MOL0     C19722   0.777   8.653   9.633 -0.2081 -1.1652 -0.6043
  150MOL0     C19723   0.879   8.684   9.723 -0.0192  1.4450 -0.0785
  150MOL0     C19724   0.974   8.582   9.742  0.4364  0.5369  0.2525
  150MOL0     C19725   0.976   8.457   9.682  0.0990  0.8431 -0.1916
  150MOL0     O19726   1.081   8.365   9.695  0.4651  0.3174 -0.3518
  150MOL0     C19727   1.144   8.348   9.819  1.0200  0.1454 -0.1526
  150MOL0     C19728   1.269   8.269   9.790 -0.7718  0.1238 -0.0489
  150MOL0     C19729   1.375   8.348   9.707  0.6406  0.4919 -1.4146
  150MOL0     C19730   1.499   8.266   9.700  0.4039 -0.1021  0.1963
  150MOL0     C19731   1.618   8.313   9.636 -0.0257  0.1114  0.0059
  150MOL0     C19732   1.721   8.331   9.583  0.1771  0.8809 -0.2607
  150MOL0     C19733   0.865   8.428   9.593 -0.4805  0.0729 -0.1599
  150MOL0     C19734   0.770   8.530   9.564  0.9474 -0.1967  0.1310
  150MOL0     H19735   0.324   8.641   9.582 -0.3509  0.2752  3.1960
  150MOL0     H19736   0.114   8.786   9.531 -0.8042 -0.4735 -2.1313
  150MOL0     H19737   0.147   9.208   9.374 -0.8622  0.0884  0.3032
  150MOL0     H19738   0.218   9.198   9.528  2.7128 -1.0000 -4.2507
  150MOL0     H19739   0.015   9.339   9.558  1.6403  0.0042  1.7234
  150MOL0     H19740  -0.036   9.180   9.623  2.3594  1.6961  2.4963
  150MOL0     H19741  -0.172   9.140   9.440  0.8706 -0.3852  1.1011
  150MOL0     H19742  -0.082   9.269   9.343 -1.3511  0.6242 -0.9376
  150MOL0     H19743  -0.275   9.326   9.574 -0.8014 -2.4319 -0.6916
  150MOL0     H19744  -0.171   9.438   9.471  1.6473 -1.6204  1.9646
  150MOL0     H19745  -0.378   9.243   9.354  0.0545  1.2960 -0.1281
  150MOL0     H19746  -0.302   9.388   9.276 -1.5523  3.1647  0.6857
  150MOL0     H19747  -0.418   9.530   9.429 -1.8391 -0.1036 -1.4522
  150MOL0     H19748  -0.498   9.384   9.494  0.2264 -3.2551 -0.6457
  150MOL0     H19749  -0.646   9.489   9.346  0.5119 -0.6626  0.9659
  150MOL0     H19750  -0.522   9.516   9.222 -1.9450  0.5410 -0.4905
  150MOL0     H19751  -0.584   9.220   9.296  0.2944 -0.7269 -0.7840
  150MOL0     H19752  -0.511   9.292   9.158 -1.7591 -0.3767 -1.5383
  150MOL0     H19753  -0.828   9.266   9.355  2.4808 -1.2638 -0.0397
  150MOL0     H19754  -1.092   9.295   9.312  0.3641 -2.4980  1.5836
  150MOL0     H19755  -1.064   9.138   9.222 -1.2568 -0.2154 -0.5543
  150MOL0     H19756  -1.268   9.233   9.164  0.7611 -2.2127 -0.7387
  150MOL0     H19757  -1.175   9.241   9.019 -2.0528 -0.7779  0.2687
  150MOL0     H19758  -1.229   9.469   9.222  0.7272 -3.5533  1.7277
  150MOL0     H19759  -1.123   9.496   9.085 -0.8405  1.3481  0.7593
  150MOL0     H19760  -1.317   9.465   8.932 -1.2015  0.9541 -0.5126
  150MOL0     H19761  -1.378   9.561   9.071 -0.2679 -1.1012  0.3813
  150MOL0     H19762  -1.625   9.382   9.232  2.2377  0.4517 -0.3094
  150MOL0     H19763  -1.850   9.434   9.194  0.2430 -0.1490  0.5696
  150MOL0     H19764  -2.127   9.637   9.210  2.0504 -2.9348 -0.1269
  150MOL0     H19765  -2.336   9.740   9.231 -3.6163 -1.2984  1.2402
  150MOL0     H19766  -2.689   9.787   9.050 -1.9420 -2.4204  1.1684
  150MOL0     H19767  -2.516   9.824   9.090  0.1508  0.7996  0.7637
  150MOL0     H19768  -2.633   9.911   9.276  1.3524 -0.4613  2.4521
  150MOL0     H19769  -2.580   9.751   9.326  1.0116 -0.5564 -2.8796
  150MOL0     H19770  -2.795   9.646   9.280 -3.8458 -0.8464  4.0360
  150MOL0     H19771  -2.863   9.791   9.215  2.1365 -0.1263 -0.9781
  150MOL0     H19772  -2.759   9.712   9.491 -1.2171  0.5622  3.7450
  150MOL0     H19773  -2.788   9.885   9.448 -3.2565  1.0360  0.1237
  150MOL0     H19774  -2.965   9.766   9.576 -2.0229  0.4473  0.5669
  150MOL0     H19775  -3.024   9.694   9.432 -0.6030 -0.6855  0.7914
  150MOL0     H19776  -3.066   9.903   9.306  1.2304  1.3817 -0.6903
  150MOL0     H19777  -2.991  10.006   9.434  0.5357 -0.4517 -0.3713
  150MOL0     H19778  -3.236   9.833   9.495 -1.0087 -0.1528 -2.6347
  150MOL0     H19779  -3.169   9.950   9.607 -1.4425  0.8768  0.5803
  150MOL0     H19780  -3.295  10.020   9.350 -2.4402 -0.6691  1.0874
  150MOL0     H19781  -3.194  10.131   9.455 -0.7100 -0.2204 -1.1250
  150MOL0     H19782  -2.476   9.447   8.924 -0.6284  1.7300  0.1314
  150MOL0     H19783  -2.266   9.376   8.893  0.5936  0.1707  1.4195
  150MOL0     H19784  -1.766   9.512   8.773 -2.2755  0.1537  1.1912
  150MOL0     H19785  -1.518   9.448   8.821  0.5496 -0.0084  0.4425
  150MOL0     H19786   0.369   9.102   9.401  3.1152 -0.7008 -0.3499
  150MOL0     H19787   0.565   8.963   9.441  0.9549 -2.1571  1.0892
  150MOL0     H19788   0.899   8.778   9.773  1.3056  0.7837  0.6774
  150MOL0     H19789   1.052   8.618   9.809  0.1899  1.4221  0.0748
  150MOL0     H19790   1.085   8.298   9.896  2.4631  0.9546  1.5662
  150MOL0     H19791   1.171   8.444   9.865 -2.4973  0.9925  0.4516
  150MOL0     H19792   1.314   8.249   9.887  1.9566  1.6871 -0.8793
  150MOL0     H19793   1.254   8.177   9.732  0.3916  0.7549 -1.4241
  150MOL0     H19794   1.387   8.449   9.745 -2.4190 -0.0205  1.3402
  150MOL0     H19795   1.322   8.364   9.612  1.0798  2.3509 -1.3740
  150MOL0     H19796   1.532   8.245   9.802 -0.6235 -1.5790  0.2570
  150MOL0     H19797   1.461   8.179   9.645 -0.9760  2.5308 -3.4073
  150MOL0     H19798   1.808   8.347   9.523  0.2420  5.1437  0.6279
  150MOL0     H19799   0.861   8.328   9.553  2.3731 -0.8948  1.6439
  150MOL0     H19800   0.685   8.517   9.498  0.3101  1.8185  0.4933
  151MOL0     O19801   7.686   6.550   9.441 -0.5547 -0.0425  0.1182
  151MOL0     C19802   7.712   6.674   9.423  0.5757  0.3510 -0.8462
  151MOL0     O19803   7.622   6.775   9.446  0.1442  0.3392 -0.5124
  151MOL0     C19804   7.498   6.737   9.464 -0.5458  0.1241 -0.4476
  151MOL0     C19805   7.416   6.753   9.350 -0.4603  0.4305 -0.1693
  151MOL0     C19806   7.282   6.725   9.357 -0.2711  0.2304  0.4992
  151MOL0     C19807   7.225   6.700   9.479 -0.5790  0.7091 -0.0887
  151MOL0     O19808   7.085   6.679   9.494  0.4795 -0.5804  0.9529
  151MOL0     C19809   7.027   6.577   9.420 -0.3196  0.7765 -0.4074
  151MOL0     C19810   6.885   6.551   9.478 -0.1286  0.0483  1.4205
  151MOL0     C19811   6.776   6.538   9.366 -0.5481 -0.3348 -0.1704
  151MOL0     C19812   6.647   6.485   9.427 -0.4236 -0.4862  0.1654
  151MOL0     C19813   6.543   6.462   9.316 -0.2834 -0.2761 -0.6858
  151MOL0     C19814   6.424   6.400   9.381  0.1121  0.6239 -0.3644
  151MOL0     C19815   6.320   6.377   9.274  0.4298 -0.3541  0.3691
  151MOL0     C19816   6.214   6.275   9.332 -0.1444  0.8950 -0.0313
  151MOL0     N19817   6.099   6.247   9.246  0.0866  0.2329  0.0430
  151MOL0     C19818   5.997   6.342   9.226  0.6471  0.3292  0.3631
  151MOL0     C19819   5.904   6.274   9.155  0.3447 -0.0189 -0.5306
  151MOL0     C19820   5.769   6.315   9.092  0.6027 -0.1869 -0.4124
  151MOL0     C19821   5.640   6.254   9.140  0.2480 -0.0411 -0.9191
  151MOL0     C19822   5.518   6.286   9.061  0.2157 -0.4461 -0.1852
  151MOL0     C19823   5.474   6.438   9.077  0.3865  0.8103 -0.4359
  151MOL0     O19824   5.393   6.440   9.192 -0.4914  0.2469 -0.3172
  151MOL0     C19825   5.256   6.433   9.193  0.4044  0.6419 -0.5916
  151MOL0     C19826   5.181   6.504   9.289 -0.1069  0.1237  0.0510
  151MOL0     C19827   5.040   6.502   9.299 -0.6859  0.3751 -0.4824
  151MOL0     C19828   4.972   6.418   9.215  0.5310  0.2999  0.1797
  151MOL0     C19829   4.833   6.408   9.212  0.6418 -0.1047  0.0885
  151MOL0     O19830   4.779   6.364   9.099  0.6513  0.2291  0.1053
  151MOL0     C19831   4.645   6.351   9.091 -0.3550  0.1632 -0.2314
  151MOL0     C19832   4.596   6.219   9.078  0.8014  0.1966 -0.1922
  151MOL0     C19833   4.457   6.207   9.066  0.4176  0.2078 -0.0515
  151MOL0     C19834   4.374   6.318   9.054 -0.3357  0.1237 -0.9361
  151MOL0     O19835   4.245   6.290   9.042  0.8714  0.1402  0.3306
  151MOL0     C19836   4.152   6.397   9.073 -0.1405  0.3940 -0.3336
  151MOL0     C19837   4.017   6.330   9.079  0.0208 -0.1837 -0.4500
  151MOL0     C19838   3.917   6.402   9.178  0.5480  0.1765 -0.6241
  151MOL0     C19839   3.896   6.551   9.159 -0.1025 -0.9795 -0.1919
  151MOL0     C19840   3.805   6.580   9.034 -0.0412 -0.0654  0.2812
  151MOL0     C19841   3.768   6.726   9.019  0.0954  0.8056  0.1121
  151MOL0     C19842   3.674   6.773   9.129 -0.9260 -0.0581 -0.3547
  151MOL0     C19843   3.598   6.910   9.106 -0.1283  0.3577 -0.5745
  151MOL0    Cl19844   3.711   7.059   9.139 -0.1309  0.3641 -0.1519
  151MOL0     C19845   4.428   6.444   9.060 -0.1806 -0.1111 -0.0804
  151MOL0     C19846   4.563   6.462   9.076 -0.4857  0.2432 -0.0837
  151MOL0     O19847   4.778   6.439   9.318 -0.4987 -0.0199  0.2655
  151MOL0     C19848   5.046   6.348   9.114  0.8333  0.3343 -0.1071
  151MOL0     C19849   5.180   6.358   9.101  0.1235  0.5956 -0.7539
  151MOL0     N19850   5.952   6.155   9.121 -0.2446  0.2707 -0.4523
  151MOL0     N19851   6.068   6.132   9.185  0.4696 -0.3086  0.1594
  151MOL0     C19852   7.301   6.687   9.596 -1.3817 -0.6519  0.2536
  151MOL0     C19853   7.444   6.714   9.596  1.1231  0.3796 -0.8105
  151MOL0     C19854   7.852   6.702   9.380  0.0139  0.4228  0.1826
  151MOL0     C19855   7.890   6.840   9.371 -0.8183 -0.5634 -0.4092
  151MOL0     C19856   8.019   6.877   9.329 -0.3908 -0.3357  0.9171
  151MOL0     C19857   8.114   6.778   9.304  1.4518 -0.3146  0.3046
  151MOL0     O19858   8.226   6.832   9.245 -0.6109 -0.6522  0.4382
  151MOL0     C19859   8.305   6.760   9.149 -0.8826  0.3313 -0.3125
  151MOL0     C19860   8.447   6.821   9.120  0.4420  0.2670  0.3427
  151MOL0     C19861   8.509   6.844   9.250 -0.5322 -0.8553  0.1221
  151MOL0     C19862   8.653   6.907   9.226 -0.0298  0.2644 -0.1785
  151MOL0     C19863   8.761   6.820   9.163  0.6997 -1.0116 -0.2562
  151MOL0     C19864   8.858   6.784   9.108 -0.3487  0.4105 -0.5964
  151MOL0     C19865   8.072   6.646   9.298 -0.3803  0.2207 -0.0843
  151MOL0     C19866   7.947   6.607   9.346  0.4882  0.1019 -0.3979
  151MOL0     H19867   7.458   6.755   9.250 -0.9942 -3.6024 -0.6601
  151MOL0     H19868   7.219   6.727   9.268 -0.1505  0.3820  0.4174
  151MOL0     H19869   7.081   6.482   9.431 -1.5163 -0.1583 -2.0664
  151MOL0     H19870   7.020   6.588   9.311 -1.9126  3.3254 -0.1413
  151MOL0     H19871   6.847   6.617   9.557 -0.5554 -0.4833  1.6657
  151MOL0     H19872   6.889   6.452   9.525 -2.1697 -0.4446  0.6332
  151MOL0     H19873   6.808   6.464   9.292 -0.6626 -1.8495  1.2498
  151MOL0     H19874   6.759   6.633   9.315 -0.2741  0.2134  0.7409
  151MOL0     H19875   6.672   6.389   9.472  0.0369 -0.8327 -0.8127
  151MOL0     H19876   6.601   6.549   9.504 -1.7522  0.1676 -1.1304
  151MOL0     H19877   6.584   6.398   9.237  0.1347 -1.8850  0.7800
  151MOL0     H19878   6.513   6.561   9.280  0.2373  0.1376 -0.0053
  151MOL0     H19879   6.385   6.467   9.458 -1.2297 -1.8551  1.2518
  151MOL0     H19880   6.450   6.308   9.433 -0.0605  1.3475  1.0512
  151MOL0     H19881   6.270   6.473   9.257  1.1298 -0.3465 -2.0581
  151MOL0     H19882   6.352   6.330   9.181 -2.4186  1.9289 -1.9695
  151MOL0     H19883   6.180   6.308   9.431  2.1927  0.2453  1.0674
  151MOL0     H19884   6.257   6.175   9.342  0.3977  1.2205  1.1581
  151MOL0     H19885   5.987   6.441   9.268 -0.2099 -0.5063  2.2493
  151MOL0     H19886   5.773   6.308   8.983 -2.5151 -0.9743 -0.5629
  151MOL0     H19887   5.767   6.421   9.119  1.0719 -0.1647 -0.4617
  151MOL0     H19888   5.609   6.297   9.235  1.5938  0.2175 -0.5741
  151MOL0     H19889   5.658   6.149   9.163  1.3570  0.6659  1.8040
  151MOL0     H19890   5.535   6.259   8.956 -0.1761 -2.5201  0.2321
  151MOL0     H19891   5.441   6.215   9.093  0.3619 -0.8262 -0.6537
  151MOL0     H19892   5.412   6.455   8.988 -2.3492 -3.1580  0.3970
  151MOL0     H19893   5.558   6.508   9.077  0.4853  0.7298  1.1630
  151MOL0     H19894   5.236   6.561   9.363  1.8784 -2.1903  0.4645
  151MOL0     H19895   4.979   6.547   9.376 -1.9275 -1.4853 -0.3166
  151MOL0     H19896   4.656   6.129   9.087  3.3366  1.8044 -0.0754
  151MOL0     H19897   4.410   6.110   9.066  0.3964  0.2139 -0.7006
  151MOL0     H19898   4.161   6.465   8.987 -0.2679  0.1602 -0.5323
  151MOL0     H19899   4.176   6.445   9.168  0.0841  0.5415 -0.4613
  151MOL0     H19900   4.018   6.224   9.108 -1.0941 -0.4723 -1.3926
  151MOL0     H19901   3.967   6.334   8.982 -0.7279  2.2920 -0.0191
  151MOL0     H19902   3.948   6.382   9.281  0.6250 -3.7693 -1.2654
  151MOL0     H19903   3.827   6.343   9.162  0.4935 -1.1369  3.4110
  151MOL0     H19904   3.845   6.594   9.246  1.3137 -0.4363  0.3979
  151MOL0     H19905   3.988   6.609   9.145 -2.7978  3.9229  0.3174
  151MOL0     H19906   3.708   6.530   9.046 -0.5631  1.1605  1.6175
  151MOL0     H19907   3.854   6.540   8.945  0.7588  0.1141  0.6352
  151MOL0     H19908   3.723   6.744   8.921  0.8409  1.2427 -0.1604
  151MOL0     H19909   3.864   6.778   9.028  0.9610 -0.8425  0.9496
  151MOL0     H19910   3.589   6.705   9.141 -2.6314  2.2443  1.6674
  151MOL0     H19911   3.741   6.780   9.215 -0.1696 -0.1572 -0.9259
  151MOL0     H19912   3.518   6.932   9.177 -0.6744  0.9753 -1.3603
  151MOL0     H19913   3.559   6.919   9.005  0.0691  1.7598 -0.5482
  151MOL0     H19914   4.377   6.540   9.065 -0.2612 -0.1226 -0.5868
  151MOL0     H19915   4.611   6.559   9.068  1.6915 -0.8715 -1.5329
  151MOL0     H19916   4.996   6.290   9.037  1.2068 -0.0913 -0.0324
  151MOL0     H19917   5.228   6.312   9.016  2.9949 -0.5642  1.3169
  151MOL0     H19918   7.246   6.670   9.689  1.5286  1.0125  2.4626
  151MOL0     H19919   7.514   6.694   9.677 -1.1645 -0.6352  1.0403
  151MOL0     H19920   7.809   6.910   9.389  0.7486  1.0414  0.7232
  151MOL0     H19921   8.049   6.977   9.300  2.9963 -1.2908  0.6997
  151MOL0     H19922   8.265   6.737   9.051  0.6701  0.5871 -1.0375
  151MOL0     H19923   8.330   6.671   9.207  0.1373  0.9286  0.2085
  151MOL0     H19924   8.506   6.747   9.065 -1.6512 -2.2104  1.1931
  151MOL0     H19925   8.434   6.915   9.065  0.8184  0.5155  0.6810
  151MOL0     H19926   8.530   6.751   9.303  1.5527 -1.1559 -1.1303
  151MOL0     H19927   8.445   6.909   9.310 -1.0101 -0.2063 -1.0498
  151MOL0     H19928   8.646   6.993   9.158 -0.1138 -0.5219 -1.1857
  151MOL0     H19929   8.687   6.932   9.327  1.4301  3.1246 -1.2469
  151MOL0     H19930   8.945   6.750   9.056 -2.0900 -2.2207 -1.9877
  151MOL0     H19931   8.141   6.575   9.253  2.0186  0.0163  3.4857
  151MOL0     H19932   7.930   6.500   9.347 -3.4378  0.6021 -0.5756
  152MOL0     O19933   4.947  10.435   4.481 -0.5420 -0.5989 -0.3950
  152MOL0     C19934   4.945  10.544   4.429  0.5333 -1.3646 -0.9380
  152MOL0     O19935   4.838  10.605   4.375  0.4553  0.0896 -0.3785
  152MOL0     C19936   4.734  10.528   4.331  0.5439 -0.7446  0.3322
  152MOL0     C19937   4.607  10.599   4.323  0.0855  0.6212 -0.3422
  152MOL0     C19938   4.493  10.530   4.294 -0.2248 -0.9699 -0.3484
  152MOL0     C19939   4.504  10.394   4.270 -0.3686  0.6959  0.7447
  152MOL0     O19940   4.391  10.336   4.229 -0.2610  0.8530  0.5703
  152MOL0     C19941   4.370  10.194   4.245  0.6401 -0.1376 -0.6033
  152MOL0     C19942   4.223  10.152   4.263  0.5007 -0.7589 -1.0220
  152MOL0     C19943   4.129  10.173   4.145 -0.0742  0.3240 -0.0528
  152MOL0     C19944   3.982  10.152   4.184 -0.1065  0.1317  0.2177
  152MOL0     C19945   3.899  10.188   4.058 -0.1970 -0.6672 -0.6069
  152MOL0     C19946   3.913  10.084   3.930  0.6143 -0.2825 -0.6428
  152MOL0     C19947   3.821   9.962   3.958 -0.1025  0.6601 -1.3232
  152MOL0     C19948   3.855   9.842   3.877 -0.6328 -0.6042 -0.1712
  152MOL0     N19949   3.822   9.862   3.738 -0.2223 -0.4587  0.2615
  152MOL0     C19950   3.692   9.859   3.682  0.8900  0.5193  0.6043
  152MOL0     C19951   3.705   9.902   3.554 -0.2741 -0.2420  0.5834
  152MOL0     C19952   3.608   9.914   3.442  0.0784  0.7302 -0.2888
  152MOL0     C19953   3.504  10.034   3.439 -0.2937  0.5789 -0.1229
  152MOL0     C19954   3.376   9.996   3.522 -0.3296  0.8868 -0.4268
  152MOL0     C19955   3.291  10.125   3.540 -0.4683 -0.0464 -0.3148
  152MOL0     O19956   3.224  10.117   3.663 -0.4076 -0.3651 -0.6706
  152MOL0     C19957   3.138  10.221   3.705 -0.2290 -1.0193 -0.8014
  152MOL0     C19958   3.130  10.345   3.631 -0.1130  0.0559  0.7842
  152MOL0     C19959   3.046  10.444   3.681 -1.4372  0.1855 -0.3298
  152MOL0     C19960   2.972  10.422   3.799 -0.3376 -0.4844  0.3766
  152MOL0     C19961   2.876  10.522   3.850  0.5229  0.3584  0.8733
  152MOL0     O19962   2.915  10.656   3.819  0.5362  0.5919 -0.6816
  152MOL0     C19963   2.824  10.750   3.854  0.4944  0.1455 -0.8553
  152MOL0     C19964   2.869  10.882   3.899 -0.0427  1.0733 -0.1534
  152MOL0     C19965   2.787  10.979   3.946 -1.2176 -0.2981 -0.0741
  152MOL0     C19966   2.655  10.954   3.954  0.8414 -0.6431  0.3756
  152MOL0     O19967   2.570  11.046   4.013 -0.7299  0.0074 -0.6350
  152MOL0     C19968   2.613  11.182   4.046  0.9326 -1.2888  0.2557
  152MOL0     C19969   2.495  11.282   4.087 -0.2877 -0.4115 -0.3187
  152MOL0     C19970   2.360  11.245   4.026  0.5302 -0.6124  0.0338
  152MOL0     C19971   2.291  11.378   3.993 -0.0516  0.2136  0.3271
  152MOL0     C19972   2.143  11.349   3.948  0.3783  0.2301  0.2847
  152MOL0     C19973   2.126  11.289   3.810 -0.3434  0.2829  0.4049
  152MOL0     C19974   1.978  11.255   3.780  0.0908  1.1826  0.2575
  152MOL0     C19975   1.953  11.215   3.632  0.3636 -0.3085  0.7946
  152MOL0    Cl19976   1.795  11.149   3.615  0.3610  0.2505 -0.1202
  152MOL0     C19977   2.603  10.830   3.914  0.2288  0.2942 -0.6351
  152MOL0     C19978   2.690  10.733   3.867  0.7450 -0.2884  0.5595
  152MOL0     O19979   2.779  10.479   3.907  0.8468 -0.5966  0.6124
  152MOL0     C19980   2.970  10.297   3.862 -0.0343  0.4084  0.1503
  152MOL0     C19981   3.062  10.198   3.825  0.1535 -0.3725 -0.4682
  152MOL0     N19982   3.840   9.922   3.529  0.3584 -0.3312  0.8119
  152MOL0     N19983   3.903   9.893   3.635 -0.7228 -0.5084  0.0283
  152MOL0     C19984   4.626  10.322   4.272 -0.3208 -0.0985  0.8738
  152MOL0     C19985   4.741  10.392   4.298 -0.4682 -0.4606  0.1826
  152MOL0     C19986   5.057  10.633   4.438  0.0276 -0.0411  0.0113
  152MOL0     C19987   5.133  10.640   4.558  0.1557 -0.4794 -0.4002
  152MOL0     C19988   5.235  10.744   4.565  0.6855  0.5421  0.3457
  152MOL0     C19989   5.267  10.833   4.462  0.8345 -0.3921  0.5418
  152MOL0     O19990   5.372  10.918   4.480 -0.0061 -0.5377  0.1289
  152MOL0     C19991   5.379  11.043   4.416  0.8104 -0.0159  0.3837
  152MOL0     C19992   5.487  11.126   4.483  0.2315  0.1423 -0.2547
  152MOL0     C19993   5.505  11.273   4.435  0.0941 -0.2724 -0.5627
  152MOL0     C19994   5.563  11.282   4.292 -0.4206 -0.4420 -0.3388
  152MOL0     C19995   5.711  11.278   4.301  0.5743 -0.5886  0.1167
  152MOL0     C19996   5.834  11.266   4.300  0.1372 -0.5099  0.7004
  152MOL0     C19997   5.182  10.827   4.347 -0.3851  0.2201  0.5377
  152MOL0     C19998   5.077  10.732   4.342  0.0555 -0.0746  0.1282
  152MOL0     H19999   4.609  10.703   4.354 -2.6835  0.9546 -1.0004
  152MOL0     H20000   4.400  10.583   4.278  0.6490  1.7608  2.5499
  152MOL0     H20001   4.422  10.163   4.336  0.8230  2.3396  0.2370
  152MOL0     H20002   4.413  10.143   4.159  2.8660 -3.6151  2.3174
  152MOL0     H20003   4.187  10.205   4.352 -0.5113 -2.1139 -0.5923
  152MOL0     H20004   4.230  10.046   4.289  1.3342 -0.1534  1.4184
  152MOL0     H20005   4.165  10.106   4.066 -0.8113 -0.5252  0.3076
  152MOL0     H20006   4.150  10.275   4.113  1.0272 -0.1379 -0.8781
  152MOL0     H20007   3.969  10.044   4.200 -0.1081  0.1258  0.1724
  152MOL0     H20008   3.950  10.218   4.265  3.0563  1.9365  0.1379
  152MOL0     H20009   3.923  10.288   4.021  3.3347 -1.5351 -1.0150
  152MOL0     H20010   3.798  10.205   4.095  0.1869  4.5591 -1.1634
  152MOL0     H20011   4.016  10.050   3.919  0.1360 -1.8835 -0.4000
  152MOL0     H20012   3.882  10.122   3.833  3.2631 -1.8441 -2.2283
  152MOL0     H20013   3.830   9.937   4.064  2.9194  0.4471 -1.5432
  152MOL0     H20014   3.718   9.989   3.936  0.2664  0.0814 -4.1242
  152MOL0     H20015   3.795   9.756   3.909 -3.8094  2.6461  3.7801
  152MOL0     H20016   3.959   9.810   3.891 -1.1505 -3.0090 -1.2400
  152MOL0     H20017   3.608   9.828   3.742 -0.3138 -0.1249 -1.3199
  152MOL0     H20018   3.547   9.823   3.439 -2.5310  2.1957  2.6240
  152MOL0     H20019   3.668   9.908   3.351 -0.0394 -2.9983 -0.2929
  152MOL0     H20020   3.479  10.043   3.333  2.2063  0.0886 -0.8251
  152MOL0     H20021   3.552  10.125   3.477  2.9934 -1.1811  0.2779
  152MOL0     H20022   3.317   9.917   3.474  0.8865 -1.0554  1.0781
  152MOL0     H20023   3.412   9.956   3.617 -0.3768  0.2610 -0.6650
  152MOL0     H20024   3.228  10.133   3.451 -0.7333 -2.3880 -0.4052
  152MOL0     H20025   3.361  10.210   3.538  0.5580 -0.8585  0.2510
  152MOL0     H20026   3.207  10.365   3.557 -0.1831  1.3408  1.0381
  152MOL0     H20027   3.052  10.542   3.635 -0.8300  2.2314  3.6305
  152MOL0     H20028   2.976  10.902   3.890  0.0875  0.2196 -0.6865
  152MOL0     H20029   2.842  11.070   3.967  0.4932 -0.7670 -2.1906
  152MOL0     H20030   2.668  11.226   3.962  2.1228 -0.1343  1.6031
  152MOL0     H20031   2.680  11.187   4.131  0.1043  1.0293  0.8349
  152MOL0     H20032   2.526  11.385   4.066 -2.8471  0.6539  0.7313
  152MOL0     H20033   2.490  11.275   4.196 -0.9044  1.0038 -0.2293
  152MOL0     H20034   2.307  11.167   4.082  0.5001 -0.2541  0.5062
  152MOL0     H20035   2.370  11.199   3.927  2.0773  0.2605 -0.2498
  152MOL0     H20036   2.298  11.436   4.085  3.0587  0.1799  0.2104
  152MOL0     H20037   2.345  11.432   3.915  0.3646 -1.5324 -0.6514
  152MOL0     H20038   2.086  11.442   3.945  3.0962  1.9886 -0.9781
  152MOL0     H20039   2.107  11.275   4.020  5.3663 -2.0838  0.8444
  152MOL0     H20040   2.183  11.196   3.809  0.6398  0.8676  0.5839
  152MOL0     H20041   2.168  11.361   3.740 -1.4232 -0.7676 -1.4029
  152MOL0     H20042   1.942  11.170   3.839  0.4522  0.5255 -0.4393
  152MOL0     H20043   1.908  11.333   3.810 -1.4576 -0.2537  0.5204
  152MOL0     H20044   2.015  11.131   3.600 -1.3967 -1.0295 -0.8756
  152MOL0     H20045   1.960  11.300   3.563  0.4772 -0.0793  1.0840
  152MOL0     H20046   2.498  10.816   3.935  0.7774 -3.8398  0.2201
  152MOL0     H20047   2.632  10.648   3.832  2.0890 -1.1420  0.3687
  152MOL0     H20048   2.903  10.268   3.942  0.2183 -0.6806 -0.0205
  152MOL0     H20049   3.078  10.106   3.879  0.6723  0.3879  0.7130
  152MOL0     H20050   4.628  10.215   4.259  0.9059 -0.5557  3.9490
  152MOL0     H20051   4.831  10.332   4.282 -1.9201 -2.7387  0.0673
  152MOL0     H20052   5.130  10.573   4.643  3.4338 -2.4626 -1.6498
  152MOL0     H20053   5.283  10.754   4.662 -1.7178  4.5016  1.3825
  152MOL0     H20054   5.291  11.105   4.437  2.1648  1.8665  0.8428
  152MOL0     H20055   5.396  11.031   4.309 -2.5402  0.4522 -0.3032
  152MOL0     H20056   5.478  11.137   4.592 -0.7585 -0.3078 -0.2807
  152MOL0     H20057   5.587  11.087   4.460  0.8562  0.1853  2.0981
  152MOL0     H20058   5.578  11.327   4.495  0.4545 -1.1806 -0.1699
  152MOL0     H20059   5.409  11.324   4.441  0.2819  0.1687 -1.2109
  152MOL0     H20060   5.531  11.207   4.219 -1.6932 -0.6716  0.4034
  152MOL0     H20061   5.531  11.381   4.258  0.9482  0.1885  0.1550
  152MOL0     H20062   5.941  11.269   4.296  0.1371  0.9944  1.1890
  152MOL0     H20063   5.196  10.898   4.266 -0.5482 -0.0087  0.3086
  152MOL0     H20064   5.000  10.747   4.267 -1.7314 -0.3817  1.8092
  153MOL0     O20065   0.504   7.386  10.132  0.2682  0.0230 -0.1982
  153MOL0     C20066   0.586   7.461  10.095  0.3529 -0.3898  0.0847
  153MOL0     O20067   0.580   7.594  10.107  0.3400  0.0281 -0.4001
  153MOL0     C20068   0.456   7.652  10.081  0.4767 -1.0298  0.0700
  153MOL0     C20069   0.466   7.756   9.988  0.4236  0.2736  0.1569
  153MOL0     C20070   0.353   7.839   9.970  0.2884 -0.4747  0.0887
  153MOL0     C20071   0.228   7.805  10.035  0.4965 -0.1399 -0.6976
  153MOL0     O20072   0.103   7.857  10.001 -0.3735  0.3343  0.0725
  153MOL0     C20073   0.087   7.907   9.869 -0.5844 -0.2622  0.4125
  153MOL0     C20074  -0.058   7.922   9.840 -0.8850 -0.1670 -0.1798
  153MOL0     C20075  -0.116   8.043   9.916  0.0067  0.2854 -0.1522
  153MOL0     C20076  -0.267   8.045   9.925 -0.6431 -0.6911 -0.1703
  153MOL0     C20077  -0.299   7.962  10.051 -0.2256 -0.2067  0.5901
  153MOL0     C20078  -0.449   7.949  10.058  0.3637 -0.3369 -0.8010
  153MOL0     C20079  -0.520   8.079  10.054  0.6860  0.5276 -0.2616
  153MOL0     C20080  -0.667   8.088  10.085  0.5423 -0.0191  0.7846
  153MOL0     N20081  -0.745   8.022   9.982  0.3616  0.3482  0.3604
  153MOL0     C20082  -0.792   8.089   9.874  0.1901 -0.7978 -0.0185
  153MOL0     C20083  -0.869   8.001   9.813 -0.3276  0.8236 -0.2684
  153MOL0     C20084  -0.952   8.004   9.689  0.2541  0.0516 -0.4396
  153MOL0     C20085  -1.096   8.049   9.711 -0.2339  0.1457 -0.8490
  153MOL0     C20086  -1.187   7.930   9.750 -0.4048  0.4844  0.2613
  153MOL0     C20087  -1.330   7.975   9.788 -0.2143  0.0185 -0.0613
  153MOL0     O20088  -1.394   7.867   9.852 -0.1888 -0.4548 -0.1239
  153MOL0     C20089  -1.522   7.885   9.903  0.1211 -0.5966  0.0838
  153MOL0     C20090  -1.575   7.787   9.984  0.0599 -0.1008 -0.6200
  153MOL0     C20091  -1.700   7.794  10.042  0.4838 -0.5218 -0.3529
  153MOL0     C20092  -1.777   7.908  10.011 -0.2775  0.2757 -0.4265
  153MOL0     C20093  -1.916   7.923  10.061  0.3843  0.2831 -0.4134
  153MOL0     O20094  -1.967   8.046  10.055 -0.4668 -0.3862  0.2552
  153MOL0     C20095  -2.090   8.080  10.091 -0.0947 -0.2659 -0.0821
  153MOL0     C20096  -2.145   8.171  10.000 -0.0617  0.5667 -0.5856
  153MOL0     C20097  -2.265   8.236  10.026  0.7848  0.4564  0.8009
  153MOL0     C20098  -2.346   8.188  10.137 -0.3106 -0.7640 -0.3974
  153MOL0     O20099  -2.463   8.254  10.166 -0.5629 -0.0051 -0.1664
  153MOL0     C20100  -2.571   8.195  10.245 -0.5550  0.0895  0.6694
  153MOL0     C20101  -2.697   8.272  10.221  0.2549 -0.2137  0.5569
  153MOL0     C20102  -2.806   8.223  10.314  0.6998 -0.2680  0.6329
  153MOL0     C20103  -2.929   8.313  10.282 -0.3996 -0.7418  0.6620
  153MOL0     C20104  -3.071   8.251  10.298  0.2304 -0.1253 -0.0907
  153MOL0     C20105  -3.177   8.344  10.228 -0.7679 -0.4449 -0.2312
  153MOL0     C20106  -3.316   8.317  10.269 -0.0117 -0.2290 -0.4793
  153MOL0     C20107  -3.418   8.377  10.173  0.3502  0.6485  0.3969
  153MOL0    Cl20108  -3.572   8.294  10.190 -0.1563 -0.0242  0.0396
  153MOL0     C20109  -2.289   8.109  10.229  1.0457 -0.3196  0.0815
  153MOL0     C20110  -2.166   8.048  10.205 -0.0540  0.2947 -0.5903
  153MOL0     O20111  -1.982   7.827  10.099 -0.4380 -0.1918  0.5350
  153MOL0     C20112  -1.724   8.006   9.926 -0.6004 -0.7150 -0.3099
  153MOL0     C20113  -1.597   8.000   9.872  0.4659  0.2947 -0.2437
  153MOL0     N20114  -0.850   7.876   9.877 -0.1742  0.9348 -0.0119
  153MOL0     N20115  -0.778   7.893   9.981 -0.4909  0.4124  0.5650
  153MOL0     C20116   0.228   7.700  10.125  0.1379  0.4938  0.1319
  153MOL0     C20117   0.342   7.631  10.153  0.3030 -0.3021  1.2352
  153MOL0     C20118   0.715   7.406  10.039  0.9098  0.3457 -0.3444
  153MOL0     C20119   0.723   7.275   9.988 -0.1829  0.4642 -0.0514
  153MOL0     C20120   0.852   7.220   9.949  0.2380 -0.6797  0.7673
  153MOL0     C20121   0.971   7.290   9.980  0.0884  0.4015  0.6246
  153MOL0     O20122   1.087   7.226   9.951  0.0396  0.0878  0.0719
  153MOL0     C20123   1.143   7.158  10.068  1.4124  0.3654  0.3865
  153MOL0     C20124   1.217   7.258  10.161 -0.7621  0.1711 -0.5614
  153MOL0     C20125   1.267   7.196  10.295  0.1478  0.2057 -0.1965
  153MOL0     C20126   1.418   7.180  10.294 -0.0096 -0.0431  0.2526
  153MOL0     C20127   1.481   7.093  10.393 -0.3749  1.0947  0.1803
  153MOL0     C20128   1.534   7.028  10.483 -0.6395 -0.2966  0.5685
  153MOL0     C20129   0.960   7.412  10.045 -0.1891 -0.8841  0.6017
  153MOL0     C20130   0.836   7.471  10.074  0.3001 -0.0773  1.1954
  153MOL0     H20131   0.550   7.776   9.922  0.1212  1.6639  0.1646
  153MOL0     H20132   0.345   7.906   9.884 -0.9205 -0.1770  0.4204
  153MOL0     H20133   0.133   7.833   9.804  0.8419 -0.8361  2.0155
  153MOL0     H20134   0.145   7.999   9.855  1.4389 -1.8149 -2.4523
  153MOL0     H20135  -0.110   7.827   9.852  0.2384 -0.8085 -0.3081
  153MOL0     H20136  -0.066   7.950   9.735  1.0702  1.2530 -0.0240
  153MOL0     H20137  -0.092   8.135   9.862 -2.2250  0.0196 -1.7184
  153MOL0     H20138  -0.068   8.043  10.015  0.2264 -1.7154 -0.2014
  153MOL0     H20139  -0.300   8.150   9.930 -4.9166 -1.6895 -2.3499
  153MOL0     H20140  -0.309   8.001   9.835 -1.4885  1.7304 -1.0537
  153MOL0     H20141  -0.254   8.015  10.136  0.4626  0.6731 -0.3090
  153MOL0     H20142  -0.255   7.862  10.046 -1.4485 -0.6967 -1.5974
  153MOL0     H20143  -0.478   7.891  10.146 -2.4441  1.6644 -0.2986
  153MOL0     H20144  -0.480   7.881   9.978  0.5085 -1.2548 -0.0995
  153MOL0     H20145  -0.471   8.143  10.128 -0.6022  1.1497  0.0815
  153MOL0     H20146  -0.508   8.133   9.960  0.4199 -1.2773 -1.3884
  153MOL0     H20147  -0.693   8.194  10.073 -3.6871 -1.1275 -1.9863
  153MOL0     H20148  -0.693   8.048  10.184 -1.8198 -1.4286 -0.3248
  153MOL0     H20149  -0.768   8.193   9.854  1.2049 -0.1151  3.8531
  153MOL0     H20150  -0.971   7.903   9.651  0.7989 -1.0059  1.9667
  153MOL0     H20151  -0.914   8.075   9.615 -0.1861  0.3204 -0.4073
  153MOL0     H20152  -1.125   8.106   9.622 -0.6546  1.5713  0.1557
  153MOL0     H20153  -1.108   8.108   9.802 -0.5575 -1.2151  0.0261
  153MOL0     H20154  -1.193   7.848   9.677  0.5283  0.4602  0.2029
  153MOL0     H20155  -1.141   7.881   9.835  1.3136 -0.2252 -1.0199
  153MOL0     H20156  -1.376   7.998   9.691 -1.9738  0.7148  0.8959
  153MOL0     H20157  -1.327   8.068   9.846 -1.9365 -0.5016  0.9345
  153MOL0     H20158  -1.512   7.701  10.003 -1.1164 -0.1098  4.3551
  153MOL0     H20159  -1.725   7.715  10.112  2.2416  0.9567  2.1156
  153MOL0     H20160  -2.081   8.199   9.917 -0.4882 -0.0132 -1.1196
  153MOL0     H20161  -2.309   8.316   9.969 -0.9695  0.3260  1.8994
  153MOL0     H20162  -2.549   8.209  10.351 -0.6292  1.8071  0.4847
  153MOL0     H20163  -2.590   8.090  10.222 -0.5656  0.2132  0.0762
  153MOL0     H20164  -2.724   8.274  10.115  1.5750  3.2123  0.1470
  153MOL0     H20165  -2.681   8.376  10.251  0.9603 -0.3413  0.6360
  153MOL0     H20166  -2.773   8.217  10.418  2.3271 -0.6098  0.1274
  153MOL0     H20167  -2.832   8.119  10.290 -2.5821  0.2972  1.3519
  153MOL0     H20168  -2.921   8.397  10.353 -1.2236 -2.9917  3.6133
  153MOL0     H20169  -2.925   8.346  10.178 -2.7444 -0.5705  0.5881
  153MOL0     H20170  -3.086   8.249  10.407  0.9729  2.6868  0.1569
  153MOL0     H20171  -3.083   8.151  10.256 -1.0301 -0.5755  1.2371
  153MOL0     H20172  -3.164   8.327  10.121  2.4224  1.2343 -0.2203
  153MOL0     H20173  -3.143   8.447  10.245  2.6592 -1.2935 -1.1354
  153MOL0     H20174  -3.327   8.210  10.253  0.1810 -0.1424 -1.2150
  153MOL0     H20175  -3.340   8.343  10.373 -1.1445 -1.7383 -0.3267
  153MOL0     H20176  -3.385   8.376  10.069  0.3900 -0.4127  0.4125
  153MOL0     H20177  -3.438   8.479  10.208  2.9869  1.2142  0.4711
  153MOL0     H20178  -2.323   8.083  10.329  2.4259 -1.6437  0.2513
  153MOL0     H20179  -2.128   7.977  10.278 -2.4629  0.2612  0.7138
  153MOL0     H20180  -1.792   8.089   9.911 -0.7454 -0.5174  1.3524
  153MOL0     H20181  -1.563   8.090   9.823  0.9289  2.3470  3.5347
  153MOL0     H20182   0.139   7.681  10.185  0.2900  1.3488  0.6495
  153MOL0     H20183   0.335   7.550  10.225  0.5099 -0.2112  1.3572
  153MOL0     H20184   0.634   7.213   9.984 -0.3355  0.1920  3.9022
  153MOL0     H20185   0.869   7.122   9.907  0.8913 -0.0202 -0.5778
  153MOL0     H20186   1.209   7.079  10.034 -1.0560 -1.4843 -0.4110
  153MOL0     H20187   1.057   7.112  10.119  1.5478  1.3640  1.5816
  153MOL0     H20188   1.306   7.299  10.112 -1.3103 -0.5774 -2.2684
  153MOL0     H20189   1.166   7.347  10.200  0.6449 -0.2772  2.6006
  153MOL0     H20190   1.224   7.099  10.320 -0.2274  0.1403 -1.0535
  153MOL0     H20191   1.236   7.260  10.377 -2.3709 -0.0337 -0.8994
  153MOL0     H20192   1.456   7.139  10.201 -2.7640 -1.4085 -0.3864
  153MOL0     H20193   1.467   7.277  10.301  0.1144 -0.1508  0.9746
  153MOL0     H20194   1.587   6.973  10.557  2.6848  0.3861 -1.0910
  153MOL0     H20195   1.051   7.468  10.064 -0.5753 -0.3216  0.8106
  153MOL0     H20196   0.829   7.574  10.108  2.7395  0.7671 -0.5748
  154MOL0     O20197   9.637   3.266   4.827 -0.5004 -0.1328 -0.5847
  154MOL0     C20198   9.535   3.266   4.765 -0.7973  0.3606 -0.4795
  154MOL0     O20199   9.510   3.175   4.670  0.4391 -0.8342  0.7599
  154MOL0     C20200   9.618   3.099   4.626 -0.3808  0.1011 -1.4712
  154MOL0     C20201   9.622   2.970   4.682 -0.3950  0.4063  0.2578
  154MOL0     C20202   9.723   2.886   4.637 -0.0480  0.7110 -0.1288
  154MOL0     C20203   9.811   2.931   4.538 -0.1818  0.0115  0.7794
  154MOL0     O20204   9.907   2.839   4.496  0.0672 -0.6281 -0.0785
  154MOL0     C20205  10.005   2.882   4.400 -0.0295 -0.4533  0.0632
  154MOL0     C20206  10.085   2.759   4.361  0.2157 -0.1284 -0.6596
  154MOL0     C20207  10.205   2.735   4.460 -0.3215 -0.4448 -0.0471
  154MOL0     C20208  10.240   2.590   4.455 -0.2269  0.4620  0.2902
  154MOL0     C20209  10.362   2.549   4.551 -0.0261  0.0057 -0.1614
  154MOL0     C20210  10.408   2.409   4.517 -0.2179  0.4423 -0.0334
  154MOL0     C20211  10.545   2.360   4.587  0.7961  0.5137  0.2653
  154MOL0     C20212  10.554   2.211   4.566 -0.7448 -0.0538 -0.3539
  154MOL0     N20213  10.462   2.139   4.657  0.0156 -0.5230 -1.2127
  154MOL0     C20214  10.348   2.072   4.620  0.2274 -0.0502  0.5305
  154MOL0     C20215  10.299   2.020   4.735 -0.1856  0.2685  0.2702
  154MOL0     C20216  10.171   1.923   4.756  0.1807  0.3342  0.2598
  154MOL0     C20217  10.038   1.995   4.732 -0.3560  0.2017 -0.1698
  154MOL0     C20218  10.013   2.049   4.588  0.8177  0.5757 -0.4589
  154MOL0     C20219   9.857   2.048   4.558 -0.6408 -1.3511 -1.0219
  154MOL0     O20220   9.804   2.174   4.598  0.6750  0.1114  0.4464
  154MOL0     C20221   9.667   2.184   4.623  0.4717 -0.3823 -0.1386
  154MOL0     C20222   9.570   2.082   4.599 -0.5941  0.7002  0.4518
  154MOL0     C20223   9.440   2.096   4.630  0.1213  0.3678 -1.1543
  154MOL0     C20224   9.397   2.214   4.688  0.0940  0.0185  0.2130
  154MOL0     C20225   9.257   2.237   4.713 -0.8868  0.1752  0.7367
  154MOL0     O20226   9.227   2.361   4.758 -0.0417 -0.1299 -0.2549
  154MOL0     C20227   9.092   2.388   4.771  0.3627  0.6186 -0.0419
  154MOL0     C20228   9.012   2.414   4.658  0.0516 -0.5554 -0.2157
  154MOL0     C20229   8.887   2.471   4.693 -0.0015 -0.4106 -0.5537
  154MOL0     C20230   8.842   2.489   4.827 -0.3559  0.1199  0.3155
  154MOL0     O20231   8.719   2.542   4.860  0.4646 -0.2782  0.1454
  154MOL0     C20232   8.602   2.508   4.782 -0.6135  0.1307  0.5993
  154MOL0     C20233   8.475   2.538   4.862 -0.2880 -0.1993 -0.8552
  154MOL0     C20234   8.481   2.685   4.903 -0.9139  0.7428 -0.3238
  154MOL0     C20235   8.342   2.730   4.952  0.9561  0.5787  0.1981
  154MOL0     C20236   8.338   2.888   4.959 -0.0007  0.4584 -0.2798
  154MOL0     C20237   8.201   2.921   5.006  0.0726 -0.4757  0.0974
  154MOL0     C20238   8.189   3.080   5.012 -0.7532  0.2387 -0.5232
  154MOL0     C20239   8.158   3.138   4.882  0.3769 -0.2116  0.4165
  154MOL0    Cl20240   8.122   3.316   4.885  0.0030 -0.1892  0.2252
  154MOL0     C20241   8.919   2.455   4.927 -0.4403 -0.0223 -0.0841
  154MOL0     C20242   9.055   2.413   4.907 -0.4022 -0.2799  0.9308
  154MOL0     O20243   9.183   2.143   4.701  0.1488 -0.1902 -0.1446
  154MOL0     C20244   9.496   2.315   4.702  0.9452  0.7730  0.2000
  154MOL0     C20245   9.630   2.304   4.674  0.6051  0.6573  0.0037
  154MOL0     N20246  10.384   2.064   4.842  0.1043 -0.0113 -0.0695
  154MOL0     N20247  10.483   2.126   4.791 -0.0543 -0.0706  0.1260
  154MOL0     C20248   9.805   3.064   4.486  0.3126 -0.5485  0.2628
  154MOL0     C20249   9.703   3.145   4.528  0.4762 -0.3236 -0.6437
  154MOL0     C20250   9.426   3.361   4.781  0.0850 -0.0962 -0.8865
  154MOL0     C20251   9.297   3.345   4.728  0.2100 -0.0619 -0.4451
  154MOL0     C20252   9.194   3.429   4.764  0.0559 -0.7812 -0.3768
  154MOL0     C20253   9.210   3.537   4.852  0.6475  0.5840 -0.2640
  154MOL0     O20254   9.090   3.601   4.896  0.2132  0.4070 -0.3338
  154MOL0     C20255   9.093   3.713   4.994  0.4536  0.6314 -0.7338
  154MOL0     C20256   9.102   3.848   4.925  0.2308 -0.3567 -0.3371
  154MOL0     C20257   8.987   3.874   4.829 -0.1865  0.4228  0.5287
  154MOL0     C20258   8.870   3.961   4.876  0.6208  0.1058 -0.0126
  154MOL0     C20259   8.773   3.970   4.768 -0.7519 -0.0291  0.0056
  154MOL0     C20260   8.689   3.987   4.684 -0.4568 -0.2031 -0.8503
  154MOL0     C20261   9.339   3.560   4.899 -0.3216 -0.2978  0.9696
  154MOL0     C20262   9.445   3.472   4.871 -0.4922  0.0093 -0.1272
  154MOL0     H20263   9.557   2.928   4.758  0.1171 -0.6818  0.1147
  154MOL0     H20264   9.743   2.789   4.681  0.7543  0.6333 -0.6326
  154MOL0     H20265  10.069   2.957   4.448  1.1033 -0.8803 -0.7339
  154MOL0     H20266   9.960   2.927   4.311  3.9932  2.6711 -0.7277
  154MOL0     H20267  10.132   2.777   4.264 -1.2014  1.9787 -1.0196
  154MOL0     H20268  10.018   2.673   4.353 -0.4967  0.4305 -0.7556
  154MOL0     H20269  10.178   2.745   4.566 -0.9967 -0.1920 -0.2380
  154MOL0     H20270  10.291   2.800   4.447  0.2786 -0.7025  2.2589
  154MOL0     H20271  10.152   2.526   4.469 -1.2071  1.8835  1.0271
  154MOL0     H20272  10.279   2.570   4.355 -1.8826 -1.9877  0.0570
  154MOL0     H20273  10.341   2.555   4.658  0.3219  1.9803 -0.1797
  154MOL0     H20274  10.452   2.608   4.534  0.4248 -1.1448 -2.1403
  154MOL0     H20275  10.430   2.407   4.410 -0.5008 -1.0769 -0.0809
  154MOL0     H20276  10.329   2.336   4.539  0.2658  0.3368  1.5068
  154MOL0     H20277  10.625   2.415   4.536 -1.2385  0.8220 -2.8915
  154MOL0     H20278  10.547   2.395   4.690  0.5346  1.4162 -0.0240
  154MOL0     H20279  10.657   2.190   4.595 -0.5387 -0.2887 -1.2348
  154MOL0     H20280  10.545   2.187   4.460  0.9874 -0.2428 -0.4857
  154MOL0     H20281  10.312   2.056   4.519  0.4991 -2.1561  0.7329
  154MOL0     H20282  10.170   1.885   4.859 -1.4196  0.3535  0.2867
  154MOL0     H20283  10.189   1.837   4.691  1.0594  0.2512  0.5931
  154MOL0     H20284  10.026   2.077   4.804  1.5263 -1.8610  2.7092
  154MOL0     H20285   9.961   1.923   4.761 -0.7697  1.3378  1.7764
  154MOL0     H20286  10.065   2.143   4.566 -0.0561  0.8073 -1.6422
  154MOL0     H20287  10.054   1.973   4.519 -2.3688  0.6930 -2.7030
  154MOL0     H20288   9.814   1.962   4.611 -0.5029 -1.0936 -0.4903
  154MOL0     H20289   9.851   2.027   4.451 -0.4245 -1.3740 -1.0291
  154MOL0     H20290   9.599   1.980   4.576 -1.8427  0.6041 -0.7878
  154MOL0     H20291   9.371   2.013   4.623  0.8811 -0.2841 -0.9434
  154MOL0     H20292   9.036   2.387   4.556 -0.6488 -1.3260 -0.1833
  154MOL0     H20293   8.815   2.505   4.620  1.3459 -0.1357 -1.7919
  154MOL0     H20294   8.596   2.402   4.756 -1.7024  0.3154  0.0691
  154MOL0     H20295   8.602   2.560   4.686 -1.4126 -1.5497 -0.3434
  154MOL0     H20296   8.471   2.472   4.950 -0.4284  1.0971  0.1420
  154MOL0     H20297   8.384   2.517   4.804 -3.0846  1.5687  2.4589
  154MOL0     H20298   8.501   2.745   4.814  0.8949  2.2424  1.0110
  154MOL0     H20299   8.558   2.719   4.974  2.7126 -0.8118 -3.1641
  154MOL0     H20300   8.265   2.694   4.883  2.6671  0.1944 -1.6191
  154MOL0     H20301   8.332   2.692   5.054 -1.3092 -0.6982 -0.4250
  154MOL0     H20302   8.362   2.923   4.858  0.2312  0.7728 -0.1166
  154MOL0     H20303   8.407   2.922   5.037  1.3745  1.5408 -1.8918
  154MOL0     H20304   8.174   2.875   5.102  1.9826 -0.3994  0.7186
  154MOL0     H20305   8.137   2.884   4.926  2.5297  0.1685 -2.3410
  154MOL0     H20306   8.119   3.093   5.095 -0.4850 -1.9111  0.1053
  154MOL0     H20307   8.280   3.122   5.057 -0.5436 -1.4728  0.7774
  154MOL0     H20308   8.064   3.095   4.846 -0.5178 -0.5662  2.9448
  154MOL0     H20309   8.229   3.119   4.801 -1.1423  3.2136 -1.9631
  154MOL0     H20310   8.885   2.466   5.029  1.1887  2.8491  0.2724
  154MOL0     H20311   9.127   2.398   4.987  0.7417 -1.1847 -0.2092
  154MOL0     H20312   9.475   2.413   4.745  1.3543  0.5267  0.9712
  154MOL0     H20313   9.693   2.387   4.704  0.4956  1.5856 -2.1623
  154MOL0     H20314   9.865   3.101   4.403 -0.7236  2.0124  0.5777
  154MOL0     H20315   9.680   3.240   4.481  2.4789  0.2826 -0.4834
  154MOL0     H20316   9.272   3.254   4.673 -0.1067 -0.4020  0.2498
  154MOL0     H20317   9.093   3.420   4.725  0.2368  3.2457 -2.2923
  154MOL0     H20318   9.172   3.694   5.067 -0.9702  2.4003  1.3726
  154MOL0     H20319   9.004   3.710   5.057  0.5444  1.7256 -0.5313
  154MOL0     H20320   9.103   3.924   5.003  0.8417 -0.2636 -0.4269
  154MOL0     H20321   9.205   3.847   4.888  1.3355  2.7619  2.1492
  154MOL0     H20322   8.954   3.778   4.787  1.3947 -0.4844  1.2419
  154MOL0     H20323   9.026   3.929   4.742 -0.7966  3.6393  2.1734
  154MOL0     H20324   8.827   3.918   4.967 -0.9439 -1.8425 -1.5627
  154MOL0     H20325   8.905   4.063   4.895 -2.1477  1.4460 -1.4235
  154MOL0     H20326   8.602   4.007   4.624  0.2295 -2.1979 -2.6687
  154MOL0     H20327   9.366   3.622   4.984  0.5064  0.8630 -0.1101
  154MOL0     H20328   9.540   3.494   4.918 -0.7423  0.8934 -0.0205
  155MOL0     O20329   4.018   2.028  10.863  0.0638 -0.3465  0.5318
  155MOL0     C20330   4.058   2.114  10.791  0.7178 -0.5057  0.0013
  155MOL0     O20331   3.979   2.203  10.724 -0.3584  0.3692  0.0653
  155MOL0     C20332   3.843   2.183  10.718 -0.3477  0.2411 -0.4247
  155MOL0     C20333   3.764   2.154  10.830  0.7025 -0.0788  0.2669
  155MOL0     C20334   3.622   2.152  10.809  0.2910  0.4721  0.6427
  155MOL0     C20335   3.563   2.175  10.684 -0.1283 -0.8617  0.3226
  155MOL0     O20336   3.428   2.210  10.677  0.0612 -0.1102 -0.5209
  155MOL0     C20337   3.338   2.121  10.745 -0.3515 -0.4568  0.7588
  155MOL0     C20338   3.187   2.144  10.717  0.2691 -0.5776  0.5529
  155MOL0     C20339   3.162   2.100  10.574  0.1581  0.6919  0.4671
  155MOL0     C20340   3.012   2.126  10.543  0.3539 -0.3035 -0.1960
  155MOL0     C20341   2.919   2.027  10.595 -0.5623  0.1431 -0.1324
  155MOL0     C20342   2.792   2.082  10.648  0.8845  0.6379 -0.1502
  155MOL0     C20343   2.698   2.153  10.554 -0.0206  0.4534 -0.6499
  155MOL0     C20344   2.627   2.051  10.462  1.4334 -0.3716 -0.2980
  155MOL0     N20345   2.562   2.123  10.355 -0.5857  0.0954 -0.4216
  155MOL0     C20346   2.447   2.187  10.353 -0.0988 -0.0761 -0.2749
  155MOL0     C20347   2.427   2.234  10.229 -0.2815  0.3825 -0.4571
  155MOL0     C20348   2.305   2.297  10.169  0.2141 -0.5157  0.2184
  155MOL0     C20349   2.174   2.252  10.235 -0.4933 -0.2685  0.3393
  155MOL0     C20350   2.059   2.259  10.135 -0.8395 -0.9709  0.3057
  155MOL0     C20351   1.983   2.395  10.156 -0.3983 -0.1005  0.7729
  155MOL0     O20352   1.877   2.398  10.054  0.3522 -0.6607  0.9284
  155MOL0     C20353   1.753   2.358  10.098  1.0336 -0.0757 -0.0455
  155MOL0     C20354   1.714   2.227  10.052  0.4417  0.2725 -0.1934
  155MOL0     C20355   1.582   2.189  10.055 -0.4382  0.1653 -0.6934
  155MOL0     C20356   1.489   2.268  10.134  0.2210  1.1144 -0.7510
  155MOL0     C20357   1.353   2.207  10.153 -0.2643  0.2057 -0.3732
  155MOL0     O20358   1.270   2.282  10.233  0.1486 -0.6708  0.3700
  155MOL0     C20359   1.171   2.215  10.294 -0.1959  0.5131 -1.2850
  155MOL0     C20360   1.042   2.236  10.244  0.8642 -0.9350  0.1310
  155MOL0     C20361   0.937   2.160  10.301 -0.2501 -0.8349 -0.4462
  155MOL0     C20362   0.954   2.085  10.416  0.5923  0.8857 -0.2704
  155MOL0     O20363   0.856   2.006  10.485  0.2439  0.1908  0.7262
  155MOL0     C20364   0.715   2.048  10.467  0.0499 -0.1883  0.0420
  155MOL0     C20365   0.635   1.984  10.577  0.4297  0.6065 -0.0902
  155MOL0     C20366   0.497   2.044  10.586 -0.9226  0.6462  0.6661
  155MOL0     C20367   0.428   1.953  10.687 -0.5546 -0.6593 -0.7330
  155MOL0     C20368   0.289   1.985  10.699 -0.6262  0.0249 -0.1105
  155MOL0     C20369   0.228   1.903  10.815 -0.1621 -0.4980  0.3932
  155MOL0     C20370   0.082   1.931  10.834 -0.4866  0.1381 -0.5547
  155MOL0     C20371   0.013   1.833  10.929 -0.0384  0.0483 -0.4801
  155MOL0    Cl20372   0.071   1.862  11.098 -0.7138 -0.2241 -0.1584
  155MOL0     C20373   1.080   2.080  10.469 -0.8091  0.9483  0.0680
  155MOL0     C20374   1.194   2.139  10.411  0.0517 -0.0326  0.0314
  155MOL0     O20375   1.315   2.118  10.081  0.3439 -0.0659  0.7159
  155MOL0     C20376   1.531   2.379  10.197  0.5220  0.5529  0.7385
  155MOL0     C20377   1.653   2.431  10.170 -0.8086  0.4792  0.2542
  155MOL0     N20378   2.541   2.210  10.159 -0.2172  0.0402  0.2530
  155MOL0     N20379   2.624   2.145  10.236 -0.0074  0.6048 -0.7581
  155MOL0     C20380   3.644   2.206  10.577  0.8640  0.1596 -0.3387
  155MOL0     C20381   3.782   2.207  10.592  0.3386 -0.1214  0.1518
  155MOL0     C20382   4.204   2.126  10.780  0.1372  0.2236  0.2475
  155MOL0     C20383   4.261   2.237  10.714  0.4136  0.0285  0.1894
  155MOL0     C20384   4.398   2.252  10.707  0.2238 -0.1786  0.9168
  155MOL0     C20385   4.489   2.160  10.757  0.1285 -0.6238  0.6887
  155MOL0     O20386   4.628   2.167  10.723  0.0223  0.0550 -0.1083
  155MOL0     C20387   4.691   2.041  10.715 -0.0978  0.5102 -1.0260
  155MOL0     C20388   4.827   2.057  10.647  0.5966 -0.3898 -0.1990
  155MOL0     C20389   4.807   2.082  10.494 -0.2246  0.0165  0.7776
  155MOL0     C20390   4.946   2.080  10.430 -0.9366 -0.2468  0.3195
  155MOL0     C20391   4.991   1.941  10.403  0.0298  0.1260 -0.3816
  155MOL0     C20392   5.045   1.833  10.378 -0.4580  0.1997  0.8117
  155MOL0     C20393   4.435   2.051  10.816 -0.0348  0.7637 -0.7280
  155MOL0     C20394   4.295   2.034  10.838  0.5651 -0.1420  0.6984
  155MOL0     H20395   3.814   2.135  10.925  4.4780 -0.7800 -1.6776
  155MOL0     H20396   3.553   2.138  10.892  0.2088  2.7377  1.0071
  155MOL0     H20397   3.342   2.124  10.854 -1.1577 -2.6841  0.9026
  155MOL0     H20398   3.362   2.020  10.710  2.3328 -0.9600  3.6535
  155MOL0     H20399   3.160   2.250  10.716 -0.3347 -0.7257 -0.4861
  155MOL0     H20400   3.123   2.096  10.792  1.9931 -1.4955  1.4804
  155MOL0     H20401   3.178   1.993  10.563 -1.6280  0.5451 -1.2146
  155MOL0     H20402   3.231   2.151  10.506 -0.6434  1.3087  0.0944
  155MOL0     H20403   2.985   2.229  10.569 -1.1239 -0.6641 -0.2512
  155MOL0     H20404   3.007   2.123  10.433 -1.3770 -2.5033 -0.1139
  155MOL0     H20405   2.965   1.969  10.676  1.1247 -1.3851 -2.0796
  155MOL0     H20406   2.905   1.956  10.513 -1.2797 -0.5867  0.5916
  155MOL0     H20407   2.823   2.148  10.730  1.0492 -0.2355  0.5003
  155MOL0     H20408   2.733   1.996  10.679 -1.1074  2.5724  1.7881
  155MOL0     H20409   2.620   2.192  10.620 -1.5248 -3.6192  0.3032
  155MOL0     H20410   2.748   2.235  10.502  0.2371 -0.3998 -1.8053
  155MOL0     H20411   2.549   1.990  10.509  0.0030 -0.6004 -2.7907
  155MOL0     H20412   2.700   1.991  10.407  1.7163 -0.9426  0.6674
  155MOL0     H20413   2.367   2.192  10.426  2.1493 -1.3153  2.4624
  155MOL0     H20414   2.316   2.273  10.063 -0.3569 -3.5113  0.7382
  155MOL0     H20415   2.306   2.406  10.172 -1.9979 -0.4791  1.6861
  155MOL0     H20416   2.161   2.322  10.317  1.2874  1.3123 -0.6704
  155MOL0     H20417   2.176   2.152  10.279  2.1583 -0.6734 -0.5311
  155MOL0     H20418   2.087   2.259  10.029  2.1073 -0.0345  0.9777
  155MOL0     H20419   1.986   2.183  10.162 -1.0546  0.2598  3.6526
  155MOL0     H20420   2.052   2.480  10.147 -0.7328  0.2300  1.3205
  155MOL0     H20421   1.951   2.408  10.259 -1.5679  1.4556  0.2448
  155MOL0     H20422   1.782   2.161  10.000 -1.9238 -1.2302 -1.5685
  155MOL0     H20423   1.548   2.093  10.016 -1.5468  0.6544 -0.9684
  155MOL0     H20424   1.033   2.311  10.165  2.1840  0.2398  1.0549
  155MOL0     H20425   0.841   2.172  10.250  0.1204  1.3110 -0.7379
  155MOL0     H20426   0.689   2.009  10.368 -0.3040 -0.4210  0.2219
  155MOL0     H20427   0.708   2.157  10.475  1.7923 -0.2170  4.1580
  155MOL0     H20428   0.689   2.002  10.670  1.4396 -0.9067 -0.3411
  155MOL0     H20429   0.630   1.877  10.553  2.4989 -0.5387  3.6983
  155MOL0     H20430   0.449   2.021  10.490 -2.4435 -1.8308  1.9097
  155MOL0     H20431   0.491   2.148  10.618  0.1486  0.9602 -0.0984
  155MOL0     H20432   0.443   1.847  10.663 -2.4789 -0.6816 -2.1106
  155MOL0     H20433   0.482   1.961  10.781 -4.6330 -0.2740  1.8049
  155MOL0     H20434   0.240   1.951  10.607  1.1781 -3.3332  0.0185
  155MOL0     H20435   0.285   2.094  10.708  1.6215  0.1297  0.0272
  155MOL0     H20436   0.266   1.932  10.913 -3.9967  1.0790  1.6149
  155MOL0     H20437   0.234   1.797  10.791 -0.1716 -0.4823  0.3224
  155MOL0     H20438   0.066   2.035  10.863 -1.5736  0.0429 -0.7547
  155MOL0     H20439   0.033   1.909  10.738 -0.6480 -0.8481 -0.2540
  155MOL0     H20440   0.034   1.731  10.896 -3.0371  0.0034 -2.6660
  155MOL0     H20441  -0.097   1.838  10.927 -0.1222 -1.4802 -0.8582
  155MOL0     H20442   1.106   2.010  10.549 -0.3728  1.1702  0.1261
  155MOL0     H20443   1.291   2.118  10.455 -0.4384 -0.4992  0.9277
  155MOL0     H20444   1.454   2.444  10.237 -2.3854 -2.2058 -0.0850
  155MOL0     H20445   1.674   2.534  10.197 -0.9165  0.5149  0.2013
  155MOL0     H20446   3.588   2.222  10.485 -0.3301 -0.5825  0.2284
  155MOL0     H20447   3.845   2.234  10.508  3.5761 -2.8901  1.4481
  155MOL0     H20448   4.195   2.308  10.666  2.5867  2.4732  0.5652
  155MOL0     H20449   4.426   2.340  10.650 -1.3581  0.1278  0.5729
  155MOL0     H20450   4.626   1.967  10.668 -0.4769 -0.8901  1.5112
  155MOL0     H20451   4.700   1.998  10.815 -1.1868 -3.9179 -2.6145
  155MOL0     H20452   4.891   2.130  10.699 -0.2971 -1.3336  2.4117
  155MOL0     H20453   4.890   1.968  10.660  1.5115  0.2955  0.2677
  155MOL0     H20454   4.764   2.182  10.479 -0.0670 -0.3425 -2.6829
  155MOL0     H20455   4.739   2.012  10.445  1.4157 -0.1054 -1.4814
  155MOL0     H20456   4.962   2.137  10.338  0.1331  2.0493  1.8273
  155MOL0     H20457   5.018   2.132  10.494  0.8021 -3.0871  0.8341
  155MOL0     H20458   5.093   1.747  10.336 -1.4110 -0.2394  0.6026
  155MOL0     H20459   4.500   1.966  10.833 -2.6758 -2.8024 -5.6912
  155MOL0     H20460   4.261   1.949  10.897 -0.6673  0.1683  0.4665
  156MOL0     O20461   1.474   1.282   5.456  0.0620 -0.1963 -0.6152
  156MOL0     C20462   1.485   1.404   5.481 -0.9197  0.0893 -0.9113
  156MOL0     O20463   1.602   1.471   5.486 -0.0744 -0.6014  0.7079
  156MOL0     C20464   1.712   1.398   5.446 -0.3219  0.3906 -0.0722
  156MOL0     C20465   1.819   1.359   5.527 -0.0706 -0.7435 -0.4466
  156MOL0     C20466   1.925   1.289   5.487 -0.1818  0.4287 -0.2607
  156MOL0     C20467   1.941   1.258   5.353  0.2010 -1.2074  0.3105
  156MOL0     O20468   2.029   1.170   5.313 -0.3099 -0.2367 -0.1813
  156MOL0     C20469   2.095   1.189   5.188  0.3735  0.3565  0.1528
  156MOL0     C20470   2.233   1.250   5.208  0.5848  0.0621 -0.0051
  156MOL0     C20471   2.333   1.161   5.278 -0.2773  0.2948 -0.0189
  156MOL0     C20472   2.359   1.215   5.415  0.3621 -1.1667 -0.7186
  156MOL0     C20473   2.438   1.125   5.509  0.3372  0.4222 -0.9725
  156MOL0     C20474   2.569   1.064   5.456  0.6894 -0.4545 -0.2970
  156MOL0     C20475   2.637   0.980   5.566  0.6475 -0.3001  0.2245
  156MOL0     C20476   2.674   1.063   5.690  0.0727  1.2337  0.4579
  156MOL0     N20477   2.808   1.028   5.731  0.1913 -0.4690  0.7120
  156MOL0     C20478   2.922   1.089   5.687  0.0350  0.1312  0.0220
  156MOL0     C20479   3.027   1.019   5.745  0.1997 -0.3817 -0.8445
  156MOL0     C20480   3.180   1.050   5.735  0.5623 -0.2200  0.1744
  156MOL0     C20481   3.249   1.123   5.851  0.1586 -0.1363  0.8737
  156MOL0     C20482   3.300   1.265   5.820  0.6441 -0.2875  0.5260
  156MOL0     C20483   3.189   1.365   5.781 -0.0494  0.0328 -0.4139
  156MOL0     O20484   3.133   1.343   5.648  0.1668 -0.0101  0.0925
  156MOL0     C20485   3.027   1.421   5.615  1.1997  0.3588 -0.4953
  156MOL0     C20486   2.981   1.531   5.686 -0.3708  0.6351 -0.5295
  156MOL0     C20487   2.882   1.611   5.630  0.3751  1.0748 -0.3326
  156MOL0     C20488   2.816   1.583   5.515  0.7459  0.2293  0.2035
  156MOL0     C20489   2.702   1.656   5.478 -0.0092 -0.3551  0.2621
  156MOL0     O20490   2.650   1.747   5.563  0.3877  0.5083 -0.6202
  156MOL0     C20491   2.591   1.855   5.518 -0.2417 -0.3401  0.8861
  156MOL0     C20492   2.454   1.862   5.477  0.2940 -0.3766 -0.1990
  156MOL0     C20493   2.404   1.981   5.425 -0.6644 -0.8190 -0.0772
  156MOL0     C20494   2.489   2.094   5.410 -0.3013 -0.2624 -0.6441
  156MOL0     O20495   2.434   2.203   5.362  0.5230  0.0505  0.7379
  156MOL0     C20496   2.500   2.329   5.372 -0.7098  0.8701 -1.0627
  156MOL0     C20497   2.433   2.436   5.280  0.2512 -0.9968 -0.1030
  156MOL0     C20498   2.289   2.477   5.311 -0.1198 -0.1560 -0.5592
  156MOL0     C20499   2.268   2.529   5.459 -1.0890  0.7486  0.6995
  156MOL0     C20500   2.115   2.557   5.477  0.3252 -0.1892  0.4275
  156MOL0     C20501   2.069   2.684   5.397 -0.6462  0.2142 -0.0265
  156MOL0     C20502   1.942   2.738   5.460 -0.0772 -0.4444  0.1326
  156MOL0     C20503   1.868   2.843   5.366 -0.4143  0.3014 -1.2400
  156MOL0    Cl20504   1.957   3.002   5.337 -0.2280  0.4838  0.5864
  156MOL0     C20505   2.623   2.081   5.456 -0.4907 -0.5103 -0.3712
  156MOL0     C20506   2.677   1.967   5.501  0.3693  0.6110  0.1626
  156MOL0     O20507   2.666   1.639   5.358  0.0146  0.0337 -0.5859
  156MOL0     C20508   2.857   1.471   5.443 -0.5733  0.2578  0.4127
  156MOL0     C20509   2.967   1.391   5.492 -0.0228  0.4087  0.1366
  156MOL0     N20510   2.977   0.920   5.821  0.5637 -0.7757  0.1945
  156MOL0     N20511   2.848   0.938   5.814  0.2573 -0.1820 -1.3228
  156MOL0     C20512   1.839   1.299   5.266  1.1021 -0.0213  0.0495
  156MOL0     C20513   1.723   1.363   5.307 -1.2668 -1.1350 -0.5350
  156MOL0     C20514   1.376   1.482   5.516 -0.1754 -0.5797 -0.2892
  156MOL0     C20515   1.271   1.434   5.596  0.2825  0.2010  0.5985
  156MOL0     C20516   1.156   1.495   5.640  1.5853 -0.9884 -0.1663
  156MOL0     C20517   1.138   1.629   5.607  0.3236  0.3990 -0.1217
  156MOL0     O20518   1.010   1.672   5.617  0.6657 -0.0505 -0.9997
  156MOL0     C20519   0.979   1.804   5.566  0.0519 -0.2560  0.4323
  156MOL0     C20520   0.857   1.853   5.638 -1.4785  0.1919  0.0407
  156MOL0     C20521   0.874   1.872   5.788  0.4826  0.2134  0.2233
  156MOL0     C20522   0.747   1.944   5.846  0.0203 -0.2575 -0.6795
  156MOL0     C20523   0.746   1.985   5.984  0.2529  0.2972 -0.8724
  156MOL0     C20524   0.747   2.030   6.095  0.3912  0.5188  0.2941
  156MOL0     C20525   1.242   1.689   5.526 -0.0006 -0.5338 -0.3095
  156MOL0     C20526   1.356   1.623   5.478  0.3365  0.1022 -0.1292
  156MOL0     H20527   1.815   1.385   5.632  1.7242 -0.0083 -0.5241
  156MOL0     H20528   2.005   1.251   5.550  2.8124  1.2836 -3.2597
  156MOL0     H20529   2.036   1.256   5.124 -2.2100 -1.7713  0.1134
  156MOL0     H20530   2.114   1.099   5.128 -0.2610 -0.5496  1.2694
  156MOL0     H20531   2.220   1.331   5.280  1.3365 -0.3098  0.5582
  156MOL0     H20532   2.276   1.294   5.118  1.1692  0.9186  0.6812
  156MOL0     H20533   2.427   1.158   5.222  0.3436  0.6781  0.9883
  156MOL0     H20534   2.300   1.057   5.285  1.0149 -0.0371  1.3994
  156MOL0     H20535   2.405   1.313   5.403 -0.7839 -0.5682 -0.3584
  156MOL0     H20536   2.263   1.241   5.460  1.3046 -0.1774  0.7954
  156MOL0     H20537   2.378   1.043   5.549  2.8751 -0.9557  0.2913
  156MOL0     H20538   2.461   1.198   5.587 -1.2886 -1.1357  1.1026
  156MOL0     H20539   2.629   1.148   5.421  1.4607 -0.8306  0.1020
  156MOL0     H20540   2.553   1.005   5.365 -0.0198  0.9538 -1.1237
  156MOL0     H20541   2.570   0.897   5.589 -0.8509  0.8292  0.1040
  156MOL0     H20542   2.733   0.934   5.539  0.1003 -2.3228  1.5017
  156MOL0     H20543   2.605   1.050   5.774  0.7905 -0.6061  0.8024
  156MOL0     H20544   2.694   1.168   5.664  1.9121  0.5563 -1.0349
  156MOL0     H20545   2.922   1.170   5.615 -3.5165 -0.3625 -0.7607
  156MOL0     H20546   3.198   1.114   5.648  1.5586  1.4673  1.5439
  156MOL0     H20547   3.240   0.960   5.717  1.5689  0.1887  1.3827
  156MOL0     H20548   3.335   1.060   5.876 -0.4019 -1.1671  0.2684
  156MOL0     H20549   3.181   1.132   5.936 -2.2462  2.8002 -1.1407
  156MOL0     H20550   3.343   1.295   5.916  2.5414 -1.4312  0.0828
  156MOL0     H20551   3.379   1.265   5.743  1.5668 -1.9732  1.4408
  156MOL0     H20552   3.241   1.461   5.782  0.6987 -0.3654  0.3851
  156MOL0     H20553   3.111   1.360   5.858 -0.4858  0.0867 -0.8430
  156MOL0     H20554   3.019   1.558   5.784 -0.4655 -0.1789 -0.2610
  156MOL0     H20555   2.845   1.702   5.676 -0.3456  0.5405  0.1496
  156MOL0     H20556   2.393   1.772   5.477  2.6383 -2.0604  0.8760
  156MOL0     H20557   2.300   1.971   5.395 -1.6933 -1.5059  3.3127
  156MOL0     H20558   2.599   2.317   5.329 -1.3750 -1.8203 -1.9982
  156MOL0     H20559   2.507   2.346   5.480 -0.2259 -4.7376  0.0608
  156MOL0     H20560   2.436   2.387   5.183  1.0343  1.5110 -1.4369
  156MOL0     H20561   2.489   2.528   5.264 -1.2967 -0.4620 -3.1167
  156MOL0     H20562   2.236   2.383   5.293  0.5176 -0.9155  1.2208
  156MOL0     H20563   2.254   2.553   5.241  0.4600 -0.6619 -1.4171
  156MOL0     H20564   2.300   2.458   5.536  0.1712 -0.6270 -1.0186
  156MOL0     H20565   2.329   2.619   5.465 -1.3505  0.8880  1.2962
  156MOL0     H20566   2.097   2.579   5.583 -1.7782 -0.8015  0.2325
  156MOL0     H20567   2.063   2.462   5.461  0.8117 -0.6881  1.6793
  156MOL0     H20568   2.081   2.670   5.289  0.5699  0.1246  0.1067
  156MOL0     H20569   2.131   2.768   5.430  2.4560 -1.4245 -1.2978
  156MOL0     H20570   1.879   2.650   5.474 -0.2067 -0.8217 -2.2981
  156MOL0     H20571   1.964   2.779   5.559  3.1012 -2.4302  0.4126
  156MOL0     H20572   1.772   2.878   5.405  0.7164  0.3252  1.7930
  156MOL0     H20573   1.849   2.793   5.270 -2.5664  0.0228 -0.7178
  156MOL0     H20574   2.701   2.156   5.443  1.5398 -2.8978 -3.3322
  156MOL0     H20575   2.782   1.976   5.530  0.6538  4.0974 -1.4323
  156MOL0     H20576   2.812   1.449   5.347 -1.2989 -2.4541  1.2817
  156MOL0     H20577   3.006   1.303   5.442  0.7241  1.0668 -0.4629
  156MOL0     H20578   1.838   1.278   5.159 -1.4014 -1.1004  0.2141
  156MOL0     H20579   1.652   1.398   5.233 -3.0430 -0.5300  1.3463
  156MOL0     H20580   1.284   1.331   5.627  3.6368  0.7280  1.4036
  156MOL0     H20581   1.080   1.443   5.699  2.3633 -2.0107 -0.0342
  156MOL0     H20582   0.948   1.792   5.461 -0.9940  1.5445  0.4800
  156MOL0     H20583   1.058   1.877   5.585 -0.5995  1.0822 -1.6312
  156MOL0     H20584   0.821   1.942   5.586 -0.4379  0.1919 -0.7149
  156MOL0     H20585   0.777   1.781   5.620  0.7764 -2.6773  0.7840
  156MOL0     H20586   0.964   1.934   5.792  0.0055  1.0828 -1.5324
  156MOL0     H20587   0.902   1.779   5.838  3.2295  2.1264  2.6003
  156MOL0     H20588   0.716   2.037   5.797 -3.7467  1.2346  3.7727
  156MOL0     H20589   0.661   1.876   5.840 -0.3660  0.2869 -1.4058
  156MOL0     H20590   0.759   2.048   6.200  2.8641 -1.3365  0.4189
  156MOL0     H20591   1.237   1.789   5.483 -0.8140 -0.7411 -0.7206
  156MOL0     H20592   1.427   1.663   5.406  0.7552  1.0255  0.7592
  157MOL0     O20593   6.619   4.880   3.352  0.0788  0.4981  0.2177
  157MOL0     C20594   6.722   4.879   3.422  1.0654  0.3432 -0.8116
  157MOL0     O20595   6.783   4.770   3.473  0.3039 -0.2740 -0.0779
  157MOL0     C20596   6.739   4.638   3.451  0.7313 -0.3455 -0.4525
  157MOL0     C20597   6.606   4.600   3.482  0.3158  0.1086 -0.7531
  157MOL0     C20598   6.567   4.472   3.472 -0.4722  0.2597  0.5779
  157MOL0     C20599   6.660   4.373   3.437 -0.4988 -0.0750 -0.3104
  157MOL0     O20600   6.632   4.241   3.423 -0.5402  0.2058 -0.1031
  157MOL0     C20601   6.513   4.182   3.452 -0.0050 -0.2546  0.1152
  157MOL0     C20602   6.455   4.146   3.318  0.4201 -0.2931  0.0997
  157MOL0     C20603   6.301   4.108   3.327 -0.1317 -0.9294 -0.0324
  157MOL0     C20604   6.216   4.237   3.364  0.1332 -0.4614  0.8130
  157MOL0     C20605   6.071   4.202   3.343  0.2150  0.0431  0.6911
  157MOL0     C20606   6.003   4.117   3.453 -0.0755 -0.2295 -0.1958
  157MOL0     C20607   5.853   4.097   3.411  0.1916  0.9317 -0.1279
  157MOL0     C20608   5.772   4.004   3.503 -0.8639 -0.0038 -1.1406
  157MOL0     N20609   5.656   3.948   3.433  0.3502  0.2795  0.2367
  157MOL0     C20610   5.674   3.849   3.340 -0.7393 -0.5175  0.4492
  157MOL0     C20611   5.554   3.830   3.284  0.2437  0.1684 -0.4825
  157MOL0     C20612   5.531   3.724   3.179 -0.3812 -0.3223 -0.4925
  157MOL0     C20613   5.412   3.640   3.220 -0.6733 -0.1499 -0.2901
  157MOL0     C20614   5.402   3.540   3.104  0.0443  0.7713  0.1967
  157MOL0     C20615   5.272   3.457   3.113  0.2879  0.2626  0.7568
  157MOL0     O20616   5.172   3.545   3.062  0.0777  0.1196 -0.3352
  157MOL0     C20617   5.041   3.501   3.081 -0.0312  0.6154 -0.1964
  157MOL0     C20618   5.000   3.382   3.137 -0.0963  0.5821  0.0365
  157MOL0     C20619   4.869   3.355   3.175  0.2930 -0.2334 -0.2043
  157MOL0     C20620   4.770   3.430   3.123 -0.3620 -0.0984 -0.2553
  157MOL0     C20621   4.633   3.382   3.136 -0.1582  0.7883  0.5157
  157MOL0     O20622   4.539   3.457   3.080  0.0751 -0.6842  0.4565
  157MOL0     C20623   4.405   3.417   3.075 -0.4601  0.9680  0.8313
  157MOL0     C20624   4.371   3.308   2.988  0.0540 -1.0781 -0.5890
  157MOL0     C20625   4.238   3.271   2.960 -1.0442  0.8413 -0.3672
  157MOL0     C20626   4.136   3.348   3.030 -0.0663  0.2192  1.1325
  157MOL0     O20627   4.012   3.305   3.009  0.3565 -0.4791  0.2021
  157MOL0     C20628   3.903   3.391   3.014 -1.4811  0.4862 -0.2833
  157MOL0     C20629   3.800   3.303   2.948  0.3879 -0.7129  0.7109
  157MOL0     C20630   3.657   3.373   2.946  0.5354  0.0992  0.7031
  157MOL0     C20631   3.541   3.273   2.909 -0.0804  0.1470  0.0667
  157MOL0     C20632   3.393   3.319   2.911  1.2844 -0.5561 -1.0967
  157MOL0     C20633   3.344   3.347   3.056  1.0055  1.4064  0.4165
  157MOL0     C20634   3.187   3.329   3.058 -0.2606 -0.6091  0.0980
  157MOL0     C20635   3.119   3.363   3.195  0.2350 -0.0480 -0.0363
  157MOL0    Cl20636   2.966   3.272   3.209 -0.2301  0.0841  0.2256
  157MOL0     C20637   4.173   3.456   3.110  0.1433  0.0134 -0.1803
  157MOL0     C20638   4.303   3.484   3.140  0.2735  0.0086  0.5847
  157MOL0     O20639   4.613   3.272   3.187  0.4251  0.3532 -0.8778
  157MOL0     C20640   4.804   3.553   3.060 -0.8584  0.0205  0.5273
  157MOL0     C20641   4.938   3.584   3.040  0.2693  0.2383 -0.3910
  157MOL0     N20642   5.461   3.917   3.346 -0.1017 -0.2413  0.2978
  157MOL0     N20643   5.534   3.999   3.419  0.9873  0.6056  0.3553
  157MOL0     C20644   6.796   4.406   3.415 -0.3961  0.2807  0.6408
  157MOL0     C20645   6.838   4.544   3.411  0.2719  0.2512  0.3089
  157MOL0     C20646   6.792   4.998   3.461  0.1320  0.8368 -0.3882
  157MOL0     C20647   6.879   5.002   3.572  0.8819 -0.5503 -0.2303
  157MOL0     C20648   6.930   5.127   3.620 -0.6863 -0.0928 -0.0432
  157MOL0     C20649   6.888   5.251   3.557 -0.1115  1.1564 -0.8270
  157MOL0     O20650   6.937   5.369   3.611 -0.1933 -0.5951  0.7765
  157MOL0     C20651   6.952   5.488   3.523  0.1355 -0.3335  0.3814
  157MOL0     C20652   7.061   5.589   3.574  0.9085  0.3544 -0.3700
  157MOL0     C20653   7.022   5.644   3.719 -0.3425  0.8996 -0.1638
  157MOL0     C20654   7.149   5.693   3.785  0.2755 -1.6230  0.2385
  157MOL0     C20655   7.113   5.752   3.909  0.1258  0.0951 -0.1977
  157MOL0     C20656   7.072   5.797   4.016  0.1682  0.5219  0.6637
  157MOL0     C20657   6.802   5.243   3.446 -0.5429  0.4186  0.1553
  157MOL0     C20658   6.762   5.117   3.393  0.1022  0.3484  0.0208
  157MOL0     H20659   6.532   4.676   3.508  2.6052  2.4809 -0.7539
  157MOL0     H20660   6.463   4.454   3.500  0.2838 -1.5759  2.5141
  157MOL0     H20661   6.457   4.239   3.527  3.2092  0.7116  1.9588
  157MOL0     H20662   6.534   4.084   3.494 -1.8694 -1.9940 -2.7062
  157MOL0     H20663   6.512   4.061   3.281 -0.4433 -2.5492  3.5018
  157MOL0     H20664   6.463   4.236   3.256 -1.8064  0.7556  1.1918
  157MOL0     H20665   6.291   4.020   3.392  0.1274 -1.1407 -0.2766
  157MOL0     H20666   6.264   4.068   3.232  0.9881 -1.4589 -0.2555
  157MOL0     H20667   6.226   4.275   3.466  0.3592 -2.6798  1.6780
  157MOL0     H20668   6.239   4.315   3.291  0.5077 -1.0748  0.2630
  157MOL0     H20669   6.053   4.149   3.250  2.0214 -0.4739  0.5907
  157MOL0     H20670   6.013   4.295   3.340  0.5946  0.2701  0.1727
  157MOL0     H20671   6.001   4.182   3.541  0.3904  1.4045 -1.3398
  157MOL0     H20672   6.061   4.028   3.479 -3.6420 -2.0905  2.4313
  157MOL0     H20673   5.808   4.196   3.418  2.1940  1.7647  2.3928
  157MOL0     H20674   5.849   4.064   3.306  1.1337  3.0064 -0.8816
  157MOL0     H20675   5.738   4.046   3.598  1.3678 -2.4758  0.9272
  157MOL0     H20676   5.832   3.918   3.537 -0.3873  0.0844 -1.7396
  157MOL0     H20677   5.773   3.804   3.333  0.0475  0.7685  2.2756
  157MOL0     H20678   5.618   3.658   3.167 -1.5157 -1.4266 -3.6904
  157MOL0     H20679   5.517   3.782   3.087  1.6907 -0.4047 -0.9173
  157MOL0     H20680   5.322   3.701   3.228  0.7009  2.2452 -1.9888
  157MOL0     H20681   5.433   3.587   3.314 -0.7144  1.0595  0.4182
  157MOL0     H20682   5.400   3.597   3.010 -1.9274 -1.1653 -1.0363
  157MOL0     H20683   5.486   3.470   3.106 -1.8713 -1.6509 -0.0844
  157MOL0     H20684   5.243   3.433   3.216 -0.3640 -0.4253  0.4231
  157MOL0     H20685   5.282   3.359   3.066  2.4534 -0.2450  2.0999
  157MOL0     H20686   5.074   3.310   3.168 -1.2346  0.1875  2.0016
  157MOL0     H20687   4.854   3.260   3.226 -0.4747  0.3883  0.7782
  157MOL0     H20688   4.454   3.255   2.942  0.0583 -0.7698 -0.9401
  157MOL0     H20689   4.218   3.185   2.898  0.7526 -1.8917  2.5740
  157MOL0     H20690   3.924   3.472   2.943 -0.0029 -0.6760 -1.2195
  157MOL0     H20691   3.880   3.427   3.115  0.9626 -0.4117  0.6585
  157MOL0     H20692   3.776   3.212   3.003 -2.7137 -0.9017 -0.7576
  157MOL0     H20693   3.831   3.284   2.845 -3.4595  0.7249 -0.9063
  157MOL0     H20694   3.648   3.462   2.883 -1.0488 -1.0840 -0.8603
  157MOL0     H20695   3.634   3.408   3.047  0.0206  0.2103  0.5489
  157MOL0     H20696   3.555   3.242   2.805 -0.9582 -0.1685  0.0336
  157MOL0     H20697   3.547   3.181   2.969  0.8997 -0.2731 -0.6452
  157MOL0     H20698   3.337   3.234   2.872  1.9002 -1.9783  0.9508
  157MOL0     H20699   3.379   3.408   2.849  2.8973 -1.9020 -3.5810
  157MOL0     H20700   3.384   3.444   3.085  3.8535  1.1620 -2.1970
  157MOL0     H20701   3.384   3.265   3.117 -0.0864 -1.3054 -2.2446
  157MOL0     H20702   3.143   3.396   2.984  0.9638  1.1932  0.9587
  157MOL0     H20703   3.165   3.223   3.041  2.6246 -1.3573  0.5749
  157MOL0     H20704   3.109   3.470   3.217  1.4699 -0.2847  1.9786
  157MOL0     H20705   3.183   3.342   3.282  2.5358 -0.3739 -1.7283
  157MOL0     H20706   4.102   3.527   3.152  1.2618  1.1540 -0.1567
  157MOL0     H20707   4.328   3.566   3.206  1.9670 -1.1254  1.4199
  157MOL0     H20708   4.729   3.615   3.013 -0.9272 -2.3497 -2.8335
  157MOL0     H20709   4.966   3.681   3.000 -0.2722  2.0157  3.0924
  157MOL0     H20710   6.861   4.328   3.374 -0.7891  1.1158 -1.7639
  157MOL0     H20711   6.936   4.585   3.389  0.6795  0.0631  1.6383
  157MOL0     H20712   6.911   4.909   3.617 -0.2174  0.1368  2.1649
  157MOL0     H20713   6.998   5.126   3.704  1.1272 -2.8399 -1.4077
  157MOL0     H20714   6.861   5.546   3.509 -0.8110 -2.4950 -5.0335
  157MOL0     H20715   6.974   5.460   3.419  0.2807  3.0403 -0.6043
  157MOL0     H20716   7.160   5.543   3.576  0.7388 -0.3820  4.8068
  157MOL0     H20717   7.083   5.678   3.514  1.0174  1.8336  1.7452
  157MOL0     H20718   6.977   5.568   3.783 -0.9542  3.1390  2.2253
  157MOL0     H20719   6.944   5.717   3.693  0.3980  2.0797  0.7904
  157MOL0     H20720   7.220   5.612   3.806 -0.6422 -2.4425  0.2664
  157MOL0     H20721   7.197   5.769   3.723 -0.3195  0.0851  1.7937
  157MOL0     H20722   7.025   5.850   4.096 -0.3196  0.2631  0.5524
  157MOL0     H20723   6.763   5.337   3.407 -1.7799 -0.2424 -0.2792
  157MOL0     H20724   6.696   5.119   3.307  1.1373 -0.9988 -0.8358
  158MOL0     O20725  10.927   4.382   8.363 -0.3236  0.0590  0.3584
  158MOL0     C20726  10.902   4.434   8.465  0.8449  0.1898  0.0796
  158MOL0     O20727  10.967   4.540   8.520  0.2303  0.9126 -0.4809
  158MOL0     C20728  11.088   4.564   8.466  0.1053 -0.5737 -0.1501
  158MOL0     C20729  11.105   4.652   8.356  0.1158 -0.5695 -0.1976
  158MOL0     C20730  11.240   4.691   8.323  0.0722 -0.7640 -0.3678
  158MOL0     C20731  11.350   4.625   8.371 -0.9362  0.2551 -1.3958
  158MOL0     O20732  11.476   4.652   8.330 -0.0986  0.2672  0.5072
  158MOL0     C20733  11.505   4.605   8.196 -0.8423  0.9867  0.2440
  158MOL0     C20734  11.602   4.477   8.214  0.0020 -0.3219 -0.3134
  158MOL0     C20735  11.723   4.510   8.304  0.1665  0.2123  0.2251
  158MOL0     C20736  11.805   4.639   8.267  0.7079  0.5314  0.2580
  158MOL0     C20737  11.908   4.667   8.374  0.0536  0.2728 -0.3523
  158MOL0     C20738  11.997   4.784   8.335 -0.2486  0.2528 -0.3218
  158MOL0     C20739  12.101   4.806   8.450  0.5767  0.8631  0.3631
  158MOL0     C20740  12.208   4.902   8.385 -1.0632 -0.4327  0.0420
  158MOL0     N20741  12.276   4.991   8.483  0.8485  0.6059 -0.9473
  158MOL0     C20742  12.248   5.125   8.498 -0.1638  0.6669 -0.1199
  158MOL0     C20743  12.323   5.156   8.606  0.0475  0.5381 -0.2410
  158MOL0     C20744  12.357   5.282   8.674 -0.5548 -0.6491  0.3494
  158MOL0     C20745  12.251   5.395   8.654  0.4711  1.0179 -0.1984
  158MOL0     C20746  12.308   5.536   8.694  0.6640 -0.5328 -0.3944
  158MOL0     C20747  12.201   5.640   8.725  0.1624  0.5063 -0.3622
  158MOL0     O20748  12.079   5.619   8.661  0.3115  0.4181 -0.1244
  158MOL0     C20749  11.971   5.665   8.730 -0.8262 -0.4597 -0.4124
  158MOL0     C20750  11.907   5.780   8.683  1.2878  0.1467  0.0161
  158MOL0     C20751  11.782   5.819   8.738 -0.0797 -0.7176  0.2786
  158MOL0     C20752  11.718   5.739   8.837  0.6532 -0.4310  0.9828
  158MOL0     C20753  11.574   5.763   8.876 -0.2736  0.2432 -0.3141
  158MOL0     O20754  11.508   5.856   8.808  0.0609 -0.2225 -0.4027
  158MOL0     C20755  11.385   5.899   8.852 -0.0003 -0.1565 -0.0095
  158MOL0     C20756  11.373   5.955   8.975 -0.2995 -0.5095 -0.2370
  158MOL0     C20757  11.257   6.022   9.027 -0.0797  0.8793  0.5828
  158MOL0     C20758  11.141   6.005   8.951 -0.4616  0.9937 -0.8182
  158MOL0     O20759  11.017   6.059   8.988 -0.4139 -0.3141  0.0584
  158MOL0     C20760  10.905   6.027   8.912  0.7563  0.3027  0.0441
  158MOL0     C20761  10.797   6.078   9.008 -0.6592 -0.0907 -0.9511
  158MOL0     C20762  10.646   6.052   8.973 -0.4894 -0.5286  0.9511
  158MOL0     C20763  10.557   6.055   9.085 -0.1401  0.0432  1.0517
  158MOL0     C20764  10.414   6.033   9.046 -0.0947 -0.0450  0.0174
  158MOL0     C20765  10.320   6.024   9.167 -0.6675  0.0644  0.0702
  158MOL0     C20766  10.174   6.000   9.125  0.0158  0.1641 -0.2586
  158MOL0     C20767  10.078   5.961   9.240 -0.2650 -0.3187 -0.1448
  158MOL0    Cl20768   9.910   5.971   9.190 -0.2688 -0.2154  0.1500
  158MOL0     C20769  11.154   5.936   8.829  0.6094  0.5121  0.0561
  158MOL0     C20770  11.270   5.875   8.783  0.3511 -0.2470 -0.3737
  158MOL0     O20771  11.521   5.694   8.966 -0.4437 -0.5982  0.1496
  158MOL0     C20772  11.795   5.637   8.893  0.5547 -0.6473 -0.0327
  158MOL0     C20773  11.918   5.597   8.838 -0.7372  0.4986 -0.3683
  158MOL0     N20774  12.381   5.041   8.663  0.1050  1.2869 -0.1013
  158MOL0     N20775  12.362   4.946   8.579 -0.1349 -0.3121 -0.1993
  158MOL0     C20776  11.329   4.527   8.467 -0.5772  0.0743 -0.0945
  158MOL0     C20777  11.199   4.500   8.519  0.5021  1.2016  0.3360
  158MOL0     C20778  10.790   4.366   8.542  0.5333  0.1761 -0.5923
  158MOL0     C20779  10.763   4.411   8.672 -0.4575 -0.4292  0.5427
  158MOL0     C20780  10.657   4.353   8.746 -0.5049  0.1869  0.3019
  158MOL0     C20781  10.565   4.257   8.683  0.6606  0.4585  0.0932
  158MOL0     O20782  10.452   4.199   8.736  0.6195  0.4033 -1.5028
  158MOL0     C20783  10.398   4.256   8.854  0.3069  0.4031  0.8125
  158MOL0     C20784  10.248   4.208   8.868 -0.1670 -0.3200 -0.0065
  158MOL0     C20785  10.236   4.059   8.893  0.0104  0.4768 -0.0553
  158MOL0     C20786  10.092   4.020   8.931  0.1328 -0.1615  0.3267
  158MOL0     C20787  10.066   4.014   9.071  0.4233  0.5323  0.0171
  158MOL0     C20788  10.033   3.998   9.184  0.3881  0.0571  0.5384
  158MOL0     C20789  10.596   4.218   8.554  0.0847 -0.5204  0.1399
  158MOL0     C20790  10.703   4.267   8.483 -0.8123 -0.6102  0.6397
  158MOL0     H20791  11.017   4.695   8.309  1.0065  0.6891 -0.7917
  158MOL0     H20792  11.257   4.771   8.252  1.5140  1.1851  1.9998
  158MOL0     H20793  11.570   4.680   8.150  0.0760  1.1862  1.7877
  158MOL0     H20794  11.421   4.588   8.129  0.7659  3.0889 -2.5227
  158MOL0     H20795  11.642   4.462   8.113  1.0263  2.0263 -0.3155
  158MOL0     H20796  11.540   4.389   8.232 -0.3168 -0.4687 -1.9531
  158MOL0     H20797  11.794   4.427   8.300 -0.6379 -0.5189 -3.3573
  158MOL0     H20798  11.680   4.526   8.403  1.4023  0.9997  0.6503
  158MOL0     H20799  11.846   4.632   8.166  2.5741 -3.1027  1.0964
  158MOL0     H20800  11.741   4.728   8.268  0.8712  0.6572 -0.2021
  158MOL0     H20801  11.972   4.579   8.388  0.2519  0.4873  0.1402
  158MOL0     H20802  11.865   4.679   8.474  2.9202 -1.3075  1.2171
  158MOL0     H20803  11.929   4.869   8.326  0.2435  0.4737 -2.4018
  158MOL0     H20804  12.044   4.762   8.239 -1.0614 -0.5012 -0.5606
  158MOL0     H20805  12.056   4.853   8.538 -0.8248 -0.0498  0.1670
  158MOL0     H20806  12.157   4.715   8.474 -0.7169 -0.1064 -0.1724
  158MOL0     H20807  12.172   4.964   8.303  1.4968  1.5699  0.3476
  158MOL0     H20808  12.282   4.839   8.335 -2.0449 -1.2194 -0.4815
  158MOL0     H20809  12.197   5.189   8.427 -1.0027 -0.6462 -0.7294
  158MOL0     H20810  12.453   5.321   8.638 -0.4054 -1.8777 -0.6472
  158MOL0     H20811  12.384   5.263   8.778  0.2450 -2.4530 -0.1623
  158MOL0     H20812  12.163   5.371   8.715 -0.9214 -0.6687 -2.7016
  158MOL0     H20813  12.218   5.392   8.550  1.3642  1.4289 -0.5028
  158MOL0     H20814  12.381   5.527   8.774 -0.4477  0.7365  0.8156
  158MOL0     H20815  12.356   5.581   8.606 -0.6874  1.5125 -0.1669
  158MOL0     H20816  12.243   5.736   8.695 -1.6343  3.2666  4.8097
  158MOL0     H20817  12.184   5.645   8.833  2.1478  1.6261 -0.0456
  158MOL0     H20818  11.946   5.830   8.595  1.8228 -1.3678 -0.6488
  158MOL0     H20819  11.731   5.905   8.695 -1.1269  0.3418  3.3540
  158MOL0     H20820  11.462   5.962   9.037 -0.3585 -2.5964  0.1572
  158MOL0     H20821  11.245   6.073   9.122 -0.1388  3.1656 -0.5965
  158MOL0     H20822  10.892   5.920   8.898 -0.7241  0.6047 -1.1492
  158MOL0     H20823  10.906   6.083   8.818  0.5041 -2.5322 -1.7687
  158MOL0     H20824  10.819   6.181   9.038  2.8115 -1.3139  1.4801
  158MOL0     H20825  10.818   6.021   9.099 -1.4403 -2.5559 -2.2432
  158MOL0     H20826  10.645   5.952   8.927  2.3441 -0.1728 -0.1251
  158MOL0     H20827  10.607   6.119   8.896 -1.3167 -2.1481 -0.1069
  158MOL0     H20828  10.591   5.986   9.163  1.6958  0.2886  0.5323
  158MOL0     H20829  10.579   6.156   9.123 -1.6061  0.7116  0.1991
  158MOL0     H20830  10.414   5.937   8.992 -0.5030  0.0863 -0.2229
  158MOL0     H20831  10.376   6.115   8.984 -1.6034 -1.3877 -0.9274
  158MOL0     H20832  10.339   6.124   9.208  0.3924  0.3477 -1.0552
  158MOL0     H20833  10.353   5.945   9.234  1.2906  0.1020 -0.7645
  158MOL0     H20834  10.128   6.086   9.075 -0.3152 -0.8101 -1.6804
  158MOL0     H20835  10.180   5.921   9.050  1.8691 -0.6281  0.6513
  158MOL0     H20836  10.096   6.042   9.311 -1.3874  1.1805 -1.5063
  158MOL0     H20837  10.105   5.864   9.284 -0.9425 -0.2102  0.5302
  158MOL0     H20838  11.074   5.915   8.758  0.7100  1.7193 -0.4363
  158MOL0     H20839  11.264   5.811   8.695 -1.4985  1.6357 -1.7309
  158MOL0     H20840  11.744   5.580   8.971  0.4799  2.1508  2.1241
  158MOL0     H20841  11.961   5.509   8.884  0.7566  2.2433  1.8223
  158MOL0     H20842  11.424   4.479   8.489  0.0166 -0.0705 -2.6811
  158MOL0     H20843  11.182   4.423   8.594  0.5058 -0.0764 -0.9505
  158MOL0     H20844  10.822   4.492   8.712  0.3373 -0.9278  0.3950
  158MOL0     H20845  10.639   4.384   8.849 -0.9356 -3.3646  1.4637
  158MOL0     H20846  10.397   4.364   8.841 -0.5939  0.0355 -3.4030
  158MOL0     H20847  10.453   4.247   8.949  0.2223  0.1048  0.8371
  158MOL0     H20848  10.202   4.265   8.949 -1.2366  1.4046 -1.7622
  158MOL0     H20849  10.185   4.227   8.781 -2.3752 -3.7268  0.6550
  158MOL0     H20850  10.307   4.038   8.973 -0.1362 -1.7676 -0.4484
  158MOL0     H20851  10.271   4.007   8.803  2.7578  0.6688  0.8410
  158MOL0     H20852  10.024   4.091   8.883  0.0739 -1.6713 -1.9552
  158MOL0     H20853  10.072   3.923   8.885  1.2424 -0.6128  0.7575
  158MOL0     H20854  10.013   3.963   9.283 -1.5648 -2.0420 -0.4862
  158MOL0     H20855  10.537   4.136   8.515  1.3635 -1.5391  0.3038
  158MOL0     H20856  10.709   4.249   8.376 -0.5568  2.1634  0.1103
  159MOL0     O20857   5.806   4.680   4.334 -0.0355  0.4373  0.4499
  159MOL0     C20858   5.832   4.598   4.426  0.1555  0.4005 -0.3205
  159MOL0     O20859   5.751   4.501   4.476  0.0460  0.5711 -1.3418
  159MOL0     C20860   5.625   4.480   4.433 -0.9131 -0.1876  1.1539
  159MOL0     C20861   5.587   4.345   4.447  0.3910  0.0813 -0.2453
  159MOL0     C20862   5.453   4.311   4.420  0.8346  0.4693 -1.2087
  159MOL0     C20863   5.366   4.400   4.364  0.1658 -0.8606  0.6406
  159MOL0     O20864   5.243   4.348   4.332 -0.2142  0.2321  0.3024
  159MOL0     C20865   5.160   4.411   4.242 -0.5675 -0.0269  0.0223
  159MOL0     C20866   5.018   4.355   4.248  0.0888 -0.2700 -0.4349
  159MOL0     C20867   4.930   4.412   4.129  0.1703 -0.0848 -0.8070
  159MOL0     C20868   4.789   4.349   4.127  0.5397 -0.1277  0.0196
  159MOL0     C20869   4.699   4.392   4.009 -0.1777 -0.8452  0.2397
  159MOL0     C20870   4.755   4.336   3.877  0.7392  0.7492 -0.3971
  159MOL0     C20871   4.644   4.323   3.775  0.7603 -0.2010 -0.1000
  159MOL0     C20872   4.697   4.295   3.629  0.4518 -0.0087 -0.6103
  159MOL0     N20873   4.598   4.239   3.537 -0.5876 -0.5117 -0.4174
  159MOL0     C20874   4.550   4.312   3.438  0.3194  0.0414  0.6004
  159MOL0     C20875   4.448   4.252   3.384 -0.0768 -0.2230 -0.6244
  159MOL0     C20876   4.364   4.311   3.280 -0.2998 -0.0694  0.0493
  159MOL0     C20877   4.220   4.270   3.279 -0.3314  0.1192  0.4309
  159MOL0     C20878   4.155   4.270   3.140 -0.6430 -0.3911 -0.4267
  159MOL0     C20879   4.016   4.213   3.125 -0.5510  0.2740  0.0665
  159MOL0     O20880   3.914   4.286   3.195  0.3216  0.3252 -0.3283
  159MOL0     C20881   3.790   4.229   3.207  0.3200  0.3951 -0.0239
  159MOL0     C20882   3.756   4.094   3.179  0.3015  0.2493  0.0474
  159MOL0     C20883   3.626   4.047   3.190  0.6900  0.2686  1.1258
  159MOL0     C20884   3.520   4.131   3.232  0.2206  1.2164  0.2674
  159MOL0     C20885   3.384   4.076   3.223 -0.1235 -0.0590 -0.1033
  159MOL0     O20886   3.283   4.145   3.291  0.3332  0.1737  0.5781
  159MOL0     C20887   3.153   4.100   3.265 -0.0649 -0.2167  0.0225
  159MOL0     C20888   3.105   4.081   3.139 -0.6445 -0.0517 -0.4328
  159MOL0     C20889   2.973   4.038   3.114 -0.7955 -0.1404  0.7187
  159MOL0     C20890   2.884   4.031   3.214  0.9449 -0.5629 -0.2450
  159MOL0     O20891   2.749   4.011   3.174  0.4466 -0.3221  0.4106
  159MOL0     C20892   2.663   3.997   3.291 -0.1038 -0.4371 -0.5392
  159MOL0     C20893   2.511   3.988   3.238  0.0106 -0.1963 -0.6369
  159MOL0     C20894   2.418   3.931   3.339  0.6843 -0.2170  0.3541
  159MOL0     C20895   2.280   3.905   3.282  0.3158  0.5257 -0.4456
  159MOL0     C20896   2.165   3.905   3.397 -0.1987 -0.0644  0.1345
  159MOL0     C20897   2.025   3.902   3.332 -0.1368 -0.8073 -0.1816
  159MOL0     C20898   1.927   3.834   3.417  0.6015 -0.3339  0.0772
  159MOL0     C20899   1.790   3.883   3.353 -0.3918 -0.2411 -0.3887
  159MOL0    Cl20900   1.660   3.808   3.445  0.6704 -0.0279  0.1043
  159MOL0     C20901   2.927   4.053   3.347 -0.7067  1.1297 -0.3173
  159MOL0     C20902   3.065   4.080   3.367  0.3258  0.0328  0.0079
  159MOL0     O20903   3.369   3.978   3.153 -0.0055  0.7445  0.1915
  159MOL0     C20904   3.552   4.265   3.254  0.5043 -0.0301  0.1306
  159MOL0     C20905   3.686   4.311   3.250 -0.4860 -0.7200 -0.0653
  159MOL0     N20906   4.426   4.138   3.462  0.1779  0.4543  0.7159
  159MOL0     N20907   4.516   4.134   3.551 -0.2371 -0.0475  0.5001
  159MOL0     C20908   5.412   4.537   4.343 -0.0351  0.7349 -0.2750
  159MOL0     C20909   5.535   4.579   4.390  0.2140  0.0588  0.8115
  159MOL0     C20910   5.977   4.605   4.461  0.2402  0.1819  0.4440
  159MOL0     C20911   6.027   4.524   4.565 -0.3453 -0.0770  0.6403
  159MOL0     C20912   6.164   4.523   4.597  0.4264 -0.9670 -0.0917
  159MOL0     C20913   6.254   4.605   4.522 -0.2212 -0.4355  0.3284
  159MOL0     O20914   6.385   4.612   4.553  0.8760 -0.1407 -0.4446
  159MOL0     C20915   6.454   4.519   4.648  0.3188  0.7168 -0.0638
  159MOL0     C20916   6.605   4.541   4.639  0.2672 -0.1296  0.3833
  159MOL0     C20917   6.654   4.657   4.728 -0.9340  0.7794  0.6765
  159MOL0     C20918   6.802   4.667   4.732 -0.6281  0.0396 -0.1941
  159MOL0     C20919   6.877   4.552   4.792  0.2203 -0.3893 -0.4216
  159MOL0     C20920   6.926   4.471   4.870 -0.6081 -0.1825 -0.4280
  159MOL0     C20921   6.210   4.676   4.414 -0.9294 -1.4222 -0.4796
  159MOL0     C20922   6.071   4.686   4.388 -0.9552  0.0438  0.5856
  159MOL0     H20923   5.652   4.270   4.491  0.6156  0.1581 -0.4492
  159MOL0     H20924   5.421   4.212   4.452  0.7020 -0.3066 -3.5639
  159MOL0     H20925   5.202   4.398   4.141 -1.6846 -1.5095 -0.2904
  159MOL0     H20926   5.164   4.518   4.261 -1.7274 -0.1501  1.0730
  159MOL0     H20927   4.973   4.365   4.347  1.6185 -1.0625  0.3827
  159MOL0     H20928   5.026   4.248   4.227 -0.6529 -0.2994 -0.6197
  159MOL0     H20929   4.991   4.391   4.040  0.4711 -0.1237 -0.5940
  159MOL0     H20930   4.917   4.519   4.146 -2.0324 -0.5551  0.8580
  159MOL0     H20931   4.801   4.240   4.119 -2.7068 -0.4649 -1.9880
  159MOL0     H20932   4.746   4.367   4.226  0.2693 -0.2154 -0.0806
  159MOL0     H20933   4.686   4.500   4.020 -0.2738 -1.0046  2.1064
  159MOL0     H20934   4.602   4.348   4.034 -0.9098 -0.0588 -1.1306
  159MOL0     H20935   4.791   4.234   3.893  1.4061  0.5483 -2.7547
  159MOL0     H20936   4.821   4.404   3.822 -0.8190  0.8091 -2.3097
  159MOL0     H20937   4.576   4.245   3.808  0.1055  0.5534  0.3630
  159MOL0     H20938   4.577   4.409   3.783 -1.0927 -1.7520  2.3936
  159MOL0     H20939   4.774   4.219   3.643  2.9660  2.5491  0.2435
  159MOL0     H20940   4.739   4.389   3.592 -0.1697  1.7770  2.7918
  159MOL0     H20941   4.586   4.408   3.403 -0.6129 -0.3876 -1.7074
  159MOL0     H20942   4.409   4.271   3.188  0.9501 -1.5941  1.2562
  159MOL0     H20943   4.371   4.420   3.279 -0.0972  0.1270  4.7503
  159MOL0     H20944   4.159   4.339   3.337 -0.3462  0.6476 -0.1991
  159MOL0     H20945   4.207   4.171   3.325 -1.0922 -0.7119 -1.4429
  159MOL0     H20946   4.168   4.374   3.105  2.7607 -0.3018  0.7161
  159MOL0     H20947   4.219   4.213   3.072  0.4089  1.3852 -1.0210
  159MOL0     H20948   4.026   4.114   3.170 -0.0336 -0.3670 -1.4035
  159MOL0     H20949   4.006   4.207   3.016  3.5430  0.0540 -0.4336
  159MOL0     H20950   3.833   4.028   3.140 -0.5582 -0.7009 -0.0643
  159MOL0     H20951   3.624   3.951   3.140 -1.4561  0.6639  0.3645
  159MOL0     H20952   3.176   4.089   3.056 -0.1371 -1.1457 -0.1190
  159MOL0     H20953   2.937   4.011   3.015 -2.3753  1.1768  0.9047
  159MOL0     H20954   2.665   4.095   3.340  1.7478  0.2837 -1.9621
  159MOL0     H20955   2.686   3.905   3.345 -3.9113 -0.3942  1.5199
  159MOL0     H20956   2.515   3.913   3.158 -2.0999 -2.9548  1.6071
  159MOL0     H20957   2.472   4.082   3.198  0.7141 -0.0027 -0.8880
  159MOL0     H20958   2.408   3.999   3.424  2.1930 -1.3534  1.5052
  159MOL0     H20959   2.458   3.839   3.384 -0.4867 -0.4561  0.9411
  159MOL0     H20960   2.250   3.981   3.210 -3.6338 -1.4313 -1.1179
  159MOL0     H20961   2.284   3.814   3.222 -0.0483  0.6610 -0.6759
  159MOL0     H20962   2.171   3.995   3.458 -0.9963 -0.1730  0.3962
  159MOL0     H20963   2.176   3.819   3.464 -0.3817 -0.0953  0.1263
  159MOL0     H20964   2.030   3.860   3.231 -0.9187 -1.6963  0.1369
  159MOL0     H20965   1.993   4.005   3.316 -0.3152 -0.9297 -0.6530
  159MOL0     H20966   1.938   3.725   3.409 -1.6225 -0.6041  0.2562
  159MOL0     H20967   1.941   3.868   3.519  2.7444 -2.0514  0.4410
  159MOL0     H20968   1.783   3.848   3.250 -0.7196 -1.4585  0.0214
  159MOL0     H20969   1.785   3.992   3.357 -2.1033 -0.2293 -1.7940
  159MOL0     H20970   2.852   4.056   3.425 -2.1370 -2.8577 -1.2766
  159MOL0     H20971   3.106   4.091   3.467 -2.6555  1.1134  1.2400
  159MOL0     H20972   3.469   4.329   3.283 -0.7223 -1.1235 -0.8552
  159MOL0     H20973   3.708   4.410   3.290  0.7370 -1.0615  0.1441
  159MOL0     H20974   5.345   4.608   4.297 -1.9273 -0.5882  0.3114
  159MOL0     H20975   5.563   4.683   4.375 -0.9854 -0.0253 -3.4761
  159MOL0     H20976   5.955   4.462   4.617 -2.6435 -0.7149 -2.9242
  159MOL0     H20977   6.187   4.476   4.692 -2.2580  0.8914  1.6391
  159MOL0     H20978   6.442   4.414   4.619  0.3030  0.3391  1.2537
  159MOL0     H20979   6.420   4.535   4.751  2.6721  4.5356  0.3051
  159MOL0     H20980   6.651   4.442   4.647  0.6885  0.1433  1.4281
  159MOL0     H20981   6.625   4.579   4.538  0.8290  0.6119  0.7576
  159MOL0     H20982   6.609   4.653   4.827  0.2794 -1.8077  1.2133
  159MOL0     H20983   6.621   4.750   4.680  2.6704  1.1853 -1.3914
  159MOL0     H20984   6.850   4.676   4.634  0.9944 -1.7274  0.3662
  159MOL0     H20985   6.834   4.760   4.779  2.6000 -0.0241 -1.9643
  159MOL0     H20986   6.960   4.401   4.943 -0.7930  0.4647  0.2939
  159MOL0     H20987   6.278   4.736   4.355 -2.4169  1.8467  0.8723
  159MOL0     H20988   6.054   4.738   4.295 -0.0997 -1.5778 -0.5220
  160MOL0     O20989   1.553   2.015   1.875 -0.5699 -0.4099  0.1484
  160MOL0     C20990   1.646   2.069   1.928  0.0131  0.3815  0.5010
  160MOL0     O20991   1.633   2.129   2.044 -0.9204  0.0170 -0.1216
  160MOL0     C20992   1.517   2.171   2.104  0.7822  0.1526 -0.5327
  160MOL0     C20993   1.516   2.186   2.245 -0.1332 -0.4977 -0.0833
  160MOL0     C20994   1.404   2.224   2.312 -0.0920 -0.4493  0.8665
  160MOL0     C20995   1.297   2.266   2.241 -0.2589  0.5739 -0.1572
  160MOL0     O20996   1.194   2.314   2.320 -0.3097 -0.2930 -0.1348
  160MOL0     C20997   1.073   2.346   2.254  0.2514  0.1541  0.2540
  160MOL0     C20998   0.959   2.352   2.364 -0.3176 -0.5617  0.3148
  160MOL0     C20999   0.825   2.363   2.291 -1.1592  0.8402  0.8104
  160MOL0     C21000   0.706   2.324   2.382  0.5841 -0.4404  0.5896
  160MOL0     C21001   0.574   2.390   2.337  0.3768 -0.2543 -0.2349
  160MOL0     C21002   0.460   2.297   2.384 -0.3701 -1.2814 -0.6008
  160MOL0     C21003   0.329   2.363   2.343  0.6807  0.1081 -1.5616
  160MOL0     C21004   0.219   2.263   2.389  0.2206  0.5265 -0.2359
  160MOL0     N21005   0.087   2.331   2.387 -0.6862  0.2622  0.0906
  160MOL0     C21006   0.025   2.368   2.508  0.3195 -0.1504  0.0250
  160MOL0     C21007  -0.074   2.440   2.455 -0.5832 -0.1752 -0.2549
  160MOL0     C21008  -0.157   2.526   2.539 -0.3047  0.1029 -0.3793
  160MOL0     C21009  -0.272   2.588   2.465  0.6509 -0.1663  0.8470
  160MOL0     C21010  -0.330   2.698   2.556 -0.4695  0.0416  0.1760
  160MOL0     C21011  -0.474   2.734   2.515  0.4832  0.1837 -0.2204
  160MOL0     O21012  -0.560   2.635   2.580 -0.9923 -0.0342  0.1960
  160MOL0     C21013  -0.690   2.635   2.544  0.1797 -0.5358  0.0660
  160MOL0     C21014  -0.751   2.735   2.466  0.5881  0.5970  0.8238
  160MOL0     C21015  -0.894   2.732   2.452 -0.1138 -0.2812  0.1566
  160MOL0     C21016  -0.975   2.644   2.525  0.2532 -0.4482 -0.3665
  160MOL0     C21017  -1.118   2.667   2.523  0.7151  0.0696 -0.6083
  160MOL0     O21018  -1.182   2.736   2.420  0.1377  0.1264  0.1946
  160MOL0     C21019  -1.317   2.761   2.427 -0.3166 -1.4583  0.9608
  160MOL0     C21020  -1.386   2.770   2.306 -1.2186 -0.0822 -0.2105
  160MOL0     C21021  -1.518   2.788   2.296  0.6635  0.2938 -0.0229
  160MOL0     C21022  -1.603   2.794   2.405  0.3304  0.1817 -0.6329
  160MOL0     O21023  -1.737   2.829   2.386  0.6756 -0.6705 -0.0643
  160MOL0     C21024  -1.810   2.884   2.499  0.3366  0.2411 -1.4529
  160MOL0     C21025  -1.946   2.951   2.458  0.3822 -0.1095  0.0073
  160MOL0     C21026  -2.030   2.991   2.576 -0.3018 -0.5237  0.1153
  160MOL0     C21027  -2.152   3.055   2.500 -0.0293 -0.8434 -0.9360
  160MOL0     C21028  -2.269   3.098   2.597  0.3716  0.1496 -0.6018
  160MOL0     C21029  -2.375   3.180   2.528  0.7547  0.1077  0.3049
  160MOL0     C21030  -2.471   3.230   2.640 -0.1277  0.0441  0.3412
  160MOL0     C21031  -2.539   3.121   2.736  0.5976 -0.2720  0.4682
  160MOL0    Cl21032  -2.604   3.002   2.616  0.1217 -0.4038 -0.1147
  160MOL0     C21033  -1.536   2.787   2.532 -0.4356 -0.1651  0.0682
  160MOL0     C21034  -1.396   2.786   2.537 -0.2672 -0.5213 -0.8560
  160MOL0     O21035  -1.167   2.622   2.621  0.0616 -0.4764  0.2256
  160MOL0     C21036  -0.905   2.538   2.593 -0.2610 -0.1068  0.2233
  160MOL0     C21037  -0.767   2.542   2.602 -0.1170 -0.0977 -0.6849
  160MOL0     N21038  -0.069   2.436   2.314 -0.5146 -0.3308  0.1271
  160MOL0     N21039   0.025   2.365   2.271  0.2200 -0.7104  0.4445
  160MOL0     C21040   1.298   2.271   2.103 -0.1347 -0.5913  0.1988
  160MOL0     C21041   1.408   2.220   2.031 -0.8215  0.2394  0.4426
  160MOL0     C21042   1.780   2.062   1.863  1.0364 -0.2514  0.0960
  160MOL0     C21043   1.889   2.136   1.911  1.0316  0.2674  0.4015
  160MOL0     C21044   2.006   2.126   1.838  0.1908  0.9039 -0.4517
  160MOL0     C21045   2.027   2.027   1.744  0.3019  0.8228  0.0001
  160MOL0     O21046   2.153   2.022   1.690  0.0702  1.0829 -0.7510
  160MOL0     C21047   2.181   1.976   1.559  0.0316  0.6669  0.1415
  160MOL0     C21048   2.183   2.090   1.463  0.2012  0.0310  0.0320
  160MOL0     C21049   2.315   2.175   1.488  0.1974  0.0164 -0.2308
  160MOL0     C21050   2.406   2.189   1.372  0.7041 -0.2186 -0.0868
  160MOL0     C21051   2.527   2.264   1.391 -0.4989  0.3211  1.2790
  160MOL0     C21052   2.637   2.317   1.405 -0.4164  0.2928 -0.1827
  160MOL0     C21053   1.916   1.950   1.705  0.4169 -0.1892 -0.1275
  160MOL0     C21054   1.791   1.967   1.758  0.6572 -0.6597 -1.3723
  160MOL0     H21055   1.596   2.150   2.309 -0.2511  1.6212  1.4002
  160MOL0     H21056   1.402   2.230   2.420  0.5906  1.6674  0.8050
  160MOL0     H21057   1.060   2.264   2.183  0.9690  0.7527 -0.5979
  160MOL0     H21058   1.080   2.441   2.199  1.1008 -2.1137 -4.0177
  160MOL0     H21059   0.979   2.428   2.440  1.4908 -0.7044  0.0270
  160MOL0     H21060   0.956   2.258   2.421  0.6133 -0.7436  0.0835
  160MOL0     H21061   0.829   2.297   2.204 -0.4579  0.1986  1.3216
  160MOL0     H21062   0.812   2.464   2.251  1.8393  0.6660 -0.7899
  160MOL0     H21063   0.697   2.216   2.366  0.3134 -0.2331 -0.7698
  160MOL0     H21064   0.730   2.341   2.488  0.2847 -2.8174  1.1132
  160MOL0     H21065   0.569   2.393   2.228 -1.5985  0.5760 -0.1787
  160MOL0     H21066   0.572   2.496   2.367  0.8036  0.5639 -2.8417
  160MOL0     H21067   0.455   2.298   2.493 -0.7941  3.1998 -0.4814
  160MOL0     H21068   0.470   2.197   2.340 -0.8586 -0.9305 -1.5295
  160MOL0     H21069   0.318   2.459   2.394  1.8977 -1.4021  1.8226
  160MOL0     H21070   0.335   2.383   2.236  2.5474 -1.6695 -1.8505
  160MOL0     H21071   0.241   2.211   2.482 -1.5296  2.0752  1.1040
  160MOL0     H21072   0.227   2.188   2.310 -1.0349  0.1003  0.0325
  160MOL0     H21073   0.049   2.336   2.608 -1.4560  0.6491  0.7427
  160MOL0     H21074  -0.090   2.600   2.583 -0.3857 -0.0134 -0.0606
  160MOL0     H21075  -0.190   2.468   2.625  1.0491 -1.4388 -0.8361
  160MOL0     H21076  -0.345   2.509   2.444  1.5346 -1.1076  1.1712
  160MOL0     H21077  -0.249   2.645   2.375 -0.1976 -1.2283 -0.0624
  160MOL0     H21078  -0.327   2.657   2.658  4.3287  1.4292  0.8492
  160MOL0     H21079  -0.263   2.785   2.551  1.3777 -1.3947 -2.7631
  160MOL0     H21080  -0.487   2.730   2.407  3.7159  1.2052 -0.7353
  160MOL0     H21081  -0.495   2.836   2.548  3.7510  0.1790  2.3691
  160MOL0     H21082  -0.699   2.815   2.415 -0.3453  1.2283  0.8237
  160MOL0     H21083  -0.937   2.819   2.403 -1.8874 -0.9295  0.4883
  160MOL0     H21084  -1.321   2.765   2.219 -0.2399 -1.4422  0.5447
  160MOL0     H21085  -1.559   2.810   2.198 -0.1788  2.3885  0.7386
  160MOL0     H21086  -1.752   2.962   2.550 -0.5341 -1.6448  2.9177
  160MOL0     H21087  -1.820   2.799   2.567 -0.0722  0.0610 -1.7306
  160MOL0     H21088  -2.008   2.884   2.397  0.1438  0.6358 -0.5838
  160MOL0     H21089  -1.926   3.037   2.394 -0.2685  1.0261  1.2970
  160MOL0     H21090  -1.988   3.058   2.652  0.4487 -2.8119  1.8153
  160MOL0     H21091  -2.053   2.899   2.630 -0.9649 -0.2385  0.3361
  160MOL0     H21092  -2.121   3.146   2.449  0.7402 -0.3908  0.2931
  160MOL0     H21093  -2.182   2.981   2.426  1.5326  1.2520 -3.8483
  160MOL0     H21094  -2.225   3.161   2.674 -1.4111 -1.0288  1.4749
  160MOL0     H21095  -2.316   3.009   2.640 -0.1481  0.1613 -1.1264
  160MOL0     H21096  -2.435   3.131   2.451 -1.8536  2.0653  0.9464
  160MOL0     H21097  -2.321   3.266   2.490  0.0809  0.5952  0.4326
  160MOL0     H21098  -2.427   3.312   2.697  0.2706  1.1865 -1.5266
  160MOL0     H21099  -2.555   3.279   2.590  0.3599  1.6513  1.0503
  160MOL0     H21100  -2.611   3.165   2.806  3.1201  0.7038  2.6273
  160MOL0     H21101  -2.460   3.076   2.798  0.1612 -0.8885  0.5894
  160MOL0     H21102  -1.595   2.828   2.614 -0.4465  1.4126 -0.6823
  160MOL0     H21103  -1.343   2.789   2.631 -1.2249  0.2873 -0.3190
  160MOL0     H21104  -0.951   2.454   2.643  2.1061 -0.5748  1.8409
  160MOL0     H21105  -0.729   2.462   2.666 -3.9753 -0.0800  1.9855
  160MOL0     H21106   1.214   2.303   2.041  1.7671  1.3876 -1.5116
  160MOL0     H21107   1.402   2.212   1.923  1.9412  4.1991 -0.2267
  160MOL0     H21108   1.881   2.194   2.003  1.6253  0.9100  0.0568
  160MOL0     H21109   2.085   2.198   1.858  1.7475 -0.4341 -1.4896
  160MOL0     H21110   2.111   1.897   1.531 -2.4851  2.2308  1.6472
  160MOL0     H21111   2.284   1.938   1.558 -0.2407 -0.0691 -0.9968
  160MOL0     H21112   2.182   2.047   1.362 -0.7860 -3.8088  1.4938
  160MOL0     H21113   2.102   2.162   1.477  1.1073  0.6566  2.7344
  160MOL0     H21114   2.374   2.131   1.569  1.6576  1.1906 -0.6147
  160MOL0     H21115   2.286   2.277   1.517 -2.4547 -0.4066 -1.1311
  160MOL0     H21116   2.431   2.087   1.341 -1.0068 -0.7955  0.2823
  160MOL0     H21117   2.359   2.232   1.283  0.9348  1.7948  0.7230
  160MOL0     H21118   2.720   2.381   1.430 -0.0549 -1.3540  3.5608
  160MOL0     H21119   1.920   1.880   1.622  2.1678 -1.3114  0.8146
  160MOL0     H21120   1.706   1.907   1.730 -0.7048 -0.6418  2.1760
  161MOL0     O21121   4.707   3.357   6.933 -0.5154  0.2171  0.9781
  161MOL0     C21122   4.772   3.461   6.957 -0.3762  0.9099 -0.4172
  161MOL0     O21123   4.737   3.551   7.040  0.3853 -0.1484 -0.5426
  161MOL0     C21124   4.644   3.533   7.134  0.8174  0.3204  0.1474
  161MOL0     C21125   4.585   3.415   7.191  0.1219  0.2034  0.0257
  161MOL0     C21126   4.470   3.432   7.281  0.3063 -0.1213  0.3020
  161MOL0     C21127   4.428   3.557   7.327  0.1154 -0.1401  0.7147
  161MOL0     O21128   4.333   3.574   7.427 -0.1138 -0.1730 -0.5134
  161MOL0     C21129   4.300   3.465   7.516  0.0542 -0.0194  0.4332
  161MOL0     C21130   4.232   3.508   7.641 -0.4074  0.0041  0.1652
  161MOL0     C21131   4.173   3.402   7.735  0.4358  0.0927 -0.3373
  161MOL0     C21132   4.046   3.338   7.679 -1.1801 -0.2629  0.1475
  161MOL0     C21133   3.975   3.231   7.766  0.1883  0.1949  0.1596
  161MOL0     C21134   3.889   3.293   7.873  0.2184 -0.5187  0.1089
  161MOL0     C21135   3.825   3.193   7.968 -0.3320  0.5453 -0.0796
  161MOL0     C21136   3.736   3.258   8.074  1.2538 -0.5702 -0.4153
  161MOL0     N21137   3.624   3.174   8.118 -0.1199 -0.2449  0.4529
  161MOL0     C21138   3.606   3.132   8.253 -0.4184  0.2613 -1.1775
  161MOL0     C21139   3.488   3.071   8.248  0.5244  0.7762  0.4843
  161MOL0     C21140   3.422   3.017   8.382  0.5085 -1.1739  0.7426
  161MOL0     C21141   3.438   2.865   8.390 -0.6330 -1.0515 -0.1753
  161MOL0     C21142   3.359   2.807   8.510 -1.1896  0.8152  0.2275
  161MOL0     C21143   3.363   2.657   8.483 -0.0811  1.1741  0.4302
  161MOL0     O21144   3.288   2.588   8.583  0.1368 -0.1944 -0.6028
  161MOL0     C21145   3.153   2.581   8.561  0.0271 -1.2210  0.1297
  161MOL0     C21146   3.092   2.512   8.661 -0.2617 -0.2719 -0.4081
  161MOL0     C21147   2.952   2.496   8.663 -0.2414 -0.4060  0.3924
  161MOL0     C21148   2.874   2.543   8.553 -0.5155 -0.1919  0.2267
  161MOL0     C21149   2.730   2.513   8.546  0.0212  0.0616  0.5750
  161MOL0     O21150   2.684   2.423   8.639 -0.3430  0.2580  0.0115
  161MOL0     C21151   2.550   2.411   8.673  1.8078 -0.1564 -0.0875
  161MOL0     C21152   2.490   2.460   8.792  0.6710  0.0830 -0.8347
  161MOL0     C21153   2.358   2.428   8.829  0.1618 -0.8900  0.5852
  161MOL0     C21154   2.269   2.374   8.731 -1.0952  0.0449 -0.2085
  161MOL0     O21155   2.147   2.349   8.781  0.2406 -0.6234 -0.4131
  161MOL0     C21156   2.045   2.263   8.733  0.5316 -0.0053  0.7301
  161MOL0     C21157   2.067   2.115   8.761 -0.6916 -0.1763  0.4021
  161MOL0     C21158   1.954   2.057   8.835 -0.0793  0.5544 -0.1850
  161MOL0     C21159   1.996   1.906   8.855  0.1508 -0.2973  0.4762
  161MOL0     C21160   1.886   1.821   8.915  0.2009 -0.1518 -0.0270
  161MOL0     C21161   1.786   1.773   8.804  0.1335 -0.2116 -0.1680
  161MOL0     C21162   1.642   1.722   8.865  0.1389 -0.2409 -0.3309
  161MOL0     C21163   1.539   1.734   8.750  0.6317  0.3088  0.6545
  161MOL0    Cl21164   1.374   1.700   8.807  0.3662 -0.3094  0.3129
  161MOL0     C21165   2.326   2.331   8.607 -0.7697  1.2575 -0.3147
  161MOL0     C21166   2.466   2.344   8.578 -0.3650 -0.3730  0.4695
  161MOL0     O21167   2.660   2.584   8.475  0.1048 -0.0792  0.0036
  161MOL0     C21168   2.938   2.609   8.450  0.1958 -0.4159  0.3226
  161MOL0     C21169   3.080   2.628   8.449 -1.0392 -0.5988 -0.3866
  161MOL0     N21170   3.444   3.053   8.121  0.5596  0.4465 -0.5681
  161MOL0     N21171   3.522   3.122   8.044 -0.5514 -0.0064 -0.3238
  161MOL0     C21172   4.497   3.670   7.290  0.4722 -0.2076 -0.0200
  161MOL0     C21173   4.602   3.658   7.190  0.1259  0.1677  0.6103
  161MOL0     C21174   4.891   3.503   6.867 -0.6365  0.8123  0.1682
  161MOL0     C21175   4.924   3.432   6.750 -0.1875  0.5380 -0.5941
  161MOL0     C21176   5.030   3.465   6.665  0.6341  0.5749  0.8368
  161MOL0     C21177   5.104   3.586   6.686 -1.0738 -0.2617  0.1720
  161MOL0     O21178   5.203   3.629   6.605 -0.3290 -0.0949 -0.0640
  161MOL0     C21179   5.237   3.534   6.499  0.1051  0.0786  0.1482
  161MOL0     C21180   5.364   3.579   6.439 -0.1296  0.4879 -1.0316
  161MOL0     C21181   5.352   3.705   6.352 -0.1157 -0.3002  0.1509
  161MOL0     C21182   5.480   3.722   6.263 -0.6816  0.3951 -0.6264
  161MOL0     C21183   5.501   3.848   6.194 -0.1721 -0.1533 -0.1136
  161MOL0     C21184   5.532   3.959   6.149 -1.0910 -0.8696  0.3839
  161MOL0     C21185   5.061   3.658   6.794 -0.0460  0.5068  0.3915
  161MOL0     C21186   4.960   3.622   6.884  0.0198 -0.1155 -0.5064
  161MOL0     H21187   4.595   3.310   7.164  0.8475  0.1082  0.6585
  161MOL0     H21188   4.418   3.346   7.321  1.9408 -2.1054 -1.6092
  161MOL0     H21189   4.383   3.398   7.543 -0.1292 -0.7590 -0.7880
  161MOL0     H21190   4.227   3.409   7.457 -2.1149  0.0437  2.8839
  161MOL0     H21191   4.152   3.576   7.610  2.0375  3.8238  1.3724
  161MOL0     H21192   4.307   3.572   7.690 -0.3481  0.9975 -1.1649
  161MOL0     H21193   4.142   3.455   7.826  0.6784 -1.0704  0.4375
  161MOL0     H21194   4.241   3.319   7.756  1.6975  0.5006 -2.4711
  161MOL0     H21195   3.969   3.415   7.671 -3.6539 -2.6874 -1.2679
  161MOL0     H21196   4.069   3.293   7.581 -0.7736 -1.3535  0.7242
  161MOL0     H21197   4.054   3.165   7.801 -0.4035 -0.2903  0.6107
  161MOL0     H21198   3.907   3.177   7.699 -0.0514  1.0825 -0.3305
  161MOL0     H21199   3.811   3.349   7.820  1.1413  0.6975  0.0129
  161MOL0     H21200   3.947   3.362   7.934  0.3387 -0.5907  0.0769
  161MOL0     H21201   3.762   3.135   7.900  0.6874  1.0427 -1.4947
  161MOL0     H21202   3.907   3.137   8.014 -1.7334 -1.9163 -0.4221
  161MOL0     H21203   3.687   3.351   8.044 -1.0263 -0.6604  2.5080
  161MOL0     H21204   3.789   3.292   8.164  0.0413 -0.4198  0.2628
  161MOL0     H21205   3.672   3.146   8.337 -1.9280  1.3245 -0.1110
  161MOL0     H21206   3.313   3.021   8.376  0.4240 -2.8424  0.8435
  161MOL0     H21207   3.446   3.070   8.475 -1.1784  0.1748  0.4741
  161MOL0     H21208   3.546   2.848   8.398 -0.3901 -0.5546 -1.9176
  161MOL0     H21209   3.399   2.829   8.294 -0.2217  1.6655 -1.4568
  161MOL0     H21210   3.402   2.826   8.609 -3.1594  0.8911  1.1164
  161MOL0     H21211   3.254   2.837   8.512 -1.6140 -0.5896  0.6405
  161MOL0     H21212   3.467   2.624   8.489  1.9967  6.3621 -0.9519
  161MOL0     H21213   3.328   2.635   8.382  3.5803  3.2735 -1.4992
  161MOL0     H21214   3.152   2.485   8.747 -0.4184  3.1777  0.9594
  161MOL0     H21215   2.909   2.430   8.738 -3.9879 -0.7824 -1.8370
  161MOL0     H21216   2.557   2.501   8.867  0.6308 -0.1684 -0.6582
  161MOL0     H21217   2.330   2.459   8.929 -1.4504 -0.7628  0.1268
  161MOL0     H21218   2.035   2.265   8.624  2.5202  0.9394  0.5328
  161MOL0     H21219   1.949   2.301   8.770  0.6792  0.7859  0.3345
  161MOL0     H21220   2.157   2.093   8.819 -0.8252 -0.7552  0.3985
  161MOL0     H21221   2.085   2.060   8.668  0.5742 -0.7086  0.9402
  161MOL0     H21222   1.864   2.072   8.775  2.1218  2.1823 -3.4097
  161MOL0     H21223   1.944   2.110   8.930  0.2588 -1.5602  1.0873
  161MOL0     H21224   2.033   1.861   8.763  2.5142 -1.1138  1.7339
  161MOL0     H21225   2.082   1.907   8.923  1.0831  0.2322 -0.6907
  161MOL0     H21226   1.834   1.881   8.991 -0.3919 -0.8119  0.0973
  161MOL0     H21227   1.934   1.733   8.960 -1.4483 -1.3159 -0.4677
  161MOL0     H21228   1.847   1.691   8.765 -0.1314 -0.1889 -0.6454
  161MOL0     H21229   1.765   1.855   8.735  0.3924 -1.1460 -1.3967
  161MOL0     H21230   1.636   1.620   8.905 -0.5873  0.0426  0.3049
  161MOL0     H21231   1.619   1.801   8.937 -1.1074 -0.9260  0.0597
  161MOL0     H21232   1.566   1.649   8.688  1.4387  0.4981  0.7364
  161MOL0     H21233   1.548   1.824   8.687 -0.0959 -1.6871 -2.5026
  161MOL0     H21234   2.264   2.277   8.535 -0.2984 -0.8187  0.7445
  161MOL0     H21235   2.520   2.296   8.498  0.6751 -0.4422  1.1900
  161MOL0     H21236   2.878   2.649   8.369 -2.6415 -2.5379  1.2310
  161MOL0     H21237   3.135   2.690   8.379  3.7782 -2.8394  0.9933
  161MOL0     H21238   4.465   3.761   7.339 -3.2861 -1.3025 -0.1571
  161MOL0     H21239   4.651   3.750   7.161  2.0351 -0.8638  0.3961
  161MOL0     H21240   4.869   3.339   6.744  1.5522 -0.4958 -1.2465
  161MOL0     H21241   5.032   3.398   6.579 -2.4572 -1.8705  2.4847
  161MOL0     H21242   5.165   3.539   6.417  2.1111  3.5004 -1.6029
  161MOL0     H21243   5.262   3.433   6.535 -0.4520  0.4924  1.7678
  161MOL0     H21244   5.438   3.603   6.516 -0.6722 -1.9896  0.3466
  161MOL0     H21245   5.396   3.499   6.372 -2.4654 -1.3741 -0.0664
  161MOL0     H21246   5.342   3.800   6.405 -0.3667  0.6150 -1.4741
  161MOL0     H21247   5.265   3.686   6.289 -0.4863 -1.7038  1.0292
  161MOL0     H21248   5.566   3.716   6.330 -0.6769  0.1230 -0.6550
  161MOL0     H21249   5.479   3.633   6.200 -2.4046 -0.2298  0.1995
  161MOL0     H21250   5.561   4.052   6.105 -5.7336 -0.4929 -2.6062
  161MOL0     H21251   5.103   3.755   6.817 -0.1721  1.1409 -1.7701
  161MOL0     H21252   4.936   3.694   6.961 -3.7976 -0.6645 -0.9557
  162MOL0     O21253   7.715   6.158   8.981  0.1413  0.2950  0.0364
  162MOL0     C21254   7.680   6.048   8.942  0.1266 -0.0295 -0.1966
  162MOL0     O21255   7.759   5.964   8.867  0.3418 -0.1485  0.3211
  162MOL0     C21256   7.878   6.017   8.816  0.0365  0.4796 -0.6028
  162MOL0     C21257   7.887   6.031   8.679 -0.3987  0.6604 -0.3762
  162MOL0     C21258   8.002   6.095   8.635  0.4896  0.3164 -0.5459
  162MOL0     C21259   8.112   6.137   8.719  0.5554 -0.0530  0.5574
  162MOL0     O21260   8.224   6.208   8.672 -0.1804 -0.2107  0.6064
  162MOL0     C21261   8.214   6.288   8.557  0.0045 -0.7533  0.3713
  162MOL0     C21262   8.345   6.360   8.542 -0.3794  1.1016  0.2432
  162MOL0     C21263   8.344   6.452   8.416 -0.9498 -0.4828 -0.7300
  162MOL0     C21264   8.494   6.479   8.374  0.3048 -0.4622  0.1846
  162MOL0     C21265   8.508   6.552   8.237  0.2687  0.1979 -0.0890
  162MOL0     C21266   8.444   6.689   8.244 -0.2391  0.0076  0.8129
  162MOL0     C21267   8.473   6.768   8.113  0.3373  0.5785  0.1228
  162MOL0     C21268   8.363   6.878   8.090 -0.0509  0.2322  0.2868
  162MOL0     N21269   8.227   6.832   8.096  0.1398  0.0546  0.4776
  162MOL0     C21270   8.146   6.789   7.985  0.0478  0.7801 -0.4927
  162MOL0     C21271   8.020   6.789   8.038 -0.4790 -0.3800 -0.3260
  162MOL0     C21272   7.891   6.754   7.964 -0.5780 -0.3540  0.0079
  162MOL0     C21273   7.857   6.838   7.840  0.8589 -0.8182 -0.9759
  162MOL0     C21274   7.847   6.992   7.872  0.1011 -0.1903  0.5505
  162MOL0     C21275   7.865   7.081   7.748 -0.2076  0.1346  0.5393
  162MOL0     O21276   7.759   7.078   7.651  0.1265 -0.2025  0.3186
  162MOL0     C21277   7.631   7.113   7.696  0.8713 -0.0042 -0.8453
  162MOL0     C21278   7.528   7.025   7.668 -0.7639  0.1181  0.1708
  162MOL0     C21279   7.399   7.051   7.719  0.2962 -0.2717 -0.1211
  162MOL0     C21280   7.376   7.173   7.794 -0.2682 -0.6832  0.1481
  162MOL0     C21281   7.233   7.210   7.826  0.3013 -0.1693 -0.2205
  162MOL0     O21282   7.137   7.119   7.796  0.2074 -0.1601 -0.0803
  162MOL0     C21283   7.002   7.153   7.799  0.3422 -1.1133  0.6153
  162MOL0     C21284   6.952   7.278   7.766  0.6684  0.1660 -0.1014
  162MOL0     C21285   6.811   7.306   7.789  0.4668 -0.7220 -0.0137
  162MOL0     C21286   6.718   7.199   7.816 -1.2231 -0.3973  0.8101
  162MOL0     O21287   6.587   7.235   7.827  0.5680  1.3226 -0.3992
  162MOL0     C21288   6.519   7.184   7.946  0.0447  0.0572 -0.8366
  162MOL0     C21289   6.368   7.183   7.924  0.4763 -0.1261 -0.2477
  162MOL0     C21290   6.304   7.303   7.859  0.5362 -0.0518 -0.8408
  162MOL0     C21291   6.334   7.316   7.708 -0.1280 -0.2102  0.9750
  162MOL0     C21292   6.229   7.394   7.620  0.0273  0.2024  0.2366
  162MOL0     C21293   6.251   7.549   7.638  0.4114 -0.4585  0.6748
  162MOL0     C21294   6.296   7.606   7.506  0.2693  0.5596  0.2317
  162MOL0     C21295   6.308   7.753   7.526 -0.1839 -0.6084  0.7138
  162MOL0    Cl21296   6.308   7.848   7.367  0.0401  0.4217 -0.0977
  162MOL0     C21297   6.776   7.069   7.824 -0.4379  0.6305 -0.3009
  162MOL0     C21298   6.916   7.053   7.816  1.0806 -0.0115 -0.0205
  162MOL0     O21299   7.211   7.320   7.881 -0.3844  0.1184  0.5374
  162MOL0     C21300   7.480   7.259   7.822 -0.3668  0.5905 -0.2149
  162MOL0     C21301   7.601   7.231   7.762  0.6026 -0.9844 -0.5944
  162MOL0     N21302   8.027   6.844   8.168  0.2674  0.2836 -0.2886
  162MOL0     N21303   8.141   6.871   8.194  0.3951 -0.3993 -0.2342
  162MOL0     C21304   8.090   6.117   8.857 -0.2044 -0.9844  1.8565
  162MOL0     C21305   7.973   6.060   8.904 -0.0651 -0.2693 -0.6021
  162MOL0     C21306   7.551   5.999   8.988  0.7790  0.2361 -0.2273
  162MOL0     C21307   7.510   6.028   9.122  0.3580  0.2642 -0.0268
  162MOL0     C21308   7.389   5.984   9.164 -0.0945 -0.0036 -0.2559
  162MOL0     C21309   7.298   5.904   9.083 -0.7004 -0.3880  0.2218
  162MOL0     O21310   7.196   5.830   9.129  0.1923 -0.1750  0.7410
  162MOL0     C21311   7.170   5.828   9.279  0.8218 -0.1124  0.9064
  162MOL0     C21312   7.029   5.764   9.296 -0.2096 -0.0321  0.2125
  162MOL0     C21313   7.011   5.710   9.439 -0.3013 -0.1450  0.0231
  162MOL0     C21314   6.878   5.655   9.447 -0.7464  0.1977  0.4707
  162MOL0     C21315   6.833   5.616   9.585  0.9825 -0.8037  0.3934
  162MOL0     C21316   6.808   5.594   9.703  0.7256  0.1444  0.5646
  162MOL0     C21317   7.342   5.876   8.950 -0.2843  0.2950 -0.3372
  162MOL0     C21318   7.471   5.909   8.914  0.0958  0.1037  0.2145
  162MOL0     H21319   7.803   6.011   8.614  0.2071  1.5436 -1.4800
  162MOL0     H21320   8.023   6.103   8.528  1.5759 -0.6269 -0.4257
  162MOL0     H21321   8.135   6.363   8.558  1.4610  0.8511 -0.0387
  162MOL0     H21322   8.190   6.224   8.472 -1.4801  1.6160 -1.1015
  162MOL0     H21323   8.422   6.283   8.530 -0.3756  1.0960  0.3056
  162MOL0     H21324   8.365   6.414   8.635 -0.3275  1.2939  0.1222
  162MOL0     H21325   8.299   6.548   8.446  0.7703 -0.2679  1.3430
  162MOL0     H21326   8.286   6.405   8.335 -1.1566 -1.5129  0.0032
  162MOL0     H21327   8.550   6.532   8.452  0.4395  0.2644 -0.3969
  162MOL0     H21328   8.541   6.382   8.355 -1.0868 -0.7426 -2.2298
  162MOL0     H21329   8.478   6.495   8.149  0.6846  0.1916 -0.2275
  162MOL0     H21330   8.616   6.566   8.230  0.4382 -1.5365 -1.5397
  162MOL0     H21331   8.483   6.741   8.332 -1.5926 -0.3169  1.6315
  162MOL0     H21332   8.337   6.671   8.250 -0.2485 -0.5334 -0.6457
  162MOL0     H21333   8.580   6.791   8.113  0.2738  0.9301  1.3651
  162MOL0     H21334   8.461   6.693   8.033  0.2881 -0.2472  0.8913
  162MOL0     H21335   8.374   6.937   7.999  1.6579 -1.4271 -0.6554
  162MOL0     H21336   8.388   6.956   8.162  3.5214 -1.5554  1.2312
  162MOL0     H21337   8.191   6.763   7.889  2.6117  2.0714  0.2765
  162MOL0     H21338   7.812   6.755   8.040  0.6542  1.3203  1.3691
  162MOL0     H21339   7.897   6.651   7.928  0.0071 -0.1356 -0.5375
  162MOL0     H21340   7.758   6.808   7.804 -1.3137  0.9850  2.8565
  162MOL0     H21341   7.937   6.827   7.766  0.6919  3.2011 -1.9975
  162MOL0     H21342   7.752   7.014   7.922  0.1028  1.9319 -0.2301
  162MOL0     H21343   7.933   7.026   7.930  2.4545  0.5866 -3.0315
  162MOL0     H21344   7.960   7.056   7.701  0.6501 -2.6583  3.4519
  162MOL0     H21345   7.870   7.188   7.770 -1.4752  0.8862 -2.3749
  162MOL0     H21346   7.538   6.937   7.606 -0.5544  2.2658 -3.1014
  162MOL0     H21347   7.332   6.970   7.692  0.1031 -0.5174  1.0226
  162MOL0     H21348   7.023   7.360   7.755  1.5902 -0.4213  1.2246
  162MOL0     H21349   6.773   7.407   7.782  2.2355  0.0669  1.0509
  162MOL0     H21350   6.538   7.237   8.040 -2.4130 -1.2905  0.5287
  162MOL0     H21351   6.561   7.086   7.967  2.3600  1.5005  2.0711
  162MOL0     H21352   6.321   7.173   8.022  1.5691 -0.1353  0.2874
  162MOL0     H21353   6.354   7.090   7.868 -2.2377 -0.3794  0.7114
  162MOL0     H21354   6.336   7.388   7.920  1.7278 -1.1418  0.1367
  162MOL0     H21355   6.197   7.298   7.883  0.5901  3.3150  0.7038
  162MOL0     H21356   6.431   7.364   7.690 -0.3152 -0.3920 -0.6188
  162MOL0     H21357   6.349   7.219   7.661 -3.1727  0.7342 -2.3633
  162MOL0     H21358   6.122   7.376   7.633 -0.3057  1.1093 -1.0396
  162MOL0     H21359   6.256   7.368   7.517  0.6652  3.9579 -0.6931
  162MOL0     H21360   6.315   7.575   7.724 -2.9411  4.0192  2.2170
  162MOL0     H21361   6.154   7.597   7.657  0.0266 -1.1536  0.5025
  162MOL0     H21362   6.387   7.554   7.477  0.1936 -0.3208  1.4731
  162MOL0     H21363   6.218   7.585   7.432 -0.0557  1.1126  0.4114
  162MOL0     H21364   6.399   7.772   7.584  1.4441  0.3013 -1.9573
  162MOL0     H21365   6.222   7.797   7.577 -2.0724 -0.3134 -2.4620
  162MOL0     H21366   6.709   6.984   7.839  0.5512 -0.7930 -3.2355
  162MOL0     H21367   6.943   6.949   7.835 -3.1014 -1.0950  1.0507
  162MOL0     H21368   7.465   7.355   7.870 -1.1281  0.3229  0.0936
  162MOL0     H21369   7.673   7.311   7.774 -1.2076  0.6420 -0.1259
  162MOL0     H21370   8.168   6.149   8.925 -0.0762 -0.5288  1.4971
  162MOL0     H21371   7.945   6.043   9.007 -1.0084 -4.6386 -1.3905
  162MOL0     H21372   7.573   6.091   9.184  1.9877 -1.2162 -0.0863
  162MOL0     H21373   7.363   5.986   9.269  2.6873  0.8321  0.5114
  162MOL0     H21374   7.181   5.928   9.322  3.0475  0.6190 -1.0917
  162MOL0     H21375   7.249   5.763   9.319  1.4892 -1.3600 -2.1288
  162MOL0     H21376   6.947   5.826   9.260 -0.1118 -0.3226 -0.5167
  162MOL0     H21377   7.025   5.686   9.219  2.0126  1.4548 -1.5584
  162MOL0     H21378   7.015   5.795   9.507  0.8367 -1.4039  1.6027
  162MOL0     H21379   7.086   5.637   9.471 -3.1053 -3.6372 -0.7804
  162MOL0     H21380   6.808   5.732   9.413  1.1937  2.6751  1.7890
  162MOL0     H21381   6.871   5.564   9.387 -2.9538 -0.0590  1.0247
  162MOL0     H21382   6.793   5.574   9.808  3.5726  2.2758  1.4925
  162MOL0     H21383   7.282   5.819   8.880 -0.2890  2.2960 -2.0553
  162MOL0     H21384   7.504   5.894   8.812 -1.0024  3.2552 -0.7341
  163MOL0     O21385  10.605   0.576   0.090  0.1885  0.1020  0.2800
  163MOL0     C21386  10.623   0.629   0.201  0.0994 -0.1008 -0.0727
  163MOL0     O21387  10.526   0.686   0.277 -0.3555  0.3297  0.3111
  163MOL0     C21388  10.410   0.726   0.232  0.7074  0.1650 -0.0948
  163MOL0     C21389  10.307   0.717   0.327  0.4841 -0.3782  0.4664
  163MOL0     C21390  10.177   0.768   0.296  0.6645 -0.1237  0.4045
  163MOL0     C21391  10.150   0.815   0.167  0.0851  0.8570  0.1457
  163MOL0     O21392  10.017   0.830   0.132 -0.0315  0.2934 -0.0565
  163MOL0     C21393   9.979   0.961   0.089 -0.4399 -0.2435 -0.3372
  163MOL0     C21394   9.894   0.930  -0.039  0.5400 -0.4328  0.0796
  163MOL0     C21395   9.761   0.853   0.006 -0.6424  0.0790 -0.0845
  163MOL0     C21396   9.696   0.812  -0.116  0.7845  0.4996  0.3417
  163MOL0     C21397   9.561   0.741  -0.087 -0.4668  0.2556  0.3793
  163MOL0     C21398   9.531   0.654  -0.217  0.0941 -0.8798  0.4529
  163MOL0     C21399   9.384   0.598  -0.221 -0.2414 -0.4126  0.6596
  163MOL0     C21400   9.371   0.458  -0.175  0.8899  0.7224 -0.4809
  163MOL0     N21401   9.227   0.412  -0.185  0.1169 -0.9495 -0.1040
  163MOL0     C21402   9.149   0.400  -0.303 -0.1633  1.2178 -0.4438
  163MOL0     C21403   9.043   0.323  -0.260 -0.4381  0.3843 -0.6234
  163MOL0     C21404   8.936   0.271  -0.362  0.0653  0.0483 -0.1918
  163MOL0     C21405   8.798   0.335  -0.340 -0.1123 -0.3301  0.3350
  163MOL0     C21406   8.797   0.485  -0.389  0.1056 -0.4394  0.5455
  163MOL0     C21407   8.657   0.543  -0.433 -0.8379 -0.5429 -0.7727
  163MOL0     O21408   8.608   0.463  -0.542 -0.6318 -0.3060 -0.9770
  163MOL0     C21409   8.474   0.474  -0.578  0.4528 -0.3985 -0.0512
  163MOL0     C21410   8.421   0.385  -0.675 -0.1710 -0.8390 -0.2370
  163MOL0     C21411   8.295   0.404  -0.720 -0.6976 -0.8259  0.2103
  163MOL0     C21412   8.214   0.519  -0.691 -0.0107  0.0962 -0.3374
  163MOL0     C21413   8.085   0.533  -0.751  0.2320  0.4388  0.1516
  163MOL0     O21414   8.021   0.652  -0.738 -0.7427  0.4496  0.0597
  163MOL0     C21415   7.911   0.663  -0.819  0.3595 -0.1051 -0.3450
  163MOL0     C21416   7.917   0.658  -0.957  0.4364  0.5325 -0.3011
  163MOL0     C21417   7.791   0.654  -1.018  0.0644 -0.4616  0.3227
  163MOL0     C21418   7.672   0.673  -0.953  0.1028  0.2380  0.3285
  163MOL0     O21419   7.558   0.683  -1.030 -0.6699 -0.5143 -0.3962
  163MOL0     C21420   7.460   0.605  -0.985 -0.0612 -0.4163 -0.1887
  163MOL0     C21421   7.341   0.598  -1.079 -0.4627  0.7716 -0.2708
  163MOL0     C21422   7.250   0.485  -1.031  0.3289  0.4100  0.1103
  163MOL0     C21423   7.116   0.456  -1.111  0.2440 -0.5567  0.7941
  163MOL0     C21424   7.030   0.346  -1.035  0.0822 -0.2814  0.3164
  163MOL0     C21425   6.893   0.293  -1.105 -1.1350  0.6572 -0.6820
  163MOL0     C21426   6.776   0.380  -1.055 -0.8828  0.6819 -0.2635
  163MOL0     C21427   6.646   0.312  -1.087 -0.0800  0.1102 -0.3610
  163MOL0    Cl21428   6.631   0.136  -1.055  0.0051  0.0603  0.2345
  163MOL0     C21429   7.675   0.695  -0.811  0.5289 -0.3809 -0.2180
  163MOL0     C21430   7.792   0.687  -0.743 -0.1951  0.0913  0.2053
  163MOL0     O21431   8.036   0.432  -0.801  0.3141 -0.5242  0.1398
  163MOL0     C21432   8.259   0.602  -0.587 -0.2939  0.3463 -0.1414
  163MOL0     C21433   8.389   0.581  -0.536  0.3294  0.5851 -0.3032
  163MOL0     N21434   9.068   0.295  -0.121 -0.3947 -0.0127  0.1283
  163MOL0     N21435   9.171   0.353  -0.082 -0.5135  0.5439  0.4682
  163MOL0     C21436  10.248   0.814   0.072 -0.0512  0.6469 -0.1538
  163MOL0     C21437  10.381   0.774   0.102 -1.1376 -0.0589 -0.0028
  163MOL0     C21438  10.754   0.614   0.262 -0.6543  0.3911  1.1062
  163MOL0     C21439  10.778   0.663   0.395  0.2133  0.2202  0.0789
  163MOL0     C21440  10.905   0.662   0.455  1.0217  0.1090  0.2815
  163MOL0     C21441  11.010   0.613   0.377  0.1689  0.0321 -0.1553
  163MOL0     O21442  11.136   0.610   0.439  0.4501 -0.1293 -0.8205
  163MOL0     C21443  11.265   0.585   0.383 -0.3446  0.2140  0.0737
  163MOL0     C21444  11.343   0.469   0.445 -0.6704 -0.3953 -0.1910
  163MOL0     C21445  11.472   0.431   0.368 -0.1156  0.8495  0.1668
  163MOL0     C21446  11.586   0.529   0.362  0.1541  0.4241  0.1679
  163MOL0     C21447  11.637   0.535   0.501 -0.7294 -0.4707 -0.3383
  163MOL0     C21448  11.667   0.534   0.620  0.2217  0.4904  0.3402
  163MOL0     C21449  10.989   0.556   0.257 -0.3918  0.7407 -0.5561
  163MOL0     C21450  10.861   0.558   0.196  0.4885  0.0120  0.0024
  163MOL0     H21451  10.324   0.658   0.416  0.0940 -0.1922  0.6705
  163MOL0     H21452  10.092   0.765   0.363 -0.5173  0.8862 -0.9772
  163MOL0     H21453  10.064   1.022   0.057  0.0761 -0.9428 -0.3375
  163MOL0     H21454   9.927   1.022   0.163 -0.3806  0.4518 -0.8561
  163MOL0     H21455   9.953   0.860  -0.098 -1.8435 -1.2399 -1.5090
  163MOL0     H21456   9.869   1.021  -0.093  1.0609 -0.3988 -0.1071
  163MOL0     H21457   9.694   0.924   0.056 -0.7230 -0.7858  1.0805
  163MOL0     H21458   9.763   0.755   0.055 -0.5102  0.0969 -0.0542
  163MOL0     H21459   9.679   0.902  -0.176  0.7008 -0.5315 -1.2371
  163MOL0     H21460   9.758   0.750  -0.182 -2.5522  0.4168 -3.0512
  163MOL0     H21461   9.484   0.816  -0.064 -1.9611 -1.0863 -0.0625
  163MOL0     H21462   9.576   0.695   0.011  0.0859  1.4030  0.8552
  163MOL0     H21463   9.601   0.572  -0.235 -0.3648 -1.1437 -0.1420
  163MOL0     H21464   9.555   0.712  -0.307  0.0813 -0.7935  0.5042
  163MOL0     H21465   9.316   0.650  -0.153 -0.1061 -0.1747  0.6113
  163MOL0     H21466   9.354   0.605  -0.326  2.2613 -0.8916 -0.1605
  163MOL0     H21467   9.409   0.432  -0.076  3.7276 -0.3291 -1.7161
  163MOL0     H21468   9.429   0.398  -0.246  0.1586 -0.3087 -0.2326
  163MOL0     H21469   9.165   0.440  -0.403  2.9588 -0.0193 -0.5799
  163MOL0     H21470   8.927   0.162  -0.362 -1.9899  0.1592 -1.5731
  163MOL0     H21471   8.980   0.296  -0.459 -1.6346  4.8344  0.0247
  163MOL0     H21472   8.763   0.336  -0.237 -0.1597 -0.3631  0.3193
  163MOL0     H21473   8.717   0.285  -0.394 -0.3451 -1.0138  1.2897
  163MOL0     H21474   8.841   0.541  -0.306  1.5471 -1.0138  0.1823
  163MOL0     H21475   8.858   0.487  -0.479 -0.0923 -1.6493  0.3655
  163MOL0     H21476   8.687   0.644  -0.460  1.6807 -0.4975  1.7451
  163MOL0     H21477   8.584   0.534  -0.351 -0.0075 -1.5260 -0.1123
  163MOL0     H21478   8.486   0.301  -0.700  0.7926 -0.2008  0.0518
  163MOL0     H21479   8.238   0.336  -0.782 -0.0454  0.4934 -1.9606
  163MOL0     H21480   8.009   0.648  -1.014 -1.1883  1.5589 -3.3040
  163MOL0     H21481   7.788   0.653  -1.127 -1.3666 -0.1055  0.3320
  163MOL0     H21482   7.423   0.645  -0.890 -0.5755 -1.4203  0.0483
  163MOL0     H21483   7.499   0.504  -0.970 -2.7282 -1.8442 -2.0622
  163MOL0     H21484   7.364   0.580  -1.184 -1.8269  3.5902 -1.1475
  163MOL0     H21485   7.298   0.697  -1.065  1.2914  1.2243  2.9479
  163MOL0     H21486   7.233   0.494  -0.923  1.9804 -1.1789  0.5569
  163MOL0     H21487   7.309   0.393  -1.035  1.3620  1.0223  0.9458
  163MOL0     H21488   7.055   0.547  -1.116 -1.9809 -2.0354 -1.6355
  163MOL0     H21489   7.134   0.424  -1.214  2.2812 -1.0116  1.2475
  163MOL0     H21490   7.007   0.376  -0.933 -4.1905 -0.1526 -0.4989
  163MOL0     H21491   7.085   0.252  -1.019 -1.9461 -1.6078 -0.1926
  163MOL0     H21492   6.878   0.193  -1.064 -0.7364  1.0446  0.4364
  163MOL0     H21493   6.900   0.273  -1.213  1.3019  0.9651 -0.6410
  163MOL0     H21494   6.781   0.395  -0.947  0.9174  1.5397 -0.4178
  163MOL0     H21495   6.779   0.476  -1.108 -1.3120 -0.1041 -1.7808
  163MOL0     H21496   6.630   0.305  -1.196 -1.9294 -2.0644 -0.0476
  163MOL0     H21497   6.566   0.372  -1.043 -2.2784 -2.8176  0.0451
  163MOL0     H21498   7.579   0.713  -0.764 -0.0866 -3.1230 -0.2713
  163MOL0     H21499   7.786   0.695  -0.635  1.7823  0.7275  0.3031
  163MOL0     H21500   8.191   0.674  -0.544  0.2566 -0.2982  1.8943
  163MOL0     H21501   8.414   0.641  -0.449 -1.9551  0.9294  0.1717
  163MOL0     H21502  10.224   0.858  -0.024  0.6636  1.6289  0.0896
  163MOL0     H21503  10.459   0.777   0.026  1.5356  2.1845  2.5424
  163MOL0     H21504  10.693   0.703   0.450 -0.5444 -0.3368 -0.6392
  163MOL0     H21505  10.926   0.714   0.547  1.2862  0.4392  0.0370
  163MOL0     H21506  11.320   0.680   0.377  0.8026 -0.4085  0.5092
  163MOL0     H21507  11.251   0.547   0.282  1.6341 -1.4785  0.3760
  163MOL0     H21508  11.362   0.503   0.547 -0.8485  2.0718 -0.9122
  163MOL0     H21509  11.289   0.375   0.431 -0.3460 -0.4429 -1.2066
  163MOL0     H21510  11.452   0.379   0.274  2.2556 -3.8441  1.9144
  163MOL0     H21511  11.510   0.341   0.418  0.5350  1.8301  1.5077
  163MOL0     H21512  11.665   0.494   0.297  0.4060  1.3574 -0.0447
  163MOL0     H21513  11.558   0.628   0.326  0.7244  1.3134  2.0341
  163MOL0     H21514  11.680   0.509   0.724 -1.4180 -0.3866  0.3667
  163MOL0     H21515  11.060   0.514   0.187  0.2755  1.7469 -0.5092
  163MOL0     H21516  10.847   0.511   0.099  0.2091 -0.1837  0.1408
  164MOL0     O21517   7.975   8.978   0.327 -0.3139 -0.6865 -0.7014
  164MOL0     C21518   7.952   9.048   0.227  0.2376  0.3770 -0.1023
  164MOL0     O21519   7.828   9.083   0.179 -0.2379 -0.5218 -0.2643
  164MOL0     C21520   7.717   9.041   0.244 -0.1613 -0.4889  0.3071
  164MOL0     C21521   7.693   9.087   0.378  0.1072  0.4449  0.8734
  164MOL0     C21522   7.585   9.036   0.447 -0.2595 -0.8636 -0.0011
  164MOL0     C21523   7.491   8.957   0.394  0.7478  0.2743 -0.1543
  164MOL0     O21524   7.366   8.957   0.454  0.2655 -0.2911  0.6330
  164MOL0     C21525   7.331   8.838   0.527 -0.3835 -0.3541  0.0229
  164MOL0     C21526   7.181   8.862   0.561 -0.0675  0.4289  0.3745
  164MOL0     C21527   7.166   8.992   0.636  0.4349 -0.7012  0.5081
  164MOL0     C21528   7.028   9.005   0.695 -0.4934  1.0022  0.1993
  164MOL0     C21529   6.930   9.074   0.598 -0.1023 -0.0366 -0.1218
  164MOL0     C21530   6.783   9.051   0.638 -0.0021 -0.6318  0.3960
  164MOL0     C21531   6.679   9.154   0.581  0.0320 -0.5163  0.1978
  164MOL0     C21532   6.537   9.146   0.648  0.1396  0.2233  0.5371
  164MOL0     N21533   6.493   9.007   0.673  0.2907 -0.4832 -0.1831
  164MOL0     C21534   6.453   8.920   0.572 -0.7431  0.0867 -0.1459
  164MOL0     C21535   6.432   8.797   0.641 -0.6245 -0.3349  0.4690
  164MOL0     C21536   6.376   8.671   0.577  0.8840  0.6862 -0.8208
  164MOL0     C21537   6.227   8.671   0.602 -0.5332 -0.3042 -0.2716
  164MOL0     C21538   6.189   8.641   0.745  0.1703 -0.0296 -0.1654
  164MOL0     C21539   6.037   8.693   0.765  0.3694 -0.2777 -0.1612
  164MOL0     O21540   5.963   8.624   0.665  0.5605  0.4437 -0.2681
  164MOL0     C21541   5.836   8.669   0.639  0.4505  0.2626 -0.3768
  164MOL0     C21542   5.730   8.667   0.736 -0.0861 -0.2159  0.6686
  164MOL0     C21543   5.602   8.712   0.699  0.0554 -0.4867 -0.2687
  164MOL0     C21544   5.566   8.767   0.574 -0.1205 -0.1712  0.7260
  164MOL0     C21545   5.431   8.822   0.552  0.1936 -0.6004 -0.6310
  164MOL0     O21546   5.329   8.790   0.636 -0.0923 -0.1255  0.0772
  164MOL0     C21547   5.211   8.839   0.594  0.4091  0.6732 -0.0313
  164MOL0     C21548   5.175   8.973   0.581  0.3206 -0.8097  0.3906
  164MOL0     C21549   5.042   9.006   0.564  0.5262  0.6679 -0.2180
  164MOL0     C21550   4.949   8.906   0.532  0.9911  0.1591  1.5524
  164MOL0     O21551   4.823   8.942   0.487  0.5734  0.4035 -0.4512
  164MOL0     C21552   4.785   9.075   0.458 -0.2220 -0.7430 -1.0322
  164MOL0     C21553   4.821   9.123   0.317 -0.4305 -0.1758  0.1398
  164MOL0     C21554   4.791   9.273   0.315  0.2680  1.3261 -0.9315
  164MOL0     C21555   4.820   9.331   0.175 -0.9163 -0.4877 -0.0877
  164MOL0     C21556   4.827   9.490   0.174  0.0628  0.8527 -0.5911
  164MOL0     C21557   4.699   9.563   0.222  0.7101 -0.8228 -0.3361
  164MOL0     C21558   4.566   9.519   0.146  0.7325 -0.0451 -0.5101
  164MOL0     C21559   4.447   9.598   0.199 -0.5638  0.4933 -0.4453
  164MOL0    Cl21560   4.297   9.506   0.138  0.4162 -0.1005  0.2588
  164MOL0     C21561   4.982   8.774   0.531  0.3657  0.1756  0.4323
  164MOL0     C21562   5.113   8.742   0.558 -0.5266 -0.5083 -0.0694
  164MOL0     O21563   5.428   8.893   0.448  0.5374  0.5298 -0.1294
  164MOL0     C21564   5.677   8.759   0.478  1.6184  0.8775  0.2866
  164MOL0     C21565   5.801   8.709   0.519  0.1264  0.1965 -0.8846
  164MOL0     N21566   6.467   8.817   0.770  0.6330  0.8127 -0.3162
  164MOL0     N21567   6.504   8.937   0.793 -0.2476  0.2565 -0.2647
  164MOL0     C21568   7.504   8.914   0.262 -0.2822 -0.0793 -0.0443
  164MOL0     C21569   7.617   8.954   0.182  0.0546 -0.3260 -0.3305
  164MOL0     C21570   8.064   9.098   0.148 -0.4516  0.2011 -0.0403
  164MOL0     C21571   8.200   9.090   0.195  0.2212 -1.0475  0.0538
  164MOL0     C21572   8.312   9.127   0.119 -0.3791 -0.0475 -0.5204
  164MOL0     C21573   8.302   9.171  -0.009 -0.3834  0.7046  0.0644
  164MOL0     O21574   8.406   9.202  -0.091  0.2718  0.6551 -0.3325
  164MOL0     C21575   8.542   9.161  -0.075 -0.0273 -0.1763 -1.1701
  164MOL0     C21576   8.620   9.165  -0.208 -0.5836  0.1232 -1.1737
  164MOL0     C21577   8.760   9.119  -0.169 -0.6154 -0.0035 -0.0069
  164MOL0     C21578   8.844   9.090  -0.298  0.0561  0.7506 -0.8555
  164MOL0     C21579   8.969   9.022  -0.256  0.1699 -0.3808  0.2715
  164MOL0     C21580   9.069   8.965  -0.221 -0.4078 -0.5614  0.0225
  164MOL0     C21581   8.168   9.186  -0.060  0.0834 -0.1288  0.2015
  164MOL0     C21582   8.051   9.145   0.015 -0.7296  0.3262  1.4382
  164MOL0     H21583   7.753   9.162   0.428  1.9975 -1.2027  1.1934
  164MOL0     H21584   7.563   9.075   0.546  0.1171  0.4338 -0.4090
  164MOL0     H21585   7.390   8.830   0.618 -1.4695 -0.2497  0.7546
  164MOL0     H21586   7.343   8.752   0.461 -1.7591  0.4982 -1.4055
  164MOL0     H21587   7.138   8.781   0.622  1.2631 -1.3400 -0.9262
  164MOL0     H21588   7.130   8.866   0.464  1.2946 -0.2798 -0.4040
  164MOL0     H21589   7.173   9.070   0.559  1.6510 -1.0351  0.2538
  164MOL0     H21590   7.238   9.008   0.717 -0.5732  2.8115  0.8894
  164MOL0     H21591   6.985   8.906   0.711  2.3948  0.0036  2.6415
  164MOL0     H21592   7.040   9.054   0.793  2.7592 -1.9478  1.4688
  164MOL0     H21593   6.962   9.046   0.497 -2.8142 -0.3342 -0.9876
  164MOL0     H21594   6.947   9.182   0.584  1.7681 -0.3189 -0.2985
  164MOL0     H21595   6.784   9.063   0.747 -2.5695  1.6718  0.2703
  164MOL0     H21596   6.760   8.948   0.610  2.2536 -0.7497 -1.3147
  164MOL0     H21597   6.709   9.259   0.587 -1.9631  0.1803 -1.1351
  164MOL0     H21598   6.663   9.132   0.475 -0.7838  0.0070  0.2030
  164MOL0     H21599   6.463   9.194   0.584  0.0020 -2.0569 -1.1346
  164MOL0     H21600   6.543   9.197   0.745 -2.1061  0.0174  0.8563
  164MOL0     H21601   6.430   8.943   0.469 -0.0274  2.2936  0.1175
  164MOL0     H21602   6.433   8.580   0.598  1.1051  0.8044 -0.8997
  164MOL0     H21603   6.385   8.671   0.468  0.3623 -1.2535 -0.8907
  164MOL0     H21604   6.184   8.592   0.540  0.0341 -2.3220  1.7630
  164MOL0     H21605   6.186   8.770   0.578  1.7864  1.0755  1.0481
  164MOL0     H21606   6.193   8.534   0.768 -0.2836  0.5469  3.1016
  164MOL0     H21607   6.243   8.697   0.823 -2.4377 -1.2631  2.7572
  164MOL0     H21608   6.034   8.802   0.753  2.0382 -0.2486 -0.6423
  164MOL0     H21609   6.003   8.673   0.866  0.4096 -0.3191 -0.1556
  164MOL0     H21610   5.752   8.647   0.840  3.7266  2.2092  0.5541
  164MOL0     H21611   5.519   8.690   0.766  1.3057 -0.0195  1.5086
  164MOL0     H21612   5.249   9.050   0.597  0.6849 -0.7875 -1.2221
  164MOL0     H21613   5.017   9.111   0.574 -0.5538  0.8743 -3.8382
  164MOL0     H21614   4.824   9.149   0.527 -0.1800  2.0609 -3.8309
  164MOL0     H21615   4.676   9.084   0.464 -0.2500 -1.8066  2.9417
  164MOL0     H21616   4.755   9.074   0.245 -0.6596  1.3263 -0.7147
  164MOL0     H21617   4.926   9.109   0.291 -0.2280  0.7101  0.4528
  164MOL0     H21618   4.865   9.312   0.386 -0.5013  2.1963 -0.5859
  164MOL0     H21619   4.684   9.289   0.336  0.1418  0.2045 -0.6371
  164MOL0     H21620   4.912   9.278   0.147 -0.4827  1.4713 -2.8229
  164MOL0     H21621   4.755   9.313   0.089 -1.9047  0.8570  0.3376
  164MOL0     H21622   4.857   9.522   0.074 -0.1826 -1.6810 -1.5399
  164MOL0     H21623   4.902   9.524   0.246  1.3903  0.7844 -1.9053
  164MOL0     H21624   4.710   9.672   0.222 -1.3813 -0.4804  2.4487
  164MOL0     H21625   4.692   9.540   0.328  3.9139  1.5991  0.5483
  164MOL0     H21626   4.570   9.525   0.037 -0.9980  0.1365 -0.5962
  164MOL0     H21627   4.546   9.416   0.177  0.7577 -0.6047 -2.2694
  164MOL0     H21628   4.440   9.693   0.145 -2.6361  0.4234 -0.3478
  164MOL0     H21629   4.436   9.613   0.306 -1.4240 -3.9493  0.2822
  164MOL0     H21630   4.903   8.704   0.504 -0.0786  0.1569  1.7051
  164MOL0     H21631   5.145   8.639   0.543  2.8008  0.2306  0.9354
  164MOL0     H21632   5.661   8.786   0.374 -1.0937  2.5557  1.0248
  164MOL0     H21633   5.874   8.712   0.439  1.2161 -1.9658 -0.0470
  164MOL0     H21634   7.420   8.856   0.223 -0.7728  0.3585  0.3571
  164MOL0     H21635   7.644   8.925   0.081  0.8544  1.2982 -0.6315
  164MOL0     H21636   8.209   9.076   0.303 -1.1378  2.0638  0.7081
  164MOL0     H21637   8.411   9.124   0.163 -1.7781 -2.3962  2.8906
  164MOL0     H21638   8.552   9.069  -0.016  0.7658  0.5142 -0.1908
  164MOL0     H21639   8.583   9.235  -0.006  2.6687 -2.5393 -0.0284
  164MOL0     H21640   8.587   9.091  -0.282  0.6706 -0.9595 -0.6981
  164MOL0     H21641   8.608   9.266  -0.247 -2.6250  1.4001  2.3204
  164MOL0     H21642   8.752   9.023  -0.117  0.7727  0.1924  0.6313
  164MOL0     H21643   8.825   9.187  -0.113 -0.4609  0.2397 -0.4729
  164MOL0     H21644   8.797   9.019  -0.366 -1.4865 -1.1572  2.0049
  164MOL0     H21645   8.860   9.188  -0.345 -2.3938  1.4688 -0.3366
  164MOL0     H21646   9.151   8.901  -0.193  0.9122  0.7548 -0.6678
  164MOL0     H21647   8.171   9.223  -0.162  2.4501 -0.4262  0.0865
  164MOL0     H21648   7.955   9.150  -0.035  0.4132 -0.7967 -1.0847
  165MOL0     O21649   7.148   7.222   0.063  0.3005  0.3140  0.5929
  165MOL0     C21650   7.211   7.130   0.109 -0.8495  0.1068  0.1549
  165MOL0     O21651   7.161   7.022   0.160 -0.2879  0.1845  0.5781
  165MOL0     C21652   7.028   7.010   0.201 -0.3898 -0.5382  0.2901
  165MOL0     C21653   6.962   7.117   0.266 -0.3758 -0.1066 -0.5311
  165MOL0     C21654   6.825   7.095   0.301 -0.2191  1.0485 -0.3863
  165MOL0     C21655   6.760   6.972   0.276 -0.5636 -0.4479 -0.1259
  165MOL0     O21656   6.627   6.948   0.304 -0.0234 -0.3071  0.1667
  165MOL0     C21657   6.543   7.066   0.330 -0.6121  0.5892  0.8818
  165MOL0     C21658   6.398   7.037   0.334  0.3664  0.2273  0.3403
  165MOL0     C21659   6.322   7.038   0.201 -0.5631  1.2885  0.4498
  165MOL0     C21660   6.316   7.172   0.132  0.3503  0.2397  0.4653
  165MOL0     C21661   6.206   7.164   0.015 -0.5949 -0.2160 -0.5200
  165MOL0     C21662   6.064   7.192   0.069  0.5841 -0.0826 -0.2255
  165MOL0     C21663   5.971   7.227  -0.059 -0.2648  0.0839  0.4115
  165MOL0     C21664   5.841   7.291  -0.018 -0.3586 -0.1799 -0.2914
  165MOL0     N21665   5.748   7.317  -0.132 -0.1751 -0.1113  0.3040
  165MOL0     C21666   5.774   7.292  -0.262 -0.2786  1.2217 -1.0547
  165MOL0     C21667   5.672   7.343  -0.332 -0.6761 -0.5020  0.4001
  165MOL0     C21668   5.658   7.353  -0.480  0.5751  0.0379  0.4224
  165MOL0     C21669   5.678   7.211  -0.540 -0.3951  0.2964 -0.4055
  165MOL0     C21670   5.581   7.115  -0.471  1.2799  0.3419 -0.1175
  165MOL0     C21671   5.511   7.017  -0.563  0.9600 -0.5093  0.7555
  165MOL0     O21672   5.429   7.097  -0.650  0.6381  0.1099  0.3552
  165MOL0     C21673   5.374   7.057  -0.769 -0.5994 -0.2676 -0.7080
  165MOL0     C21674   5.390   6.924  -0.813  0.9591 -0.2903  0.1881
  165MOL0     C21675   5.340   6.895  -0.946  0.6689 -0.4657  0.2468
  165MOL0     C21676   5.279   6.997  -1.028  0.0598 -1.0038 -0.0920
  165MOL0     C21677   5.231   6.964  -1.170 -0.4757  0.4513 -1.7649
  165MOL0     O21678   5.177   7.058  -1.245  0.0330 -0.0865  0.2413
  165MOL0     C21679   5.138   7.009  -1.369 -0.6122  0.0078  0.4922
  165MOL0     C21680   5.215   6.965  -1.481 -0.2327  0.4444 -1.0150
  165MOL0     C21681   5.158   6.925  -1.595 -0.3475 -0.1995 -0.0228
  165MOL0     C21682   5.021   6.927  -1.608  0.7308  0.2778  0.7637
  165MOL0     O21683   4.972   6.878  -1.728 -0.0747 -0.6756  0.2117
  165MOL0     C21684   4.828   6.888  -1.765 -0.2153 -0.9006  0.4981
  165MOL0     C21685   4.790   6.825  -1.899 -0.3242 -0.8771  0.5388
  165MOL0     C21686   4.643   6.824  -1.936  0.5068 -0.6252 -0.1123
  165MOL0     C21687   4.561   6.739  -1.852 -0.1964 -0.0837 -0.2427
  165MOL0     C21688   4.417   6.709  -1.898  0.6992 -0.0162  0.9360
  165MOL0     C21689   4.344   6.843  -1.929  0.5096  0.3619  0.2040
  165MOL0     C21690   4.207   6.811  -1.998  0.0609 -0.8614  0.3782
  165MOL0     C21691   4.130   6.941  -2.034  0.0558 -0.2514 -0.2517
  165MOL0    Cl21692   4.097   7.045  -1.894  0.1587 -0.1888  0.0444
  165MOL0     C21693   4.938   6.968  -1.502  0.5760  0.3207 -0.4815
  165MOL0     C21694   5.001   7.013  -1.377  0.1406 -0.0339  0.6938
  165MOL0     O21695   5.255   6.850  -1.208  0.0218  0.8046  0.1822
  165MOL0     C21696   5.259   7.120  -0.975 -0.1854  0.4218 -0.2256
  165MOL0     C21697   5.306   7.155  -0.847  0.0870 -0.1264 -0.4831
  165MOL0     N21698   5.581   7.399  -0.242  0.6317  0.0866 -0.1762
  165MOL0     N21699   5.627   7.387  -0.130 -0.5067 -0.1693  0.2024
  165MOL0     C21700   6.829   6.866   0.214 -0.0691  0.3476  0.2423
  165MOL0     C21701   6.961   6.889   0.178 -0.5331  0.1908  0.1776
  165MOL0     C21702   7.360   7.132   0.096  0.4862  0.1934 -0.7040
  165MOL0     C21703   7.433   7.251   0.094 -0.7732  1.2022 -0.1649
  165MOL0     C21704   7.576   7.246   0.097  0.3669 -0.0447  0.0935
  165MOL0     C21705   7.650   7.128   0.090  0.8972 -0.2157  0.3611
  165MOL0     O21706   7.783   7.137   0.091  0.2790  0.3603 -0.5044
  165MOL0     C21707   7.833   7.190  -0.030 -0.4536  1.1557 -0.5721
  165MOL0     C21708   7.866   7.085  -0.139  0.0441 -0.4959  0.5367
  165MOL0     C21709   7.947   6.962  -0.084  0.3712 -0.5647  0.1751
  165MOL0     C21710   7.976   6.848  -0.178 -0.0697  0.7600  0.4317
  165MOL0     C21711   8.080   6.874  -0.282  0.3748  0.0267 -0.2004
  165MOL0     C21712   8.161   6.912  -0.365 -0.4124  0.0373  0.3481
  165MOL0     C21713   7.573   7.010   0.093 -0.7222  0.0050  0.5761
  165MOL0     C21714   7.434   7.007   0.097 -0.9835  0.0695 -0.6805
  165MOL0     H21715   7.007   7.213   0.291 -1.2742 -0.5866  3.7053
  165MOL0     H21716   6.778   7.177   0.355  2.2450  0.2847  3.3424
  165MOL0     H21717   6.557   7.137   0.248 -0.6603 -0.2276  0.1523
  165MOL0     H21718   6.581   7.121   0.417  0.2576  0.7903  0.3928
  165MOL0     H21719   6.344   7.116   0.387 -0.6209  1.3820 -2.2168
  165MOL0     H21720   6.380   6.940   0.382  0.0830 -0.3480 -0.8760
  165MOL0     H21721   6.222   7.003   0.230  1.1775 -1.7607  3.5196
  165MOL0     H21722   6.360   6.962   0.132 -0.4682  1.3162  0.4724
  165MOL0     H21723   6.297   7.253   0.204  1.3032  0.8195  0.0854
  165MOL0     H21724   6.415   7.192   0.088  0.0425 -3.8074 -2.6215
  165MOL0     H21725   6.221   7.070  -0.039  2.7287 -1.0072  1.5005
  165MOL0     H21726   6.230   7.240  -0.060  3.0265 -0.1429  0.5084
  165MOL0     H21727   6.062   7.280   0.134 -4.6854  0.9085 -1.2188
  165MOL0     H21728   6.030   7.108   0.130  1.2595  0.4918  0.9736
  165MOL0     H21729   6.024   7.298  -0.123  0.2003 -0.6062  0.0162
  165MOL0     H21730   5.952   7.135  -0.115  1.0817  0.0178  0.0227
  165MOL0     H21731   5.868   7.378   0.042  3.4250 -0.3565 -1.4407
  165MOL0     H21732   5.796   7.215   0.046 -0.1799  0.0122  0.0615
  165MOL0     H21733   5.851   7.233  -0.311  0.3064  0.4697  0.7028
  165MOL0     H21734   5.734   7.412  -0.531 -0.2898 -0.0474 -1.0380
  165MOL0     H21735   5.556   7.387  -0.502 -0.2922 -1.5732  1.7341
  165MOL0     H21736   5.778   7.172  -0.519 -0.0309  0.6697 -1.3839
  165MOL0     H21737   5.652   7.208  -0.647 -4.2300 -1.3081  0.3877
  165MOL0     H21738   5.634   7.049  -0.402  1.0192 -0.5948 -0.8023
  165MOL0     H21739   5.504   7.164  -0.410  1.2635 -0.8027  0.8252
  165MOL0     H21740   5.444   6.955  -0.502 -2.1849 -0.2048 -2.1473
  165MOL0     H21741   5.582   6.953  -0.617 -0.6993 -1.7222 -0.0719
  165MOL0     H21742   5.435   6.848  -0.750  0.2996 -1.4351 -0.6915
  165MOL0     H21743   5.363   6.796  -0.985  0.9418 -0.9933  1.6894
  165MOL0     H21744   5.323   6.973  -1.484 -0.0574 -1.5724 -1.6516
  165MOL0     H21745   5.220   6.897  -1.680  0.8656  0.0053  0.7817
  165MOL0     H21746   4.796   6.991  -1.781  0.0307 -0.1504  3.9888
  165MOL0     H21747   4.766   6.847  -1.685 -3.5748  0.8252 -1.0430
  165MOL0     H21748   4.824   6.721  -1.893 -0.0822 -0.7332  1.9640
  165MOL0     H21749   4.845   6.870  -1.982 -0.1486 -1.1388  0.5128
  165MOL0     H21750   4.630   6.777  -2.034  0.6512  0.9902 -0.9449
  165MOL0     H21751   4.603   6.926  -1.931  2.0390  0.0559 -1.0413
  165MOL0     H21752   4.609   6.642  -1.835 -1.6867 -1.3560 -2.7497
  165MOL0     H21753   4.559   6.784  -1.752  3.7098  2.5590 -1.1158
  165MOL0     H21754   4.361   6.646  -1.828 -1.5712 -2.1309 -2.4892
  165MOL0     H21755   4.416   6.649  -1.989 -0.8666 -1.5358  1.8915
  165MOL0     H21756   4.402   6.895  -2.006  1.8719  0.1534  1.0581
  165MOL0     H21757   4.342   6.908  -1.841  2.7443 -0.9924  1.3613
  165MOL0     H21758   4.224   6.748  -2.086 -0.1708  0.7117 -0.8268
  165MOL0     H21759   4.157   6.748  -1.924  2.7435 -2.7800  0.7029
  165MOL0     H21760   4.032   6.911  -2.074 -0.7075  0.1331  1.2676
  165MOL0     H21761   4.181   6.997  -2.113 -1.3181  0.0203 -0.9915
  165MOL0     H21762   4.832   6.973  -1.524  1.1185  1.6979 -3.1323
  165MOL0     H21763   4.942   7.058  -1.299  1.1307  1.0433  0.8477
  165MOL0     H21764   5.214   7.199  -1.035  0.8769  2.4383  1.4830
  165MOL0     H21765   5.317   7.258  -0.815  0.3588 -0.3871  0.2878
  165MOL0     H21766   6.777   6.778   0.176 -0.5014  0.6076  0.2194
  165MOL0     H21767   6.992   6.813   0.107 -0.2635 -0.6506  1.1750
  165MOL0     H21768   7.383   7.347   0.105 -0.3073  1.4092  0.2282
  165MOL0     H21769   7.644   7.330   0.100  2.2199 -1.4882  0.1666
  165MOL0     H21770   7.927   7.242  -0.006  1.8704 -3.3839  1.4157
  165MOL0     H21771   7.770   7.263  -0.081 -3.0195 -0.1400  0.5805
  165MOL0     H21772   7.770   7.057  -0.182  0.0953  1.9690 -1.3962
  165MOL0     H21773   7.923   7.137  -0.217  0.4003  0.4518  1.4053
  165MOL0     H21774   7.890   6.918  -0.002  0.5691 -1.9047 -0.3858
  165MOL0     H21775   8.046   6.992  -0.050  1.0121 -1.8501 -0.5279
  165MOL0     H21776   7.999   6.757  -0.122  0.5615 -0.4375 -1.6453
  165MOL0     H21777   7.890   6.829  -0.242  0.5103  0.6582 -0.3334
  165MOL0     H21778   8.227   6.931  -0.447  0.2346  0.1767  0.8924
  165MOL0     H21779   7.631   6.919   0.098 -3.4452 -1.7804  2.0372
  165MOL0     H21780   7.392   6.908   0.089  1.0307 -1.0343  1.1777
  166MOL0     O21781   6.698   6.891   1.964  0.0223 -0.1230  0.7818
  166MOL0     C21782   6.769   6.939   1.877 -0.2434  0.7301  0.7711
  166MOL0     O21783   6.730   7.027   1.787 -0.1983  0.9347 -0.1594
  166MOL0     C21784   6.597   7.071   1.798 -1.2449  1.3781 -0.1586
  166MOL0     C21785   6.496   7.019   1.713 -0.7512 -1.1449  0.7192
  166MOL0     C21786   6.369   7.075   1.707  0.7775  0.4876 -1.0025
  166MOL0     C21787   6.329   7.176   1.795 -0.8622 -0.2763  0.1289
  166MOL0     O21788   6.199   7.225   1.771 -0.7648 -0.0179  0.3457
  166MOL0     C21789   6.143   7.318   1.864  0.0982  0.3054  0.6571
  166MOL0     C21790   6.107   7.241   1.993  0.0034  0.4136 -1.1941
  166MOL0     C21791   6.047   7.319   2.110 -0.5497 -0.1017  0.2619
  166MOL0     C21792   6.136   7.435   2.160 -0.8536 -0.7217  0.1489
  166MOL0     C21793   6.055   7.497   2.279  0.3027  0.1998  0.7898
  166MOL0     C21794   6.109   7.637   2.328  0.0352 -0.0899  0.2893
  166MOL0     C21795   6.040   7.676   2.454  0.6670 -0.9612  0.1173
  166MOL0     C21796   5.885   7.655   2.464 -0.0180  0.0489  0.4536
  166MOL0     N21797   5.805   7.747   2.376 -0.0261 -0.2379  0.3576
  166MOL0     C21798   5.668   7.761   2.389 -0.6065 -0.0557 -0.8928
  166MOL0     C21799   5.640   7.859   2.301  1.3867  0.0104  0.1634
  166MOL0     C21800   5.498   7.897   2.284  0.4343 -0.1789  0.3504
  166MOL0     C21801   5.438   7.953   2.420  0.3892 -0.3183  0.3040
  166MOL0     C21802   5.296   8.008   2.416  0.6071 -0.1840 -0.5197
  166MOL0     C21803   5.174   7.903   2.435  0.0869 -0.5707  0.8029
  166MOL0     O21804   5.203   7.804   2.334  0.0285 -0.0252  0.6048
  166MOL0     C21805   5.094   7.742   2.274 -0.0719  0.4143  0.7911
  166MOL0     C21806   5.120   7.705   2.140  1.5553 -0.2565  0.5688
  166MOL0     C21807   5.025   7.637   2.064 -0.3788 -0.3258  0.4628
  166MOL0     C21808   4.893   7.616   2.113  0.5905  0.7936 -0.2412
  166MOL0     C21809   4.782   7.569   2.022 -0.0190  0.4319 -0.3965
  166MOL0     O21810   4.649   7.607   2.057 -0.1897 -0.0047  0.1073
  166MOL0     C21811   4.547   7.577   1.964 -0.2932 -0.0127  0.5627
  166MOL0     C21812   4.535   7.668   1.860 -0.0056 -0.1116  0.5998
  166MOL0     C21813   4.420   7.666   1.784  0.1363  0.9520  0.2303
  166MOL0     C21814   4.324   7.566   1.815  0.4390 -0.0780 -0.2796
  166MOL0     O21815   4.196   7.568   1.760 -0.0028 -0.0740 -0.4790
  166MOL0     C21816   4.186   7.568   1.621 -0.2401 -0.1349  0.1712
  166MOL0     C21817   4.055   7.630   1.578  0.3750 -0.0781 -0.0412
  166MOL0     C21818   3.933   7.536   1.625  0.2008  0.9776 -0.2344
  166MOL0     C21819   3.802   7.574   1.555  0.3044  0.2829 -0.2004
  166MOL0     C21820   3.685   7.488   1.610 -0.0951 -0.7225  0.2343
  166MOL0     C21821   3.559   7.526   1.511  0.5784  0.4108  0.0238
  166MOL0     C21822   3.454   7.412   1.529  0.6928  0.0319  0.1431
  166MOL0     C21823   3.482   7.285   1.450 -0.1633  0.3947  0.0290
  166MOL0    Cl21824   3.430   7.319   1.276  0.5380  0.1802  0.2230
  166MOL0     C21825   4.334   7.480   1.925  0.5831  0.8230  0.1298
  166MOL0     C21826   4.450   7.484   2.001 -0.1801 -0.2146  0.1673
  166MOL0     O21827   4.817   7.522   1.907 -0.5123 -0.2106 -0.2760
  166MOL0     C21828   4.872   7.658   2.247  0.3688  0.4321  0.8398
  166MOL0     C21829   4.968   7.721   2.327 -0.1054  0.4790 -0.2796
  166MOL0     N21830   5.757   7.906   2.243  0.0089 -0.8716 -0.7410
  166MOL0     N21831   5.853   7.835   2.284 -0.6226 -0.3045 -0.2158
  166MOL0     C21832   6.430   7.218   1.885  0.2035  0.5751 -0.9725
  166MOL0     C21833   6.564   7.170   1.891 -1.1563  0.3638  0.4404
  166MOL0     C21834   6.901   6.891   1.881  0.3289  0.0667 -0.1584
  166MOL0     C21835   6.985   6.910   1.769  0.1332 -0.5210 -0.7088
  166MOL0     C21836   7.116   6.860   1.761 -0.4306  0.3476 -0.1391
  166MOL0     C21837   7.173   6.793   1.866  0.1445  0.6201 -0.3503
  166MOL0     O21838   7.300   6.754   1.850  0.3199 -0.0286  0.6413
  166MOL0     C21839   7.379   6.762   1.971 -0.4453 -0.0759 -0.1357
  166MOL0     C21840   7.518   6.799   1.925  0.0672  0.7218  0.0663
  166MOL0     C21841   7.532   6.954   1.915  0.0225  0.5295  0.3212
  166MOL0     C21842   7.664   7.010   1.889 -0.4199 -0.6242 -0.4889
  166MOL0     C21843   7.713   6.962   1.758 -0.4218 -0.0824  0.5071
  166MOL0     C21844   7.733   6.904   1.653 -0.1018 -0.3451  0.4431
  166MOL0     C21845   7.091   6.770   1.974 -0.1493 -0.0143 -0.4105
  166MOL0     C21846   6.958   6.815   1.984  1.2801 -0.2853  1.0132
  166MOL0     H21847   6.509   6.943   1.637 -2.3819 -1.4891  0.7557
  166MOL0     H21848   6.296   7.032   1.640 -0.4728 -0.4472  0.8528
  166MOL0     H21849   6.059   7.368   1.816 -0.5297  0.6404  2.0535
  166MOL0     H21850   6.220   7.394   1.884 -0.1398  0.5061  0.8153
  166MOL0     H21851   6.196   7.191   2.035 -0.8796 -0.3162 -0.1289
  166MOL0     H21852   6.037   7.165   1.957  1.8194 -0.6741 -2.6312
  166MOL0     H21853   6.042   7.252   2.197  1.7671 -0.9533 -0.2039
  166MOL0     H21854   5.948   7.355   2.081 -0.9492 -0.5503  1.0219
  166MOL0     H21855   6.239   7.409   2.184 -0.4396  1.5905  1.2379
  166MOL0     H21856   6.138   7.521   2.093 -1.3944  0.6053  1.7538
  166MOL0     H21857   6.057   7.424   2.360  1.1949 -1.8145 -0.9632
  166MOL0     H21858   5.953   7.514   2.243  0.1027 -0.7298  0.9028
  166MOL0     H21859   6.098   7.692   2.234  1.2096 -2.1795 -1.1506
  166MOL0     H21860   6.214   7.647   2.357 -0.4105  1.2839  1.5916
  166MOL0     H21861   6.095   7.630   2.537  0.7776 -0.3516  0.3942
  166MOL0     H21862   6.058   7.784   2.462 -5.5023  0.3931  1.1978
  166MOL0     H21863   5.861   7.669   2.570 -0.1604  2.0025  0.2116
  166MOL0     H21864   5.851   7.557   2.429 -0.4411  1.3536 -3.2978
  166MOL0     H21865   5.600   7.697   2.444  1.0503 -2.4654 -1.4685
  166MOL0     H21866   5.444   7.814   2.237 -0.0999  1.3531 -1.8660
  166MOL0     H21867   5.500   7.984   2.219  3.7995 -1.3652 -1.3597
  166MOL0     H21868   5.501   8.034   2.457 -0.6924  0.0411  1.4265
  166MOL0     H21869   5.422   7.870   2.490 -2.3277 -1.3179 -1.3420
  166MOL0     H21870   5.265   8.072   2.500 -2.4107 -1.8339 -0.2395
  166MOL0     H21871   5.280   8.068   2.325  0.1835 -2.1573 -1.7983
  166MOL0     H21872   5.077   7.951   2.421  0.1269 -0.4191  1.0500
  166MOL0     H21873   5.184   7.859   2.534 -0.0855  0.1965  1.1673
  166MOL0     H21874   5.224   7.725   2.114  1.1423  1.5494  0.1503
  166MOL0     H21875   5.045   7.609   1.961 -2.0595 -1.6232  0.4508
  166MOL0     H21876   4.603   7.749   1.835  0.0352 -0.5062 -0.6573
  166MOL0     H21877   4.401   7.741   1.707  2.0398  1.1281 -0.1274
  166MOL0     H21878   4.195   7.468   1.578  2.7872  0.3129 -0.4957
  166MOL0     H21879   4.263   7.635   1.581 -1.7414  1.0745 -0.8350
  166MOL0     H21880   4.041   7.648   1.471  0.3735  3.6810  0.4492
  166MOL0     H21881   4.048   7.729   1.625 -0.5244 -0.8081  1.4507
  166MOL0     H21882   3.918   7.538   1.734 -2.1333  3.3283 -0.5042
  166MOL0     H21883   3.954   7.432   1.597 -0.2648  0.4584  1.2364
  166MOL0     H21884   3.778   7.680   1.566 -0.4128  0.4136 -2.4069
  166MOL0     H21885   3.808   7.562   1.446  0.9491  3.0844 -0.5563
  166MOL0     H21886   3.653   7.517   1.710 -0.4173 -1.9699  0.5008
  166MOL0     H21887   3.715   7.383   1.611  0.9982 -0.4495  2.4857
  166MOL0     H21888   3.587   7.545   1.407 -0.4449  1.4388 -0.0860
  166MOL0     H21889   3.512   7.622   1.535  5.7455  3.2305  0.2698
  166MOL0     H21890   3.448   7.390   1.636 -2.6634  1.8735  0.4651
  166MOL0     H21891   3.355   7.453   1.508  1.4366  1.5430 -0.5455
  166MOL0     H21892   3.416   7.204   1.482 -0.9931 -0.0456 -2.6051
  166MOL0     H21893   3.587   7.252   1.452  0.0787  0.7748 -2.8871
  166MOL0     H21894   4.257   7.405   1.943  0.4877  0.8212 -0.2821
  166MOL0     H21895   4.472   7.416   2.083  0.9929 -0.4070 -0.2935
  166MOL0     H21896   4.772   7.658   2.289  0.0728  2.0297  0.2288
  166MOL0     H21897   4.928   7.757   2.421  0.4788 -0.3144  0.2878
  166MOL0     H21898   6.395   7.295   1.953  0.1090 -1.2805  1.2303
  166MOL0     H21899   6.635   7.213   1.960 -1.0122  2.9803 -1.2244
  166MOL0     H21900   6.947   6.965   1.684  0.0477  0.3327 -0.1314
  166MOL0     H21901   7.180   6.862   1.674 -1.2571 -2.5086 -0.8946
  166MOL0     H21902   7.378   6.673   2.034  0.6422  0.6054  0.8857
  166MOL0     H21903   7.335   6.834   2.041 -0.5242 -1.4905  1.3221
  166MOL0     H21904   7.582   6.729   1.981 -0.3461 -0.2244 -0.6152
  166MOL0     H21905   7.535   6.757   1.825  2.0467 -1.3758  1.1697
  166MOL0     H21906   7.491   7.001   2.005  1.5747 -1.4518  2.1455
  166MOL0     H21907   7.464   6.985   1.834 -1.2816  1.7751  1.8207
  166MOL0     H21908   7.669   7.119   1.882 -1.0331 -0.4834  0.9262
  166MOL0     H21909   7.736   6.989   1.969 -0.1031  2.4894  0.1630
  166MOL0     H21910   7.748   6.852   1.561 -0.0977  2.1919 -1.0958
  166MOL0     H21911   7.134   6.711   2.055  2.0388 -1.0156 -2.1911
  166MOL0     H21912   6.899   6.794   2.073 -1.1779 -0.2894 -0.4951
  167MOL0     O21913   7.768   9.581   7.669  0.0147 -0.1205  0.3345
  167MOL0     C21914   7.704   9.646   7.744  0.1401 -0.0957 -0.6989
  167MOL0     O21915   7.745   9.770   7.794  0.2958  0.2758  0.0671
  167MOL0     C21916   7.872   9.832   7.769  1.0355  0.3212  0.5778
  167MOL0     C21917   7.991   9.762   7.790 -0.1763 -0.1394 -0.4979
  167MOL0     C21918   8.115   9.829   7.772  0.2321  0.9946  0.1644
  167MOL0     C21919   8.116   9.969   7.727 -0.1506 -0.1038 -0.5558
  167MOL0     O21920   8.233  10.043   7.715 -0.4107 -0.2411  0.3611
  167MOL0     C21921   8.267  10.058   7.578 -0.2857  0.1072  0.3166
  167MOL0     C21922   8.405  10.121   7.573  0.3993 -0.3797 -1.0225
  167MOL0     C21923   8.466  10.116   7.428 -1.0863  0.6204  0.4556
  167MOL0     C21924   8.613  10.166   7.436  0.0591 -0.6197  0.0705
  167MOL0     C21925   8.681  10.191   7.302  0.0495  0.6783 -0.4571
  167MOL0     C21926   8.656  10.331   7.249  0.1174  0.1354  0.3144
  167MOL0     C21927   8.704  10.354   7.105  0.3141 -0.3850  1.0925
  167MOL0     C21928   8.676  10.499   7.055  0.1824 -0.5074 -0.9258
  167MOL0     N21929   8.680  10.514   6.913  0.3678 -0.4603  0.0187
  167MOL0     C21930   8.797  10.485   6.846  1.0217 -0.0505  0.1284
  167MOL0     C21931   8.765  10.487   6.711  0.1857  0.1500  0.3284
  167MOL0     C21932   8.866  10.490   6.594  0.1412 -0.5413 -0.8109
  167MOL0     C21933   9.009  10.433   6.609  0.2536 -0.1520 -0.3879
  167MOL0     C21934   9.069  10.432   6.466 -0.1818  0.1468 -0.5252
  167MOL0     C21935   9.223  10.420   6.488  0.0820  0.4198  0.4576
  167MOL0     O21936   9.256  10.293   6.547  0.0362  0.3164  0.3216
  167MOL0     C21937   9.377  10.238   6.508  0.8151  0.0884 -0.9623
  167MOL0     C21938   9.494  10.309   6.489 -0.5271 -0.6741  0.3058
  167MOL0     C21939   9.616  10.240   6.475  0.0628 -1.0626 -0.3418
  167MOL0     C21940   9.615  10.105   6.471 -0.5365  0.0045  0.5295
  167MOL0     C21941   9.742  10.030   6.439 -0.4045  0.0626  0.2558
  167MOL0     O21942   9.862  10.094   6.406  0.0590  0.3546  0.0971
  167MOL0     C21943   9.967  10.020   6.358  0.1126 -0.4700  0.1111
  167MOL0     C21944   9.957   9.911   6.269  0.2541  0.4234  0.4999
  167MOL0     C21945  10.066   9.839   6.232  0.3192 -0.1122 -0.1026
  167MOL0     C21946  10.196   9.877   6.267 -0.0831  1.1745  0.6412
  167MOL0     O21947  10.314   9.815   6.227  0.2492  0.7345  0.3642
  167MOL0     C21948  10.302   9.703   6.144 -0.2062 -0.1538  1.1146
  167MOL0     C21949  10.413   9.608   6.143  0.0219  0.7338 -0.1405
  167MOL0     C21950  10.525   9.670   6.054 -0.8478 -0.4275 -0.0230
  167MOL0     C21951  10.644   9.571   6.030 -0.5137  0.1281 -0.9013
  167MOL0     C21952  10.728   9.612   5.909 -0.0226 -0.2500 -0.7964
  167MOL0     C21953  10.858   9.524   5.903 -0.8046  0.5810  0.5960
  167MOL0     C21954  10.952   9.568   5.787 -0.6566 -0.1546 -0.2937
  167MOL0     C21955  11.031   9.449   5.719  0.0307 -0.9029 -0.4586
  167MOL0    Cl21956  10.922   9.324   5.654  0.1094 -0.4241 -0.1646
  167MOL0     C21957  10.210   9.988   6.345 -0.0334 -0.4109  0.1237
  167MOL0     C21958  10.094  10.062   6.396  0.2499  0.8185  0.7441
  167MOL0     O21959   9.740   9.903   6.462  0.4276 -0.6202 -0.1841
  167MOL0     C21960   9.496  10.033   6.476  0.5588  0.5593  0.5573
  167MOL0     C21961   9.382  10.099   6.508  0.8569  0.1883  0.1516
  167MOL0     N21962   8.626  10.518   6.711  0.6882 -0.4127 -0.4219
  167MOL0     N21963   8.574  10.523   6.825  0.0471  0.3085 -0.7209
  167MOL0     C21964   7.992  10.031   7.700  0.1490 -0.3347  0.5195
  167MOL0     C21965   7.872   9.963   7.719  0.0485  0.7671  0.0958
  167MOL0     C21966   7.576   9.598   7.788  0.4620  0.6940 -0.1518
  167MOL0     C21967   7.557   9.456   7.803 -0.1805  0.0886  0.3309
  167MOL0     C21968   7.434   9.403   7.851  0.0924  0.1197 -0.0776
  167MOL0     C21969   7.326   9.483   7.896 -0.4272  0.1984  0.8304
  167MOL0     O21970   7.212   9.432   7.942  0.1066  0.9548 -0.0525
  167MOL0     C21971   7.214   9.319   8.029 -0.0820 -0.4073  0.0426
  167MOL0     C21972   7.179   9.343   8.175  0.5949 -0.2562  1.4119
  167MOL0     C21973   7.300   9.390   8.250  0.1106 -0.4742 -1.8423
  167MOL0     C21974   7.342   9.294   8.358  0.2137  0.2151 -1.3377
  167MOL0     C21975   7.393   9.162   8.303 -0.3185 -0.1516 -0.1098
  167MOL0     C21976   7.441   9.067   8.240  0.1062 -0.4005  0.4479
  167MOL0     C21977   7.338   9.620   7.869 -0.0949 -0.1797  0.2601
  167MOL0     C21978   7.460   9.673   7.807  0.8006  0.2925  1.0116
  167MOL0     H21979   7.979   9.659   7.823  0.1975 -0.5529 -1.6266
  167MOL0     H21980   8.210   9.778   7.781  0.4826  0.6718 -3.2410
  167MOL0     H21981   8.194  10.124   7.529 -0.9955  1.1711  2.6757
  167MOL0     H21982   8.271   9.963   7.523 -0.2513  0.8804 -1.0705
  167MOL0     H21983   8.470  10.070   7.644 -1.1052  1.6906  2.0819
  167MOL0     H21984   8.394  10.223   7.612 -3.4904 -0.4117 -1.6508
  167MOL0     H21985   8.409  10.176   7.357 -2.3082 -1.8532 -0.7769
  167MOL0     H21986   8.481  10.016   7.387  0.2199  1.4858 -1.3299
  167MOL0     H21987   8.621  10.259   7.493 -0.1078  0.1663 -1.1550
  167MOL0     H21988   8.667  10.096   7.499  2.1299 -1.0744 -2.0719
  167MOL0     H21989   8.651  10.109   7.236 -1.0393  1.9227 -1.5645
  167MOL0     H21990   8.787  10.168   7.316 -0.8089 -2.5295  2.1392
  167MOL0     H21991   8.718  10.389   7.318  0.9832 -0.6640  0.2254
  167MOL0     H21992   8.550  10.357   7.251  0.2141  0.6312 -0.6668
  167MOL0     H21993   8.813  10.338   7.102  0.3330 -0.3502  1.5645
  167MOL0     H21994   8.654  10.280   7.041 -1.5555  2.2603 -0.6777
  167MOL0     H21995   8.750  10.569   7.094 -1.6175  1.3316 -0.6661
  167MOL0     H21996   8.578  10.528   7.095  1.0120 -0.6547  1.3955
  167MOL0     H21997   8.899  10.480   6.884  0.3003 -1.1781  2.0652
  167MOL0     H21998   8.879  10.594   6.560 -0.4906  0.2323  1.1442
  167MOL0     H21999   8.813  10.443   6.511  1.1474 -0.7803 -1.3322
  167MOL0     H22000   9.006  10.334   6.655  1.0816  1.0814  2.5084
  167MOL0     H22001   9.068  10.488   6.683  0.6286  1.8161 -2.0554
  167MOL0     H22002   9.034  10.348   6.406 -2.0152  0.9160 -0.6038
  167MOL0     H22003   9.037  10.523   6.413  1.0526  0.7566 -0.2650
  167MOL0     H22004   9.267  10.497   6.552  0.4453  1.0411 -0.5193
  167MOL0     H22005   9.274  10.432   6.392  1.1087  1.7811  1.1307
  167MOL0     H22006   9.495  10.416   6.471 -3.9190 -0.5376  0.4140
  167MOL0     H22007   9.710  10.289   6.456 -0.1907  0.2081  1.3898
  167MOL0     H22008   9.858   9.882   6.234  0.6175  1.7045 -1.8065
  167MOL0     H22009  10.035   9.763   6.161  0.8754 -0.9550  0.5215
  167MOL0     H22010  10.277   9.728   6.040 -0.1688 -1.1381  0.8612
  167MOL0     H22011  10.225   9.638   6.187 -0.7424  0.1068  0.5724
  167MOL0     H22012  10.393   9.512   6.094 -1.2213  1.3063 -0.7861
  167MOL0     H22013  10.451   9.589   6.244 -0.2362  1.4631  0.1007
  167MOL0     H22014  10.555   9.760   6.110  0.1854 -1.5947  1.3777
  167MOL0     H22015  10.481   9.700   5.959  3.0082 -1.4181 -2.3140
  167MOL0     H22016  10.703   9.552   6.121 -0.5947  2.9708 -0.1714
  167MOL0     H22017  10.603   9.472   6.007 -0.8133 -0.3886  1.6240
  167MOL0     H22018  10.754   9.715   5.935 -1.2278 -0.0641 -0.2741
  167MOL0     H22019  10.676   9.612   5.813 -0.4536  0.1502 -0.5606
  167MOL0     H22020  10.830   9.422   5.878  0.5979  1.3565 -5.8205
  167MOL0     H22021  10.910   9.525   5.999 -0.3079 -3.4876  0.5394
  167MOL0     H22022  10.893   9.611   5.705  1.1355 -0.0323 -1.5753
  167MOL0     H22023  11.021   9.646   5.819 -1.6535  1.0277 -0.9358
  167MOL0     H22024  11.102   9.410   5.793  4.5711  2.3547 -2.6162
  167MOL0     H22025  11.094   9.502   5.647  0.9329  1.9858  2.2542
  167MOL0     H22026  10.311  10.021   6.366 -0.6060  1.4208  0.1659
  167MOL0     H22027  10.106  10.150   6.458 -1.9978  1.0318  0.9714
  167MOL0     H22028   9.491   9.926   6.456  1.9545  0.7955 -1.1999
  167MOL0     H22029   9.284  10.053   6.520  0.3197  1.1585 -0.3977
  167MOL0     H22030   7.992  10.136   7.672  1.9239 -0.1630  1.0263
  167MOL0     H22031   7.774  10.010   7.724 -0.6476 -0.4181 -1.5012
  167MOL0     H22032   7.640   9.391   7.780  1.4538  1.6005  1.6306
  167MOL0     H22033   7.431   9.294   7.851 -0.2892  0.1207  0.8865
  167MOL0     H22034   7.314   9.275   8.027  1.3370  2.5738 -1.2046
  167MOL0     H22035   7.157   9.237   7.986 -0.0426  0.5933 -2.0380
  167MOL0     H22036   7.107   9.425   8.164 -1.0962 -1.9208 -0.9129
  167MOL0     H22037   7.124   9.259   8.217 -1.3229 -0.4713 -1.2589
  167MOL0     H22038   7.270   9.489   8.287  0.8126 -0.4453 -1.3408
  167MOL0     H22039   7.383   9.404   8.180  1.2044  0.5576 -0.3997
  167MOL0     H22040   7.428   9.339   8.409  0.0890 -0.1529 -0.7981
  167MOL0     H22041   7.258   9.273   8.425 -0.3297  1.0400 -1.7377
  167MOL0     H22042   7.505   8.991   8.199  2.3354  1.1387  0.8357
  167MOL0     H22043   7.257   9.689   7.890  1.7118  1.5318  2.2443
  167MOL0     H22044   7.461   9.778   7.778 -1.0183  0.4145  1.2455
  168MOL0     O22045   0.051  11.082   2.241 -0.2414 -0.1804  0.0219
  168MOL0     C22046   0.131  10.991   2.222 -0.2476  0.3233  0.1208
  168MOL0     O22047   0.107  10.862   2.260  0.1570 -0.5632  0.4490
  168MOL0     C22048  -0.006  10.835   2.334 -0.3870  1.1992  0.1657
  168MOL0     C22049  -0.134  10.850   2.271 -0.0766 -0.4608 -0.4243
  168MOL0     C22050  -0.250  10.814   2.346 -0.5716  0.0160 -0.5900
  168MOL0     C22051  -0.244  10.768   2.475  0.2993  0.4698 -1.0938
  168MOL0     O22052  -0.355  10.738   2.552  0.6566  0.1251 -0.4323
  168MOL0     C22053  -0.481  10.758   2.490  0.2456  0.1235  0.1869
  168MOL0     C22054  -0.571  10.678   2.577 -0.3990  0.1190 -0.0678
  168MOL0     C22055  -0.532  10.525   2.584  0.1355  0.2195  0.3797
  168MOL0     C22056  -0.616  10.466   2.690 -0.7005 -0.1208 -0.3601
  168MOL0     C22057  -0.763  10.453   2.659  0.4809  0.5453  0.2032
  168MOL0     C22058  -0.856  10.356   2.741  0.0130 -0.3818 -0.2043
  168MOL0     C22059  -0.823  10.209   2.742 -0.8463  1.4165  0.6952
  168MOL0     C22060  -0.903  10.093   2.674 -0.0122 -0.2657 -0.7474
  168MOL0     N22061  -0.926  10.112   2.531 -0.5084 -0.3626 -0.4196
  168MOL0     C22062  -1.019  10.197   2.482 -0.7303 -0.3673 -0.0484
  168MOL0     C22063  -1.017  10.168   2.348  0.3707  0.6979  0.3570
  168MOL0     C22064  -1.075  10.251   2.242  0.4733  0.5091 -0.3039
  168MOL0     C22065  -1.198  10.185   2.173 -0.1842 -0.8974  0.6614
  168MOL0     C22066  -1.316  10.144   2.265 -0.4954 -0.0175  0.0345
  168MOL0     C22067  -1.439  10.131   2.170  0.3130  0.6667  0.8065
  168MOL0     O22068  -1.561  10.087   2.238 -0.7546 -0.8217  0.1945
  168MOL0     C22069  -1.689  10.118   2.197 -0.6408 -0.2300 -0.2399
  168MOL0     C22070  -1.727  10.139   2.067  0.6904 -0.1628 -0.8033
  168MOL0     C22071  -1.866  10.170   2.035 -0.4445 -0.3044 -1.2465
  168MOL0     C22072  -1.960  10.174   2.139  0.0287  0.2921  0.0712
  168MOL0     C22073  -2.105  10.171   2.111 -0.1691  0.0747  0.5406
  168MOL0     O22074  -2.190  10.234   2.196  0.7972  0.5765 -0.0775
  168MOL0     C22075  -2.329  10.222   2.169 -0.2670  0.4489  0.9189
  168MOL0     C22076  -2.407  10.118   2.232 -0.0135  0.4823 -0.3028
  168MOL0     C22077  -2.546  10.097   2.196  0.1887  0.2007  0.0539
  168MOL0     C22078  -2.603  10.167   2.084  0.5206  0.6111 -0.1995
  168MOL0     O22079  -2.731  10.137   2.049  0.6305  0.8046 -0.3216
  168MOL0     C22080  -2.750  10.034   1.947 -0.7663 -0.6330 -0.6648
  168MOL0     C22081  -2.894  10.029   1.900  0.6940 -0.5753  0.3068
  168MOL0     C22082  -2.991  10.026   2.019 -0.0234 -0.5246  0.2312
  168MOL0     C22083  -3.033  10.166   2.065 -0.6813  1.0056  0.9144
  168MOL0     C22084  -3.142  10.168   2.178 -0.1700 -0.1310  0.0525
  168MOL0     C22085  -3.268  10.093   2.119 -0.6712 -0.2885 -1.3335
  168MOL0     C22086  -3.393  10.123   2.217  0.2280  0.2059  0.0033
  168MOL0     C22087  -3.379  10.128   2.373  0.0798  0.0715  0.7579
  168MOL0    Cl22088  -3.375   9.954   2.439  0.0188 -0.3822  0.0424
  168MOL0     C22089  -2.523  10.270   2.029  0.2276 -0.5142 -0.8347
  168MOL0     C22090  -2.386  10.303   2.074  0.5546 -0.7074  0.5921
  168MOL0     O22091  -2.143  10.114   2.008 -0.9276 -0.7454  0.4416
  168MOL0     C22092  -1.918  10.151   2.274 -0.6821 -0.1681 -0.6554
  168MOL0     C22093  -1.786  10.117   2.296 -0.0446  0.2041  0.2188
  168MOL0     N22094  -0.936  10.058   2.333  0.0523 -1.0206 -0.7551
  168MOL0     N22095  -0.883  10.017   2.441  0.2480  0.0681  0.2244
  168MOL0     C22096  -0.117  10.756   2.539  0.4934  0.0610 -0.1023
  168MOL0     C22097  -0.001  10.785   2.460  0.2936  0.7414  0.8168
  168MOL0     C22098   0.255  11.010   2.152 -0.5751 -0.1644 -0.5884
  168MOL0     C22099   0.260  11.114   2.063 -0.4650 -0.5389  0.7688
  168MOL0     C22100   0.369  11.127   1.978 -1.0651  0.6915 -0.2162
  168MOL0     C22101   0.477  11.037   1.993 -0.0534 -0.1155  0.9242
  168MOL0     O22102   0.586  11.038   1.910  0.7668  0.4773 -0.1058
  168MOL0     C22103   0.571  11.024   1.772 -0.4379  1.1995  0.0077
  168MOL0     C22104   0.600  10.879   1.735  0.3852  0.3820  0.4771
  168MOL0     C22105   0.743  10.846   1.691 -0.2968 -0.8773 -0.3109
  168MOL0     C22106   0.790  10.924   1.554 -0.5810 -0.2499  0.0908
  168MOL0     C22107   0.693  10.905   1.447 -0.4092 -0.3766 -0.1632
  168MOL0     C22108   0.604  10.904   1.359  0.2594  0.8734 -0.1742
  168MOL0     C22109   0.471  10.945   2.089  0.1309  0.0436 -0.3081
  168MOL0     C22110   0.357  10.924   2.177  0.1687  0.2790 -0.3768
  168MOL0     H22111  -0.147  10.887   2.170 -0.5488 -1.0773 -0.5942
  168MOL0     H22112  -0.345  10.846   2.306 -0.6515  2.8623  1.5565
  168MOL0     H22113  -0.480  10.717   2.389  0.2500 -1.2481  0.7203
  168MOL0     H22114  -0.514  10.862   2.500  2.2628  0.7987  0.0990
  168MOL0     H22115  -0.673  10.696   2.541 -0.0350 -1.5034 -2.1020
  168MOL0     H22116  -0.568  10.726   2.675 -2.5339 -0.6424  0.4397
  168MOL0     H22117  -0.433  10.508   2.627  0.3533  1.3748  0.3761
  168MOL0     H22118  -0.543  10.483   2.484 -1.2120 -0.9130  0.9659
  168MOL0     H22119  -0.575  10.364   2.694 -0.6516 -0.1368 -1.0211
  168MOL0     H22120  -0.601  10.517   2.785  0.3884  1.2437 -1.2182
  168MOL0     H22121  -0.767  10.429   2.552 -1.6575  0.5719  0.2217
  168MOL0     H22122  -0.806  10.553   2.675  0.9446  0.5300  1.6860
  168MOL0     H22123  -0.960  10.368   2.708 -0.2701  0.4539  0.9492
  168MOL0     H22124  -0.846  10.384   2.846  1.4702 -3.1281  0.4838
  168MOL0     H22125  -0.719  10.199   2.710 -0.2265  3.3000  1.9825
  168MOL0     H22126  -0.836  10.174   2.845 -0.3485 -0.9033  0.0325
  168MOL0     H22127  -0.996  10.082   2.731  1.4968 -2.1932  1.5171
  168MOL0     H22128  -0.845  10.001   2.682  4.0456  2.1581  0.8939
  168MOL0     H22129  -1.065  10.282   2.533 -0.6491 -0.3562  0.0064
  168MOL0     H22130  -1.004  10.280   2.164  2.2167  3.4079  2.1291
  168MOL0     H22131  -1.098  10.348   2.288  1.3134  1.0111 -0.9028
  168MOL0     H22132  -1.167  10.093   2.121 -0.0534  0.5091 -1.9037
  168MOL0     H22133  -1.240  10.262   2.108 -0.5604  0.6385  2.6223
  168MOL0     H22134  -1.299  10.053   2.324 -0.1274  0.2422  0.3380
  168MOL0     H22135  -1.339  10.226   2.334 -2.9448 -0.9298  0.4309
  168MOL0     H22136  -1.414  10.063   2.087  0.5306  2.3432 -0.5449
  168MOL0     H22137  -1.454  10.230   2.126  0.2282  1.0507  1.6848
  168MOL0     H22138  -1.642  10.129   2.000  0.9315 -1.0175 -0.3859
  168MOL0     H22139  -1.911  10.182   1.937 -4.0708 -0.5797  0.2258
  168MOL0     H22140  -2.359  10.054   2.305  1.7554  1.6868 -0.3556
  168MOL0     H22141  -2.614  10.027   2.243 -0.2506 -1.3219 -2.6196
  168MOL0     H22142  -2.724   9.942   2.000 -0.7435 -0.9192 -1.1688
  168MOL0     H22143  -2.684  10.054   1.862  0.1987 -0.4142  0.1090
  168MOL0     H22144  -2.905   9.942   1.835  3.8072 -0.3697 -0.6195
  168MOL0     H22145  -2.909  10.116   1.835 -2.8152 -1.4947 -0.3222
  168MOL0     H22146  -2.936   9.993   2.107 -0.8298  2.5863  2.0456
  168MOL0     H22147  -3.075   9.961   1.990 -0.6291 -0.6218  2.1041
  168MOL0     H22148  -2.949  10.213   2.117  0.0919 -1.0380  1.6034
  168MOL0     H22149  -3.074  10.227   1.984  2.8092  1.2537 -0.8524
  168MOL0     H22150  -3.171  10.271   2.203 -0.6490 -0.3062  0.2255
  168MOL0     H22151  -3.107  10.114   2.266 -0.0934 -1.4047 -0.7435
  168MOL0     H22152  -3.245   9.986   2.114 -0.1202 -0.3295  0.9177
  168MOL0     H22153  -3.291  10.136   2.022  0.3528 -0.4525 -1.6584
  168MOL0     H22154  -3.427  10.221   2.184 -2.1723 -1.0737 -1.5820
  168MOL0     H22155  -3.463  10.045   2.187  0.4347  1.0462 -2.9770
  168MOL0     H22156  -3.467  10.169   2.424 -1.8720 -3.5803  0.6547
  168MOL0     H22157  -3.283  10.175   2.396 -0.2762  1.6138 -0.7334
  168MOL0     H22158  -2.568  10.329   1.950 -1.8177 -0.5894  0.2073
  168MOL0     H22159  -2.320  10.381   2.038 -1.9456  1.0548 -0.4629
  168MOL0     H22160  -1.994  10.162   2.350 -2.0386  0.4755 -2.0329
  168MOL0     H22161  -1.756  10.109   2.400 -1.1864  2.8010  0.8216
  168MOL0     H22162  -0.112  10.712   2.638  0.2661 -1.7111 -0.8382
  168MOL0     H22163   0.101  10.774   2.497  0.8012  1.4188 -0.3017
  168MOL0     H22164   0.172  11.176   2.050 -2.5067 -3.4242 -0.2111
  168MOL0     H22165   0.374  11.198   1.896 -1.5301  0.4129 -0.4881
  168MOL0     H22166   0.637  11.089   1.713  1.7300  0.7975  1.8582
  168MOL0     H22167   0.466  11.039   1.745 -0.6838 -2.2636 -1.3943
  168MOL0     H22168   0.581  10.809   1.817 -0.3218 -0.3634 -0.3101
  168MOL0     H22169   0.527  10.851   1.658 -0.3180 -0.7736  1.5306
  168MOL0     H22170   0.754  10.741   1.664 -1.0114 -0.6766 -1.4286
  168MOL0     H22171   0.805  10.863   1.780 -2.7277  2.4134  0.9630
  168MOL0     H22172   0.805  11.029   1.580  2.3932 -1.2679  3.3170
  168MOL0     H22173   0.885  10.885   1.518 -0.7298 -1.3745  0.8449
  168MOL0     H22174   0.517  10.889   1.298  0.8905 -1.9547 -0.5458
  168MOL0     H22175   0.549  10.871   2.105 -2.3004 -2.9209 -1.0494
  168MOL0     H22176   0.354  10.846   2.252 -0.8715 -0.0058 -0.6890
  169MOL0     O22177   4.106   7.989  11.221 -0.0576  0.4434  0.5441
  169MOL0     C22178   4.122   8.069  11.125  0.0603  0.2295 -0.4415
  169MOL0     O22179   4.039   8.078  11.014 -0.0509  0.7177  0.3193
  169MOL0     C22180   3.932   7.991  11.016  0.6740 -0.4394  0.5698
  169MOL0     C22181   3.934   7.873  10.937  0.5805  1.5091 -0.5786
  169MOL0     C22182   3.821   7.794  10.923 -0.2111 -0.6295  0.4763
  169MOL0     C22183   3.706   7.837  10.987  0.1038 -0.3070 -0.5441
  169MOL0     O22184   3.593   7.766  10.975 -0.1922 -0.5541 -0.3177
  169MOL0     C22185   3.552   7.686  10.859  0.1221 -0.4485  0.5487
  169MOL0     C22186   3.439   7.756  10.780  0.0631 -0.1913  0.2594
  169MOL0     C22187   3.372   7.661  10.680  0.1776  1.4712  0.3362
  169MOL0     C22188   3.239   7.732  10.638 -0.4331  0.6046 -0.1340
  169MOL0     C22189   3.162   7.654  10.534 -0.1348  0.4585  0.1734
  169MOL0     C22190   3.052   7.745  10.484 -0.0983 -0.5771 -0.2213
  169MOL0     C22191   2.956   7.696  10.369 -0.6800  0.7738 -0.5722
  169MOL0     C22192   2.851   7.604  10.424  0.1797 -0.3157 -0.5647
  169MOL0     N22193   2.716   7.627  10.381  0.4972  0.1084  0.1403
  169MOL0     C22194   2.623   7.686  10.453  0.4192  0.5925  0.1063
  169MOL0     C22195   2.509   7.674  10.373  0.2605 -0.7344 -0.1685
  169MOL0     C22196   2.365   7.701  10.424 -0.1022 -0.0827  0.5676
  169MOL0     C22197   2.264   7.636  10.333  0.6422  0.5376  0.4081
  169MOL0     C22198   2.111   7.648  10.378 -0.4255  0.1759 -0.0984
  169MOL0     C22199   2.018   7.565  10.286 -0.4485 -0.2126 -0.3123
  169MOL0     O22200   1.882   7.582  10.314  0.5592  0.1360 -0.6774
  169MOL0     C22201   1.801   7.521  10.216 -0.6217 -0.6798  0.1797
  169MOL0     C22202   1.798   7.383  10.223 -0.7375 -0.3160  0.2008
  169MOL0     C22203   1.717   7.329  10.120 -0.3873  0.7979 -0.3943
  169MOL0     C22204   1.646   7.403  10.020  1.2368  0.2418 -1.0378
  169MOL0     C22205   1.563   7.341   9.917  0.5618  0.4153  0.2386
  169MOL0     O22206   1.550   7.416   9.806  0.0921  0.0027  0.2783
  169MOL0     C22207   1.462   7.383   9.710 -0.8802  0.0964 -0.1044
  169MOL0     C22208   1.511   7.331   9.593  0.7418 -0.1953  0.0694
  169MOL0     C22209   1.406   7.296   9.494 -0.5615 -0.3498 -0.0699
  169MOL0     C22210   1.271   7.309   9.520  0.8563 -0.2725  0.1711
  169MOL0     O22211   1.181   7.265   9.432 -0.2424  0.0080  0.0360
  169MOL0     C22212   1.044   7.306   9.445 -0.7487  0.6477 -0.4887
  169MOL0     C22213   1.028   7.458   9.416  0.1674 -0.6035  0.4169
  169MOL0     C22214   0.888   7.498   9.465 -1.1200 -0.0380  0.0427
  169MOL0     C22215   0.871   7.645   9.431 -0.4961 -0.1919  0.1825
  169MOL0     C22216   0.729   7.701   9.462 -0.1063 -0.4655 -0.4850
  169MOL0     C22217   0.666   7.660   9.600 -1.1389  0.1494  0.4549
  169MOL0     C22218   0.529   7.724   9.616 -0.5374  0.9629 -0.2274
  169MOL0     C22219   0.425   7.682   9.510 -0.7876  0.2648  0.3562
  169MOL0    Cl22220   0.274   7.759   9.577  0.2599  0.2458 -0.0907
  169MOL0     C22221   1.227   7.354   9.649  0.7379  0.0696 -0.0304
  169MOL0     C22222   1.328   7.400   9.729  1.0885  0.3552 -0.9101
  169MOL0     O22223   1.533   7.225   9.928  0.0464  0.7805 -0.3464
  169MOL0     C22224   1.651   7.544  10.025  0.6552 -1.3000  0.2502
  169MOL0     C22225   1.730   7.603  10.120 -0.8119 -0.0621 -1.4455
  169MOL0     N22226   2.546   7.627  10.250 -0.6494 -0.4183 -0.7428
  169MOL0     N22227   2.672   7.596  10.254  0.2467 -0.3701  0.3134
  169MOL0     C22228   3.698   7.959  11.054  0.7096 -0.5103 -0.1338
  169MOL0     C22229   3.808   8.036  11.066 -0.8390  0.2569  0.3750
  169MOL0     C22230   4.236   8.156  11.118 -0.1519  0.2543  0.6744
  169MOL0     C22231   4.245   8.265  11.026  0.5106  0.6567 -0.2303
  169MOL0     C22232   4.355   8.351  11.034 -0.5523 -0.3884  0.1256
  169MOL0     C22233   4.459   8.342  11.125  0.2846 -0.4982  0.0512
  169MOL0     O22234   4.572   8.425  11.111 -0.0281  0.0628  0.2169
  169MOL0     C22235   4.682   8.392  11.196 -0.4601 -0.1407 -0.3021
  169MOL0     C22236   4.803   8.476  11.157 -0.6750  0.5000 -0.2023
  169MOL0     C22237   4.889   8.398  11.054  0.4709  0.1394 -0.4121
  169MOL0     C22238   5.012   8.486  11.026 -0.3605 -0.3467  0.3471
  169MOL0     C22239   5.108   8.400  10.958 -0.9642 -0.7336  0.3592
  169MOL0     C22240   5.200   8.325  10.917 -0.5474 -0.3005 -0.2021
  169MOL0     C22241   4.440   8.245  11.225 -0.3231  0.6162  0.1397
  169MOL0     C22242   4.336   8.149  11.220  0.0796 -0.1885 -0.3684
  169MOL0     H22243   4.026   7.844  10.888  0.6781  1.6462 -0.4772
  169MOL0     H22244   3.822   7.706  10.860 -2.3994 -1.0276  0.9342
  169MOL0     H22245   3.525   7.584  10.888  3.1937 -2.8332 -3.8033
  169MOL0     H22246   3.630   7.663  10.786  0.5447  1.4019  0.3490
  169MOL0     H22247   3.474   7.850  10.736  0.4986 -0.5624 -0.2078
  169MOL0     H22248   3.367   7.801  10.849  1.8559  2.8105  0.3287
  169MOL0     H22249   3.351   7.565  10.727  2.7548  1.9099  2.6690
  169MOL0     H22250   3.432   7.648  10.590  0.9795  0.0409  1.0476
  169MOL0     H22251   3.174   7.721  10.725 -1.0985  0.0997 -0.6808
  169MOL0     H22252   3.262   7.837  10.617  2.7299  0.2001  0.7785
  169MOL0     H22253   3.125   7.559  10.573 -0.2496  0.5594  0.3078
  169MOL0     H22254   3.222   7.621  10.448  1.7753  2.8866  0.4734
  169MOL0     H22255   3.096   7.839  10.449  1.0833  0.0497  2.6590
  169MOL0     H22256   2.996   7.786  10.568  3.8887  3.9210  0.6948
  169MOL0     H22257   2.902   7.783  10.330 -2.3829 -0.1415 -0.3500
  169MOL0     H22258   3.010   7.645  10.288 -1.4912 -0.9163 -0.0996
  169MOL0     H22259   2.860   7.614  10.533  0.4237  1.4822 -0.7123
  169MOL0     H22260   2.868   7.502  10.391 -2.0764 -0.2181 -2.2421
  169MOL0     H22261   2.621   7.709  10.559 -3.3061 -1.1275  0.5800
  169MOL0     H22262   2.364   7.810  10.428  2.1031  0.0326 -0.3993
  169MOL0     H22263   2.351   7.665  10.526 -1.0707 -1.9679 -0.1748
  169MOL0     H22264   2.291   7.530  10.329  0.2212  0.4435 -0.0597
  169MOL0     H22265   2.275   7.683  10.234 -2.0231  0.7290  0.1270
  169MOL0     H22266   2.102   7.603  10.477  3.3499  0.8304  0.7093
  169MOL0     H22267   2.088   7.755  10.379  3.3452  1.1228  0.5659
  169MOL0     H22268   2.051   7.462  10.300 -1.8682 -0.7553 -0.7678
  169MOL0     H22269   2.041   7.594  10.183  1.7567  2.3397  0.7792
  169MOL0     H22270   1.847   7.323  10.299 -1.8929  0.9399  2.0036
  169MOL0     H22271   1.713   7.222  10.103  1.3246  0.5727  0.3650
  169MOL0     H22272   1.616   7.313   9.572  0.5616  1.0414 -2.2503
  169MOL0     H22273   1.439   7.249   9.402 -1.1735 -0.3787 -0.2830
  169MOL0     H22274   0.996   7.280   9.540 -0.7537 -1.2452 -0.9840
  169MOL0     H22275   0.981   7.258   9.370 -1.0994  2.5224 -1.4520
  169MOL0     H22276   1.041   7.478   9.310 -2.3396 -2.5172 -0.3543
  169MOL0     H22277   1.105   7.520   9.463  0.6008 -0.9061  0.0991
  169MOL0     H22278   0.874   7.489   9.573 -1.3000  2.5735  0.2925
  169MOL0     H22279   0.817   7.425   9.422 -0.7261 -1.4646  1.7166
  169MOL0     H22280   0.952   7.700   9.478 -1.3083  1.6679 -0.4914
  169MOL0     H22281   0.892   7.658   9.324 -0.0406  0.7997  0.3844
  169MOL0     H22282   0.667   7.653   9.385 -0.7962  1.8123 -1.4285
  169MOL0     H22283   0.723   7.809   9.446  0.4387 -0.4711 -0.7628
  169MOL0     H22284   0.719   7.697   9.689 -0.5576  0.6049 -0.0715
  169MOL0     H22285   0.664   7.553   9.621  3.6120 -0.3977 -0.7560
  169MOL0     H22286   0.493   7.698   9.716  2.8813  0.6991  1.1013
  169MOL0     H22287   0.532   7.833   9.611  2.8870  0.9657 -0.6610
  169MOL0     H22288   0.410   7.574   9.506 -0.7852  0.2987 -1.1559
  169MOL0     H22289   0.444   7.725   9.412  1.2889  0.6291  0.8718
  169MOL0     H22290   1.124   7.351   9.683  1.1563 -0.3494  1.2739
  169MOL0     H22291   1.289   7.436   9.824 -0.1340  0.8758 -1.5882
  169MOL0     H22292   1.600   7.607   9.953  1.9148  0.0598  0.4971
  169MOL0     H22293   1.723   7.711  10.108 -3.2720  0.1116  0.5618
  169MOL0     H22294   3.601   7.986  11.093 -1.1030 -2.3351 -2.9906
  169MOL0     H22295   3.787   8.136  11.103 -2.6257  0.3498 -0.7896
  169MOL0     H22296   4.162   8.279  10.959 -0.0370  0.5893  0.4233
  169MOL0     H22297   4.358   8.432  10.962  0.2954 -1.7129 -1.3997
  169MOL0     H22298   4.709   8.287  11.184  0.2719  0.2298 -2.1246
  169MOL0     H22299   4.661   8.412  11.302  0.8236  2.1874 -0.4218
  169MOL0     H22300   4.766   8.571  11.117  0.6101  0.7313 -0.9178
  169MOL0     H22301   4.861   8.505  11.245 -0.9809  0.0925  0.1382
  169MOL0     H22302   4.831   8.388  10.962 -0.3669 -0.9500  0.2237
  169MOL0     H22303   4.923   8.301  11.091 -0.4382 -0.5215 -1.2441
  169MOL0     H22304   4.986   8.579  10.975  1.8705  1.6063  2.4800
  169MOL0     H22305   5.060   8.523  11.117 -0.8708  2.3382 -0.3741
  169MOL0     H22306   5.270   8.255  10.875 -0.6325 -0.3097 -0.3301
  169MOL0     H22307   4.513   8.241  11.306  0.5440  2.1095 -0.5080
  169MOL0     H22308   4.323   8.074  11.297 -3.0342 -1.3464 -1.8583
  170MOL0     O22309   4.013   0.994   6.990  0.2991 -0.1339  0.7952
  170MOL0     C22310   4.009   1.106   6.940  0.8135  0.1955  0.1539
  170MOL0     O22311   3.893   1.177   6.912  0.0388  0.3876 -0.1513
  170MOL0     C22312   3.768   1.131   6.939 -0.1410 -0.7855 -0.6113
  170MOL0     C22313   3.682   1.232   6.975 -0.1958 -0.4482  0.2739
  170MOL0     C22314   3.552   1.195   7.016 -0.9095  0.4655 -0.5364
  170MOL0     C22315   3.504   1.063   7.017  0.8164 -0.4182 -0.0324
  170MOL0     O22316   3.385   1.049   7.086  0.1294  0.0078 -0.2142
  170MOL0     C22317   3.338   0.923   7.119  0.0932 -0.0779 -0.1608
  170MOL0     C22318   3.210   0.927   7.209 -0.3331 -0.1936  0.8790
  170MOL0     C22319   3.177   0.781   7.239 -0.6822 -0.5480 -0.1186
  170MOL0     C22320   3.048   0.769   7.318 -0.2248 -0.5241  0.1291
  170MOL0     C22321   2.918   0.745   7.243  0.1370  0.2567 -0.1552
  170MOL0     C22322   2.793   0.807   7.304 -0.2451  1.1434  0.4766
  170MOL0     C22323   2.776   0.768   7.454  0.2593  0.2439 -0.5837
  170MOL0     C22324   2.653   0.840   7.504 -0.1564 -0.5689 -0.1260
  170MOL0     N22325   2.614   0.824   7.647 -0.1309 -0.1240  0.2933
  170MOL0     C22326   2.548   0.715   7.701 -0.0686 -0.2920 -0.5295
  170MOL0     C22327   2.520   0.746   7.835 -0.3372 -1.0387 -0.6641
  170MOL0     C22328   2.448   0.662   7.928  0.2361 -0.1319  0.4553
  170MOL0     C22329   2.329   0.729   7.975 -0.4534 -0.3569 -0.6273
  170MOL0     C22330   2.241   0.633   8.056  0.1325  0.6476 -0.2310
  170MOL0     C22331   2.177   0.725   8.159  0.3058 -0.9124 -0.3714
  170MOL0     O22332   2.094   0.644   8.253  0.9465  0.2507  0.3337
  170MOL0     C22333   1.964   0.624   8.206  0.6363  0.1117  0.3676
  170MOL0     C22334   1.897   0.682   8.095 -0.3020 -0.5286 -0.3611
  170MOL0     C22335   1.764   0.665   8.063 -0.3274 -0.9209  0.1606
  170MOL0     C22336   1.680   0.591   8.152  0.5918 -0.4474  0.5724
  170MOL0     C22337   1.536   0.577   8.126 -0.3288 -0.4255 -0.2689
  170MOL0     O22338   1.474   0.656   8.033 -0.4380  0.3623 -0.2115
  170MOL0     C22339   1.340   0.680   8.050  0.4621 -0.4418 -0.2478
  170MOL0     C22340   1.278   0.714   7.934  0.0853 -0.4352  0.5970
  170MOL0     C22341   1.132   0.728   7.931 -0.2064  0.2049  0.4119
  170MOL0     C22342   1.064   0.737   8.048  1.0269 -0.0122 -0.4135
  170MOL0     O22343   0.931   0.773   8.033 -0.0218  0.0643 -0.2688
  170MOL0     C22344   0.857   0.721   7.924  0.4622 -0.2780  0.2494
  170MOL0     C22345   0.706   0.741   7.944 -0.4317 -0.0170 -0.2102
  170MOL0     C22346   0.636   0.654   7.839  0.4618 -0.2242 -0.2351
  170MOL0     C22347   0.492   0.653   7.866 -0.2476 -0.0027  0.2354
  170MOL0     C22348   0.414   0.588   7.753 -0.0939 -0.0468  0.1187
  170MOL0     C22349   0.291   0.508   7.807  0.6109 -0.1999 -0.0686
  170MOL0     C22350   0.246   0.407   7.704  0.3957  0.6671  0.2253
  170MOL0     C22351   0.123   0.333   7.754 -0.6925  0.7746 -0.1239
  170MOL0    Cl22352  -0.013   0.427   7.723  0.0373 -0.1585  0.2427
  170MOL0     C22353   1.135   0.718   8.167  0.0096 -0.6645  0.5765
  170MOL0     C22354   1.267   0.668   8.168 -0.3087 -0.3869 -0.4754
  170MOL0     O22355   1.488   0.493   8.199 -0.0461  0.1109  0.5683
  170MOL0     C22356   1.741   0.531   8.263  0.6483 -0.4062 -0.2849
  170MOL0     C22357   1.876   0.552   8.282 -0.5269 -0.3775 -0.6216
  170MOL0     N22358   2.563   0.876   7.844  0.2536  0.2994 -0.3310
  170MOL0     N22359   2.631   0.911   7.742  0.9205 -0.3557  0.6448
  170MOL0     C22360   3.588   0.964   6.970 -0.3430 -0.5077  0.4118
  170MOL0     C22361   3.723   0.998   6.941  1.2397  1.0690  0.0087
  170MOL0     C22362   4.143   1.162   6.917 -0.4185 -1.2212  0.0181
  170MOL0     C22363   4.252   1.093   6.864 -0.1342 -0.8754 -0.0246
  170MOL0     C22364   4.368   1.162   6.833 -0.5150  0.8150  0.5704
  170MOL0     C22365   4.380   1.293   6.863  0.2017 -0.3816  0.6495
  170MOL0     O22366   4.507   1.351   6.863 -0.1772 -0.3447  0.1621
  170MOL0     C22367   4.610   1.303   6.765  0.3766  0.7580  0.1376
  170MOL0     C22368   4.717   1.224   6.834 -0.1355 -0.4146 -0.0958
  170MOL0     C22369   4.791   1.300   6.932 -0.1009 -1.4678 -0.5018
  170MOL0     C22370   4.935   1.246   6.959 -0.3400  1.0435  0.9012
  170MOL0     C22371   5.001   1.316   7.073  0.2737 -0.1880 -0.2257
  170MOL0     C22372   5.048   1.360   7.174  0.1026 -0.7032 -0.0755
  170MOL0     C22373   4.272   1.360   6.922  0.2413 -0.4352  0.2035
  170MOL0     C22374   4.151   1.303   6.935  0.3396  0.7202 -0.2581
  170MOL0     H22375   3.719   1.334   6.979  0.2078 -0.5933  0.2896
  170MOL0     H22376   3.486   1.277   7.044  0.7513  1.6929 -0.0503
  170MOL0     H22377   3.415   0.877   7.182 -1.3714  0.3168  2.0484
  170MOL0     H22378   3.322   0.870   7.025 -0.3703  2.3274 -1.5074
  170MOL0     H22379   3.135   0.980   7.150  0.2825 -2.4126 -2.1734
  170MOL0     H22380   3.225   0.993   7.295 -1.6076  3.4484 -1.4749
  170MOL0     H22381   3.256   0.742   7.305 -1.4704 -0.1072  1.1346
  170MOL0     H22382   3.174   0.716   7.151  0.5731 -1.1460  0.2652
  170MOL0     H22383   3.060   0.690   7.394  1.8135 -0.6520 -0.2810
  170MOL0     H22384   3.037   0.866   7.367  1.9544  0.0459 -0.4041
  170MOL0     H22385   2.908   0.638   7.224 -1.9868  0.4107 -0.1555
  170MOL0     H22386   2.926   0.796   7.146  1.4371  0.6782  0.1477
  170MOL0     H22387   2.704   0.775   7.249 -0.4061 -1.3080  2.0371
  170MOL0     H22388   2.807   0.915   7.291  0.2348  1.1461  1.0064
  170MOL0     H22389   2.771   0.659   7.458  1.1536  0.2383  0.9185
  170MOL0     H22390   2.869   0.789   7.507  0.6658  1.1098 -1.6136
  170MOL0     H22391   2.568   0.800   7.447 -0.9247 -0.7393  1.0901
  170MOL0     H22392   2.672   0.943   7.472 -0.1553 -0.4216  0.3467
  170MOL0     H22393   2.525   0.628   7.641 -3.6532  0.6611 -0.7322
  170MOL0     H22394   2.501   0.634   8.020 -1.1204  0.4362  1.4366
  170MOL0     H22395   2.425   0.565   7.883 -1.0008  1.1071 -1.7241
  170MOL0     H22396   2.272   0.775   7.894  0.7036  3.2117  0.4117
  170MOL0     H22397   2.367   0.817   8.028  1.5032  0.6468 -3.4466
  170MOL0     H22398   2.178   0.557   8.009  0.4182  0.9562 -1.1417
  170MOL0     H22399   2.309   0.568   8.112  0.2761 -0.3011 -1.4521
  170MOL0     H22400   2.128   0.810   8.111  2.3290 -0.4701 -1.7565
  170MOL0     H22401   2.262   0.769   8.212 -0.4834  0.5338 -0.2538
  170MOL0     H22402   1.967   0.734   8.030  0.6961 -0.4664  0.7231
  170MOL0     H22403   1.720   0.696   7.969 -1.2609  1.0052  1.1767
  170MOL0     H22404   1.341   0.714   7.846  1.6571 -3.2315  1.5952
  170MOL0     H22405   1.089   0.738   7.832  1.6782  0.5563 -0.4080
  170MOL0     H22406   0.883   0.614   7.923  0.1882 -0.3426 -0.6699
  170MOL0     H22407   0.879   0.766   7.827 -2.7921 -3.2889 -2.1767
  170MOL0     H22408   0.680   0.847   7.943 -2.7415 -0.4306  2.3817
  170MOL0     H22409   0.684   0.703   8.045  1.8031  1.0575  0.7579
  170MOL0     H22410   0.687   0.557   7.842  1.9440  0.4647 -1.6243
  170MOL0     H22411   0.660   0.703   7.744  1.3813  0.6559  0.4379
  170MOL0     H22412   0.461   0.607   7.960 -0.5274  1.1962  0.7588
  170MOL0     H22413   0.453   0.754   7.884  1.7636  1.2310 -1.8278
  170MOL0     H22414   0.475   0.514   7.700 -2.5446 -0.6403 -2.0665
  170MOL0     H22415   0.381   0.660   7.677  1.5987 -0.6711 -1.2764
  170MOL0     H22416   0.213   0.571   7.850 -0.0374 -1.3528  0.4875
  170MOL0     H22417   0.325   0.442   7.888 -4.9040 -0.9767  2.0736
  170MOL0     H22418   0.232   0.459   7.608 -0.1061  0.8810  0.4073
  170MOL0     H22419   0.328   0.341   7.675  1.9186  1.4393  2.4795
  170MOL0     H22420   0.141   0.319   7.861  2.3385  0.4711 -0.5881
  170MOL0     H22421   0.107   0.235   7.710 -4.5127 -0.5735  3.5885
  170MOL0     H22422   1.079   0.709   8.259 -0.3596 -0.7402  0.3442
  170MOL0     H22423   1.328   0.639   8.253  0.8675 -0.5525 -1.3426
  170MOL0     H22424   1.672   0.485   8.333 -1.8551  2.9742 -0.2934
  170MOL0     H22425   1.936   0.512   8.363 -1.1721 -3.7811 -1.6650
  170MOL0     H22426   3.548   0.863   6.967 -1.9760  0.1250  0.0357
  170MOL0     H22427   3.786   0.925   6.891 -1.3575 -0.3759 -1.4068
  170MOL0     H22428   4.240   0.985   6.854 -1.9251 -0.6613 -0.5500
  170MOL0     H22429   4.450   1.101   6.796 -3.1557 -1.4546 -1.9848
  170MOL0     H22430   4.650   1.388   6.707  2.1350  0.4756  0.8806
  170MOL0     H22431   4.556   1.245   6.690 -2.5861  0.2987  2.4710
  170MOL0     H22432   4.679   1.134   6.882  2.3239 -0.3014  2.3386
  170MOL0     H22433   4.785   1.192   6.754 -0.2298 -1.6392  0.2942
  170MOL0     H22434   4.726   1.303   7.020  0.1873 -1.8897 -0.2731
  170MOL0     H22435   4.794   1.406   6.904 -1.7305 -0.6168  2.1576
  170MOL0     H22436   4.922   1.140   6.986 -1.7839  1.2211  1.0030
  170MOL0     H22437   4.989   1.253   6.864 -3.6564  0.1608 -1.2455
  170MOL0     H22438   5.114   1.392   7.252  0.7838 -0.3423 -0.7819
  170MOL0     H22439   4.284   1.461   6.962 -1.2267 -0.1628  0.0017
  170MOL0     H22440   4.065   1.364   6.961  0.4605  1.1588 -0.8709
  171MOL0     O22441   8.835   3.500   7.102  0.0240 -0.4121 -0.0860
  171MOL0     C22442   8.872   3.605   7.040 -0.0795 -0.7216  0.0236
  171MOL0     O22443   8.790   3.708   6.998 -0.6103  0.4151  0.2715
  171MOL0     C22444   8.661   3.703   7.030  0.1397 -0.6359  0.6032
  171MOL0     C22445   8.603   3.754   7.145  0.0128  0.6907  0.2945
  171MOL0     C22446   8.463   3.762   7.155  0.0324  0.2337 -0.3067
  171MOL0     C22447   8.388   3.709   7.053 -0.1133 -0.5000  0.6584
  171MOL0     O22448   8.251   3.716   7.081 -1.0770 -0.0963 -0.0282
  171MOL0     C22449   8.160   3.713   6.969 -0.8594 -0.5153 -0.4203
  171MOL0     C22450   8.019   3.727   7.016  0.1941 -0.4504 -0.6829
  171MOL0     C22451   7.945   3.595   7.025  0.5545  0.2695  0.7171
  171MOL0     C22452   7.799   3.616   7.077  0.3278 -0.5567 -0.0459
  171MOL0     C22453   7.719   3.489   7.094  0.3148  0.8652  0.1307
  171MOL0     C22454   7.689   3.422   6.958 -0.4687 -0.1714 -0.4823
  171MOL0     C22455   7.553   3.346   6.968  0.0138  0.2472  0.5022
  171MOL0     C22456   7.519   3.281   6.838 -0.4601 -1.2047  0.1777
  171MOL0     N22457   7.483   3.380   6.733  0.3315  0.1574 -0.1093
  171MOL0     C22458   7.564   3.411   6.625 -0.2830 -0.0341  0.1725
  171MOL0     C22459   7.488   3.494   6.548  0.1805  0.3022  0.2733
  171MOL0     C22460   7.514   3.556   6.413  0.2477 -1.2540  0.3322
  171MOL0     C22461   7.663   3.606   6.398 -0.3442 -0.1560  0.1329
  171MOL0     C22462   7.664   3.744   6.327 -0.4772  0.0740 -0.4005
  171MOL0     C22463   7.813   3.784   6.305 -0.1339 -0.5621 -0.3902
  171MOL0     O22464   7.828   3.878   6.202  0.5319 -0.0878 -0.2071
  171MOL0     C22465   7.945   3.948   6.192 -0.3598  0.5448  0.4078
  171MOL0     C22466   8.065   3.901   6.242  0.6260  0.0101  0.0611
  171MOL0     C22467   8.177   3.972   6.224 -0.2603 -0.3345  0.7305
  171MOL0     C22468   8.187   4.094   6.154 -0.6351 -0.4013 -0.0251
  171MOL0     C22469   8.316   4.168   6.149 -1.0452 -0.5905 -0.3529
  171MOL0     O22470   8.421   4.117   6.219 -0.0543  0.6418  0.3642
  171MOL0     C22471   8.553   4.166   6.211  0.7056 -0.1332  0.5047
  171MOL0     C22472   8.608   4.247   6.112  0.1048  0.1090 -0.2612
  171MOL0     C22473   8.743   4.290   6.116  0.0196  0.1638 -0.0374
  171MOL0     C22474   8.827   4.233   6.205 -0.0435  0.0129 -0.0872
  171MOL0     O22475   8.952   4.266   6.212 -0.3413 -0.5007 -0.0502
  171MOL0     C22476   8.974   4.374   6.305 -0.2516 -0.0200  0.4535
  171MOL0     C22477   9.110   4.439   6.296  0.4244 -0.3114 -0.7066
  171MOL0     C22478   9.124   4.557   6.398 -0.2717  0.0166  0.4036
  171MOL0     C22479   9.260   4.611   6.374  0.2492 -0.4408  0.2740
  171MOL0     C22480   9.282   4.744   6.455  0.6120 -0.1699 -0.8191
  171MOL0     C22481   9.252   4.726   6.599  0.2762 -0.3941 -0.3935
  171MOL0     C22482   9.306   4.846   6.667 -0.3280 -0.0430  0.1189
  171MOL0     C22483   9.224   4.862   6.799  0.3535  0.0480 -0.5594
  171MOL0    Cl22484   9.073   4.942   6.772 -0.0796  0.2281  0.1812
  171MOL0     C22485   8.778   4.144   6.303 -0.8571 -0.7859  1.0713
  171MOL0     C22486   8.638   4.121   6.310 -0.7389  0.9514  1.0026
  171MOL0     O22487   8.320   4.278   6.094 -0.0632  0.3318  0.1479
  171MOL0     C22488   8.071   4.135   6.089 -0.1998 -0.2636 -0.9001
  171MOL0     C22489   7.944   4.069   6.118 -0.2315  0.1257 -0.2488
  171MOL0     N22490   7.363   3.501   6.613 -0.2630  0.3231 -0.9146
  171MOL0     N22491   7.358   3.423   6.717  0.6005  0.0806 -0.7848
  171MOL0     C22492   8.442   3.656   6.939 -0.2526 -0.1283 -0.8240
  171MOL0     C22493   8.577   3.655   6.923  0.0417 -1.1145 -0.3365
  171MOL0     C22494   9.019   3.621   7.017 -0.3536 -0.0015  0.7479
  171MOL0     C22495   9.111   3.515   7.039  0.2152 -1.0243 -0.3309
  171MOL0     C22496   9.250   3.527   7.030 -0.1969  1.4328  0.1934
  171MOL0     C22497   9.310   3.649   6.995  0.4687 -0.2391 -0.0119
  171MOL0     O22498   9.444   3.671   6.975 -0.1075 -0.0573 -0.5031
  171MOL0     C22499   9.533   3.561   7.009 -0.1731 -0.0884  0.3866
  171MOL0     C22500   9.683   3.595   6.993  0.5947  0.0720  0.2790
  171MOL0     C22501   9.725   3.631   6.849  0.6528 -0.8643 -0.1145
  171MOL0     C22502   9.717   3.784   6.828 -0.6015 -0.7223  0.8643
  171MOL0     C22503   9.844   3.847   6.877  0.0284  0.0497  0.4320
  171MOL0     C22504   9.945   3.902   6.909  0.2187  0.9156  0.2303
  171MOL0     C22505   9.215   3.755   6.976  0.2769 -0.6821 -0.0471
  171MOL0     C22506   9.077   3.744   6.979  0.0687 -0.5096  0.9100
  171MOL0     H22507   8.668   3.801   7.217  0.6106 -0.9959  0.9128
  171MOL0     H22508   8.417   3.821   7.234 -0.3690  2.8053 -2.3080
  171MOL0     H22509   8.169   3.623   6.907 -1.4936 -1.6420  1.0541
  171MOL0     H22510   8.169   3.802   6.906 -1.7562 -0.0837  0.0393
  171MOL0     H22511   7.965   3.787   6.941 -1.0203 -2.7308 -1.7410
  171MOL0     H22512   8.024   3.781   7.111 -0.1226  0.5419 -1.2196
  171MOL0     H22513   7.999   3.528   7.092 -3.4251 -0.8599  3.1375
  171MOL0     H22514   7.941   3.571   6.918 -0.9153  3.5272 -0.1080
  171MOL0     H22515   7.796   3.666   7.174 -1.7241 -3.0849  1.2983
  171MOL0     H22516   7.744   3.676   7.004 -1.9626 -0.8653  1.3271
  171MOL0     H22517   7.627   3.506   7.150  2.0090  1.5382  2.8631
  171MOL0     H22518   7.768   3.412   7.154 -1.8563 -1.2546 -0.6150
  171MOL0     H22519   7.773   3.355   6.939  0.5209  0.3446  1.8180
  171MOL0     H22520   7.684   3.497   6.878 -1.9148 -1.8630 -2.0824
  171MOL0     H22521   7.559   3.266   7.043  0.1502  0.2808  0.5279
  171MOL0     H22522   7.471   3.412   6.997  0.2262  0.8299 -0.1880
  171MOL0     H22523   7.433   3.214   6.850 -2.2906  0.9363 -0.2120
  171MOL0     H22524   7.609   3.225   6.815  1.1646  0.7206  1.5046
  171MOL0     H22525   7.664   3.381   6.595 -0.0284  2.0647 -1.3362
  171MOL0     H22526   7.449   3.643   6.423 -2.2791 -3.1556  1.6049
  171MOL0     H22527   7.481   3.500   6.326  0.4317  1.3261 -1.5107
  171MOL0     H22528   7.723   3.545   6.330  1.7005  5.0706 -3.4022
  171MOL0     H22529   7.716   3.604   6.494  0.4244 -2.4154 -0.2617
  171MOL0     H22530   7.625   3.743   6.225 -0.5928 -0.3203 -0.3539
  171MOL0     H22531   7.611   3.812   6.395 -2.2166 -1.5147 -0.0831
  171MOL0     H22532   7.866   3.692   6.281 -1.5278 -1.8553  1.2124
  171MOL0     H22533   7.857   3.831   6.394 -1.4724  1.3479 -0.6673
  171MOL0     H22534   8.067   3.815   6.309 -0.2184  0.8448  1.2046
  171MOL0     H22535   8.256   3.923   6.280  0.6914  0.6018  0.2317
  171MOL0     H22536   8.549   4.285   6.029 -0.5646  2.2599  1.1059
  171MOL0     H22537   8.789   4.362   6.049  0.7236 -0.0531  0.2096
  171MOL0     H22538   8.954   4.335   6.405  0.1782  0.7174  0.8332
  171MOL0     H22539   8.903   4.456   6.290 -0.0544  0.7910  3.4177
  171MOL0     H22540   9.114   4.484   6.197 -1.1256  0.7099 -0.3413
  171MOL0     H22541   9.179   4.357   6.314  0.7972  0.2275  0.4577
  171MOL0     H22542   9.102   4.527   6.501  3.6307 -3.8252  0.3938
  171MOL0     H22543   9.053   4.636   6.372 -2.4951 -1.8010  0.5057
  171MOL0     H22544   9.334   4.535   6.401 -1.4418 -2.0457  0.6088
  171MOL0     H22545   9.271   4.626   6.266 -1.8503 -3.7746 -0.5585
  171MOL0     H22546   9.209   4.817   6.417 -0.8918 -1.3755 -0.3780
  171MOL0     H22547   9.387   4.772   6.446  0.5636 -0.1543 -1.4001
  171MOL0     H22548   9.312   4.641   6.633 -0.2957 -2.3820 -3.8377
  171MOL0     H22549   9.148   4.706   6.624  0.8615 -1.7804  1.0927
  171MOL0     H22550   9.413   4.825   6.678 -0.0129  0.2955 -1.9839
  171MOL0     H22551   9.291   4.943   6.619 -3.5994  0.2790  1.5565
  171MOL0     H22552   9.288   4.907   6.875 -0.8935 -2.9707  2.5977
  171MOL0     H22553   9.204   4.764   6.845 -2.0173 -0.0791 -1.6702
  171MOL0     H22554   8.844   4.108   6.381 -1.0707 -1.6838  0.8429
  171MOL0     H22555   8.599   4.055   6.388  2.7684 -1.5849  0.8563
  171MOL0     H22556   8.081   4.224   6.028 -0.3168  0.1806 -0.2814
  171MOL0     H22557   7.848   4.097   6.075  0.0212  0.7699 -0.3898
  171MOL0     H22558   8.384   3.623   6.854  0.5580  0.2444 -1.5398
  171MOL0     H22559   8.629   3.636   6.830  4.0774  2.1664  0.9676
  171MOL0     H22560   9.088   3.412   7.063  0.7408 -0.9429  0.5787
  171MOL0     H22561   9.307   3.438   7.053 -3.0287 -0.1213  1.8861
  171MOL0     H22562   9.505   3.472   6.952 -6.1586  2.4652 -1.4293
  171MOL0     H22563   9.508   3.539   7.113 -0.5555  1.1770  0.5754
  171MOL0     H22564   9.718   3.661   7.073 -1.3304  1.2602  0.1773
  171MOL0     H22565   9.729   3.497   7.009  0.5387 -0.1449 -0.8295
  171MOL0     H22566   9.654   3.575   6.788 -3.9369  0.9872  2.9931
  171MOL0     H22567   9.825   3.588   6.855  0.5632 -0.8495  2.5113
  171MOL0     H22568   9.719   3.796   6.719 -0.5310 -0.7547  0.8623
  171MOL0     H22569   9.625   3.828   6.867 -0.4024  0.6797 -0.1250
  171MOL0     H22570  10.045   3.923   6.941  0.5570  0.6150 -0.6131
  171MOL0     H22571   9.241   3.856   6.945 -1.1340  0.0987  1.1930
  171MOL0     H22572   9.012   3.828   6.955  2.5754  1.7847  1.7702
  172MOL0     O22573  10.149   2.123   4.303 -0.8655  0.0981 -0.1074
  172MOL0     C22574  10.212   2.201   4.238 -0.5156  0.8836  0.1301
  172MOL0     O22575  10.162   2.310   4.171 -0.3076  0.2144 -0.8678
  172MOL0     C22576  10.039   2.372   4.201 -0.0746  0.1006  0.1928
  172MOL0     C22577  10.002   2.464   4.105  0.2980  0.1194  1.0406
  172MOL0     C22578   9.886   2.542   4.113 -0.2259  0.3282  0.5204
  172MOL0     C22579   9.804   2.519   4.219 -0.1599  0.8646  0.0766
  172MOL0     O22580   9.682   2.579   4.210  0.0118 -0.0272  0.2466
  172MOL0     C22581   9.623   2.641   4.326  0.0584  0.3422  1.0765
  172MOL0     C22582   9.522   2.743   4.270  0.6551  0.6126  0.2389
  172MOL0     C22583   9.572   2.871   4.217 -0.9910  0.1942 -0.0911
  172MOL0     C22584   9.473   2.957   4.142 -0.2338 -0.2461 -0.1105
  172MOL0     C22585   9.356   3.004   4.223  0.4005  0.4520 -0.2424
  172MOL0     C22586   9.375   3.057   4.372 -0.3011  0.4903 -0.0815
  172MOL0     C22587   9.243   3.119   4.425 -0.0464 -0.3678 -0.1019
  172MOL0     C22588   9.232   3.265   4.383  0.0276 -0.4750  0.4152
  172MOL0     N22589   9.094   3.329   4.388  0.0588  0.4929 -0.2437
  172MOL0     C22590   8.985   3.281   4.308 -1.0175 -0.3659 -0.4520
  172MOL0     C22591   8.883   3.369   4.330 -0.2852  0.2124 -0.7528
  172MOL0     C22592   8.741   3.347   4.289  0.1626 -0.6511 -0.7241
  172MOL0     C22593   8.689   3.459   4.204 -0.4886 -0.4770  0.4755
  172MOL0     C22594   8.660   3.592   4.257  0.5058 -0.7051  0.0791
  172MOL0     C22595   8.649   3.713   4.155  0.5605 -0.9502 -0.0751
  172MOL0     O22596   8.536   3.701   4.071 -0.2521 -0.5018 -0.4025
  172MOL0     C22597   8.421   3.758   4.119 -0.1286 -0.6474 -0.3015
  172MOL0     C22598   8.325   3.797   4.034  0.0475  0.0071  0.6335
  172MOL0     C22599   8.197   3.848   4.065 -0.4674 -0.3405 -0.0262
  172MOL0     C22600   8.149   3.858   4.199  0.1305  0.0413 -0.7179
  172MOL0     C22601   8.018   3.901   4.231  0.7660 -0.4988  0.2975
  172MOL0     O22602   7.937   3.886   4.125  0.1993  0.5899  0.5735
  172MOL0     C22603   7.799   3.917   4.131 -1.3420 -0.5906  0.3822
  172MOL0     C22604   7.739   4.021   4.058 -1.2654  0.6871 -0.2906
  172MOL0     C22605   7.601   4.035   4.056 -0.0226 -0.4722 -0.2608
  172MOL0     C22606   7.521   3.961   4.144  0.0504 -0.4568 -0.3942
  172MOL0     O22607   7.384   3.976   4.134 -0.0981  0.1953 -0.4830
  172MOL0     C22608   7.340   4.097   4.205 -0.1567  0.5337  0.9726
  172MOL0     C22609   7.195   4.128   4.174 -0.5291  0.5953 -0.1574
  172MOL0     C22610   7.188   4.172   4.034  0.0827  0.6219 -0.0205
  172MOL0     C22611   7.056   4.241   4.019 -0.0078  0.2786 -0.2915
  172MOL0     C22612   7.037   4.303   3.886  0.2437 -1.2505 -0.5108
  172MOL0     C22613   7.142   4.401   3.836  0.1479 -0.0468  0.8305
  172MOL0     C22614   7.085   4.476   3.717 -0.0913  0.0055 -0.5822
  172MOL0     C22615   7.200   4.546   3.641 -0.7026 -0.4934  0.3896
  172MOL0    Cl22616   7.120   4.671   3.520 -0.7468 -0.2249 -0.2128
  172MOL0     C22617   7.579   3.858   4.227 -0.3089 -0.7304  0.3477
  172MOL0     C22618   7.718   3.840   4.221 -0.5768 -0.1388 -0.0474
  172MOL0     O22619   7.981   3.934   4.347 -0.2188 -0.9151  0.2760
  172MOL0     C22620   8.248   3.838   4.289 -0.8065  0.3898 -0.6408
  172MOL0     C22621   8.378   3.779   4.256  0.0700  0.4328 -0.8321
  172MOL0     N22622   8.929   3.457   4.434  0.2395 -0.1738 -0.6243
  172MOL0     N22623   9.055   3.426   4.464  0.1562 -0.1525 -0.7677
  172MOL0     C22624   9.845   2.445   4.329 -0.3328  0.2404 -0.1265
  172MOL0     C22625   9.965   2.373   4.319 -0.6271 -0.6658  0.1984
  172MOL0     C22626  10.357   2.174   4.215 -0.2796  0.0633 -0.2111
  172MOL0     C22627  10.412   2.044   4.223  0.5994 -0.6972 -0.0887
  172MOL0     C22628  10.546   2.027   4.190  0.1893  0.4353 -0.0716
  172MOL0     C22629  10.628   2.140   4.161  0.0916 -0.1910  0.4115
  172MOL0     O22630  10.769   2.139   4.135  0.7387  0.4140  1.1155
  172MOL0     C22631  10.829   2.006   4.106 -0.0906 -1.1908  0.2938
  172MOL0     C22632  10.965   2.030   4.042  0.0597  0.5125 -0.0310
  172MOL0     C22633  11.056   2.108   4.138 -0.0455 -0.0726 -0.4987
  172MOL0     C22634  11.183   2.164   4.068 -0.2775 -0.1958 -0.2820
  172MOL0     C22635  11.271   2.057   4.026 -1.0082 -0.6670 -0.2768
  172MOL0     C22636  11.364   1.971   4.013  0.5145  0.0211 -0.7093
  172MOL0     C22637  10.572   2.266   4.166 -0.7134  0.2959  0.2334
  172MOL0     C22638  10.440   2.284   4.191  0.0635 -0.0999 -0.1153
  172MOL0     H22639  10.063   2.483   4.017 -0.5102  0.8629  0.6335
  172MOL0     H22640   9.851   2.613   4.039 -1.1300  0.0978  0.7193
  172MOL0     H22641   9.678   2.694   4.405 -0.9589 -0.9793  2.7307
  172MOL0     H22642   9.578   2.554   4.375  2.0939 -1.8500 -0.7309
  172MOL0     H22643   9.454   2.763   4.353  0.9406 -0.5487  0.7802
  172MOL0     H22644   9.463   2.696   4.191 -2.4742  2.2895  1.4103
  172MOL0     H22645   9.655   2.848   4.149  0.0557 -0.7206  1.4439
  172MOL0     H22646   9.612   2.930   4.300 -0.3129  0.7033 -0.7521
  172MOL0     H22647   9.527   3.049   4.117 -1.1942 -0.4090 -3.1535
  172MOL0     H22648   9.430   2.910   4.053  0.0978 -1.6645  0.4523
  172MOL0     H22649   9.290   2.917   4.225 -1.0566  1.1931 -4.8187
  172MOL0     H22650   9.307   3.076   4.157 -0.5632  0.2754  0.2606
  172MOL0     H22651   9.453   3.132   4.356 -0.7600  0.6217 -1.9315
  172MOL0     H22652   9.397   2.976   4.443 -2.7884  1.5873  2.1221
  172MOL0     H22653   9.157   3.055   4.399 -0.6846  0.1364  0.7216
  172MOL0     H22654   9.244   3.115   4.534 -2.5235  2.8505  0.2042
  172MOL0     H22655   9.263   3.271   4.279 -1.8089 -1.3537 -0.2155
  172MOL0     H22656   9.292   3.325   4.453  0.1438  0.1832 -0.2395
  172MOL0     H22657   8.981   3.202   4.233 -1.7695 -2.9598  2.1614
  172MOL0     H22658   8.670   3.354   4.373 -0.4258  1.4523 -1.3253
  172MOL0     H22659   8.732   3.249   4.243 -0.2375 -1.7019  1.4393
  172MOL0     H22660   8.590   3.421   4.177 -0.7309  0.4258  0.0504
  172MOL0     H22661   8.753   3.465   4.115 -2.6895 -0.4656 -1.2108
  172MOL0     H22662   8.566   3.583   4.313  0.3225 -0.9113 -0.2625
  172MOL0     H22663   8.741   3.620   4.325 -0.9814 -0.2226  1.7411
  172MOL0     H22664   8.745   3.713   4.102  0.5650 -2.2693 -0.1150
  172MOL0     H22665   8.648   3.808   4.208  2.9621 -0.9210  0.0541
  172MOL0     H22666   8.341   3.787   3.927 -0.2714 -0.0669  0.5908
  172MOL0     H22667   8.137   3.880   3.981  2.5255  2.4788 -1.2895
  172MOL0     H22668   7.807   4.072   3.991  0.7122  0.1605  1.2371
  172MOL0     H22669   7.552   4.109   3.993 -1.0436 -0.3964  0.6022
  172MOL0     H22670   7.408   4.178   4.178  0.0024  0.0360 -0.1889
  172MOL0     H22671   7.345   4.081   4.313  2.7736  0.8032  0.9536
  172MOL0     H22672   7.175   4.215   4.236 -1.0270  0.4299 -0.0872
  172MOL0     H22673   7.139   4.037   4.198 -0.0946  0.8506  2.0223
  172MOL0     H22674   7.201   4.088   3.965  1.3233 -2.0000  3.1605
  172MOL0     H22675   7.267   4.244   4.015  1.6957 -1.2587 -0.8646
  172MOL0     H22676   6.981   4.162   4.032 -0.7675  1.1111  0.5364
  172MOL0     H22677   7.043   4.317   4.097  2.2586 -0.4630  0.8940
  172MOL0     H22678   6.942   4.357   3.886  0.6688 -0.4585  0.9776
  172MOL0     H22679   7.048   4.224   3.812  1.4700 -2.9179  1.3563
  172MOL0     H22680   7.229   4.338   3.815 -0.6614 -0.5417 -1.3048
  172MOL0     H22681   7.170   4.474   3.912 -0.4234 -1.1224  2.1090
  172MOL0     H22682   7.035   4.405   3.650  1.0596 -2.2353  0.8217
  172MOL0     H22683   7.021   4.558   3.749  0.3984 -0.4958  1.8818
  172MOL0     H22684   7.264   4.472   3.593 -0.5408 -1.4015  1.9165
  172MOL0     H22685   7.270   4.595   3.709  0.1039 -0.5573 -0.3824
  172MOL0     H22686   7.515   3.787   4.278 -0.6868  0.0464  0.9988
  172MOL0     H22687   7.758   3.765   4.287 -0.6761 -2.0519 -2.0417
  172MOL0     H22688   8.225   3.863   4.393 -0.8491 -0.9360 -0.3028
  172MOL0     H22689   8.429   3.759   4.349 -2.1133 -0.8585  0.1650
  172MOL0     H22690   9.789   2.429   4.421 -1.4954 -1.7490 -1.1033
  172MOL0     H22691   9.985   2.313   4.406 -2.8581  1.2569  2.1695
  172MOL0     H22692  10.354   1.954   4.243 -0.5448 -0.4778 -2.1102
  172MOL0     H22693  10.586   1.931   4.219  0.5939  0.5849 -0.1315
  172MOL0     H22694  10.762   1.935   4.057 -1.5501 -1.7881  2.9519
  172MOL0     H22695  10.848   1.952   4.199  1.0942 -1.6771 -0.2082
  172MOL0     H22696  11.018   1.939   4.015  0.0228 -0.3955  2.6029
  172MOL0     H22697  10.943   2.087   3.951  1.1687 -0.1725 -0.7419
  172MOL0     H22698  11.091   2.046   4.221  3.4411  2.0958 -0.1606
  172MOL0     H22699  10.994   2.188   4.180 -0.7214 -0.6947 -0.2782
  172MOL0     H22700  11.157   2.233   3.986 -0.3200  0.5967  0.3869
  172MOL0     H22701  11.229   2.233   4.139  2.4665 -1.8646 -0.3130
  172MOL0     H22702  11.432   1.895   3.981  0.3953  0.9172 -3.3954
  172MOL0     H22703  10.621   2.358   4.136 -1.5164  1.2667  1.7913
  172MOL0     H22704  10.414   2.389   4.192  1.6830  0.3983 -2.2456
  173MOL0     O22705   3.156   1.990   3.481  0.0879 -0.8488 -0.5953
  173MOL0     C22706   3.247   1.909   3.452  0.0132 -0.2180 -0.2093
  173MOL0     O22707   3.238   1.794   3.371 -0.3553 -0.1036  1.0816
  173MOL0     C22708   3.123   1.770   3.303  0.8331 -0.4481  0.7352
  173MOL0     C22709   3.118   1.776   3.164 -0.1077  0.6238  0.7709
  173MOL0     C22710   3.001   1.742   3.098 -0.6932  0.0379  1.0309
  173MOL0     C22711   2.894   1.694   3.177  0.1759 -1.6635  0.1033
  173MOL0     O22712   2.785   1.663   3.095 -0.4587 -0.0301 -0.0471
  173MOL0     C22713   2.654   1.628   3.149  0.2178  0.5846 -0.2166
  173MOL0     C22714   2.558   1.610   3.031  0.6303  0.3389  0.0612
  173MOL0     C22715   2.416   1.588   3.077  0.1066 -0.0019 -0.1157
  173MOL0     C22716   2.307   1.579   2.965 -0.3395  0.0043 -0.3939
  173MOL0     C22717   2.194   1.472   2.988 -1.0466  0.2143 -0.9314
  173MOL0     C22718   2.095   1.485   2.872  0.6480 -0.0451  0.0878
  173MOL0     C22719   1.990   1.377   2.876 -0.3764 -0.8580  0.2288
  173MOL0     C22720   1.891   1.390   2.991  0.6552  0.5597 -0.6662
  173MOL0     N22721   1.796   1.280   3.004 -0.2906 -0.3259  0.3609
  173MOL0     C22722   1.710   1.206   2.922 -1.0164 -0.1244 -0.2715
  173MOL0     C22723   1.655   1.112   2.999 -0.3219  0.4554 -0.1143
  173MOL0     C22724   1.549   1.006   2.960  0.7727 -0.2157 -0.3047
  173MOL0     C22725   1.423   1.072   2.914 -0.0373  0.4825  0.7319
  173MOL0     C22726   1.330   0.967   2.842  0.3025  0.0107 -0.2782
  173MOL0     C22727   1.205   1.028   2.777 -0.7269  0.1328  0.0763
  173MOL0     O22728   1.101   1.074   2.862 -0.1873  0.2387 -0.8791
  173MOL0     C22729   0.973   1.074   2.820  0.5566 -0.2866 -0.0421
  173MOL0     C22730   0.884   1.060   2.917  1.9772 -0.5679 -0.1708
  173MOL0     C22731   0.743   1.059   2.889  0.0369  0.1898 -0.0984
  173MOL0     C22732   0.699   1.061   2.753  0.2547 -0.1725  0.4281
  173MOL0     C22733   0.557   1.045   2.718  0.3598  0.4270 -0.7244
  173MOL0     O22734   0.474   1.008   2.818  0.3504  0.0276 -0.1081
  173MOL0     C22735   0.345   0.950   2.803  0.3313 -0.3584  0.4859
  173MOL0     C22736   0.243   0.985   2.890  0.4113  0.3123 -0.1407
  173MOL0     C22737   0.107   0.943   2.860 -0.4550  0.3566 -0.4500
  173MOL0     C22738   0.082   0.850   2.761 -0.1645 -0.1589 -0.3538
  173MOL0     O22739  -0.048   0.802   2.746  0.4585  0.3294 -0.4277
  173MOL0     C22740  -0.101   0.729   2.852  0.1780  0.0794 -0.4035
  173MOL0     C22741  -0.248   0.696   2.816  0.4748  0.5938 -0.4242
  173MOL0     C22742  -0.305   0.609   2.937 -0.1094 -0.4128  0.6799
  173MOL0     C22743  -0.462   0.576   2.910  0.2715 -0.0981 -0.5143
  173MOL0     C22744  -0.474   0.468   2.809 -1.4718 -0.0069 -0.9658
  173MOL0     C22745  -0.621   0.452   2.764  0.2612  0.2685  0.4395
  173MOL0     C22746  -0.630   0.313   2.692 -0.4965  0.2713  0.3901
  173MOL0     C22747  -0.759   0.312   2.613 -1.1925 -0.5108 -0.0646
  173MOL0    Cl22748  -0.904   0.304   2.719  0.3054 -0.6246 -0.5253
  173MOL0     C22749   0.182   0.807   2.677 -0.7981 -0.5089  0.1847
  173MOL0     C22750   0.319   0.851   2.694  0.7096 -0.7677  0.2928
  173MOL0     O22751   0.531   1.039   2.593  0.0722 -0.1021 -0.8894
  173MOL0     C22752   0.796   1.070   2.655  0.2064 -0.5771  0.0799
  173MOL0     C22753   0.925   1.099   2.686 -0.2944  0.8178  0.1453
  173MOL0     N22754   1.693   1.140   3.122  0.0955  0.0319  0.0050
  173MOL0     N22755   1.776   1.228   3.128 -0.5729  0.4298  1.1246
  173MOL0     C22756   2.899   1.689   3.314  0.6468  0.2934 -0.7083
  173MOL0     C22757   3.012   1.732   3.381  0.1668  0.2823 -0.4642
  173MOL0     C22758   3.378   1.961   3.476 -0.3667 -0.0187 -0.0962
  173MOL0     C22759   3.495   1.893   3.420  0.4454  0.0660 -1.3343
  173MOL0     C22760   3.623   1.949   3.445 -0.5019  0.3198  0.1521
  173MOL0     C22761   3.648   2.056   3.534  0.3334 -0.5441  1.6255
  173MOL0     O22762   3.769   2.096   3.582  0.0412 -0.0912  0.2475
  173MOL0     C22763   3.889   2.080   3.504 -0.5106 -0.4531 -0.0303
  173MOL0     C22764   4.015   2.105   3.589 -0.7096 -0.4332  0.0915
  173MOL0     C22765   4.047   1.993   3.699 -0.8360  0.1219  0.1459
  173MOL0     C22766   4.049   1.842   3.645 -0.5464 -1.3651 -0.1182
  173MOL0     C22767   4.115   1.761   3.747  0.1461 -0.0945  0.9076
  173MOL0     C22768   4.179   1.695   3.830 -0.0314  0.3646  0.5670
  173MOL0     C22769   3.533   2.118   3.585 -0.3799 -0.3509  0.0300
  173MOL0     C22770   3.406   2.078   3.555  0.4624 -0.7425  0.0931
  173MOL0     H22771   3.205   1.815   3.112 -0.7530  2.0435  0.7046
  173MOL0     H22772   2.991   1.751   2.991  0.7697  0.3516  0.8899
  173MOL0     H22773   2.626   1.709   3.216 -0.3356  0.8059 -0.6997
  173MOL0     H22774   2.662   1.537   3.209  0.9497 -0.1116 -1.3308
  173MOL0     H22775   2.589   1.522   2.974  0.1587 -0.4298  0.9512
  173MOL0     H22776   2.564   1.699   2.969  2.6387 -0.2971 -0.7292
  173MOL0     H22777   2.381   1.666   3.145 -1.1622 -0.5503 -0.1149
  173MOL0     H22778   2.406   1.500   3.142 -1.2089  2.1176  2.7373
  173MOL0     H22779   2.256   1.676   2.963  0.1853  0.3528  1.4156
  173MOL0     H22780   2.360   1.559   2.871 -0.8718 -0.6674 -0.5583
  173MOL0     H22781   2.155   1.482   3.089 -1.4030 -0.6472 -0.9765
  173MOL0     H22782   2.239   1.373   2.994 -3.1163 -0.6576  2.5459
  173MOL0     H22783   2.152   1.477   2.780 -1.7845 -2.0024 -1.3796
  173MOL0     H22784   2.045   1.582   2.880 -0.8086 -0.7992  0.5205
  173MOL0     H22785   1.927   1.374   2.787 -1.5214 -1.0219  1.0315
  173MOL0     H22786   2.049   1.286   2.890  4.4781  2.0166  0.8077
  173MOL0     H22787   1.829   1.478   2.969 -2.2180 -1.4342 -1.1321
  173MOL0     H22788   1.946   1.394   3.085 -0.4415  1.9608 -0.0449
  173MOL0     H22789   1.687   1.214   2.816  2.1922 -0.9082 -1.1371
  173MOL0     H22790   1.524   0.948   3.050 -2.4957  1.4328  0.0002
  173MOL0     H22791   1.588   0.946   2.876 -1.8824  1.0967 -2.6636
  173MOL0     H22792   1.442   1.155   2.845  2.7845 -0.7543 -0.1631
  173MOL0     H22793   1.381   1.111   3.007  0.4190 -1.3497  1.7597
  173MOL0     H22794   1.378   0.916   2.758 -2.9234 -1.4451 -1.4037
  173MOL0     H22795   1.296   0.889   2.911 -2.0224  0.9863 -0.2339
  173MOL0     H22796   1.171   0.944   2.716 -1.1169  1.9832 -2.4182
  173MOL0     H22797   1.236   1.105   2.707 -4.4451  0.1177 -1.8262
  173MOL0     H22798   0.908   1.041   3.021 -0.6107 -0.8483  0.4528
  173MOL0     H22799   0.680   1.047   2.976  3.2209 -2.0143  2.0977
  173MOL0     H22800   0.265   1.047   2.976  1.0873 -0.5821  0.3367
  173MOL0     H22801   0.028   0.983   2.924 -0.9321 -1.0916 -0.0828
  173MOL0     H22802  -0.103   0.780   2.949 -1.4675 -1.7310  0.5830
  173MOL0     H22803  -0.046   0.636   2.867  0.5270  0.5169  1.2462
  173MOL0     H22804  -0.259   0.643   2.721 -2.0449 -2.0060  1.1684
  173MOL0     H22805  -0.312   0.783   2.803 -2.3492 -1.4977 -1.5322
  173MOL0     H22806  -0.295   0.664   3.030 -1.1146  0.3218  0.3780
  173MOL0     H22807  -0.256   0.514   2.958  0.4690  0.6432  4.9484
  173MOL0     H22808  -0.507   0.543   3.004 -0.3154 -0.1905 -0.8211
  173MOL0     H22809  -0.526   0.662   2.888 -0.4912 -0.4063  0.4510
  173MOL0     H22810  -0.434   0.374   2.849 -3.6058 -0.1001  1.1269
  173MOL0     H22811  -0.418   0.497   2.719 -1.4312  2.4308 -0.2026
  173MOL0     H22812  -0.638   0.537   2.697 -3.0024 -2.4937 -2.6107
  173MOL0     H22813  -0.691   0.448   2.848  0.5465 -0.1478  0.6627
  173MOL0     H22814  -0.546   0.314   2.622  0.1332  1.2828  1.1368
  173MOL0     H22815  -0.627   0.231   2.765 -0.3177 -1.3128 -1.3167
  173MOL0     H22816  -0.761   0.222   2.550  0.0847 -2.1623  2.1185
  173MOL0     H22817  -0.755   0.401   2.550  1.9369  0.1740  0.9295
  173MOL0     H22818   0.156   0.743   2.594  0.4170 -0.2246 -0.4481
  173MOL0     H22819   0.397   0.817   2.627  1.2237 -1.6643  1.3032
  173MOL0     H22820   0.773   1.077   2.549 -0.6090 -0.7824  0.2379
  173MOL0     H22821   0.991   1.117   2.601 -0.1834  3.2424  0.6630
  173MOL0     H22822   2.810   1.668   3.372  0.5985 -0.2782 -0.9815
  173MOL0     H22823   3.015   1.733   3.489 -0.2013  0.3348 -0.4531
  173MOL0     H22824   3.488   1.797   3.368  2.2758 -2.4850  2.6655
  173MOL0     H22825   3.708   1.889   3.414  1.1842  1.8393  1.5530
  173MOL0     H22826   3.889   2.152   3.422  1.7947  0.5046  0.7065
  173MOL0     H22827   3.890   1.985   3.450  0.0384 -0.0845 -0.6806
  173MOL0     H22828   4.095   2.110   3.514  0.0729 -0.3337  0.9150
  173MOL0     H22829   4.018   2.205   3.635  1.0374 -0.0362 -0.7997
  173MOL0     H22830   3.990   2.009   3.791  2.3651  1.3839  2.0512
  173MOL0     H22831   4.150   2.019   3.722 -0.2250 -0.5980 -1.6019
  173MOL0     H22832   3.944   1.815   3.628 -1.0178 -1.2305  2.2344
  173MOL0     H22833   4.112   1.832   3.556 -2.2297 -1.6561 -1.3299
  173MOL0     H22834   4.232   1.639   3.905 -0.3048 -0.7904 -0.0731
  173MOL0     H22835   3.550   2.198   3.657 -0.3620  0.6744 -1.0881
  173MOL0     H22836   3.331   2.147   3.591  1.4626  1.2438 -1.4810
  174MOL0     O22837   9.553   3.292   5.787 -0.5352 -0.8569  0.1789
  174MOL0     C22838   9.465   3.238   5.726 -0.4110  0.1631  0.2016
  174MOL0     O22839   9.330   3.257   5.747 -0.6659  0.3855 -0.3656
  174MOL0     C22840   9.275   3.323   5.852  0.2718  1.0340 -0.6617
  174MOL0     C22841   9.336   3.393   5.958  0.5727 -0.1792  0.0705
  174MOL0     C22842   9.254   3.436   6.071 -0.5841 -0.0452  0.4048
  174MOL0     C22843   9.128   3.394   6.090  0.8625 -1.0985  0.7188
  174MOL0     O22844   9.073   3.410   6.207 -0.4848 -0.4847 -0.8418
  174MOL0     C22845   8.974   3.316   6.261  0.5127 -0.0509  0.5246
  174MOL0     C22846   8.830   3.356   6.219  0.7573 -0.0962 -0.4793
  174MOL0     C22847   8.722   3.269   6.281  0.4559 -0.1533  0.4409
  174MOL0     C22848   8.578   3.328   6.251  0.4229  0.3420  0.2199
  174MOL0     C22849   8.464   3.251   6.331 -0.4066 -0.4268  0.5152
  174MOL0     C22850   8.334   3.333   6.330  0.0302 -0.4458 -0.7125
  174MOL0     C22851   8.228   3.258   6.409 -0.2113 -0.8471  0.2537
  174MOL0     C22852   8.096   3.323   6.373 -0.0241 -0.2934 -0.3302
  174MOL0     N22853   7.971   3.249   6.418 -0.4902 -0.2381 -1.0684
  174MOL0     C22854   7.949   3.115   6.382  0.4525  0.1563  0.2926
  174MOL0     C22855   7.848   3.071   6.464  0.5277  0.5027  0.4985
  174MOL0     C22856   7.804   2.927   6.462  0.8358 -0.1068 -0.8615
  174MOL0     C22857   7.717   2.884   6.581 -0.3036  0.7656 -0.6825
  174MOL0     C22858   7.575   2.935   6.553 -0.7008 -0.5654 -0.0375
  174MOL0     C22859   7.483   2.862   6.648  0.3653 -0.4858  0.2161
  174MOL0     O22860   7.351   2.914   6.656 -0.3671  0.4112  0.3963
  174MOL0     C22861   7.271   2.854   6.560  0.0601 -1.7986 -0.1673
  174MOL0     C22862   7.236   2.720   6.551 -0.4592  0.0951  0.1762
  174MOL0     C22863   7.150   2.686   6.449 -0.0703  0.2152  0.7411
  174MOL0     C22864   7.094   2.777   6.354  0.0383  0.3323 -0.2307
  174MOL0     C22865   7.013   2.739   6.237  0.0096  0.1205  1.0946
  174MOL0     O22866   6.991   2.602   6.231 -0.2854  0.8280  0.1596
  174MOL0     C22867   6.943   2.533   6.119  0.1806  0.0649 -0.3667
  174MOL0     C22868   7.007   2.417   6.077 -0.2432  0.0379 -0.0714
  174MOL0     C22869   6.947   2.337   5.978 -0.6983 -0.2903  0.5228
  174MOL0     C22870   6.825   2.371   5.920  0.2045  0.0977 -0.3427
  174MOL0     O22871   6.755   2.296   5.821 -0.2798  1.0196 -0.3574
  174MOL0     C22872   6.791   2.160   5.812 -0.3416  0.6514 -0.1024
  174MOL0     C22873   6.698   2.100   5.717 -0.1257 -0.4802  0.8056
  174MOL0     C22874   6.743   2.117   5.571  0.2652 -0.3191 -0.2245
  174MOL0     C22875   6.668   2.027   5.469 -0.3560 -0.3311  0.3463
  174MOL0     C22876   6.656   2.093   5.326 -0.2650  0.6782  0.3835
  174MOL0     C22877   6.591   1.987   5.236  0.3202  0.1398  0.4028
  174MOL0     C22878   6.438   2.002   5.228  0.2351 -0.3026  0.2024
  174MOL0     C22879   6.368   1.894   5.146 -0.6400  0.3824  0.7984
  174MOL0    Cl22880   6.402   1.739   5.219 -0.1891  0.0310 -0.3916
  174MOL0     C22881   6.767   2.491   5.960  0.7387  0.6753  0.2789
  174MOL0     C22882   6.819   2.575   6.057  0.2491  1.0996 -0.6383
  174MOL0     O22883   6.990   2.820   6.144 -0.1917 -0.2231 -0.2584
  174MOL0     C22884   7.128   2.916   6.372 -0.0883  0.4726  0.2578
  174MOL0     C22885   7.211   2.949   6.476  0.0106  0.0525 -0.0238
  174MOL0     N22886   7.817   3.175   6.552 -0.1011  0.2289  0.5856
  174MOL0     N22887   7.892   3.272   6.525  0.1178  0.0384  0.6117
  174MOL0     C22888   9.069   3.332   5.978  0.1067 -0.2687  0.2233
  174MOL0     C22889   9.141   3.300   5.861 -0.2076  0.8801 -0.5830
  174MOL0     C22890   9.498   3.165   5.596 -0.0746 -1.2072 -0.5296
  174MOL0     C22891   9.636   3.150   5.552  0.7110 -0.0177 -0.5454
  174MOL0     C22892   9.659   3.099   5.418 -0.5373 -0.0191 -0.3514
  174MOL0     C22893   9.555   3.053   5.346 -1.3098  0.1156  0.0959
  174MOL0     O22894   9.579   3.002   5.225  0.0362 -0.2785  0.8070
  174MOL0     C22895   9.640   2.870   5.215  0.1063  0.8054  0.6716
  174MOL0     C22896   9.544   2.767   5.166  0.1893  0.8261 -0.3753
  174MOL0     C22897   9.598   2.644   5.095 -0.0401 -0.0950 -0.3420
  174MOL0     C22898   9.479   2.557   5.042 -0.0527 -0.1428 -0.0309
  174MOL0     C22899   9.395   2.603   4.936 -0.4102 -0.3739 -0.5915
  174MOL0     C22900   9.312   2.636   4.855  0.2170  1.0530  0.4898
  174MOL0     C22901   9.424   3.078   5.382  0.1984 -0.6348 -0.2009
  174MOL0     C22902   9.392   3.121   5.514 -0.4324 -0.2245  0.5420
  174MOL0     H22903   9.443   3.411   5.960  0.8275 -1.2535 -1.7773
  174MOL0     H22904   9.297   3.474   6.163  0.9929  0.7959 -0.6368
  174MOL0     H22905   8.975   3.319   6.370  0.3410 -0.6851  0.5516
  174MOL0     H22906   8.991   3.211   6.234 -0.3100 -0.7712  2.6369
  174MOL0     H22907   8.802   3.351   6.113 -1.5860 -0.5785  0.1090
  174MOL0     H22908   8.809   3.460   6.245 -0.8111 -0.3558 -0.6102
  174MOL0     H22909   8.730   3.264   6.390 -2.1164  4.8938  1.1779
  174MOL0     H22910   8.734   3.173   6.229  3.7993 -0.0481  0.8283
  174MOL0     H22911   8.579   3.434   6.279 -2.1430 -0.2530  3.1228
  174MOL0     H22912   8.552   3.319   6.146  2.9076 -0.3357 -0.4052
  174MOL0     H22913   8.498   3.237   6.435 -0.2680  1.8751  0.8462
  174MOL0     H22914   8.454   3.154   6.283  0.9898 -0.0964 -0.5112
  174MOL0     H22915   8.311   3.344   6.223  2.6487  0.7781 -1.2067
  174MOL0     H22916   8.351   3.424   6.387 -1.2751 -0.9866  0.6006
  174MOL0     H22917   8.222   3.150   6.388 -2.2722 -0.6369 -0.4497
  174MOL0     H22918   8.238   3.280   6.516  0.9166  0.3182 -0.0751
  174MOL0     H22919   8.080   3.330   6.265 -1.0014  0.5379 -0.1427
  174MOL0     H22920   8.090   3.420   6.422  0.1324 -1.2013  1.5859
  174MOL0     H22921   7.992   3.061   6.298 -0.3806 -0.0208 -0.0330
  174MOL0     H22922   7.893   2.864   6.459  0.6489 -0.3376 -1.8444
  174MOL0     H22923   7.752   2.899   6.370  0.8079  0.4100 -1.0078
  174MOL0     H22924   7.761   2.910   6.677  2.4294 -0.6626 -1.4272
  174MOL0     H22925   7.722   2.775   6.585  1.2774  0.7306 -2.1032
  174MOL0     H22926   7.574   3.043   6.570 -0.5343 -0.6606  0.6083
  174MOL0     H22927   7.547   2.911   6.450 -0.2178  1.7744 -0.7722
  174MOL0     H22928   7.531   2.868   6.746  1.5070  0.2335 -0.3594
  174MOL0     H22929   7.486   2.754   6.632 -1.6242 -0.5671  0.1919
  174MOL0     H22930   7.284   2.651   6.620 -0.5423  0.3646  0.5081
  174MOL0     H22931   7.131   2.579   6.443  1.3237  0.0237 -1.2825
  174MOL0     H22932   7.097   2.378   6.123 -0.3905 -0.9207 -0.5533
  174MOL0     H22933   6.995   2.244   5.950  2.5847  1.9045 -1.9702
  174MOL0     H22934   6.765   2.125   5.912 -2.1824  3.9390  0.7125
  174MOL0     H22935   6.890   2.128   5.777  0.2657  1.8471  0.4478
  174MOL0     H22936   6.603   2.153   5.724  0.3576  0.3338  1.3112
  174MOL0     H22937   6.675   1.995   5.739 -0.1457 -1.2076 -2.2060
  174MOL0     H22938   6.849   2.093   5.563  0.4219  0.6252 -1.2556
  174MOL0     H22939   6.730   2.224   5.551  1.3363 -0.3680 -1.2725
  174MOL0     H22940   6.727   1.935   5.461  1.7760  0.6778  2.9464
  174MOL0     H22941   6.568   2.000   5.506 -1.4383 -1.3887 -2.9943
  174MOL0     H22942   6.751   2.124   5.282 -0.3380  0.3863  0.0162
  174MOL0     H22943   6.595   2.183   5.329 -0.3121  0.7011 -0.9885
  174MOL0     H22944   6.623   1.886   5.264 -0.3456 -0.5506 -1.1816
  174MOL0     H22945   6.630   2.018   5.139 -0.7587 -2.4825 -0.9907
  174MOL0     H22946   6.396   1.989   5.328  1.5131  0.8044  0.9190
  174MOL0     H22947   6.396   2.101   5.207  1.4617  1.4465  4.7654
  174MOL0     H22948   6.389   1.905   5.039  0.9440  0.7400  1.1165
  174MOL0     H22949   6.259   1.901   5.153 -0.9186 -2.5528  0.4226
  174MOL0     H22950   6.677   2.527   5.913 -0.0565  0.5050  1.6256
  174MOL0     H22951   6.773   2.663   6.099 -1.1517 -1.1702  3.0724
  174MOL0     H22952   7.083   2.993   6.310  1.7015 -0.8035 -2.8520
  174MOL0     H22953   7.233   3.055   6.486 -1.8130  0.3960  0.5802
  174MOL0     H22954   8.964   3.305   5.984  0.4514 -1.3349  2.7928
  174MOL0     H22955   9.094   3.244   5.781  0.6903  0.9545 -1.1745
  174MOL0     H22956   9.723   3.158   5.617  0.1694 -3.5210  0.8296
  174MOL0     H22957   9.764   3.085   5.393 -0.4462  2.9170 -1.9893
  174MOL0     H22958   9.676   2.839   5.314 -0.2131  1.0761  0.8767
  174MOL0     H22959   9.714   2.876   5.135 -1.9876 -0.0807 -1.4266
  174MOL0     H22960   9.477   2.728   5.243  0.1049  0.1616 -0.7785
  174MOL0     H22961   9.476   2.823   5.100 -2.0296 -1.9971 -0.6762
  174MOL0     H22962   9.659   2.584   5.162  0.0042 -0.3816 -0.6371
  174MOL0     H22963   9.657   2.675   5.009  0.6285  1.7520  0.7214
  174MOL0     H22964   9.521   2.461   5.008  0.4912  0.5644 -1.4273
  174MOL0     H22965   9.414   2.532   5.126  1.4255  0.8509  1.4658
  174MOL0     H22966   9.256   2.672   4.771  3.3949  0.2116 -2.1816
  174MOL0     H22967   9.339   3.054   5.320  1.0047  0.6966 -1.8942
  174MOL0     H22968   9.287   3.116   5.540 -0.0434 -0.3824  2.1333
  175MOL0     O22969   1.297   2.206   8.183  0.3136  0.6895  0.4704
  175MOL0     C22970   1.270   2.325   8.167  0.8518 -0.3177  0.3594
  175MOL0     O22971   1.147   2.380   8.138  0.2923 -0.2155 -0.1173
  175MOL0     C22972   1.037   2.312   8.100  0.4753 -0.7230  0.5170
  175MOL0     C22973   1.015   2.173   8.091  0.0997  0.3613 -0.3389
  175MOL0     C22974   0.893   2.117   8.073  0.4213  0.3724  0.1709
  175MOL0     C22975   0.783   2.196   8.037  0.0344  0.2457 -0.3913
  175MOL0     O22976   0.667   2.132   8.012 -0.1222  0.4509 -0.2326
  175MOL0     C22977   0.560   2.214   7.963 -0.0339  0.4142 -0.4025
  175MOL0     C22978   0.440   2.140   7.920  0.2451  0.1564  0.0159
  175MOL0     C22979   0.368   2.092   8.035 -0.0960 -0.3720 -0.6102
  175MOL0     C22980   0.226   2.038   8.004  0.1249 -0.1674 -0.4289
  175MOL0     C22981   0.172   1.981   8.130 -0.0642 -0.1117 -0.6775
  175MOL0     C22982   0.149   2.083   8.248 -0.9211 -0.9331  0.0572
  175MOL0     C22983   0.054   2.031   8.338 -0.6684  0.1110 -0.4112
  175MOL0     C22984  -0.095   2.053   8.297 -0.0381 -0.5081  0.3140
  175MOL0     N22985  -0.200   2.019   8.395 -0.5042 -0.9686  0.6103
  175MOL0     C22986  -0.334   2.036   8.381  0.2001 -0.4947 -0.3808
  175MOL0     C22987  -0.392   1.993   8.494 -0.0478 -0.0396  0.1614
  175MOL0     C22988  -0.540   1.993   8.534  0.6653  0.1586  0.2211
  175MOL0     C22989  -0.609   1.873   8.479  0.8118 -0.8770  0.4404
  175MOL0     C22990  -0.747   1.862   8.526 -0.1691 -0.3184  0.0127
  175MOL0     C22991  -0.796   1.726   8.479  0.1215 -0.3676  0.6946
  175MOL0     O22992  -0.911   1.687   8.554 -0.4960 -0.2235 -0.6211
  175MOL0     C22993  -0.940   1.551   8.575 -0.8520  0.3834  0.1266
  175MOL0     C22994  -0.890   1.451   8.492 -0.8295  1.5167 -0.2697
  175MOL0     C22995  -0.921   1.312   8.523 -0.1310 -0.6350  0.4808
  175MOL0     C22996  -0.999   1.270   8.628  0.1697 -0.5809 -0.1964
  175MOL0     C22997  -1.036   1.123   8.662  0.0904  0.2378 -0.2367
  175MOL0     O22998  -1.003   1.032   8.559  0.0996  0.4509  0.3457
  175MOL0     C22999  -1.029   0.903   8.595 -0.0934 -0.0258  0.1693
  175MOL0     C23000  -1.160   0.857   8.619 -0.8991  0.6373 -0.1154
  175MOL0     C23001  -1.183   0.723   8.638  0.1754  0.1520  0.8915
  175MOL0     C23002  -1.076   0.626   8.659  0.2077 -0.3505 -0.0421
  175MOL0     O23003  -1.118   0.504   8.694 -0.4816  0.4702  0.6390
  175MOL0     C23004  -1.013   0.407   8.735 -0.2614 -0.0804 -0.2188
  175MOL0     C23005  -1.044   0.256   8.741  0.4044  0.2388  0.3590
  175MOL0     C23006  -1.185   0.239   8.810  0.2297  0.2646  0.2285
  175MOL0     C23007  -1.249   0.117   8.772 -0.0958  0.8562 -0.1442
  175MOL0     C23008  -1.158  -0.006   8.815 -0.0725  0.7712 -0.0676
  175MOL0     C23009  -1.223  -0.124   8.762 -0.7919  1.6864 -0.6806
  175MOL0     C23010  -1.145  -0.254   8.790 -0.1322  0.1735 -0.0964
  175MOL0     C23011  -0.991  -0.249   8.770  0.1246  0.2841 -0.4990
  175MOL0    Cl23012  -0.968  -0.185   8.602  0.2780  0.1155  0.0677
  175MOL0     C23013  -0.949   0.676   8.632  0.1983 -0.0378 -0.9251
  175MOL0     C23014  -0.928   0.811   8.586  0.1519 -0.5182  0.3316
  175MOL0     O23015  -1.081   1.096   8.774 -0.4452 -0.2944 -0.3858
  175MOL0     C23016  -1.046   1.376   8.713 -0.3705  0.2205 -0.7583
  175MOL0     C23017  -1.017   1.513   8.688 -0.5013 -0.2056 -0.1500
  175MOL0     N23018  -0.289   1.960   8.588  1.2447  0.1619 -0.2822
  175MOL0     N23019  -0.174   1.977   8.528  0.5936  0.0704  0.3106
  175MOL0     C23020   0.799   2.334   8.034  0.4917  0.3752  0.1467
  175MOL0     C23021   0.929   2.392   8.071 -0.5436 -0.2235  0.4621
  175MOL0     C23022   1.378   2.419   8.166  0.6120 -0.2284 -0.6800
  175MOL0     C23023   1.508   2.385   8.209  0.2794  0.0606 -0.0249
  175MOL0     C23024   1.606   2.484   8.211 -0.3860  1.3795 -1.2329
  175MOL0     C23025   1.582   2.613   8.166 -0.0822 -0.3492  0.0565
  175MOL0     O23026   1.689   2.697   8.172  0.1484  0.4904  0.6093
  175MOL0     C23027   1.717   2.763   8.043 -0.6724  0.2123  0.2582
  175MOL0     C23028   1.865   2.763   8.020 -0.0455 -0.1062 -0.7414
  175MOL0     C23029   1.925   2.876   7.934  0.1717 -0.2371 -0.2279
  175MOL0     C23030   2.077   2.878   7.937 -0.2669  0.5490 -0.8790
  175MOL0     C23031   2.140   2.943   7.822 -0.3827 -0.9871  0.5963
  175MOL0     C23032   2.200   2.964   7.715  1.0909 -0.0215  0.0703
  175MOL0     C23033   1.458   2.650   8.121 -0.3597 -1.2089 -0.3318
  175MOL0     C23034   1.359   2.556   8.121  0.1652 -0.1667 -0.7370
  175MOL0     H23035   1.093   2.098   8.094 -1.2609 -1.2029 -1.5523
  175MOL0     H23036   0.881   2.010   8.081 -2.7820  0.4684 -1.5471
  175MOL0     H23037   0.591   2.263   7.870 -1.5093  1.0965 -0.5617
  175MOL0     H23038   0.527   2.281   8.043  0.1202 -1.2014  1.0805
  175MOL0     H23039   0.448   2.049   7.860 -3.0885  1.6597 -3.0997
  175MOL0     H23040   0.365   2.203   7.872 -0.2202  0.9948  1.7348
  175MOL0     H23041   0.358   2.176   8.104  1.0278 -0.0373 -0.8371
  175MOL0     H23042   0.430   2.015   8.081 -0.0142  1.3881  2.4515
  175MOL0     H23043   0.167   2.122   7.965  1.0390  0.2472 -0.9437
  175MOL0     H23044   0.228   1.963   7.925  2.5691 -1.2294  0.5405
  175MOL0     H23045   0.236   1.903   8.173  1.6882 -0.1587 -3.1701
  175MOL0     H23046   0.079   1.929   8.106 -0.5953 -1.1429  2.9696
  175MOL0     H23047   0.116   2.176   8.201  0.1555 -0.2639  0.5900
  175MOL0     H23048   0.244   2.104   8.298  0.0364  0.2718 -2.1372
  175MOL0     H23049   0.087   1.927   8.345  1.2066  0.4035 -3.4028
  175MOL0     H23050   0.065   2.075   8.438  1.3523  0.3012 -0.6752
  175MOL0     H23051  -0.115   2.001   8.202  3.1438 -0.8384 -0.2866
  175MOL0     H23052  -0.131   2.155   8.281 -1.6342 -1.2695 -1.3209
  175MOL0     H23053  -0.388   2.078   8.297 -1.5948 -1.7774  0.0613
  175MOL0     H23054  -0.589   2.088   8.513  0.7965  1.6184  5.2079
  175MOL0     H23055  -0.552   1.986   8.642  1.7920  1.0436  0.4164
  175MOL0     H23056  -0.557   1.780   8.503 -1.2422 -2.3520 -0.5074
  175MOL0     H23057  -0.618   1.885   8.370  0.1455  0.1338  0.5915
  175MOL0     H23058  -0.754   1.864   8.635 -1.8416 -2.2505  0.0097
  175MOL0     H23059  -0.818   1.932   8.481 -1.9126 -2.3375 -0.5349
  175MOL0     H23060  -0.720   1.647   8.487 -0.9166 -1.5784 -0.8033
  175MOL0     H23061  -0.815   1.732   8.371 -3.7685  0.4713  1.2912
  175MOL0     H23062  -0.827   1.465   8.405  1.0105  1.6278  1.0239
  175MOL0     H23063  -0.883   1.242   8.450  0.7588 -0.4008  0.7103
  175MOL0     H23064  -1.242   0.928   8.621 -1.3443  0.2560 -2.1169
  175MOL0     H23065  -1.280   0.679   8.660  1.4765 -2.6148  1.5271
  175MOL0     H23066  -0.980   0.436   8.835 -2.9044 -0.1585  0.7349
  175MOL0     H23067  -0.924   0.420   8.672 -0.1288  1.7192  0.2893
  175MOL0     H23068  -0.963   0.210   8.799 -0.9583  1.4798  3.5340
  175MOL0     H23069  -1.037   0.216   8.640 -0.8019 -0.3709  0.5004
  175MOL0     H23070  -1.240   0.333   8.803 -0.7508 -0.3172 -0.0332
  175MOL0     H23071  -1.167   0.232   8.918 -1.8844  1.4363  0.7000
  175MOL0     H23072  -1.349   0.110   8.814 -0.1808  0.5099 -0.3937
  175MOL0     H23073  -1.264   0.110   8.663 -1.6152  0.9159  0.0447
  175MOL0     H23074  -1.155  -0.006   8.924  2.2029  0.3766 -0.0785
  175MOL0     H23075  -1.057   0.007   8.774  1.6808 -0.1059  3.5913
  175MOL0     H23076  -1.236  -0.116   8.653 -1.4749 -2.8431 -1.1239
  175MOL0     H23077  -1.325  -0.135   8.801 -0.4746  0.4545 -0.1533
  175MOL0     H23078  -1.157  -0.270   8.898 -1.2568 -1.9397 -0.4927
  175MOL0     H23079  -1.186  -0.337   8.732  3.9475 -2.6694  0.6254
  175MOL0     H23080  -0.943  -0.347   8.777 -1.3180 -0.4395 -0.2040
  175MOL0     H23081  -0.954  -0.187   8.852  0.1191 -1.0319  0.5419
  175MOL0     H23082  -0.853   0.626   8.644  1.0035  1.5779 -0.4220
  175MOL0     H23083  -0.831   0.854   8.565 -1.3540  3.6071  0.8567
  175MOL0     H23084  -1.113   1.349   8.794 -1.6831  1.6370 -1.2976
  175MOL0     H23085  -1.053   1.593   8.751  2.2405  1.8902 -1.0317
  175MOL0     H23086   0.718   2.397   8.000  1.0041  0.0417 -1.7784
  175MOL0     H23087   0.941   2.499   8.084 -1.9272 -0.1164  1.1288
  175MOL0     H23088   1.539   2.283   8.233  1.0422  0.2745 -0.0651
  175MOL0     H23089   1.709   2.456   8.228 -0.3912  1.5387 -0.9244
  175MOL0     H23090   1.682   2.866   8.057 -1.2767  0.2074 -1.0924
  175MOL0     H23091   1.667   2.716   7.958 -0.0713  1.6052 -0.8936
  175MOL0     H23092   1.917   2.758   8.117  3.2269  2.4026 -2.1908
  175MOL0     H23093   1.882   2.672   7.961 -2.6466  0.0327 -1.8238
  175MOL0     H23094   1.892   2.969   7.980 -1.6556 -0.9726  0.0330
  175MOL0     H23095   1.889   2.865   7.831  0.4276 -1.8126 -0.1735
  175MOL0     H23096   2.102   2.928   8.031  0.7676 -2.0328  0.3146
  175MOL0     H23097   2.123   2.779   7.946 -1.1524  0.2745  1.1371
  175MOL0     H23098   2.247   2.996   7.625  2.0364 -1.8078 -0.1016
  175MOL0     H23099   1.435   2.753   8.094 -1.3830 -0.9640  1.3512
  175MOL0     H23100   1.262   2.586   8.082 -1.2855  0.1249  2.7270
  176MOL0     O23101   9.736   3.813   2.094  0.7003 -0.0645  0.8217
  176MOL0     C23102   9.781   3.851   1.983  0.0185  0.7362  0.2977
  176MOL0     O23103   9.712   3.908   1.882  0.4917  0.1163  0.6016
  176MOL0     C23104   9.574   3.914   1.875 -0.0450  0.0477 -0.0116
  176MOL0     C23105   9.481   3.830   1.948 -0.1207  0.1731  0.7665
  176MOL0     C23106   9.342   3.844   1.939  0.0041 -0.7837  0.0167
  176MOL0     C23107   9.284   3.950   1.862 -0.0241  0.1520  0.3030
  176MOL0     O23108   9.150   3.976   1.851 -0.3552  0.3912 -0.4664
  176MOL0     C23109   9.048   3.873   1.851  0.4290 -0.2588  0.5461
  176MOL0     C23110   8.922   3.928   1.779  0.2102 -0.9116  0.1033
  176MOL0     C23111   8.827   3.999   1.876 -0.1047 -0.2397 -0.1797
  176MOL0     C23112   8.693   4.027   1.801  0.6857  0.0088 -0.1015
  176MOL0     C23113   8.587   4.048   1.913  0.8504  0.2367 -0.8901
  176MOL0     C23114   8.594   4.187   1.981 -0.2333  0.0585 -0.0500
  176MOL0     C23115   8.472   4.226   2.057 -0.2808 -0.1689  1.0134
  176MOL0     C23116   8.479   4.347   2.140  0.1323  0.2574 -0.5620
  176MOL0     N23117   8.527   4.469   2.086 -0.5697  0.4802  0.9145
  176MOL0     C23118   8.667   4.501   2.076  0.3323 -0.2724 -0.4041
  176MOL0     C23119   8.684   4.583   1.970 -0.6272 -0.4898  0.2105
  176MOL0     C23120   8.817   4.617   1.901  0.2939 -0.3268 -0.7927
  176MOL0     C23121   8.833   4.766   1.883  0.1285  0.3047 -0.5309
  176MOL0     C23122   8.953   4.798   1.788 -0.0391  0.8374  0.1292
  176MOL0     C23123   8.959   4.942   1.746 -0.3388 -0.0267 -0.2395
  176MOL0     O23124   8.987   5.023   1.865  0.2913 -0.8724  0.3123
  176MOL0     C23125   9.120   5.050   1.905 -0.4328  0.0100 -0.0964
  176MOL0     C23126   9.131   5.137   2.010 -0.0722  0.8893 -0.0195
  176MOL0     C23127   9.262   5.184   2.051 -0.3346  0.7160  0.6680
  176MOL0     C23128   9.382   5.141   1.987  0.7385 -0.4514  0.4148
  176MOL0     C23129   9.508   5.194   2.027  0.0290  1.1673  0.7097
  176MOL0     O23130   9.613   5.123   1.985 -0.7930  0.0239  0.7878
  176MOL0     C23131   9.732   5.169   2.047  0.0605 -0.1873 -0.1176
  176MOL0     C23132   9.816   5.252   1.973  0.3864  0.6715  0.1958
  176MOL0     C23133   9.926   5.304   2.037  0.5489 -0.2908  0.3267
  176MOL0     C23134   9.962   5.265   2.169 -0.5089 -0.2031 -0.3428
  176MOL0     O23135  10.075   5.331   2.220  0.2810  0.0228  0.4947
  176MOL0     C23136  10.119   5.303   2.353 -0.2439 -0.4052  0.4364
  176MOL0     C23137  10.254   5.367   2.400 -0.2559 -0.0014  0.5082
  176MOL0     C23138  10.233   5.510   2.438  0.3866  0.7760 -0.0415
  176MOL0     C23139  10.367   5.564   2.482 -0.1869  0.0326  0.2504
  176MOL0     C23140  10.386   5.709   2.466 -0.2681 -0.5626 -0.9608
  176MOL0     C23141  10.280   5.795   2.528  0.3548 -0.8139 -0.8979
  176MOL0     C23142  10.331   5.938   2.514 -0.7627 -0.7981  0.4064
  176MOL0     C23143  10.238   6.033   2.592 -0.5422 -0.7849  0.7089
  176MOL0    Cl23144  10.079   6.080   2.497  0.0790  0.2017  0.0149
  176MOL0     C23145   9.885   5.167   2.234  0.5678  0.4944  0.3197
  176MOL0     C23146   9.766   5.112   2.167 -0.3619  0.0209 -0.5255
  176MOL0     O23147   9.504   5.290   2.103 -0.2187 -0.6264 -0.5867
  176MOL0     C23148   9.359   5.052   1.876 -0.5594  0.2541  0.3126
  176MOL0     C23149   9.235   5.010   1.838 -0.1244  0.1971 -1.0721
  176MOL0     N23150   8.560   4.588   1.900 -0.5549  0.4860  0.4643
  176MOL0     N23151   8.469   4.524   1.973  0.3866  0.4072 -0.1874
  176MOL0     C23152   9.377   4.028   1.788 -0.4186 -0.3435  0.0059
  176MOL0     C23153   9.517   4.011   1.797  0.0408  0.2842  0.4499
  176MOL0     C23154   9.927   3.842   1.967 -0.0855  0.0719  0.6488
  176MOL0     C23155  10.007   3.821   2.077  0.7013  0.7816 -0.5280
  176MOL0     C23156  10.139   3.779   2.055  0.5089 -1.0251 -0.3852
  176MOL0     C23157  10.204   3.787   1.933  0.4757  0.2345  0.0582
  176MOL0     O23158  10.332   3.743   1.921 -0.3051 -0.1115  0.5390
  176MOL0     C23159  10.410   3.831   1.834  0.5877 -0.4262  0.1495
  176MOL0     C23160  10.558   3.780   1.853  0.6546  0.2489  0.5839
  176MOL0     C23161  10.591   3.797   1.998 -1.2918  0.8569  0.7181
  176MOL0     C23162  10.742   3.757   2.039  0.4882 -0.3373 -0.1364
  176MOL0     C23163  10.839   3.820   1.951 -0.2953 -0.5432  0.7341
  176MOL0     C23164  10.921   3.887   1.884 -0.2241  0.1515 -0.0819
  176MOL0     C23165  10.124   3.809   1.818  0.3656 -0.8660 -0.1811
  176MOL0     C23166   9.985   3.844   1.833  0.8373  0.7355 -0.1672
  176MOL0     H23167   9.515   3.747   2.008 -1.8663  0.6050  2.4209
  176MOL0     H23168   9.282   3.793   2.013 -0.5033 -0.6123 -0.2786
  176MOL0     H23169   9.022   3.844   1.954 -1.0950  1.6496  0.7690
  176MOL0     H23170   9.085   3.784   1.800 -0.0157  0.9158 -1.9787
  176MOL0     H23171   8.862   3.842   1.749 -1.7977  0.1909  0.7885
  176MOL0     H23172   8.952   3.985   1.691 -2.1013  1.8683  0.9670
  176MOL0     H23173   8.868   4.093   1.913  2.3626  0.0209 -3.2203
  176MOL0     H23174   8.809   3.929   1.958 -2.1672  1.0975  0.5973
  176MOL0     H23175   8.680   4.107   1.728  1.4403 -0.2400 -0.5201
  176MOL0     H23176   8.661   3.939   1.745 -1.0766  0.6462 -0.1599
  176MOL0     H23177   8.590   3.971   1.991 -2.2989  0.5406 -0.3385
  176MOL0     H23178   8.483   4.048   1.880  0.8925  0.1507 -1.0218
  176MOL0     H23179   8.615   4.261   1.903 -0.0862 -1.8391 -1.9008
  176MOL0     H23180   8.683   4.201   2.043 -1.1637  0.0420  1.3388
  176MOL0     H23181   8.383   4.232   1.993 -1.0617 -2.5184  1.7688
  176MOL0     H23182   8.441   4.141   2.119 -5.0119 -0.0535 -0.7977
  176MOL0     H23183   8.546   4.325   2.225 -0.7919 -0.4065  0.0151
  176MOL0     H23184   8.378   4.372   2.173  0.0920  0.3787 -0.7763
  176MOL0     H23185   8.749   4.449   2.123 -0.6006 -1.6581 -0.2594
  176MOL0     H23186   8.819   4.581   1.798  1.7082  2.0406 -1.6613
  176MOL0     H23187   8.900   4.570   1.953  0.0585  1.1383  1.0320
  176MOL0     H23188   8.847   4.799   1.986  0.4652 -0.6390 -0.2618
  176MOL0     H23189   8.742   4.812   1.843 -0.1001 -0.1676 -0.5710
  176MOL0     H23190   9.039   4.764   1.845 -0.8731 -0.5225  0.6314
  176MOL0     H23191   8.955   4.733   1.700 -1.3754  1.5529 -0.4590
  176MOL0     H23192   8.860   4.974   1.714 -1.3938 -0.3177  2.4711
  176MOL0     H23193   9.028   4.955   1.662 -1.1115 -2.2739 -1.2847
  176MOL0     H23194   9.032   5.171   2.036 -0.1619  2.9175 -2.5992
  176MOL0     H23195   9.267   5.259   2.129  0.3762 -0.8061  2.1551
  176MOL0     H23196   9.792   5.297   1.877 -0.8446  1.9644  1.0665
  176MOL0     H23197   9.983   5.381   1.988 -0.0592 -0.2276 -0.2914
  176MOL0     H23198  10.125   5.196   2.376  1.1711 -0.0728  1.7181
  176MOL0     H23199  10.040   5.346   2.414 -1.4321  1.9048 -2.4628
  176MOL0     H23200  10.326   5.350   2.318  0.6591 -1.8816  1.6162
  176MOL0     H23201  10.303   5.310   2.480 -2.9341 -1.2276  1.3822
  176MOL0     H23202  10.158   5.520   2.517 -0.1115  0.1390 -0.4205
  176MOL0     H23203  10.201   5.567   2.351 -2.0122  1.2506  1.0823
  176MOL0     H23204  10.388   5.540   2.586 -2.8538 -1.5509  0.4967
  176MOL0     H23205  10.448   5.509   2.433 -1.5916 -1.1059 -0.8830
  176MOL0     H23206  10.419   5.747   2.369 -2.1617  0.8154 -1.1227
  176MOL0     H23207  10.474   5.728   2.527 -0.8103 -0.9468 -0.0469
  176MOL0     H23208  10.264   5.779   2.635 -4.5890  0.3622 -1.1982
  176MOL0     H23209  10.185   5.781   2.475 -1.1253  2.1171  0.7393
  176MOL0     H23210  10.427   5.946   2.566 -0.3252  0.1063 -0.4872
  176MOL0     H23211  10.348   5.960   2.408  2.1968 -1.0576  0.7422
  176MOL0     H23212  10.301   6.119   2.617  1.7860 -2.0835 -0.4228
  176MOL0     H23213  10.214   5.985   2.688  0.6269 -1.5315  0.6417
  176MOL0     H23214   9.906   5.138   2.336  0.5913 -0.7701 -0.0280
  176MOL0     H23215   9.714   5.027   2.210 -0.8913 -0.2598 -1.6941
  176MOL0     H23216   9.439   5.023   1.808 -0.4001  1.5183 -0.0679
  176MOL0     H23217   9.244   4.946   1.751  2.6230 -0.3672 -0.4736
  176MOL0     H23218   9.331   4.104   1.726  0.9344  1.5420  1.1869
  176MOL0     H23219   9.583   4.073   1.737 -0.8871  1.3195  0.4636
  176MOL0     H23220   9.975   3.833   2.180 -0.1082 -1.1292 -0.5273
  176MOL0     H23221  10.207   3.762   2.139  0.0907 -3.8817 -0.5469
  176MOL0     H23222  10.395   3.935   1.865 -1.8530 -0.0491 -1.9287
  176MOL0     H23223  10.391   3.826   1.727 -0.4623 -2.8554  0.3872
  176MOL0     H23224  10.568   3.673   1.833  1.3674 -0.2361  3.1446
  176MOL0     H23225  10.625   3.828   1.782 -1.8093  0.6997 -1.6002
  176MOL0     H23226  10.522   3.753   2.070 -0.8622  1.4962  1.5398
  176MOL0     H23227  10.599   3.905   2.016  0.9693  0.9476 -0.4128
  176MOL0     H23228  10.771   3.784   2.141  0.4149 -0.4518 -0.0848
  176MOL0     H23229  10.743   3.648   2.026 -1.4793 -0.5260  0.8804
  176MOL0     H23230  10.986   3.942   1.818  0.2898 -0.1046  0.2076
  176MOL0     H23231  10.174   3.810   1.722 -0.5798  1.3829 -0.7339
  176MOL0     H23232   9.929   3.858   1.742 -0.4290 -0.0875  0.4611
  177MOL0     O23233   8.470   5.378  10.711 -0.5597  0.3546  0.0449
  177MOL0     C23234   8.449   5.463  10.628  0.0853  0.0657  0.4116
  177MOL0     O23235   8.337   5.536  10.616 -0.1341  1.0013  0.2869
  177MOL0     C23236   8.235   5.553  10.716 -0.8621 -0.2893  0.1378
  177MOL0     C23237   8.259   5.519  10.850  0.2848 -0.4179  0.2593
  177MOL0     C23238   8.153   5.537  10.934  0.4401 -0.1826  0.5781
  177MOL0     C23239   8.024   5.569  10.889 -0.9351 -0.1124 -0.1514
  177MOL0     O23240   7.917   5.588  10.972 -0.1760  0.3072 -0.4276
  177MOL0     C23241   7.916   5.549  11.111 -0.4491 -0.4879  0.0405
  177MOL0     C23242   7.808   5.625  11.183  0.6148  0.7875  0.5198
  177MOL0     C23243   7.671   5.583  11.140  0.8276  0.0907 -0.2883
  177MOL0     C23244   7.564   5.649  11.237 -0.6000 -1.0144 -0.7219
  177MOL0     C23245   7.425   5.600  11.210 -0.1572 -0.1631 -0.0398
  177MOL0     C23246   7.378   5.633  11.069  0.3746 -0.4788  0.1056
  177MOL0     C23247   7.232   5.594  11.044 -0.3471 -0.7141  0.2728
  177MOL0     C23248   7.191   5.632  10.893  0.7494 -0.8866  0.1506
  177MOL0     N23249   7.197   5.774  10.855  0.2540  0.5831  0.6877
  177MOL0     C23250   7.142   5.875  10.926  0.4443 -0.4201  0.2674
  177MOL0     C23251   7.195   5.990  10.881  0.1806  0.4609  0.7590
  177MOL0     C23252   7.165   6.129  10.909 -0.5014 -0.6514  0.0134
  177MOL0     C23253   7.191   6.224  10.782 -0.0338 -0.7264 -0.7043
  177MOL0     C23254   7.160   6.372  10.797  0.1649 -0.6017 -0.5272
  177MOL0     C23255   7.013   6.409  10.819  0.6314 -0.0629  0.5028
  177MOL0     O23256   6.962   6.456  10.687  0.8048  0.2021  0.9163
  177MOL0     C23257   6.829   6.433  10.649  0.2921  0.3790  0.2759
  177MOL0     C23258   6.781   6.471  10.519  0.3587 -0.3468 -0.4441
  177MOL0     C23259   6.642   6.458  10.481  0.0405 -0.0244  0.4620
  177MOL0     C23260   6.555   6.386  10.571  0.1364  0.2983  0.2778
  177MOL0     C23261   6.415   6.348  10.528 -0.0370  0.4755 -0.9888
  177MOL0     O23262   6.338   6.260  10.611  0.1980 -0.4047 -0.3218
  177MOL0     C23263   6.203   6.268  10.595  0.4766  0.4672  0.9406
  177MOL0     C23264   6.136   6.203  10.492 -0.0591 -0.3200 -0.3450
  177MOL0     C23265   5.995   6.198  10.493 -0.7296  0.8157 -0.2267
  177MOL0     C23266   5.917   6.261  10.591 -0.2268 -0.0456  0.4548
  177MOL0     O23267   5.782   6.263  10.596 -0.4471 -0.0566 -0.5668
  177MOL0     C23268   5.705   6.195  10.489 -0.6286 -0.6360 -0.3912
  177MOL0     C23269   5.671   6.054  10.527 -0.0995 -0.4531 -0.3296
  177MOL0     C23270   5.602   5.974  10.406 -0.0254  0.4150 -0.4165
  177MOL0     C23271   5.475   6.035  10.347  0.2359  0.3467  0.1704
  177MOL0     C23272   5.400   5.927  10.272 -0.2977 -0.6656  0.6392
  177MOL0     C23273   5.290   5.992  10.182 -0.0099  0.1385  0.6277
  177MOL0     C23274   5.210   5.877  10.133  0.3765  0.0698  1.1546
  177MOL0     C23275   5.090   5.925  10.038 -0.2843 -0.8370  0.1254
  177MOL0    Cl23276   5.043   5.778   9.942  0.0856 -0.5453  0.2255
  177MOL0     C23277   5.990   6.330  10.687 -0.1995  0.3474  0.0052
  177MOL0     C23278   6.132   6.332  10.689 -0.4854  0.5164 -0.0851
  177MOL0     O23279   6.373   6.405  10.429  0.4200 -1.2178  0.8548
  177MOL0     C23280   6.604   6.352  10.703  0.2213  0.4283 -0.0498
  177MOL0     C23281   6.739   6.369  10.735  0.0910 -0.2805  0.7676
  177MOL0     N23282   7.279   5.955  10.782 -0.5791 -0.5284 -0.0423
  177MOL0     N23283   7.289   5.827  10.775  0.0931  0.3707  0.1920
  177MOL0     C23284   7.999   5.587  10.753  0.2938 -0.1155  0.0207
  177MOL0     C23285   8.107   5.582  10.664 -0.1764 -0.2490  0.0751
  177MOL0     C23286   8.551   5.474  10.531  0.4432 -0.1196  0.0183
  177MOL0     C23287   8.551   5.585  10.440 -0.1791  0.3745 -0.1959
  177MOL0     C23288   8.652   5.603  10.346 -0.0730  0.4130 -0.3159
  177MOL0     C23289   8.756   5.515  10.325  0.4575  0.0054  0.2686
  177MOL0     O23290   8.854   5.531  10.230  0.2399  0.3471 -0.0644
  177MOL0     C23291   8.850   5.627  10.126  0.1011  0.0178  0.3436
  177MOL0     C23292   8.941   5.593  10.009  0.2217  0.3050 -0.2548
  177MOL0     C23293   9.077   5.537  10.063 -0.1789 -0.3997 -0.0224
  177MOL0     C23294   9.172   5.509   9.946  0.0647  0.5661 -0.2700
  177MOL0     C23295   9.299   5.461   9.998  0.2827 -0.3739  0.4648
  177MOL0     C23296   9.407   5.431  10.053  0.0491 -0.0286 -0.2821
  177MOL0     C23297   8.759   5.408  10.415  0.1433 -0.2411  0.4669
  177MOL0     C23298   8.666   5.393  10.516  0.4245  0.3606  0.4245
  177MOL0     H23299   8.346   5.478  10.900  1.2124  1.9586  0.7007
  177MOL0     H23300   8.165   5.520  11.040 -2.3050  0.5431  1.0760
  177MOL0     H23301   8.011   5.577  11.158  0.0979  1.6185 -2.1361
  177MOL0     H23302   7.899   5.441  11.123  1.2769 -0.7806  0.1965
  177MOL0     H23303   7.821   5.730  11.157  0.2922  0.8745  0.6930
  177MOL0     H23304   7.805   5.612  11.292 -1.1600 -0.6795  0.3516
  177MOL0     H23305   7.657   5.474  11.149 -2.6131  0.3408 -1.4444
  177MOL0     H23306   7.653   5.609  11.036  1.9396 -1.1129 -0.8204
  177MOL0     H23307   7.603   5.631  11.337  0.6126  0.8610 -0.8078
  177MOL0     H23308   7.562   5.758  11.226  0.4262 -0.9018  0.1276
  177MOL0     H23309   7.356   5.649  11.279 -1.9581 -1.4644 -0.8384
  177MOL0     H23310   7.430   5.496  11.242  0.8883  0.9835  4.1620
  177MOL0     H23311   7.441   5.594  10.989  0.2679 -2.4728  0.9395
  177MOL0     H23312   7.368   5.742  11.072 -2.4093 -0.6758  1.2203
  177MOL0     H23313   7.227   5.485  11.054  1.0781 -0.7508  0.8310
  177MOL0     H23314   7.164   5.635  11.119  1.0273  2.3778 -0.0295
  177MOL0     H23315   7.102   5.574  10.866  1.8091 -1.4236 -2.5322
  177MOL0     H23316   7.265   5.587  10.826  0.1009 -1.5364 -0.1409
  177MOL0     H23317   7.069   5.858  11.005  1.2688  0.3879  1.2203
  177MOL0     H23318   7.234   6.153  10.990  1.9072 -2.9195 -1.2110
  177MOL0     H23319   7.065   6.141  10.952 -0.1796 -1.9265  1.1689
  177MOL0     H23320   7.131   6.186  10.699 -1.9829  1.1534 -0.2593
  177MOL0     H23321   7.295   6.218  10.748 -0.1911  0.6377 -1.5203
  177MOL0     H23322   7.208   6.415  10.885 -1.6552 -0.0286  0.2295
  177MOL0     H23323   7.199   6.433  10.715 -0.2034  2.1797  1.2485
  177MOL0     H23324   6.993   6.491  10.888  2.6196  0.2793  0.7253
  177MOL0     H23325   6.964   6.317  10.851  0.6957  0.0017  0.7867
  177MOL0     H23326   6.851   6.531  10.463 -2.3719  3.3211 -0.3435
  177MOL0     H23327   6.622   6.502  10.384  0.5246 -0.1095  0.3182
  177MOL0     H23328   6.197   6.155  10.416 -0.6822 -0.7555 -0.5760
  177MOL0     H23329   5.960   6.145  10.405  2.2952  0.5316 -1.3745
  177MOL0     H23330   5.749   6.208  10.390 -0.6433  0.2115 -0.2991
  177MOL0     H23331   5.607   6.243  10.478 -1.5009 -2.5905 -1.6205
  177MOL0     H23332   5.601   6.054  10.611 -0.5643  1.1106 -0.6835
  177MOL0     H23333   5.762   6.004  10.561  0.8535  1.4379 -0.0196
  177MOL0     H23334   5.581   5.872  10.440  0.6312 -0.2371 -1.9022
  177MOL0     H23335   5.680   5.965  10.331 -0.7899  0.7979 -1.2737
  177MOL0     H23336   5.420   6.077  10.432 -1.0780 -4.0531  1.7603
  177MOL0     H23337   5.500   6.118  10.280  2.0260 -1.3462 -1.3493
  177MOL0     H23338   5.356   5.851  10.336 -1.1255 -0.3384  0.4679
  177MOL0     H23339   5.471   5.877  10.206  0.0424 -0.3913  0.7946
  177MOL0     H23340   5.326   6.041  10.091 -0.8218  1.9271  1.2322
  177MOL0     H23341   5.244   6.074  10.236  1.0714  2.2018 -1.3861
  177MOL0     H23342   5.266   5.799  10.080  0.4967  0.0949  1.2442
  177MOL0     H23343   5.151   5.833  10.214 -0.8618  1.7055  1.1746
  177MOL0     H23344   5.106   6.006   9.968 -2.9785  0.2872  0.6678
  177MOL0     H23345   5.007   5.967  10.095  0.1714  0.3943 -0.0953
  177MOL0     H23346   5.927   6.388  10.753  2.1858  2.2363  0.7437
  177MOL0     H23347   6.191   6.381  10.767  0.1795  0.1104 -0.3306
  177MOL0     H23348   6.544   6.289  10.767  0.3403  0.9865  0.6243
  177MOL0     H23349   6.776   6.338  10.832  0.5240  2.5003  1.5726
  177MOL0     H23350   7.899   5.611  10.718  0.3217  0.6630  0.4309
  177MOL0     H23351   8.093   5.606  10.559 -1.2406 -3.2589 -0.5510
  177MOL0     H23352   8.476   5.661  10.458  3.1379  3.5793  1.3800
  177MOL0     H23353   8.632   5.677  10.269 -3.2025 -0.9176 -0.9815
  177MOL0     H23354   8.891   5.719  10.167  4.0286 -0.7173 -1.4678
  177MOL0     H23355   8.753   5.644  10.078  1.0686 -0.4063 -1.9327
  177MOL0     H23356   8.896   5.516   9.944  0.2820  1.2796 -1.4890
  177MOL0     H23357   8.963   5.686   9.957  0.2461  0.3563 -0.1513
  177MOL0     H23358   9.069   5.438  10.109  1.3881 -0.2207  0.7057
  177MOL0     H23359   9.114   5.613  10.133  1.8797  3.4124 -4.6433
  177MOL0     H23360   9.135   5.431   9.878  0.2296 -0.2152  0.5154
  177MOL0     H23361   9.190   5.601   9.889  3.1930 -1.0177 -2.1531
  177MOL0     H23362   9.503   5.391  10.078 -1.4722 -2.2595  2.7505
  177MOL0     H23363   8.837   5.333  10.406  1.2398  0.8505  0.7445
  177MOL0     H23364   8.671   5.304  10.578  0.3054 -1.0123 -1.4628
  178MOL0     O23365   0.089   4.108   9.845  0.1577 -0.0504 -0.6290
  178MOL0     C23366   0.108   3.992   9.803  0.2690  0.7533 -0.1343
  178MOL0     O23367   0.014   3.911   9.740  0.2124  1.0012  0.9335
  178MOL0     C23368  -0.119   3.929   9.755 -1.0880  0.5623  1.0546
  178MOL0     C23369  -0.183   3.984   9.866  0.8825 -0.8323 -0.1624
  178MOL0     C23370  -0.323   3.985   9.867 -0.3094  0.5298 -0.5244
  178MOL0     C23371  -0.395   3.940   9.759  0.4430  0.3359 -0.0552
  178MOL0     O23372  -0.535   3.940   9.746  0.1697  0.1394 -0.1934
  178MOL0     C23373  -0.595   4.054   9.808 -0.1241 -0.7563  0.8434
  178MOL0     C23374  -0.742   4.029   9.782 -0.5187  0.0670 -0.5330
  178MOL0     C23375  -0.822   4.130   9.859  0.8131  0.4628 -0.3153
  178MOL0     C23376  -0.968   4.099   9.838 -0.6225 -0.3707  0.0242
  178MOL0     C23377  -1.044   4.218   9.886 -0.8348  0.1801 -0.0605
  178MOL0     C23378  -1.196   4.195   9.863  0.5783 -0.0700 -0.8407
  178MOL0     C23379  -1.309   4.294   9.905 -1.0391  0.2966  0.5745
  178MOL0     C23380  -1.444   4.235   9.886  0.5261  1.1823 -0.2402
  178MOL0     N23381  -1.475   4.188   9.751 -0.5465 -0.3281 -0.2777
  178MOL0     C23382  -1.553   4.249   9.657  1.2875 -0.4467  0.2723
  178MOL0     C23383  -1.571   4.158   9.560  0.0720  0.0209 -0.7098
  178MOL0     C23384  -1.644   4.171   9.430  0.1711  0.7809 -0.2345
  178MOL0     C23385  -1.795   4.189   9.465  1.1110  0.5155 -0.1044
  178MOL0     C23386  -1.840   4.056   9.539  0.3240 -0.5410 -0.2052
  178MOL0     C23387  -1.995   4.036   9.544  0.2215 -0.2635 -0.4048
  178MOL0     O23388  -2.061   4.152   9.585 -1.2005 -0.5374  0.7741
  178MOL0     C23389  -2.189   4.155   9.628  1.3252  0.6188 -0.3533
  178MOL0     C23390  -2.246   4.273   9.657  0.8815  0.2915 -0.5249
  178MOL0     C23391  -2.388   4.294   9.675 -0.3860  0.8988  0.2184
  178MOL0     C23392  -2.474   4.183   9.664  0.1526 -0.2621 -0.1174
  178MOL0     C23393  -2.624   4.195   9.667  0.2991 -0.2380  0.7000
  178MOL0     O23394  -2.682   4.304   9.727 -0.1002 -0.1309 -0.3979
  178MOL0     C23395  -2.812   4.313   9.735 -0.5700 -0.1925  0.9802
  178MOL0     C23396  -2.913   4.275   9.643 -0.1272 -0.7448  0.3981
  178MOL0     C23397  -3.050   4.297   9.677 -0.6022 -0.2436  0.0710
  178MOL0     C23398  -3.091   4.375   9.788 -0.9413  0.3957  1.3358
  178MOL0     O23399  -3.226   4.390   9.802 -1.1869  0.0067 -0.0413
  178MOL0     C23400  -3.284   4.383   9.931  0.2014 -0.0425 -0.5544
  178MOL0     C23401  -3.431   4.354   9.906  0.9349  0.2788  0.2018
  178MOL0     C23402  -3.508   4.310  10.032  1.1220  0.1940 -0.1233
  178MOL0     C23403  -3.544   4.432  10.122 -0.4190 -1.1502 -0.1413
  178MOL0     C23404  -3.651   4.407  10.225 -0.1713 -0.0800 -0.0734
  178MOL0     C23405  -3.788   4.380  10.165  0.2332 -0.4443  0.4465
  178MOL0     C23406  -3.900   4.367  10.279 -0.2793  0.1365  0.3544
  178MOL0     C23407  -4.042   4.366  10.241  0.3299  0.4477 -0.6193
  178MOL0    Cl23408  -4.082   4.518  10.163 -0.1264  0.5116 -0.2210
  178MOL0     C23409  -2.990   4.419   9.876 -0.0025 -1.1653 -0.3578
  178MOL0     C23410  -2.856   4.382   9.849 -0.8732 -0.5225 -0.3923
  178MOL0     O23411  -2.687   4.109   9.600 -0.4659  0.2911 -0.4993
  178MOL0     C23412  -2.413   4.055   9.645 -0.0651 -0.4579 -0.4585
  178MOL0     C23413  -2.276   4.037   9.623  1.0517  0.3424  0.1522
  178MOL0     N23414  -1.500   4.046   9.597 -0.1258  1.2207  0.0673
  178MOL0     N23415  -1.457   4.059   9.716 -0.0355  0.0971  0.6843
  178MOL0     C23416  -0.325   3.868   9.660  0.9369  0.0145  0.5567
  178MOL0     C23417  -0.187   3.874   9.654  0.9202  0.4945 -0.6084
  178MOL0     C23418   0.247   3.940   9.800  0.1469  0.7251  0.7912
  178MOL0     C23419   0.347   4.000   9.881  0.0840 -0.0877  0.1483
  178MOL0     C23420   0.476   3.956   9.878  0.2244  0.3018  0.0336
  178MOL0     C23421   0.506   3.852   9.785 -0.4859  0.7120  0.2971
  178MOL0     O23422   0.632   3.793   9.765 -0.1038 -0.3273 -0.5245
  178MOL0     C23423   0.743   3.814   9.852 -0.8267 -0.6950  0.5541
  178MOL0     C23424   0.729   3.742   9.986 -0.1564 -0.7527 -0.1919
  178MOL0     C23425   0.733   3.586   9.973 -0.3383  0.0543 -0.0228
  178MOL0     C23426   0.877   3.533   9.997 -0.2576 -0.3204  0.7565
  178MOL0     C23427   0.942   3.561  10.118  0.6570 -0.5596 -0.7853
  178MOL0     C23428   0.998   3.565  10.227 -0.3093 -1.4322  0.0683
  178MOL0     C23429   0.405   3.791   9.710  0.2139  0.1553  0.0028
  178MOL0     C23430   0.282   3.834   9.716  0.5024 -0.4789  0.3744
  178MOL0     H23431  -0.126   4.022   9.950  0.5219 -0.7224  0.0330
  178MOL0     H23432  -0.380   4.019   9.953 -1.1433  2.6079 -1.8090
  178MOL0     H23433  -0.571   4.142   9.748 -2.3527 -0.9978 -0.4900
  178MOL0     H23434  -0.586   4.089   9.911 -1.3012 -0.9964  1.0463
  178MOL0     H23435  -0.764   3.925   9.809 -0.7473 -0.5868 -2.9497
  178MOL0     H23436  -0.767   4.042   9.676  0.2814 -2.5884 -1.1252
  178MOL0     H23437  -0.801   4.228   9.817  1.5070 -0.3314 -1.9075
  178MOL0     H23438  -0.797   4.122   9.965  1.4204  1.3822 -0.3807
  178MOL0     H23439  -0.994   4.061   9.739 -1.9866 -2.1599  1.0186
  178MOL0     H23440  -0.993   4.018   9.907  1.1600 -0.6395  0.4024
  178MOL0     H23441  -1.024   4.308   9.826 -0.0369 -1.8425 -3.0535
  178MOL0     H23442  -1.033   4.231   9.994  0.8572 -3.2587  0.2983
  178MOL0     H23443  -1.217   4.099   9.910  3.0012 -0.6715 -0.8529
  178MOL0     H23444  -1.202   4.194   9.754 -2.5152 -2.9179 -0.7755
  178MOL0     H23445  -1.290   4.322  10.009  3.0365 -1.0983  0.3844
  178MOL0     H23446  -1.304   4.386   9.847 -0.8369 -0.2677 -0.3283
  178MOL0     H23447  -1.511   4.319   9.905  0.6405  1.0818  0.6468
  178MOL0     H23448  -1.463   4.160   9.962 -1.3485  0.4216 -1.4015
  178MOL0     H23449  -1.610   4.341   9.660 -0.5924 -1.5191 -0.9110
  178MOL0     H23450  -1.635   4.081   9.369 -0.3873  0.7536 -0.2841
  178MOL0     H23451  -1.595   4.247   9.369  1.8485 -0.5014 -0.5625
  178MOL0     H23452  -1.837   4.187   9.364  1.3800 -0.4711 -0.2133
  178MOL0     H23453  -1.817   4.277   9.526  1.6245 -0.4509  1.5284
  178MOL0     H23454  -1.787   3.968   9.502  0.6090 -0.5286  0.1661
  178MOL0     H23455  -1.821   4.059   9.647 -0.9971  2.3215  0.0369
  178MOL0     H23456  -2.030   3.941   9.585 -3.2295  1.2070  0.4083
  178MOL0     H23457  -2.041   4.027   9.445  0.8179 -3.1909 -0.5060
  178MOL0     H23458  -2.186   4.362   9.642  0.4170  0.5243 -1.0146
  178MOL0     H23459  -2.442   4.387   9.691  1.1943  1.9631 -0.4387
  178MOL0     H23460  -2.886   4.228   9.549 -3.4798  2.8944 -2.7262
  178MOL0     H23461  -3.123   4.266   9.603 -0.4593  1.3384 -0.7894
  178MOL0     H23462  -3.267   4.481   9.977 -1.2237 -0.2750  0.5126
  178MOL0     H23463  -3.237   4.303   9.988 -0.0472 -0.4842 -0.9596
  178MOL0     H23464  -3.442   4.268   9.839 -3.3976  1.1405 -0.4941
  178MOL0     H23465  -3.490   4.430   9.855 -0.4249 -0.6077  0.4069
  178MOL0     H23466  -3.466   4.224  10.085 -2.7663 -2.2481 -0.5839
  178MOL0     H23467  -3.602   4.267   9.997 -0.9152 -0.0923  4.8254
  178MOL0     H23468  -3.453   4.453  10.180  2.0562 -3.2110 -2.9512
  178MOL0     H23469  -3.562   4.512  10.049  0.6584 -0.2382  0.5440
  178MOL0     H23470  -3.657   4.492  10.294  2.2447 -1.4515  1.9669
  178MOL0     H23471  -3.623   4.323  10.289  2.2511  0.1158 -0.8102
  178MOL0     H23472  -3.777   4.284  10.112  3.1049  1.1749 -2.1789
  178MOL0     H23473  -3.809   4.464  10.098 -0.2075 -1.8820 -1.3231
  178MOL0     H23474  -3.885   4.274  10.336  0.0311 -1.1884 -1.7512
  178MOL0     H23475  -3.887   4.466  10.323 -2.2036  1.5421 -1.9495
  178MOL0     H23476  -4.108   4.355  10.328  0.5122  0.7677 -0.4399
  178MOL0     H23477  -4.072   4.281  10.179 -0.4180  0.1997  0.0586
  178MOL0     H23478  -3.020   4.481   9.960  0.1266  0.3540 -1.3911
  178MOL0     H23479  -2.771   4.402   9.913 -0.7962  2.0275 -1.1931
  178MOL0     H23480  -2.483   3.973   9.658 -2.9195  1.3657 -3.0491
  178MOL0     H23481  -2.248   3.933   9.606  0.7847  0.4652 -1.1718
  178MOL0     H23482  -0.377   3.804   9.590  1.7043 -1.1850  1.0503
  178MOL0     H23483  -0.134   3.841   9.566 -2.1504  1.0118 -2.7944
  178MOL0     H23484   0.320   4.086   9.942  1.7842 -2.1574  4.1826
  178MOL0     H23485   0.558   4.008   9.927 -1.6139  2.8944  0.5398
  178MOL0     H23486   0.754   3.922   9.861 -2.4957 -0.6143  2.3545
  178MOL0     H23487   0.828   3.771   9.798 -3.0568 -3.4634 -1.0731
  178MOL0     H23488   0.804   3.786  10.053 -1.1240  0.2860  0.2457
  178MOL0     H23489   0.636   3.783  10.026  0.3341  1.2544 -0.9733
  178MOL0     H23490   0.684   3.553   9.881 -0.6541 -0.5969  0.3753
  178MOL0     H23491   0.668   3.551  10.053  1.8378  0.1054  1.8888
  178MOL0     H23492   0.877   3.424   9.983  1.8308  0.0690 -4.4145
  178MOL0     H23493   0.940   3.561   9.913 -2.0274 -3.3649 -1.8349
  178MOL0     H23494   1.021   3.571  10.331  0.8725  0.0458 -0.2436
  178MOL0     H23495   0.433   3.718   9.635 -0.2203 -0.1732  0.1540
  178MOL0     H23496   0.205   3.796   9.649  0.6351  0.4944 -0.3503
  179MOL0     O23497   9.212   9.490   1.077 -0.4046  0.0405  0.3862
  179MOL0     C23498   9.268   9.599   1.096  1.9890 -0.1794  0.9800
  179MOL0     O23499   9.194   9.713   1.122 -0.0844  0.4336 -0.4664
  179MOL0     C23500   9.062   9.691   1.143  0.1888 -0.6239 -0.2520
  179MOL0     C23501   9.014   9.652   1.266  0.6503 -0.2752 -0.4088
  179MOL0     C23502   8.877   9.632   1.290 -0.6018  0.3627 -0.4710
  179MOL0     C23503   8.784   9.659   1.188  0.2202 -0.4859 -0.3834
  179MOL0     O23504   8.657   9.676   1.204  0.2689  0.3721 -0.2102
  179MOL0     C23505   8.592   9.626   1.314  0.0416 -0.2166 -0.0954
  179MOL0     C23506   8.442   9.604   1.290 -0.0604 -0.5545  0.1358
  179MOL0     C23507   8.376   9.552   1.419  0.2731 -0.0691  0.5744
  179MOL0     C23508   8.239   9.511   1.379  0.0133  0.5870 -0.2370
  179MOL0     C23509   8.167   9.442   1.501  0.1170  0.2272 -0.7722
  179MOL0     C23510   8.030   9.384   1.476 -0.0111 -0.0837  0.2604
  179MOL0     C23511   7.970   9.361   1.612  0.5991 -0.1882 -0.5364
  179MOL0     C23512   8.025   9.237   1.684 -0.0589 -0.0571 -0.5278
  179MOL0     N23513   7.928   9.181   1.771  0.0332 -0.4543 -0.7396
  179MOL0     C23514   7.851   9.070   1.741 -0.7949  0.1046  0.8333
  179MOL0     C23515   7.784   9.044   1.854 -0.0696 -0.6281  1.0816
  179MOL0     C23516   7.695   8.931   1.886  0.5167  0.0947  0.0968
  179MOL0     C23517   7.545   8.969   1.861 -0.5639 -0.8563 -0.2250
  179MOL0     C23518   7.483   9.035   1.982  0.2180 -0.4334  0.1669
  179MOL0     C23519   7.347   9.087   1.954  0.1413  0.9570  0.7073
  179MOL0     O23520   7.270   9.108   2.077 -0.4310 -0.0654 -0.3807
  179MOL0     C23521   7.153   9.178   2.078 -0.3313 -0.1754 -0.3854
  179MOL0     C23522   7.097   9.206   2.207  0.5120  0.2686  0.4709
  179MOL0     C23523   6.960   9.245   2.220 -0.6208  0.4354  0.1585
  179MOL0     C23524   6.883   9.274   2.111  1.1654  0.3535  0.2589
  179MOL0     C23525   6.750   9.335   2.131  0.0786  0.5305  0.5531
  179MOL0     O23526   6.706   9.364   2.258 -0.1485  0.7807  0.5954
  179MOL0     C23527   6.589   9.431   2.267 -0.1031 -0.5464 -0.0594
  179MOL0     C23528   6.583   9.557   2.332  0.2530 -0.4999  0.0248
  179MOL0     C23529   6.459   9.617   2.344 -0.7832  0.5680  0.1129
  179MOL0     C23530   6.345   9.539   2.329 -0.5546  0.0185 -0.1985
  179MOL0     O23531   6.233   9.599   2.383 -0.0035  0.0826  0.4521
  179MOL0     C23532   6.111   9.534   2.339  0.1445 -0.3184 -0.6361
  179MOL0     C23533   5.996   9.621   2.391  0.4504 -0.0023  0.5752
  179MOL0     C23534   5.959   9.745   2.312 -1.3046 -0.2642  0.2235
  179MOL0     C23535   5.854   9.849   2.366  0.2325 -0.6662 -0.0863
  179MOL0     C23536   5.737   9.784   2.434  0.2997  0.1766  0.0854
  179MOL0     C23537   5.624   9.887   2.466 -0.5956  0.1141  1.3711
  179MOL0     C23538   5.525   9.852   2.570 -0.3347  0.4465 -0.4197
  179MOL0     C23539   5.569   9.868   2.712 -0.0065 -0.6946 -0.2769
  179MOL0    Cl23540   5.436   9.819   2.815  0.5574  0.1193 -0.0598
  179MOL0     C23541   6.351   9.410   2.267  0.2535  0.3616  0.0734
  179MOL0     C23542   6.474   9.366   2.224  0.5958 -0.1691 -0.2437
  179MOL0     O23543   6.682   9.344   2.031  0.0482  0.2616  0.4392
  179MOL0     C23544   6.946   9.267   1.981 -0.0090  0.6065 -0.0289
  179MOL0     C23545   7.080   9.219   1.967 -0.0833  0.0347  0.5596
  179MOL0     N23546   7.830   9.129   1.964  0.2708 -0.3739 -0.0841
  179MOL0     N23547   7.910   9.209   1.903 -0.1918 -0.8752  0.2511
  179MOL0     C23548   8.832   9.698   1.057 -0.3172 -0.3233  0.1631
  179MOL0     C23549   8.971   9.726   1.042  0.5426 -0.9165  0.1342
  179MOL0     C23550   9.413   9.603   1.099 -0.3792 -0.6790  1.1994
  179MOL0     C23551   9.481   9.506   1.040 -1.0988  0.8968  0.0493
  179MOL0     C23552   9.616   9.507   1.039  0.4781 -0.0338  0.1783
  179MOL0     C23553   9.694   9.603   1.101 -0.2908  0.3317  0.2550
  179MOL0     O23554   9.827   9.599   1.093 -0.4528  0.0604  0.4922
  179MOL0     C23555   9.881   9.601   0.958  0.1618  0.4704  0.4820
  179MOL0     C23556  10.013   9.666   0.965  0.4086  0.9800 -0.1760
  179MOL0     C23557   9.998   9.812   0.936  0.0467 -0.2154 -0.6990
  179MOL0     C23558  10.116   9.896   0.984 -0.2372 -0.0527  0.7816
  179MOL0     C23559  10.242   9.837   0.923  0.5451  1.1210  0.8866
  179MOL0     C23560  10.357   9.797   0.889 -0.0199  0.1103 -0.3166
  179MOL0     C23561   9.635   9.706   1.166  0.1570  0.1446  0.0656
  179MOL0     C23562   9.489   9.699   1.175  0.4679 -0.1048  0.3039
  179MOL0     H23563   9.091   9.648   1.342  0.1045 -0.1492  0.1498
  179MOL0     H23564   8.843   9.622   1.392  0.0213 -0.0858 -0.3040
  179MOL0     H23565   8.609   9.695   1.398  1.6509  1.5605 -1.7817
  179MOL0     H23566   8.640   9.532   1.342 -0.1391 -0.2725  0.0327
  179MOL0     H23567   8.422   9.538   1.206 -2.1495 -0.9368  0.8663
  179MOL0     H23568   8.402   9.699   1.254  0.0057 -0.9463 -1.0039
  179MOL0     H23569   8.365   9.635   1.488  1.0732 -0.4732  1.2094
  179MOL0     H23570   8.437   9.472   1.464 -1.3422 -2.1983 -0.7934
  179MOL0     H23571   8.187   9.598   1.338 -0.0963 -0.0690 -1.5544
  179MOL0     H23572   8.240   9.438   1.298  0.4993 -0.5369  0.7518
  179MOL0     H23573   8.141   9.521   1.572  0.2313  1.1574 -1.7402
  179MOL0     H23574   8.228   9.375   1.562  0.7122  1.3005 -0.1718
  179MOL0     H23575   8.057   9.297   1.415  0.7283 -0.0799  0.5653
  179MOL0     H23576   7.967   9.449   1.415 -0.0910  0.7692  1.2232
  179MOL0     H23577   7.976   9.443   1.684  3.0087 -1.5464  0.9273
  179MOL0     H23578   7.866   9.334   1.593  1.2244 -2.1660 -1.4491
  179MOL0     H23579   8.114   9.264   1.741  1.3754 -0.7401 -2.3488
  179MOL0     H23580   8.062   9.158   1.618  0.2298 -1.8452  1.6749
  179MOL0     H23581   7.841   9.021   1.645  0.0340  0.6115  0.4821
  179MOL0     H23582   7.719   8.908   1.990  0.8161  0.8518  0.2048
  179MOL0     H23583   7.723   8.842   1.830 -0.2086 -1.3637  1.9475
  179MOL0     H23584   7.492   8.880   1.828 -0.0742 -0.8121 -1.1635
  179MOL0     H23585   7.543   9.043   1.780 -1.2319 -1.3021 -0.6194
  179MOL0     H23586   7.469   8.971   2.070 -0.3985  1.0622  1.1888
  179MOL0     H23587   7.539   9.123   2.016  0.1424  0.4241 -1.7800
  179MOL0     H23588   7.294   9.014   1.892 -0.0497  1.2999  0.4625
  179MOL0     H23589   7.355   9.178   1.894  0.3146  0.5947  0.1728
  179MOL0     H23590   7.156   9.182   2.295  0.2732 -1.3663  0.2045
  179MOL0     H23591   6.921   9.268   2.318  0.1861  3.0452 -0.0546
  179MOL0     H23592   6.671   9.616   2.358 -0.7598  0.5706  1.1249
  179MOL0     H23593   6.460   9.723   2.368 -3.5573  0.9941 -1.1921
  179MOL0     H23594   6.098   9.432   2.375 -2.0342 -0.0467 -0.5473
  179MOL0     H23595   6.105   9.511   2.232  0.0086  1.8411 -1.1337
  179MOL0     H23596   6.021   9.658   2.490 -1.7302  0.2487  1.0989
  179MOL0     H23597   5.903   9.562   2.396  1.6589 -2.3932 -2.1063
  179MOL0     H23598   5.924   9.714   2.214  0.7340 -0.7464 -0.4037
  179MOL0     H23599   6.051   9.803   2.303 -1.4284 -0.2739 -1.2900
  179MOL0     H23600   5.903   9.921   2.432  0.1694  2.4614 -3.1520
  179MOL0     H23601   5.815   9.902   2.278 -0.8844  0.4938  1.0558
  179MOL0     H23602   5.767   9.731   2.525  0.4827  1.1148  0.5733
  179MOL0     H23603   5.696   9.712   2.361 -2.5445  3.1911 -1.5725
  179MOL0     H23604   5.576   9.914   2.371  0.4357 -1.0053  0.4939
  179MOL0     H23605   5.669   9.981   2.500  2.0150 -0.6674  0.3481
  179MOL0     H23606   5.439   9.911   2.538 -2.4150 -1.5609  1.2082
  179MOL0     H23607   5.491   9.752   2.543  0.7114 -0.6148  1.9420
  179MOL0     H23608   5.605   9.970   2.726  0.3913 -0.5970 -1.8220
  179MOL0     H23609   5.662   9.818   2.741  0.3033  0.6108  1.0463
  179MOL0     H23610   6.259   9.352   2.260 -0.8604  2.2381 -2.1917
  179MOL0     H23611   6.473   9.268   2.177  2.7940  0.3053 -1.3910
  179MOL0     H23612   6.889   9.282   1.890 -0.7513 -0.5693  0.2180
  179MOL0     H23613   7.126   9.208   1.870 -0.5051 -2.5674  0.5596
  179MOL0     H23614   8.759   9.724   0.981  1.5511  2.7369 -0.7815
  179MOL0     H23615   9.014   9.764   0.950 -1.0405  2.4754  0.6127
  179MOL0     H23616   9.426   9.421   1.001  0.7882 -0.1673 -0.3717
  179MOL0     H23617   9.671   9.435   0.979 -2.1634  1.2190 -4.1647
  179MOL0     H23618   9.810   9.648   0.889  0.1368 -1.1594 -0.6527
  179MOL0     H23619   9.908   9.498   0.933  0.2470  0.5344  0.3111
  179MOL0     H23620  10.057   9.646   1.063 -0.4213  0.7295  0.1611
  179MOL0     H23621  10.084   9.631   0.890  1.5931  0.8473  0.9763
  179MOL0     H23622   9.912   9.851   0.991  1.6428 -0.2741  1.9830
  179MOL0     H23623   9.989   9.820   0.827 -0.5971 -0.2968 -0.6569
  179MOL0     H23624  10.102   9.994   0.937  0.8289 -0.3159 -0.1270
  179MOL0     H23625  10.127   9.910   1.092  0.0331  0.0028  0.7488
  179MOL0     H23626  10.449   9.766   0.842  0.5298 -0.2192  0.9447
  179MOL0     H23627   9.694   9.784   1.212 -0.5427 -0.0326  1.3203
  179MOL0     H23628   9.438   9.783   1.221  2.1321  4.6237 -5.1747
  180MOL0     O23629   1.797   0.432   3.501 -0.3607 -0.5990 -0.1160
  180MOL0     C23630   1.862   0.426   3.600 -0.4340 -0.0159 -0.0448
  180MOL0     O23631   1.819   0.369   3.710 -0.0584  0.2477 -0.8260
  180MOL0     C23632   1.684   0.325   3.733 -0.0771  0.9512 -0.8826
  180MOL0     C23633   1.598   0.278   3.631 -0.0851  0.2139 -0.7243
  180MOL0     C23634   1.468   0.224   3.665 -0.5905 -0.2872  0.1200
  180MOL0     C23635   1.428   0.240   3.797  0.2135  0.1166  0.2908
  180MOL0     O23636   1.304   0.198   3.836  0.0556 -0.5248 -0.3088
  180MOL0     C23637   1.195   0.227   3.749 -0.5087  0.1740  0.4802
  180MOL0     C23638   1.068   0.215   3.837 -0.5890  0.2024 -0.4605
  180MOL0     C23639   1.044   0.065   3.858  0.7256 -0.0009  0.2393
  180MOL0     C23640   0.903   0.044   3.937 -0.0039  0.9676  0.2308
  180MOL0     C23641   0.889  -0.111   3.966  0.5951 -0.5969  0.1901
  180MOL0     C23642   0.800  -0.193   3.878 -0.7163  0.9493  0.8280
  180MOL0     C23643   0.659  -0.130   3.865  0.9666  0.5332  0.5589
  180MOL0     C23644   0.552  -0.222   3.894  0.2287  0.4297 -0.6325
  180MOL0     N23645   0.423  -0.159   3.856 -0.5440  0.1708  0.3375
  180MOL0     C23646   0.346  -0.092   3.943 -0.5946 -0.4325  0.4551
  180MOL0     C23647   0.231  -0.074   3.869 -0.1617 -0.5465  0.3028
  180MOL0     C23648   0.104  -0.026   3.943  0.3102 -0.8366 -0.0391
  180MOL0     C23649   0.045  -0.135   4.021  0.4490  0.2497  0.6960
  180MOL0     C23650  -0.100  -0.103   4.045 -0.0606 -0.2327  1.1423
  180MOL0     C23651  -0.168  -0.214   4.122 -0.3428 -0.1759  0.6568
  180MOL0     O23652  -0.209  -0.317   4.025 -0.3425  0.0146 -0.4735
  180MOL0     C23653  -0.333  -0.380   4.043 -0.3896  0.5467 -0.4033
  180MOL0     C23654  -0.394  -0.444   3.933 -0.2629  0.4072  0.4417
  180MOL0     C23655  -0.526  -0.500   3.938  0.1215  0.3422 -0.7675
  180MOL0     C23656  -0.604  -0.487   4.056 -0.2357 -0.5783 -0.6134
  180MOL0     C23657  -0.748  -0.519   4.059 -0.0407  0.2627  0.9237
  180MOL0     O23658  -0.805  -0.543   4.182 -0.4334 -1.1258 -0.2074
  180MOL0     C23659  -0.937  -0.580   4.185 -0.2750 -0.5120 -0.2499
  180MOL0     C23660  -1.030  -0.496   4.254  0.5411  1.1972  0.7950
  180MOL0     C23661  -1.158  -0.540   4.274  0.6501  0.0214  0.9241
  180MOL0     C23662  -1.203  -0.665   4.224  0.7034  0.8435 -1.6967
  180MOL0     O23663  -1.328  -0.710   4.266  0.2501 -0.7959  0.0546
  180MOL0     C23664  -1.370  -0.828   4.202  0.7778  0.4490 -0.4309
  180MOL0     C23665  -1.510  -0.871   4.248 -0.1959  0.4419  0.6279
  180MOL0     C23666  -1.618  -0.762   4.237  0.2423  0.1051 -0.5776
  180MOL0     C23667  -1.763  -0.795   4.252 -0.1537  0.6026 -0.1084
  180MOL0     C23668  -1.841  -0.672   4.297 -0.1837  0.1357 -0.4072
  180MOL0     C23669  -1.996  -0.687   4.312 -1.0037 -0.6927 -0.3318
  180MOL0     C23670  -2.052  -0.549   4.325  0.2915  0.2208  0.1066
  180MOL0     C23671  -2.203  -0.531   4.322 -0.6946  0.7893 -0.1166
  180MOL0    Cl23672  -2.255  -0.377   4.367  0.0927 -0.1491 -0.1180
  180MOL0     C23673  -1.110  -0.740   4.140 -0.6277 -1.2052  0.8665
  180MOL0     C23674  -0.983  -0.691   4.126  0.5716  1.0880  0.5121
  180MOL0     O23675  -0.810  -0.523   3.954 -0.7313  0.0049 -0.5311
  180MOL0     C23676  -0.538  -0.429   4.173 -0.3595  0.3278 -0.4928
  180MOL0     C23677  -0.405  -0.379   4.164 -0.2799  0.4869  0.4868
  180MOL0     N23678   0.242  -0.126   3.745 -0.3342  0.0576  0.0007
  180MOL0     N23679   0.358  -0.171   3.734 -0.1389  0.2334  0.4395
  180MOL0     C23680   1.511   0.293   3.893 -0.7165  0.0373 -0.2452
  180MOL0     C23681   1.644   0.337   3.863  0.2776 -1.0466 -1.3605
  180MOL0     C23682   1.993   0.493   3.605 -0.5368  0.0430  0.1306
  180MOL0     C23683   2.081   0.485   3.716 -0.2095  0.1333  0.5398
  180MOL0     C23684   2.203   0.554   3.716 -0.6517 -0.2964 -0.0224
  180MOL0     C23685   2.228   0.645   3.621  0.4776  0.1306  0.0323
  180MOL0     O23686   2.347   0.699   3.649  0.0037  0.7897  1.4129
  180MOL0     C23687   2.405   0.772   3.540 -0.2285 -0.0190 -0.4620
  180MOL0     C23688   2.517   0.844   3.620  0.5274 -0.1698  0.0576
  180MOL0     C23689   2.472   0.952   3.720  0.3468  0.2537  0.2226
  180MOL0     C23690   2.585   1.027   3.787 -0.8016 -0.1139  0.4203
  180MOL0     C23691   2.540   1.114   3.900 -0.1625 -0.1380  0.9227
  180MOL0     C23692   2.502   1.206   3.967 -0.2023  0.0892  0.5062
  180MOL0     C23693   2.143   0.658   3.511  0.3882 -0.2150  0.5041
  180MOL0     C23694   2.028   0.579   3.500  0.0069 -0.4845  0.4037
  180MOL0     H23695   1.624   0.264   3.527 -0.0554 -0.5969 -0.6124
  180MOL0     H23696   1.400   0.193   3.586 -1.3039  0.3338  0.4914
  180MOL0     H23697   1.195   0.163   3.660  3.9208 -0.7502  0.9138
  180MOL0     H23698   1.205   0.331   3.717 -1.6758  0.4828  1.0243
  180MOL0     H23699   0.982   0.249   3.779 -2.1489 -0.5157  1.3266
  180MOL0     H23700   1.073   0.270   3.931 -0.4238  0.8073 -0.8127
  180MOL0     H23701   1.137   0.031   3.904  0.1603  1.0543  2.3324
  180MOL0     H23702   1.036   0.018   3.760 -0.9346  0.1246  0.2756
  180MOL0     H23703   0.920   0.086   4.036  2.6572 -0.8471  0.6566
  180MOL0     H23704   0.814   0.083   3.887  0.3822  1.0697 -0.3942
  180MOL0     H23705   0.850  -0.120   4.067 -0.3408  2.4427  0.2034
  180MOL0     H23706   0.992  -0.148   3.978  0.8356 -1.1169 -2.5774
  180MOL0     H23707   0.795  -0.295   3.916  5.1890  0.1741  0.3848
  180MOL0     H23708   0.843  -0.193   3.778 -0.8448 -1.3202  0.7317
  180MOL0     H23709   0.647  -0.045   3.933  1.3733 -1.4301  3.2557
  180MOL0     H23710   0.660  -0.087   3.765  1.8606 -0.7667 -0.0261
  180MOL0     H23711   0.548  -0.264   3.995 -1.4231 -2.3307 -1.7196
  180MOL0     H23712   0.563  -0.318   3.842  0.3480  0.6162 -0.9568
  180MOL0     H23713   0.380  -0.072   4.044 -0.7983 -3.4557  1.2389
  180MOL0     H23714   0.034   0.004   3.865  2.5970  0.4713 -1.7239
  180MOL0     H23715   0.114   0.060   4.011  0.5274 -1.2444  0.4501
  180MOL0     H23716   0.102  -0.167   4.109  0.4790  0.0246  0.5963
  180MOL0     H23717   0.044  -0.213   3.945  1.2594  1.4059 -0.5346
  180MOL0     H23718  -0.099  -0.017   4.111  0.7245 -1.6778  3.1151
  180MOL0     H23719  -0.155  -0.087   3.952  0.7875 -2.4710  0.1625
  180MOL0     H23720  -0.255  -0.173   4.175  0.8666  2.4763  0.7612
  180MOL0     H23721  -0.099  -0.256   4.196  1.3138 -1.9987 -1.7773
  180MOL0     H23722  -0.331  -0.446   3.844 -1.5012  1.3367 -0.4893
  180MOL0     H23723  -0.562  -0.563   3.858 -0.7967 -1.2169  0.8130
  180MOL0     H23724  -0.995  -0.405   4.301  0.0849  1.2599  1.0158
  180MOL0     H23725  -1.236  -0.483   4.325  0.2554  1.4652 -1.1440
  180MOL0     H23726  -1.306  -0.916   4.213  0.8372  0.6340  0.8187
  180MOL0     H23727  -1.391  -0.799   4.099 -0.7138  1.2782  0.0776
  180MOL0     H23728  -1.507  -0.912   4.349 -1.3082 -0.0075  0.4982
  180MOL0     H23729  -1.548  -0.955   4.190 -4.1808  1.8898  0.8262
  180MOL0     H23730  -1.607  -0.722   4.136  1.1900 -1.1492 -0.9991
  180MOL0     H23731  -1.588  -0.688   4.312 -0.9510  0.9180 -0.8693
  180MOL0     H23732  -1.798  -0.837   4.158 -0.4162 -0.2375  0.3530
  180MOL0     H23733  -1.769  -0.875   4.327 -1.3702 -0.1610 -0.9723
  180MOL0     H23734  -1.822  -0.593   4.224  4.0703 -0.2533  0.0227
  180MOL0     H23735  -1.797  -0.630   4.387 -0.4547  4.0940 -1.9285
  180MOL0     H23736  -2.011  -0.743   4.405  1.7481 -2.7149 -1.0046
  180MOL0     H23737  -2.034  -0.746   4.228 -1.0975 -2.1284  0.6855
  180MOL0     H23738  -2.004  -0.510   4.416 -1.0276 -1.2240  1.4787
  180MOL0     H23739  -2.023  -0.491   4.237 -2.0962  1.0722 -0.2048
  180MOL0     H23740  -2.250  -0.597   4.396  1.7290 -1.7023 -0.6195
  180MOL0     H23741  -2.243  -0.566   4.226 -1.3322 -1.0744  0.7870
  180MOL0     H23742  -1.126  -0.838   4.098  0.6839 -0.9709 -0.2309
  180MOL0     H23743  -0.906  -0.753   4.081  0.8084  2.6836 -1.4077
  180MOL0     H23744  -0.585  -0.443   4.270  0.7921  1.1275  0.1977
  180MOL0     H23745  -0.356  -0.348   4.256 -2.7906 -0.0326  2.1293
  180MOL0     H23746   1.482   0.305   3.997 -1.3237  0.9932 -0.5192
  180MOL0     H23747   1.709   0.362   3.946 -0.8323 -0.0195 -0.7565
  180MOL0     H23748   2.054   0.420   3.798 -0.7465 -1.1237 -0.6018
  180MOL0     H23749   2.272   0.529   3.796  1.5638  1.0531 -1.4050
  180MOL0     H23750   2.339   0.850   3.500  0.5107  0.9416  0.1291
  180MOL0     H23751   2.436   0.708   3.457 -2.6864  0.2013 -1.6632
  180MOL0     H23752   2.570   0.762   3.667 -2.0877 -1.2674  1.3238
  180MOL0     H23753   2.577   0.902   3.549 -1.3138  0.3544 -1.1589
  180MOL0     H23754   2.417   0.907   3.803  2.6733  0.0171  1.7366
  180MOL0     H23755   2.415   1.028   3.665  4.3395  2.3318 -1.4148
  180MOL0     H23756   2.662   0.971   3.841 -2.5827 -0.6680  2.4983
  180MOL0     H23757   2.637   1.098   3.721 -1.2662 -0.0143  0.1546
  180MOL0     H23758   2.454   1.285   4.022  1.5478 -0.4606  3.0152
  180MOL0     H23759   2.172   0.716   3.424  0.2456  0.9516  1.2036
  180MOL0     H23760   1.960   0.599   3.418 -1.3777  2.0996  2.0108
  181MOL0     O23761   6.364   0.774   0.352 -0.3898 -0.2413 -0.1551
  181MOL0     C23762   6.431   0.679   0.328  0.3967  0.1166  0.1098
  181MOL0     O23763   6.386   0.556   0.291 -0.0638 -0.9085 -0.4003
  181MOL0     C23764   6.256   0.544   0.245  0.2483  0.2236 -0.2216
  181MOL0     C23765   6.166   0.467   0.317  0.4108  0.3690  0.1300
  181MOL0     C23766   6.032   0.469   0.287  0.5934 -0.1323 -0.6691
  181MOL0     C23767   5.976   0.543   0.181  0.0166  0.0648  0.1679
  181MOL0     O23768   5.845   0.532   0.156  0.8567 -0.5536  0.7272
  181MOL0     C23769   5.775   0.636   0.079  0.4609  0.0286 -0.6842
  181MOL0     C23770   5.628   0.604   0.067 -0.3530  0.3353  0.1908
  181MOL0     C23771   5.607   0.484  -0.029  0.0402  0.0594  0.2189
  181MOL0     C23772   5.461   0.434  -0.023 -0.0281  0.1005 -0.1287
  181MOL0     C23773   5.451   0.303  -0.105 -0.3092  0.4939  0.0043
  181MOL0     C23774   5.473   0.328  -0.256  0.7063 -0.5122 -0.0109
  181MOL0     C23775   5.413   0.222  -0.343 -0.3377  0.5267  0.2720
  181MOL0     C23776   5.448   0.244  -0.486  0.5834  0.1727  0.5093
  181MOL0     N23777   5.393   0.377  -0.533 -0.9817  0.1418  0.5794
  181MOL0     C23778   5.265   0.415  -0.541  0.4448  0.3286  0.4191
  181MOL0     C23779   5.280   0.552  -0.556  0.5926 -0.4839  0.0779
  181MOL0     C23780   5.159   0.643  -0.560  0.0103 -0.0953  0.6431
  181MOL0     C23781   5.071   0.626  -0.685  0.5244 -0.2506  0.2754
  181MOL0     C23782   4.920   0.655  -0.651 -0.6194 -0.8054 -0.8452
  181MOL0     C23783   4.840   0.615  -0.773 -0.0297  0.5701  1.1386
  181MOL0     O23784   4.716   0.693  -0.761 -0.1307  0.1261  0.1701
  181MOL0     C23785   4.597   0.639  -0.812  0.2054 -0.0338  0.6378
  181MOL0     C23786   4.585   0.511  -0.868 -1.1293 -0.5342  0.2269
  181MOL0     C23787   4.454   0.460  -0.889  0.4753 -0.0618 -0.6698
  181MOL0     C23788   4.340   0.536  -0.857 -0.0824 -0.0985  0.0795
  181MOL0     C23789   4.203   0.492  -0.860  0.7409 -0.9156  0.3112
  181MOL0     O23790   4.102   0.574  -0.815 -0.6131  0.3619  0.7844
  181MOL0     C23791   3.979   0.522  -0.790 -0.1475 -0.5177 -0.3624
  181MOL0     C23792   3.941   0.496  -0.651  0.1783 -0.1885  0.2982
  181MOL0     C23793   3.801   0.465  -0.624  0.0895  0.2797  0.8402
  181MOL0     C23794   3.703   0.447  -0.725 -0.9031  0.0139 -0.6244
  181MOL0     O23795   3.570   0.431  -0.696 -0.0938  0.2841 -0.2153
  181MOL0     C23796   3.539   0.369  -0.571  0.3786 -0.7760  0.1201
  181MOL0     C23797   3.405   0.275  -0.584 -0.1957 -0.2163 -0.7702
  181MOL0     C23798   3.431   0.147  -0.663 -0.0368 -0.7276  0.2178
  181MOL0     C23799   3.312   0.051  -0.674  0.1828  0.1409  0.1671
  181MOL0     C23800   3.319  -0.068  -0.773  0.1706 -0.1299 -0.0622
  181MOL0     C23801   3.371  -0.037  -0.909 -0.3479  0.1088  0.1792
  181MOL0     C23802   3.373  -0.151  -1.018  0.2869  0.3621 -0.2346
  181MOL0     C23803   3.398  -0.078  -1.155 -0.0848  0.3485 -1.0661
  181MOL0    Cl23804   3.576  -0.059  -1.162  0.0516 -0.0168 -0.1935
  181MOL0     C23805   3.743   0.479  -0.856  0.3872  0.2092 -0.0781
  181MOL0     C23806   3.876   0.520  -0.889  0.0080  0.7490  0.5530
  181MOL0     O23807   4.179   0.378  -0.902 -0.5705  0.6840  0.0097
  181MOL0     C23808   4.355   0.668  -0.806 -1.0487 -0.4401 -0.5185
  181MOL0     C23809   4.489   0.716  -0.781 -0.2675  0.3773  0.5769
  181MOL0     N23810   5.413   0.585  -0.571  0.7225  0.1624  0.0114
  181MOL0     N23811   5.475   0.474  -0.557  0.4667 -0.8998  0.9163
  181MOL0     C23812   6.057   0.631   0.115  0.5708 -0.5329 -0.1333
  181MOL0     C23813   6.202   0.626   0.147  0.0219 -0.1093 -0.3594
  181MOL0     C23814   6.571   0.692   0.356  0.0750 -0.4970  0.6428
  181MOL0     C23815   6.626   0.816   0.325 -0.5497  0.0098  0.3393
  181MOL0     C23816   6.764   0.847   0.350 -0.0219 -0.3791  0.2109
  181MOL0     C23817   6.846   0.747   0.385 -0.0647  0.0175  0.5427
  181MOL0     O23818   6.983   0.777   0.391 -0.4773 -0.1690 -0.3534
  181MOL0     C23819   7.059   0.748   0.512  0.7345  0.3003  0.6796
  181MOL0     C23820   7.195   0.811   0.508 -0.5782 -0.4035  0.7142
  181MOL0     C23821   7.301   0.764   0.397  1.0229  0.5176  0.2871
  181MOL0     C23822   7.448   0.813   0.417  0.6902  0.6770  0.6930
  181MOL0     C23823   7.457   0.957   0.423 -0.3230 -0.3943 -0.3887
  181MOL0     C23824   7.490   1.074   0.427  0.2780 -0.1719 -0.5279
  181MOL0     C23825   6.793   0.617   0.399 -0.4371  0.2637  0.2368
  181MOL0     C23826   6.656   0.591   0.384 -0.4751  0.4298  0.1431
  181MOL0     H23827   6.208   0.399   0.391  0.9258 -1.2894 -1.6058
  181MOL0     H23828   5.972   0.394   0.340 -0.1248  0.6659 -0.3228
  181MOL0     H23829   5.827   0.635  -0.017  2.4321  3.5838  0.1764
  181MOL0     H23830   5.780   0.734   0.128 -0.6443 -1.0561  1.7596
  181MOL0     H23831   5.578   0.688   0.019  1.9884  0.5300 -2.1520
  181MOL0     H23832   5.586   0.580   0.165 -1.9885 -0.7321 -0.7377
  181MOL0     H23833   5.673   0.405   0.009  2.0607  1.3155 -0.5313
  181MOL0     H23834   5.639   0.516  -0.129  1.9545 -0.7976  0.5035
  181MOL0     H23835   5.432   0.417   0.082 -0.9738  3.3303  0.2448
  181MOL0     H23836   5.396   0.506  -0.073  1.5085  0.7989 -1.1722
  181MOL0     H23837   5.348   0.273  -0.087 -1.0018  2.6834  0.0181
  181MOL0     H23838   5.511   0.219  -0.069  2.0075  2.4030  0.9041
  181MOL0     H23839   5.579   0.335  -0.281  0.9676 -0.6688  1.0308
  181MOL0     H23840   5.424   0.424  -0.274  3.1443  1.4905  3.1036
  181MOL0     H23841   5.455   0.124  -0.318  1.6343  1.0321 -0.8090
  181MOL0     H23842   5.305   0.222  -0.327 -0.6233 -2.8375 -0.7753
  181MOL0     H23843   5.397   0.171  -0.550 -1.4966  0.0771  2.1845
  181MOL0     H23844   5.555   0.233  -0.505  0.3095 -1.1728 -0.3791
  181MOL0     H23845   5.177   0.354  -0.524  0.9086 -0.7523 -0.9004
  181MOL0     H23846   5.188   0.748  -0.551 -1.8614  0.5089 -0.0818
  181MOL0     H23847   5.094   0.637  -0.472  1.0265  2.2711  1.6525
  181MOL0     H23848   5.079   0.528  -0.734  2.8452  0.8730 -1.7955
  181MOL0     H23849   5.112   0.698  -0.756  2.0768 -0.3816  1.0121
  181MOL0     H23850   4.888   0.594  -0.566  0.6451 -0.4283 -0.0683
  181MOL0     H23851   4.907   0.759  -0.619  0.1997 -0.2881 -2.1244
  181MOL0     H23852   4.826   0.506  -0.771  3.2855  0.0339  2.6342
  181MOL0     H23853   4.901   0.642  -0.860 -0.2327 -2.2085  0.0325
  181MOL0     H23854   4.668   0.449  -0.900 -2.2464 -1.5136 -0.8676
  181MOL0     H23855   4.457   0.364  -0.939  0.7218  0.1367 -1.0412
  181MOL0     H23856   4.017   0.501  -0.574  0.9648 -0.2865 -0.4529
  181MOL0     H23857   3.763   0.462  -0.522 -3.4631  1.6297 -0.2696
  181MOL0     H23858   3.522   0.442  -0.491 -0.8871 -0.7483 -0.1562
  181MOL0     H23859   3.621   0.302  -0.545  1.4519 -0.0183 -1.2072
  181MOL0     H23860   3.328   0.338  -0.629  1.1535  1.0774 -1.3298
  181MOL0     H23861   3.373   0.250  -0.482 -1.0506 -1.6148 -1.3501
  181MOL0     H23862   3.504   0.084  -0.611 -0.3457 -1.0438  0.2715
  181MOL0     H23863   3.476   0.168  -0.760 -2.4399  5.2789  0.0216
  181MOL0     H23864   3.268   0.020  -0.579 -1.6062  0.8249 -0.4044
  181MOL0     H23865   3.228   0.113  -0.705  1.3198  1.2693 -0.7489
  181MOL0     H23866   3.216  -0.103  -0.786  0.2384 -0.4585  0.3057
  181MOL0     H23867   3.383  -0.144  -0.728 -1.8586 -2.9977 -1.6645
  181MOL0     H23868   3.476  -0.007  -0.901 -0.6594  2.3087 -2.3784
  181MOL0     H23869   3.313   0.050  -0.940  0.1395  0.3486 -0.0687
  181MOL0     H23870   3.447  -0.230  -1.002  1.1001  0.8855 -1.3117
  181MOL0     H23871   3.282  -0.211  -1.026  0.2186  0.3226  0.7094
  181MOL0     H23872   3.340   0.015  -1.149 -2.8015 -1.2991 -0.0937
  181MOL0     H23873   3.356  -0.142  -1.233 -1.6830 -1.1779  0.9522
  181MOL0     H23874   3.667   0.468  -0.932 -1.5289  1.9818  1.4639
  181MOL0     H23875   3.906   0.536  -0.992  0.2356  0.7342  0.6177
  181MOL0     H23876   4.269   0.724  -0.772 -0.4888  0.5256 -0.6765
  181MOL0     H23877   4.500   0.815  -0.738 -1.8264  0.6938  0.2940
  181MOL0     H23878   6.019   0.706   0.046  2.0579 -0.6338 -1.1016
  181MOL0     H23879   6.276   0.692   0.104  1.0000 -1.8770 -1.4880
  181MOL0     H23880   6.568   0.905   0.305  2.1555  2.2462  1.8003
  181MOL0     H23881   6.804   0.946   0.331 -0.4777  0.0149  1.2540
  181MOL0     H23882   7.067   0.640   0.530  0.3541  0.4969  2.1992
  181MOL0     H23883   7.004   0.790   0.597 -2.7995  0.4357 -1.4828
  181MOL0     H23884   7.185   0.919   0.493 -1.0688 -0.3769  1.2227
  181MOL0     H23885   7.249   0.790   0.600  0.7881 -0.6617 -0.1061
  181MOL0     H23886   7.262   0.799   0.302 -1.5313  0.2751  1.1638
  181MOL0     H23887   7.297   0.654   0.398  3.4756  0.3112  2.5458
  181MOL0     H23888   7.487   0.780   0.514  0.1254  1.1994  1.1149
  181MOL0     H23889   7.514   0.770   0.342  1.6509  1.8668  0.8268
  181MOL0     H23890   7.511   1.179   0.432  2.4079 -0.4958 -1.5738
  181MOL0     H23891   6.857   0.529   0.412 -1.0438  0.1145  2.6733
  181MOL0     H23892   6.619   0.493   0.413  0.7583  0.4688  1.9753
  182MOL0     O23893   0.469   7.872   6.015 -0.3990 -0.3018 -0.0125
  182MOL0     C23894   0.530   7.844   6.119 -0.4528 -0.2071  0.0809
  182MOL0     O23895   0.476   7.786   6.235 -0.4734 -0.4776 -0.5517
  182MOL0     C23896   0.347   7.764   6.254  1.0475 -0.6338 -0.3799
  182MOL0     C23897   0.270   7.694   6.155 -0.7185  0.5373  0.1680
  182MOL0     C23898   0.133   7.677   6.185  0.2974  0.4475 -1.2553
  182MOL0     C23899   0.077   7.712   6.312 -0.3081  1.1921 -0.2956
  182MOL0     O23900  -0.058   7.691   6.336  0.1048 -0.0993  0.4295
  182MOL0     C23901  -0.147   7.743   6.231  0.1625  0.3226 -0.7071
  182MOL0     C23902  -0.283   7.704   6.281  0.3784  0.4780  0.3250
  182MOL0     C23903  -0.411   7.730   6.207 -0.0799 -0.1773 -0.3717
  182MOL0     C23904  -0.534   7.695   6.303 -0.5509  0.6683 -0.6477
  182MOL0     C23905  -0.667   7.737   6.249  0.5152 -0.0066  0.1387
  182MOL0     C23906  -0.779   7.701   6.343 -0.4602 -0.0979  0.0369
  182MOL0     C23907  -0.804   7.552   6.342  0.0438 -0.2361 -0.1669
  182MOL0     C23908  -0.915   7.520   6.447  0.3328  0.2919  0.1528
  182MOL0     N23909  -0.953   7.378   6.435 -0.5617  0.4387  0.0422
  182MOL0     C23910  -1.059   7.321   6.363  0.0651 -0.0773  0.0062
  182MOL0     C23911  -1.074   7.193   6.411  1.1165  0.0353  0.1329
  182MOL0     C23912  -1.180   7.092   6.375 -0.2295 -0.3951  0.5174
  182MOL0     C23913  -1.296   7.091   6.477 -0.8995  0.1794  0.6796
  182MOL0     C23914  -1.369   7.233   6.487 -0.5599 -0.3319  0.5687
  182MOL0     C23915  -1.443   7.280   6.615 -0.5409 -0.0092 -0.7807
  182MOL0     O23916  -1.548   7.194   6.635  0.2417 -0.3152 -0.5450
  182MOL0     C23917  -1.652   7.222   6.728 -0.2813 -0.2969 -0.6088
  182MOL0     C23918  -1.692   7.355   6.766 -1.0243  0.6799 -0.8054
  182MOL0     C23919  -1.800   7.369   6.856  0.8519  0.1816 -0.0518
  182MOL0     C23920  -1.881   7.260   6.900  0.1808  1.0820  1.4572
  182MOL0     C23921  -1.996   7.267   6.988  0.9665  0.0538 -0.1617
  182MOL0     O23922  -2.024   7.391   7.039 -0.3917  0.2321  0.3360
  182MOL0     C23923  -2.153   7.397   7.085 -0.5359 -0.6435 -0.6592
  182MOL0     C23924  -2.196   7.316   7.191  1.0829  0.0628  0.4159
  182MOL0     C23925  -2.327   7.327   7.242 -0.1083 -0.4814  0.5096
  182MOL0     C23926  -2.410   7.432   7.191 -0.9156 -0.2655 -0.7896
  182MOL0     O23927  -2.539   7.435   7.222 -0.3462 -0.5213 -0.0544
  182MOL0     C23928  -2.617   7.557   7.203  0.0145  0.6349  0.2183
  182MOL0     C23929  -2.766   7.524   7.227  0.4892  0.7114  0.2194
  182MOL0     C23930  -2.841   7.656   7.220 -0.3919 -0.5027  0.1219
  182MOL0     C23931  -2.988   7.641   7.229  0.0286  0.8063  0.3636
  182MOL0     C23932  -3.052   7.757   7.157 -0.7251  0.6658  1.0565
  182MOL0     C23933  -3.197   7.747   7.151  0.3214  0.0686 -0.2884
  182MOL0     C23934  -3.280   7.775   7.283 -0.7081 -0.8636  0.0292
  182MOL0     C23935  -3.430   7.765   7.269  0.4250  0.2970  0.3269
  182MOL0    Cl23936  -3.495   7.890   7.166 -0.5387  0.1146  0.1444
  182MOL0     C23937  -2.354   7.520   7.091 -0.4690 -0.3435 -1.0532
  182MOL0     C23938  -2.227   7.503   7.043 -0.1678 -0.8492 -0.7275
  182MOL0     O23939  -2.055   7.158   7.004 -0.2636 -0.2929  0.0589
  182MOL0     C23940  -1.852   7.139   6.833  0.1800 -0.1842 -0.0624
  182MOL0     C23941  -1.737   7.119   6.752  0.8906  0.1830  0.5022
  182MOL0     N23942  -0.988   7.177   6.514  0.0079 -0.3797  0.4225
  182MOL0     N23943  -0.916   7.280   6.527  0.5025 -0.0228 -0.5001
  182MOL0     C23944   0.159   7.773   6.409  0.6220  1.0444  0.1991
  182MOL0     C23945   0.292   7.797   6.382 -0.2595  0.2998  0.3993
  182MOL0     C23946   0.671   7.886   6.133  0.3804  0.2695 -0.7677
  182MOL0     C23947   0.741   7.925   6.022  0.0241 -0.2872  0.2107
  182MOL0     C23948   0.881   7.962   6.028  0.2922  0.3976 -0.5613
  182MOL0     C23949   0.940   7.950   6.156  0.6082 -0.3591 -1.1295
  182MOL0     O23950   1.074   7.989   6.174  0.2005  0.6317 -0.2655
  182MOL0     C23951   1.147   8.047   6.065  0.2461 -0.6803 -0.2626
  182MOL0     C23952   1.294   8.056   6.099 -0.0884 -0.3035  0.3698
  182MOL0     C23953   1.369   7.924   6.076  0.1138 -0.1813 -0.5841
  182MOL0     C23954   1.496   7.928   6.152 -0.2614 -0.2312 -0.0125
  182MOL0     C23955   1.583   8.038   6.119  0.3763 -0.5140  0.0983
  182MOL0     C23956   1.664   8.126   6.098  0.3733 -0.3057 -0.6583
  182MOL0     C23957   0.875   7.894   6.266  0.4361 -0.8695 -0.7501
  182MOL0     C23958   0.739   7.874   6.258  0.0257  0.4441 -0.7993
  182MOL0     H23959   0.316   7.670   6.059  1.3763 -0.3783  1.3202
  182MOL0     H23960   0.067   7.622   6.119 -1.0416  1.1754 -0.5571
  182MOL0     H23961  -0.130   7.712   6.128 -0.0258 -3.0956  0.1671
  182MOL0     H23962  -0.150   7.852   6.235 -1.5590  0.4567 -3.2472
  182MOL0     H23963  -0.295   7.758   6.375  2.7063 -0.4278  1.2251
  182MOL0     H23964  -0.284   7.601   6.315  3.1088  0.8121  1.7482
  182MOL0     H23965  -0.428   7.666   6.119 -0.8954  0.2570 -0.5414
  182MOL0     H23966  -0.407   7.835   6.175 -3.0031  0.4221  0.9070
  182MOL0     H23967  -0.533   7.586   6.310 -1.0953  0.6738 -0.4781
  182MOL0     H23968  -0.513   7.743   6.399  4.9960  2.3218 -2.2515
  182MOL0     H23969  -0.702   7.687   6.158  1.3182 -1.9356  0.8367
  182MOL0     H23970  -0.661   7.844   6.227  1.9058  0.3001  1.8060
  182MOL0     H23971  -0.867   7.760   6.314 -0.6332  0.3295  1.3594
  182MOL0     H23972  -0.746   7.724   6.445  1.3602 -2.8969  0.1766
  182MOL0     H23973  -0.832   7.521   6.241  1.5377 -0.7361 -0.4552
  182MOL0     H23974  -0.721   7.487   6.372 -0.5106 -1.4670 -1.2013
  182MOL0     H23975  -0.993   7.595   6.432  1.0412  0.6978 -1.6846
  182MOL0     H23976  -0.871   7.545   6.544  1.6508 -0.5673 -0.1998
  182MOL0     H23977  -1.117   7.368   6.284  3.1102  1.0321 -1.7388
  182MOL0     H23978  -1.120   7.001   6.371  1.6088  0.8068 -0.4584
  182MOL0     H23979  -1.209   7.114   6.271 -0.2090  0.7625  0.7469
  182MOL0     H23980  -1.246   7.066   6.571 -0.2407  0.0385  0.3042
  182MOL0     H23981  -1.361   7.009   6.447  0.0828  0.2177 -1.7910
  182MOL0     H23982  -1.290   7.308   6.479 -0.6157  0.1857  3.5195
  182MOL0     H23983  -1.440   7.252   6.406 -0.6873  0.5144  0.8753
  182MOL0     H23984  -1.491   7.374   6.589 -2.6364 -0.6916  0.3876
  182MOL0     H23985  -1.379   7.299   6.702 -0.8852  1.8544 -0.8989
  182MOL0     H23986  -1.620   7.436   6.763  3.9362 -3.2678 -2.5574
  182MOL0     H23987  -1.820   7.470   6.889 -0.4868 -0.5873  1.6674
  182MOL0     H23988  -2.138   7.238   7.240 -1.8675 -1.1300  2.2546
  182MOL0     H23989  -2.362   7.252   7.313 -1.2103 -0.4285  0.0354
  182MOL0     H23990  -2.610   7.584   7.098  1.6816 -0.8292 -0.1014
  182MOL0     H23991  -2.583   7.641   7.264 -1.3484 -0.8406  3.2216
  182MOL0     H23992  -2.788   7.475   7.322  2.3360  2.5718  1.6950
  182MOL0     H23993  -2.797   7.454   7.149  1.7059  1.1142 -0.6639
  182MOL0     H23994  -2.811   7.702   7.126  4.7011 -0.0500  1.6571
  182MOL0     H23995  -2.810   7.724   7.300  0.0221  0.6261 -0.9606
  182MOL0     H23996  -3.011   7.547   7.178  1.9150  0.0786  0.7848
  182MOL0     H23997  -3.032   7.634   7.328  0.0012  0.7150  0.3451
  182MOL0     H23998  -3.014   7.773   7.056 -0.7916 -0.0702  0.9097
  182MOL0     H23999  -3.015   7.847   7.208  0.9221 -0.4756  1.9601
  182MOL0     H24000  -3.216   7.640   7.136  2.0450 -0.5446  1.5991
  182MOL0     H24001  -3.221   7.815   7.069  2.2681  0.1467 -0.8363
  182MOL0     H24002  -3.255   7.704   7.361  0.2045  0.1341  0.6725
  182MOL0     H24003  -3.260   7.876   7.321  1.0048 -0.1247 -2.5056
  182MOL0     H24004  -3.492   7.771   7.358 -1.2651  1.0423 -0.8366
  182MOL0     H24005  -3.448   7.668   7.221 -1.6732  0.8851 -0.1975
  182MOL0     H24006  -2.412   7.603   7.051  0.1712  0.9637  0.5804
  182MOL0     H24007  -2.184   7.578   6.976 -1.0222 -0.9292 -1.3789
  182MOL0     H24008  -1.920   7.055   6.846  1.9432 -1.9168 -1.2755
  182MOL0     H24009  -1.711   7.022   6.713  1.3844  0.7775 -0.6921
  182MOL0     H24010   0.119   7.786   6.509  0.7755  1.6395  0.1878
  182MOL0     H24011   0.354   7.839   6.461  0.8953 -2.5518  1.1181
  182MOL0     H24012   0.683   7.929   5.931 -1.3405 -0.7827  1.0216
  182MOL0     H24013   0.931   7.990   5.936  1.3067 -0.0827 -0.1635
  182MOL0     H24014   1.105   8.142   6.032  2.3306  0.6483  0.7323
  182MOL0     H24015   1.138   7.982   5.977 -1.0237 -0.1586 -0.5445
  182MOL0     H24016   1.344   8.128   6.033  2.6701 -0.6288  1.9491
  182MOL0     H24017   1.322   8.097   6.196 -0.4349  1.3212 -0.1789
  182MOL0     H24018   1.387   7.923   5.968  0.0731  0.4667 -0.5986
  182MOL0     H24019   1.311   7.834   6.101  1.7994 -0.4848  2.8732
  182MOL0     H24020   1.471   7.925   6.258  2.0758  1.1779  0.6580
  182MOL0     H24021   1.559   7.840   6.133  0.2703 -0.1349  1.2022
  182MOL0     H24022   1.740   8.200   6.090  0.5612 -0.1347  1.8849
  182MOL0     H24023   0.927   7.890   6.361 -1.1097  0.7221  0.2097
  182MOL0     H24024   0.694   7.861   6.356 -2.0698  0.3448 -1.7415
  183MOL0     O24025   6.351   3.673   5.026 -0.4424 -0.1653 -0.3019
  183MOL0     C24026   6.333   3.788   5.058  0.0072 -0.3201 -0.9318
  183MOL0     O24027   6.220   3.857   5.030  0.0679 -0.0626 -0.3787
  183MOL0     C24028   6.120   3.807   4.954  0.2762 -0.1641 -1.1508
  183MOL0     C24029   5.983   3.837   4.986  0.5323  0.2611 -0.1114
  183MOL0     C24030   5.871   3.781   4.918  0.5334  0.3745  0.5105
  183MOL0     C24031   5.902   3.693   4.804  0.5070 -1.3676 -0.1335
  183MOL0     O24032   5.797   3.636   4.731  0.0906  0.2919 -0.1667
  183MOL0     C24033   5.660   3.657   4.776 -0.2356 -0.9861  0.5690
  183MOL0     C24034   5.579   3.564   4.696  0.5329  0.4025  0.8876
  183MOL0     C24035   5.429   3.585   4.715  0.8638 -0.0896 -0.1055
  183MOL0     C24036   5.339   3.498   4.625  0.0334 -0.1462 -0.8280
  183MOL0     C24037   5.187   3.529   4.649 -0.0658  0.2672  0.2565
  183MOL0     C24038   5.106   3.461   4.533  0.1975 -0.6650 -0.0604
  183MOL0     C24039   4.959   3.483   4.561 -0.4242  0.9471 -0.9395
  183MOL0     C24040   4.876   3.440   4.435  0.0431 -0.5176  0.4518
  183MOL0     N24041   4.750   3.374   4.455  0.6487 -0.4086 -0.2149
  183MOL0     C24042   4.633   3.423   4.407 -0.3491 -0.2474  0.2821
  183MOL0     C24043   4.537   3.328   4.444 -0.1832  0.2558 -0.1977
  183MOL0     C24044   4.383   3.328   4.430 -0.1333  0.0758 -0.5248
  183MOL0     C24045   4.320   3.389   4.305 -0.1404 -0.6409  0.9354
  183MOL0     C24046   4.166   3.367   4.284  0.2798  0.2533  0.2936
  183MOL0     C24047   4.080   3.438   4.388 -0.3015 -0.5775  0.7893
  183MOL0     O24048   3.942   3.408   4.368  0.0182  0.1987  0.7141
  183MOL0     C24049   3.845   3.502   4.378  0.2733  0.1589  0.4430
  183MOL0     C24050   3.720   3.475   4.327  0.0479  0.7229 -0.0431
  183MOL0     C24051   3.615   3.571   4.332 -0.1017  0.0266 -0.1189
  183MOL0     C24052   3.632   3.696   4.389 -0.3683  0.7962 -0.5129
  183MOL0     C24053   3.526   3.798   4.385  0.8547  0.3640  0.5502
  183MOL0     O24054   3.395   3.757   4.356 -0.1370  0.5579 -0.5598
  183MOL0     C24055   3.280   3.830   4.387 -1.0814  0.8761  0.6759
  183MOL0     C24056   3.272   3.966   4.415  0.2885  0.2134 -0.5863
  183MOL0     C24057   3.152   4.026   4.453  0.8987  0.7011  1.5236
  183MOL0     C24058   3.033   3.950   4.451  0.9625  0.0768 -0.1776
  183MOL0     O24059   2.902   3.985   4.481 -0.0261  0.0409  0.1704
  183MOL0     C24060   2.881   4.075   4.591  0.4065  0.1120 -0.2329
  183MOL0     C24061   2.746   4.153   4.568 -1.2715 -0.1780  0.5722
  183MOL0     C24062   2.728   4.244   4.692 -0.0371  0.3926  0.5581
  183MOL0     C24063   2.583   4.287   4.693 -0.2914  0.5464  0.0256
  183MOL0     C24064   2.563   4.357   4.833 -0.0962 -0.1060  1.1204
  183MOL0     C24065   2.410   4.380   4.849 -0.2272  1.1426 -0.3255
  183MOL0     C24066   2.393   4.447   4.981 -0.6960  0.5013  0.2406
  183MOL0     C24067   2.241   4.469   5.017 -0.0802  0.4281  0.1569
  183MOL0    Cl24068   2.167   4.590   4.915  0.1282 -0.0213 -0.1064
  183MOL0     C24069   3.039   3.817   4.409  0.3493  0.1677 -0.0241
  183MOL0     C24070   3.161   3.755   4.383 -0.2954 -0.5736 -0.1220
  183MOL0     O24071   3.560   3.914   4.412 -0.9828  0.2574 -0.0400
  183MOL0     C24072   3.761   3.727   4.431  0.2954  0.1715 -0.0756
  183MOL0     C24073   3.867   3.638   4.413  0.8830 -0.7345 -0.6921
  183MOL0     N24074   4.607   3.233   4.517  0.1498  0.1848 -0.2955
  183MOL0     N24075   4.731   3.263   4.532 -0.2986 -1.1053  0.1428
  183MOL0     C24076   6.037   3.669   4.769  0.8774  0.5374 -0.0996
  183MOL0     C24077   6.138   3.731   4.834 -0.6139  0.5613  0.2839
  183MOL0     C24078   6.437   3.848   5.147 -0.0736  0.5874 -0.6674
  183MOL0     C24079   6.539   3.774   5.206 -0.7086 -0.2225 -0.3411
  183MOL0     C24080   6.634   3.830   5.288 -0.7421  0.1389 -0.3571
  183MOL0     C24081   6.613   3.959   5.337  0.1443 -0.5638  0.7276
  183MOL0     O24082   6.690   4.030   5.425 -0.2292  0.3392 -0.5478
  183MOL0     C24083   6.790   3.965   5.511 -0.7788 -0.5078  0.5787
  183MOL0     C24084   6.921   3.961   5.436  0.6060  1.0867  0.5062
  183MOL0     C24085   7.010   3.849   5.498 -0.3363  0.0590  0.3826
  183MOL0     C24086   7.141   3.889   5.574  0.2594  1.1622  0.6940
  183MOL0     C24087   7.118   3.978   5.694  0.5991  0.0529  0.6100
  183MOL0     C24088   7.092   4.048   5.791  0.0858 -0.1864 -0.3932
  183MOL0     C24089   6.504   4.035   5.288  0.1321  0.7216  0.1531
  183MOL0     C24090   6.419   3.983   5.188  0.2885 -0.8064 -0.3013
  183MOL0     H24091   5.952   3.878   5.082 -0.3077 -1.4346  0.3895
  183MOL0     H24092   5.774   3.795   4.964  0.4113 -2.1303  1.1597
  183MOL0     H24093   5.638   3.760   4.748  4.0875  0.2281  0.8268
  183MOL0     H24094   5.644   3.638   4.883  0.6182  1.9240  1.3086
  183MOL0     H24095   5.605   3.466   4.739 -0.0148 -0.9608 -1.6904
  183MOL0     H24096   5.596   3.565   4.588 -0.7584 -2.0216  0.5931
  183MOL0     H24097   5.399   3.689   4.700 -1.6587 -0.6348  0.7415
  183MOL0     H24098   5.405   3.566   4.820  1.6259  0.5549  0.1954
  183MOL0     H24099   5.363   3.523   4.521 -2.4077  1.7911 -1.0107
  183MOL0     H24100   5.353   3.390   4.637 -1.1212 -0.5376 -2.5525
  183MOL0     H24101   5.169   3.637   4.638  0.9503  0.1539 -3.9678
  183MOL0     H24102   5.144   3.501   4.746 -0.8090  1.8548  0.4140
  183MOL0     H24103   5.130   3.355   4.521 -0.7889 -0.7033 -2.1837
  183MOL0     H24104   5.130   3.511   4.438 -5.2834  0.1950 -1.3572
  183MOL0     H24105   4.930   3.424   4.648 -2.1325 -0.8096 -2.5799
  183MOL0     H24106   4.936   3.585   4.591  2.5896  0.3284  4.8478
  183MOL0     H24107   4.942   3.370   4.383  1.2889  0.1260  1.0998
  183MOL0     H24108   4.860   3.529   4.373 -3.2245 -1.1979  0.1702
  183MOL0     H24109   4.608   3.511   4.349  0.5933  1.3775  2.2528
  183MOL0     H24110   4.347   3.381   4.518  1.8810  0.0359  0.3646
  183MOL0     H24111   4.357   3.222   4.443  1.5675 -0.1938  1.1375
  183MOL0     H24112   4.366   3.340   4.220 -1.9046 -1.1724  0.2383
  183MOL0     H24113   4.337   3.497   4.307 -0.0548 -0.5342 -2.0683
  183MOL0     H24114   4.138   3.421   4.193 -0.8550 -0.5677  0.1369
  183MOL0     H24115   4.141   3.261   4.269  1.3256  0.1601 -1.0031
  183MOL0     H24116   4.102   3.546   4.387 -3.1241  0.0801  0.2905
  183MOL0     H24117   4.107   3.413   4.491 -1.5727  1.4100  1.6880
  183MOL0     H24118   3.703   3.372   4.297  0.1089  0.8519 -0.5313
  183MOL0     H24119   3.515   3.551   4.296 -0.0389  2.1763 -1.6212
  183MOL0     H24120   3.368   4.018   4.417  1.1012 -1.1746  2.7613
  183MOL0     H24121   3.152   4.133   4.471  1.3394  0.9826 -0.0188
  183MOL0     H24122   2.968   4.136   4.617  0.4788 -1.4502  4.1257
  183MOL0     H24123   2.859   4.012   4.678 -1.8235  2.9049  1.4157
  183MOL0     H24124   2.667   4.082   4.542 -1.3199  0.4823 -1.2520
  183MOL0     H24125   2.753   4.218   4.480  1.7507 -1.7755 -0.5061
  183MOL0     H24126   2.780   4.340   4.691 -1.4550  1.1976 -0.5576
  183MOL0     H24127   2.756   4.198   4.786  0.9219 -0.4003 -0.0986
  183MOL0     H24128   2.568   4.363   4.616 -0.6789 -1.2907 -1.7933
  183MOL0     H24129   2.508   4.207   4.685 -1.0640  0.9134  2.6226
  183MOL0     H24130   2.615   4.453   4.826  1.5838 -0.9639  1.2869
  183MOL0     H24131   2.594   4.297   4.919 -0.8475  0.1830  1.5999
  183MOL0     H24132   2.363   4.283   4.866  1.8741  0.3264  1.2417
  183MOL0     H24133   2.370   4.438   4.765  3.2441  2.8285 -0.9870
  183MOL0     H24134   2.433   4.392   5.066 -0.9459 -2.3139 -1.3466
  183MOL0     H24135   2.432   4.548   4.994  0.9513 -0.3910  2.9148
  183MOL0     H24136   2.239   4.504   5.121 -2.8634 -5.5188  2.5224
  183MOL0     H24137   2.193   4.371   5.014 -0.6847  0.6444  1.6097
  183MOL0     H24138   2.956   3.748   4.404  0.4420 -0.0145  0.8845
  183MOL0     H24139   3.156   3.655   4.340 -2.5478 -0.8303  0.5761
  183MOL0     H24140   3.778   3.828   4.468  0.5124  1.0599 -2.3983
  183MOL0     H24141   3.961   3.684   4.444 -0.8508  1.1758  2.1972
  183MOL0     H24142   6.060   3.608   4.683 -1.7273 -0.8165  0.0704
  183MOL0     H24143   6.239   3.712   4.798 -0.8726  0.1813 -0.2551
  183MOL0     H24144   6.560   3.675   5.167  0.3649  0.3087 -1.1639
  183MOL0     H24145   6.721   3.775   5.325 -1.6529 -0.9696  0.1986
  183MOL0     H24146   6.755   3.863   5.529  1.7265 -1.1522  2.1475
  183MOL0     H24147   6.812   4.013   5.607  0.2133  0.6535 -0.2056
  183MOL0     H24148   6.891   3.939   5.333 -0.5040  1.5442  0.7162
  183MOL0     H24149   6.968   4.059   5.425 -0.3193  1.6502  1.3463
  183MOL0     H24150   7.032   3.770   5.425  0.0296 -1.3238  1.9106
  183MOL0     H24151   6.959   3.787   5.573  1.0184 -1.2270  0.2862
  183MOL0     H24152   7.192   3.795   5.601 -0.3812  0.3733 -0.7200
  183MOL0     H24153   7.203   3.928   5.493 -0.4650 -0.6078 -0.7927
  183MOL0     H24154   7.048   4.100   5.873 -2.0538 -1.5443 -0.6114
  183MOL0     H24155   6.483   4.133   5.329 -1.1919  0.6978 -0.4245
  183MOL0     H24156   6.333   4.038   5.151 -0.2522 -1.2314  0.3082
  184MOL0     O24157   6.859  10.934   1.967  0.2100  0.4641 -1.1126
  184MOL0     C24158   6.931  10.872   1.894 -0.9256 -0.2533 -0.0496
  184MOL0     O24159   6.901  10.844   1.761  0.0523  0.3092  0.0390
  184MOL0     C24160   6.774  10.856   1.697 -0.0687  0.6050 -0.9262
  184MOL0     C24161   6.651  10.848   1.766 -0.4977 -0.1528 -0.1243
  184MOL0     C24162   6.536  10.831   1.697  0.6784 -0.0565 -0.5363
  184MOL0     C24163   6.532  10.829   1.561  0.3763 -0.1072 -0.4991
  184MOL0     O24164   6.421  10.800   1.481 -0.8412 -0.3944 -0.8558
  184MOL0     C24165   6.299  10.763   1.548 -0.7987  0.2898 -0.5605
  184MOL0     C24166   6.213  10.695   1.450  0.2605  0.4455 -0.6861
  184MOL0     C24167   6.197  10.756   1.315 -0.3330  0.3473 -0.2883
  184MOL0     C24168   6.120  10.669   1.212  0.5510  0.6571 -0.9358
  184MOL0     C24169   5.974  10.657   1.231 -0.0266 -0.3489 -0.8721
  184MOL0     C24170   5.908  10.793   1.246 -1.3307  0.2425 -0.1012
  184MOL0     C24171   5.757  10.772   1.246 -0.8670 -0.5706 -0.7454
  184MOL0     C24172   5.704  10.721   1.382  0.7042 -0.4349 -0.0242
  184MOL0     N24173   5.563  10.670   1.366 -0.7349 -0.0358 -0.0385
  184MOL0     C24174   5.533  10.544   1.388 -0.7159  0.0707 -0.1432
  184MOL0     C24175   5.403  10.544   1.340 -0.2554 -0.7979 -0.7356
  184MOL0     C24176   5.323  10.414   1.330 -0.4558  0.2462  0.3616
  184MOL0     C24177   5.172  10.449   1.319 -0.3489 -0.6903  0.3632
  184MOL0     C24178   5.087  10.315   1.312  0.5592  0.3624  0.1907
  184MOL0     C24179   4.936  10.351   1.286 -0.6490  0.1138  0.5804
  184MOL0     O24180   4.853  10.239   1.312  0.1011 -0.5448  0.2150
  184MOL0     C24181   4.719  10.246   1.282 -0.7148 -0.4744  0.3632
  184MOL0     C24182   4.646  10.122   1.304  0.5448 -0.8002 -0.1891
  184MOL0     C24183   4.510  10.125   1.269 -0.1579  0.0587 -0.3610
  184MOL0     C24184   4.442  10.243   1.227 -0.7121  0.5805  0.6161
  184MOL0     C24185   4.304  10.226   1.171 -1.0614  0.0916 -0.0556
  184MOL0     O24186   4.251  10.102   1.159 -0.3365  0.4976 -0.2195
  184MOL0     C24187   4.123  10.083   1.121 -0.8189 -0.0522  0.4602
  184MOL0     C24188   4.110  10.044   0.986  0.3814  0.1632 -0.4335
  184MOL0     C24189   3.977  10.019   0.937  0.3938 -0.3614 -0.3300
  184MOL0     C24190   3.867  10.049   1.019  0.4841 -0.4034 -0.6461
  184MOL0     O24191   3.745  10.016   0.965 -0.2228  0.2092 -0.4159
  184MOL0     C24192   3.626  10.047   1.032  0.3568  0.0203 -0.4638
  184MOL0     C24193   3.515  10.016   0.929  0.2425  0.3201 -0.3092
  184MOL0     C24194   3.485  10.129   0.833 -0.6157  0.6527  0.2097
  184MOL0     C24195   3.397  10.078   0.712  0.1493 -0.0422 -0.7328
  184MOL0     C24196   3.368  10.191   0.607 -0.8821 -0.0794  0.2343
  184MOL0     C24197   3.272  10.151   0.502 -0.6770 -0.1590 -0.5367
  184MOL0     C24198   3.248  10.242   0.386  1.1723  0.7253  0.3153
  184MOL0     C24199   3.102  10.242   0.337 -0.4135  0.8160  0.5625
  184MOL0    Cl24200   3.058  10.076   0.259 -0.0597 -0.4659  0.1988
  184MOL0     C24201   3.889  10.091   1.153  0.3972  0.1338  0.1372
  184MOL0     C24202   4.014  10.100   1.207  0.3213  0.7212  0.3592
  184MOL0     O24203   4.246  10.330   1.153  0.4191 -0.5352  0.2405
  184MOL0     C24204   4.520  10.361   1.215  1.7959  0.6216  0.0943
  184MOL0     C24205   4.655  10.363   1.247 -1.2510  0.4643  0.8501
  184MOL0     N24206   5.363  10.672   1.296  0.0019  0.1410  0.3773
  184MOL0     N24207   5.469  10.744   1.307  0.2146  0.0201 -0.1000
  184MOL0     C24208   6.657  10.853   1.495 -0.0695  0.0225  0.4332
  184MOL0     C24209   6.772  10.872   1.566  1.2976 -0.2330 -0.2197
  184MOL0     C24210   7.068  10.821   1.934 -1.0228  0.0057 -1.0254
  184MOL0     C24211   7.107  10.817   2.068  0.1359  0.5251  0.1446
  184MOL0     C24212   7.230  10.763   2.112 -0.2147  0.6923 -0.1136
  184MOL0     C24213   7.314  10.704   2.020 -0.0367 -0.2016 -0.3715
  184MOL0     O24214   7.434  10.653   2.059 -0.8970 -0.9654 -0.4415
  184MOL0     C24215   7.463  10.654   2.200 -0.1817  0.9176 -1.3594
  184MOL0     C24216   7.593  10.593   2.234 -0.8203 -0.4359  0.0760
  184MOL0     C24217   7.611  10.439   2.221 -0.8869 -0.4077  0.2330
  184MOL0     C24218   7.603  10.380   2.084 -0.0827  0.3789  0.1118
  184MOL0     C24219   7.717  10.421   2.008  0.1774 -0.8748 -0.1056
  184MOL0     C24220   7.818  10.450   1.951  0.3229  0.6848  0.7777
  184MOL0     C24221   7.279  10.709   1.891 -0.2093 -0.2213 -0.0113
  184MOL0     C24222   7.155  10.764   1.842  0.2368 -0.3763 -0.4859
  184MOL0     H24223   6.648  10.838   1.874  0.1231  0.0831 -0.0830
  184MOL0     H24224   6.444  10.831   1.754  0.8867 -0.0574 -0.1928
  184MOL0     H24225   6.241  10.852   1.575 -0.8820  0.1153 -0.1668
  184MOL0     H24226   6.318  10.702   1.637  3.8779  2.3391  0.1733
  184MOL0     H24227   6.115  10.688   1.498 -0.8459  2.6927 -2.4229
  184MOL0     H24228   6.254  10.594   1.442  0.2954  0.3277  0.6162
  184MOL0     H24229   6.296  10.770   1.272  1.1114 -2.0350  1.9355
  184MOL0     H24230   6.145  10.851   1.329 -1.4431 -0.2852  0.0501
  184MOL0     H24231   6.140  10.702   1.109  2.3997 -0.3072 -0.9283
  184MOL0     H24232   6.154  10.564   1.212  0.0053  0.4117 -3.2417
  184MOL0     H24233   5.950  10.587   1.311 -0.8066  0.5301 -0.3095
  184MOL0     H24234   5.935  10.614   1.139 -0.6512 -0.1863 -0.6886
  184MOL0     H24235   5.934  10.858   1.162  1.5920  1.0813  1.3120
  184MOL0     H24236   5.933  10.838   1.343  0.6675  0.0112 -0.4624
  184MOL0     H24237   5.714  10.872   1.232 -0.6475  0.0149  2.1509
  184MOL0     H24238   5.727  10.709   1.162  0.2930 -3.8841  1.1724
  184MOL0     H24239   5.708  10.797   1.461  0.5995 -0.2235 -0.2207
  184MOL0     H24240   5.758  10.635   1.421 -2.2953 -1.3503  2.5493
  184MOL0     H24241   5.590  10.462   1.432 -3.3099 -2.3693 -1.0013
  184MOL0     H24242   5.350  10.359   1.420  5.3515 -0.9270 -1.6930
  184MOL0     H24243   5.356  10.352   1.246  0.6721  0.8845  0.3144
  184MOL0     H24244   5.158  10.503   1.225  3.7265  0.9503  0.5078
  184MOL0     H24245   5.135  10.521   1.393 -0.5030 -1.2326  0.8199
  184MOL0     H24246   5.129  10.263   1.226 -0.0383  1.0035 -0.5066
  184MOL0     H24247   5.081  10.250   1.400  2.9848  0.1992  0.3001
  184MOL0     H24248   4.929  10.387   1.183  1.0267  4.2230  1.6895
  184MOL0     H24249   4.905  10.428   1.358  1.9329  0.3365  1.5991
  184MOL0     H24250   4.699  10.034   1.338  2.5642  0.6535  0.6787
  184MOL0     H24251   4.459  10.029   1.273 -0.4815  0.0023 -3.4328
  184MOL0     H24252   4.202  10.021   0.934 -0.2984 -1.0673 -1.1456
  184MOL0     H24253   3.951   9.989   0.836 -0.5788  1.7887 -0.7813
  184MOL0     H24254   3.616  10.155   1.042 -0.8379  0.2172 -2.9634
  184MOL0     H24255   3.631   9.987   1.124  0.4344 -1.6866 -1.5282
  184MOL0     H24256   3.428   9.991   0.990  1.3135 -0.6145  0.8967
  184MOL0     H24257   3.542   9.926   0.874  0.6260  1.8037 -2.6823
  184MOL0     H24258   3.578  10.170   0.793  0.3604 -1.1701  0.4918
  184MOL0     H24259   3.432  10.209   0.886 -0.4566  1.3108 -0.5962
  184MOL0     H24260   3.460  10.006   0.659  0.7724 -0.6052  0.7142
  184MOL0     H24261   3.308  10.028   0.752  1.8506  1.3440  6.1009
  184MOL0     H24262   3.459  10.223   0.557  0.5393 -2.5628  1.0271
  184MOL0     H24263   3.314  10.271   0.658 -2.9726 -0.6228 -1.0265
  184MOL0     H24264   3.180  10.123   0.554 -0.1409 -1.5811 -0.2835
  184MOL0     H24265   3.310  10.056   0.462  0.8752 -0.1663  0.8603
  184MOL0     H24266   3.261  10.345   0.421 -0.7062  1.1870 -0.2236
  184MOL0     H24267   3.313  10.220   0.301 -0.2440 -2.5287 -0.0803
  184MOL0     H24268   3.095  10.317   0.257  0.1783 -3.1675 -3.6207
  184MOL0     H24269   3.028  10.278   0.409 -0.1619  4.2196 -0.6929
  184MOL0     H24270   3.816  10.099   1.233  1.0593  0.2313  0.7465
  184MOL0     H24271   4.026  10.123   1.312 -2.3471 -0.0171  0.9110
  184MOL0     H24272   4.464  10.439   1.164 -1.2126 -1.6199 -0.2799
  184MOL0     H24273   4.709  10.457   1.246  0.6253 -0.5218  2.3886
  184MOL0     H24274   6.671  10.855   1.388  0.2936  3.9378  0.4025
  184MOL0     H24275   6.863  10.880   1.507 -0.3877 -0.3404 -2.9928
  184MOL0     H24276   7.030  10.849   2.139 -1.0417 -2.8234  0.5766
  184MOL0     H24277   7.247  10.774   2.219  0.2231 -0.0743 -0.0927
  184MOL0     H24278   7.382  10.602   2.252  0.5432  2.2288  1.2642
  184MOL0     H24279   7.472  10.751   2.250 -0.4628 -0.9884  2.8640
  184MOL0     H24280   7.662  10.632   2.159 -0.0186 -0.3801  0.8278
  184MOL0     H24281   7.624  10.616   2.336  1.0062 -1.8976 -0.0986
  184MOL0     H24282   7.533  10.409   2.291 -1.8235  0.4432 -0.4069
  184MOL0     H24283   7.707  10.408   2.262 -1.8746  0.0288  3.1123
  184MOL0     H24284   7.598  10.271   2.096  0.2365  0.6270  3.3723
  184MOL0     H24285   7.515  10.411   2.027 -0.6142 -0.2293  0.5797
  184MOL0     H24286   7.910  10.455   1.896 -0.5498 -0.4290 -0.8426
  184MOL0     H24287   7.341  10.647   1.827 -0.0522 -0.9699  0.8490
  184MOL0     H24288   7.133  10.769   1.736  2.7901 -0.5004 -1.0771
  185MOL0     O24289   8.232   1.257  10.270  0.1637 -0.5492  0.0342
  185MOL0     C24290   8.222   1.265  10.393  0.0833 -0.1117 -0.3652
  185MOL0     O24291   8.104   1.248  10.469 -0.3769  0.2340 -0.8172
  185MOL0     C24292   7.992   1.212  10.401  0.5618  0.0128  0.6414
  185MOL0     C24293   7.883   1.298  10.403 -0.3672 -0.6192  0.1430
  185MOL0     C24294   7.763   1.274  10.334 -0.9048 -0.5390  0.5158
  185MOL0     C24295   7.760   1.151  10.257 -0.3613 -0.3044  0.1110
  185MOL0     O24296   7.640   1.128  10.195  0.1987  0.0491  0.1463
  185MOL0     C24297   7.628   1.021  10.101  0.0113 -0.4812  0.2051
  185MOL0     C24298   7.501   1.026  10.017  0.3970 -0.8652  0.4059
  185MOL0     C24299   7.471   1.144   9.929 -0.0612  0.6121  0.2582
  185MOL0     C24300   7.431   1.269  10.008  0.1259 -0.0930 -0.0536
  185MOL0     C24301   7.376   1.390   9.925  0.1711  0.3928  0.4134
  185MOL0     C24302   7.251   1.359   9.834  0.6045 -0.1003  0.4542
  185MOL0     C24303   7.134   1.323   9.924  0.3971  0.7696 -0.6121
  185MOL0     C24304   6.997   1.343   9.852  0.2849 -0.5051  0.5054
  185MOL0     N24305   6.976   1.239   9.750  0.3200  0.1722 -0.3265
  185MOL0     C24306   6.852   1.184   9.731 -0.7195  0.6657 -0.0189
  185MOL0     C24307   6.863   1.111   9.614  0.2319 -0.6564 -0.0161
  185MOL0     C24308   6.755   1.031   9.551 -0.3871  0.4646  0.4706
  185MOL0     C24309   6.662   1.121   9.478 -0.9463  0.9981  0.1091
  185MOL0     C24310   6.573   1.030   9.393 -0.9106  0.1174 -0.8880
  185MOL0     C24311   6.491   1.111   9.295 -0.7879 -0.0653  0.4580
  185MOL0     O24312   6.396   1.183   9.371  0.1760  0.4866  0.8788
  185MOL0     C24313   6.271   1.200   9.314 -0.2033 -0.8312  0.8315
  185MOL0     C24314   6.163   1.235   9.397 -0.4330 -0.0679 -0.1178
  185MOL0     C24315   6.035   1.258   9.347  0.2773 -0.0650  0.2675
  185MOL0     C24316   6.023   1.283   9.210  0.3934  0.5590 -0.2561
  185MOL0     C24317   5.897   1.323   9.146  0.1647 -0.1119 -0.1773
  185MOL0     O24318   5.784   1.283   9.208  0.3922 -0.4923  0.2913
  185MOL0     C24319   5.665   1.259   9.140  0.0859 -0.2984  0.5696
  185MOL0     C24320   5.654   1.222   9.001  1.0428  0.2464 -0.5747
  185MOL0     C24321   5.526   1.207   8.939  0.0028  0.3239 -0.4266
  185MOL0     C24322   5.412   1.215   9.015 -0.3145  0.6369 -0.3581
  185MOL0     O24323   5.294   1.195   8.945 -0.4802  0.2181 -0.8714
  185MOL0     C24324   5.199   1.102   9.000  0.7590 -0.6464  0.7117
  185MOL0     C24325   5.066   1.149   8.953  0.4157  0.5477  0.2216
  185MOL0     C24326   4.955   1.055   8.992  0.1606  0.3536  0.3303
  185MOL0     C24327   4.819   1.088   8.945  0.5687 -0.4286  0.2479
  185MOL0     C24328   4.715   0.972   8.953  1.1213 -0.6390  0.7465
  185MOL0     C24329   4.582   1.018   8.892 -0.0959 -0.1023  0.2116
  185MOL0     C24330   4.483   0.908   8.909  0.0156  0.0413  0.1218
  185MOL0     C24331   4.375   0.919   8.806 -0.7290  0.7699 -0.2746
  185MOL0    Cl24332   4.260   0.782   8.818 -0.4147 -0.0164 -0.1073
  185MOL0     C24333   5.425   1.248   9.147 -0.4283 -0.4277 -0.0613
  185MOL0     C24334   5.552   1.278   9.205 -0.1154  1.6537 -0.4478
  185MOL0     O24335   5.904   1.389   9.043  0.4605 -0.7149 -0.4654
  185MOL0     C24336   6.132   1.261   9.123  0.3446  0.8153  0.2125
  185MOL0     C24337   6.252   1.212   9.175 -0.8550  0.0092  0.2522
  185MOL0     N24338   6.985   1.132   9.561 -0.4282  0.3670 -0.1124
  185MOL0     N24339   7.053   1.199   9.644 -0.0404 -0.5851  0.1519
  185MOL0     C24340   7.866   1.056  10.267 -0.2049  0.9880  0.1751
  185MOL0     C24341   7.981   1.091  10.333 -0.0752 -0.5736  0.7113
  185MOL0     C24342   8.352   1.273  10.476 -0.7033 -0.4213  0.6875
  185MOL0     C24343   8.351   1.242  10.614 -0.3338  0.5211 -0.2146
  185MOL0     C24344   8.473   1.255  10.682  0.6006  0.3593  0.6074
  185MOL0     C24345   8.593   1.298  10.619  0.6936  0.5497  0.4161
  185MOL0     O24346   8.703   1.302  10.699  0.2843  0.0965 -0.4289
  185MOL0     C24347   8.830   1.363  10.658 -0.2755 -0.2704 -0.1731
  185MOL0     C24348   8.936   1.344  10.769  0.1860 -0.5678  0.1864
  185MOL0     C24349   9.064   1.417  10.735  1.0626  0.0005  0.0048
  185MOL0     C24350   9.173   1.433  10.835  0.5598 -0.6345 -0.8951
  185MOL0     C24351   9.162   1.545  10.931 -0.0148 -1.1302  0.4076
  185MOL0     C24352   9.139   1.629  11.012 -0.2656  0.9511  0.7042
  185MOL0     C24353   8.593   1.339  10.490  0.3612  0.7209 -0.1061
  185MOL0     C24354   8.475   1.319  10.414 -0.9762  0.9784 -0.1056
  185MOL0     H24355   7.895   1.398  10.445 -2.5589  0.2639 -1.1316
  185MOL0     H24356   7.684   1.347  10.328  0.6519  1.5417  3.1546
  185MOL0     H24357   7.621   0.925  10.153 -0.9308  1.3409  3.7300
  185MOL0     H24358   7.717   1.017  10.037  0.9559 -2.6971  1.5523
  185MOL0     H24359   7.424   1.027  10.095  1.6459  3.2891  1.8371
  185MOL0     H24360   7.508   0.943   9.945  2.0028 -1.2231  0.9468
  185MOL0     H24361   7.389   1.112   9.864  2.8363 -3.6947 -1.8396
  185MOL0     H24362   7.552   1.172   9.861 -1.0269 -2.1140 -2.2499
  185MOL0     H24363   7.359   1.239  10.084  0.3036 -2.8767 -0.8481
  185MOL0     H24364   7.511   1.312  10.070  1.4101 -2.1203 -0.2100
  185MOL0     H24365   7.463   1.430   9.872 -1.9069  1.7947 -2.2028
  185MOL0     H24366   7.339   1.457  10.003  0.1262  0.2530  0.5127
  185MOL0     H24367   7.272   1.278   9.764 -0.4465 -0.7015  0.8167
  185MOL0     H24368   7.226   1.451   9.780 -0.9471  0.9574  2.7920
  185MOL0     H24369   7.143   1.217   9.948 -1.0342  0.5668 -0.9093
  185MOL0     H24370   7.131   1.376  10.020 -0.6866 -0.3869  0.0114
  185MOL0     H24371   6.998   1.441   9.804 -1.4430 -0.3050  0.7981
  185MOL0     H24372   6.918   1.353   9.927 -0.1240  0.4320 -0.0294
  185MOL0     H24373   6.759   1.191   9.788 -1.1335  2.2807 -0.8204
  185MOL0     H24374   6.698   0.981   9.630 -1.3919 -1.3891 -1.3324
  185MOL0     H24375   6.792   0.956   9.480 -3.0945  0.6963 -1.3340
  185MOL0     H24376   6.725   1.186   9.416  3.8849 -3.8705 -0.8927
  185MOL0     H24377   6.615   1.180   9.557  0.4308  0.9525  0.9960
  185MOL0     H24378   6.643   0.971   9.333  1.8353  2.9225 -0.6652
  185MOL0     H24379   6.506   0.968   9.455 -1.3678  1.4446 -0.0025
  185MOL0     H24380   6.439   1.053   9.218 -0.7982  0.2674  0.2140
  185MOL0     H24381   6.566   1.179   9.254 -1.3554  0.1590 -0.2103
  185MOL0     H24382   6.171   1.226   9.504 -0.6371 -1.6451 -0.2166
  185MOL0     H24383   5.954   1.284   9.415  1.5075  0.8624  1.4574
  185MOL0     H24384   5.738   1.193   8.938  2.2847 -0.6534  1.4025
  185MOL0     H24385   5.515   1.166   8.839  0.1830  0.1707 -0.3822
  185MOL0     H24386   5.209   1.115   9.108 -0.5896 -0.1707  0.8001
  185MOL0     H24387   5.232   1.001   8.974  1.3899 -0.5489  1.1060
  185MOL0     H24388   5.070   1.171   8.846  0.7710  0.7548  0.2765
  185MOL0     H24389   5.028   1.242   8.997  1.3896  1.6500 -1.1874
  185MOL0     H24390   4.957   1.060   9.101 -0.2446  1.6931  0.2999
  185MOL0     H24391   4.982   0.956   8.954  0.1276  0.8304 -1.0041
  185MOL0     H24392   4.787   1.175   9.002  2.1647 -0.3913  1.1580
  185MOL0     H24393   4.818   1.119   8.841  0.8815 -3.7411 -0.8525
  185MOL0     H24394   4.708   0.933   9.055  1.1992 -0.7089  0.7249
  185MOL0     H24395   4.751   0.886   8.896  0.4160 -2.1273  2.4662
  185MOL0     H24396   4.591   1.048   8.787 -0.7620 -0.8907 -0.0813
  185MOL0     H24397   4.543   1.107   8.943 -0.3584  1.1691 -2.0320
  185MOL0     H24398   4.531   0.810   8.901 -0.5931 -0.1897 -0.7509
  185MOL0     H24399   4.432   0.924   9.004 -1.0442 -1.9272 -0.0742
  185MOL0     H24400   4.426   0.918   8.710  1.4130  0.3194  0.8130
  185MOL0     H24401   4.326   1.017   8.802  2.6433  2.5717 -0.8756
  185MOL0     H24402   5.334   1.254   9.206 -0.7534 -0.5914 -0.5422
  185MOL0     H24403   5.550   1.318   9.306 -2.6380  1.2661 -0.2866
  185MOL0     H24404   6.106   1.270   9.018  0.6679 -4.4992 -0.6103
  185MOL0     H24405   6.325   1.210   9.095 -0.2289  0.8077  0.7783
  185MOL0     H24406   7.847   0.965  10.212  0.2839  2.0439 -1.8358
  185MOL0     H24407   8.059   1.015  10.343 -0.7356 -1.1966  1.2703
  185MOL0     H24408   8.274   1.195  10.674  0.5405 -1.0378 -0.2566
  185MOL0     H24409   8.467   1.232  10.788 -0.1184  1.3660  0.7949
  185MOL0     H24410   8.808   1.469  10.641  2.8761  0.6480  0.8106
  185MOL0     H24411   8.877   1.314  10.572  1.1843  0.7106  0.0139
  185MOL0     H24412   8.889   1.366  10.865 -2.2496 -0.1659 -1.0157
  185MOL0     H24413   8.952   1.236  10.782 -2.2148 -0.9507  0.3767
  185MOL0     H24414   9.043   1.517  10.697  1.4806  0.2075  0.3183
  185MOL0     H24415   9.097   1.347  10.657  2.1076 -2.9869  2.8649
  185MOL0     H24416   9.183   1.334  10.881 -0.7776 -1.1497 -1.6434
  185MOL0     H24417   9.264   1.448  10.778  2.0337 -0.9730  1.2340
  185MOL0     H24418   9.108   1.712  11.072  2.7916  2.8759 -0.1642
  185MOL0     H24419   8.674   1.385  10.435  0.0167  0.2109 -1.0577
  185MOL0     H24420   8.489   1.340  10.309  0.4505 -1.3098 -0.4426
  186MOL0     O24421   5.935   4.078  11.182  0.1419  0.4310 -0.0670
  186MOL0     C24422   5.998   3.993  11.122 -0.1878 -0.5921 -0.1413
  186MOL0     O24423   5.953   3.869  11.086 -0.0378  0.1277 -0.2342
  186MOL0     C24424   5.816   3.862  11.063  0.3853 -0.5682 -0.1508
  186MOL0     C24425   5.727   3.836  11.172 -0.3696 -0.3643  0.6133
  186MOL0     C24426   5.592   3.844  11.150  0.6880  0.6199  0.4622
  186MOL0     C24427   5.536   3.862  11.023  0.9537 -0.3493  0.3910
  186MOL0     O24428   5.402   3.851  10.990  0.1333 -0.4873  0.8592
  186MOL0     C24429   5.310   3.871  11.097  1.0299 -0.1407 -0.6664
  186MOL0     C24430   5.162   3.851  11.045 -0.1620 -0.4692 -0.1735
  186MOL0     C24431   5.068   3.791  11.151  0.9668 -0.4564 -0.5944
  186MOL0     C24432   5.062   3.874  11.281  0.0692 -0.1992 -0.1058
  186MOL0     C24433   4.933   3.834  11.361 -0.2239  0.0219 -0.2172
  186MOL0     C24434   4.798   3.825  11.282 -0.6129  0.3903 -0.1331
  186MOL0     C24435   4.684   3.809  11.385  0.5863 -0.3472 -0.4029
  186MOL0     C24436   4.585   3.706  11.328 -0.0307 -0.2537  0.3955
  186MOL0     N24437   4.468   3.729  11.414 -0.3235  0.3498  0.1525
  186MOL0     C24438   4.335   3.768  11.384  0.7792  0.2137  0.1558
  186MOL0     C24439   4.271   3.759  11.504 -0.1919 -0.3208  0.9044
  186MOL0     C24440   4.124   3.776  11.518  1.0342  0.7643  0.9635
  186MOL0     C24441   4.064   3.647  11.578  0.6605 -0.5041 -0.3212
  186MOL0     C24442   3.912   3.659  11.589  0.1797  0.2560 -0.4479
  186MOL0     C24443   3.851   3.534  11.655 -0.3508  0.1732 -0.6488
  186MOL0     O24444   3.719   3.551  11.725 -0.3802 -0.2986  0.7720
  186MOL0     C24445   3.611   3.541  11.646  0.9455 -0.3139  0.0189
  186MOL0     C24446   3.581   3.623  11.534  0.1941 -0.2162 -0.1668
  186MOL0     C24447   3.470   3.599  11.451  0.1306 -0.4092  0.0750
  186MOL0     C24448   3.371   3.506  11.497  1.3629  0.0809  0.5197
  186MOL0     C24449   3.243   3.504  11.422 -0.6283  0.8120 -0.7109
  186MOL0     O24450   3.245   3.560  11.302  0.0369 -0.1538 -0.7877
  186MOL0     C24451   3.139   3.538  11.223  0.6599 -0.0723 -0.4391
  186MOL0     C24452   3.158   3.466  11.104 -0.2475 -0.8518 -0.0548
  186MOL0     C24453   3.042   3.434  11.030 -0.1197 -0.1413  0.3352
  186MOL0     C24454   2.911   3.479  11.056 -0.0051 -0.5247  0.8241
  186MOL0     O24455   2.805   3.446  10.978 -0.1561  0.4176  0.7764
  186MOL0     C24456   2.678   3.487  11.010 -0.3077 -0.0070  0.0100
  186MOL0     C24457   2.594   3.453  10.887 -0.1094  0.5394  0.2615
  186MOL0     C24458   2.450   3.500  10.909 -0.6850  0.9004  1.1107
  186MOL0     C24459   2.407   3.528  10.765 -0.9371  0.2360  0.1362
  186MOL0     C24460   2.253   3.540  10.762 -0.4655  0.5207  0.3802
  186MOL0     C24461   2.212   3.572  10.618  0.3388 -0.7417  0.0054
  186MOL0     C24462   2.103   3.474  10.571  0.9192 -0.0989 -0.2739
  186MOL0     C24463   2.054   3.536  10.443 -0.3749 -0.5439 -0.4871
  186MOL0    Cl24464   1.970   3.414  10.370  0.1024  0.1262  0.6508
  186MOL0     C24465   2.898   3.564  11.167 -0.1614 -0.0540 -0.0542
  186MOL0     C24466   3.012   3.587  11.249  0.5339  0.3525 -0.2618
  186MOL0     O24467   3.143   3.454  11.481 -0.5902 -0.4491  0.0497
  186MOL0     C24468   3.393   3.430  11.607  0.1156  0.0171  0.3574
  186MOL0     C24469   3.510   3.449  11.684  0.5001  1.0062  0.1475
  186MOL0     N24470   4.354   3.708  11.598 -0.3390 -0.2373  0.2730
  186MOL0     N24471   4.464   3.689  11.547 -0.4490 -0.1563 -0.1102
  186MOL0     C24472   5.619   3.887  10.911  0.2044  0.6822 -0.3337
  186MOL0     C24473   5.758   3.877  10.935 -0.7762 -0.2580 -1.1476
  186MOL0     C24474   6.145   4.017  11.116 -0.4428  0.4697  0.3599
  186MOL0     C24475   6.232   3.931  11.042 -0.2697 -0.8190  0.8135
  186MOL0     C24476   6.370   3.954  11.038 -0.7579  0.3348 -0.6680
  186MOL0     C24477   6.430   4.044  11.123  0.5446 -0.2422 -0.0634
  186MOL0     O24478   6.567   4.061  11.109  0.0641  0.3233  0.1947
  186MOL0     C24479   6.632   4.153  11.183  0.3810 -0.4660  0.4869
  186MOL0     C24480   6.785   4.128  11.177  0.0895  0.1136 -0.3118
  186MOL0     C24481   6.843   4.133  11.028 -0.7660  0.7865  0.1982
  186MOL0     C24482   6.965   4.043  11.025 -0.4153 -0.8602  0.6239
  186MOL0     C24483   7.038   4.072  10.902 -1.1550 -0.6841  0.0083
  186MOL0     C24484   7.070   4.087  10.789  0.5860  1.0886  0.1670
  186MOL0     C24485   6.346   4.135  11.188 -0.7429 -0.8902  0.2806
  186MOL0     C24486   6.205   4.119  11.194 -0.5458  0.7076 -0.1951
  186MOL0     H24487   5.762   3.808  11.271  1.7996  1.6150  0.5131
  186MOL0     H24488   5.524   3.821  11.232  0.6375  2.9050  1.1403
  186MOL0     H24489   5.315   3.967  11.149 -1.8852 -1.1627  1.8172
  186MOL0     H24490   5.329   3.785  11.162  0.3367  0.0179 -0.2497
  186MOL0     H24491   5.165   3.783  10.959  1.8449  0.6164 -1.0178
  186MOL0     H24492   5.119   3.947  11.015  0.1458 -1.2988 -3.8411
  186MOL0     H24493   5.092   3.689  11.181  2.1779 -0.8581 -2.7087
  186MOL0     H24494   4.973   3.806  11.099  0.1409  1.6292  1.3375
  186MOL0     H24495   5.152   3.845  11.335  1.0956  0.3119 -1.4548
  186MOL0     H24496   5.067   3.982  11.263  1.8805  0.2025  2.3013
  186MOL0     H24497   4.917   3.901  11.446  1.6704 -1.5324  1.4781
  186MOL0     H24498   4.949   3.733  11.400  0.3424 -0.8230 -2.5018
  186MOL0     H24499   4.803   3.742  11.211  0.3408 -2.0833  2.6351
  186MOL0     H24500   4.772   3.913  11.222 -1.3367  0.1540 -0.1745
  186MOL0     H24501   4.711   3.768  11.482 -4.1462  1.7893  2.1803
  186MOL0     H24502   4.633   3.903  11.408  0.3634 -1.0183  2.0922
  186MOL0     H24503   4.627   3.607  11.345  2.4683  0.7113  0.2755
  186MOL0     H24504   4.566   3.725  11.222  0.9970 -2.0311 -0.1541
  186MOL0     H24505   4.299   3.793  11.284 -0.5900 -3.8001 -0.5406
  186MOL0     H24506   4.078   3.790  11.420 -0.3541  0.3462  1.5247
  186MOL0     H24507   4.107   3.864  11.581 -1.2150  0.7340  0.4952
  186MOL0     H24508   4.105   3.632  11.678  0.2267  0.7749  0.0738
  186MOL0     H24509   4.089   3.555  11.524  0.4544 -1.1540  0.6646
  186MOL0     H24510   3.881   3.750  11.640 -2.8133 -1.5795  1.3573
  186MOL0     H24511   3.866   3.668  11.491 -0.1303  0.3872 -0.2937
  186MOL0     H24512   3.908   3.500  11.741 -2.0009 -0.9301  0.0798
  186MOL0     H24513   3.850   3.451  11.584  1.3321 -1.8438  1.5163
  186MOL0     H24514   3.655   3.701  11.519 -0.8707  0.7030 -0.8136
  186MOL0     H24515   3.452   3.655  11.360  1.8612  2.0900  1.1778
  186MOL0     H24516   3.256   3.433  11.072  0.5534 -0.0632  1.4854
  186MOL0     H24517   3.057   3.376  10.940  1.3332 -2.1089  1.7386
  186MOL0     H24518   2.691   3.594  11.029 -0.7848  0.1276 -0.3757
  186MOL0     H24519   2.648   3.446  11.107  0.5217  0.9968  0.7080
  186MOL0     H24520   2.595   3.344  10.878  3.0472  0.3342  1.6500
  186MOL0     H24521   2.649   3.491  10.801  1.6262 -2.0304  0.1374
  186MOL0     H24522   2.450   3.593  10.966 -0.3046  2.8494 -1.8279
  186MOL0     H24523   2.396   3.417  10.957 -0.4473  0.7013  1.0374
  186MOL0     H24524   2.463   3.619  10.744  1.4735 -0.2175  3.6049
  186MOL0     H24525   2.437   3.442  10.704 -1.9498 -2.2160  2.8286
  186MOL0     H24526   2.218   3.616  10.832 -2.3402  1.2746 -1.2724
  186MOL0     H24527   2.199   3.450  10.795 -0.7626  0.8858  0.8945
  186MOL0     H24528   2.294   3.566  10.546  1.3281 -2.9466  1.1967
  186MOL0     H24529   2.177   3.675  10.621 -0.8964 -1.1558  0.2927
  186MOL0     H24530   2.143   3.374  10.553  0.6105 -0.2593 -0.0486
  186MOL0     H24531   2.021   3.468  10.642  1.5566  0.3298  0.5102
  186MOL0     H24532   2.140   3.573  10.387  0.7220 -1.3693  0.6073
  186MOL0     H24533   1.994   3.627  10.453 -0.4756 -0.6057 -0.5166
  186MOL0     H24534   2.803   3.605  11.198  0.1541  1.6212 -1.1272
  186MOL0     H24535   2.994   3.637  11.344 -1.6872 -0.0733 -0.4066
  186MOL0     H24536   3.328   3.348  11.635  1.1919 -0.5900  1.1768
  186MOL0     H24537   3.532   3.388  11.771  1.2128  1.4319  0.2713
  186MOL0     H24538   5.583   3.887  10.808  3.1228 -0.6649 -1.4700
  186MOL0     H24539   5.822   3.894  10.850 -1.8461  0.9837 -1.7333
  186MOL0     H24540   6.190   3.866  10.965 -0.0641  1.6538 -1.5299
  186MOL0     H24541   6.444   3.908  10.974  2.3549  1.2988  1.9378
  186MOL0     H24542   6.594   4.146  11.286 -1.1120  2.0041  0.1697
  186MOL0     H24543   6.595   4.248  11.144 -2.1826 -2.2003 -1.6280
  186MOL0     H24544   6.836   4.207  11.235  0.5910  0.6435 -1.4464
  186MOL0     H24545   6.807   4.027  11.213 -0.1796  0.7271  1.7136
  186MOL0     H24546   6.856   4.237  10.997 -0.1007  0.4926 -0.5445
  186MOL0     H24547   6.772   4.087  10.959 -0.8272  0.4577  0.4742
  186MOL0     H24548   7.032   4.066  11.108 -1.3960 -0.9453  1.4592
  186MOL0     H24549   6.937   3.938  11.041 -2.4420  0.0908  4.5403
  186MOL0     H24550   7.080   4.095  10.683 -5.4919 -1.6219 -1.0735
  186MOL0     H24551   6.399   4.218  11.233 -0.0726 -0.8077 -0.6398
  186MOL0     H24552   6.148   4.191  11.251 -2.0871 -0.5685 -0.0696
  187MOL0     O24553   6.268   5.455   8.625  0.6674 -0.2102  0.2765
  187MOL0     C24554   6.385   5.469   8.593 -0.1238  0.7727 -0.3857
  187MOL0     O24555   6.433   5.554   8.498  0.6188 -0.2571  0.4672
  187MOL0     C24556   6.341   5.643   8.442  0.3476  0.9763  0.4227
  187MOL0     C24557   6.335   5.777   8.481 -0.1277 -0.1278  0.3739
  187MOL0     C24558   6.238   5.863   8.418 -0.3137 -0.2432  0.0320
  187MOL0     C24559   6.162   5.821   8.309  0.4359  0.3601  0.5530
  187MOL0     O24560   6.075   5.916   8.261 -0.0849  0.3138 -0.4248
  187MOL0     C24561   5.997   5.892   8.142  0.1167 -0.9009 -0.0312
  187MOL0     C24562   5.864   5.978   8.145  0.4034  0.5761 -0.2819
  187MOL0     C24563   5.752   5.916   8.059  0.1710  0.2909 -0.5632
  187MOL0     C24564   5.625   6.000   8.053  0.4200  0.3697  1.0195
  187MOL0     C24565   5.509   5.936   7.967 -0.0961 -0.2318  0.7760
  187MOL0     C24566   5.388   6.019   7.946  0.7545  0.2990  0.7253
  187MOL0     C24567   5.283   5.963   7.848 -0.0357  0.2453  0.3880
  187MOL0     C24568   5.228   5.823   7.890  0.5688 -0.5905 -0.7586
  187MOL0     N24569   5.108   5.784   7.809 -0.2063  0.0179 -0.6266
  187MOL0     C24570   4.978   5.829   7.839 -0.0669 -0.8364  0.1729
  187MOL0     C24571   4.900   5.760   7.748  0.4374  0.6163 -0.2095
  187MOL0     C24572   4.747   5.766   7.734  0.0997 -0.4976  0.0007
  187MOL0     C24573   4.696   5.640   7.675 -0.5183 -0.6627  0.4665
  187MOL0     C24574   4.543   5.652   7.649 -0.5833 -0.2030  0.1484
  187MOL0     C24575   4.493   5.526   7.581 -0.0424 -0.6801  1.5493
  187MOL0     O24576   4.507   5.418   7.671  0.4773  0.9280 -0.5271
  187MOL0     C24577   4.401   5.345   7.721 -0.3833  0.7599  0.7606
  187MOL0     C24578   4.259   5.365   7.695 -0.6523 -0.5129  0.0160
  187MOL0     C24579   4.168   5.280   7.754  0.0878  0.8802 -0.3126
  187MOL0     C24580   4.217   5.169   7.829 -0.2409  0.9597  0.1843
  187MOL0     C24581   4.113   5.068   7.888 -0.5862 -0.5349 -0.7504
  187MOL0     O24582   3.985   5.096   7.853 -0.2270 -0.0121  0.3166
  187MOL0     C24583   3.879   5.027   7.891  0.1773 -0.1932  0.7723
  187MOL0     C24584   3.765   5.107   7.912  0.0633 -0.0995  0.1702
  187MOL0     C24585   3.655   5.059   7.975 -0.1671  0.0759  0.4267
  187MOL0     C24586   3.650   4.930   8.029 -0.1963 -0.0218 -0.6597
  187MOL0     O24587   3.533   4.890   8.090 -0.5455 -0.3580 -0.2014
  187MOL0     C24588   3.538   4.773   8.167  0.3759 -0.0937  0.0731
  187MOL0     C24589   3.586   4.802   8.308  0.0750 -0.3319 -0.1040
  187MOL0     C24590   3.570   4.679   8.397 -0.3842 -0.2776 -0.2097
  187MOL0     C24591   3.425   4.668   8.453  0.8296  0.0629 -0.5281
  187MOL0     C24592   3.411   4.573   8.575  0.2767 -0.8720  0.5220
  187MOL0     C24593   3.338   4.436   8.537  0.0564  0.3896  0.2450
  187MOL0     C24594   3.206   4.453   8.468 -0.0665 -0.2928 -0.0579
  187MOL0     C24595   3.117   4.533   8.554  0.2987  0.0410 -0.1630
  187MOL0    Cl24596   3.082   4.443   8.708  0.1689 -0.1148  0.0639
  187MOL0     C24597   3.766   4.845   8.005  0.3092 -0.9450  0.2299
  187MOL0     C24598   3.873   4.893   7.947  0.4525  0.4786  0.5721
  187MOL0     O24599   4.162   4.975   7.960 -0.0132  0.2319  0.1388
  187MOL0     C24600   4.354   5.143   7.848 -0.8520 -0.2909 -0.5627
  187MOL0     C24601   4.448   5.226   7.782  0.3593 -0.8114 -0.3439
  187MOL0     N24602   4.982   5.690   7.658  0.7549 -0.8115 -0.1993
  187MOL0     N24603   5.105   5.703   7.698 -0.2076  0.4118  0.3271
  187MOL0     C24604   6.172   5.679   8.268  0.6780 -0.5797 -0.0422
  187MOL0     C24605   6.261   5.597   8.333 -0.3010 -0.6428  0.1855
  187MOL0     C24606   6.489   5.365   8.636  0.3781  0.1437 -0.0979
  187MOL0     C24607   6.611   5.360   8.576 -0.4432  0.0093 -0.4481
  187MOL0     C24608   6.696   5.253   8.617  0.4811 -1.6984 -0.4484
  187MOL0     C24609   6.661   5.153   8.700  0.0596 -0.4133  0.2126
  187MOL0     O24610   6.761   5.062   8.735  0.1811 -0.1946  0.4229
  187MOL0     C24611   6.737   4.963   8.839  0.3642 -0.6911 -0.3995
  187MOL0     C24612   6.860   4.888   8.878 -0.8547  0.1562  0.6214
  187MOL0     C24613   6.914   4.799   8.767  0.2030  0.1309 -0.3551
  187MOL0     C24614   6.957   4.669   8.828  0.5083  0.5185 -0.7568
  187MOL0     C24615   6.969   4.583   8.713 -0.3522  0.3500  0.2220
  187MOL0     C24616   6.967   4.498   8.629  0.4234 -0.2759  0.4464
  187MOL0     C24617   6.531   5.158   8.755 -0.1686  0.1750 -0.2843
  187MOL0     C24618   6.447   5.268   8.730 -0.3572  0.1973 -0.8578
  187MOL0     H24619   6.392   5.812   8.566  0.0460 -1.3674  0.7890
  187MOL0     H24620   6.238   5.966   8.453  0.9047 -0.8948  2.0654
  187MOL0     H24621   5.967   5.790   8.118 -2.0723 -0.8435  2.0285
  187MOL0     H24622   6.054   5.920   8.053  0.3362 -0.2623  0.3002
  187MOL0     H24623   5.884   6.082   8.116  0.7025  1.1757  1.8990
  187MOL0     H24624   5.822   5.980   8.245 -0.5976  1.6806 -0.6986
  187MOL0     H24625   5.718   5.818   8.094 -0.8122  0.3297 -1.3587
  187MOL0     H24626   5.794   5.906   7.959  2.2940  1.1798  0.1627
  187MOL0     H24627   5.577   6.013   8.150 -0.0805  1.8461  0.5954
  187MOL0     H24628   5.644   6.103   8.023 -3.8768  1.5875  1.7944
  187MOL0     H24629   5.488   5.831   7.991  1.0412 -1.6609 -3.6190
  187MOL0     H24630   5.551   5.931   7.866  0.0787  0.2345  0.8210
  187MOL0     H24631   5.420   6.118   7.915 -0.2416  0.7203  1.0009
  187MOL0     H24632   5.340   6.028   8.044 -1.4999  0.1010 -0.2786
  187MOL0     H24633   5.199   6.033   7.851 -0.6277 -0.5038  1.8101
  187MOL0     H24634   5.327   5.966   7.747  0.0644  2.3448  0.4488
  187MOL0     H24635   5.195   5.844   7.992 -2.9389 -0.2649 -1.8211
  187MOL0     H24636   5.296   5.738   7.881  1.0464 -0.1649 -1.3014
  187MOL0     H24637   4.945   5.896   7.919  0.9685 -0.4418  0.2810
  187MOL0     H24638   4.727   5.845   7.662 -4.2308 -2.4138 -1.2263
  187MOL0     H24639   4.691   5.794   7.824  1.4035  1.4155  0.2688
  187MOL0     H24640   4.720   5.553   7.738 -1.0065 -1.3574 -0.2837
  187MOL0     H24641   4.746   5.626   7.579  0.1656 -0.7000  0.8271
  187MOL0     H24642   4.486   5.669   7.741  0.5616 -1.2330  1.0806
  187MOL0     H24643   4.522   5.735   7.581 -1.0193 -0.2313  0.2440
  187MOL0     H24644   4.532   5.503   7.481 -0.9855  0.4016  0.9019
  187MOL0     H24645   4.388   5.548   7.557 -0.0332 -1.5506  0.6335
  187MOL0     H24646   4.233   5.450   7.632  1.5446 -1.0233 -1.7102
  187MOL0     H24647   4.063   5.284   7.725  0.0085 -4.4769 -1.7417
  187MOL0     H24648   3.774   5.208   7.874  1.9079  0.6191  2.3237
  187MOL0     H24649   3.564   5.117   7.994 -0.7108 -0.8355  0.6740
  187MOL0     H24650   3.602   4.695   8.124  1.0234  0.0857  0.7038
  187MOL0     H24651   3.434   4.740   8.170 -1.0203  3.7203 -0.3655
  187MOL0     H24652   3.520   4.879   8.350  0.0957 -0.0924 -0.4963
  187MOL0     H24653   3.687   4.843   8.301 -0.6269  1.2866 -1.8265
  187MOL0     H24654   3.621   4.700   8.492 -0.1412  0.6166 -0.5316
  187MOL0     H24655   3.599   4.582   8.356  0.9134 -0.5665  1.3041
  187MOL0     H24656   3.390   4.762   8.497  2.7636  0.2429  0.7647
  187MOL0     H24657   3.363   4.625   8.374  2.4909 -2.4203 -0.5754
  187MOL0     H24658   3.368   4.625   8.661  0.8506 -0.7970  0.7714
  187MOL0     H24659   3.514   4.555   8.607  1.7677  3.6534 -0.9264
  187MOL0     H24660   3.325   4.379   8.629  0.4941  0.6843  0.4944
  187MOL0     H24661   3.401   4.379   8.467 -0.8353  0.6920 -0.8333
  187MOL0     H24662   3.217   4.494   8.367  2.9620  2.6052  1.2334
  187MOL0     H24663   3.158   4.355   8.465  0.6459 -0.6962  0.9400
  187MOL0     H24664   3.016   4.548   8.514 -0.6213  0.8308  2.2277
  187MOL0     H24665   3.163   4.632   8.567 -3.6910  1.9540  1.2321
  187MOL0     H24666   3.767   4.738   8.025 -1.8992 -1.0256  0.2425
  187MOL0     H24667   3.961   4.830   7.940 -1.0409 -1.8768  1.7642
  187MOL0     H24668   4.391   5.055   7.898  2.0495 -1.4487 -4.2725
  187MOL0     H24669   4.553   5.199   7.773  1.2397  2.0915  0.2473
  187MOL0     H24670   6.098   5.641   8.198 -1.8954  1.8963  1.1203
  187MOL0     H24671   6.254   5.490   8.314 -1.6377 -0.1431 -2.6412
  187MOL0     H24672   6.651   5.422   8.496  0.1901 -2.4996 -2.1874
  187MOL0     H24673   6.788   5.258   8.560  0.2155  0.1836 -0.7783
  187MOL0     H24674   6.663   4.890   8.805  1.0290 -0.6641 -2.0000
  187MOL0     H24675   6.706   5.014   8.931 -1.0619  0.7580 -1.6239
  187MOL0     H24676   6.938   4.961   8.902  1.8829 -1.2805 -2.9859
  187MOL0     H24677   6.838   4.823   8.963  2.3768 -1.1002  0.6187
  187MOL0     H24678   7.007   4.839   8.725  2.2122 -2.4911  1.2515
  187MOL0     H24679   6.835   4.794   8.692  1.1045  1.7584 -1.4772
  187MOL0     H24680   7.048   4.691   8.885  0.2545  3.4128 -1.3342
  187MOL0     H24681   6.880   4.625   8.892  1.4143  2.5453  1.9223
  187MOL0     H24682   6.964   4.416   8.561  0.8431  1.7585 -2.2179
  187MOL0     H24683   6.499   5.081   8.824 -0.0713  1.1322  0.8772
  187MOL0     H24684   6.346   5.272   8.770 -0.0845 -0.3389 -0.0881
  188MOL0     O24685   3.681   4.040   2.400  0.1165 -0.0796  0.3671
  188MOL0     C24686   3.622   4.136   2.449  0.2353 -0.4134 -0.8874
  188MOL0     O24687   3.487   4.152   2.460  0.1604  0.3287 -0.0957
  188MOL0     C24688   3.395   4.055   2.428  0.3507  0.0623  0.0135
  188MOL0     C24689   3.417   3.925   2.390 -0.6170 -0.2424 -0.3793
  188MOL0     C24690   3.315   3.829   2.403 -0.4960 -0.6676  0.0127
  188MOL0     C24691   3.185   3.867   2.433  1.5295 -0.3673  0.0129
  188MOL0     O24692   3.096   3.754   2.439 -0.8496 -0.0473  0.4394
  188MOL0     C24693   2.968   3.774   2.504 -0.1675  0.5232 -0.6601
  188MOL0     C24694   2.920   3.644   2.564 -0.3204  0.3486 -0.5447
  188MOL0     C24695   2.771   3.645   2.586  0.3017  0.7511 -0.4842
  188MOL0     C24696   2.714   3.517   2.645 -1.2390  0.4362 -0.2192
  188MOL0     C24697   2.563   3.510   2.668  0.4851  0.2566 -0.5113
  188MOL0     C24698   2.481   3.559   2.549 -0.5184  0.3617 -0.2124
  188MOL0     C24699   2.327   3.538   2.574  0.0783  0.0104 -0.6058
  188MOL0     C24700   2.245   3.640   2.489  0.8065  0.1869  0.1100
  188MOL0     N24701   2.101   3.616   2.513  0.4735  0.2478  0.2901
  188MOL0     C24702   2.030   3.505   2.484 -0.0692  0.2355 -0.6345
  188MOL0     C24703   1.901   3.539   2.521  0.1880 -0.5810  0.5101
  188MOL0     C24704   1.785   3.442   2.491  0.1224  0.1926  0.7612
  188MOL0     C24705   1.816   3.304   2.558  1.0409 -0.1654  0.9847
  188MOL0     C24706   1.808   3.306   2.700  0.7292  0.3683  0.0675
  188MOL0     C24707   1.671   3.350   2.760  0.9437 -0.0789  0.8944
  188MOL0     O24708   1.573   3.259   2.699  0.1760 -0.6838  0.4476
  188MOL0     C24709   1.441   3.291   2.687 -0.2325 -0.7800 -0.5463
  188MOL0     C24710   1.358   3.218   2.609  0.1817  0.7809  0.3003
  188MOL0     C24711   1.229   3.260   2.578 -0.6793 -0.0033  0.9836
  188MOL0     C24712   1.176   3.382   2.628 -0.1062 -0.6317  0.0481
  188MOL0     C24713   1.033   3.431   2.604 -0.0676  0.5063 -0.3844
  188MOL0     O24714   0.952   3.337   2.530 -0.7393  0.3188  0.1005
  188MOL0     C24715   0.822   3.352   2.497 -0.1066 -0.3682  0.0033
  188MOL0     C24716   0.729   3.416   2.577  0.0080 -0.7001  0.6699
  188MOL0     C24717   0.596   3.420   2.538 -0.3965 -0.2355  0.0158
  188MOL0     C24718   0.547   3.376   2.412 -0.0712 -0.4942 -0.1417
  188MOL0     O24719   0.424   3.392   2.359  0.8500 -0.1913  0.1093
  188MOL0     C24720   0.312   3.409   2.450 -0.2488 -0.1914 -0.8933
  188MOL0     C24721   0.290   3.287   2.544 -0.3343 -1.2108  1.0109
  188MOL0     C24722   0.144   3.272   2.586  0.3640 -0.1027  0.1137
  188MOL0     C24723   0.112   3.379   2.685  0.5950 -0.1219 -0.1528
  188MOL0     C24724  -0.027   3.354   2.751  0.0731  0.3913  0.7306
  188MOL0     C24725  -0.059   3.461   2.855  0.2379  0.6546 -0.6435
  188MOL0     C24726  -0.202   3.425   2.916  0.6385 -0.3421 -0.7461
  188MOL0     C24727  -0.223   3.478   3.061 -0.2927 -0.9146  0.2743
  188MOL0    Cl24728  -0.118   3.378   3.174 -0.0587  0.0409  0.1916
  188MOL0     C24729   0.648   3.321   2.333  0.1106 -0.4097  0.2260
  188MOL0     C24730   0.778   3.312   2.371 -0.2783  0.0041  0.0582
  188MOL0     O24731   1.003   3.542   2.637 -0.6732 -0.1102 -0.2641
  188MOL0     C24732   1.257   3.458   2.722  1.2072 -1.1704 -0.2964
  188MOL0     C24733   1.392   3.417   2.745 -0.6002  0.1842 -0.1303
  188MOL0     N24734   1.897   3.675   2.544 -0.5460  0.1758 -0.1276
  188MOL0     N24735   2.023   3.726   2.549 -0.7954  0.5269  0.5349
  188MOL0     C24736   3.155   4.000   2.458 -0.1171  0.6015  0.0373
  188MOL0     C24737   3.257   4.097   2.440 -0.2012  0.5032 -1.2428
  188MOL0     C24738   3.702   4.258   2.475  0.4279  0.4075 -0.2396
  188MOL0     C24739   3.635   4.374   2.507 -0.1871 -0.1422 -0.2067
  188MOL0     C24740   3.704   4.495   2.520 -0.4955  0.2770 -0.6327
  188MOL0     C24741   3.849   4.493   2.516 -0.2730 -0.8240  0.6505
  188MOL0     O24742   3.940   4.595   2.543  0.5001 -0.0184 -0.6311
  188MOL0     C24743   3.868   4.716   2.562  0.7236  1.4630  0.3798
  188MOL0     C24744   3.963   4.830   2.585  0.4906 -0.5142  0.2291
  188MOL0     C24745   4.038   4.878   2.454 -0.0270 -0.2077  0.8211
  188MOL0     C24746   4.140   4.774   2.413 -0.3786  0.4348 -0.1506
  188MOL0     C24747   4.249   4.749   2.511  0.3304 -0.0181 -0.3943
  188MOL0     C24748   4.350   4.735   2.574  0.1279 -0.0512  0.0917
  188MOL0     C24749   3.914   4.375   2.486  0.3429 -0.1145  0.5903
  188MOL0     C24750   3.843   4.259   2.456  1.0027  0.1825 -0.1718
  188MOL0     H24751   3.519   3.887   2.383 -1.1791 -1.6467 -1.3809
  188MOL0     H24752   3.338   3.725   2.383 -0.0775 -0.3273 -1.4048
  188MOL0     H24753   2.897   3.804   2.427 -0.3035  1.7459 -0.0864
  188MOL0     H24754   2.967   3.849   2.584 -0.9850  1.0253 -1.1273
  188MOL0     H24755   2.968   3.644   2.662  1.2616  1.6667 -1.2670
  188MOL0     H24756   2.958   3.555   2.511  0.3130 -1.0532  2.1089
  188MOL0     H24757   2.721   3.651   2.488 -1.9416 -0.3905  0.4994
  188MOL0     H24758   2.740   3.734   2.643 -2.8154  0.1633 -1.0775
  188MOL0     H24759   2.727   3.436   2.572 -1.9097  1.8434 -1.9682
  188MOL0     H24760   2.755   3.492   2.744 -3.1839  1.7851  0.9974
  188MOL0     H24761   2.540   3.565   2.760  1.0916 -0.8425  0.3279
  188MOL0     H24762   2.534   3.409   2.696  0.0458  0.2011 -1.1548
  188MOL0     H24763   2.511   3.506   2.458  1.8021  2.7921 -1.0060
  188MOL0     H24764   2.498   3.667   2.547  1.4311  0.0983  0.2247
  188MOL0     H24765   2.289   3.438   2.552  0.3976 -0.2639  0.0741
  188MOL0     H24766   2.295   3.559   2.677  0.2039 -1.6154 -0.2150
  188MOL0     H24767   2.271   3.630   2.383  0.7914  0.2182  0.1032
  188MOL0     H24768   2.275   3.740   2.522  2.8751 -0.9539  1.9474
  188MOL0     H24769   2.073   3.414   2.444  1.5603  0.5071  0.4308
  188MOL0     H24770   1.777   3.442   2.382  2.9454  0.0091  0.4814
  188MOL0     H24771   1.694   3.483   2.535  1.6914 -1.3094  6.1857
  188MOL0     H24772   1.912   3.268   2.521  1.0149  0.2072  0.5389
  188MOL0     H24773   1.740   3.238   2.515  1.0891 -0.0581  0.7305
  188MOL0     H24774   1.827   3.202   2.730 -3.0259  0.2195  2.6971
  188MOL0     H24775   1.885   3.371   2.742  3.8739 -1.5455 -2.2373
  188MOL0     H24776   1.650   3.455   2.737  0.9224 -0.2354  0.1723
  188MOL0     H24777   1.658   3.351   2.869  1.1829  1.3257  0.9230
  188MOL0     H24778   1.397   3.127   2.565  1.6081  1.2338  0.5721
  188MOL0     H24779   1.166   3.205   2.508 -1.0111  0.4619  0.9077
  188MOL0     H24780   0.749   3.464   2.672 -2.0902 -1.2508  1.4621
  188MOL0     H24781   0.531   3.465   2.613  0.0713 -0.5059  0.5972
  188MOL0     H24782   0.224   3.413   2.385 -2.0659 -1.8978  1.3004
  188MOL0     H24783   0.317   3.504   2.504  2.5800 -0.1532 -1.0928
  188MOL0     H24784   0.354   3.282   2.632 -0.2240 -1.0259  0.9409
  188MOL0     H24785   0.303   3.199   2.480 -1.7479  0.2391 -1.4349
  188MOL0     H24786   0.117   3.179   2.639 -1.4004  1.0066  1.2874
  188MOL0     H24787   0.062   3.289   2.516  1.0898  4.7389  0.1184
  188MOL0     H24788   0.189   3.393   2.761  0.3410 -1.9204  0.4875
  188MOL0     H24789   0.098   3.474   2.632 -0.5756 -0.5271 -0.6050
  188MOL0     H24790  -0.032   3.258   2.803  2.4277  0.1200  0.5612
  188MOL0     H24791  -0.091   3.348   2.663 -0.4211 -0.0027  1.1142
  188MOL0     H24792  -0.058   3.556   2.801  1.7113 -0.2977 -2.4073
  188MOL0     H24793   0.006   3.463   2.943 -1.2979  0.0901  0.5585
  188MOL0     H24794  -0.279   3.461   2.848 -0.6713  3.0931  2.2580
  188MOL0     H24795  -0.209   3.316   2.922  2.7044 -0.4921 -0.2245
  188MOL0     H24796  -0.328   3.477   3.091 -0.6409  0.6028 -0.7681
  188MOL0     H24797  -0.201   3.585   3.066  1.0349 -1.0778 -1.1745
  188MOL0     H24798   0.624   3.275   2.238 -0.9502 -2.0707  1.2431
  188MOL0     H24799   0.852   3.280   2.298 -1.6103 -0.9064 -0.9261
  188MOL0     H24800   1.217   3.551   2.761  0.2325 -2.0962  1.0332
  188MOL0     H24801   1.442   3.483   2.815 -1.0487 -1.3525  1.7364
  188MOL0     H24802   3.050   4.025   2.471  0.1657  1.2221  1.2470
  188MOL0     H24803   3.235   4.202   2.456 -3.1443  0.0113 -1.4640
  188MOL0     H24804   3.528   4.372   2.526  0.0041  0.0741  1.0311
  188MOL0     H24805   3.658   4.590   2.546  0.6679  0.9072 -0.7771
  188MOL0     H24806   3.800   4.710   2.647 -0.3272 -0.3456 -0.5234
  188MOL0     H24807   3.806   4.726   2.472  2.7593 -3.4958 -2.0072
  188MOL0     H24808   3.908   4.917   2.622  0.9967  0.3820 -1.0594
  188MOL0     H24809   4.029   4.798   2.667 -1.1407 -0.1162  1.7569
  188MOL0     H24810   4.083   4.975   2.475 -0.8847 -0.1058  2.3700
  188MOL0     H24811   3.983   4.904   2.364  2.4720  0.1531 -0.6925
  188MOL0     H24812   4.100   4.678   2.382  0.8916 -0.5057  0.9702
  188MOL0     H24813   4.179   4.819   2.322  0.0572 -2.4792 -1.4956
  188MOL0     H24814   4.443   4.730   2.628  0.5142  0.8019 -0.4760
  188MOL0     H24815   4.022   4.374   2.499  0.3089  2.6700  1.7880
  188MOL0     H24816   3.901   4.171   2.429  1.3719  0.6441 -0.9086
  189MOL0     O24817   5.628   9.145   7.030 -0.5330 -0.2342  0.2950
  189MOL0     C24818   5.634   9.264   7.057 -0.5302 -0.1052 -0.5049
  189MOL0     O24819   5.560   9.325   7.151  0.0461 -0.0151  0.4989
  189MOL0     C24820   5.454   9.263   7.212  0.2739 -0.2014 -0.1928
  189MOL0     C24821   5.361   9.183   7.153  0.0815 -0.2602 -0.8078
  189MOL0     C24822   5.255   9.137   7.221 -0.8296 -0.3272  0.1295
  189MOL0     C24823   5.243   9.149   7.360 -0.2226  0.5710  0.2109
  189MOL0     O24824   5.143   9.091   7.442  0.4464 -0.4405 -0.5056
  189MOL0     C24825   5.077   9.192   7.520  1.0973  0.0442 -0.6028
  189MOL0     C24826   5.074   9.174   7.667  0.0166 -0.7869  0.0778
  189MOL0     C24827   4.974   9.258   7.745  0.2770 -0.7652  0.5554
  189MOL0     C24828   4.973   9.232   7.899  0.0209 -0.0309  0.5545
  189MOL0     C24829   4.850   9.283   7.970  0.7161 -0.2202  0.6099
  189MOL0     C24830   4.729   9.196   7.961  0.0373  0.3177 -0.4250
  189MOL0     C24831   4.615   9.270   8.033  0.2129 -0.8891 -0.3225
  189MOL0     C24832   4.492   9.179   8.055 -0.3770 -0.3627  0.7479
  189MOL0     N24833   4.367   9.249   8.076  1.1335  0.0735 -0.1517
  189MOL0     C24834   4.270   9.202   8.161  1.2403  0.0330  0.4372
  189MOL0     C24835   4.162   9.282   8.141 -0.8546  0.3289  0.1694
  189MOL0     C24836   4.037   9.271   8.209 -0.0909 -0.2563  0.7569
  189MOL0     C24837   3.929   9.232   8.105  0.1442  0.2040 -0.0838
  189MOL0     C24838   3.788   9.198   8.167 -1.1775 -0.4263  0.7516
  189MOL0     C24839   3.725   9.310   8.228 -0.4324 -0.1978 -0.2678
  189MOL0     O24840   3.689   9.414   8.139  0.1102 -0.0034  0.2910
  189MOL0     C24841   3.552   9.450   8.122  0.6586 -0.7313 -0.0464
  189MOL0     C24842   3.506   9.532   8.016  0.4085  0.3212  0.0937
  189MOL0     C24843   3.367   9.563   7.995 -0.4322 -0.1102 -0.6957
  189MOL0     C24844   3.269   9.503   8.078 -0.2464  0.1445  0.6953
  189MOL0     C24845   3.123   9.517   8.052 -0.8156  0.6518 -0.9352
  189MOL0     O24846   3.046   9.403   8.082 -0.5267 -0.1816 -0.8077
  189MOL0     C24847   2.910   9.395   8.079  0.1692 -1.2562  0.1337
  189MOL0     C24848   2.819   9.500   8.118 -0.4502  0.3058 -0.2585
  189MOL0     C24849   2.680   9.481   8.126 -0.6174  0.4093  0.4355
  189MOL0     C24850   2.626   9.364   8.079 -0.1548  0.0803  0.7083
  189MOL0     O24851   2.492   9.343   8.056  0.6472 -0.0018  0.2954
  189MOL0     C24852   2.394   9.422   8.130 -0.6666  0.4904 -0.7271
  189MOL0     C24853   2.248   9.396   8.100 -0.2224 -0.1889 -0.5892
  189MOL0     C24854   2.158   9.480   8.180 -0.5039 -0.6072 -0.6740
  189MOL0     C24855   2.011   9.450   8.148  0.0438 -0.5731  0.4220
  189MOL0     C24856   1.932   9.533   8.241  0.1362  0.6931 -0.0023
  189MOL0     C24857   1.792   9.485   8.216 -0.1639 -0.4779  0.0851
  189MOL0     C24858   1.702   9.589   8.299  0.1942  0.1953  0.1557
  189MOL0     C24859   1.560   9.534   8.285  0.4179  0.4388 -0.2589
  189MOL0    Cl24860   1.470   9.524   8.434 -0.4814 -0.3203 -0.1190
  189MOL0     C24861   2.715   9.262   8.036  0.5405 -0.3772 -0.1996
  189MOL0     C24862   2.853   9.273   8.042  0.0882  0.6185 -0.2608
  189MOL0     O24863   3.082   9.627   8.008 -0.0813 -0.5012 -0.3457
  189MOL0     C24864   3.312   9.428   8.179  0.2341 -0.0373 -0.1408
  189MOL0     C24865   3.447   9.402   8.203 -0.5216 -0.2509  0.0385
  189MOL0     N24866   4.191   9.373   8.039 -0.3179  0.2897 -0.9573
  189MOL0     N24867   4.310   9.348   7.993 -0.5752  0.0139  0.0101
  189MOL0     C24868   5.337   9.234   7.422 -0.2478  0.6887  0.3226
  189MOL0     C24869   5.444   9.286   7.353 -0.5160  0.7099 -0.1362
  189MOL0     C24870   5.730   9.346   6.991 -0.3703 -0.0585 -0.0185
  189MOL0     C24871   5.819   9.279   6.901  0.0552 -0.2675 -0.0124
  189MOL0     C24872   5.910   9.350   6.819  0.1615 -0.1863  0.5932
  189MOL0     C24873   5.933   9.482   6.841  0.4180  0.3703  0.7441
  189MOL0     O24874   6.022   9.558   6.768 -0.4127  0.1448  0.2186
  189MOL0     C24875   6.102   9.493   6.660 -1.0538  0.5673  0.1326
  189MOL0     C24876   6.222   9.576   6.623  0.5873  0.0374 -0.5419
  189MOL0     C24877   6.297   9.521   6.504 -0.7974 -0.5596  0.6639
  189MOL0     C24878   6.395   9.406   6.529 -0.1613 -0.2023  0.3138
  189MOL0     C24879   6.456   9.351   6.399 -0.8044  0.0732 -0.3311
  189MOL0     C24880   6.492   9.328   6.288  0.5626 -0.0960 -0.0611
  189MOL0     C24881   5.845   9.557   6.914 -0.0151  0.9136 -0.3243
  189MOL0     C24882   5.746   9.490   6.996  0.4750 -0.6658  0.1501
  189MOL0     H24883   5.374   9.155   7.049 -0.5864  1.8925 -1.5168
  189MOL0     H24884   5.173   9.086   7.172  0.2321 -0.1620 -1.9492
  189MOL0     H24885   4.973   9.191   7.485  1.4042 -1.6201 -1.5627
  189MOL0     H24886   5.112   9.296   7.513  1.3677  0.1302  1.5104
  189MOL0     H24887   5.173   9.201   7.707  0.8392 -0.1816 -2.2199
  189MOL0     H24888   5.051   9.069   7.688  1.0775 -1.4524 -1.9133
  189MOL0     H24889   4.876   9.235   7.701  0.7332  2.2032 -2.5194
  189MOL0     H24890   4.991   9.363   7.717  2.0843 -0.7802  1.5167
  189MOL0     H24891   4.990   9.127   7.923  0.0223  0.0472  0.9051
  189MOL0     H24892   5.060   9.291   7.929  0.8070  0.1438 -1.8341
  189MOL0     H24893   4.822   9.383   7.937 -0.5629  0.2238  2.7879
  189MOL0     H24894   4.874   9.286   8.077 -0.3644  0.0200  0.8564
  189MOL0     H24895   4.748   9.107   8.022 -3.7293  0.3754  1.1519
  189MOL0     H24896   4.695   9.157   7.865 -3.3200 -3.4411  1.9589
  189MOL0     H24897   4.644   9.296   8.136  1.2300 -1.5171 -0.4329
  189MOL0     H24898   4.596   9.351   7.962 -1.7193 -0.3806  0.7223
  189MOL0     H24899   4.511   9.127   8.150  0.1179 -1.2408  0.1795
  189MOL0     H24900   4.490   9.090   7.991 -1.0738  0.7125 -0.7957
  189MOL0     H24901   4.282   9.124   8.235  0.5568 -0.0278  0.4895
  189MOL0     H24902   4.007   9.364   8.257  0.7737  0.4075  0.0611
  189MOL0     H24903   4.038   9.211   8.301 -2.1874 -0.9351  0.3874
  189MOL0     H24904   3.969   9.145   8.052 -0.4706  1.3332 -2.5503
  189MOL0     H24905   3.913   9.313   8.033 -0.1688  0.7102  0.5482
  189MOL0     H24906   3.713   9.168   8.094 -0.0079 -1.2584 -0.1328
  189MOL0     H24907   3.789   9.116   8.239 -1.0547 -0.0146  1.2271
  189MOL0     H24908   3.786   9.366   8.300 -4.0820  0.1318  2.8729
  189MOL0     H24909   3.646   9.270   8.292 -0.8014 -1.1519 -1.2980
  189MOL0     H24910   3.568   9.586   7.945 -1.4736 -0.3310 -2.1796
  189MOL0     H24911   3.342   9.632   7.915 -0.8256 -1.4956 -1.8161
  189MOL0     H24912   2.853   9.603   8.131  0.5459  0.6953 -4.4802
  189MOL0     H24913   2.628   9.574   8.148  1.4809  1.4006  1.5914
  189MOL0     H24914   2.403   9.528   8.105  3.2117 -0.0350 -2.1885
  189MOL0     H24915   2.402   9.404   8.238  0.1269 -0.4271 -0.9326
  189MOL0     H24916   2.223   9.290   8.109  0.9898 -0.4391  0.1720
  189MOL0     H24917   2.235   9.420   7.994 -2.2183 -2.4305 -0.9299
  189MOL0     H24918   2.178   9.586   8.160  1.1963 -0.0417  3.1909
  189MOL0     H24919   2.184   9.463   8.285  1.6586 -2.2901 -1.4105
  189MOL0     H24920   1.986   9.482   8.047  0.3234 -2.5925 -0.3461
  189MOL0     H24921   1.993   9.342   8.153 -2.1485 -0.3740 -1.4098
  189MOL0     H24922   1.938   9.639   8.213 -1.5236  0.6494 -0.6763
  189MOL0     H24923   1.956   9.514   8.345  1.4129 -0.5122 -0.4920
  189MOL0     H24924   1.776   9.390   8.267  0.5669 -0.1440  0.9752
  189MOL0     H24925   1.766   9.489   8.110 -1.0851  1.6262  0.3347
  189MOL0     H24926   1.735   9.593   8.403  4.6137  0.7452 -1.0802
  189MOL0     H24927   1.709   9.690   8.257 -0.7144 -0.0694 -0.6814
  189MOL0     H24928   1.574   9.430   8.256  2.5493  0.3659  0.8000
  189MOL0     H24929   1.502   9.585   8.207 -2.2869  0.8974  1.8907
  189MOL0     H24930   2.670   9.175   7.989 -1.2435  1.0860 -1.3695
  189MOL0     H24931   2.907   9.182   8.015  0.9489  1.2781 -0.8260
  189MOL0     H24932   3.243   9.386   8.250  1.4471  1.2788  1.9116
  189MOL0     H24933   3.461   9.346   8.295 -0.0501 -1.0999 -0.5366
  189MOL0     H24934   5.332   9.254   7.529  1.9642  0.6186  0.4851
  189MOL0     H24935   5.525   9.340   7.400  0.3792 -0.0130 -0.7915
  189MOL0     H24936   5.806   9.172   6.886 -3.0952  0.2261 -1.7267
  189MOL0     H24937   5.965   9.284   6.753  1.0888  1.2114 -0.0719
  189MOL0     H24938   6.035   9.490   6.573  0.7723  0.4743 -1.3441
  189MOL0     H24939   6.142   9.393   6.678  2.2613  0.7340 -4.5506
  189MOL0     H24940   6.190   9.681   6.619 -1.8103 -0.5653  0.9017
  189MOL0     H24941   6.287   9.571   6.711 -3.3018  0.3382  2.6309
  189MOL0     H24942   6.361   9.603   6.472  0.7045 -1.5872  0.8933
  189MOL0     H24943   6.233   9.496   6.420  1.1613 -1.5260 -0.6306
  189MOL0     H24944   6.474   9.459   6.583  0.2284  0.3425 -0.7765
  189MOL0     H24945   6.352   9.327   6.591  0.3668 -0.8139 -0.0885
  189MOL0     H24946   6.517   9.299   6.188  1.2510 -0.2827  0.1570
  189MOL0     H24947   5.864   9.662   6.934  1.2052  0.3462  1.7458
  189MOL0     H24948   5.682   9.548   7.061 -1.2834 -1.0751 -1.1310
  190MOL0     O24949   5.334   7.383   5.998  0.1607 -0.1848  0.2830
  190MOL0     C24950   5.320   7.485   6.063  0.3702 -0.3882  0.5498
  190MOL0     O24951   5.199   7.547   6.081  0.2563  0.4787  0.2672
  190MOL0     C24952   5.089   7.487   6.029 -0.3093  0.4718  0.2902
  190MOL0     C24953   5.034   7.383   6.108 -0.5082  1.3723 -0.2235
  190MOL0     C24954   4.911   7.317   6.063  0.4665 -0.0560 -0.7691
  190MOL0     C24955   4.852   7.364   5.938 -0.0897  0.4112 -0.1114
  190MOL0     O24956   4.734   7.301   5.899 -0.6733  0.2473 -0.4980
  190MOL0     C24957   4.694   7.312   5.764 -0.7875 -0.3378  0.0237
  190MOL0     C24958   4.589   7.203   5.733 -0.5396 -0.4455 -1.0566
  190MOL0     C24959   4.457   7.234   5.802  0.9620  0.7010 -0.0924
  190MOL0     C24960   4.367   7.111   5.788 -1.1197 -0.8030  0.3076
  190MOL0     C24961   4.301   7.107   5.655 -0.2632  1.2801  0.4183
  190MOL0     C24962   4.178   7.191   5.669 -0.3336 -0.2012  0.5684
  190MOL0     C24963   4.093   7.207   5.545  0.2600 -0.6292  0.1919
  190MOL0     C24964   3.967   7.301   5.577  0.0507  0.7705  0.0800
  190MOL0     N24965   3.894   7.341   5.461  0.2152  0.2374 -0.0220
  190MOL0     C24966   3.942   7.364   5.343 -0.3746 -0.3905  0.2916
  190MOL0     C24967   3.841   7.370   5.251  0.1564 -0.4964 -0.1340
  190MOL0     C24968   3.860   7.398   5.102  0.3047 -0.0457  0.3575
  190MOL0     C24969   3.971   7.315   5.044 -0.0343 -0.4244  0.7459
  190MOL0     C24970   3.963   7.171   5.070  0.1324 -0.0825 -0.0844
  190MOL0     C24971   3.826   7.107   5.049  1.3001 -0.8226  0.5624
  190MOL0     O24972   3.759   7.155   4.932  1.0276 -0.2687  0.5053
  190MOL0     C24973   3.623   7.149   4.933  0.3934 -0.6009  0.1836
  190MOL0     C24974   3.544   7.052   4.992 -0.2181 -0.3782 -0.6361
  190MOL0     C24975   3.407   7.071   5.011 -0.3636 -0.1085  0.6017
  190MOL0     C24976   3.343   7.181   4.974 -0.1652 -0.9193  0.3076
  190MOL0     C24977   3.206   7.186   4.995  0.4649 -0.7957  0.2151
  190MOL0     O24978   3.140   7.244   4.890  0.0201  0.3592 -0.1677
  190MOL0     C24979   3.005   7.254   4.886  0.2952 -0.2055  0.4048
  190MOL0     C24980   2.952   7.371   4.819  0.1813 -0.5764  1.1312
  190MOL0     C24981   2.816   7.389   4.811  0.8808 -0.1242  0.3146
  190MOL0     C24982   2.730   7.295   4.873  1.2437  0.1260 -0.7965
  190MOL0     O24983   2.597   7.326   4.872 -0.3213  0.0619 -0.1455
  190MOL0     C24984   2.499   7.257   4.957 -0.5311  0.0322 -0.2181
  190MOL0     C24985   2.372   7.341   4.943 -0.4026  0.2713  1.5415
  190MOL0     C24986   2.319   7.382   4.805 -0.1832  0.2204  0.5633
  190MOL0     C24987   2.185   7.445   4.822  0.4044 -0.2444 -0.6728
  190MOL0     C24988   2.114   7.446   4.692 -0.1041 -0.5443 -0.1704
  190MOL0     C24989   1.963   7.468   4.703 -0.1845 -0.0851  0.0120
  190MOL0     C24990   1.942   7.614   4.733 -0.3652 -0.1982 -0.2426
  190MOL0     C24991   1.794   7.638   4.770 -0.1210  0.0477 -0.2239
  190MOL0    Cl24992   1.699   7.643   4.621  0.2077 -0.3972  0.1946
  190MOL0     C24993   2.780   7.182   4.931 -0.2542  0.1610 -0.4348
  190MOL0     C24994   2.919   7.163   4.937 -0.0758  0.3696  0.8976
  190MOL0     O24995   3.152   7.125   5.092  0.3253 -0.0927  0.5044
  190MOL0     C24996   3.422   7.271   4.900  0.2046  0.3021  0.1651
  190MOL0     C24997   3.552   7.248   4.876 -0.5212  0.2130 -0.3965
  190MOL0     N24998   3.727   7.348   5.327  0.3736 -1.4002 -0.7264
  190MOL0     N24999   3.760   7.333   5.450 -0.9569 -0.6549 -0.6738
  190MOL0     C25000   4.912   7.469   5.868  0.4933  0.6218 -0.0584
  190MOL0     C25001   5.031   7.531   5.904 -0.2696  0.8712  0.6262
  190MOL0     C25002   5.434   7.541   6.120  0.6278 -0.2054 -0.5105
  190MOL0     C25003   5.558   7.534   6.065 -0.1539 -0.4215  0.5612
  190MOL0     C25004   5.669   7.599   6.125  0.7046 -0.5408 -0.1248
  190MOL0     C25005   5.658   7.670   6.245 -1.1249 -0.3828 -0.2896
  190MOL0     O25006   5.772   7.740   6.290  0.4319  0.2396  0.4359
  190MOL0     C25007   5.768   7.785   6.425 -1.0625 -0.4139 -0.2110
  190MOL0     C25008   5.883   7.877   6.449 -0.6260 -0.0168  0.7223
  190MOL0     C25009   6.013   7.799   6.450 -0.3146 -0.5750 -1.2036
  190MOL0     C25010   6.116   7.874   6.534  0.2883 -0.9959  0.2197
  190MOL0     C25011   6.240   7.801   6.565  0.4979  0.9047  1.1726
  190MOL0     C25012   6.330   7.719   6.575 -1.0990 -0.0379  1.2538
  190MOL0     C25013   5.533   7.673   6.304 -0.0136  0.7400  0.2225
  190MOL0     C25014   5.429   7.605   6.242  0.4146 -0.2180  0.6761
  190MOL0     H25015   5.089   7.348   6.195 -1.1269 -0.8118 -0.6523
  190MOL0     H25016   4.875   7.230   6.117 -0.4705  0.1505 -1.0314
  190MOL0     H25017   4.785   7.292   5.708 -1.3105 -0.9158 -0.6462
  190MOL0     H25018   4.656   7.413   5.744 -0.7577 -0.6479 -1.7363
  190MOL0     H25019   4.626   7.104   5.762  1.7083  0.8554  0.9024
  190MOL0     H25020   4.589   7.207   5.623  3.1000  0.1864 -1.1806
  190MOL0     H25021   4.420   7.333   5.775 -0.1153  0.4226  0.3059
  190MOL0     H25022   4.467   7.233   5.911  0.9631  0.8487 -0.0907
  190MOL0     H25023   4.433   7.024   5.784  0.3066  0.2786 -0.6850
  190MOL0     H25024   4.300   7.109   5.874 -0.5085  0.7529  0.8466
  190MOL0     H25025   4.281   7.003   5.628 -2.8183  1.4020  1.5087
  190MOL0     H25026   4.368   7.150   5.580 -0.3544  0.6359 -0.0387
  190MOL0     H25027   4.218   7.288   5.700  0.1637 -0.1962 -0.0593
  190MOL0     H25028   4.108   7.155   5.745  1.4013 -0.7595  1.9955
  190MOL0     H25029   4.151   7.265   5.472 -0.9730 -1.9825 -1.9432
  190MOL0     H25030   4.058   7.110   5.509 -0.8153  0.4364 -1.8150
  190MOL0     H25031   3.995   7.399   5.617 -3.1288  1.5855  0.6367
  190MOL0     H25032   3.904   7.260   5.656 -0.1509 -0.2134 -0.5775
  190MOL0     H25033   4.048   7.378   5.325 -0.7180  1.2652 -0.6226
  190MOL0     H25034   3.879   7.503   5.078  1.9697 -0.9002 -2.4213
  190MOL0     H25035   3.765   7.372   5.053  0.8235  0.2934 -0.8476
  190MOL0     H25036   4.068   7.358   5.070 -1.0012  1.8592  0.7923
  190MOL0     H25037   3.954   7.332   4.937  3.3451  0.0158  0.1758
  190MOL0     H25038   4.028   7.125   4.995  1.0120  1.8161 -0.5377
  190MOL0     H25039   3.999   7.148   5.171  1.2152  0.5148 -0.3203
  190MOL0     H25040   3.765   7.117   5.139 -0.2713 -0.7213 -0.4933
  190MOL0     H25041   3.830   6.998   5.044  0.8672 -0.9190  1.8651
  190MOL0     H25042   3.587   6.966   5.042 -0.0047 -0.1666 -0.4564
  190MOL0     H25043   3.350   7.000   5.071  1.8368 -1.3504  1.3188
  190MOL0     H25044   3.013   7.446   4.769 -1.5020 -1.1446 -2.0539
  190MOL0     H25045   2.767   7.462   4.748  1.2983 -0.8923 -0.9413
  190MOL0     H25046   2.530   7.241   5.061 -0.2305 -2.8610 -0.6739
  190MOL0     H25047   2.485   7.162   4.905  1.3706  1.2620 -3.2953
  190MOL0     H25048   2.383   7.438   4.992 -2.9830  0.5913  1.6411
  190MOL0     H25049   2.294   7.281   4.991  1.8733 -3.3773  1.1210
  190MOL0     H25050   2.310   7.284   4.756  1.5933  0.6204 -0.6849
  190MOL0     H25051   2.398   7.445   4.764  0.1308 -0.4324  0.1383
  190MOL0     H25052   2.139   7.393   4.907 -0.3211  1.5562  0.0809
  190MOL0     H25053   2.188   7.548   4.859  3.6163 -0.2363 -0.7276
  190MOL0     H25054   2.128   7.355   4.632 -1.0525 -3.1414  3.1865
  190MOL0     H25055   2.160   7.531   4.641  1.5892 -1.2312  0.1366
  190MOL0     H25056   1.920   7.407   4.783  1.4605 -0.1462  0.8889
  190MOL0     H25057   1.913   7.443   4.609 -0.0404 -1.9438  0.3951
  190MOL0     H25058   2.006   7.646   4.817  4.9270 -2.9282 -2.7287
  190MOL0     H25059   1.978   7.677   4.651 -0.9343  0.1050 -0.2638
  190MOL0     H25060   1.779   7.731   4.824 -1.8929  0.2185 -0.9302
  190MOL0     H25061   1.761   7.558   4.837  1.7259 -1.3748 -0.9305
  190MOL0     H25062   2.709   7.111   4.972 -1.9895  2.1302  0.1382
  190MOL0     H25063   2.956   7.078   4.992  2.4376 -0.9361 -2.5180
  190MOL0     H25064   3.373   7.359   4.859 -1.8717 -0.5905  0.6040
  190MOL0     H25065   3.609   7.322   4.820 -2.2513  2.3827  0.5718
  190MOL0     H25066   4.865   7.499   5.775  0.5859 -2.0846 -1.0716
  190MOL0     H25067   5.086   7.608   5.851 -0.1652  2.1853  2.5056
  190MOL0     H25068   5.569   7.480   5.971 -1.5095 -0.2565  0.2857
  190MOL0     H25069   5.762   7.599   6.068  0.7131 -0.0631 -0.1081
  190MOL0     H25070   5.761   7.699   6.493 -2.0228 -0.5555 -0.4690
  190MOL0     H25071   5.684   7.851   6.450  0.0738  1.1767 -0.4422
  190MOL0     H25072   5.882   7.951   6.368 -0.1894  1.1066  1.7087
  190MOL0     H25073   5.868   7.934   6.542 -1.1859 -0.9848  1.2405
  190MOL0     H25074   6.055   7.801   6.348 -0.2128  2.8077 -1.2013
  190MOL0     H25075   6.003   7.699   6.494  1.6785  0.0394  0.8641
  190MOL0     H25076   6.147   7.959   6.471 -1.0957  0.2501  1.1432
  190MOL0     H25077   6.078   7.917   6.627  0.9532  1.2368 -0.4530
  190MOL0     H25078   6.397   7.636   6.570 -0.0903  0.7178  1.8902
  190MOL0     H25079   5.513   7.727   6.396  1.6451 -3.0431  3.0835
  190MOL0     H25080   5.332   7.593   6.289 -0.2221 -2.3692 -1.0401
  191MOL0     O25081   1.068  10.153  11.041 -0.6071  0.5136 -0.7750
  191MOL0     C25082   1.013  10.174  10.935  0.5169  0.3217  0.3885
  191MOL0     O25083   0.892  10.238  10.919 -0.3260  0.4806 -0.6634
  191MOL0     C25084   0.824  10.286  11.032  0.4026 -0.5883  0.8698
  191MOL0     C25085   0.687  10.247  11.052 -0.3519 -0.7061 -0.7039
  191MOL0     C25086   0.620  10.284  11.179  0.0728 -0.3070  0.3389
  191MOL0     C25087   0.691  10.354  11.271  0.1241  0.0211 -0.8101
  191MOL0     O25088   0.654  10.398  11.397  0.0692  0.4444 -0.2410
  191MOL0     C25089   0.517  10.373  11.439  0.7989 -0.8272 -0.8949
  191MOL0     C25090   0.472  10.480  11.541  0.0863  0.6121  0.1743
  191MOL0     C25091   0.521  10.449  11.682 -0.3644  0.3661  0.5014
  191MOL0     C25092   0.646  10.528  11.711 -0.0354  0.1777  0.0544
  191MOL0     C25093   0.632  10.679  11.731  0.8802 -0.1905  0.6334
  191MOL0     C25094   0.600  10.711  11.874 -0.5625  0.3765 -0.3929
  191MOL0     C25095   0.551  10.854  11.904  0.0500 -0.6189 -0.2311
  191MOL0     C25096   0.409  10.873  11.879  0.6236  0.3707  0.1710
  191MOL0     N25097   0.388  11.016  11.867  0.9999 -0.6949  0.1039
  191MOL0     C25098   0.395  11.109  11.969  0.1821  0.7649  0.0428
  191MOL0     C25099   0.387  11.221  11.908  0.0334 -1.6070  0.7551
  191MOL0     C25100   0.399  11.363  11.972 -0.1266 -0.3452  0.7853
  191MOL0     C25101   0.260  11.441  11.963  0.4749 -0.2937 -0.9919
  191MOL0     C25102   0.147  11.373  12.043 -0.7705  0.6225  0.1119
  191MOL0     C25103   0.010  11.430  12.014  0.1379 -0.4451  0.1423
  191MOL0     O25104  -0.069  11.405  12.129 -0.1459  0.0578 -0.2476
  191MOL0     C25105  -0.192  11.468  12.140  0.0666  0.2712 -0.2537
  191MOL0     C25106  -0.266  11.457  12.256 -0.5055  1.0717 -0.0343
  191MOL0     C25107  -0.392  11.506  12.270  1.4184  0.7743  0.9141
  191MOL0     C25108  -0.466  11.559  12.161 -0.0389  0.2356 -0.7272
  191MOL0     C25109  -0.607  11.598  12.175  0.0115  0.3356  0.7232
  191MOL0     O25110  -0.680  11.536  12.283  0.0729 -0.1518  0.7195
  191MOL0     C25111  -0.802  11.587  12.326  0.0013 -0.4002 -0.7138
  191MOL0     C25112  -0.838  11.519  12.442 -0.3357  0.2832 -0.1659
  191MOL0     C25113  -0.971  11.511  12.484 -0.9952  0.0307 -0.6575
  191MOL0     C25114  -1.069  11.599  12.436  0.3853 -0.6642  0.3862
  191MOL0     O25115  -1.201  11.609  12.465  0.1048 -0.2192 -0.1542
  191MOL0     C25116  -1.260  11.554  12.588 -0.7633  0.0726 -0.7098
  191MOL0     C25117  -1.358  11.647  12.653  0.7237 -0.7452 -0.7921
  191MOL0     C25118  -1.478  11.666  12.554  0.3002 -0.8746  0.3318
  191MOL0     C25119  -1.580  11.772  12.620  0.0888  0.8290  0.0198
  191MOL0     C25120  -1.722  11.748  12.576 -0.0401  0.6477 -0.5987
  191MOL0     C25121  -1.813  11.821  12.680 -0.2817 -1.0892  0.9172
  191MOL0     C25122  -1.964  11.790  12.674 -0.5336 -0.7168  0.2630
  191MOL0     C25123  -2.043  11.853  12.789  1.0838 -1.0283  0.5504
  191MOL0    Cl25124  -2.208  11.803  12.787  0.5657 -0.1351  0.3451
  191MOL0     C25125  -1.032  11.678  12.317 -0.0148 -1.4401 -0.5857
  191MOL0     C25126  -0.898  11.671  12.265 -0.2387 -0.1636  0.7635
  191MOL0     O25127  -0.651  11.679  12.087  0.5292  0.8463 -0.0568
  191MOL0     C25128  -0.393  11.572  12.041  0.7615  0.6550 -0.5099
  191MOL0     C25129  -0.264  11.524  12.031 -0.5739  0.0175  0.1714
  191MOL0     N25130   0.365  11.210  11.772  0.2339 -1.1836 -0.2693
  191MOL0     N25131   0.357  11.086  11.756 -0.0631  1.2337  0.0617
  191MOL0     C25132   0.813  10.407  11.242 -0.8025  0.2071  0.8245
  191MOL0     C25133   0.884  10.374  11.128 -0.0741 -1.2552  0.8264
  191MOL0     C25134   1.084  10.121  10.818 -0.1479 -1.2226 -1.2429
  191MOL0     C25135   1.009  10.119  10.700  0.7846 -0.3168  0.0257
  191MOL0     C25136   1.063  10.086  10.579  0.1407 -0.4240 -0.2295
  191MOL0     C25137   1.191  10.040  10.577 -0.5629 -0.1787  0.8346
  191MOL0     O25138   1.243  10.013  10.452  0.0976 -0.4695  0.3686
  191MOL0     C25139   1.370   9.931  10.439  0.2556  0.0528 -1.4537
  191MOL0     C25140   1.488  10.015  10.449 -1.0256 -0.2083  0.0419
  191MOL0     C25141   1.620   9.934  10.425  0.9579 -1.0946 -0.1009
  191MOL0     C25142   1.689   9.972  10.298 -0.1558 -0.1809 -0.5090
  191MOL0     C25143   1.616   9.954  10.169 -0.0172  1.1799  0.2121
  191MOL0     C25144   1.554   9.950  10.064  0.1500  0.1072 -0.9439
  191MOL0     C25145   1.268  10.025  10.690  0.8276 -0.6180  0.6998
  191MOL0     C25146   1.219  10.074  10.813 -0.4661  0.2499  0.7657
  191MOL0     H25147   0.643  10.176  10.983 -0.1762 -1.2084 -0.3074
  191MOL0     H25148   0.519  10.244  11.184  0.3903 -1.2597 -0.4879
  191MOL0     H25149   0.504  10.274  11.484  1.6504 -0.2268  0.7567
  191MOL0     H25150   0.454  10.386  11.351 -4.5224 -1.5494  2.3622
  191MOL0     H25151   0.364  10.467  11.533  0.2358  0.2286 -1.4550
  191MOL0     H25152   0.496  10.581  11.506  0.7112 -0.1036 -1.5982
  191MOL0     H25153   0.557  10.347  11.692 -2.5012 -0.3715  1.1096
  191MOL0     H25154   0.440  10.469  11.753  0.1421  1.5728  0.7595
  191MOL0     H25155   0.696  10.485  11.799 -1.3943 -1.5740  0.0284
  191MOL0     H25156   0.714  10.511  11.627 -0.8405  1.4849 -0.8986
  191MOL0     H25157   0.541  10.714  11.681  0.1007 -0.9721  1.4507
  191MOL0     H25158   0.720  10.723  11.685  0.3293 -0.6186 -0.8950
  191MOL0     H25159   0.693  10.693  11.927 -1.1606 -0.0168  0.5351
  191MOL0     H25160   0.520  10.645  11.909 -1.0270  0.3057 -1.5346
  191MOL0     H25161   0.569  10.866  12.011  1.6338 -0.5319 -0.4889
  191MOL0     H25162   0.608  10.924  11.843  2.0531 -1.1411  0.9725
  191MOL0     H25163   0.350  10.846  11.967  1.0470  3.5603  1.5309
  191MOL0     H25164   0.365  10.817  11.796 -2.4023  2.0422  0.5077
  191MOL0     H25165   0.420  11.102  12.075  0.7443  2.2296  0.0368
  191MOL0     H25166   0.475  11.430  11.932 -1.4741  0.4320 -0.5820
  191MOL0     H25167   0.424  11.342  12.077  0.9133  2.3996  1.1633
  191MOL0     H25168   0.232  11.456  11.858 -0.2386  1.6093 -0.5728
  191MOL0     H25169   0.276  11.538  12.010  2.1139 -1.3453  0.7606
  191MOL0     H25170   0.155  11.267  12.019 -0.2444  0.5133  0.7223
  191MOL0     H25171   0.168  11.385  12.150 -0.1458  3.5217 -0.2504
  191MOL0     H25172  -0.027  11.390  11.919  2.0917 -2.6160  0.2000
  191MOL0     H25173   0.020  11.537  11.992  1.9480 -0.3760  1.1429
  191MOL0     H25174  -0.229  11.407  12.345  1.3751  0.7950 -0.9182
  191MOL0     H25175  -0.447  11.503  12.364  0.4035 -1.0678  0.3117
  191MOL0     H25176  -0.772  11.440  12.475 -1.1538 -0.3667 -0.0392
  191MOL0     H25177  -0.986  11.447  12.570  1.5416 -1.4393 -1.1902
  191MOL0     H25178  -1.181  11.528  12.659 -1.1834  0.6375 -0.0284
  191MOL0     H25179  -1.315  11.464  12.560 -1.4177 -0.5909  2.3408
  191MOL0     H25180  -1.313  11.744  12.677  0.3441 -1.1662  1.9303
  191MOL0     H25181  -1.402  11.618  12.749 -0.5755  0.3644 -1.0232
  191MOL0     H25182  -1.519  11.566  12.572  1.5336 -0.9746  3.2178
  191MOL0     H25183  -1.456  11.698  12.452  2.9412  1.5511  1.5330
  191MOL0     H25184  -1.560  11.768  12.727  0.7245  2.5401 -0.0041
  191MOL0     H25185  -1.558  11.874  12.586 -4.9318  2.4124  0.7546
  191MOL0     H25186  -1.752  11.643  12.576 -3.9669  1.5223  2.8958
  191MOL0     H25187  -1.739  11.775  12.472 -1.7532  1.2229 -0.2015
  191MOL0     H25188  -1.795  11.928  12.664  0.6733 -1.0200  2.2790
  191MOL0     H25189  -1.769  11.801  12.778  2.8333  0.7165  0.0363
  191MOL0     H25190  -1.994  11.827  12.576  0.3664 -0.8529 -0.0745
  191MOL0     H25191  -1.967  11.681  12.683  4.1578 -0.9157  2.7615
  191MOL0     H25192  -2.037  11.962  12.784  0.7745 -0.8046  3.2709
  191MOL0     H25193  -1.993  11.837  12.886  1.3565  1.9273  0.9783
  191MOL0     H25194  -1.100  11.754  12.279  1.2234  0.3840  0.6936
  191MOL0     H25195  -0.882  11.730  12.176 -2.0945 -2.0719 -0.9463
  191MOL0     H25196  -0.437  11.633  11.962 -3.0699  0.2682  1.0833
  191MOL0     H25197  -0.208  11.537  11.939 -0.9725 -0.6575 -0.1762
  191MOL0     H25198   0.865  10.450  11.327  1.6244  0.1020 -0.4951
  191MOL0     H25199   0.979  10.423  11.111  0.0240 -1.2016  1.5033
  191MOL0     H25200   0.906  10.150  10.710  1.0746  2.6286 -3.7407
  191MOL0     H25201   1.008  10.105  10.487 -0.7361  1.8990  0.6958
  191MOL0     H25202   1.384   9.881  10.343  0.9016  0.6207 -1.6608
  191MOL0     H25203   1.365   9.851  10.513  1.1609 -0.0311 -1.4740
  191MOL0     H25204   1.479  10.095  10.375 -0.1713  2.1811  2.3482
  191MOL0     H25205   1.498  10.061  10.548  0.1981 -2.3242  0.9569
  191MOL0     H25206   1.599   9.827  10.433 -0.2509 -0.9875 -1.3277
  191MOL0     H25207   1.695   9.946  10.503  1.8590 -0.4145 -1.0446
  191MOL0     H25208   1.716  10.077  10.318  2.8369 -1.2990  2.1826
  191MOL0     H25209   1.784   9.920  10.288 -2.4556 -5.0314 -0.1457
  191MOL0     H25210   1.472   9.954   9.996 -1.6573  0.7122  1.1490
  191MOL0     H25211   1.367   9.981  10.689  0.2450 -1.9807  0.4923
  191MOL0     H25212   1.277  10.071  10.904 -0.0475  2.5687  0.6329
  192MOL0     O25213   2.687   0.369   3.307 -0.1207  1.0002 -0.1335
  192MOL0     C25214   2.673   0.486   3.329 -0.1176 -0.4366  0.2679
  192MOL0     O25215   2.551   0.554   3.314 -0.2816  0.5172  0.2079
  192MOL0     C25216   2.440   0.484   3.265 -0.3000  0.0685 -0.2483
  192MOL0     C25217   2.344   0.436   3.356 -0.3127 -0.1753 -0.0774
  192MOL0     C25218   2.232   0.359   3.313  0.7528  0.7414  0.3882
  192MOL0     C25219   2.200   0.362   3.177  0.5445  0.0382  0.2434
  192MOL0     O25220   2.085   0.290   3.136  0.3311  0.2418  0.0025
  192MOL0     C25221   1.967   0.280   3.219 -0.7703 -0.1826  0.4559
  192MOL0     C25222   1.941   0.138   3.262 -0.2684  0.7181  0.1960
  192MOL0     C25223   1.795   0.124   3.311  0.0288  0.8957  0.8872
  192MOL0     C25224   1.690   0.152   3.208 -0.0921 -0.1177 -0.8194
  192MOL0     C25225   1.555   0.094   3.265 -0.1573 -0.1578 -0.0019
  192MOL0     C25226   1.436   0.120   3.169 -1.4494 -0.2914 -0.3207
  192MOL0     C25227   1.385   0.262   3.180  0.4051 -0.8778  0.4784
  192MOL0     C25228   1.235   0.269   3.138 -1.3089 -0.1854 -0.1750
  192MOL0     N25229   1.146   0.186   3.221 -0.3171  0.5274 -0.4626
  192MOL0     C25230   1.018   0.137   3.190  0.3986 -1.1412 -0.3748
  192MOL0     C25231   0.974   0.069   3.300 -0.1981 -0.1318  0.2252
  192MOL0     C25232   0.848  -0.013   3.319  0.7916  0.0885  0.0374
  192MOL0     C25233   0.728   0.081   3.360 -0.9424  0.1800  0.9167
  192MOL0     C25234   0.733   0.116   3.504 -0.1294 -0.1337 -0.7615
  192MOL0     C25235   0.597   0.139   3.570 -0.8326 -0.2981  0.8747
  192MOL0     O25236   0.614   0.172   3.709 -0.4856  0.3707 -0.4282
  192MOL0     C25237   0.500   0.203   3.780 -1.4241 -0.2210 -0.6040
  192MOL0     C25238   0.500   0.256   3.908 -0.4702 -0.2329  0.5427
  192MOL0     C25239   0.388   0.310   3.969  0.5580 -0.8778 -0.3193
  192MOL0     C25240   0.261   0.301   3.906 -0.5168 -1.2942 -0.2161
  192MOL0     C25241   0.141   0.354   3.965  0.5394 -0.0275  0.9294
  192MOL0     O25242   0.151   0.444   4.056  0.1067 -0.3636  0.7053
  192MOL0     C25243   0.054   0.541   4.061  0.7970  0.7110  0.7832
  192MOL0     C25244  -0.062   0.521   4.146  0.1364 -0.5490 -0.8236
  192MOL0     C25245  -0.136   0.637   4.184  0.6604 -0.0772  0.1039
  192MOL0     C25246  -0.098   0.762   4.146 -0.1556 -0.1469 -0.0782
  192MOL0     O25247  -0.165   0.871   4.200  0.8254 -0.7267  0.2389
  192MOL0     C25248  -0.112   1.012   4.214 -0.3506 -0.2664  0.0534
  192MOL0     C25249  -0.180   1.089   4.107 -0.5096  1.3138 -0.3947
  192MOL0     C25250  -0.332   1.103   4.146 -0.0499 -0.1926  0.2623
  192MOL0     C25251  -0.419   1.181   4.044 -0.3354  1.1195  0.0578
  192MOL0     C25252  -0.566   1.200   4.071  1.1796  0.1709  0.0551
  192MOL0     C25253  -0.598   1.302   4.183 -0.6204 -0.0886 -0.0522
  192MOL0     C25254  -0.539   1.442   4.171  1.2650  0.1332 -0.1089
  192MOL0     C25255  -0.618   1.553   4.248 -0.0296  0.6184  0.7563
  192MOL0    Cl25256  -0.570   1.707   4.188 -0.3833 -0.2796  0.5339
  192MOL0     C25257   0.008   0.781   4.062  0.5163  0.2523  0.7406
  192MOL0     C25258   0.080   0.671   4.016  0.0955 -0.3838  0.3158
  192MOL0     O25259   0.032   0.319   3.920  0.4136  1.0113 -0.3879
  192MOL0     C25260   0.257   0.236   3.787 -0.5090 -0.4828 -0.2612
  192MOL0     C25261   0.377   0.192   3.725  0.1354  0.4144 -0.2321
  192MOL0     N25262   1.078   0.055   3.390 -0.2952  0.0950 -0.4570
  192MOL0     N25263   1.176   0.130   3.345 -0.4243  0.3872  0.4188
  192MOL0     C25264   2.292   0.419   3.085  0.0732 -0.2988  0.2760
  192MOL0     C25265   2.414   0.470   3.130  0.2906 -0.4243 -0.1952
  192MOL0     C25266   2.780   0.562   3.387 -0.3222 -0.2190  0.3557
  192MOL0     C25267   2.758   0.694   3.417 -0.7711 -0.8292  0.2815
  192MOL0     C25268   2.864   0.770   3.469  0.1958 -0.5685  0.2091
  192MOL0     C25269   2.988   0.712   3.506  0.8403 -0.1640  0.3465
  192MOL0     O25270   3.092   0.773   3.564  0.8948  0.0745 -1.0467
  192MOL0     C25271   3.078   0.898   3.636  0.1881  0.4547  0.1647
  192MOL0     C25272   3.201   0.907   3.721  0.2587 -0.3756 -0.3763
  192MOL0     C25273   3.333   0.927   3.637  0.0488 -0.3349 -0.1243
  192MOL0     C25274   3.454   0.885   3.714  0.8831  0.3224  0.2929
  192MOL0     C25275   3.569   0.877   3.626  0.4039 -0.2453 -0.3130
  192MOL0     C25276   3.657   0.867   3.545  0.2004 -0.9727 -0.4551
  192MOL0     C25277   3.014   0.576   3.466 -0.9187 -0.1335 -0.3024
  192MOL0     C25278   2.907   0.507   3.412  0.4316  0.7076 -0.0989
  192MOL0     H25279   2.362   0.440   3.463 -1.5319 -0.6387  0.1570
  192MOL0     H25280   2.176   0.309   3.391 -2.0020 -1.2449 -2.6209
  192MOL0     H25281   1.889   0.321   3.154 -1.4881 -0.2801  1.2374
  192MOL0     H25282   1.972   0.344   3.308  3.9065 -0.4965  0.7015
  192MOL0     H25283   2.006   0.108   3.344 -2.0390 -3.0080  0.4620
  192MOL0     H25284   1.969   0.069   3.182  3.1950  0.1771  1.6941
  192MOL0     H25285   1.781   0.191   3.397 -2.6579  2.9279 -0.9785
  192MOL0     H25286   1.782   0.018   3.333 -1.0643  0.9126  0.3687
  192MOL0     H25287   1.674   0.258   3.188 -2.4509  0.0555  1.4661
  192MOL0     H25288   1.702   0.090   3.118  1.0118 -1.9121  0.5004
  192MOL0     H25289   1.541   0.138   3.364  2.7836  2.9811 -0.7718
  192MOL0     H25290   1.566  -0.013   3.285 -1.5110  0.0177  1.9839
  192MOL0     H25291   1.362   0.040   3.180  0.8624 -2.7492 -1.4556
  192MOL0     H25292   1.468   0.102   3.066 -0.0724  1.8830 -0.3390
  192MOL0     H25293   1.383   0.298   3.283 -3.3093 -1.3118  0.7033
  192MOL0     H25294   1.451   0.330   3.125  0.1480  1.1864  2.5367
  192MOL0     H25295   1.247   0.243   3.033  2.2467 -2.5878  0.6426
  192MOL0     H25296   1.197   0.372   3.139 -1.8031 -0.3564  1.0602
  192MOL0     H25297   0.966   0.147   3.095  2.1850 -1.9422 -1.5044
  192MOL0     H25298   0.851  -0.096   3.389 -1.4652  0.5402  0.7507
  192MOL0     H25299   0.823  -0.056   3.221  0.5104  1.8188 -0.6919
  192MOL0     H25300   0.643   0.016   3.341 -1.3020  1.1576 -1.0867
  192MOL0     H25301   0.735   0.167   3.292  3.0971 -0.8674 -0.2895
  192MOL0     H25302   0.786   0.045   3.567  0.5418 -0.6122 -1.8261
  192MOL0     H25303   0.788   0.208   3.525 -0.7330 -0.1632  1.0734
  192MOL0     H25304   0.535   0.050   3.554  0.8874 -1.0641 -2.4379
  192MOL0     H25305   0.566   0.228   3.515  0.7987 -0.1596  0.1147
  192MOL0     H25306   0.598   0.261   3.954  0.2363 -0.7355 -0.8798
  192MOL0     H25307   0.393   0.369   4.060 -1.3850 -0.0223 -0.7024
  192MOL0     H25308  -0.085   0.421   4.181 -0.7146  0.2646  1.1328
  192MOL0     H25309  -0.223   0.614   4.244  0.3268 -2.1520 -1.0796
  192MOL0     H25310  -0.005   1.027   4.201 -0.3752 -0.7428 -0.7673
  192MOL0     H25311  -0.133   1.057   4.311 -4.1115  2.6898 -1.8507
  192MOL0     H25312  -0.158   1.054   4.006 -0.4912  3.6683 -1.2681
  192MOL0     H25313  -0.136   1.189   4.105  0.5601  0.8334 -1.2342
  192MOL0     H25314  -0.329   1.157   4.241 -0.6604  2.5060 -1.1576
  192MOL0     H25315  -0.370   1.000   4.154 -0.3116 -0.1851 -0.7859
  192MOL0     H25316  -0.377   1.281   4.033 -2.7125  1.9643 -2.7541
  192MOL0     H25317  -0.416   1.122   3.952  2.3386 -2.5567  2.1964
  192MOL0     H25318  -0.613   1.105   4.098 -0.5209  1.3032  1.2302
  192MOL0     H25319  -0.624   1.232   3.984  0.0258 -0.7101  0.4739
  192MOL0     H25320  -0.552   1.264   4.275 -3.3621  1.7285  2.2779
  192MOL0     H25321  -0.707   1.311   4.192 -0.5789  1.0427 -0.5046
  192MOL0     H25322  -0.436   1.440   4.207  0.4299 -1.2606  2.5005
  192MOL0     H25323  -0.539   1.466   4.064 -3.0767 -1.5014 -0.7069
  192MOL0     H25324  -0.598   1.548   4.356  0.7909 -0.2500  0.5794
  192MOL0     H25325  -0.726   1.543   4.233  0.5217 -2.1378 -2.8500
  192MOL0     H25326   0.010   0.885   4.032 -3.3744  0.6078  1.1994
  192MOL0     H25327   0.158   0.682   3.941 -0.7287  3.7736 -0.1725
  192MOL0     H25328   0.163   0.247   3.734 -0.9055  1.5411  0.7778
  192MOL0     H25329   0.354   0.155   3.626 -2.9561  0.3504  0.4186
  192MOL0     H25330   2.262   0.418   2.980 -0.5432  1.7766  0.3990
  192MOL0     H25331   2.483   0.506   3.055  0.6709 -2.1578 -0.7179
  192MOL0     H25332   2.668   0.748   3.389  0.0795 -0.0896 -1.2096
  192MOL0     H25333   2.854   0.876   3.491  1.3360 -0.2043 -0.9380
  192MOL0     H25334   2.986   0.895   3.695  1.1418 -2.7833  1.7293
  192MOL0     H25335   3.084   0.982   3.566  0.8511  0.6211  0.4159
  192MOL0     H25336   3.190   0.993   3.788 -0.8006 -0.7143 -0.0905
  192MOL0     H25337   3.216   0.822   3.789  1.8740 -0.7786 -1.1786
  192MOL0     H25338   3.336   1.034   3.617 -0.7695  0.0552  1.6950
  192MOL0     H25339   3.335   0.878   3.539  1.5726  0.5937 -0.5919
  192MOL0     H25340   3.471   0.962   3.790  0.7495  0.5135  0.1307
  192MOL0     H25341   3.439   0.785   3.756 -0.2799 -0.2831 -1.4658
  192MOL0     H25342   3.733   0.871   3.469 -0.7795  4.1707 -1.5519
  192MOL0     H25343   3.110   0.536   3.497 -0.8665  2.3085  3.3473
  192MOL0     H25344   2.918   0.399   3.399  1.7736  0.7928  0.1521
  193MOL0     O25345   6.088   5.468   7.547  1.1899 -0.3603  0.1058
  193MOL0     C25346   6.130   5.371   7.606 -0.4296  0.8636 -0.5884
  193MOL0     O25347   6.054   5.255   7.642  0.0781 -1.1698 -0.1264
  193MOL0     C25348   5.938   5.216   7.579  0.4483 -0.2400  0.1005
  193MOL0     C25349   5.866   5.120   7.636  0.1042 -0.5154 -0.0270
  193MOL0     C25350   5.739   5.090   7.582  0.8797  0.5279 -0.3764
  193MOL0     C25351   5.687   5.151   7.469 -0.3343  0.2730 -0.0096
  193MOL0     O25352   5.562   5.126   7.414 -0.0904  0.1982 -0.1792
  193MOL0     C25353   5.551   5.070   7.288  0.5530 -0.0981  0.3972
  193MOL0     C25354   5.443   4.959   7.302  0.6242  0.6246 -0.1207
  193MOL0     C25355   5.307   4.999   7.338  0.0792 -0.1773  0.1617
  193MOL0     C25356   5.200   4.890   7.372  0.5025 -0.7893  0.2643
  193MOL0     C25357   5.208   4.760   7.289  0.2128  0.8097  0.3794
  193MOL0     C25358   5.092   4.671   7.333 -0.2366  0.5931  0.0253
  193MOL0     C25359   5.108   4.535   7.274  0.6877 -1.1309  0.3294
  193MOL0     C25360   4.989   4.436   7.311  0.5037 -0.0545  0.2521
  193MOL0     N25361   4.858   4.500   7.342  0.3273  0.3005 -1.1732
  193MOL0     C25362   4.821   4.537   7.468  0.3084  0.3730 -0.2973
  193MOL0     C25363   4.707   4.607   7.446 -0.4524  0.2476 -0.0387
  193MOL0     C25364   4.621   4.674   7.549  0.5273  0.6357 -0.4199
  193MOL0     C25365   4.505   4.571   7.580  0.7118  0.2107  0.1508
  193MOL0     C25366   4.425   4.611   7.709  0.6556  0.3437 -0.0676
  193MOL0     C25367   4.354   4.747   7.721 -0.0854  0.4051  0.3088
  193MOL0     O25368   4.236   4.766   7.634 -0.2612 -0.1302  0.5685
  193MOL0     C25369   4.114   4.715   7.671 -0.3118 -0.7150 -0.1993
  193MOL0     C25370   4.100   4.643   7.790  0.9942  0.0271 -0.4692
  193MOL0     C25371   3.978   4.588   7.821 -0.1840 -0.3316  0.6212
  193MOL0     C25372   3.870   4.593   7.733 -0.1692  1.1636  0.0482
  193MOL0     C25373   3.742   4.535   7.788  0.0997 -0.1114  0.9267
  193MOL0     O25374   3.642   4.492   7.699  0.0268  0.2811  0.5719
  193MOL0     C25375   3.522   4.442   7.740 -0.1358  0.2521 -0.4892
  193MOL0     C25376   3.441   4.519   7.829  0.2364  0.3096  0.2574
  193MOL0     C25377   3.317   4.469   7.868  0.3317 -0.4945 -1.1754
  193MOL0     C25378   3.256   4.362   7.803 -0.9466  0.5786  0.4824
  193MOL0     O25379   3.121   4.334   7.843 -0.6587 -0.6127  0.7365
  193MOL0     C25380   3.053   4.222   7.783  0.1531 -0.5766  0.8150
  193MOL0     C25381   2.911   4.239   7.826 -0.2911  0.4475 -0.1908
  193MOL0     C25382   2.841   4.371   7.782 -0.5600  0.2350  0.2269
  193MOL0     C25383   2.696   4.357   7.833  0.0924  0.0058  1.1186
  193MOL0     C25384   2.634   4.487   7.787 -0.6025  0.0984  0.4595
  193MOL0     C25385   2.486   4.494   7.824  0.8706  0.3722 -0.7961
  193MOL0     C25386   2.420   4.625   7.768 -0.1468  0.2815 -0.7180
  193MOL0     C25387   2.279   4.651   7.836  0.4905  0.2511 -0.2673
  193MOL0    Cl25388   2.138   4.546   7.785 -0.4983 -0.0626  0.1487
  193MOL0     C25389   3.323   4.302   7.696  0.7120  0.7132  0.0587
  193MOL0     C25390   3.453   4.342   7.669 -0.6730 -0.3187 -0.0690
  193MOL0     O25391   3.732   4.524   7.907 -0.1663  1.2754 -0.1836
  193MOL0     C25392   3.892   4.646   7.602  0.1888  0.0819  0.1601
  193MOL0     C25393   4.010   4.714   7.577 -0.5427 -1.1857  0.7310
  193MOL0     N25394   4.683   4.610   7.311 -0.6046 -0.4774  0.7568
  193MOL0     N25395   4.774   4.556   7.253 -0.4860  0.6743  0.5714
  193MOL0     C25396   5.773   5.238   7.405  0.4024  0.2008  0.4746
  193MOL0     C25397   5.898   5.267   7.455  0.7202  0.0179 -0.4973
  193MOL0     C25398   6.275   5.368   7.646  0.7617 -0.7673 -0.2305
  193MOL0     C25399   6.353   5.472   7.605 -0.4331 -0.4047 -0.2448
  193MOL0     C25400   6.493   5.465   7.625 -0.1570  0.2289  0.1907
  193MOL0     C25401   6.548   5.365   7.710  0.5306 -0.3566  0.3467
  193MOL0     O25402   6.688   5.360   7.711  0.7521 -0.5285 -0.3972
  193MOL0     C25403   6.744   5.334   7.843  1.2411 -0.2197  0.5655
  193MOL0     C25404   6.878   5.405   7.868 -0.7543 -1.1370  0.0648
  193MOL0     C25405   6.857   5.558   7.886 -1.1110 -0.0411 -0.8885
  193MOL0     C25406   6.964   5.631   7.959  0.5266  0.5738 -0.8695
  193MOL0     C25407   6.916   5.762   8.004 -0.4762 -0.3136 -0.0555
  193MOL0     C25408   6.873   5.873   8.033 -0.8340  0.1384 -0.2462
  193MOL0     C25409   6.462   5.265   7.766  0.0112  0.2845  0.4616
  193MOL0     C25410   6.323   5.263   7.726  0.2264 -0.1861  0.0056
  193MOL0     H25411   5.894   5.069   7.729 -1.5337 -1.0004  0.2211
  193MOL0     H25412   5.675   5.021   7.637  0.7007 -0.1794 -1.4410
  193MOL0     H25413   5.646   5.019   7.271  0.3089 -0.0960 -1.1254
  193MOL0     H25414   5.530   5.142   7.208  0.4083 -2.3584 -1.7635
  193MOL0     H25415   5.485   4.890   7.376  0.3766 -0.3796 -0.8844
  193MOL0     H25416   5.440   4.895   7.213 -1.5663 -1.1849  1.1456
  193MOL0     H25417   5.272   5.059   7.254  3.9306  0.3419 -1.2814
  193MOL0     H25418   5.308   5.068   7.422  1.0582  1.1221 -0.8567
  193MOL0     H25419   5.220   4.862   7.476  0.0369  0.0701  0.6020
  193MOL0     H25420   5.094   4.916   7.361  0.1707 -2.3155 -0.3724
  193MOL0     H25421   5.306   4.714   7.306 -1.3342 -2.8382  0.2950
  193MOL0     H25422   5.193   4.780   7.183 -1.3002 -2.6055 -0.1761
  193MOL0     H25423   4.995   4.709   7.300 -0.0175 -1.4966 -3.4534
  193MOL0     H25424   5.081   4.654   7.440 -0.8961 -2.8578 -0.4865
  193MOL0     H25425   5.109   4.538   7.165  0.2807 -1.2094  0.3213
  193MOL0     H25426   5.204   4.497   7.309 -0.1416 -2.7608  0.9395
  193MOL0     H25427   5.022   4.390   7.405 -3.8293 -2.3753  0.9120
  193MOL0     H25428   4.976   4.373   7.223 -1.1428  0.9502 -0.2758
  193MOL0     H25429   4.867   4.521   7.565  0.9326 -0.7499 -0.7579
  193MOL0     H25430   4.592   4.773   7.511 -3.1684  0.6237  1.8737
  193MOL0     H25431   4.684   4.688   7.637 -1.6407 -1.2309  1.5587
  193MOL0     H25432   4.550   4.473   7.600  2.0776  1.3326  3.2373
  193MOL0     H25433   4.435   4.556   7.497  0.0025 -1.8425  1.0574
  193MOL0     H25434   4.357   4.527   7.725  0.4652  0.6285  0.6635
  193MOL0     H25435   4.491   4.608   7.796  2.4598  3.0235 -1.2093
  193MOL0     H25436   4.426   4.827   7.702  0.1947 -0.1710 -1.1857
  193MOL0     H25437   4.311   4.759   7.821 -3.8838 -0.3722 -1.0982
  193MOL0     H25438   4.169   4.632   7.873  0.7204  0.6968 -0.1444
  193MOL0     H25439   3.975   4.535   7.916 -1.9881  2.1257  2.0674
  193MOL0     H25440   3.499   4.597   7.877  1.3358 -0.7694  0.7349
  193MOL0     H25441   3.282   4.522   7.957  2.1587  0.0081 -0.7135
  193MOL0     H25442   3.105   4.131   7.812  2.0157 -0.0297 -0.6001
  193MOL0     H25443   3.047   4.235   7.674 -1.4556  0.4673  0.9955
  193MOL0     H25444   2.903   4.238   7.935  0.8569  2.3024 -0.0584
  193MOL0     H25445   2.868   4.143   7.795  1.6139 -0.6124  0.2715
  193MOL0     H25446   2.848   4.371   7.673  0.7816  0.0730  0.2979
  193MOL0     H25447   2.889   4.462   7.819  1.5798 -0.6741 -0.1478
  193MOL0     H25448   2.646   4.269   7.790  1.1698 -1.0496  1.9445
  193MOL0     H25449   2.692   4.342   7.942 -1.7414 -0.3742  1.0272
  193MOL0     H25450   2.639   4.498   7.679 -2.1489 -0.7639  0.2633
  193MOL0     H25451   2.685   4.571   7.836 -0.6467 -0.1808  0.9932
  193MOL0     H25452   2.467   4.489   7.931  0.0959  0.2896 -0.9307
  193MOL0     H25453   2.434   4.414   7.770  0.7695 -1.7479  2.1980
  193MOL0     H25454   2.486   4.712   7.779 -1.3828  1.4199 -1.9060
  193MOL0     H25455   2.391   4.628   7.662 -1.6905  1.0428 -0.2998
  193MOL0     H25456   2.236   4.746   7.805 -0.2249  0.2311  0.6040
  193MOL0     H25457   2.287   4.656   7.945 -4.1623 -0.1170  0.3002
  193MOL0     H25458   3.278   4.220   7.642  1.9361 -1.8647  2.6589
  193MOL0     H25459   3.520   4.303   7.593  0.1678  1.0901 -0.0948
  193MOL0     H25460   3.813   4.647   7.528  0.9335 -1.2023 -0.6951
  193MOL0     H25461   4.017   4.768   7.483 -1.0757 -3.5988 -0.7730
  193MOL0     H25462   5.732   5.280   7.314 -2.0315 -0.4846  1.1992
  193MOL0     H25463   5.964   5.335   7.402  0.4861 -0.1909 -1.0633
  193MOL0     H25464   6.318   5.555   7.544 -0.9986  0.6121  1.4063
  193MOL0     H25465   6.568   5.528   7.579 -0.1453 -1.1245 -1.7316
  193MOL0     H25466   6.746   5.225   7.846 -1.5571 -0.3246  1.8202
  193MOL0     H25467   6.673   5.363   7.921  0.1480 -0.5798 -0.2579
  193MOL0     H25468   6.933   5.368   7.955  2.0157  1.8891 -0.2195
  193MOL0     H25469   6.946   5.389   7.783  1.8554  4.2423  0.7472
  193MOL0     H25470   6.764   5.575   7.942 -1.4811 -1.2851 -1.0943
  193MOL0     H25471   6.852   5.592   7.782  2.8681 -0.0793 -1.2392
  193MOL0     H25472   6.991   5.574   8.049  1.3029  2.5326  0.1961
  193MOL0     H25473   7.054   5.641   7.898  1.6760  0.8331  0.7938
  193MOL0     H25474   6.835   5.972   8.050 -0.4259  0.8046 -2.8184
  193MOL0     H25475   6.511   5.201   7.839 -1.5898  1.2988  2.5263
  193MOL0     H25476   6.244   5.195   7.760 -0.9543  0.2013 -1.8256
  194MOL0     O25477   3.844   9.505   2.173  0.1861 -0.4709  0.3422
  194MOL0     C25478   3.880   9.437   2.275 -0.1363 -0.9406  0.1082
  194MOL0     O25479   3.789   9.362   2.345  0.5062  0.3465  0.4357
  194MOL0     C25480   3.676   9.328   2.279  0.0925  0.2216  0.0427
  194MOL0     C25481   3.677   9.192   2.247 -1.0102 -0.7279 -0.3321
  194MOL0     C25482   3.556   9.140   2.198  0.7177 -0.3400  0.0447
  194MOL0     C25483   3.436   9.220   2.199 -0.0431 -0.6107  0.1849
  194MOL0     O25484   3.314   9.164   2.149  0.2706 -0.1744 -0.0121
  194MOL0     C25485   3.201   9.255   2.135 -0.3543  1.0673  0.1063
  194MOL0     C25486   3.088   9.182   2.060 -0.2104  0.1562  1.2720
  194MOL0     C25487   3.138   9.135   1.919  0.2385  0.3727  0.3957
  194MOL0     C25488   3.016   9.078   1.837 -0.5217 -0.3752  0.2547
  194MOL0     C25489   3.071   9.023   1.706  0.0553 -0.9568 -0.4596
  194MOL0     C25490   2.963   8.941   1.629 -0.0598 -0.5527  0.5839
  194MOL0     C25491   2.921   8.810   1.697  0.1427  0.3700 -0.8337
  194MOL0     C25492   2.994   8.686   1.649  0.5135  0.2865  0.9299
  194MOL0     N25493   3.140   8.683   1.650  0.1718 -0.2018  0.1065
  194MOL0     C25494   3.218   8.718   1.541  0.4674 -0.2183 -0.0622
  194MOL0     C25495   3.342   8.664   1.567 -0.5023  0.1605 -0.1515
  194MOL0     C25496   3.465   8.679   1.482  0.1933 -0.0410  0.7977
  194MOL0     C25497   3.504   8.560   1.390 -0.0206 -0.1107  0.0568
  194MOL0     C25498   3.602   8.581   1.268  0.3752 -0.1810  1.1950
  194MOL0     C25499   3.723   8.656   1.311 -0.2134 -0.3452 -0.2144
  194MOL0     O25500   3.818   8.649   1.201  0.1231  0.7445  0.2885
  194MOL0     C25501   3.940   8.584   1.210  0.0820  0.3135  0.1251
  194MOL0     C25502   4.045   8.669   1.240 -0.0747  0.9040 -0.4972
  194MOL0     C25503   4.174   8.621   1.240 -0.9901 -0.3583 -0.1944
  194MOL0     C25504   4.200   8.480   1.221 -0.9734 -0.5199 -0.9661
  194MOL0     C25505   4.343   8.436   1.227 -0.1415  0.4647 -0.3375
  194MOL0     O25506   4.443   8.516   1.242  0.2130  0.1284  0.0104
  194MOL0     C25507   4.568   8.465   1.257  0.4585 -0.3669  0.5576
  194MOL0     C25508   4.651   8.466   1.149 -0.4417 -0.4247 -0.0496
  194MOL0     C25509   4.786   8.429   1.155  0.4301 -0.1651  1.0690
  194MOL0     C25510   4.836   8.387   1.284  0.6628  0.2608 -0.7191
  194MOL0     O25511   4.969   8.355   1.303  0.2724  0.2559  0.4535
  194MOL0     C25512   5.058   8.442   1.231 -0.3038 -0.7687 -1.0664
  194MOL0     C25513   5.207   8.461   1.276 -0.0945 -0.0824  0.4819
  194MOL0     C25514   5.269   8.572   1.198  0.1086  0.1428  0.2390
  194MOL0     C25515   5.419   8.552   1.213  0.1556 -0.0243 -0.3473
  194MOL0     C25516   5.496   8.645   1.117  0.6673  0.0263 -0.1460
  194MOL0     C25517   5.642   8.616   1.099 -1.2752  0.2694  0.3788
  194MOL0     C25518   5.697   8.574   1.230 -0.0843  0.3940  0.4080
  194MOL0     C25519   5.847   8.608   1.231 -0.6806  0.6705 -0.8864
  194MOL0    Cl25520   5.947   8.510   1.127  0.2992 -0.0852 -0.2801
  194MOL0     C25521   4.743   8.383   1.395 -0.5141 -0.5048  0.1169
  194MOL0     C25522   4.606   8.424   1.382 -0.3517  0.0726 -0.1052
  194MOL0     O25523   4.353   8.317   1.205  0.3553  0.3010 -1.2143
  194MOL0     C25524   4.094   8.399   1.190 -0.8580 -0.6219  0.4073
  194MOL0     C25525   3.963   8.448   1.194  0.4654 -0.9053  0.6428
  194MOL0     N25526   3.331   8.588   1.681 -0.5505  0.1986 -0.2507
  194MOL0     N25527   3.209   8.609   1.733  0.2878  0.3542 -0.3247
  194MOL0     C25528   3.446   9.356   2.226 -0.1759 -0.8252 -0.5053
  194MOL0     C25529   3.565   9.414   2.261 -0.0133 -0.2009  0.7921
  194MOL0     C25530   4.026   9.440   2.308 -0.4756 -0.8784 -0.0546
  194MOL0     C25531   4.123   9.518   2.244 -0.0193  0.2912  0.0322
  194MOL0     C25532   4.256   9.519   2.281  0.0181 -0.1089 -0.5342
  194MOL0     C25533   4.303   9.425   2.373 -0.2236  0.6939 -0.6593
  194MOL0     O25534   4.436   9.424   2.392 -0.7090 -0.5030  0.1790
  194MOL0     C25535   4.483   9.333   2.483 -0.6383  0.0914 -0.0148
  194MOL0     C25536   4.636   9.315   2.474 -1.4794 -0.2577 -0.0860
  194MOL0     C25537   4.671   9.257   2.337  0.1048  0.7203  0.2297
  194MOL0     C25538   4.822   9.281   2.306 -0.7014 -0.6718  0.3964
  194MOL0     C25539   4.859   9.419   2.275 -0.0366  0.5080 -0.3833
  194MOL0     C25540   4.901   9.527   2.236  0.4596  0.0117 -0.1814
  194MOL0     C25541   4.214   9.344   2.444 -0.7480  0.1020 -0.2356
  194MOL0     C25542   4.078   9.354   2.410  0.0264  0.3181  0.6115
  194MOL0     H25543   3.766   9.131   2.259  1.1261  1.8041 -1.9401
  194MOL0     H25544   3.533   9.036   2.181 -1.9530  0.3724 -1.3253
  194MOL0     H25545   3.218   9.355   2.093 -2.1622  1.5568  0.4479
  194MOL0     H25546   3.162   9.279   2.234 -0.8456  0.2973  0.1056
  194MOL0     H25547   3.015   9.264   2.058  0.4839  0.7932 -1.1080
  194MOL0     H25548   3.054   9.098   2.122  2.0441 -0.4365  1.7752
  194MOL0     H25549   3.211   9.055   1.933 -0.3776 -0.7266 -2.1416
  194MOL0     H25550   3.177   9.219   1.859  2.7626 -3.1251 -3.4599
  194MOL0     H25551   2.968   9.000   1.897  0.3301 -0.4669  0.8416
  194MOL0     H25552   2.946   9.161   1.827  0.8032  0.6184 -1.3181
  194MOL0     H25553   3.163   8.964   1.714  1.3917  0.7212 -2.3400
  194MOL0     H25554   3.105   9.111   1.650 -0.1916  0.3691  1.3811
  194MOL0     H25555   2.994   8.918   1.526  2.7322  0.2133  1.1876
  194MOL0     H25556   2.868   8.996   1.622 -0.7219 -1.6019  1.0381
  194MOL0     H25557   2.936   8.817   1.805  4.1783  3.9574 -1.3666
  194MOL0     H25558   2.813   8.801   1.683  0.0792  2.2071 -1.8414
  194MOL0     H25559   2.964   8.666   1.546 -0.4130  0.4298  1.1670
  194MOL0     H25560   2.952   8.600   1.701 -1.4161  0.1970 -0.6821
  194MOL0     H25561   3.190   8.773   1.452  0.1902  0.2162  0.2895
  194MOL0     H25562   3.552   8.707   1.543  1.2725 -0.8404 -0.3159
  194MOL0     H25563   3.436   8.766   1.424  0.5889  0.0367  0.7150
  194MOL0     H25564   3.421   8.506   1.344  0.8925 -1.4135 -0.1026
  194MOL0     H25565   3.560   8.492   1.455  3.9097  1.1532 -1.7348
  194MOL0     H25566   3.610   8.479   1.229 -1.4002  0.6309 -1.6244
  194MOL0     H25567   3.567   8.634   1.178 -0.4568 -0.0363  1.5913
  194MOL0     H25568   3.760   8.612   1.404 -0.1678  1.1250  0.5046
  194MOL0     H25569   3.716   8.761   1.343  3.5548 -0.2084  0.7148
  194MOL0     H25570   4.028   8.773   1.263 -0.0420  0.2789  3.0013
  194MOL0     H25571   4.260   8.685   1.258 -0.7565  0.6168 -3.8675
  194MOL0     H25572   4.611   8.508   1.057 -0.4207 -2.4072 -1.0237
  194MOL0     H25573   4.845   8.434   1.064  0.5965 -0.1043  1.1789
  194MOL0     H25574   5.013   8.542   1.236 -0.8561 -1.0728  1.9495
  194MOL0     H25575   5.057   8.408   1.127 -2.1766  2.7980 -2.4195
  194MOL0     H25576   5.267   8.371   1.260 -0.0088 -0.0050  0.3636
  194MOL0     H25577   5.224   8.495   1.379  1.8638 -0.1280  0.2133
  194MOL0     H25578   5.235   8.672   1.227  1.2239  0.3900  0.7066
  194MOL0     H25579   5.236   8.560   1.094  0.6771 -0.4788  0.1279
  194MOL0     H25580   5.444   8.577   1.317  0.7871  1.6370 -0.8673
  194MOL0     H25581   5.434   8.445   1.194  0.7656 -0.4919  2.3529
  194MOL0     H25582   5.484   8.751   1.143 -2.8294 -0.2676 -0.0278
  194MOL0     H25583   5.456   8.648   1.015  0.7388  3.8524 -0.1983
  194MOL0     H25584   5.681   8.714   1.067 -0.8943  0.6337  1.8786
  194MOL0     H25585   5.664   8.541   1.022  0.6764 -0.4214  1.5393
  194MOL0     H25586   5.663   8.624   1.322  2.1855  2.1215  0.3985
  194MOL0     H25587   5.680   8.467   1.241  0.8774  0.3774  2.2923
  194MOL0     H25588   5.881   8.605   1.334  0.9455 -0.4201 -1.4136
  194MOL0     H25589   5.866   8.713   1.208 -3.0052  2.1667  3.1825
  194MOL0     H25590   4.776   8.363   1.496  1.7349  1.9784 -0.0153
  194MOL0     H25591   4.535   8.433   1.464 -0.2107 -0.9546  0.1452
  194MOL0     H25592   4.108   8.292   1.172  0.1361 -0.6903  1.4915
  194MOL0     H25593   3.891   8.368   1.181 -0.0404 -0.4857  0.8199
  194MOL0     H25594   3.363   9.426   2.231 -0.3506 -0.8952 -1.9732
  194MOL0     H25595   3.569   9.521   2.279  1.0549 -0.4578  2.2602
  194MOL0     H25596   4.083   9.590   2.173  1.4429  0.8560 -0.2652
  194MOL0     H25597   4.322   9.591   2.234  0.3785  1.4692  2.1859
  194MOL0     H25598   4.445   9.231   2.472  0.2509 -0.6759  2.9804
  194MOL0     H25599   4.449   9.364   2.582 -2.0634  1.3880 -0.8630
  194MOL0     H25600   4.688   9.408   2.499  0.6398 -1.1053 -1.1024
  194MOL0     H25601   4.665   9.246   2.554 -0.9666  0.4530  0.3476
  194MOL0     H25602   4.610   9.300   2.257  0.3503 -0.8959 -0.8712
  194MOL0     H25603   4.650   9.150   2.348 -0.6588  0.9084  0.6494
  194MOL0     H25604   4.877   9.249   2.395  0.2995 -0.9355 -0.3041
  194MOL0     H25605   4.840   9.216   2.220 -1.0069 -1.5320  0.9661
  194MOL0     H25606   4.937   9.616   2.189  0.8875 -0.6170 -1.0947
  194MOL0     H25607   4.255   9.277   2.519 -1.4410 -1.7966 -1.4595
  194MOL0     H25608   4.009   9.289   2.462  0.5223 -0.4444  0.3429
  195MOL0     O25609   8.328   6.603   0.664  0.9672  0.4258 -0.5948
  195MOL0     C25610   8.300   6.718   0.701 -0.9918 -0.3975 -0.0531
  195MOL0     O25611   8.383   6.823   0.687 -0.5425 -0.2388  0.1243
  195MOL0     C25612   8.503   6.801   0.630 -0.1229  0.4410  0.5019
  195MOL0     C25613   8.528   6.880   0.518 -0.8355 -0.2985  0.0335
  195MOL0     C25614   8.653   6.888   0.467  0.3591 -0.1559 -0.1429
  195MOL0     C25615   8.757   6.817   0.528 -0.0575  0.0388 -0.0046
  195MOL0     O25616   8.879   6.834   0.468  0.1722 -0.1558  0.4050
  195MOL0     C25617   8.989   6.736   0.499 -0.0662  0.2282 -0.0589
  195MOL0     C25618   9.115   6.794   0.454 -0.5282  0.2670 -0.0730
  195MOL0     C25619   9.111   6.858   0.313  0.2294 -0.3303  0.9131
  195MOL0     C25620   9.249   6.885   0.250 -0.4362  0.6344 -0.3331
  195MOL0     C25621   9.269   7.017   0.164  0.7545 -0.0433 -0.1924
  195MOL0     C25622   9.403   7.025   0.087 -0.5620 -0.2753 -0.3476
  195MOL0     C25623   9.513   7.023   0.186  0.5835 -0.6416 -0.7385
  195MOL0     C25624   9.540   7.163   0.238  0.1433  0.6437  0.4348
  195MOL0     N25625   9.444   7.198   0.350 -0.6107 -0.6542  0.1673
  195MOL0     C25626   9.427   7.121   0.462  0.0889 -0.3261  0.2836
  195MOL0     C25627   9.329   7.185   0.532  0.5556 -0.5440 -0.5745
  195MOL0     C25628   9.272   7.127   0.662  0.2144 -0.4840 -0.6823
  195MOL0     C25629   9.172   7.216   0.736  0.1896  0.1379 -0.1491
  195MOL0     C25630   9.045   7.204   0.660 -0.1328  0.0998  0.2071
  195MOL0     C25631   8.928   7.289   0.734 -0.8846  0.8913  0.7093
  195MOL0     O25632   8.805   7.253   0.664 -0.2028 -0.2717  0.3206
  195MOL0     C25633   8.684   7.292   0.701  0.5361  0.2918 -0.1897
  195MOL0     C25634   8.591   7.199   0.723 -0.5417 -0.5182 -0.4108
  195MOL0     C25635   8.458   7.230   0.753  0.0209 -0.1645  0.1513
  195MOL0     C25636   8.413   7.365   0.769 -1.2131 -0.8716 -0.2958
  195MOL0     C25637   8.272   7.395   0.795  0.0133  0.7493 -0.5760
  195MOL0     O25638   8.202   7.290   0.848  0.0292 -0.1569 -0.1819
  195MOL0     C25639   8.067   7.300   0.878 -0.0782 -0.3081 -0.1419
  195MOL0     C25640   8.019   7.290   1.009 -0.1672  0.3335 -0.3586
  195MOL0     C25641   7.881   7.290   1.034  0.9956  0.0707 -0.5820
  195MOL0     C25642   7.797   7.323   0.930  0.4364  0.4149  0.6390
  195MOL0     O25643   7.664   7.321   0.960  0.9318 -0.2502  0.0949
  195MOL0     C25644   7.575   7.272   0.860  0.1944 -0.0858 -0.6949
  195MOL0     C25645   7.446   7.216   0.929  0.3161 -0.1899  0.5982
  195MOL0     C25646   7.347   7.322   0.973 -0.0409 -1.3180 -0.2079
  195MOL0     C25647   7.382   7.403   1.102 -1.1451 -0.0531  0.8180
  195MOL0     C25648   7.260   7.417   1.190 -0.3239  0.2665 -0.1418
  195MOL0     C25649   7.163   7.518   1.137 -1.2703  0.4289  0.4246
  195MOL0     C25650   7.061   7.546   1.252  0.0655 -0.8849 -0.4502
  195MOL0     C25651   6.954   7.659   1.221 -0.0970  0.7516  0.6031
  195MOL0    Cl25652   6.841   7.605   1.086  0.0367  0.3328  0.1477
  195MOL0     C25653   7.844   7.332   0.797  0.3383 -0.6519 -0.2281
  195MOL0     C25654   7.977   7.340   0.773  1.0127 -0.6964 -1.2246
  195MOL0     O25655   8.222   7.498   0.751  0.0850  0.7187  0.1637
  195MOL0     C25656   8.518   7.462   0.742 -1.1256  0.0647 -0.4616
  195MOL0     C25657   8.653   7.425   0.704  0.0820  0.4343 -0.5641
  195MOL0     N25658   9.297   7.307   0.469 -0.1340  0.5283  0.1324
  195MOL0     N25659   9.365   7.313   0.361 -0.1896  0.2207  0.0028
  195MOL0     C25660   8.732   6.723   0.636  0.0678  0.1500  0.3179
  195MOL0     C25661   8.604   6.712   0.685 -0.2384  0.0334  0.5267
  195MOL0     C25662   8.181   6.740   0.780  0.2866  0.6786 -0.1797
  195MOL0     C25663   8.087   6.639   0.793  0.6508  0.1578 -0.3018
  195MOL0     C25664   7.974   6.648   0.883 -0.1455  0.0344  0.0260
  195MOL0     C25665   7.941   6.774   0.939 -1.2473  0.4376  0.4829
  195MOL0     O25666   7.827   6.785   1.011 -0.0219 -0.2335 -0.1878
  195MOL0     C25667   7.796   6.914   1.062 -0.2069 -0.2453 -0.4013
  195MOL0     C25668   7.650   6.914   1.117 -0.3156  0.0725  0.5259
  195MOL0     C25669   7.636   6.824   1.240  0.5114  0.7022 -0.1111
  195MOL0     C25670   7.481   6.811   1.263 -0.4251  0.3485  0.1823
  195MOL0     C25671   7.462   6.750   1.396  0.8924  0.4126  0.5460
  195MOL0     C25672   7.442   6.698   1.502  0.4742 -0.3320 -0.3078
  195MOL0     C25673   8.034   6.879   0.915 -0.4165 -0.2699 -0.4456
  195MOL0     C25674   8.150   6.862   0.832  0.3026  0.7523  0.0496
  195MOL0     H25675   8.452   6.945   0.475  0.2067  0.1855 -1.1220
  195MOL0     H25676   8.675   6.951   0.382 -2.5134 -1.2743 -1.8613
  195MOL0     H25677   8.989   6.648   0.434  1.7768  0.1753 -0.0378
  195MOL0     H25678   9.013   6.716   0.603  2.0556 -2.0330 -0.9045
  195MOL0     H25679   9.185   6.709   0.445 -2.8445 -1.9670  1.5029
  195MOL0     H25680   9.149   6.870   0.525 -0.1647  3.3233 -3.2769
  195MOL0     H25681   9.060   6.954   0.309  1.1102  0.1084 -0.1307
  195MOL0     H25682   9.070   6.790   0.238  0.8445 -1.2429  1.3797
  195MOL0     H25683   9.312   6.898   0.338  0.9550  0.3411 -1.2571
  195MOL0     H25684   9.286   6.799   0.194  0.9936  1.5382 -0.8367
  195MOL0     H25685   9.236   7.102   0.225 -0.0296 -0.6796  0.2891
  195MOL0     H25686   9.197   7.002   0.084  0.7785 -0.0969 -0.2044
  195MOL0     H25687   9.405   7.114   0.023 -1.1891 -0.7479 -1.0398
  195MOL0     H25688   9.416   6.935   0.027 -1.0518  0.6723 -1.9558
  195MOL0     H25689   9.510   6.938   0.254 -1.9227 -1.2384 -1.4678
  195MOL0     H25690   9.608   7.001   0.137  2.0322  1.4609  0.9300
  195MOL0     H25691   9.516   7.230   0.155 -2.2128 -3.1059 -2.2241
  195MOL0     H25692   9.643   7.164   0.274 -0.3189 -0.9400  1.9515
  195MOL0     H25693   9.472   7.027   0.491  2.2351  0.2548 -0.9717
  195MOL0     H25694   9.356   7.107   0.729  1.1470  0.2435 -1.6152
  195MOL0     H25695   9.209   7.038   0.650 -0.8071  0.1264 -0.0810
  195MOL0     H25696   9.209   7.318   0.720 -0.4557  0.6306  1.3197
  195MOL0     H25697   9.174   7.200   0.845 -1.7069  2.5389  0.3417
  195MOL0     H25698   9.061   7.243   0.560  1.4934 -0.9075  0.0414
  195MOL0     H25699   9.012   7.100   0.664  1.6207 -0.4753  0.8060
  195MOL0     H25700   8.945   7.397   0.738  0.6695  0.6453  2.8205
  195MOL0     H25701   8.912   7.261   0.838 -1.2049  0.4574  0.5448
  195MOL0     H25702   8.624   7.099   0.694  0.7138 -1.1736  2.8629
  195MOL0     H25703   8.390   7.146   0.766 -1.4945  0.5461 -2.3446
  195MOL0     H25704   8.094   7.287   1.087  0.2933  0.7980 -0.7750
  195MOL0     H25705   7.846   7.289   1.137  2.5025  1.9306  0.0240
  195MOL0     H25706   7.622   7.188   0.807  2.5335 -1.7432  3.4962
  195MOL0     H25707   7.551   7.364   0.806 -0.9653 -0.5142 -0.9273
  195MOL0     H25708   7.461   7.147   1.013 -2.5645  0.8756  2.1089
  195MOL0     H25709   7.388   7.160   0.855  1.5743  0.3935 -0.8977
  195MOL0     H25710   7.246   7.283   0.983 -0.6477 -0.1637 -1.4476
  195MOL0     H25711   7.338   7.396   0.892  1.6419  1.0954  1.6318
  195MOL0     H25712   7.459   7.341   1.149 -1.4684 -0.7259  0.4662
  195MOL0     H25713   7.419   7.503   1.079  0.5585  0.2179  4.1122
  195MOL0     H25714   7.291   7.453   1.288 -0.9056  0.7390 -0.1185
  195MOL0     H25715   7.210   7.320   1.191 -2.1651  1.1108 -1.6045
  195MOL0     H25716   7.112   7.468   1.054 -2.8484  0.1132  1.5261
  195MOL0     H25717   7.204   7.614   1.105 -4.1403  0.9354 -2.3245
  195MOL0     H25718   7.000   7.458   1.276  2.9920 -3.3472 -1.3848
  195MOL0     H25719   7.115   7.572   1.344 -0.6308 -0.5514 -0.1258
  195MOL0     H25720   7.000   7.753   1.188  0.2753  0.9025  1.5264
  195MOL0     H25721   6.891   7.682   1.307 -1.1733  1.3714 -0.3231
  195MOL0     H25722   7.786   7.363   0.710  0.7740  2.5315  0.4921
  195MOL0     H25723   8.011   7.356   0.670 -1.3712  1.9886 -1.7144
  195MOL0     H25724   8.501   7.569   0.740  3.1269  0.9990  1.7399
  195MOL0     H25725   8.731   7.494   0.673  1.9708 -1.6663 -0.6816
  195MOL0     H25726   8.814   6.682   0.692  0.5430  0.8949  0.1794
  195MOL0     H25727   8.584   6.658   0.777 -0.0811  0.4208  0.7913
  195MOL0     H25728   8.117   6.539   0.762 -1.1772 -1.3019  2.1974
  195MOL0     H25729   7.909   6.574   0.928  2.2368 -1.4153  1.2859
  195MOL0     H25730   7.797   6.979   0.974  1.0513  0.3479  0.0254
  195MOL0     H25731   7.859   6.954   1.142 -1.1706  1.0834 -0.2548
  195MOL0     H25732   7.622   7.012   1.156  0.6840  0.7140 -0.3213
  195MOL0     H25733   7.590   6.889   1.029  0.4960  0.4626 -0.1581
  195MOL0     H25734   7.684   6.870   1.327  0.3781 -3.3107  2.3231
  195MOL0     H25735   7.674   6.723   1.223  0.4817  0.8247 -0.9026
  195MOL0     H25736   7.432   6.908   1.257  2.4797  1.8511 -1.4838
  195MOL0     H25737   7.443   6.749   1.181 -1.0728 -0.0534  0.7753
  195MOL0     H25738   7.422   6.649   1.596  1.3162  1.4809  0.8641
  195MOL0     H25739   8.011   6.976   0.958 -1.2063 -2.2436  4.2445
  195MOL0     H25740   8.209   6.950   0.809 -1.0846  1.5179 -0.6947
  196MOL0     O25741   5.285   0.574   6.394  0.7380  0.6462 -0.6004
  196MOL0     C25742   5.340   0.460   6.381  0.4152 -0.0651  0.2962
  196MOL0     O25743   5.285   0.352   6.316  0.3592  1.1209 -0.3106
  196MOL0     C25744   5.152   0.360   6.291  0.7508 -0.4761  0.2562
  196MOL0     C25745   5.106   0.361   6.157 -0.0162 -0.5226 -0.2688
  196MOL0     C25746   4.965   0.373   6.122 -0.6975  0.2834  0.3745
  196MOL0     C25747   4.876   0.389   6.232  0.2580 -0.5324 -0.5280
  196MOL0     O25748   4.733   0.392   6.222 -0.1033 -1.1375 -0.0291
  196MOL0     C25749   4.669   0.410   6.093 -0.4839  0.1278 -0.1348
  196MOL0     C25750   4.519   0.374   6.109 -0.0913  0.5879  0.1504
  196MOL0     C25751   4.459   0.473   6.213 -0.0073 -0.2851 -0.3903
  196MOL0     C25752   4.305   0.459   6.213 -0.4622  0.4192 -0.2136
  196MOL0     C25753   4.227   0.551   6.297 -0.0269 -0.2963  0.1747
  196MOL0     C25754   4.080   0.491   6.303  0.1702  0.2130 -0.3735
  196MOL0     C25755   4.000   0.580   6.389 -0.3304  0.7970  0.7844
  196MOL0     C25756   3.857   0.540   6.414 -0.4334  0.0844  0.3619
  196MOL0     N25757   3.773   0.576   6.289  0.5865  0.4984 -0.4561
  196MOL0     C25758   3.734   0.705   6.241  0.7944 -0.0927 -1.2499
  196MOL0     C25759   3.678   0.683   6.123 -0.8193  0.0161 -0.1786
  196MOL0     C25760   3.600   0.794   6.052  0.3562 -0.1461  0.6010
  196MOL0     C25761   3.449   0.785   6.075  0.4124  0.7264 -0.3169
  196MOL0     C25762   3.372   0.674   5.993  0.2160 -0.9386  0.1638
  196MOL0     C25763   3.230   0.668   6.008  0.5069 -0.1864 -0.2684
  196MOL0     O25764   3.207   0.664   6.150 -0.4554 -0.1055 -0.7054
  196MOL0     C25765   3.096   0.712   6.203  0.4198  0.3304  0.4469
  196MOL0     C25766   2.980   0.740   6.125  0.1367 -0.1200  0.6638
  196MOL0     C25767   2.861   0.803   6.177  1.0475  0.3103 -0.5042
  196MOL0     C25768   2.856   0.810   6.320  0.2399 -1.1042 -0.6596
  196MOL0     C25769   2.729   0.841   6.389 -0.0170  0.3457  0.4465
  196MOL0     O25770   2.615   0.858   6.310 -0.9399 -0.1291  0.3039
  196MOL0     C25771   2.505   0.914   6.372  0.0155  0.5474 -0.2037
  196MOL0     C25772   2.389   0.838   6.407 -0.7902  0.5942 -0.3874
  196MOL0     C25773   2.284   0.904   6.471  1.0388 -1.1627 -0.1033
  196MOL0     C25774   2.295   1.047   6.498 -0.3987  1.0667 -0.6453
  196MOL0     O25775   2.205   1.121   6.578  0.1856 -0.0667  0.1456
  196MOL0     C25776   2.075   1.063   6.601 -0.3882 -0.1929  0.1841
  196MOL0     C25777   1.981   1.167   6.672  0.0203  0.0321  0.5770
  196MOL0     C25778   2.053   1.243   6.791 -0.1144  0.1290 -0.1577
  196MOL0     C25779   2.085   1.161   6.926 -0.6296 -0.1142  0.2855
  196MOL0     C25780   1.953   1.109   6.980 -0.1711  0.1131  0.3485
  196MOL0     C25781   1.962   1.061   7.127  0.8856  0.8377  0.7199
  196MOL0     C25782   1.823   1.048   7.189  0.1554 -0.1790 -0.6719
  196MOL0     C25783   1.831   1.026   7.342  0.7189 -0.2740 -0.2153
  196MOL0    Cl25784   1.876   0.860   7.364  0.1223  0.0331 -0.2010
  196MOL0     C25785   2.404   1.115   6.451  0.2006 -0.3231  0.3666
  196MOL0     C25786   2.504   1.053   6.390  0.3340  0.2317 -0.0455
  196MOL0     O25787   2.725   0.860   6.506 -0.2152 -0.0970  0.4226
  196MOL0     C25788   2.965   0.759   6.400  0.4103 -0.5046 -0.0527
  196MOL0     C25789   3.089   0.720   6.345  0.6412 -0.1101  0.4750
  196MOL0     N25790   3.693   0.550   6.085 -0.5803 -0.2716 -0.6422
  196MOL0     N25791   3.743   0.487   6.190 -0.2711  0.8547 -0.1499
  196MOL0     C25792   4.931   0.396   6.366  0.2188  0.1911  0.0704
  196MOL0     C25793   5.062   0.380   6.394  0.9839  0.0294  0.0679
  196MOL0     C25794   5.475   0.448   6.433  0.4084 -0.0831  0.3441
  196MOL0     C25795   5.549   0.331   6.415  0.3621 -0.4851 -0.2859
  196MOL0     C25796   5.675   0.318   6.474 -0.3305 -0.1023 -0.7089
  196MOL0     C25797   5.730   0.429   6.550 -0.3302  0.2508  0.5205
  196MOL0     O25798   5.850   0.423   6.622 -0.2776  0.2763 -0.5782
  196MOL0     C25799   5.943   0.330   6.582  0.0729 -0.2526 -0.5391
  196MOL0     C25800   6.014   0.360   6.453 -0.3719 -0.3691  0.2606
  196MOL0     C25801   6.117   0.257   6.406 -0.0823  0.5489 -0.6196
  196MOL0     C25802   6.205   0.176   6.510 -0.1392 -0.1439  0.0773
  196MOL0     C25803   6.130   0.062   6.559  0.1308 -0.3590 -0.2825
  196MOL0     C25804   6.062  -0.033   6.584 -1.0633  0.1714  0.1440
  196MOL0     C25805   5.657   0.546   6.565  0.5560  0.0783 -0.2782
  196MOL0     C25806   5.532   0.556   6.502 -0.8125 -0.6263  0.7687
  196MOL0     H25807   5.189   0.347   6.089 -0.5329  0.1491 -1.0616
  196MOL0     H25808   4.942   0.360   6.016  1.4645 -2.4586  0.1186
  196MOL0     H25809   4.723   0.346   6.022  1.1163  1.2769  0.0021
  196MOL0     H25810   4.676   0.512   6.056 -1.6640 -0.0761 -0.9827
  196MOL0     H25811   4.503   0.268   6.131  0.0642  0.2245 -1.3149
  196MOL0     H25812   4.477   0.385   6.008  1.7823 -0.3789 -0.8038
  196MOL0     H25813   4.482   0.579   6.204  0.3473  0.0273  3.0573
  196MOL0     H25814   4.504   0.452   6.310  0.7536  1.0375 -0.4328
  196MOL0     H25815   4.264   0.472   6.113  1.3183  0.9076 -0.9209
  196MOL0     H25816   4.284   0.355   6.239  0.4146  0.0473 -0.9444
  196MOL0     H25817   4.239   0.653   6.259  0.3250  0.6910  2.6976
  196MOL0     H25818   4.272   0.551   6.397  0.0036 -0.6148  0.1609
  196MOL0     H25819   4.078   0.391   6.348 -0.3487  0.1796 -0.4630
  196MOL0     H25820   4.032   0.488   6.204 -0.5989  1.0343 -0.0363
  196MOL0     H25821   4.049   0.582   6.487  3.9557 -1.9296 -1.0403
  196MOL0     H25822   3.994   0.683   6.351 -1.4801  0.9793  1.4140
  196MOL0     H25823   3.827   0.595   6.503  1.5776 -0.0526  1.1697
  196MOL0     H25824   3.847   0.433   6.435  0.3428 -0.8623 -3.3247
  196MOL0     H25825   3.725   0.802   6.289  1.4696 -0.0172 -1.2614
  196MOL0     H25826   3.614   0.769   5.947 -0.5556  0.5003  0.3158
  196MOL0     H25827   3.639   0.889   6.090 -1.9751  1.7235 -1.4097
  196MOL0     H25828   3.397   0.881   6.068 -0.4341  0.3508  0.6630
  196MOL0     H25829   3.451   0.755   6.180  4.0440  0.9093 -0.1940
  196MOL0     H25830   3.397   0.686   5.887 -1.7671  0.0813 -0.2312
  196MOL0     H25831   3.407   0.573   6.015  0.6998 -0.7453  0.2954
  196MOL0     H25832   3.178   0.582   5.966 -0.0214 -0.2588  0.5016
  196MOL0     H25833   3.188   0.762   5.971  1.1607  1.3675  2.5666
  196MOL0     H25834   2.990   0.716   6.020  0.9300  0.9854  0.4739
  196MOL0     H25835   2.777   0.817   6.110 -0.9456 -1.1857  1.5357
  196MOL0     H25836   2.371   0.737   6.371 -0.0999 -0.4374  1.9677
  196MOL0     H25837   2.189   0.856   6.491 -0.1804  0.7730 -0.8506
  196MOL0     H25838   2.081   0.969   6.657 -0.6332 -0.2482  0.1173
  196MOL0     H25839   2.047   1.048   6.496  3.3184 -0.9611 -0.8547
  196MOL0     H25840   1.893   1.111   6.705 -0.3543 -0.1126 -0.6379
  196MOL0     H25841   1.944   1.241   6.601 -1.2009  0.1632  1.3138
  196MOL0     H25842   1.985   1.322   6.823  0.4628 -0.3681  2.5518
  196MOL0     H25843   2.150   1.280   6.755  1.5407 -3.1733  0.4664
  196MOL0     H25844   2.154   1.078   6.908 -0.0183  0.4306  0.0818
  196MOL0     H25845   2.132   1.231   6.994 -0.1217 -0.5286  0.3644
  196MOL0     H25846   1.924   1.016   6.931  0.8275  0.3537 -0.7622
  196MOL0     H25847   1.877   1.188   6.978  0.9613  1.2551  0.7964
  196MOL0     H25848   2.030   1.126   7.183 -0.1735  1.2069  1.6097
  196MOL0     H25849   2.022   0.971   7.144 -0.5608  0.1748  2.7777
  196MOL0     H25850   1.765   1.140   7.176 -1.2311 -1.1767 -1.8448
  196MOL0     H25851   1.761   0.972   7.141 -1.2983  1.3235 -1.2924
  196MOL0     H25852   1.730   1.043   7.380  0.4186 -1.2243 -0.5562
  196MOL0     H25853   1.892   1.099   7.396 -0.3972  2.0263 -1.8961
  196MOL0     H25854   2.410   1.222   6.468  3.8722 -0.5116  1.1095
  196MOL0     H25855   2.586   1.115   6.357 -1.5943  2.1334 -1.5518
  196MOL0     H25856   2.955   0.774   6.507  0.6530  0.0275 -0.0987
  196MOL0     H25857   3.177   0.701   6.405 -0.7515  0.1470  2.6868
  196MOL0     H25858   4.868   0.409   6.454  2.0438 -1.0063  1.6428
  196MOL0     H25859   5.096   0.359   6.495 -0.8811 -0.4487  0.6236
  196MOL0     H25860   5.511   0.245   6.359 -0.2065  0.3537 -1.2202
  196MOL0     H25861   5.730   0.225   6.461  3.4262  2.0475 -1.3364
  196MOL0     H25862   5.889   0.236   6.568 -3.2267  1.5225 -0.7019
  196MOL0     H25863   6.018   0.321   6.661 -1.4610 -0.7346  0.9188
  196MOL0     H25864   5.940   0.363   6.373  0.5956 -0.1267 -0.6390
  196MOL0     H25865   6.069   0.454   6.463  1.9843 -1.5945 -0.4703
  196MOL0     H25866   6.197   0.308   6.351 -0.7850  2.1972 -0.1733
  196MOL0     H25867   6.060   0.177   6.358  1.1189 -2.5452  2.5739
  196MOL0     H25868   6.298   0.133   6.472 -0.1988 -0.4268  0.2552
  196MOL0     H25869   6.228   0.250   6.587  1.7688  2.2416 -2.5416
  196MOL0     H25870   5.984  -0.101   6.612 -1.4609 -0.6598 -2.6397
  196MOL0     H25871   5.680   0.625   6.635 -1.4333  1.1062 -0.6897
  196MOL0     H25872   5.472   0.638   6.542 -1.9958 -1.0271 -0.1426
  197MOL0     O25873   1.758  10.240   4.371 -0.3655  0.9041 -0.3170
  197MOL0     C25874   1.866  10.251   4.313 -0.3707 -0.2508  0.1913
  197MOL0     O25875   1.893  10.335   4.211  0.4014  0.5406 -0.7740
  197MOL0     C25876   1.816  10.450   4.181 -0.2138  0.1760 -0.7959
  197MOL0     C25877   1.823  10.481   4.055  0.1871  0.0943  0.3077
  197MOL0     C25878   1.755  10.594   4.001 -0.0216  0.0456 -0.8868
  197MOL0     C25879   1.683  10.676   4.088  0.7053  0.6093 -0.1684
  197MOL0     O25880   1.615  10.791   4.053 -0.5207  0.4668 -0.6375
  197MOL0     C25881   1.587  10.810   3.914 -0.1262  0.1509 -0.9194
  197MOL0     C25882   1.492  10.922   3.897  0.5336  0.4147  0.1272
  197MOL0     C25883   1.355  10.897   3.962 -0.4147  0.2535 -0.2743
  197MOL0     C25884   1.258  11.003   3.903  0.7420 -0.7309  0.2796
  197MOL0     C25885   1.211  10.982   3.756  0.4592 -1.2064 -1.0755
  197MOL0     C25886   1.100  10.877   3.743  0.7688  0.4881  0.8186
  197MOL0     C25887   1.150  10.738   3.706  0.1401  0.2888 -0.6617
  197MOL0     C25888   1.044  10.634   3.654 -0.4431  0.1493  0.0008
  197MOL0     N25889   0.930  10.609   3.747  0.3433  0.2445 -0.5115
  197MOL0     C25890   0.934  10.542   3.869  0.4152  0.5152 -0.3348
  197MOL0     C25891   0.814  10.557   3.929  0.6505 -1.1028 -0.5248
  197MOL0     C25892   0.756  10.494   4.056 -0.1623 -0.5517 -0.7933
  197MOL0     C25893   0.865  10.435   4.153  0.6753  0.2073  0.1269
  197MOL0     C25894   0.810  10.345   4.255  0.0937 -0.0966 -0.4006
  197MOL0     C25895   0.730  10.423   4.360  0.1304  0.2080 -0.0092
  197MOL0     O25896   0.595  10.434   4.308  0.1377  0.2058 -0.0575
  197MOL0     C25897   0.491  10.341   4.337 -0.4607 -0.0006  0.8774
  197MOL0     C25898   0.477  10.282   4.466 -0.1298 -0.0251  0.0967
  197MOL0     C25899   0.363  10.208   4.491  0.7988 -0.5078 -0.6092
  197MOL0     C25900   0.265  10.195   4.401  0.4388  1.0268 -0.5665
  197MOL0     C25901   0.157  10.091   4.443  0.1120 -0.7793  0.7952
  197MOL0     O25902   0.146  10.061   4.573  0.1533 -0.3396 -0.1182
  197MOL0     C25903   0.062   9.965   4.625  0.9338 -0.0686 -0.1551
  197MOL0     C25904  -0.042   9.993   4.714  0.6716 -0.4675 -0.1513
  197MOL0     C25905  -0.119   9.894   4.763  0.0189 -0.3364 -0.1375
  197MOL0     C25906  -0.078   9.759   4.743  0.7582  0.2379  0.0357
  197MOL0     O25907  -0.151   9.667   4.816 -0.8865 -0.0399  0.1497
  197MOL0     C25908  -0.092   9.537   4.834  0.2914 -0.4116 -0.9636
  197MOL0     C25909  -0.174   9.457   4.938  0.6317  1.0018 -0.1760
  197MOL0     C25910  -0.308   9.402   4.883  0.4897  0.3510 -0.0228
  197MOL0     C25911  -0.293   9.274   4.794 -0.0150 -0.9708  0.0712
  197MOL0     C25912  -0.420   9.192   4.759  0.5135  0.5245 -0.1617
  197MOL0     C25913  -0.530   9.272   4.688  0.9878  0.9276  0.2828
  197MOL0     C25914  -0.666   9.199   4.676 -0.4863 -0.8880  0.0306
  197MOL0     C25915  -0.778   9.308   4.687 -0.4145  0.5415  0.5144
  197MOL0    Cl25916  -0.766   9.405   4.842  0.5371  0.6085 -0.4597
  197MOL0     C25917   0.024   9.729   4.656 -1.1162 -0.0980  0.9734
  197MOL0     C25918   0.100   9.830   4.604 -0.7048 -0.7430  0.3016
  197MOL0     O25919   0.091  10.045   4.351 -0.2889  0.1167  0.2022
  197MOL0     C25920   0.278  10.248   4.273 -0.7501 -0.4182  0.1939
  197MOL0     C25921   0.390  10.328   4.240  0.9367 -1.0016  0.7423
  197MOL0     N25922   0.738  10.628   3.835 -1.4831 -0.3492  0.4858
  197MOL0     N25923   0.802  10.662   3.734 -0.0079 -0.0857  0.3698
  197MOL0     C25924   1.672  10.635   4.220  0.1062  0.0375 -0.1330
  197MOL0     C25925   1.731  10.520   4.268  0.2572 -0.3483  1.0601
  197MOL0     C25926   1.971  10.144   4.343 -0.1027 -0.2170 -0.4624
  197MOL0     C25927   1.939  10.048   4.439  0.1925  0.3902 -0.3040
  197MOL0     C25928   2.040   9.953   4.473  0.7060 -0.5940 -0.5437
  197MOL0     C25929   2.160   9.952   4.408 -0.3683 -0.0590  0.5187
  197MOL0     O25930   2.267   9.863   4.427 -0.4208  0.7353 -0.1666
  197MOL0     C25931   2.246   9.759   4.526  0.2668 -0.2509 -0.9920
  197MOL0     C25932   2.376   9.676   4.550 -0.1479  0.0309  0.8412
  197MOL0     C25933   2.496   9.765   4.603 -0.0806  0.5488 -0.3835
  197MOL0     C25934   2.611   9.765   4.508 -0.3005  0.2440 -1.0036
  197MOL0     C25935   2.732   9.842   4.552 -0.0988 -0.5494 -0.1736
  197MOL0     C25936   2.804   9.932   4.582  0.1473  0.0469  0.0798
  197MOL0     C25937   2.180  10.041   4.299 -0.0698  0.3868  0.5259
  197MOL0     C25938   2.087  10.140   4.269  0.3474 -0.9839  0.3970
  197MOL0     H25939   1.878  10.418   3.986  1.6587 -0.6955  2.1373
  197MOL0     H25940   1.766  10.617   3.895  0.8918 -0.4853 -0.9142
  197MOL0     H25941   1.551  10.717   3.870 -1.0444 -1.3971  2.7430
  197MOL0     H25942   1.682  10.826   3.862 -0.1853  0.1022 -1.0432
  197MOL0     H25943   1.484  10.933   3.789 -2.0037 -1.6467  0.0174
  197MOL0     H25944   1.523  11.019   3.937 -0.9349  1.2396 -0.6322
  197MOL0     H25945   1.357  10.905   4.071 -0.8884 -0.1036 -0.2336
  197MOL0     H25946   1.316  10.798   3.935  0.3605  0.7850 -3.9362
  197MOL0     H25947   1.178  11.003   3.978  1.7309 -1.9480  1.3829
  197MOL0     H25948   1.310  11.099   3.898 -0.4391 -0.1080 -0.4210
  197MOL0     H25949   1.299  10.953   3.698  0.0887 -2.3990 -1.0642
  197MOL0     H25950   1.183  11.078   3.711  4.1878  0.4496 -0.2530
  197MOL0     H25951   1.041  10.905   3.655  2.2370 -1.3216 -0.8400
  197MOL0     H25952   1.022  10.872   3.819 -0.5817  1.2623 -0.4416
  197MOL0     H25953   1.237  10.744   3.640  1.4038 -2.2735  0.6082
  197MOL0     H25954   1.186  10.694   3.800  0.4616 -1.3187 -1.5023
  197MOL0     H25955   1.095  10.540   3.634 -2.5812 -1.1046  0.0615
  197MOL0     H25956   1.007  10.663   3.555 -1.6690  0.4819  0.5309
  197MOL0     H25957   1.017  10.495   3.920  0.4529 -2.5686 -2.9725
  197MOL0     H25958   0.673  10.429   4.027 -1.6870  0.2883  1.3403
  197MOL0     H25959   0.705  10.578   4.106 -0.4599 -2.5885  2.6080
  197MOL0     H25960   0.921  10.521   4.189  1.0270 -0.6886  1.8341
  197MOL0     H25961   0.939  10.389   4.086 -1.8753 -0.5121 -2.4112
  197MOL0     H25962   0.755  10.272   4.195  1.5184 -0.8294 -0.8609
  197MOL0     H25963   0.893  10.299   4.308 -0.2598  0.3125  0.5358
  197MOL0     H25964   0.767  10.525   4.376  0.6910  0.1232 -0.7722
  197MOL0     H25965   0.736  10.372   4.457  1.0867  0.4707  0.0791
  197MOL0     H25966   0.548  10.290   4.548 -0.7403 -0.2618  0.6577
  197MOL0     H25967   0.354  10.156   4.586  1.2995  0.8180  0.1862
  197MOL0     H25968  -0.088  10.089   4.735  2.6381  0.2448  1.1548
  197MOL0     H25969  -0.199   9.911   4.835  0.9962  0.9932  0.7051
  197MOL0     H25970   0.010   9.544   4.874  0.6104 -0.1997 -1.7920
  197MOL0     H25971  -0.078   9.475   4.746  4.8296 -0.8973 -0.1415
  197MOL0     H25972  -0.196   9.527   5.019 -2.2592  0.6285 -0.5131
  197MOL0     H25973  -0.116   9.368   4.964 -1.2066 -0.4344 -0.7647
  197MOL0     H25974  -0.356   9.483   4.827  0.2024  0.0859 -0.1554
  197MOL0     H25975  -0.368   9.375   4.970  0.6394  1.4901  0.4606
  197MOL0     H25976  -0.250   9.313   4.702 -0.7812  5.0690  1.8904
  197MOL0     H25977  -0.225   9.196   4.831 -0.4555 -0.9551  0.9433
  197MOL0     H25978  -0.465   9.151   4.850  0.7812  1.0296  0.2083
  197MOL0     H25979  -0.398   9.102   4.701 -0.4801 -2.4996  3.7549
  197MOL0     H25980  -0.503   9.291   4.584 -3.1410 -0.2630 -1.1711
  197MOL0     H25981  -0.540   9.359   4.753 -0.0174  1.7467 -0.9428
  197MOL0     H25982  -0.666   9.152   4.578  1.3774  0.3042 -0.5950
  197MOL0     H25983  -0.675   9.133   4.763 -1.5595  0.7902  1.2774
  197MOL0     H25984  -0.873   9.254   4.685 -2.5721  4.0358  0.6265
  197MOL0     H25985  -0.770   9.371   4.598  1.5958 -0.3057  0.0435
  197MOL0     H25986   0.062   9.630   4.634  0.0855  0.7232 -0.8784
  197MOL0     H25987   0.179   9.808   4.534 -2.7625 -0.7265 -2.1548
  197MOL0     H25988   0.197  10.238   4.200  0.3030  3.1708 -1.7316
  197MOL0     H25989   0.390  10.383   4.146 -0.9362 -2.0308  0.0910
  197MOL0     H25990   1.612  10.693   4.289  0.3915  0.0681  0.0921
  197MOL0     H25991   1.724  10.481   4.369 -1.5844  0.0321  1.1096
  197MOL0     H25992   1.842  10.037   4.486 -0.3221 -1.3297 -1.6570
  197MOL0     H25993   2.021   9.865   4.534  2.1855 -0.9796 -0.5857
  197MOL0     H25994   2.161   9.694   4.499  1.1696 -1.1930 -1.6393
  197MOL0     H25995   2.224   9.794   4.628 -0.9371 -0.1835 -1.2636
  197MOL0     H25996   2.353   9.601   4.626 -0.4947 -0.0565  0.6503
  197MOL0     H25997   2.397   9.625   4.456  0.1873  2.1467 -0.2988
  197MOL0     H25998   2.519   9.712   4.696 -4.6451 -2.0413 -0.3998
  197MOL0     H25999   2.468   9.866   4.634  1.8345  1.9296 -2.8202
  197MOL0     H26000   2.656   9.666   4.496  1.0131  0.6693  0.0330
  197MOL0     H26001   2.583   9.802   4.409 -0.8282 -3.0812 -2.2201
  197MOL0     H26002   2.873  10.008   4.611  0.1764 -0.2219  0.7222
  197MOL0     H26003   2.263  10.029   4.230 -0.8243  1.4369 -0.5914
  197MOL0     H26004   2.108  10.218   4.196 -1.2710  1.1454  2.0978
  198MOL0     O26005   1.499   5.067  10.333 -0.6081 -0.5641 -0.0085
  198MOL0     C26006   1.553   5.159  10.278 -0.2438 -0.5153 -0.1558
  198MOL0     O26007   1.522   5.294  10.297 -0.1456  0.6618  0.7763
  198MOL0     C26008   1.394   5.328  10.327 -0.3663  0.3142  0.3744
  198MOL0     C26009   1.328   5.409  10.238  0.3880  0.3035 -0.2543
  198MOL0     C26010   1.195   5.449  10.252  0.8937 -0.4349 -0.8843
  198MOL0     C26011   1.123   5.405  10.372 -1.0956 -0.6596  0.3084
  198MOL0     O26012   0.998   5.453  10.397  0.4645 -0.7922 -0.2033
  198MOL0     C26013   0.921   5.481  10.280  1.0728 -0.1272 -0.7237
  198MOL0     C26014   0.775   5.520  10.326  0.1942 -0.4085 -0.2488
  198MOL0     C26015   0.669   5.511  10.219  1.2660  0.6047  0.0213
  198MOL0     C26016   0.530   5.530  10.276 -1.1170 -0.0228 -0.6658
  198MOL0     C26017   0.418   5.544  10.175  1.2282 -0.0846  0.5524
  198MOL0     C26018   0.288   5.507  10.253  0.2163 -0.3900 -0.2146
  198MOL0     C26019   0.165   5.532  10.156  1.8517  0.4826  1.1961
  198MOL0     C26020   0.142   5.683  10.147 -0.2740  0.1042 -0.1792
  198MOL0     N26021   0.029   5.704  10.051  0.3033 -0.9756  0.2685
  198MOL0     C26022   0.034   5.683   9.912  0.3751  0.7214  0.2439
  198MOL0     C26023  -0.075   5.738   9.859 -0.1252 -0.3781 -0.6797
  198MOL0     C26024  -0.089   5.763   9.708  0.1538  0.3505 -0.0503
  198MOL0     C26025  -0.155   5.637   9.637 -0.6108 -1.2121 -0.1673
  198MOL0     C26026  -0.263   5.571   9.721 -0.1451  0.1891 -0.3258
  198MOL0     C26027  -0.385   5.654   9.731  0.1348  0.0581  0.1115
  198MOL0     O26028  -0.477   5.579   9.803  0.8293  0.3634 -0.0609
  198MOL0     C26029  -0.596   5.640   9.839 -0.3268 -0.4604  0.8610
  198MOL0     C26030  -0.613   5.664   9.973  0.4624 -0.3196  1.0644
  198MOL0     C26031  -0.736   5.701  10.021  0.5135 -0.6354 -0.2018
  198MOL0     C26032  -0.842   5.709   9.923  0.0219  0.0208  0.2001
  198MOL0     C26033  -0.983   5.716   9.968 -0.7362 -0.4481  0.2312
  198MOL0     O26034  -0.999   5.716  10.107  0.4089 -0.4971  0.1258
  198MOL0     C26035  -1.128   5.699  10.143  0.6692 -1.0460 -0.9282
  198MOL0     C26036  -1.205   5.814  10.153  0.8947  0.1950  0.6096
  198MOL0     C26037  -1.340   5.797  10.191  0.3653 -0.3470  0.4853
  198MOL0     C26038  -1.394   5.678  10.225 -0.8001 -0.0110 -0.3264
  198MOL0     O26039  -1.524   5.673  10.260  0.1269 -0.0283  0.6776
  198MOL0     C26040  -1.571   5.551  10.316  0.3594  0.7365 -0.3901
  198MOL0     C26041  -1.717   5.541  10.333 -0.5239  0.2654 -0.2131
  198MOL0     C26042  -1.771   5.600  10.453 -0.2897 -0.4714  0.0334
  198MOL0     C26043  -1.923   5.567  10.475  0.7439 -0.2311 -0.3438
  198MOL0     C26044  -2.002   5.660  10.574  0.5736 -0.3774 -0.1903
  198MOL0     C26045  -2.156   5.651  10.565  0.3865  0.5286  0.8142
  198MOL0     C26046  -2.236   5.717  10.671 -0.3436  0.0082  0.4694
  198MOL0     C26047  -2.383   5.684  10.657  0.5868 -1.1095  0.2100
  198MOL0    Cl26048  -2.485   5.743  10.793  0.0738 -0.3563 -0.1807
  198MOL0     C26049  -1.306   5.566  10.220  0.2343 -0.3256 -0.4291
  198MOL0     C26050  -1.173   5.578  10.179 -0.8904 -0.1405 -1.0871
  198MOL0     O26051  -1.076   5.708   9.886 -0.1580  0.2790  0.1131
  198MOL0     C26052  -0.821   5.695   9.791 -0.3612 -0.2097 -0.2919
  198MOL0     C26053  -0.698   5.643   9.736 -0.9332  0.3544  0.9837
  198MOL0     N26054  -0.149   5.783   9.962 -0.3629 -1.0190  0.2124
  198MOL0     N26055  -0.088   5.771  10.073 -0.6356 -0.8754 -0.7785
  198MOL0     C26056   1.195   5.323  10.462  0.3639 -0.5111  0.0579
  198MOL0     C26057   1.327   5.292  10.446 -0.5958  0.3699  0.1548
  198MOL0     C26058   1.659   5.139  10.188  0.1752  0.0660 -0.1508
  198MOL0     C26059   1.735   5.019  10.192  0.1426  0.6051 -0.6022
  198MOL0     C26060   1.842   4.988  10.111  0.1762  0.7542  0.1772
  198MOL0     C26061   1.877   5.082  10.011  0.3444 -0.4542  0.1296
  198MOL0     O26062   1.960   5.030   9.917 -0.0353 -0.0888 -0.5611
  198MOL0     C26063   2.070   5.117   9.887 -0.2014  0.7523  0.1995
  198MOL0     C26064   2.205   5.050   9.838  0.2528  0.5203  0.2220
  198MOL0     C26065   2.274   4.949   9.935 -0.2565 -0.0811 -0.2074
  198MOL0     C26066   2.282   4.992  10.086 -0.3366 -0.3624  0.7889
  198MOL0     C26067   2.369   5.108  10.068 -0.0191 -0.6980 -0.5536
  198MOL0     C26068   2.453   5.199  10.060  0.9288 -0.0317  0.1761
  198MOL0     C26069   1.809   5.203   9.993  0.5746 -0.1705 -0.6569
  198MOL0     C26070   1.705   5.231  10.082  0.2598  0.4035 -0.3364
  198MOL0     H26071   1.379   5.447  10.149  1.8784  0.2562  0.5471
  198MOL0     H26072   1.164   5.513  10.170 -0.6442 -0.4981 -0.3854
  198MOL0     H26073   0.916   5.389  10.221 -0.5751 -2.1440  2.3185
  198MOL0     H26074   0.963   5.562  10.220  2.0385 -1.0895 -1.3797
  198MOL0     H26075   0.768   5.620  10.370  1.5611 -0.0405 -0.8083
  198MOL0     H26076   0.751   5.441  10.398 -1.9369  1.0320  0.7454
  198MOL0     H26077   0.670   5.410  10.178 -0.1415  0.5603  0.0467
  198MOL0     H26078   0.680   5.586  10.140  1.9775 -1.1395 -1.6273
  198MOL0     H26079   0.521   5.440  10.338  2.2679 -0.8565 -1.1614
  198MOL0     H26080   0.529   5.624  10.331  2.8080 -1.1512  1.7978
  198MOL0     H26081   0.435   5.478  10.089  0.1475  1.3175 -0.7851
  198MOL0     H26082   0.414   5.644  10.131 -2.4965 -0.5415 -0.4498
  198MOL0     H26083   0.285   5.565  10.345  1.3404  3.1542 -2.2204
  198MOL0     H26084   0.296   5.403  10.287  2.5283 -0.3172 -0.3695
  198MOL0     H26085   0.179   5.495  10.054  0.2222  2.3680  0.1974
  198MOL0     H26086   0.076   5.485  10.199  1.6967  1.2109  1.6930
  198MOL0     H26087   0.234   5.730  10.112  0.8269 -3.3974 -2.4190
  198MOL0     H26088   0.122   5.716  10.250  1.0415 -0.8692  0.4088
  198MOL0     H26089   0.128   5.653   9.867 -0.2435 -0.7266 -0.1482
  198MOL0     H26090   0.013   5.787   9.675 -0.3201  0.0622 -1.8443
  198MOL0     H26091  -0.163   5.843   9.691 -3.2891 -2.7836 -1.1389
  198MOL0     H26092  -0.081   5.558   9.620  0.4008 -1.0226  2.7823
  198MOL0     H26093  -0.189   5.666   9.537  1.5772  0.6026 -0.4726
  198MOL0     H26094  -0.300   5.484   9.667 -2.6531  1.7585 -1.3407
  198MOL0     H26095  -0.225   5.544   9.820 -1.4880  0.7377  0.3622
  198MOL0     H26096  -0.432   5.681   9.636  1.9783  2.1108 -0.2747
  198MOL0     H26097  -0.360   5.748   9.780  3.2810 -0.4570 -0.3169
  198MOL0     H26098  -0.528   5.643  10.038 -0.5741 -2.4429  1.8277
  198MOL0     H26099  -0.763   5.690  10.125  0.4110  3.3674  0.3618
  198MOL0     H26100  -1.176   5.917  10.135  0.7385 -0.2949 -3.5740
  198MOL0     H26101  -1.406   5.883  10.188  1.2127  0.3115 -0.2766
  198MOL0     H26102  -1.524   5.535  10.414  1.2918 -0.7939 -1.0546
  198MOL0     H26103  -1.535   5.467  10.257  1.1366  0.4766  0.4292
  198MOL0     H26104  -1.742   5.435  10.326  1.8844 -0.4272  0.6653
  198MOL0     H26105  -1.779   5.579  10.252  0.8810 -0.5278 -1.7233
  198MOL0     H26106  -1.774   5.709  10.446  0.0018 -0.3137  1.8826
  198MOL0     H26107  -1.715   5.570  10.542  1.0401 -4.4531 -1.9114
  198MOL0     H26108  -1.974   5.581  10.379  1.6884 -1.2175 -1.0124
  198MOL0     H26109  -1.940   5.462  10.496 -0.7838  0.1267  0.3257
  198MOL0     H26110  -1.981   5.766  10.563 -2.1576  0.3825  1.1065
  198MOL0     H26111  -1.972   5.638  10.677 -0.3693  0.8902  0.3739
  198MOL0     H26112  -2.183   5.547  10.548 -1.8530  1.1378  0.2342
  198MOL0     H26113  -2.184   5.702  10.472  1.0689  1.1066  0.9154
  198MOL0     H26114  -2.205   5.681  10.770  1.0093 -0.2889 -0.0389
  198MOL0     H26115  -2.233   5.826  10.675 -0.1803 -0.0183  3.5856
  198MOL0     H26116  -2.392   5.575  10.653 -3.1400 -1.1392  3.4646
  198MOL0     H26117  -2.404   5.735  10.562  2.7327  0.1004  0.3234
  198MOL0     H26118  -1.336   5.468  10.254  0.0475 -0.1585 -0.0996
  198MOL0     H26119  -1.104   5.495  10.185 -1.4674 -0.8825 -3.7043
  198MOL0     H26120  -0.906   5.694   9.723 -0.5729  1.3778 -0.0724
  198MOL0     H26121  -0.674   5.624   9.632  0.7887  2.0239  1.0226
  198MOL0     H26122   1.138   5.275  10.541 -0.6500 -1.6963 -1.3405
  198MOL0     H26123   1.376   5.238  10.527 -0.4246  0.4655  0.1162
  198MOL0     H26124   1.722   4.945  10.270  2.5742 -0.0784 -0.7527
  198MOL0     H26125   1.886   4.889  10.114  1.8068  1.4287 -0.5213
  198MOL0     H26126   2.094   5.188   9.967 -0.4459  1.6781 -0.5230
  198MOL0     H26127   2.030   5.171   9.801 -0.5298  0.5079  0.1966
  198MOL0     H26128   2.194   5.005   9.739  0.4648 -1.3827  1.0193
  198MOL0     H26129   2.277   5.132   9.833  2.0671 -0.7258  3.1086
  198MOL0     H26130   2.372   4.914   9.903  1.0033  0.1111  3.0338
  198MOL0     H26131   2.202   4.866   9.933  0.7895 -1.0164  0.1320
  198MOL0     H26132   2.188   5.024  10.131 -0.1881  0.1136  0.7656
  198MOL0     H26133   2.337   4.915  10.141 -0.0113 -3.0645 -2.9389
  198MOL0     H26134   2.515   5.278  10.025 -0.5438  0.6668 -0.9788
  198MOL0     H26135   1.823   5.263   9.904 -0.1199  1.2941  0.1745
  198MOL0     H26136   1.655   5.326  10.065  1.1064  1.0980  0.8855
  199MOL0     O26137   8.537   0.113   9.996 -0.4259  0.2283 -0.8510
  199MOL0     C26138   8.636   0.112  10.075  1.2140 -0.3981  0.2049
  199MOL0     O26139   8.633   0.068  10.206  0.1263 -0.8850  0.3068
  199MOL0     C26140   8.515   0.014  10.256  0.2679 -0.1987 -0.3961
  199MOL0     C26141   8.456   0.067  10.370  0.8101  0.2294 -0.0703
  199MOL0     C26142   8.331   0.013  10.410 -0.4435  0.0268 -0.5675
  199MOL0     C26143   8.280  -0.102  10.344 -0.5812 -1.0184 -1.3271
  199MOL0     O26144   8.147  -0.118  10.378 -0.2506 -0.5235  0.4154
  199MOL0     C26145   8.078  -0.214  10.296  1.4161  0.0472  0.5396
  199MOL0     C26146   7.929  -0.232  10.335 -0.5032  0.3948 -0.5781
  199MOL0     C26147   7.926  -0.266  10.483  0.3690  0.4719 -0.1217
  199MOL0     C26148   7.766  -0.279  10.523  0.2282 -0.2059 -0.0191
  199MOL0     C26149   7.746  -0.323  10.676  0.5082  0.3032  0.0693
  199MOL0     C26150   7.606  -0.326  10.737 -0.3384 -0.1224  0.1139
  199MOL0     C26151   7.598  -0.329  10.890  0.9942 -0.5532 -0.1853
  199MOL0     C26152   7.447  -0.326  10.925  0.2415 -0.1335 -0.7335
  199MOL0     N26153   7.423  -0.393  11.050  0.3794 -0.2603 -0.1448
  199MOL0     C26154   7.417  -0.528  11.078 -0.2107  1.2256 -0.1273
  199MOL0     C26155   7.386  -0.530  11.208 -0.1658  0.1048 -0.3095
  199MOL0     C26156   7.361  -0.635  11.312 -0.5237 -0.1392 -0.0090
  199MOL0     C26157   7.205  -0.679  11.307  0.0086  0.0805 -0.4425
  199MOL0     C26158   7.159  -0.789  11.400 -0.6003  0.0717  0.3640
  199MOL0     C26159   7.012  -0.818  11.421 -0.2738  0.0183 -0.9040
  199MOL0     O26160   7.010  -0.963  11.445  0.5391  0.5624  0.2860
  199MOL0     C26161   6.889  -1.029  11.446  0.6790 -0.6331 -0.6919
  199MOL0     C26162   6.902  -1.171  11.463  0.5821  0.6665 -0.0834
  199MOL0     C26163   6.793  -1.259  11.478  0.0454 -0.0505 -0.2088
  199MOL0     C26164   6.664  -1.197  11.485  0.7541  0.6282  0.1720
  199MOL0     C26165   6.551  -1.281  11.495 -0.0836  0.2823  0.0909
  199MOL0     O26166   6.572  -1.412  11.461 -0.2548 -0.3855  0.3000
  199MOL0     C26167   6.458  -1.476  11.433 -0.4143  1.1165  0.6803
  199MOL0     C26168   6.391  -1.552  11.528 -0.0155 -0.2943  0.4592
  199MOL0     C26169   6.269  -1.608  11.492  0.2339  1.0259  0.7896
  199MOL0     C26170   6.213  -1.588  11.365 -0.2996  0.1570  0.4740
  199MOL0     O26171   6.094  -1.657  11.329  0.3061 -0.6660  0.0478
  199MOL0     C26172   5.992  -1.661  11.430  0.3242 -0.2738  0.3415
  199MOL0     C26173   5.862  -1.694  11.353 -0.2524 -0.0343 -0.9865
  199MOL0     C26174   5.750  -1.738  11.456  0.0042 -0.0171  0.6088
  199MOL0     C26175   5.634  -1.799  11.362 -0.9185 -0.3826 -0.2242
  199MOL0     C26176   5.507  -1.804  11.437  0.6631  0.4215  0.2175
  199MOL0     C26177   5.417  -1.903  11.359 -0.0952  0.0242  0.0767
  199MOL0     C26178   5.289  -1.932  11.435  0.0896  0.3427 -0.6230
  199MOL0     C26179   5.192  -1.811  11.458  1.1154  0.6037 -0.7853
  199MOL0    Cl26180   5.155  -1.750  11.295 -0.0077  0.1060 -0.4725
  199MOL0     C26181   6.286  -1.518  11.272  0.7598  0.1812 -0.0727
  199MOL0     C26182   6.402  -1.463  11.306  0.3556 -0.3252 -0.0474
  199MOL0     O26183   6.448  -1.235  11.547  0.4840  0.5073  0.4753
  199MOL0     C26184   6.654  -1.058  11.464  0.2967 -0.0765  0.1939
  199MOL0     C26185   6.761  -0.976  11.444 -0.0421  0.0118 -0.5947
  199MOL0     N26186   7.388  -0.393  11.251 -0.6651 -0.2003  0.3921
  199MOL0     N26187   7.423  -0.318  11.160 -0.0523  0.4532 -0.6100
  199MOL0     C26188   8.353  -0.163  10.240 -0.2277 -0.2017 -0.3554
  199MOL0     C26189   8.466  -0.099  10.197 -0.6145 -0.0910 -0.4014
  199MOL0     C26190   8.770   0.158  10.032 -0.1360  0.0699 -0.4867
  199MOL0     C26191   8.885   0.156  10.123 -1.3133 -0.1748  0.4249
  199MOL0     C26192   9.007   0.208  10.091 -0.5588 -0.3128  0.9169
  199MOL0     C26193   9.025   0.241   9.962  0.4414  0.0271  0.5457
  199MOL0     O26194   9.154   0.286   9.938 -0.2870 -0.0405 -0.2949
  199MOL0     C26195   9.195   0.315   9.805 -0.0643  0.8625 -0.0664
  199MOL0     C26196   9.348   0.296   9.791  0.0904  0.6833  0.0952
  199MOL0     C26197   9.431   0.379   9.888  0.3231 -0.2416 -0.3366
  199MOL0     C26198   9.524   0.285   9.979  0.5706 -0.2346  0.1131
  199MOL0     C26199   9.605   0.356  10.079  0.0092 -0.2381  1.2146
  199MOL0     C26200   9.678   0.416  10.159  0.7802  0.4935  0.0177
  199MOL0     C26201   8.921   0.243   9.864  0.3849 -0.2450 -0.1555
  199MOL0     C26202   8.795   0.209   9.904  1.0204  0.0465 -0.8153
  199MOL0     H26203   8.498   0.148  10.429  2.1753 -0.6509  0.1920
  199MOL0     H26204   8.274   0.065  10.486  0.7823 -0.7189  0.9214
  199MOL0     H26205   8.130  -0.310  10.301  0.1166 -0.7348 -0.4483
  199MOL0     H26206   8.080  -0.177  10.193 -5.4264  2.5074  0.8131
  199MOL0     H26207   7.884  -0.317  10.282  2.0938 -1.3134 -0.2592
  199MOL0     H26208   7.880  -0.138  10.310  1.1369  1.3043 -0.5616
  199MOL0     H26209   7.977  -0.193  10.545 -0.3542 -0.9660  2.3172
  199MOL0     H26210   7.990  -0.352  10.505  0.2792  0.7270  1.1685
  199MOL0     H26211   7.731  -0.178  10.504  2.9806  0.6566 -1.1088
  199MOL0     H26212   7.710  -0.354  10.466 -0.9649  0.6561  0.0095
  199MOL0     H26213   7.797  -0.248  10.738  0.3361  0.7046 -0.2686
  199MOL0     H26214   7.796  -0.420  10.687 -2.5714 -1.6718 -1.9543
  199MOL0     H26215   7.562  -0.406  10.677 -2.0438  2.0443 -1.7455
  199MOL0     H26216   7.568  -0.230  10.700  4.0227  2.0852  0.7441
  199MOL0     H26217   7.635  -0.429  10.916  0.7999 -1.7941 -4.0862
  199MOL0     H26218   7.638  -0.245  10.949  1.6403 -2.7056  2.6929
  199MOL0     H26219   7.378  -0.386  10.864 -3.1681  0.5332  2.1514
  199MOL0     H26220   7.403  -0.226  10.925 -0.9729 -0.4952  3.5346
  199MOL0     H26221   7.422  -0.608  11.005 -0.7258 -0.0300  1.1537
  199MOL0     H26222   7.388  -0.607  11.414 -0.2691 -1.1796  0.2263
  199MOL0     H26223   7.422  -0.715  11.270 -0.0606  1.6330 -3.0440
  199MOL0     H26224   7.174  -0.703  11.205 -0.4574  1.3497 -0.6165
  199MOL0     H26225   7.146  -0.589  11.324  3.1869  2.6065 -1.6914
  199MOL0     H26226   7.211  -0.877  11.360 -0.0225  0.1663  0.8838
  199MOL0     H26227   7.206  -0.772  11.498 -0.7125 -1.9307  0.8099
  199MOL0     H26228   6.951  -0.787  11.335  0.5813  4.0948 -0.2212
  199MOL0     H26229   6.989  -0.755  11.507 -0.7148  4.1164 -3.7622
  199MOL0     H26230   7.005  -1.203  11.472 -0.7065 -3.6749  1.6739
  199MOL0     H26231   6.810  -1.365  11.492 -0.6190 -0.5666 -2.8420
  199MOL0     H26232   6.419  -1.541  11.632  1.6901  1.9705 -0.1606
  199MOL0     H26233   6.212  -1.671  11.561  0.2959  0.5280  0.3871
  199MOL0     H26234   5.977  -1.570  11.489 -1.3821 -0.2349 -0.0994
  199MOL0     H26235   6.012  -1.740  11.503  0.4796  0.2286  0.8455
  199MOL0     H26236   5.884  -1.772  11.279 -0.2582  1.6797 -2.9051
  199MOL0     H26237   5.838  -1.606  11.292  0.8460  0.2193 -1.0831
  199MOL0     H26238   5.711  -1.660  11.521  3.3450  0.1331  2.6693
  199MOL0     H26239   5.797  -1.815  11.518  1.2194  0.6174  0.4980
  199MOL0     H26240   5.622  -1.760  11.260 -1.5636 -2.9152 -1.2084
  199MOL0     H26241   5.662  -1.903  11.342  0.4088 -0.4316  1.6879
  199MOL0     H26242   5.465  -1.704  11.452  1.3781  1.1410 -2.1496
  199MOL0     H26243   5.530  -1.854  11.531 -1.8334 -1.4415 -0.0409
  199MOL0     H26244   5.469  -1.999  11.348  0.3823 -0.1232  2.8398
  199MOL0     H26245   5.387  -1.849  11.269  0.4389  1.2799  0.6410
  199MOL0     H26246   5.237  -2.010  11.380 -0.3877 -0.8396  1.3766
  199MOL0     H26247   5.306  -1.961  11.539  2.2187  0.2240 -0.9540
  199MOL0     H26248   5.239  -1.733  11.517  0.7938 -1.2051  2.0451
  199MOL0     H26249   5.100  -1.846  11.507  1.6223  0.2437 -0.0874
  199MOL0     H26250   6.246  -1.504  11.172 -2.3523  1.2646  1.2084
  199MOL0     H26251   6.456  -1.403  11.232 -1.4760  0.9291 -0.4302
  199MOL0     H26252   6.554  -1.016  11.455  0.7906  1.3282  0.9985
  199MOL0     H26253   6.754  -0.868  11.441  0.3564  0.0376 -3.5706
  199MOL0     H26254   8.315  -0.248  10.184  1.6433  0.1583 -2.3019
  199MOL0     H26255   8.522  -0.142  10.114  1.3041  0.8976  0.3160
  199MOL0     H26256   8.868   0.123  10.225 -1.6156 -1.3824 -0.0012
  199MOL0     H26257   9.089   0.212  10.162 -0.4596  0.3349  0.7662
  199MOL0     H26258   9.166   0.418   9.783 -1.2840  0.6115  0.2613
  199MOL0     H26259   9.151   0.249   9.730 -0.3490  0.5429  0.3740
  199MOL0     H26260   9.373   0.191   9.807 -0.0420  1.0183  2.8449
  199MOL0     H26261   9.378   0.325   9.689  1.0225  1.4954  0.5778
  199MOL0     H26262   9.368   0.447   9.946  0.6470 -1.2089  1.2061
  199MOL0     H26263   9.500   0.439   9.828 -1.0169  1.7579  0.0036
  199MOL0     H26264   9.463   0.215  10.036 -1.9042  0.9837 -0.8811
  199MOL0     H26265   9.593   0.230   9.914  3.2849 -1.9090  4.0449
  199MOL0     H26266   9.721   0.477  10.235  1.9568 -3.1036  2.5210
  199MOL0     H26267   8.927   0.291   9.767 -0.9932  3.6763  1.4898
  199MOL0     H26268   8.713   0.235   9.837  1.4027  0.4508 -1.1259
  200MOL0     O26269   9.743   7.377   3.776 -0.2303 -0.3451  0.3737
  200MOL0     C26270   9.836   7.385   3.854  0.8340 -0.0091 -0.6880
  200MOL0     O26271   9.813   7.408   3.991 -0.0687 -0.0817  0.6643
  200MOL0     C26272   9.684   7.401   4.032 -0.6190 -0.6659 -0.2956
  200MOL0     C26273   9.602   7.285   4.025  0.6056  0.0031  0.2030
  200MOL0     C26274   9.461   7.282   4.054 -0.2974 -0.8646 -0.0395
  200MOL0     C26275   9.398   7.396   4.097  0.6351 -0.5024 -0.0623
  200MOL0     O26276   9.261   7.386   4.127 -0.2542 -0.1620 -0.2570
  200MOL0     C26277   9.196   7.496   4.186 -0.1203  0.0441  0.0946
  200MOL0     C26278   9.131   7.601   4.095 -0.3838  0.7073  0.2176
  200MOL0     C26279   8.984   7.615   4.101  0.6919  0.6466  0.1685
  200MOL0     C26280   8.939   7.655   4.243  0.3753 -0.6183  0.0985
  200MOL0     C26281   8.805   7.731   4.261 -0.0524 -0.3616  0.1072
  200MOL0     C26282   8.689   7.637   4.254 -0.3338  0.1754 -0.2140
  200MOL0     C26283   8.561   7.720   4.260  1.4957  0.6768  0.3027
  200MOL0     C26284   8.534   7.767   4.400 -0.8071  0.6376 -0.4393
  200MOL0     N26285   8.390   7.787   4.402  0.0226 -0.9930  0.5115
  200MOL0     C26286   8.299   7.701   4.457 -0.8294 -0.0222  0.2975
  200MOL0     C26287   8.183   7.735   4.409  0.5893  0.7538 -0.5044
  200MOL0     C26288   8.058   7.666   4.448  1.0700  0.0041 -0.7223
  200MOL0     C26289   7.944   7.770   4.457 -0.2765  0.5190 -0.5061
  200MOL0     C26290   7.983   7.865   4.579  0.3452 -0.4085  0.1578
  200MOL0     C26291   7.866   7.958   4.612 -0.0788  0.0781  0.8219
  200MOL0     O26292   7.754   7.877   4.663  0.4599 -0.1415 -0.5205
  200MOL0     C26293   7.626   7.927   4.669 -0.4144 -0.0044  0.5677
  200MOL0     C26294   7.597   8.055   4.643  0.7496  0.1267 -0.1202
  200MOL0     C26295   7.461   8.099   4.660  0.0543 -0.1371 -1.2834
  200MOL0     C26296   7.359   8.016   4.700 -0.2973 -1.0070 -0.0925
  200MOL0     C26297   7.218   8.057   4.702  0.0681  1.1476  0.2298
  200MOL0     O26298   7.124   7.956   4.701  0.3399 -0.2900 -0.4735
  200MOL0     C26299   6.985   7.992   4.694 -1.5140 -0.5248  0.1095
  200MOL0     C26300   6.920   8.101   4.756  1.0009  0.2231 -0.6996
  200MOL0     C26301   6.775   8.116   4.752  0.0452 -0.8701 -1.5128
  200MOL0     C26302   6.705   8.034   4.663  0.1808 -0.7558  0.4659
  200MOL0     O26303   6.574   8.041   4.615  0.6147  0.4016 -0.3144
  200MOL0     C26304   6.506   8.154   4.661 -0.0394 -0.2222 -0.0686
  200MOL0     C26305   6.367   8.160   4.583  1.0091 -0.7951  0.3395
  200MOL0     C26306   6.265   8.050   4.629  0.0043  0.1105  0.8094
  200MOL0     C26307   6.117   8.078   4.573 -0.3888  0.0324 -0.3501
  200MOL0     C26308   6.025   7.973   4.632 -0.6692  0.3178  0.0678
  200MOL0     C26309   5.884   7.971   4.576 -0.1559 -0.3752  1.6190
  200MOL0     C26310   5.870   7.878   4.446 -0.7038 -0.0850  0.7088
  200MOL0     C26311   5.729   7.884   4.389  0.2930 -0.0405  0.0525
  200MOL0    Cl26312   5.632   7.785   4.508  0.2113 -0.3700  0.0180
  200MOL0     C26313   6.773   7.919   4.624  0.3795 -0.3905 -1.0244
  200MOL0     C26314   6.911   7.895   4.638 -0.8784 -0.3972  0.2249
  200MOL0     O26315   7.199   8.175   4.686  0.0373  0.7764 -0.2097
  200MOL0     C26316   7.393   7.881   4.733 -0.1175 -0.2169 -0.2035
  200MOL0     C26317   7.522   7.837   4.711 -0.0832 -0.6760  0.2553
  200MOL0     N26318   8.198   7.842   4.326 -0.4543 -1.6321 -0.3363
  200MOL0     N26319   8.321   7.873   4.324 -0.4035  0.4064  0.6501
  200MOL0     C26320   9.471   7.521   4.096 -0.9741  0.1715 -0.4664
  200MOL0     C26321   9.613   7.517   4.068 -0.4043  1.0671  0.5121
  200MOL0     C26322   9.971   7.370   3.807  0.7422  0.6093 -0.8677
  200MOL0     C26323  10.081   7.362   3.908 -0.0013 -0.2427 -0.5547
  200MOL0     C26324  10.216   7.363   3.859  0.7553  1.1194  0.0400
  200MOL0     C26325  10.247   7.363   3.721 -0.7531  0.7243 -0.6610
  200MOL0     O26326  10.383   7.337   3.694  0.2901  0.1920 -0.1170
  200MOL0     C26327  10.446   7.395   3.574 -0.0079  0.2775 -0.0715
  200MOL0     C26328  10.444   7.550   3.587  0.0760 -0.1468 -0.4532
  200MOL0     C26329  10.530   7.620   3.478  0.0130 -0.1349 -0.4142
  200MOL0     C26330  10.517   7.771   3.504  0.6322 -0.8656 -0.3657
  200MOL0     C26331  10.568   7.854   3.401  0.0882 -0.4504  0.9853
  200MOL0     C26332  10.617   7.923   3.313 -0.2856  0.5996  0.4252
  200MOL0     C26333  10.143   7.355   3.632 -0.2410  0.5816 -0.0891
  200MOL0     C26334  10.003   7.365   3.671 -0.1962 -0.2574  0.6150
  200MOL0     H26335   9.639   7.186   3.998 -0.1331 -0.2494  0.0755
  200MOL0     H26336   9.400   7.193   4.066  0.3946 -1.2497  0.7654
  200MOL0     H26337   9.263   7.555   4.249  0.2838 -0.3173  0.0052
  200MOL0     H26338   9.116   7.459   4.251 -1.7882  2.5157 -0.3872
  200MOL0     H26339   9.157   7.565   3.995 -4.4197  2.3105 -1.6843
  200MOL0     H26340   9.168   7.704   4.095 -0.4344  0.7332  1.1375
  200MOL0     H26341   8.927   7.528   4.067  0.3987  1.8613 -2.8030
  200MOL0     H26342   8.954   7.699   4.037  0.4183 -0.3746 -1.0926
  200MOL0     H26343   8.925   7.560   4.296 -2.9296 -1.1237 -1.4405
  200MOL0     H26344   9.017   7.709   4.298  0.1196 -0.8368  0.6843
  200MOL0     H26345   8.804   7.805   4.181  1.3345 -2.3139 -1.8534
  200MOL0     H26346   8.799   7.783   4.357  2.3914 -0.6458  0.4776
  200MOL0     H26347   8.681   7.549   4.319 -3.5928  0.1578 -0.4383
  200MOL0     H26348   8.676   7.590   4.157 -0.1837 -2.3196  0.9014
  200MOL0     H26349   8.573   7.799   4.185  1.6143  0.4286  0.0575
  200MOL0     H26350   8.480   7.652   4.234  0.4545  1.4932  1.3163
  200MOL0     H26351   8.596   7.855   4.423  0.9611 -0.5453 -0.5063
  200MOL0     H26352   8.558   7.686   4.469 -2.8025  1.4951  1.3718
  200MOL0     H26353   8.327   7.616   4.518  1.6134 -1.7917 -3.0083
  200MOL0     H26354   8.085   7.619   4.543  2.2630  0.8015 -0.6515
  200MOL0     H26355   8.037   7.593   4.369 -0.0621  0.8368 -1.2227
  200MOL0     H26356   7.844   7.727   4.461 -0.4338  0.5362 -3.0512
  200MOL0     H26357   7.941   7.829   4.365  2.8837  1.9401  0.1700
  200MOL0     H26358   7.999   7.810   4.673 -0.2790  0.7023  0.9396
  200MOL0     H26359   8.073   7.925   4.561  0.2892 -0.0979  0.8574
  200MOL0     H26360   7.834   8.003   4.518 -0.2274 -1.5242  0.0757
  200MOL0     H26361   7.891   8.034   4.686 -0.6721 -1.6253  2.8817
  200MOL0     H26362   7.672   8.126   4.610 -1.3720  2.4825 -0.1475
  200MOL0     H26363   7.447   8.206   4.648  1.4280  0.5729  2.1851
  200MOL0     H26364   6.984   8.166   4.815 -1.6832  1.4373  1.0578
  200MOL0     H26365   6.723   8.197   4.802  0.5163  2.0420 -5.2567
  200MOL0     H26366   6.562   8.245   4.635 -0.9149 -0.0010 -1.2597
  200MOL0     H26367   6.477   8.165   4.766 -1.2627  2.8482 -0.6147
  200MOL0     H26368   6.375   8.161   4.474 -1.4157 -3.5865  0.0022
  200MOL0     H26369   6.325   8.257   4.611  1.4964  1.1212 -4.5065
  200MOL0     H26370   6.273   8.043   4.738 -1.9656  1.2566  1.0896
  200MOL0     H26371   6.303   7.957   4.587 -1.5171 -0.3374  0.3884
  200MOL0     H26372   6.073   8.177   4.590  2.6027  1.5961 -1.1255
  200MOL0     H26373   6.117   8.070   4.463  0.2000 -1.6972 -0.2665
  200MOL0     H26374   6.022   7.975   4.742 -2.2134  0.2058  0.0536
  200MOL0     H26375   6.070   7.877   4.606 -2.5411 -0.5808 -0.0337
  200MOL0     H26376   5.857   8.074   4.554 -1.7258 -0.7692  1.5348
  200MOL0     H26377   5.821   7.938   4.660 -2.5635  0.7667  0.3843
  200MOL0     H26378   5.941   7.923   4.375 -1.6724  1.0553  0.4230
  200MOL0     H26379   5.907   7.777   4.466 -0.2521 -0.4679 -1.7620
  200MOL0     H26380   5.719   7.857   4.284 -1.1723  1.1432 -0.1519
  200MOL0     H26381   5.704   7.990   4.399  0.1554 -0.0561 -0.1176
  200MOL0     H26382   6.719   7.836   4.582 -1.6944 -1.0068  2.4438
  200MOL0     H26383   6.950   7.808   4.587  0.7869 -0.9854  2.3658
  200MOL0     H26384   7.319   7.805   4.755 -0.8080 -0.1944 -2.2273
  200MOL0     H26385   7.537   7.733   4.737 -0.5716 -1.0417 -0.8430
  200MOL0     H26386   9.427   7.617   4.118 -1.5319 -0.0882 -0.4253
  200MOL0     H26387   9.661   7.614   4.076 -0.6147  1.6294 -3.0210
  200MOL0     H26388  10.062   7.362   4.015 -1.5844  2.1143 -0.7398
  200MOL0     H26389  10.299   7.351   3.928  0.6914  0.7754  0.0580
  200MOL0     H26390  10.415   7.360   3.475  2.2525  0.7073 -0.9749
  200MOL0     H26391  10.552   7.373   3.558 -0.1059  1.3112 -2.6088
  200MOL0     H26392  10.340   7.583   3.579  0.3163  0.9729  0.7049
  200MOL0     H26393  10.487   7.574   3.685  2.9851  0.5912 -1.8219
  200MOL0     H26394  10.485   7.585   3.385  2.2007 -1.7798 -0.9340
  200MOL0     H26395  10.635   7.591   3.483  0.3063  0.9008 -0.3793
  200MOL0     H26396  10.409   7.784   3.507  0.6389 -0.9445  1.7013
  200MOL0     H26397  10.556   7.799   3.603 -2.3541 -2.2349  1.3406
  200MOL0     H26398  10.665   7.967   3.228  1.2865  0.3563  1.1622
  200MOL0     H26399  10.172   7.346   3.528 -1.6496 -3.8486 -0.3362
  200MOL0     H26400   9.928   7.350   3.593  0.1188  0.8340  0.0915
  201MOL0     O26401   3.409   7.574   3.828  0.2060  0.7600  0.3154
  201MOL0     C26402   3.440   7.687   3.795  0.2262  0.2857 -0.0396
  201MOL0     O26403   3.350   7.784   3.740 -0.0315 -0.0473 -0.3515
  201MOL0     C26404   3.229   7.736   3.696 -0.2319  0.1246  0.5094
  201MOL0     C26405   3.132   7.829   3.704  0.4046  0.9068 -0.6000
  201MOL0     C26406   2.997   7.808   3.669 -0.0247 -0.0940  0.7066
  201MOL0     C26407   2.958   7.684   3.618 -0.4373  0.2393 -0.2238
  201MOL0     O26408   2.827   7.669   3.583 -0.2164  0.1064 -0.0679
  201MOL0     C26409   2.790   7.577   3.480 -0.4577 -0.6802  0.0426
  201MOL0     C26410   2.637   7.542   3.499 -0.0358  0.0505  0.0636
  201MOL0     C26411   2.537   7.653   3.474  0.4833 -0.0008  0.0499
  201MOL0     C26412   2.395   7.604   3.455 -0.8782  0.1754 -0.9773
  201MOL0     C26413   2.300   7.726   3.429  0.8240  0.4772  0.6616
  201MOL0     C26414   2.156   7.679   3.383 -0.0300  0.4267  0.0137
  201MOL0     C26415   2.082   7.800   3.327 -0.5702  0.1824  0.4951
  201MOL0     C26416   2.129   7.816   3.177  0.1484  0.2014 -0.6338
  201MOL0     N26417   2.107   7.702   3.084 -0.4370 -0.0448 -0.6181
  201MOL0     C26418   1.987   7.651   3.036 -0.2935 -0.7210  0.6531
  201MOL0     C26419   2.020   7.570   2.927 -0.0441  0.1032 -0.1998
  201MOL0     C26420   1.924   7.505   2.842  0.8711  1.0573  0.3088
  201MOL0     C26421   1.868   7.605   2.745 -0.1109  1.0639  0.4336
  201MOL0     C26422   1.753   7.522   2.677 -0.1964 -0.2540 -0.0755
  201MOL0     C26423   1.695   7.611   2.569  0.0067 -0.0791  0.0546
  201MOL0     O26424   1.638   7.743   2.610 -0.4731 -0.1316 -0.0105
  201MOL0     C26425   1.513   7.746   2.655 -0.4186  0.0340 -0.2211
  201MOL0     C26426   1.456   7.871   2.667 -0.3359  0.1083 -0.1469
  201MOL0     C26427   1.325   7.879   2.709  0.7380 -1.1879 -0.2588
  201MOL0     C26428   1.246   7.769   2.743 -0.3627  0.0881  0.3185
  201MOL0     C26429   1.108   7.790   2.787  1.3250  0.6820  0.1015
  201MOL0     O26430   1.060   7.915   2.787 -0.0388  0.4501 -0.3730
  201MOL0     C26431   0.929   7.934   2.808 -0.3628 -0.5222  0.8092
  201MOL0     C26432   0.893   8.012   2.917 -0.0247 -0.4555 -1.1172
  201MOL0     C26433   0.753   8.034   2.941  0.0839  0.3286 -0.1288
  201MOL0     C26434   0.659   7.990   2.853  1.0873 -0.7260  0.3853
  201MOL0     O26435   0.532   8.026   2.884  0.5288 -0.5522 -0.7513
  201MOL0     C26436   0.439   7.930   2.912 -0.4611 -0.2006 -0.5950
  201MOL0     C26437   0.300   7.983   2.898 -0.0786  0.5585 -0.5290
  201MOL0     C26438   0.294   8.065   2.761  0.4810 -0.6162  0.0652
  201MOL0     C26439   0.147   8.086   2.724 -0.5173 -0.1555  0.0613
  201MOL0     C26440   0.095   8.191   2.821  0.1635  0.6854 -0.2980
  201MOL0     C26441  -0.046   8.221   2.790 -0.6469 -0.2836 -0.7779
  201MOL0     C26442  -0.073   8.348   2.871  0.8611  0.2073 -0.4119
  201MOL0     C26443  -0.190   8.429   2.833 -0.2574  1.1899  1.1495
  201MOL0    Cl26444  -0.323   8.306   2.793  0.2929  0.0297  0.0221
  201MOL0     C26445   0.694   7.922   2.741  0.1228 -0.0832 -0.3870
  201MOL0     C26446   0.831   7.892   2.716  0.0406  0.0797 -0.6406
  201MOL0     O26447   1.043   7.689   2.816  0.3339 -0.3724 -0.4867
  201MOL0     C26448   1.311   7.644   2.732  0.4120 -0.5391 -0.9111
  201MOL0     C26449   1.436   7.631   2.684  0.7025 -0.2790 -0.2920
  201MOL0     N26450   2.158   7.551   2.920 -0.4462  0.3018 -1.2405
  201MOL0     N26451   2.205   7.638   3.009  0.4191  0.2139  0.0893
  201MOL0     C26452   3.057   7.588   3.603 -1.0627 -0.0737  0.5428
  201MOL0     C26453   3.192   7.614   3.636  0.5466 -0.3698 -0.3253
  201MOL0     C26454   3.578   7.737   3.810 -0.5334 -0.3455 -0.6386
  201MOL0     C26455   3.598   7.870   3.831  0.1536 -0.0312 -0.9209
  201MOL0     C26456   3.727   7.916   3.873 -0.3752 -0.1947  1.1628
  201MOL0     C26457   3.833   7.828   3.878  0.0833 -0.9260  1.2958
  201MOL0     O26458   3.955   7.881   3.915  0.0800 -0.2570 -0.0755
  201MOL0     C26459   4.070   7.798   3.907  0.4296 -0.2126  0.2194
  201MOL0     C26460   4.181   7.893   3.934 -0.2524 -0.4165 -0.0261
  201MOL0     C26461   4.319   7.818   3.934  0.5282 -0.0316  0.1178
  201MOL0     C26462   4.434   7.928   3.949  0.3408  0.2663  1.0326
  201MOL0     C26463   4.544   7.902   3.859  0.1263  0.1222  0.1914
  201MOL0     C26464   4.629   7.890   3.774 -0.7104  0.2595 -0.2011
  201MOL0     C26465   3.813   7.686   3.860 -0.5058 -0.1952 -0.2765
  201MOL0     C26466   3.685   7.645   3.828  0.7332 -0.3755  0.2931
  201MOL0     H26467   3.150   7.918   3.765 -1.4782 -0.1776  1.6999
  201MOL0     H26468   2.932   7.892   3.692  1.5821  1.6958 -0.8906
  201MOL0     H26469   2.847   7.483   3.483 -0.3017 -0.7644 -2.7812
  201MOL0     H26470   2.813   7.614   3.380 -0.4197 -1.7402 -0.3602
  201MOL0     H26471   2.620   7.513   3.603  2.6759 -2.7978 -0.1106
  201MOL0     H26472   2.610   7.452   3.442 -1.6242  0.6543 -0.1817
  201MOL0     H26473   2.560   7.706   3.382 -1.3709  2.0758  0.6924
  201MOL0     H26474   2.548   7.723   3.558  3.6774  1.0969 -1.1301
  201MOL0     H26475   2.393   7.538   3.369 -1.0590  0.0604 -0.8858
  201MOL0     H26476   2.365   7.554   3.548 -0.0314  0.7916 -0.3454
  201MOL0     H26477   2.347   7.789   3.352 -0.5521 -0.0626 -0.6640
  201MOL0     H26478   2.296   7.793   3.515  1.0624  0.8050  0.4227
  201MOL0     H26479   2.104   7.632   3.467 -1.0372 -0.1032 -0.8789
  201MOL0     H26480   2.167   7.601   3.307  2.6139  0.9307 -0.2467
  201MOL0     H26481   1.975   7.782   3.318 -1.0795  2.9785 -0.0801
  201MOL0     H26482   2.106   7.876   3.403  2.5045 -0.6157  0.4616
  201MOL0     H26483   2.235   7.842   3.165  1.6335 -3.4057  2.6723
  201MOL0     H26484   2.076   7.906   3.144 -2.5881 -0.6085  1.1883
  201MOL0     H26485   1.882   7.668   3.058  0.2970  0.9083  2.4975
  201MOL0     H26486   1.856   7.467   2.919  0.9124  3.1853  1.4781
  201MOL0     H26487   1.974   7.429   2.781 -0.7010  2.5941 -3.1434
  201MOL0     H26488   1.939   7.647   2.673  1.7283 -1.4287  0.6720
  201MOL0     H26489   1.829   7.692   2.800 -0.5110  0.6162  0.8706
  201MOL0     H26490   1.799   7.433   2.633 -0.3266 -1.1455  1.5144
  201MOL0     H26491   1.681   7.495   2.755 -2.4903 -1.1364 -2.3733
  201MOL0     H26492   1.622   7.557   2.508  0.3545 -1.1961  0.6008
  201MOL0     H26493   1.777   7.627   2.500 -1.7290 -2.5944 -2.8527
  201MOL0     H26494   1.501   7.963   2.631 -1.1040 -0.0205 -1.5426
  201MOL0     H26495   1.281   7.978   2.719 -0.9442 -2.0270  1.1567
  201MOL0     H26496   0.977   8.042   2.977  1.1700  0.6335 -3.2250
  201MOL0     H26497   0.715   8.092   3.025 -2.9219  2.9239 -3.0107
  201MOL0     H26498   0.451   7.886   3.011  0.9833  1.7528  0.1430
  201MOL0     H26499   0.453   7.857   2.831 -1.5037  2.6411 -3.5835
  201MOL0     H26500   0.276   8.050   2.981  0.7114  1.5519 -1.0770
  201MOL0     H26501   0.231   7.898   2.889  0.2860  0.1321  0.5058
  201MOL0     H26502   0.345   7.998   2.691  0.1805 -0.7942  0.0170
  201MOL0     H26503   0.354   8.157   2.762 -2.0617  1.1468 -0.7160
  201MOL0     H26504   0.138   8.137   2.628 -1.2372  0.8357  0.6357
  201MOL0     H26505   0.089   7.995   2.742 -4.3862  2.4185  2.0319
  201MOL0     H26506   0.159   8.279   2.805  1.7601  0.3012  3.0700
  201MOL0     H26507   0.090   8.157   2.925 -1.6430 -2.4050 -1.2576
  201MOL0     H26508  -0.118   8.142   2.813 -1.4397  1.1427  2.2223
  201MOL0     H26509  -0.066   8.253   2.688 -1.0027 -2.5127 -1.4403
  201MOL0     H26510  -0.099   8.316   2.973  2.4864 -1.1225 -0.3824
  201MOL0     H26511   0.010   8.418   2.879 -0.3293  1.8098 -1.5387
  201MOL0     H26512  -0.173   8.485   2.741 -1.6179  0.9060  0.7137
  201MOL0     H26513  -0.222   8.494   2.915 -2.2222 -0.2681  1.6253
  201MOL0     H26514   0.622   7.893   2.666  0.1409 -1.5574  0.1304
  201MOL0     H26515   0.863   7.840   2.626  0.2942  0.1225 -0.5737
  201MOL0     H26516   1.260   7.556   2.770  0.4012  0.8568  2.6415
  201MOL0     H26517   1.486   7.534   2.683 -1.3434 -1.3968 -0.0705
  201MOL0     H26518   3.031   7.491   3.563 -0.8695 -0.5493  1.5377
  201MOL0     H26519   3.274   7.545   3.623 -0.7012 -2.0521  0.2833
  201MOL0     H26520   3.520   7.942   3.857  0.7348 -0.6942  3.4172
  201MOL0     H26521   3.758   8.020   3.882  0.1131 -0.2796  0.5501
  201MOL0     H26522   4.092   7.762   3.806  0.5593  1.8997 -0.5496
  201MOL0     H26523   4.062   7.717   3.981  1.2069 -1.7669 -1.3323
  201MOL0     H26524   4.181   7.974   3.859  1.7724  1.1309  1.5071
  201MOL0     H26525   4.172   7.940   4.032  1.8289 -2.3236  1.1622
  201MOL0     H26526   4.327   7.765   3.839 -0.5727 -2.1119  1.1327
  201MOL0     H26527   4.338   7.752   4.019 -0.4758  0.8251  1.0360
  201MOL0     H26528   4.397   8.027   3.920 -3.4028 -1.3529 -0.3800
  201MOL0     H26529   4.467   7.921   4.053 -1.2877 -1.0767  1.5006
  201MOL0     H26530   4.695   7.871   3.692 -1.3282  0.2055 -0.6928
  201MOL0     H26531   3.892   7.612   3.857 -0.9830 -0.8105  1.3083
  201MOL0     H26532   3.662   7.545   3.792  1.8732 -0.2323 -0.9138
  202MOL0     O26533   6.465  10.773   4.536 -0.0844 -0.1509  0.2744
  202MOL0     C26534   6.493  10.657   4.509  0.5833  0.0361  1.0974
  202MOL0     O26535   6.449  10.541   4.566  0.4706 -0.2689 -0.5568
  202MOL0     C26536   6.394  10.559   4.692 -0.2287 -0.4473  0.4355
  202MOL0     C26537   6.458  10.619   4.808 -0.1890  0.6693  0.3168
  202MOL0     C26538   6.395  10.662   4.924  0.5411  0.2122  0.7704
  202MOL0     C26539   6.255  10.632   4.935  0.1666 -1.0213  0.4768
  202MOL0     O26540   6.192  10.675   5.054 -0.5943 -0.0508 -0.2468
  202MOL0     C26541   6.108  10.580   5.113 -0.5587  0.2627 -0.1174
  202MOL0     C26542   6.126  10.594   5.263  1.2721  0.3050  0.1270
  202MOL0     C26543   6.038  10.489   5.340 -0.6853  0.4749 -0.1850
  202MOL0     C26544   5.882  10.512   5.334 -0.1670 -1.1380 -0.2343
  202MOL0     C26545   5.798  10.416   5.413  1.2154  0.3521  0.4959
  202MOL0     C26546   5.645  10.417   5.371 -0.0367  0.3264  0.1680
  202MOL0     C26547   5.632  10.334   5.242  0.2964  0.4340 -0.7241
  202MOL0     C26548   5.492  10.347   5.183  0.2576  0.7448  0.9678
  202MOL0     N26549   5.392  10.282   5.272 -0.7500  0.5015  0.2931
  202MOL0     C26550   5.333  10.164   5.237  0.3643  0.3767 -0.3232
  202MOL0     C26551   5.225  10.147   5.316  0.3230  0.3132 -0.4910
  202MOL0     C26552   5.130  10.034   5.336 -0.8720 -0.1058  1.2831
  202MOL0     C26553   5.186   9.947   5.454 -0.2087 -0.2113 -0.7888
  202MOL0     C26554   5.113   9.809   5.481 -0.5128 -0.1550  0.2706
  202MOL0     C26555   4.972   9.840   5.537 -1.0650 -0.0845  0.3606
  202MOL0     O26556   4.902   9.718   5.572  0.0785  0.4352 -0.6618
  202MOL0     C26557   4.773   9.711   5.520  0.2038 -0.4294 -0.1201
  202MOL0     C26558   4.672   9.792   5.576  0.2201 -0.4300  0.6681
  202MOL0     C26559   4.544   9.794   5.516 -0.0950  0.6806 -0.9402
  202MOL0     C26560   4.523   9.727   5.392  0.3809  0.4031 -0.2949
  202MOL0     C26561   4.389   9.742   5.329  0.0184  0.3568  1.2497
  202MOL0     O26562   4.383   9.695   5.201  0.5643  0.2371  0.1831
  202MOL0     C26563   4.260   9.694   5.142 -0.1193  0.4500 -0.3582
  202MOL0     C26564   4.196   9.568   5.138 -0.2254 -0.2523  0.5091
  202MOL0     C26565   4.069   9.553   5.082 -0.0079  0.7345  0.0546
  202MOL0     C26566   4.002   9.654   5.014  0.1994 -0.5163 -0.4843
  202MOL0     O26567   3.876   9.631   4.969  0.7540 -0.6377 -0.4257
  202MOL0     C26568   3.811   9.667   4.847  0.1009 -0.4966  0.1507
  202MOL0     C26569   3.736   9.800   4.857 -0.0025  0.9191  0.5071
  202MOL0     C26570   3.642   9.812   4.981 -0.2587 -0.6452  0.2723
  202MOL0     C26571   3.523   9.711   4.966 -1.0441 -0.8161 -0.9661
  202MOL0     C26572   3.420   9.757   4.867  0.4930 -0.0601 -0.0611
  202MOL0     C26573   3.389   9.910   4.863 -0.1183  0.3214  0.1035
  202MOL0     C26574   3.255   9.925   4.786  0.1373 -0.0734  0.2656
  202MOL0     C26575   3.260   9.889   4.635  0.1298 -0.3622  0.6754
  202MOL0    Cl26576   3.101   9.915   4.558 -0.2127 -0.3479  0.4812
  202MOL0     C26577   4.074   9.780   5.013  0.0721 -0.4787 -0.7509
  202MOL0     C26578   4.203   9.796   5.072 -0.6153 -1.2650  0.8162
  202MOL0     O26579   4.295   9.790   5.388  0.3502  0.7122  0.3161
  202MOL0     C26580   4.629   9.648   5.333  0.1310  0.4625 -0.2170
  202MOL0     C26581   4.750   9.644   5.397  0.4846 -0.5781  0.2824
  202MOL0     N26582   5.230  10.259   5.403  0.0036  0.3133 -0.2452
  202MOL0     N26583   5.322  10.345   5.367  0.0426  0.9321 -0.1701
  202MOL0     C26584   6.190  10.576   4.827  1.4995 -0.5727 -0.3743
  202MOL0     C26585   6.252  10.543   4.704  0.5478 -0.0683 -0.3303
  202MOL0     C26586   6.583  10.636   4.397  0.0867 -0.5209 -0.1172
  202MOL0     C26587   6.587  10.511   4.328 -0.0025  0.2182  0.0537
  202MOL0     C26588   6.680  10.493   4.227  0.1572 -0.0330  0.5268
  202MOL0     C26589   6.752  10.611   4.171 -0.3335  0.7448  0.4946
  202MOL0     O26590   6.836  10.588   4.066 -0.7686 -0.5995  0.4526
  202MOL0     C26591   6.862  10.697   3.977  0.6003  0.2494  0.5591
  202MOL0     C26592   6.914  10.660   3.832  0.0241 -0.6101 -0.0209
  202MOL0     C26593   6.848  10.540   3.779  0.1281 -0.8930 -0.0276
  202MOL0     C26594   6.917  10.496   3.648 -0.3376  0.5346 -0.1425
  202MOL0     C26595   7.017  10.396   3.669 -0.0631  0.6807  0.4021
  202MOL0     C26596   7.092  10.308   3.684 -0.7237  0.5405 -0.3018
  202MOL0     C26597   6.740  10.732   4.234 -0.7761 -0.1703 -0.5240
  202MOL0     C26598   6.658  10.748   4.345 -0.2171  0.3180  0.0837
  202MOL0     H26599   6.564  10.644   4.799  0.0384  0.7600  2.6460
  202MOL0     H26600   6.452  10.707   5.004  1.7166  1.9381 -0.9374
  202MOL0     H26601   6.145  10.483   5.077 -0.8482 -0.2400  0.8999
  202MOL0     H26602   6.003  10.594   5.084  0.1870  0.4014 -3.0505
  202MOL0     H26603   6.099  10.694   5.296  2.7241  1.7422 -2.6820
  202MOL0     H26604   6.231  10.578   5.291  1.1038 -1.2984 -0.0375
  202MOL0     H26605   6.067  10.501   5.445  1.1305  0.4063 -0.6478
  202MOL0     H26606   6.070  10.390   5.306 -0.0476  1.2833 -2.0707
  202MOL0     H26607   5.864  10.617   5.360 -0.6955 -1.0179 -1.0468
  202MOL0     H26608   5.857  10.498   5.229  1.8010 -1.5836 -0.6742
  202MOL0     H26609   5.805  10.428   5.522  0.7732 -2.0413  0.8611
  202MOL0     H26610   5.839  10.314   5.417 -3.5605 -1.8218  1.9168
  202MOL0     H26611   5.613  10.517   5.342 -0.2833  0.0439 -0.5573
  202MOL0     H26612   5.575  10.379   5.446 -2.5516  0.9587 -1.7541
  202MOL0     H26613   5.695  10.380   5.165 -0.3140  0.4885 -1.1959
  202MOL0     H26614   5.662  10.233   5.271 -1.7819  0.6910  2.9307
  202MOL0     H26615   5.486  10.298   5.085 -1.4024 -0.5330  1.6393
  202MOL0     H26616   5.461  10.452   5.179 -0.6163  0.4963  0.7868
  202MOL0     H26617   5.369  10.098   5.159  0.0159  1.6153 -1.5551
  202MOL0     H26618   5.123   9.978   5.242 -0.3803  1.3955  0.3124
  202MOL0     H26619   5.033  10.072   5.371 -0.2227  1.7297  1.2095
  202MOL0     H26620   5.195  10.003   5.547 -1.3108  1.9695 -1.9093
  202MOL0     H26621   5.289   9.926   5.424 -0.6613 -2.2842 -1.0505
  202MOL0     H26622   5.117   9.754   5.386  0.3431 -0.6299  0.5777
  202MOL0     H26623   5.153   9.745   5.560 -1.5714 -2.0933 -0.6739
  202MOL0     H26624   4.911   9.893   5.462 -4.1169 -1.9888  1.3421
  202MOL0     H26625   4.992   9.898   5.628 -0.6113  1.1324 -0.4808
  202MOL0     H26626   4.689   9.859   5.660  0.4461  3.5600 -2.2995
  202MOL0     H26627   4.466   9.850   5.566  2.7857 -0.1748  5.5605
  202MOL0     H26628   4.231   9.477   5.185 -0.1376  0.0564  1.0541
  202MOL0     H26629   4.020   9.456   5.091 -0.6572  1.0201 -0.3136
  202MOL0     H26630   3.745   9.582   4.827 -2.5540  1.0916  1.5540
  202MOL0     H26631   3.889   9.671   4.771  0.0876  0.3770  0.1712
  202MOL0     H26632   3.681   9.806   4.763  0.3579 -2.2182  0.0052
  202MOL0     H26633   3.815   9.873   4.876 -0.7495  1.8378  0.1991
  202MOL0     H26634   3.620   9.919   4.993  2.0686 -0.1229  0.2008
  202MOL0     H26635   3.694   9.786   5.073 -0.5029  0.2253  0.6683
  202MOL0     H26636   3.552   9.609   4.940 -1.2579 -1.4883  1.2712
  202MOL0     H26637   3.483   9.719   5.067  0.7119  3.3851 -0.3975
  202MOL0     H26638   3.334   9.693   4.894  0.7856 -0.7013 -0.6189
  202MOL0     H26639   3.449   9.720   4.768  0.4762 -1.3188  0.3797
  202MOL0     H26640   3.471   9.958   4.808 -2.0515  2.4124 -1.1123
  202MOL0     H26641   3.367   9.932   4.968 -2.5189  2.0885 -0.6795
  202MOL0     H26642   3.176   9.866   4.832 -0.4959  2.3365  2.4912
  202MOL0     H26643   3.231  10.031   4.797  0.8988  0.0918  0.4096
  202MOL0     H26644   3.280   9.782   4.624 -0.2510 -0.2933 -0.9721
  202MOL0     H26645   3.345   9.939   4.586 -0.9937  2.0737  1.0378
  202MOL0     H26646   4.031   9.867   4.965  0.6586  0.4956  0.4264
  202MOL0     H26647   4.251   9.893   5.058 -0.9034 -1.3023 -0.6577
  202MOL0     H26648   4.616   9.591   5.242  1.0325 -2.4060  1.3419
  202MOL0     H26649   4.831   9.590   5.349 -0.8265 -1.8635 -0.6012
  202MOL0     H26650   6.083  10.564   4.837  1.4802 -0.2034 -0.1086
  202MOL0     H26651   6.200  10.509   4.615 -0.2850  1.1490 -0.3212
  202MOL0     H26652   6.532  10.425   4.366  1.5307 -2.1693 -2.6348
  202MOL0     H26653   6.686  10.402   4.169  2.9411  0.8995 -0.8835
  202MOL0     H26654   6.937  10.767   4.015  0.6981  0.6226 -0.2947
  202MOL0     H26655   6.773  10.761   3.968 -0.6230 -1.4479  0.1260
  202MOL0     H26656   6.910  10.744   3.762 -0.4696  0.5319  1.3276
  202MOL0     H26657   7.021  10.637   3.841  0.4793  1.3130  0.0168
  202MOL0     H26658   6.744  10.568   3.757  0.7851  2.2701  0.4256
  202MOL0     H26659   6.853  10.456   3.849 -4.2673 -0.3358  1.2620
  202MOL0     H26660   6.838  10.441   3.595 -0.0977 -1.6715  1.6133
  202MOL0     H26661   6.958  10.579   3.591  0.0878 -0.5176 -1.4242
  202MOL0     H26662   7.152  10.219   3.689  3.2100  2.7068 -3.4960
  202MOL0     H26663   6.785  10.827   4.208 -1.7619  1.1995  2.3006
  202MOL0     H26664   6.633  10.841   4.394 -4.8262 -1.5425  1.8642
  203MOL0     O26665   9.964   8.806   4.765  0.0223  0.2229  0.6980
  203MOL0     C26666   9.962   8.704   4.835  0.8816  0.6340  0.0291
  203MOL0     O26667   9.866   8.681   4.932 -0.2301 -0.2512  0.3767
  203MOL0     C26668   9.753   8.757   4.922  0.1607 -0.1082  1.2173
  203MOL0     C26669   9.642   8.702   4.871  0.3195 -0.8534 -0.4255
  203MOL0     C26670   9.526   8.781   4.881 -0.9032 -1.1340  1.1215
  203MOL0     C26671   9.520   8.911   4.931  0.0680 -0.9665 -0.6886
  203MOL0     O26672   9.404   8.985   4.925 -0.4810  0.1079  0.2829
  203MOL0     C26673   9.299   8.957   4.832  0.8581 -0.0871 -0.0620
  203MOL0     C26674   9.216   9.076   4.814 -0.0682 -0.3432  0.0239
  203MOL0     C26675   9.067   9.042   4.758  0.1808  1.2759  0.2699
  203MOL0     C26676   8.984   9.168   4.754 -0.4929 -0.1846  0.3967
  203MOL0     C26677   8.849   9.129   4.690  0.5447 -0.4296 -0.2674
  203MOL0     C26678   8.788   9.269   4.655  0.8180  0.6558  0.8758
  203MOL0     C26679   8.688   9.253   4.540 -0.4228  0.1903 -1.2966
  203MOL0     C26680   8.634   9.387   4.497  0.7958 -0.6273  0.0358
  203MOL0     N26681   8.512   9.364   4.423 -0.1304 -0.4320 -0.4384
  203MOL0     C26682   8.389   9.409   4.460  0.4923 -0.7598  0.3161
  203MOL0     C26683   8.304   9.369   4.356  0.3418 -0.4987  0.0375
  203MOL0     C26684   8.157   9.407   4.347 -1.1229  0.0246  0.3856
  203MOL0     C26685   8.107   9.403   4.199  0.0345  0.0064  0.2112
  203MOL0     C26686   8.016   9.523   4.170  0.8434 -0.3752  1.1365
  203MOL0     C26687   7.878   9.520   4.230  0.7395 -0.4104  0.4249
  203MOL0     O26688   7.879   9.465   4.359  0.3167 -0.4472 -0.2438
  203MOL0     C26689   7.760   9.410   4.399 -0.0312 -0.2291 -1.0701
  203MOL0     C26690   7.637   9.484   4.384 -0.1985  0.0822 -0.6125
  203MOL0     C26691   7.520   9.449   4.447 -0.5368  0.1713 -0.6321
  203MOL0     C26692   7.509   9.315   4.503  0.3052 -0.6954 -0.0166
  203MOL0     C26693   7.374   9.263   4.539  0.5829 -0.7041 -0.0848
  203MOL0     O26694   7.373   9.135   4.580  0.0171 -0.0064 -0.7943
  203MOL0     C26695   7.262   9.096   4.659 -0.0793 -0.6614  0.4561
  203MOL0     C26696   7.286   9.034   4.783 -0.1544 -0.3353 -0.2177
  203MOL0     C26697   7.178   9.013   4.869 -0.4960  0.8969  0.4240
  203MOL0     C26698   7.048   9.030   4.824 -0.3792 -0.1448  0.4828
  203MOL0     O26699   6.951   9.004   4.919 -0.1824  0.2397 -0.1173
  203MOL0     C26700   6.816   9.051   4.907 -0.4384 -0.1369 -0.1276
  203MOL0     C26701   6.736   8.945   4.816  0.4815 -0.2434 -0.5793
  203MOL0     C26702   6.586   8.978   4.835  0.7613 -0.3099 -1.1485
  203MOL0     C26703   6.542   9.047   4.699 -0.5882  0.4126 -0.6764
  203MOL0     C26704   6.403   9.101   4.717  0.1725  0.7933  0.3539
  203MOL0     C26705   6.402   9.220   4.805 -0.3731  0.0836  0.0695
  203MOL0     C26706   6.258   9.277   4.830  0.3593 -0.2457 -0.5037
  203MOL0     C26707   6.269   9.387   4.941 -0.7397  0.6814  0.2436
  203MOL0    Cl26708   6.339   9.534   4.868  0.1507  0.3869 -0.0309
  203MOL0     C26709   7.023   9.080   4.695  0.0878 -0.0777 -0.1456
  203MOL0     C26710   7.127   9.114   4.614 -1.1314  0.7243  0.2663
  203MOL0     O26711   7.276   9.335   4.527  0.1404 -0.5527  0.3124
  203MOL0     C26712   7.626   9.242   4.518 -0.9843 -0.0035 -0.1386
  203MOL0     C26713   7.754   9.292   4.472 -0.0314 -0.5747 -0.0297
  203MOL0     N26714   8.373   9.303   4.260 -0.1988  0.6785  0.8756
  203MOL0     N26715   8.495   9.294   4.304  0.6088  0.4486 -0.4641
  203MOL0     C26716   9.636   8.964   4.988 -0.9297  0.1957  0.4570
  203MOL0     C26717   9.755   8.884   4.980  0.4176 -0.1013  0.3301
  203MOL0     C26718  10.087   8.625   4.847  0.4510  0.8922 -0.2138
  203MOL0     C26719  10.200   8.660   4.762  1.0861  0.8011 -0.0666
  203MOL0     C26720  10.325   8.591   4.777 -0.1956 -0.5577 -0.0811
  203MOL0     C26721  10.345   8.493   4.872 -0.0905 -0.1799  0.1017
  203MOL0     O26722  10.461   8.427   4.888  0.1810  0.8172 -0.4008
  203MOL0     C26723  10.569   8.456   4.810  0.2234  0.6024  0.0809
  203MOL0     C26724  10.669   8.342   4.835 -0.1343 -0.4525  0.0214
  203MOL0     C26725  10.818   8.378   4.821 -1.9155 -0.1818 -0.0208
  203MOL0     C26726  10.915   8.255   4.843  0.3963  0.3547 -0.1329
  203MOL0     C26727  10.887   8.201   4.971  0.5525  0.8124 -0.5751
  203MOL0     C26728  10.865   8.159   5.083 -0.4624  0.3986  1.1959
  203MOL0     C26729  10.241   8.462   4.959 -0.4046 -0.5923  0.7677
  203MOL0     C26730  10.111   8.527   4.947  0.1026  0.9208 -0.0782
  203MOL0     H26731   9.645   8.605   4.823 -1.6840 -2.1792  1.8837
  203MOL0     H26732   9.435   8.743   4.835 -0.8478  0.7494 -0.6749
  203MOL0     H26733   9.227   8.887   4.874  2.9396 -2.5773 -0.3561
  203MOL0     H26734   9.337   8.919   4.737 -1.9013 -1.3801 -0.7463
  203MOL0     H26735   9.256   9.134   4.731 -0.1877 -1.5968 -0.9424
  203MOL0     H26736   9.197   9.133   4.906 -3.3369  0.0573 -0.8035
  203MOL0     H26737   9.017   8.968   4.820 -2.5239  1.6407 -1.3014
  203MOL0     H26738   9.089   9.004   4.657 -0.3375  3.7725 -0.8565
  203MOL0     H26739   8.965   9.221   4.848 -3.4204 -0.4058  0.0145
  203MOL0     H26740   9.031   9.241   4.688 -0.6151 -0.9017 -0.5011
  203MOL0     H26741   8.768   9.088   4.752  1.2363 -2.1462 -0.4640
  203MOL0     H26742   8.861   9.056   4.610 -2.3040 -2.4179  0.9478
  203MOL0     H26743   8.865   9.341   4.626  0.0052  1.1013 -0.2660
  203MOL0     H26744   8.742   9.313   4.744  0.0297  0.8380  0.3966
  203MOL0     H26745   8.743   9.207   4.458 -0.4195 -0.0356 -1.1691
  203MOL0     H26746   8.615   9.182   4.579  0.9737 -1.4570 -1.5782
  203MOL0     H26747   8.701   9.430   4.422 -2.1676 -0.1506 -2.5441
  203MOL0     H26748   8.612   9.456   4.579 -1.2785 -0.8672 -0.2583
  203MOL0     H26749   8.366   9.463   4.551 -0.9419 -1.1721  0.2173
  203MOL0     H26750   8.147   9.502   4.400  3.8265 -0.0785  1.9623
  203MOL0     H26751   8.108   9.325   4.401 -0.5866  0.1070  0.9970
  203MOL0     H26752   8.069   9.302   4.183  0.8304 -0.3385  0.4311
  203MOL0     H26753   8.191   9.410   4.129  0.0245  2.1524  0.3449
  203MOL0     H26754   8.069   9.614   4.200  1.5060 -0.1746 -0.5300
  203MOL0     H26755   7.995   9.532   4.063 -1.4078 -0.2630  1.5414
  203MOL0     H26756   7.814   9.459   4.165 -0.0443  0.7238  0.0935
  203MOL0     H26757   7.826   9.617   4.232 -0.8089 -1.1988  0.2968
  203MOL0     H26758   7.636   9.577   4.329 -1.5093 -0.1677 -1.0434
  203MOL0     H26759   7.434   9.514   4.436 -1.2695 -0.5610  0.5666
  203MOL0     H26760   7.387   9.019   4.820 -0.8310  0.8438  2.3207
  203MOL0     H26761   7.212   8.986   4.968  0.9498  0.9935 -0.0167
  203MOL0     H26762   6.815   9.156   4.874 -0.8883  0.7056  2.3849
  203MOL0     H26763   6.780   9.048   5.010  3.9124 -0.2469  1.5909
  203MOL0     H26764   6.754   8.842   4.846  1.8875 -0.0925 -0.8059
  203MOL0     H26765   6.762   8.956   4.710  0.5963  1.8783 -0.3903
  203MOL0     H26766   6.570   9.039   4.924 -1.1684  1.8093 -2.8122
  203MOL0     H26767   6.531   8.884   4.852  2.4409 -1.3434 -1.2384
  203MOL0     H26768   6.606   9.133   4.677  0.4646 -0.2996 -0.4760
  203MOL0     H26769   6.556   8.984   4.610 -0.0005  0.4398 -0.6123
  203MOL0     H26770   6.346   9.017   4.757 -0.8836  0.8840 -0.8685
  203MOL0     H26771   6.353   9.132   4.624  0.1432  2.7787  0.9874
  203MOL0     H26772   6.468   9.300   4.770  0.9145 -0.2999  1.5112
  203MOL0     H26773   6.435   9.188   4.904 -1.1953 -1.1576 -0.0401
  203MOL0     H26774   6.223   9.313   4.733 -0.0409 -0.5611 -0.4805
  203MOL0     H26775   6.191   9.202   4.873 -0.1138  1.0644  1.1591
  203MOL0     H26776   6.331   9.358   5.026 -0.2853  2.8400  0.7218
  203MOL0     H26777   6.170   9.396   4.987 -2.7518 -1.8721 -3.1226
  203MOL0     H26778   6.926   9.087   4.647  0.3950  0.2259 -0.7445
  203MOL0     H26779   7.125   9.161   4.516  4.2156 -1.5953 -1.3677
  203MOL0     H26780   7.623   9.149   4.574 -1.0258  1.0273  1.6525
  203MOL0     H26781   7.849   9.242   4.487  1.1908  2.0362  1.7942
  203MOL0     H26782   9.635   9.061   5.035  1.9949  1.3850 -1.6494
  203MOL0     H26783   9.850   8.923   5.016  0.6328  1.4213 -1.7255
  203MOL0     H26784  10.180   8.749   4.704  0.3426  1.3450  0.9913
  203MOL0     H26785  10.410   8.633   4.725 -0.0287  0.4875  0.9889
  203MOL0     H26786  10.617   8.551   4.837  0.0336  1.0499 -1.1137
  203MOL0     H26787  10.560   8.457   4.701  0.6263  0.6651  0.0459
  203MOL0     H26788  10.642   8.302   4.933 -1.4522 -0.2118 -0.2241
  203MOL0     H26789  10.650   8.256   4.771  0.1558 -0.3527 -0.2034
  203MOL0     H26790  10.846   8.458   4.890  0.0040 -0.4340 -0.4610
  203MOL0     H26791  10.840   8.415   4.720  2.0254  0.5923  0.9546
  203MOL0     H26792  10.889   8.187   4.761 -2.7194  1.4213 -0.1812
  203MOL0     H26793  11.017   8.290   4.831 -0.4171  2.3065 -1.8877
  203MOL0     H26794  10.836   8.145   5.185 -0.2187 -0.0585  1.2084
  203MOL0     H26795  10.241   8.383   5.034 -3.0212 -0.7465  0.6900
  203MOL0     H26796  10.034   8.515   5.023  1.0059 -0.4082  0.6655
  204MOL0     O26797   1.673   3.096   3.042 -0.0294  0.5932  0.5031
  204MOL0     C26798   1.653   3.177   3.132 -0.7564 -0.5401 -0.3750
  204MOL0     O26799   1.732   3.208   3.240 -0.0733 -0.1073  0.0630
  204MOL0     C26800   1.855   3.158   3.249  0.8129  0.5035 -0.0176
  204MOL0     C26801   1.964   3.201   3.165  0.8862 -0.2743 -1.4931
  204MOL0     C26802   2.086   3.145   3.187 -0.3346  0.1103 -0.5938
  204MOL0     C26803   2.108   3.032   3.277 -0.1412 -0.5930  1.0251
  204MOL0     O26804   2.230   2.967   3.283  0.1429  0.2583 -1.2240
  204MOL0     C26805   2.355   3.030   3.239 -0.1035 -0.3208 -0.3070
  204MOL0     C26806   2.457   2.932   3.212  0.4874  0.7107  0.7425
  204MOL0     C26807   2.406   2.851   3.088 -0.5674 -0.4293 -0.4677
  204MOL0     C26808   2.448   2.705   3.078  0.5024  0.2267 -0.2623
  204MOL0     C26809   2.418   2.656   2.937 -0.5388  0.7192  0.5576
  204MOL0     C26810   2.424   2.499   2.940 -0.6530 -0.2249 -0.1551
  204MOL0     C26811   2.294   2.433   2.994 -1.0994 -0.0761  0.2307
  204MOL0     C26812   2.323   2.284   2.999  0.2116  0.5475 -0.2281
  204MOL0     N26813   2.202   2.214   3.052 -0.0376 -0.3031 -0.0935
  204MOL0     C26814   2.147   2.214   3.183 -0.6912  0.2703 -0.0443
  204MOL0     C26815   2.047   2.123   3.183 -0.9113 -0.2827 -0.4053
  204MOL0     C26816   1.968   2.071   3.293  0.3616 -1.3790  0.7466
  204MOL0     C26817   1.988   2.143   3.420  1.0690 -0.3202  0.2849
  204MOL0     C26818   1.901   2.085   3.526 -0.6258  0.2955  0.4130
  204MOL0     C26819   1.751   2.130   3.520 -0.5345  0.1426  0.1206
  204MOL0     O26820   1.686   2.091   3.646  0.1670 -0.5013 -0.0130
  204MOL0     C26821   1.560   2.163   3.664 -1.0941 -0.3221 -0.0080
  204MOL0     C26822   1.495   2.159   3.786  0.5401  0.2656  0.8692
  204MOL0     C26823   1.372   2.222   3.813 -0.0855 -0.3211  0.2501
  204MOL0     C26824   1.304   2.295   3.709  0.3356  0.4347  0.7684
  204MOL0     C26825   1.173   2.346   3.719  0.3199  0.6204  0.2582
  204MOL0     O26826   1.124   2.329   3.846  0.3357 -0.1951  0.0598
  204MOL0     C26827   0.997   2.367   3.895 -0.5907  0.2944 -0.0041
  204MOL0     C26828   0.975   2.318   4.022 -0.1777  0.3228 -0.0793
  204MOL0     C26829   0.847   2.355   4.082 -0.9204  0.5567  0.0013
  204MOL0     C26830   0.747   2.430   4.024 -0.1714 -0.1270 -0.5229
  204MOL0     O26831   0.621   2.447   4.082 -0.6029  0.2721 -0.1780
  204MOL0     C26832   0.590   2.407   4.211 -0.2920  0.4271  0.5729
  204MOL0     C26833   0.663   2.473   4.318 -0.7710  0.7540  0.3976
  204MOL0     C26834   0.663   2.367   4.437 -0.2896 -0.0384  0.5122
  204MOL0     C26835   0.773   2.384   4.536 -0.5848 -0.0919  0.1198
  204MOL0     C26836   0.800   2.263   4.629 -0.0117 -0.3257 -0.3755
  204MOL0     C26837   0.933   2.281   4.708 -0.7040  0.8193 -0.0595
  204MOL0     C26838   1.048   2.233   4.622 -0.1480 -0.1874  0.4805
  204MOL0     C26839   1.189   2.250   4.676  0.2141  0.0077  0.4039
  204MOL0    Cl26840   1.236   2.421   4.682 -0.9628  0.2039  0.0196
  204MOL0     C26841   0.781   2.476   3.894 -0.4271  0.7459  0.0268
  204MOL0     C26842   0.907   2.453   3.831  0.0383  0.0922  0.6456
  204MOL0     O26843   1.109   2.375   3.621  0.0373 -0.6182 -0.2843
  204MOL0     C26844   1.370   2.302   3.583  0.2681  0.2054 -0.4645
  204MOL0     C26845   1.490   2.230   3.560 -0.0224  0.5276 -0.3208
  204MOL0     N26846   2.045   2.071   3.060 -1.0187  0.4914 -0.5401
  204MOL0     N26847   2.134   2.129   2.976 -0.0746  0.4907  0.1539
  204MOL0     C26848   2.003   2.987   3.343 -0.5804  0.2658  0.3508
  204MOL0     C26849   1.879   3.049   3.336 -0.3833  0.1940 -0.5989
  204MOL0     C26850   1.528   3.256   3.117 -0.0028  0.1459  0.2668
  204MOL0     C26851   1.507   3.372   3.201  0.6764 -0.3493  0.3251
  204MOL0     C26852   1.392   3.448   3.189  0.2449 -1.0992 -0.0894
  204MOL0     C26853   1.293   3.417   3.098  0.0055 -0.9158  0.4952
  204MOL0     O26854   1.187   3.509   3.092 -0.4048  0.1379 -0.2912
  204MOL0     C26855   1.056   3.477   3.036 -0.1597 -0.2842  1.1293
  204MOL0     C26856   0.988   3.610   3.021 -0.1767  0.8200 -0.4471
  204MOL0     C26857   0.844   3.582   2.981  0.1817 -0.0209  0.2217
  204MOL0     C26858   0.765   3.709   2.969  0.0276  0.0235  0.6828
  204MOL0     C26859   0.632   3.681   2.914 -0.9460 -0.6785 -0.4171
  204MOL0     C26860   0.520   3.678   2.880 -0.2647  0.2539 -0.5391
  204MOL0     C26861   1.310   3.305   3.018  1.4395  0.1070  0.0061
  204MOL0     C26862   1.422   3.230   3.022 -0.2130 -0.2160 -0.7483
  204MOL0     H26863   1.952   3.285   3.097  0.2341 -0.2160 -1.3183
  204MOL0     H26864   2.174   3.170   3.130  1.3223 -2.3466  0.6701
  204MOL0     H26865   2.398   3.086   3.322 -1.3784 -0.8339  0.7363
  204MOL0     H26866   2.345   3.097   3.153 -0.1666  1.0983  0.7681
  204MOL0     H26867   2.463   2.869   3.302 -0.4535  2.7799  2.3299
  204MOL0     H26868   2.555   2.975   3.191  0.5821  0.7205  1.1772
  204MOL0     H26869   2.447   2.901   2.999 -2.6352 -0.4954 -1.5213
  204MOL0     H26870   2.298   2.850   3.074 -0.8873 -2.8428  1.6091
  204MOL0     H26871   2.552   2.693   3.108 -0.2073 -3.3036  1.3636
  204MOL0     H26872   2.386   2.652   3.151 -0.0670 -0.9902 -1.5804
  204MOL0     H26873   2.498   2.692   2.873  1.9145  0.5979  3.3536
  204MOL0     H26874   2.321   2.687   2.895 -1.3901 -1.6719  0.6028
  204MOL0     H26875   2.498   2.459   3.010 -1.2775 -0.9804  0.0885
  204MOL0     H26876   2.446   2.461   2.840 -1.9253 -0.3523 -0.4022
  204MOL0     H26877   2.280   2.466   3.097 -1.0816 -0.8732  0.4882
  204MOL0     H26878   2.209   2.455   2.928  0.8575  1.1385 -2.0227
  204MOL0     H26879   2.409   2.269   3.066 -0.4176 -1.5424  0.2077
  204MOL0     H26880   2.345   2.238   2.902  0.3666 -1.9235  0.8908
  204MOL0     H26881   2.178   2.282   3.262 -0.5702  0.6338 -0.4044
  204MOL0     H26882   2.013   1.973   3.310  2.8422 -1.1897 -3.3986
  204MOL0     H26883   1.864   2.050   3.268 -0.3668  0.0021  2.4321
  204MOL0     H26884   1.962   2.248   3.407 -0.3068 -0.8321 -1.5490
  204MOL0     H26885   2.096   2.134   3.440  1.3676 -1.0352 -1.5143
  204MOL0     H26886   1.890   1.976   3.524 -2.0077  0.4400 -0.5091
  204MOL0     H26887   1.948   2.104   3.624 -0.0422  0.1816  0.1579
  204MOL0     H26888   1.702   2.077   3.437 -2.3012  0.7504  0.7226
  204MOL0     H26889   1.737   2.237   3.499 -0.5822  0.3538  1.2090
  204MOL0     H26890   1.535   2.101   3.868  0.2779 -0.9783  0.1482
  204MOL0     H26891   1.329   2.213   3.912 -0.0328 -1.1236  0.2076
  204MOL0     H26892   1.048   2.250   4.065 -0.7519 -1.4386 -1.7661
  204MOL0     H26893   0.829   2.312   4.179  0.8719 -3.3043 -1.1923
  204MOL0     H26894   0.611   2.300   4.221  0.1130  0.4697  0.2253
  204MOL0     H26895   0.482   2.417   4.228 -0.6991  0.3264 -1.6683
  204MOL0     H26896   0.617   2.570   4.341 -2.8206 -0.2075  0.6707
  204MOL0     H26897   0.764   2.494   4.283 -0.4175 -2.6814 -1.0719
  204MOL0     H26898   0.665   2.265   4.400 -0.2167  0.4961 -1.0194
  204MOL0     H26899   0.571   2.382   4.494  0.1228 -1.1074  1.4945
  204MOL0     H26900   0.860   2.410   4.476  0.6546 -1.8489  1.0709
  204MOL0     H26901   0.751   2.468   4.603 -1.2073 -2.1222  2.6083
  204MOL0     H26902   0.802   2.174   4.566 -0.1722  0.5244 -1.6162
  204MOL0     H26903   0.716   2.254   4.698 -0.7995 -0.8886 -1.3790
  204MOL0     H26904   0.946   2.229   4.804 -1.1685  2.1910  0.7746
  204MOL0     H26905   0.959   2.385   4.728 -0.8074  0.7424  0.4927
  204MOL0     H26906   1.036   2.127   4.599 -1.6541  0.5629 -2.7151
  204MOL0     H26907   1.043   2.282   4.524  1.7503 -0.2358  0.3193
  204MOL0     H26908   1.253   2.201   4.602  0.3504 -1.6724  1.5701
  204MOL0     H26909   1.222   2.199   4.767  2.6024 -0.6196 -0.7133
  204MOL0     H26910   0.708   2.532   3.836  0.2514 -0.4938 -2.1308
  204MOL0     H26911   0.933   2.482   3.729 -0.7763 -0.1641  0.3586
  204MOL0     H26912   1.322   2.348   3.497  1.3660  0.6135 -0.8710
  204MOL0     H26913   1.528   2.219   3.459  0.5217  2.6885 -0.4066
  204MOL0     H26914   2.004   2.908   3.418  0.9469  0.5214  0.6497
  204MOL0     H26915   1.799   3.006   3.396  0.9673 -0.1755  1.0240
  204MOL0     H26916   1.582   3.398   3.275  1.7901  0.1512 -0.9273
  204MOL0     H26917   1.366   3.523   3.263 -4.0006 -2.3861 -0.0080
  204MOL0     H26918   1.002   3.414   3.107 -2.0039 -0.0855 -0.0359
  204MOL0     H26919   1.066   3.427   2.939  0.6907 -1.8294  1.9775
  204MOL0     H26920   0.978   3.663   3.116  1.0202  0.0879  0.0988
  204MOL0     H26921   1.031   3.667   2.938  0.4807 -2.0443 -2.2141
  204MOL0     H26922   0.804   3.511   3.053  1.7600  1.2568  2.4806
  204MOL0     H26923   0.856   3.530   2.885 -0.9965 -1.9706  1.0662
  204MOL0     H26924   0.773   3.758   3.067  0.8817  4.4419 -1.3442
  204MOL0     H26925   0.824   3.777   2.908  0.8172  0.3146  1.7343
  204MOL0     H26926   0.424   3.680   2.832 -0.9006  0.7026  0.6935
  204MOL0     H26927   1.241   3.280   2.938 -2.9030  1.6566  2.8738
  204MOL0     H26928   1.419   3.145   2.955 -3.0598 -1.5457  0.9122
  205MOL0     O26929   8.068   2.587   8.341 -0.0062 -0.7767 -0.2830
  205MOL0     C26930   7.998   2.663   8.418  0.8864  0.3650 -0.2904
  205MOL0     O26931   8.045   2.766   8.493  0.0821 -0.3269 -0.1447
  205MOL0     C26932   8.186   2.795   8.499 -0.6359  0.2980  0.6452
  205MOL0     C26933   8.258   2.843   8.391  0.4338 -0.2910  0.2556
  205MOL0     C26934   8.401   2.845   8.394  1.1016 -0.3634 -0.1693
  205MOL0     C26935   8.474   2.791   8.507 -1.0563 -0.0777  0.2493
  205MOL0     O26936   8.612   2.784   8.497  0.0715 -0.1313  0.3868
  205MOL0     C26937   8.666   2.655   8.536  0.1555 -0.0417 -0.9083
  205MOL0     C26938   8.815   2.668   8.578 -0.5054  0.2225 -0.1172
  205MOL0     C26939   8.833   2.775   8.680 -0.2681  0.6874  0.1604
  205MOL0     C26940   8.788   2.741   8.825 -0.2259 -0.5841  0.1825
  205MOL0     C26941   8.772   2.864   8.919 -0.1379  1.2669  0.1560
  205MOL0     C26942   8.650   2.950   8.877 -0.7818  0.0847 -0.3733
  205MOL0     C26943   8.630   3.059   8.979  0.0684  0.0821 -0.3012
  205MOL0     C26944   8.516   3.149   8.937 -0.2105 -0.1495 -0.1321
  205MOL0     N26945   8.382   3.093   8.974  0.5034 -0.0569 -0.1726
  205MOL0     C26946   8.317   3.005   8.889  0.3039  0.1855 -0.5033
  205MOL0     C26947   8.190   3.000   8.936 -0.5065 -0.3903 -0.0693
  205MOL0     C26948   8.078   2.914   8.883 -0.3201 -0.3874  0.6734
  205MOL0     C26949   7.942   2.964   8.920  0.0891 -0.3993 -0.1124
  205MOL0     C26950   7.832   2.923   8.825 -0.0795 -0.4247  0.4369
  205MOL0     C26951   7.691   2.979   8.855  0.7691  0.2932 -0.1291
  205MOL0     O26952   7.591   2.894   8.793  0.5736 -0.1988 -0.1574
  205MOL0     C26953   7.461   2.929   8.798 -0.2774  0.0155 -0.8357
  205MOL0     C26954   7.419   3.056   8.830  0.6555 -0.1919 -0.5475
  205MOL0     C26955   7.280   3.080   8.832 -0.3382 -0.4678 -0.8408
  205MOL0     C26956   7.185   2.979   8.803 -0.0881  0.9827  0.2810
  205MOL0     C26957   7.041   3.000   8.792 -0.1179 -0.6265 -0.9635
  205MOL0     O26958   7.000   3.121   8.831  0.3305  0.1365  0.8548
  205MOL0     C26959   6.883   3.151   8.775 -0.3387 -0.2044  0.2968
  205MOL0     C26960   6.762   3.125   8.848 -0.0050 -0.1608  0.3898
  205MOL0     C26961   6.634   3.151   8.797 -0.7050 -0.3652  0.1412
  205MOL0     C26962   6.626   3.204   8.670 -0.3422 -0.1780  0.0905
  205MOL0     O26963   6.503   3.231   8.629  0.1303  0.8586  0.3067
  205MOL0     C26964   6.482   3.306   8.509  0.6898 -0.1296  0.9350
  205MOL0     C26965   6.330   3.303   8.473  0.3502  0.3414 -0.3258
  205MOL0     C26966   6.272   3.164   8.449  0.4658 -0.4342 -0.5678
  205MOL0     C26967   6.120   3.166   8.441 -0.1369 -0.2026 -0.2145
  205MOL0     C26968   6.069   3.026   8.408 -0.4408 -0.5409  0.1025
  205MOL0     C26969   5.912   3.036   8.414 -0.2079  0.4594 -0.7538
  205MOL0     C26970   5.860   3.043   8.561  0.4576  0.0441  0.5308
  205MOL0     C26971   5.704   3.069   8.560 -0.1108  0.0128 -0.1220
  205MOL0    Cl26972   5.675   3.244   8.507  0.1674 -0.0405 -0.2896
  205MOL0     C26973   6.749   3.247   8.603 -0.1004  0.3409  0.7256
  205MOL0     C26974   6.872   3.217   8.654 -0.3103  0.0883  0.6658
  205MOL0     O26975   6.974   2.912   8.733 -0.0854 -0.2042  0.1369
  205MOL0     C26976   7.237   2.852   8.768  0.8056  0.0734  0.3926
  205MOL0     C26977   7.369   2.827   8.768 -0.2310  0.8987  0.2018
  205MOL0     N26978   8.181   3.093   9.044  0.0649 -0.6444 -0.6051
  205MOL0     N26979   8.293   3.153   9.059  0.2194 -0.1866  0.0349
  205MOL0     C26980   8.401   2.758   8.620  0.4771  0.0315  0.1864
  205MOL0     C26981   8.262   2.764   8.616  0.5736 -0.2104  0.1983
  205MOL0     C26982   7.856   2.646   8.419  0.1857  0.6943  0.3561
  205MOL0     C26983   7.781   2.699   8.526 -0.8907 -0.6400  0.7441
  205MOL0     C26984   7.647   2.668   8.535  0.3724 -0.5512  0.5656
  205MOL0     C26985   7.575   2.589   8.437  0.0623 -0.6559 -0.3851
  205MOL0     O26986   7.439   2.578   8.454  0.0639  0.3186 -0.0253
  205MOL0     C26987   7.360   2.502   8.359  0.5696  0.3507  0.3720
  205MOL0     C26988   7.220   2.551   8.370 -0.9101 -0.2944  0.5053
  205MOL0     C26989   7.115   2.438   8.362 -0.5740  0.1062  0.3605
  205MOL0     C26990   6.963   2.484   8.350  0.7148 -0.4932 -0.5564
  205MOL0     C26991   6.915   2.572   8.464  0.2618  0.3894  0.1953
  205MOL0     C26992   6.870   2.646   8.551 -0.1486  0.7623  0.6772
  205MOL0     C26993   7.658   2.540   8.324  1.3097  0.5406  0.5867
  205MOL0     C26994   7.789   2.571   8.315  0.4061 -0.0651  0.6297
  205MOL0     H26995   8.208   2.882   8.303 -2.0737 -2.5989  0.5279
  205MOL0     H26996   8.463   2.890   8.317 -0.5154  0.4597 -1.0286
  205MOL0     H26997   8.654   2.585   8.453 -0.4074 -0.8627 -0.1610
  205MOL0     H26998   8.617   2.601   8.618  0.6934  0.7160 -0.0648
  205MOL0     H26999   8.854   2.695   8.479 -1.3158  0.8899 -0.2686
  205MOL0     H27000   8.858   2.572   8.607 -0.0128 -0.9728 -4.2009
  205MOL0     H27001   8.783   2.864   8.639 -1.1771 -0.6210 -1.7521
  205MOL0     H27002   8.940   2.798   8.687 -0.3200  1.3892 -1.0456
  205MOL0     H27003   8.687   2.701   8.819 -0.3049 -0.8421  2.3980
  205MOL0     H27004   8.861   2.672   8.868 -0.2331  0.0109  1.1703
  205MOL0     H27005   8.862   2.925   8.916  0.9572 -0.3082 -1.3414
  205MOL0     H27006   8.757   2.821   9.019  1.7183 -1.2706 -0.5387
  205MOL0     H27007   8.564   2.882   8.881 -1.7600  1.3488  1.8776
  205MOL0     H27008   8.660   2.987   8.775  2.0399 -1.8248 -0.8983
  205MOL0     H27009   8.624   3.015   9.079  4.0353 -1.6628 -0.6499
  205MOL0     H27010   8.721   3.119   8.977 -0.8022  1.4596 -2.4215
  205MOL0     H27011   8.511   3.178   8.832 -1.1267  4.0588  0.8730
  205MOL0     H27012   8.530   3.242   8.993 -1.1337 -0.3995  0.5275
  205MOL0     H27013   8.366   2.946   8.812  0.2842 -2.0372  1.0828
  205MOL0     H27014   8.085   2.811   8.919 -2.4461  0.4862  4.0552
  205MOL0     H27015   8.092   2.915   8.775 -0.4273  0.5442  0.6572
  205MOL0     H27016   7.948   3.073   8.910 -0.0486 -0.3592  0.2356
  205MOL0     H27017   7.920   2.944   9.025  1.7445  3.5645  1.1625
  205MOL0     H27018   7.853   2.962   8.725  2.5188  0.9704  1.4239
  205MOL0     H27019   7.829   2.814   8.825  0.9169 -0.4856  1.9618
  205MOL0     H27020   7.686   3.079   8.812 -1.4462  0.2530 -0.0712
  205MOL0     H27021   7.666   2.990   8.961  2.2105  4.2478 -0.0345
  205MOL0     H27022   7.496   3.132   8.832  2.3218 -1.8092 -0.8353
  205MOL0     H27023   7.255   3.185   8.841  3.9223  0.6621  0.3012
  205MOL0     H27024   6.796   3.102   8.948  4.1412 -1.0793 -1.0182
  205MOL0     H27025   6.534   3.141   8.838 -1.9212 -3.0056 -2.9859
  205MOL0     H27026   6.531   3.263   8.422 -1.1208 -1.3350  0.4583
  205MOL0     H27027   6.508   3.412   8.519  1.7541 -0.4072  1.2421
  205MOL0     H27028   6.304   3.372   8.392 -2.1518 -0.2323 -0.0860
  205MOL0     H27029   6.284   3.351   8.560  0.3505  0.4126 -0.3655
  205MOL0     H27030   6.307   3.087   8.519  2.6529  0.1844 -0.8852
  205MOL0     H27031   6.319   3.130   8.356  0.1684  2.5012 -1.9160
  205MOL0     H27032   6.089   3.206   8.538  2.6929  1.0400  0.2601
  205MOL0     H27033   6.085   3.233   8.362 -0.7959 -2.0036 -1.5226
  205MOL0     H27034   6.096   2.950   8.483  0.3242 -0.0232  0.3715
  205MOL0     H27035   6.108   2.993   8.311  2.1049 -0.0598  0.8784
  205MOL0     H27036   5.873   2.951   8.357  0.0529 -0.7140  0.7471
  205MOL0     H27037   5.870   3.123   8.364 -2.6306  0.2544  0.7472
  205MOL0     H27038   5.882   2.946   8.606  0.8166 -1.5515 -2.7847
  205MOL0     H27039   5.913   3.108   8.631  1.5573 -0.1093 -0.1174
  205MOL0     H27040   5.655   3.065   8.657 -2.0117  1.3936 -0.9485
  205MOL0     H27041   5.644   3.007   8.491 -0.0847  1.8096 -1.8647
  205MOL0     H27042   6.739   3.295   8.506  0.5963  0.7855  0.8662
  205MOL0     H27043   6.960   3.239   8.594 -1.9341  1.3203 -1.4328
  205MOL0     H27044   7.172   2.773   8.732  1.3080  0.3830 -1.2717
  205MOL0     H27045   7.402   2.731   8.731 -1.1013  0.0924  1.4375
  205MOL0     H27046   8.445   2.718   8.711  1.6738  1.9528  0.5124
  205MOL0     H27047   8.203   2.718   8.694  0.2609 -1.1357 -0.5535
  205MOL0     H27048   7.833   2.755   8.603  1.5284 -2.8626  0.8667
  205MOL0     H27049   7.587   2.717   8.612  1.6694 -1.3026  2.1215
  205MOL0     H27050   7.365   2.401   8.402  1.3791  0.7257  1.1915
  205MOL0     H27051   7.391   2.497   8.254 -2.3528 -4.5249 -0.6077
  205MOL0     H27052   7.191   2.601   8.463  1.2194 -1.0278  1.6209
  205MOL0     H27053   7.190   2.633   8.304  1.8195 -0.4636 -1.0530
  205MOL0     H27054   7.118   2.367   8.445 -0.0115  0.9441  1.0652
  205MOL0     H27055   7.140   2.381   8.271 -0.0155  2.7754 -1.2826
  205MOL0     H27056   6.968   2.534   8.253  0.6677  0.0365 -0.2902
  205MOL0     H27057   6.897   2.396   8.348 -0.9198  0.5983  1.4255
  205MOL0     H27058   6.824   2.720   8.615 -1.7141 -1.7139  2.5993
  205MOL0     H27059   7.611   2.476   8.250  0.3605 -0.4984  2.0299
  205MOL0     H27060   7.854   2.532   8.237  0.4616  2.7431 -0.8814
  206MOL0     O27061   5.395   1.282   2.088 -0.1357  0.8036  0.5605
  206MOL0     C27062   5.420   1.254   1.974  0.5836 -0.4594 -0.0571
  206MOL0     O27063   5.329   1.200   1.886 -0.1052 -0.1886 -0.7032
  206MOL0     C27064   5.199   1.161   1.919 -0.7386 -0.7493 -0.3133
  206MOL0     C27065   5.159   1.029   1.898 -0.6456  1.1490 -0.4117
  206MOL0     C27066   5.028   0.988   1.919  0.0300 -0.1314  0.0891
  206MOL0     C27067   4.929   1.083   1.970 -0.0828  0.9787  0.0840
  206MOL0     O27068   4.804   1.045   1.981  0.1672 -0.0394 -0.6557
  206MOL0     C27069   4.771   0.914   2.037  0.4279 -0.1641 -0.2563
  206MOL0     C27070   4.619   0.913   2.062  0.6114  0.0427  0.7883
  206MOL0     C27071   4.568   0.789   2.134 -0.3037  0.0124 -0.3278
  206MOL0     C27072   4.417   0.786   2.146 -0.8734 -0.1901  0.5335
  206MOL0     C27073   4.361   0.658   2.213 -0.1706  0.1253  0.1692
  206MOL0     C27074   4.219   0.673   2.268 -0.1669 -0.1475  0.9383
  206MOL0     C27075   4.160   0.526   2.288  0.3184 -0.6714  0.6490
  206MOL0     C27076   4.007   0.533   2.317 -0.4019 -0.2124 -0.9948
  206MOL0     N27077   3.957   0.406   2.367 -0.4086 -0.6290  0.6228
  206MOL0     C27078   3.937   0.376   2.499 -0.1939  0.1855  0.0155
  206MOL0     C27079   3.875   0.257   2.498  0.6047  0.1761  1.0885
  206MOL0     C27080   3.835   0.185   2.621 -0.7318 -0.0165  0.1122
  206MOL0     C27081   3.921   0.220   2.746 -1.3164 -0.0805 -0.0061
  206MOL0     C27082   4.049   0.137   2.743  0.3868 -0.2215 -0.0576
  206MOL0     C27083   4.161   0.191   2.665 -0.6215 -0.1911  0.4358
  206MOL0     O27084   4.194   0.323   2.710 -0.2572 -0.3434 -0.5906
  206MOL0     C27085   4.291   0.398   2.644  0.8406  0.7557 -0.0338
  206MOL0     C27086   4.333   0.522   2.704 -0.7554  0.4439  0.2155
  206MOL0     C27087   4.451   0.588   2.646  0.0348  0.0830 -0.0063
  206MOL0     C27088   4.533   0.526   2.554 -0.3036  0.0252  0.4027
  206MOL0     C27089   4.653   0.589   2.499 -0.2022  0.1993 -0.9507
  206MOL0     O27090   4.698   0.702   2.557 -0.5550 -0.3859 -0.6397
  206MOL0     C27091   4.821   0.748   2.514 -0.8061 -0.5170 -0.2587
  206MOL0     C27092   4.933   0.671   2.555 -0.1789  0.2214  0.2279
  206MOL0     C27093   5.056   0.693   2.504  0.4472  0.3951 -0.1330
  206MOL0     C27094   5.081   0.807   2.422  0.6091 -0.1042  0.7707
  206MOL0     O27095   5.212   0.839   2.381  0.0348  0.5824  0.0918
  206MOL0     C27096   5.248   0.966   2.331  0.0806 -0.4157  0.0008
  206MOL0     C27097   5.390   0.976   2.281  0.5166 -0.4749  0.1143
  206MOL0     C27098   5.504   0.894   2.355 -0.1839  0.0029 -0.9171
  206MOL0     C27099   5.513   0.907   2.503  0.7049 -0.7979 -0.3946
  206MOL0     C27100   5.523   1.048   2.572  0.9055 -0.2398  0.2550
  206MOL0     C27101   5.632   1.148   2.540  0.6258 -0.2490  0.9202
  206MOL0     C27102   5.767   1.130   2.600  0.1045 -0.0922 -0.3045
  206MOL0     C27103   5.841   1.012   2.550 -0.0629  0.2540  0.3410
  206MOL0    Cl27104   5.892   1.044   2.380  0.2380 -0.0915  0.1535
  206MOL0     C27105   4.968   0.879   2.373  0.7733 -0.1275  0.2903
  206MOL0     C27106   4.835   0.848   2.424  0.1467 -0.0941 -0.1058
  206MOL0     O27107   4.699   0.540   2.396 -0.5185  0.2804  0.2273
  206MOL0     C27108   4.498   0.403   2.501  0.5200 -0.0676 -0.1943
  206MOL0     C27109   4.382   0.340   2.551 -0.0223  0.4953 -0.0732
  206MOL0     N27110   3.864   0.205   2.366 -0.0540 -0.0262  0.4913
  206MOL0     N27111   3.911   0.301   2.289  0.2153 -0.1392  0.4565
  206MOL0     C27112   4.979   1.211   1.987 -0.0654  0.2877 -0.2088
  206MOL0     C27113   5.109   1.258   1.968 -0.6266  0.0501  0.2150
  206MOL0     C27114   5.557   1.270   1.922  0.4505 -0.2922 -0.1578
  206MOL0     C27115   5.589   1.286   1.783  0.1759  0.7849 -0.2843
  206MOL0     C27116   5.715   1.309   1.743  0.2798 -0.3471 -0.1835
  206MOL0     C27117   5.831   1.310   1.836  0.6138 -0.6489  0.2008
  206MOL0     O27118   5.960   1.357   1.817 -0.0730  0.2953  0.2765
  206MOL0     C27119   5.992   1.370   1.675  0.0159  1.0167  0.3580
  206MOL0     C27120   6.143   1.367   1.664  0.3131 -0.0450  0.2967
  206MOL0     C27121   6.207   1.443   1.548  0.2361  0.0526 -0.3358
  206MOL0     C27122   6.355   1.401   1.528 -0.0220  0.5238  0.2394
  206MOL0     C27123   6.435   1.418   1.650  0.9295  0.1351 -0.1053
  206MOL0     C27124   6.516   1.434   1.738  0.4563  0.3547 -0.6571
  206MOL0     C27125   5.793   1.298   1.970 -0.5090 -0.3707  0.2418
  206MOL0     C27126   5.662   1.275   2.013 -0.1808 -1.0085 -0.5212
  206MOL0     H27127   5.226   0.949   1.868 -4.2551 -2.0431 -0.5951
  206MOL0     H27128   5.001   0.886   1.892 -0.6586 -1.1425  4.0101
  206MOL0     H27129   4.833   0.894   2.125  0.2118 -0.4246 -0.1620
  206MOL0     H27130   4.787   0.833   1.966  2.3330  0.7256 -0.9307
  206MOL0     H27131   4.555   0.927   1.974 -0.9079 -1.7869  1.5426
  206MOL0     H27132   4.595   1.002   2.120 -0.8071  0.8364 -0.9157
  206MOL0     H27133   4.622   0.778   2.229  0.8090 -0.6344 -1.0029
  206MOL0     H27134   4.590   0.709   2.062 -3.5745  0.2230 -1.7202
  206MOL0     H27135   4.395   0.875   2.207  3.0984  1.1481  0.3199
  206MOL0     H27136   4.370   0.795   2.048 -0.0548 -1.3826  0.0076
  206MOL0     H27137   4.434   0.623   2.286 -0.6478 -2.7765 -0.6046
  206MOL0     H27138   4.367   0.582   2.134  1.6607 -1.6931  1.9461
  206MOL0     H27139   4.163   0.741   2.203  1.3814 -2.1141 -2.7368
  206MOL0     H27140   4.218   0.715   2.369 -0.2678  0.5835  0.6347
  206MOL0     H27141   4.181   0.458   2.205  0.4592  0.4710 -0.2577
  206MOL0     H27142   4.216   0.477   2.368  0.4690  0.3367  1.1707
  206MOL0     H27143   3.952   0.560   2.226 -3.3818 -3.3509 -0.3047
  206MOL0     H27144   3.994   0.609   2.394  0.9782 -0.3369 -0.6155
  206MOL0     H27145   3.967   0.444   2.578 -2.6634  1.2192  0.1417
  206MOL0     H27146   3.845   0.077   2.605  0.3615 -0.0323  0.8059
  206MOL0     H27147   3.728   0.203   2.633 -0.4509  1.8913  0.0906
  206MOL0     H27148   3.861   0.183   2.829 -2.1873 -1.4282 -1.1859
  206MOL0     H27149   3.941   0.327   2.756  0.8676 -0.1668 -2.2691
  206MOL0     H27150   4.079   0.127   2.848 -0.0533 -1.0919 -0.0048
  206MOL0     H27151   4.028   0.032   2.720  1.0820 -1.2514  3.4157
  206MOL0     H27152   4.134   0.193   2.559  0.2440  2.1726  0.1983
  206MOL0     H27153   4.243   0.121   2.687 -2.3748 -2.2253  0.8116
  206MOL0     H27154   4.276   0.565   2.785  1.0910 -1.3250  2.5978
  206MOL0     H27155   4.475   0.680   2.698 -2.9855  0.4705  0.8842
  206MOL0     H27156   4.923   0.583   2.618  0.9770 -1.1403 -1.4188
  206MOL0     H27157   5.138   0.624   2.523 -1.0647 -1.5547 -0.3111
  206MOL0     H27158   5.225   1.033   2.414  0.1201 -1.1173  0.5857
  206MOL0     H27159   5.187   0.987   2.242 -0.1204  0.8152  0.4086
  206MOL0     H27160   5.425   1.079   2.281  0.1098 -0.3159  1.4570
  206MOL0     H27161   5.398   0.947   2.176 -1.6828  1.4767 -0.6848
  206MOL0     H27162   5.594   0.930   2.304 -0.6608  1.6075 -0.6962
  206MOL0     H27163   5.475   0.791   2.333 -1.6161 -0.2905  1.8861
  206MOL0     H27164   5.419   0.862   2.537 -0.1223 -1.0473 -2.7867
  206MOL0     H27165   5.589   0.838   2.540  0.5693 -1.5981 -1.5468
  206MOL0     H27166   5.522   1.034   2.680  0.6661 -0.4802  0.2222
  206MOL0     H27167   5.432   1.099   2.542  2.2726  0.8394 -2.3453
  206MOL0     H27168   5.593   1.246   2.568  0.2816 -0.2696  0.5104
  206MOL0     H27169   5.647   1.146   2.432 -1.5832  0.3893  0.5472
  206MOL0     H27170   5.827   1.220   2.584 -0.6826  0.3219 -1.0385
  206MOL0     H27171   5.749   1.105   2.704 -2.1359 -2.1120 -1.0839
  206MOL0     H27172   5.780   0.921   2.549  0.1767  0.0849  0.8142
  206MOL0     H27173   5.930   1.012   2.614  0.3471  1.7650 -0.1849
  206MOL0     H27174   4.988   0.965   2.310 -0.0322 -1.3114 -1.6425
  206MOL0     H27175   4.739   0.890   2.395 -1.0586 -2.3382  0.4113
  206MOL0     H27176   4.558   0.368   2.417  0.6419  0.5964 -0.3895
  206MOL0     H27177   4.366   0.248   2.494 -0.7809  1.2070 -1.0469
  206MOL0     H27178   4.903   1.273   2.034 -0.0026 -0.9817  1.6734
  206MOL0     H27179   5.134   1.363   1.981  1.0878 -0.2462 -0.4028
  206MOL0     H27180   5.501   1.277   1.720  0.7257 -0.3689 -0.9292
  206MOL0     H27181   5.726   1.338   1.639 -2.4499 -0.6880 -0.6211
  206MOL0     H27182   5.951   1.462   1.632  0.3809  0.0623 -2.2358
  206MOL0     H27183   5.952   1.294   1.607  2.0206 -0.5963  0.8737
  206MOL0     H27184   6.179   1.417   1.754  1.1777  0.2285 -0.1948
  206MOL0     H27185   6.178   1.263   1.660 -0.9811 -0.4847 -0.2773
  206MOL0     H27186   6.213   1.552   1.562  2.2109 -0.0532 -0.0021
  206MOL0     H27187   6.160   1.423   1.451 -0.5356 -0.7145  0.1889
  206MOL0     H27188   6.350   1.298   1.492 -2.5739 -0.1949  2.3337
  206MOL0     H27189   6.388   1.463   1.444  0.2552 -2.6641 -2.1728
  206MOL0     H27190   6.602   1.462   1.794 -0.5422  1.3854  0.4179
  206MOL0     H27191   5.867   1.322   2.046  2.4513  0.2066 -2.5975
  206MOL0     H27192   5.632   1.275   2.118  0.0670 -0.1792 -0.4450
  207MOL0     O27193   9.740   9.599   2.511 -0.0960  0.1402 -0.4231
  207MOL0     C27194   9.809   9.697   2.490  0.4973 -0.3359  0.2808
  207MOL0     O27195   9.754   9.826   2.479  0.0711 -0.1585  0.3679
  207MOL0     C27196   9.621   9.848   2.499 -0.6963  0.7795  0.2482
  207MOL0     C27197   9.528   9.789   2.412  0.9924  0.4170 -0.1060
  207MOL0     C27198   9.397   9.806   2.438  0.7887  0.2161  0.3627
  207MOL0     C27199   9.347   9.870   2.548 -1.0516  0.5579 -0.3923
  207MOL0     O27200   9.217   9.847   2.595  0.2744 -0.1494 -1.0161
  207MOL0     C27201   9.166   9.977   2.607  1.1842 -0.3175 -0.4759
  207MOL0     C27202   9.015   9.957   2.616  0.2472  0.0514 -0.2159
  207MOL0     C27203   8.943  10.090   2.622  0.8765 -0.1655 -0.2887
  207MOL0     C27204   8.794  10.053   2.611 -0.0779  0.5682  0.9324
  207MOL0     C27205   8.713  10.183   2.623  0.0198 -0.1421  0.7618
  207MOL0     C27206   8.581  10.157   2.553  0.5293  0.4401  0.7979
  207MOL0     C27207   8.511  10.283   2.508  0.2997 -0.2798  0.2274
  207MOL0     C27208   8.375  10.246   2.457 -0.1665 -0.8440 -0.0591
  207MOL0     N27209   8.274  10.352   2.490  0.6848  0.4490  0.8422
  207MOL0     C27210   8.235  10.390   2.618 -0.3386  0.2819 -0.1143
  207MOL0     C27211   8.138  10.478   2.597  0.4758 -0.3260  0.7427
  207MOL0     C27212   8.043  10.543   2.694 -0.6810  0.3207 -0.4837
  207MOL0     C27213   7.913  10.582   2.626  0.1759  0.2274  0.4469
  207MOL0     C27214   7.825  10.634   2.739 -0.4172 -0.2102  0.6950
  207MOL0     C27215   7.700  10.699   2.681  0.4733  0.1945 -0.5395
  207MOL0     O27216   7.620  10.600   2.617 -0.5622 -0.2455 -0.0894
  207MOL0     C27217   7.492  10.632   2.589 -0.0884  0.2825  0.6756
  207MOL0     C27218   7.437  10.761   2.564  0.1978  0.0693 -0.5236
  207MOL0     C27219   7.312  10.792   2.516 -0.2500 -0.2041  0.5090
  207MOL0     C27220   7.229  10.686   2.484  0.9592 -0.9764  0.5142
  207MOL0     C27221   7.091  10.707   2.432 -0.7643 -0.4867 -0.3571
  207MOL0     O27222   7.009  10.589   2.430  0.1917  0.1556 -0.0290
  207MOL0     C27223   6.882  10.578   2.370 -0.2694 -0.6424 -0.1095
  207MOL0     C27224   6.807  10.468   2.404  0.3382  0.9619 -0.0548
  207MOL0     C27225   6.682  10.429   2.355 -0.6801 -0.5460  0.4521
  207MOL0     C27226   6.617  10.522   2.277 -0.5761  0.7944  0.2192
  207MOL0     O27227   6.489  10.511   2.226 -0.1640  0.4113 -0.0107
  207MOL0     C27228   6.391  10.479   2.328  0.2920 -0.3835  1.1036
  207MOL0     C27229   6.254  10.546   2.300  0.4142 -0.9663 -0.2848
  207MOL0     C27230   6.201  10.537   2.157  0.2647 -0.2274  0.5957
  207MOL0     C27231   6.227  10.661   2.070  0.0072 -0.0464 -0.1082
  207MOL0     C27232   6.237  10.632   1.915 -0.1648  1.2142 -0.4979
  207MOL0     C27233   6.105  10.599   1.854 -0.0590  0.2326 -0.3211
  207MOL0     C27234   6.017  10.718   1.813  0.3771 -0.1748  0.5215
  207MOL0     C27235   5.879  10.686   1.754  0.1307  0.3567  0.8247
  207MOL0    Cl27236   5.774  10.642   1.888 -0.2317  0.0486  0.1639
  207MOL0     C27237   6.689  10.632   2.236 -0.8247 -0.4679 -0.0327
  207MOL0     C27238   6.822  10.660   2.279  0.7246  0.1583 -0.5991
  207MOL0     O27239   7.056  10.821   2.397 -0.3778  0.7716 -0.6485
  207MOL0     C27240   7.275  10.551   2.487 -0.8427 -0.1729 -0.1341
  207MOL0     C27241   7.406  10.523   2.546 -0.2765  0.2172 -0.2379
  207MOL0     N27242   8.118  10.490   2.454 -0.2632  0.2037 -0.3259
  207MOL0     N27243   8.203  10.410   2.393 -0.0002 -0.1441  0.0170
  207MOL0     C27244   9.438   9.930   2.638 -0.7409  0.5335 -0.3219
  207MOL0     C27245   9.574   9.919   2.607 -0.2965 -0.0388 -0.2382
  207MOL0     C27246   9.948   9.678   2.509 -0.2637  0.1174  0.2266
  207MOL0     C27247  10.036   9.786   2.550 -1.0401  0.1275  0.0898
  207MOL0     C27248  10.166   9.760   2.585 -0.3391  0.9290 -0.0088
  207MOL0     C27249  10.217   9.629   2.581 -0.2239  0.5919 -0.5843
  207MOL0     O27250  10.347   9.595   2.604 -0.4428 -0.5335 -0.8240
  207MOL0     C27251  10.453   9.675   2.549  0.1291  0.7436  0.4364
  207MOL0     C27252  10.484   9.625   2.412 -0.5981 -0.4734  1.0365
  207MOL0     C27253  10.526   9.472   2.399 -0.6158 -0.7975  0.1684
  207MOL0     C27254  10.573   9.446   2.252 -1.1231 -0.1019 -0.0212
  207MOL0     C27255  10.472   9.427   2.157 -0.3456 -1.6587  0.4194
  207MOL0     C27256  10.372   9.415   2.094 -0.7924  0.1707  0.1660
  207MOL0     C27257  10.129   9.525   2.545 -0.4766  0.3364 -0.8965
  207MOL0     C27258   9.999   9.549   2.518 -0.2085 -0.3498  0.1054
  207MOL0     H27259   9.559   9.720   2.334  0.6190 -3.0245  2.5805
  207MOL0     H27260   9.329   9.760   2.368  3.1127  1.2826 -2.8387
  207MOL0     H27261   9.199  10.041   2.525  1.1610 -1.3966 -1.3482
  207MOL0     H27262   9.196  10.031   2.698  1.2539  4.0828 -2.8219
  207MOL0     H27263   8.991   9.899   2.706  2.3806  1.1374  1.1490
  207MOL0     H27264   8.989   9.913   2.520 -3.0442  2.2997 -0.5469
  207MOL0     H27265   8.983  10.149   2.539  1.4989  1.4603  1.0974
  207MOL0     H27266   8.978  10.135   2.715  1.0898  0.1055 -0.4961
  207MOL0     H27267   8.776   9.991   2.523 -0.6686 -1.3811  2.3612
  207MOL0     H27268   8.750   9.992   2.690 -0.5538 -0.1077  0.1636
  207MOL0     H27269   8.757  10.261   2.560 -0.2227 -0.4032  0.2564
  207MOL0     H27270   8.708  10.215   2.727 -4.9207 -1.3247  1.1289
  207MOL0     H27271   8.518  10.095   2.618  0.3804 -1.2159 -0.8116
  207MOL0     H27272   8.602  10.108   2.457 -0.3972 -0.3817  0.9956
  207MOL0     H27273   8.498  10.350   2.594  0.8785 -0.3068  0.3364
  207MOL0     H27274   8.572  10.337   2.435 -0.2205 -0.1286 -0.1065
  207MOL0     H27275   8.337  10.158   2.509 -0.9606  0.5700  1.8500
  207MOL0     H27276   8.384  10.226   2.350 -0.4348 -1.5440  0.0463
  207MOL0     H27277   8.278  10.349   2.708  3.4676 -1.1945 -2.3472
  207MOL0     H27278   8.093  10.632   2.733 -1.3288  0.2316  0.6056
  207MOL0     H27279   8.030  10.471   2.776  0.1048  1.6602  0.8783
  207MOL0     H27280   7.865  10.495   2.579 -1.9327  1.5338  0.0567
  207MOL0     H27281   7.929  10.660   2.551 -0.1398  0.0613  0.2034
  207MOL0     H27282   7.797  10.561   2.814  0.3754  0.7777  1.9990
  207MOL0     H27283   7.880  10.714   2.790 -1.0844  0.2499  0.7086
  207MOL0     H27284   7.729  10.786   2.621  0.5822  1.9687  1.9425
  207MOL0     H27285   7.657  10.736   2.775  5.0507 -0.6490  2.2023
  207MOL0     H27286   7.504  10.845   2.580  3.3545 -1.6813 -3.2207
  207MOL0     H27287   7.296  10.899   2.525  1.8981  0.1502  0.6543
  207MOL0     H27288   6.842  10.403   2.484 -1.8778 -0.4812 -0.1597
  207MOL0     H27289   6.630  10.339   2.389 -1.7236  0.7931  2.6296
  207MOL0     H27290   6.438  10.504   2.423  0.0852 -1.0189  1.3761
  207MOL0     H27291   6.357  10.375   2.331 -1.2979 -0.0387 -1.5192
  207MOL0     H27292   6.266  10.652   2.326  1.9281 -1.0152 -0.6636
  207MOL0     H27293   6.171  10.508   2.360 -0.5863  2.4662  0.7325
  207MOL0     H27294   6.092  10.531   2.162 -0.3523  2.8926 -3.4103
  207MOL0     H27295   6.234  10.444   2.110 -1.6479 -0.5907 -0.1095
  207MOL0     H27296   6.152  10.739   2.080  0.4269  0.8158 -2.8803
  207MOL0     H27297   6.319  10.706   2.108  0.6189 -0.7119 -0.7600
  207MOL0     H27298   6.309  10.553   1.892  0.3743  1.3433  0.6911
  207MOL0     H27299   6.281  10.723   1.872  0.4353  0.6869 -1.0227
  207MOL0     H27300   6.052  10.530   1.920 -2.5130  0.1107 -2.2692
  207MOL0     H27301   6.115  10.543   1.761 -0.7751 -3.0021  1.4069
  207MOL0     H27302   5.995  10.781   1.899  0.7621  2.5264 -1.2235
  207MOL0     H27303   6.077  10.780   1.746 -1.8475  0.5156 -0.9432
  207MOL0     H27304   5.883  10.606   1.679 -2.3245  2.0538 -1.2866
  207MOL0     H27305   5.830  10.771   1.705  0.1689  0.8481  1.6313
  207MOL0     H27306   6.638  10.700   2.169 -1.2550 -0.6693  0.0906
  207MOL0     H27307   6.875  10.748   2.241  3.1533 -0.4803  1.0319
  207MOL0     H27308   7.215  10.475   2.439  1.8074 -1.7850 -1.1302
  207MOL0     H27309   7.439  10.421   2.534  0.3571  0.3709  0.1839
  207MOL0     H27310   9.408   9.962   2.737 -1.4396 -1.1130  0.0361
  207MOL0     H27311   9.652   9.965   2.667 -1.3144  2.0109 -0.3660
  207MOL0     H27312  10.006   9.890   2.557  2.9486  1.2991  3.4447
  207MOL0     H27313  10.239   9.837   2.608  1.5479 -0.1269 -2.1212
  207MOL0     H27314  10.532   9.658   2.623  3.0147  2.2093 -2.0420
  207MOL0     H27315  10.430   9.782   2.556  2.0927  1.1867  0.7453
  207MOL0     H27316  10.390   9.634   2.357 -1.3863  1.1669  2.5622
  207MOL0     H27317  10.553   9.701   2.373 -1.0719  0.8339  2.6379
  207MOL0     H27318  10.450   9.397   2.425 -2.5003 -0.1187 -2.8219
  207MOL0     H27319  10.617   9.460   2.458 -0.5861  0.6019  0.4554
  207MOL0     H27320  10.645   9.521   2.221 -0.7189 -0.6939 -0.5385
  207MOL0     H27321  10.626   9.351   2.265  0.2231  0.6269 -0.1260
  207MOL0     H27322  10.287   9.397   2.032  1.6331 -1.8107 -2.8588
  207MOL0     H27323  10.168   9.424   2.540 -0.3203  0.3766 -0.4614
  207MOL0     H27324   9.940   9.459   2.511 -1.5088  0.4377  0.5287
  208MOL0     O27325   1.337   6.234   0.202  0.0469  0.2762  0.6881
  208MOL0     C27326   1.425   6.148   0.183  0.2023  0.1582 -0.0769
  208MOL0     O27327   1.409   6.027   0.117 -0.8290 -0.7114 -0.2997
  208MOL0     C27328   1.279   6.009   0.068  0.0128 -0.1846 -0.8580
  208MOL0     C27329   1.218   5.890   0.116 -0.7242 -0.3094 -0.7335
  208MOL0     C27330   1.094   5.848   0.078 -0.0600 -0.9132  0.3622
  208MOL0     C27331   1.014   5.941  -0.000  0.0632  0.4350  0.5659
  208MOL0     O27332   0.891   5.897  -0.046 -0.0504  0.6552 -0.7976
  208MOL0     C27333   0.799   5.855   0.059 -0.9347 -0.8786 -0.4621
  208MOL0     C27334   0.725   5.970   0.106  0.6962  0.4136 -0.4434
  208MOL0     C27335   0.628   6.006  -0.001  0.5346  0.0256  0.5297
  208MOL0     C27336   0.528   5.897  -0.027 -0.3011  0.0640  0.4380
  208MOL0     C27337   0.417   5.953  -0.120  1.1713  0.3227  0.8403
  208MOL0     C27338   0.315   5.844  -0.178  0.4481  0.8033 -0.5908
  208MOL0     C27339   0.213   5.917  -0.262  0.0870  0.5635 -0.4613
  208MOL0     C27340   0.088   5.839  -0.308  0.4048  1.1203 -0.3913
  208MOL0     N27341  -0.006   5.834  -0.198 -0.5645  0.0052 -0.1115
  208MOL0     C27342  -0.033   5.721  -0.114  0.6618  0.2317  0.0092
  208MOL0     C27343  -0.121   5.770  -0.024  0.0417 -0.4259 -0.3859
  208MOL0     C27344  -0.186   5.706   0.087 -0.0104 -0.0285  0.1764
  208MOL0     C27345  -0.338   5.736   0.072  0.6192 -0.0888  0.1739
  208MOL0     C27346  -0.417   5.676   0.199 -0.4442  0.8944  0.7182
  208MOL0     C27347  -0.571   5.667   0.183  0.2725 -0.1405 -0.1040
  208MOL0     O27348  -0.630   5.784   0.115 -0.8884 -0.0989 -0.0679
  208MOL0     C27349  -0.767   5.798   0.106 -0.6268 -0.5698 -0.3143
  208MOL0     C27350  -0.860   5.700   0.145  1.0467  0.1349  0.4323
  208MOL0     C27351  -0.999   5.728   0.122  0.4049  0.3267 -0.1045
  208MOL0     C27352  -1.045   5.849   0.074  0.1527 -0.7999 -0.4500
  208MOL0     C27353  -1.192   5.873   0.057 -0.7219 -0.0042  1.0708
  208MOL0     O27354  -1.224   5.993   0.011  0.3440 -0.5257 -0.2138
  208MOL0     C27355  -1.352   6.044   0.006 -0.6680 -0.0937 -0.6425
  208MOL0     C27356  -1.405   6.145   0.099 -0.3168  0.0885  1.1129
  208MOL0     C27357  -1.531   6.195   0.083  0.1959  0.9061  0.1493
  208MOL0     C27358  -1.622   6.127   0.005 -0.0672 -0.4562  0.6316
  208MOL0     O27359  -1.749   6.179   0.000  1.0330  0.6202  0.5046
  208MOL0     C27360  -1.836   6.140  -0.112  0.8236 -0.1593 -0.4351
  208MOL0     C27361  -1.930   6.258  -0.135 -0.2272  0.2334  0.3106
  208MOL0     C27362  -2.044   6.256  -0.029  0.4378 -0.2316 -0.2021
  208MOL0     C27363  -2.136   6.378  -0.035  0.7865  0.4540  0.5556
  208MOL0     C27364  -2.256   6.372   0.069 -0.0526 -1.3511 -0.2783
  208MOL0     C27365  -2.342   6.491   0.055 -0.3625  0.0095  0.3710
  208MOL0     C27366  -2.485   6.453   0.020 -0.5874 -0.5408 -0.2068
  208MOL0     C27367  -2.596   6.569   0.039 -1.0171  0.3320  0.1875
  208MOL0    Cl27368  -2.599   6.626   0.202  0.2945 -0.2144  0.6339
  208MOL0     C27369  -1.576   6.026  -0.087  0.7855  0.1078 -0.0548
  208MOL0     C27370  -1.437   5.992  -0.083  1.2379  0.0783  0.9604
  208MOL0     O27371  -1.269   5.784   0.074  0.0538  0.3276 -0.6548
  208MOL0     C27372  -0.949   5.940   0.034 -0.6319  0.8181  1.5949
  208MOL0     C27373  -0.809   5.914   0.040  0.0806 -1.1399 -0.1013
  208MOL0     N27374  -0.135   5.908  -0.043 -0.4746  0.7498  0.0883
  208MOL0     N27375  -0.063   5.943  -0.141  0.1610 -0.1611 -0.6271
  208MOL0     C27376   1.073   6.055  -0.059 -0.6055  1.1817 -0.5110
  208MOL0     C27377   1.203   6.091  -0.018 -0.2139  0.7322  0.3998
  208MOL0     C27378   1.557   6.190   0.228  0.5395  0.5335  0.5867
  208MOL0     C27379   1.583   6.332   0.231 -0.6422 -0.4894 -0.5161
  208MOL0     C27380   1.718   6.377   0.254 -0.1523  0.4550  0.4319
  208MOL0     C27381   1.821   6.281   0.286  0.5164 -0.4857 -0.6255
  208MOL0     O27382   1.948   6.316   0.291 -0.5162 -0.0500 -0.7380
  208MOL0     C27383   1.984   6.405   0.402 -0.2772  1.1081 -0.0759
  208MOL0     C27384   2.085   6.510   0.351 -0.0344  0.1286  0.3363
  208MOL0     C27385   2.110   6.599   0.470  0.1557  0.0060 -0.1402
  208MOL0     C27386   2.172   6.724   0.413 -0.0644  0.2694 -0.1226
  208MOL0     C27387   2.206   6.821   0.520  0.5907 -0.8370 -0.5132
  208MOL0     C27388   2.229   6.889   0.624 -1.1387 -0.6681 -0.7277
  208MOL0     C27389   1.797   6.144   0.278  0.6712  0.1355 -0.1211
  208MOL0     C27390   1.668   6.099   0.236  0.8494 -0.0646 -0.4338
  208MOL0     H27391   1.272   5.822   0.182  0.2760  0.4706 -0.7326
  208MOL0     H27392   1.050   5.752   0.106 -1.7774 -0.2092  0.2239
  208MOL0     H27393   0.854   5.829   0.150  0.7098 -1.4543 -1.5890
  208MOL0     H27394   0.743   5.770   0.019  1.4283 -2.1167 -1.3023
  208MOL0     H27395   0.786   6.060   0.117  0.0825  0.9153 -1.0274
  208MOL0     H27396   0.693   5.942   0.207  0.4442  2.2425  0.0303
  208MOL0     H27397   0.685   6.044  -0.086 -1.1733  2.3849  0.3217
  208MOL0     H27398   0.585   6.095   0.046  0.7908  0.2042  0.4284
  208MOL0     H27399   0.568   5.805  -0.069 -1.9502 -0.3185 -0.3928
  208MOL0     H27400   0.472   5.860   0.059  2.5271  0.5343  2.6082
  208MOL0     H27401   0.458   6.003  -0.209  0.2268  0.4385  0.4548
  208MOL0     H27402   0.358   6.028  -0.066  0.3962 -0.1032  0.6103
  208MOL0     H27403   0.257   5.805  -0.094 -3.3829  1.4031 -2.7404
  208MOL0     H27404   0.374   5.768  -0.229  0.3588 -0.7078  1.4339
  208MOL0     H27405   0.197   6.018  -0.225  1.2966  1.2056 -1.6180
  208MOL0     H27406   0.258   5.921  -0.361 -2.3306  0.6130 -1.6299
  208MOL0     H27407   0.104   5.735  -0.340 -0.7053  0.7082  0.3302
  208MOL0     H27408   0.033   5.885  -0.391 -0.5149  0.3982 -0.1960
  208MOL0     H27409   0.008   5.622  -0.132 -0.0383 -0.8137  3.4407
  208MOL0     H27410  -0.152   5.736   0.187  1.6254 -1.7127  0.1687
  208MOL0     H27411  -0.170   5.599   0.076 -0.1889 -0.0680  0.3036
  208MOL0     H27412  -0.383   5.697  -0.020 -1.2899 -2.5024  1.9866
  208MOL0     H27413  -0.355   5.845   0.070 -0.2448 -0.1738  1.6014
  208MOL0     H27414  -0.390   5.572   0.218 -2.2112  0.6103  1.9138
  208MOL0     H27415  -0.383   5.727   0.289 -2.4631  1.2397  1.3343
  208MOL0     H27416  -0.627   5.665   0.277 -1.9676 -2.0803 -1.3569
  208MOL0     H27417  -0.599   5.579   0.124  1.7127  1.0666 -2.7340
  208MOL0     H27418  -0.826   5.605   0.185 -0.0947 -1.4160 -2.0008
  208MOL0     H27419  -1.077   5.656   0.147  2.6521 -1.5709  1.8343
  208MOL0     H27420  -1.338   6.182   0.175  1.3952 -0.2774 -0.1681
  208MOL0     H27421  -1.559   6.277   0.149  1.1856  0.1818  1.5146
  208MOL0     H27422  -1.892   6.048  -0.097 -0.0258  0.5056  0.6957
  208MOL0     H27423  -1.792   6.128  -0.211 -0.8506 -2.4603 -0.9896
  208MOL0     H27424  -1.976   6.249  -0.233 -0.9746  0.2344  0.6522
  208MOL0     H27425  -1.876   6.353  -0.125 -1.3402  0.8457  0.8180
  208MOL0     H27426  -2.001   6.246   0.071 -0.8292 -1.6057  0.2328
  208MOL0     H27427  -2.115   6.177  -0.056 -2.4056  2.9190 -2.9514
  208MOL0     H27428  -2.074   6.469  -0.034  0.4422  0.7009  0.0641
  208MOL0     H27429  -2.184   6.367  -0.133  0.4134 -4.1435  1.0369
  208MOL0     H27430  -2.212   6.362   0.168  0.3666  0.1892 -0.2787
  208MOL0     H27431  -2.305   6.276   0.052 -0.5166 -1.3187  0.8291
  208MOL0     H27432  -2.316   6.562  -0.023 -0.6420  1.5649  1.6302
  208MOL0     H27433  -2.330   6.550   0.147 -0.3923 -0.7028  0.8373
  208MOL0     H27434  -2.483   6.419  -0.084  0.4158  1.4419 -0.8979
  208MOL0     H27435  -2.528   6.383   0.092  0.5254  1.6035  2.7892
  208MOL0     H27436  -2.685   6.513   0.008  0.1500 -0.9489 -0.9714
  208MOL0     H27437  -2.560   6.647  -0.028 -0.5214 -0.7429 -0.8336
  208MOL0     H27438  -1.638   5.976  -0.160  2.9506  0.6342 -2.4089
  208MOL0     H27439  -1.414   5.922  -0.162 -1.4181 -1.8678  1.7700
  208MOL0     H27440  -0.967   6.041  -0.003  0.4744  0.1707 -0.9909
  208MOL0     H27441  -0.729   5.980   0.009 -0.7209 -0.5371 -0.9685
  208MOL0     H27442   1.028   6.130  -0.123  0.3092  2.1530 -0.0440
  208MOL0     H27443   1.256   6.182  -0.044  0.5159  0.4580  0.8710
  208MOL0     H27444   1.504   6.405   0.213 -3.1545 -3.4986 -2.7153
  208MOL0     H27445   1.752   6.480   0.253  0.6371  0.1926 -0.4560
  208MOL0     H27446   2.043   6.349   0.475 -1.0898  2.0385  1.3273
  208MOL0     H27447   1.892   6.448   0.444 -1.4732  0.4397 -1.8760
  208MOL0     H27448   2.176   6.474   0.303 -0.6549  1.6422 -2.1939
  208MOL0     H27449   2.032   6.566   0.273  1.3982 -0.1093 -0.8594
  208MOL0     H27450   2.180   6.555   0.542  0.7125 -2.8168 -2.2286
  208MOL0     H27451   2.019   6.624   0.525 -0.4008 -3.0191  0.5057
  208MOL0     H27452   2.253   6.710   0.342 -0.6619 -1.3485 -0.5284
  208MOL0     H27453   2.086   6.771   0.364  0.0408  0.1251 -0.4429
  208MOL0     H27454   2.260   6.931   0.717 -0.8290  1.9202 -1.9023
  208MOL0     H27455   1.881   6.076   0.272 -0.5505 -1.3110 -2.2300
  208MOL0     H27456   1.640   5.996   0.214 -0.1300  0.2121 -0.5437
  209MOL0     O27457   9.191   4.393   4.332 -0.6213 -0.0001  0.2986
  209MOL0     C27458   9.225   4.334   4.227  0.2126 -0.1792 -0.1795
  209MOL0     O27459   9.151   4.313   4.114  0.8179 -0.5111 -0.6295
  209MOL0     C27460   9.021   4.358   4.123  0.4799  0.0319 -0.0854
  209MOL0     C27461   8.983   4.472   4.053 -0.1683  0.7975  0.6705
  209MOL0     C27462   8.853   4.517   4.056 -0.4238  0.3409 -0.0911
  209MOL0     C27463   8.751   4.449   4.127 -0.0377 -0.3401  0.2558
  209MOL0     O27464   8.634   4.513   4.124 -0.1722  0.6106  1.0160
  209MOL0     C27465   8.531   4.466   4.208 -0.3495 -0.8554 -0.4761
  209MOL0     C27466   8.413   4.564   4.200  0.2649  0.1429  0.5651
  209MOL0     C27467   8.302   4.503   4.278 -0.0223 -0.3380  0.1994
  209MOL0     C27468   8.175   4.562   4.210  0.1508  0.3639 -0.4047
  209MOL0     C27469   8.040   4.550   4.269  0.2798  0.1874 -0.4387
  209MOL0     C27470   7.995   4.401   4.295  0.1490 -0.2521 -0.0532
  209MOL0     C27471   7.856   4.387   4.368  0.7359 -0.9142  0.5100
  209MOL0     C27472   7.808   4.248   4.335 -0.4530 -0.4134  0.0646
  209MOL0     N27473   7.699   4.209   4.424 -0.1028 -0.1329  0.2423
  209MOL0     C27474   7.673   4.083   4.455  0.7588 -0.0148 -0.4183
  209MOL0     C27475   7.548   4.089   4.512 -0.2601  0.5104 -0.1462
  209MOL0     C27476   7.472   3.957   4.544  0.2047 -0.0050 -0.8073
  209MOL0     C27477   7.515   3.897   4.680 -0.3605 -0.2969  0.5047
  209MOL0     C27478   7.402   3.835   4.760 -0.5395 -0.4088  0.7875
  209MOL0     C27479   7.341   3.710   4.681  0.3989  0.1969 -0.0054
  209MOL0     O27480   7.195   3.717   4.700  0.1553  0.6170 -0.3920
  209MOL0     C27481   7.137   3.673   4.819 -0.1286  0.9547  0.0273
  209MOL0     C27482   7.208   3.628   4.932  0.0052 -0.0202  1.2210
  209MOL0     C27483   7.152   3.570   5.047  0.2700  0.1768 -0.2670
  209MOL0     C27484   7.016   3.566   5.069  0.1396  0.3674 -0.0793
  209MOL0     C27485   6.951   3.515   5.190 -0.2283  1.2742  0.3231
  209MOL0     O27486   7.027   3.456   5.282 -0.2292 -0.2118  0.5757
  209MOL0     C27487   6.977   3.413   5.395 -0.2189 -0.1183 -0.8538
  209MOL0     C27488   6.842   3.361   5.413  0.0422  0.5919 -0.5454
  209MOL0     C27489   6.790   3.318   5.540  0.4535  0.2277  0.4508
  209MOL0     C27490   6.863   3.334   5.650 -0.9142  0.1031 -0.5796
  209MOL0     O27491   6.828   3.294   5.771  0.0467 -0.1654 -0.5638
  209MOL0     C27492   6.810   3.145   5.777  0.5117 -0.0360 -0.2290
  209MOL0     C27493   6.696   3.110   5.891 -0.1271 -0.0110  0.5046
  209MOL0     C27494   6.752   3.074   6.034  1.0428  0.1032  0.2777
  209MOL0     C27495   6.853   3.170   6.103  1.7054  0.0740  0.2703
  209MOL0     C27496   6.802   3.312   6.106 -0.7366  0.5560  0.3922
  209MOL0     C27497   6.690   3.326   6.205  0.2722 -0.0716 -0.5040
  209MOL0     C27498   6.673   3.468   6.248  0.3965 -0.1558  0.0267
  209MOL0     C27499   6.781   3.531   6.330  0.4854 -0.0676 -0.0799
  209MOL0    Cl27500   6.740   3.519   6.506 -0.0961  0.1403 -0.0272
  209MOL0     C27501   6.999   3.380   5.641  0.3244 -0.1938  0.9978
  209MOL0     C27502   7.050   3.410   5.509 -0.6622 -0.1595 -0.0244
  209MOL0     O27503   6.835   3.557   5.209  0.3726 -0.1227  0.6016
  209MOL0     C27504   6.944   3.612   4.960 -0.1418  0.0061 -0.4474
  209MOL0     C27505   6.998   3.667   4.842  0.4279 -0.3427  0.6363
  209MOL0     N27506   7.491   4.213   4.501  0.0738  0.2337 -0.2591
  209MOL0     N27507   7.589   4.289   4.453  0.4572  0.3773  0.6235
  209MOL0     C27508   8.786   4.333   4.185  0.0315  0.2918 -0.7887
  209MOL0     C27509   8.919   4.286   4.176 -0.0571  0.1373  0.1724
  209MOL0     C27510   9.360   4.277   4.229  1.2286 -0.4067 -0.2398
  209MOL0     C27511   9.415   4.208   4.117  1.3019  0.2765  0.1828
  209MOL0     C27512   9.550   4.163   4.122  0.1979  1.0004 -0.0594
  209MOL0     C27513   9.629   4.185   4.235 -0.3189 -0.1800 -0.2694
  209MOL0     O27514   9.767   4.166   4.233  0.0448  0.3074 -1.0217
  209MOL0     C27515   9.834   4.083   4.140 -0.2054 -0.4389 -0.4629
  209MOL0     C27516   9.802   3.932   4.170  0.4787 -0.2378 -0.1575
  209MOL0     C27517   9.921   3.847   4.134  0.4322 -0.8323 -0.2301
  209MOL0     C27518   9.918   3.701   4.173 -0.0771 -0.3390  0.5423
  209MOL0     C27519  10.034   3.634   4.113  1.6095 -0.3735 -1.6267
  209MOL0     C27520  10.125   3.561   4.105  0.1725  0.6292  0.8629
  209MOL0     C27521   9.580   4.261   4.335 -0.1229 -0.4246  0.5639
  209MOL0     C27522   9.445   4.308   4.335 -0.2994 -1.0560  0.5626
  209MOL0     H27523   9.065   4.518   3.999  0.5841 -1.3915 -0.1708
  209MOL0     H27524   8.843   4.618   4.019 -2.1449 -0.0471 -0.8097
  209MOL0     H27525   8.576   4.455   4.307 -2.8846  0.7444  0.9684
  209MOL0     H27526   8.510   4.365   4.170 -3.3443 -0.7043  0.5449
  209MOL0     H27527   8.389   4.585   4.095 -3.5485  0.5882  1.3710
  209MOL0     H27528   8.447   4.655   4.251  1.9248 -0.1369  0.0203
  209MOL0     H27529   8.304   4.530   4.384  0.1736  0.5722 -0.0239
  209MOL0     H27530   8.292   4.395   4.270 -3.6574 -0.2177  1.2994
  209MOL0     H27531   8.184   4.669   4.188 -1.1867 -0.0439 -3.5218
  209MOL0     H27532   8.161   4.521   4.110 -1.6451  0.0040 -0.0448
  209MOL0     H27533   7.974   4.600   4.197 -0.5902  0.8200  0.7667
  209MOL0     H27534   8.029   4.600   4.366 -1.1426 -2.5030  0.9159
  209MOL0     H27535   8.068   4.342   4.350 -1.2693 -1.6150  0.4584
  209MOL0     H27536   7.997   4.341   4.203  3.4579 -2.4109  1.2432
  209MOL0     H27537   7.872   4.398   4.476  0.7790 -0.6150  0.4731
  209MOL0     H27538   7.791   4.468   4.334  1.5509  1.0725  3.3262
  209MOL0     H27539   7.896   4.183   4.348 -0.0963  0.0360 -0.0690
  209MOL0     H27540   7.776   4.225   4.233 -2.2517  0.4006  0.4196
  209MOL0     H27541   7.741   3.999   4.448  1.5399  0.6983 -1.7774
  209MOL0     H27542   7.476   3.879   4.467  0.3381 -1.2185  0.3746
  209MOL0     H27543   7.368   3.985   4.558 -0.2662 -2.0754  0.3056
  209MOL0     H27544   7.558   3.980   4.736  0.6431 -0.8578  0.5936
  209MOL0     H27545   7.601   3.833   4.659 -2.1113 -3.1800  1.5189
  209MOL0     H27546   7.445   3.795   4.853 -0.7650 -0.7864  0.7291
  209MOL0     H27547   7.336   3.918   4.787  0.7645  1.2009 -0.6958
  209MOL0     H27548   7.383   3.618   4.724 -0.5797 -0.8202 -1.1312
  209MOL0     H27549   7.353   3.708   4.572 -1.5112 -1.3801 -0.2459
  209MOL0     H27550   7.316   3.635   4.926 -0.0616  0.3281  0.2442
  209MOL0     H27551   7.221   3.512   5.107  1.1288  0.0672 -1.3409
  209MOL0     H27552   6.775   3.349   5.329  0.3512 -1.4844 -0.5353
  209MOL0     H27553   6.689   3.276   5.541 -0.1147  1.5513  1.6174
  209MOL0     H27554   6.899   3.089   5.807  0.7772 -0.0646 -1.0264
  209MOL0     H27555   6.786   3.103   5.679  1.0125  2.2042 -1.3883
  209MOL0     H27556   6.642   3.028   5.843  0.4184  1.9575 -3.9687
  209MOL0     H27557   6.633   3.199   5.901  2.1962  1.9106 -0.6015
  209MOL0     H27558   6.796   2.974   6.034 -0.4214 -0.6268  2.5030
  209MOL0     H27559   6.666   3.066   6.101  0.3947  2.8856 -0.0661
  209MOL0     H27560   6.866   3.140   6.207 -3.8692 -1.6382  0.8151
  209MOL0     H27561   6.949   3.162   6.052  1.2430  1.4192 -0.8815
  209MOL0     H27562   6.761   3.341   6.009  1.6931  0.6924 -0.6670
  209MOL0     H27563   6.882   3.384   6.125 -2.4736  3.4661 -2.2701
  209MOL0     H27564   6.724   3.280   6.298 -0.1842  1.3739  0.4073
  209MOL0     H27565   6.603   3.272   6.166  0.0791  0.4170 -0.7568
  209MOL0     H27566   6.658   3.520   6.152  0.9845  2.6411  1.3557
  209MOL0     H27567   6.580   3.477   6.305 -0.4259  2.5811 -1.5475
  209MOL0     H27568   6.781   3.637   6.301  1.8585  0.4612  1.7040
  209MOL0     H27569   6.882   3.495   6.306  1.4990  2.7508 -0.4426
  209MOL0     H27570   7.060   3.392   5.730  0.7793  2.3457  0.4313
  209MOL0     H27571   7.152   3.449   5.508  0.3363 -2.5258 -1.0984
  209MOL0     H27572   6.836   3.623   4.957 -0.0386  1.0571 -0.8637
  209MOL0     H27573   6.930   3.702   4.765  2.1297 -0.8165 -1.1595
  209MOL0     H27574   8.720   4.265   4.237  2.5949 -2.8670 -1.3260
  209MOL0     H27575   8.945   4.197   4.232  1.2873  0.3931 -0.0199
  209MOL0     H27576   9.339   4.187   4.043  0.2141  0.1410  1.3103
  209MOL0     H27577   9.597   4.102   4.045 -0.6792  1.7947 -1.2748
  209MOL0     H27578   9.942   4.088   4.159 -0.2328 -1.6585  0.1564
  209MOL0     H27579   9.820   4.113   4.036 -1.8609 -0.5344 -0.2925
  209MOL0     H27580   9.793   3.913   4.277  0.6142 -3.9458 -0.7022
  209MOL0     H27581   9.710   3.905   4.119  1.7027  0.0198 -2.6614
  209MOL0     H27582  10.017   3.876   4.178  1.5885 -0.0375 -3.0618
  209MOL0     H27583   9.923   3.852   4.024 -2.3047  1.7878 -0.2925
  209MOL0     H27584   9.909   3.693   4.282  0.3661 -1.6384  0.4970
  209MOL0     H27585   9.826   3.661   4.131 -0.4563  0.8453  0.2117
  209MOL0     H27586  10.205   3.491   4.097 -1.4000 -1.0281 -2.3821
  209MOL0     H27587   9.639   4.282   4.424  2.0633  1.4057 -1.2047
  209MOL0     H27588   9.424   4.379   4.415 -0.0423 -0.3990  0.0649
  210MOL0     O27589   5.383  10.046   1.423  0.2378 -0.1718  0.5774
  210MOL0     C27590   5.412   9.924   1.447  0.1698 -0.4783  0.1118
  210MOL0     O27591   5.322   9.825   1.462 -0.2026  0.7465 -0.3244
  210MOL0     C27592   5.189   9.843   1.486  0.2079 -0.0605  0.1080
  210MOL0     C27593   5.127   9.958   1.553  1.1821  0.0904  0.6585
  210MOL0     C27594   4.987   9.963   1.566  0.2773 -0.2679  0.4197
  210MOL0     C27595   4.905   9.855   1.542 -0.4110  0.5401  0.7196
  210MOL0     O27596   4.770   9.858   1.575 -0.6681 -0.5222  0.3948
  210MOL0     C27597   4.671   9.778   1.497  0.3128  0.8878  0.3958
  210MOL0     C27598   4.534   9.805   1.562  0.5378  0.3186 -0.4582
  210MOL0     C27599   4.416   9.743   1.492  0.2396  0.5913 -0.5574
  210MOL0     C27600   4.282   9.776   1.556 -0.1782 -0.7797  0.3749
  210MOL0     C27601   4.167   9.695   1.496 -0.0663  0.0595 -0.1238
  210MOL0     C27602   4.037   9.722   1.576  0.4229  1.1489  0.2194
  210MOL0     C27603   3.911   9.671   1.512  0.6777 -0.0771 -0.5279
  210MOL0     C27604   3.817   9.653   1.628  0.6094 -0.1742  0.5610
  210MOL0     N27605   3.753   9.776   1.671 -1.5234  0.9188 -0.6059
  210MOL0     C27606   3.803   9.891   1.735 -0.0217  0.4825  0.3091
  210MOL0     C27607   3.704   9.977   1.743 -0.3939 -0.8219  0.4940
  210MOL0     C27608   3.696  10.109   1.811 -0.2606 -0.6336  0.0741
  210MOL0     C27609   3.836  10.161   1.857  0.0971  0.5480  0.7256
  210MOL0     C27610   3.818  10.299   1.907  0.3083 -0.1049 -0.2716
  210MOL0     C27611   3.953  10.372   1.909  0.5963  0.2708  0.5054
  210MOL0     O27612   4.029  10.318   2.020  0.5446 -0.3782  0.0820
  210MOL0     C27613   4.152  10.383   2.031  0.0847 -1.0157 -0.5217
  210MOL0     C27614   4.248  10.309   2.092 -0.4199 -0.3308  0.0874
  210MOL0     C27615   4.381  10.345   2.097  0.5852  0.6481 -0.2735
  210MOL0     C27616   4.420  10.478   2.055  0.4836  0.8292  0.3994
  210MOL0     C27617   4.568  10.510   2.051  1.0228 -0.5007 -0.4164
  210MOL0     O27618   4.595  10.637   2.012  0.2902 -0.0692  0.3255
  210MOL0     C27619   4.725  10.659   1.989  0.1405 -0.2185  0.0956
  210MOL0     C27620   4.774  10.673   1.856 -0.0915  0.4914  0.0471
  210MOL0     C27621   4.910  10.685   1.828 -1.0087 -0.3326 -0.2707
  210MOL0     C27622   5.005  10.685   1.929  0.5856  0.7241 -0.5936
  210MOL0     O27623   5.132  10.677   1.896 -0.6970  0.3414  0.4068
  210MOL0     C27624   5.197  10.793   1.849  0.2902  0.0441  0.0713
  210MOL0     C27625   5.257  10.890   1.953  0.3755 -0.2564 -0.2366
  210MOL0     C27626   5.387  10.851   2.011  0.5618  0.1925  0.6488
  210MOL0     C27627   5.422  10.933   2.138 -0.1162  0.3245  0.8615
  210MOL0     C27628   5.559  10.904   2.203  0.2647  0.0707  0.4329
  210MOL0     C27629   5.557  10.758   2.265 -0.0854 -0.4429  0.0786
  210MOL0     C27630   5.686  10.727   2.350  0.4078 -0.0087  0.5694
  210MOL0     C27631   5.662  10.598   2.430  0.5020 -0.5345 -0.1545
  210MOL0    Cl27632   5.806  10.572   2.518  0.2555  0.3474 -0.0291
  210MOL0     C27633   4.959  10.688   2.067 -0.5057 -0.4578 -0.4054
  210MOL0     C27634   4.822  10.674   2.091  0.0430  0.0997  0.1019
  210MOL0     O27635   4.652  10.428   2.078  0.6371  0.1100 -0.2589
  210MOL0     C27636   4.318  10.554   1.997 -0.5736 -0.7117 -0.5039
  210MOL0     C27637   4.188  10.517   1.990  0.1520  0.5834  0.4735
  210MOL0     N27638   3.591   9.914   1.691  0.2655 -0.0844 -0.4167
  210MOL0     N27639   3.623   9.796   1.650 -0.4470 -1.1304 -0.4242
  210MOL0     C27640   4.969   9.732   1.495 -0.5662 -0.3751 -0.6262
  210MOL0     C27641   5.104   9.734   1.456  0.3062 -0.2537 -0.3793
  210MOL0     C27642   5.556   9.894   1.451 -0.5366  0.3673  0.8438
  210MOL0     C27643   5.653   9.988   1.423 -0.6418 -0.2182 -0.1394
  210MOL0     C27644   5.790   9.962   1.443  0.0670 -0.1533  0.4339
  210MOL0     C27645   5.840   9.837   1.485 -0.0304 -0.3342 -0.1771
  210MOL0     O27646   5.970   9.820   1.523 -0.4529  0.0995  0.2113
  210MOL0     C27647   6.074   9.903   1.479  0.1202  0.1035 -0.0490
  210MOL0     C27648   6.203   9.824   1.503  0.2329 -0.9342  0.1849
  210MOL0     C27649   6.333   9.908   1.501 -0.4809 -0.3025 -0.1334
  210MOL0     C27650   6.448   9.801   1.510  0.2243 -0.4115  0.0075
  210MOL0     C27651   6.581   9.863   1.544  0.5262  0.9048  0.2640
  210MOL0     C27652   6.678   9.921   1.579  0.6416 -0.1296 -0.7507
  210MOL0     C27653   5.745   9.736   1.512  0.3706 -0.7699  0.0546
  210MOL0     C27654   5.604   9.767   1.494 -0.2476  0.1334 -0.7955
  210MOL0     H27655   5.194  10.037   1.587  2.3551 -1.2735  1.5912
  210MOL0     H27656   4.937  10.054   1.596 -1.0022 -0.7102 -0.2734
  210MOL0     H27657   4.694   9.673   1.514 -0.6898  0.3139 -1.5365
  210MOL0     H27658   4.673   9.802   1.390  0.7357  0.4564  0.3008
  210MOL0     H27659   4.515   9.913   1.567  0.7122  0.3032  2.8019
  210MOL0     H27660   4.545   9.780   1.668 -0.3301 -0.9633 -0.6436
  210MOL0     H27661   4.442   9.637   1.492 -1.2884  0.1397  2.3488
  210MOL0     H27662   4.425   9.784   1.391  2.6049 -0.0948 -0.7018
  210MOL0     H27663   4.293   9.753   1.663  0.2767 -0.3897  0.4153
  210MOL0     H27664   4.256   9.881   1.541 -1.5476 -1.2626 -0.8504
  210MOL0     H27665   4.188   9.588   1.496  3.6534  0.6480 -0.0394
  210MOL0     H27666   4.156   9.725   1.392  1.2219  4.1372  0.7320
  210MOL0     H27667   4.016   9.828   1.593  0.7116  1.1767  0.3944
  210MOL0     H27668   4.061   9.680   1.674 -0.3481 -0.7525 -0.3659
  210MOL0     H27669   3.867   9.740   1.440  0.3557  0.3824  0.0978
  210MOL0     H27670   3.935   9.575   1.465  0.4397 -0.0970 -0.6090
  210MOL0     H27671   3.871   9.604   1.709  1.9056 -6.1254 -3.2618
  210MOL0     H27672   3.732   9.586   1.614  0.1032  0.0680  2.3236
  210MOL0     H27673   3.907   9.911   1.759  0.9923  1.2352 -3.9494
  210MOL0     H27674   3.634  10.089   1.898  0.7066  1.0854  1.2237
  210MOL0     H27675   3.651  10.181   1.741  1.4522  1.4605  1.0124
  210MOL0     H27676   3.914  10.161   1.780 -0.0437  0.8161  0.5817
  210MOL0     H27677   3.872  10.099   1.939 -1.3633 -0.5227  0.6037
  210MOL0     H27678   3.754  10.346   1.830 -0.2473 -3.8023 -2.3082
  210MOL0     H27679   3.769  10.302   2.004  1.7566  1.7117  0.4511
  210MOL0     H27680   3.921  10.473   1.940  0.0288 -0.1253  1.2611
  210MOL0     H27681   4.010  10.366   1.816  1.8993  0.9701  1.2341
  210MOL0     H27682   4.219  10.213   2.131  1.1999  0.0116  2.2914
  210MOL0     H27683   4.460  10.288   2.146 -0.4548  1.3767  2.4107
  210MOL0     H27684   4.702  10.653   1.778 -0.0355  0.0409  0.1083
  210MOL0     H27685   4.952  10.682   1.728  1.2833  0.9806  0.5654
  210MOL0     H27686   5.121  10.846   1.791 -0.5530 -1.4488 -0.2358
  210MOL0     H27687   5.276  10.766   1.778 -0.0008  2.0127 -1.0669
  210MOL0     H27688   5.195  10.889   2.043 -1.2755  0.9378 -1.3156
  210MOL0     H27689   5.265  10.990   1.910 -1.2022  0.8537  1.8488
  210MOL0     H27690   5.460  10.861   1.930  1.4145  2.5025  1.6063
  210MOL0     H27691   5.379  10.745   2.037  0.3394 -0.0859 -0.4920
  210MOL0     H27692   5.436  11.035   2.102  4.1751  0.5047  2.4890
  210MOL0     H27693   5.343  10.917   2.212  1.2805 -4.3091  1.6243
  210MOL0     H27694   5.581  10.977   2.281 -1.5515  1.9899 -0.7470
  210MOL0     H27695   5.641  10.903   2.130 -1.1578 -0.8881 -1.2509
  210MOL0     H27696   5.539  10.689   2.182  0.6610  0.3506 -0.7677
  210MOL0     H27697   5.475  10.750   2.337  0.6284  0.0737  0.9744
  210MOL0     H27698   5.767  10.715   2.277 -0.2595  1.1821 -0.4099
  210MOL0     H27699   5.717  10.811   2.412  0.1636  1.8272 -1.6490
  210MOL0     H27700   5.644  10.511   2.367 -1.3895  0.5159 -1.1752
  210MOL0     H27701   5.572  10.607   2.493  0.8144 -0.8268  0.3363
  210MOL0     H27702   5.036  10.705   2.142  0.4124  1.0570 -1.6389
  210MOL0     H27703   4.782  10.661   2.192 -1.5088 -1.1051 -0.6191
  210MOL0     H27704   4.337  10.658   1.972  0.7306 -0.5051  1.1589
  210MOL0     H27705   4.108  10.578   1.950  1.5357  2.0838 -0.1040
  210MOL0     H27706   4.907   9.644   1.480 -1.6348 -0.3774  2.9147
  210MOL0     H27707   5.138   9.640   1.415 -1.4275  0.1011 -2.8319
  210MOL0     H27708   5.635  10.092   1.397 -2.3147  0.0489  1.7929
  210MOL0     H27709   5.857  10.048   1.434 -0.9772  0.5497 -1.2262
  210MOL0     H27710   6.067  10.002   1.526 -1.9989  0.3811 -0.8513
  210MOL0     H27711   6.069   9.907   1.370 -1.1214 -1.2511 -0.0739
  210MOL0     H27712   6.184   9.784   1.603  1.8619 -0.2678  0.7979
  210MOL0     H27713   6.196   9.745   1.428 -1.6321 -1.3534  0.7388
  210MOL0     H27714   6.336   9.980   1.584 -1.0635 -3.5350  2.9378
  210MOL0     H27715   6.348   9.968   1.411  2.6298 -1.4389 -0.4767
  210MOL0     H27716   6.432   9.731   1.592  1.4207  0.8771  1.3835
  210MOL0     H27717   6.454   9.753   1.412 -0.1358  1.2062 -0.8469
  210MOL0     H27718   6.748   9.991   1.619  0.9303 -0.5449 -0.5276
  210MOL0     H27719   5.788   9.646   1.554  3.2831  0.3843 -0.1959
  210MOL0     H27720   5.531   9.697   1.533 -2.1858  2.5985  0.2645
  211MOL0     O27721   0.462  10.055   6.556  0.4738  0.0417 -0.6551
  211MOL0     C27722   0.433  10.099   6.449 -0.1401 -0.8914 -0.9348
  211MOL0     O27723   0.337  10.057   6.368  0.0093 -0.5316  0.3437
  211MOL0     C27724   0.245   9.966   6.405 -0.2363 -0.5287  0.1844
  211MOL0     C27725   0.196   9.870   6.311 -1.4292 -0.5988 -0.8702
  211MOL0     C27726   0.095   9.780   6.338 -0.2599 -0.4183  0.2179
  211MOL0     C27727   0.027   9.786   6.459  0.1290  0.3725 -0.4997
  211MOL0     O27728  -0.080   9.706   6.502 -0.4480 -0.7279 -0.2140
  211MOL0     C27729  -0.133   9.600   6.429 -0.4268 -0.5349 -1.1521
  211MOL0     C27730  -0.241   9.625   6.324  0.3215 -0.4263  0.4747
  211MOL0     C27731  -0.359   9.711   6.384  0.5354 -0.1028  0.0272
  211MOL0     C27732  -0.463   9.623   6.452 -1.1238 -0.1054  0.0979
  211MOL0     C27733  -0.604   9.682   6.468  0.6677  0.7395  0.7491
  211MOL0     C27734  -0.605   9.793   6.573  0.2384 -0.3418  0.9027
  211MOL0     C27735  -0.744   9.832   6.606 -0.2334  0.8419 -0.2529
  211MOL0     C27736  -0.774   9.886   6.751 -0.0839  0.3771  0.3827
  211MOL0     N27737  -0.914   9.888   6.789  0.5498 -0.7636  0.2303
  211MOL0     C27738  -1.017   9.955   6.725  0.5254 -0.0362 -0.1548
  211MOL0     C27739  -1.128   9.903   6.787 -0.0897  0.2400 -0.7790
  211MOL0     C27740  -1.270   9.931   6.753  0.0678  0.1476 -0.5364
  211MOL0     C27741  -1.330  10.031   6.848 -0.0397 -0.7201 -0.7415
  211MOL0     C27742  -1.474  10.047   6.806 -0.0799 -0.0879  0.4576
  211MOL0     C27743  -1.546  10.116   6.928  0.9575 -0.2964  1.1683
  211MOL0     O27744  -1.686  10.098   6.901 -0.6074 -0.0933 -0.1227
  211MOL0     C27745  -1.769  10.196   6.952 -0.3248 -0.9434  0.0662
  211MOL0     C27746  -1.769  10.225   7.085 -0.1970 -0.6624 -0.4044
  211MOL0     C27747  -1.873  10.306   7.143 -0.4415  0.7936  0.2863
  211MOL0     C27748  -1.974  10.347   7.065  0.3319 -0.2310  0.1315
  211MOL0     C27749  -2.085  10.427   7.115  0.2439  0.2758  0.3533
  211MOL0     O27750  -2.068  10.467   7.246  0.5167  0.7918 -0.3147
  211MOL0     C27751  -2.178  10.533   7.306 -0.4413  0.1361  0.1919
  211MOL0     C27752  -2.207  10.666   7.291  0.1087 -0.1873 -0.3790
  211MOL0     C27753  -2.316  10.731   7.352 -0.1682  0.2233  0.3065
  211MOL0     C27754  -2.388  10.662   7.445  0.1107  0.8477 -0.1247
  211MOL0     O27755  -2.491  10.709   7.525 -0.6512 -0.3999 -0.0851
  211MOL0     C27756  -2.560  10.826   7.470 -0.2530  0.3907  0.1695
  211MOL0     C27757  -2.653  10.780   7.343 -0.6333 -0.3963 -0.4868
  211MOL0     C27758  -2.793  10.726   7.368  0.9400 -0.1801 -1.0564
  211MOL0     C27759  -2.793  10.600   7.451 -0.0023  0.6515 -0.0955
  211MOL0     C27760  -2.934  10.555   7.499 -0.3609  0.1401  0.4294
  211MOL0     C27761  -2.967  10.607   7.638  0.4278  0.1585 -0.2073
  211MOL0     C27762  -3.116  10.626   7.673 -0.3027  0.3660 -0.3807
  211MOL0     C27763  -3.189  10.490   7.652 -0.1723 -0.3312  0.2961
  211MOL0    Cl27764  -3.120  10.365   7.765  0.1304 -0.0757  0.3954
  211MOL0     C27765  -2.367  10.526   7.463 -0.2890  0.2806  1.1221
  211MOL0     C27766  -2.259  10.455   7.396 -0.0453 -1.0071 -1.1620
  211MOL0     O27767  -2.174  10.452   7.034 -0.4542  0.2445  0.3271
  211MOL0     C27768  -1.970  10.317   6.925  1.0101 -0.4813 -0.2986
  211MOL0     C27769  -1.870  10.243   6.868  0.0983 -0.0038 -0.0901
  211MOL0     N27770  -1.086   9.806   6.880  1.0940 -0.2329  0.8606
  211MOL0     N27771  -0.960   9.812   6.888  0.3164  1.5696  0.1478
  211MOL0     C27772   0.071   9.878   6.549  0.8372  0.3049  0.5326
  211MOL0     C27773   0.177   9.965   6.529 -0.7579 -0.4427  0.5391
  211MOL0     C27774   0.509  10.216   6.399 -0.0437  0.8080  0.8101
  211MOL0     C27775   0.495  10.249   6.260  0.1561  0.2643 -0.2211
  211MOL0     C27776   0.556  10.366   6.209 -0.2757  0.5311  0.2615
  211MOL0     C27777   0.630  10.449   6.293 -0.1293 -0.2800 -0.1954
  211MOL0     O27778   0.683  10.571   6.243 -0.1118 -0.1747 -0.1488
  211MOL0     C27779   0.700  10.596   6.104  0.5337 -0.3808  0.0312
  211MOL0     C27780   0.803  10.503   6.032  0.5456 -0.3056  0.0169
  211MOL0     C27781   0.939  10.528   6.089  0.4860  0.6732 -0.7681
  211MOL0     C27782   1.003  10.652   6.022  0.4025 -0.2079 -0.2179
  211MOL0     C27783   1.142  10.625   5.996 -0.2811 -0.1301  0.2770
  211MOL0     C27784   1.252  10.614   5.942  0.6882  0.0123 -0.6819
  211MOL0     C27785   0.636  10.418   6.430  0.6394  0.0451 -0.8562
  211MOL0     C27786   0.591  10.301   6.480 -0.0905  0.4048  0.4525
  211MOL0     H27787   0.261   9.864   6.225  1.5415 -1.0688  1.2596
  211MOL0     H27788   0.065   9.707   6.264 -0.5098  1.1214 -1.2572
  211MOL0     H27789  -0.176   9.537   6.507  3.3415 -0.0135  1.6378
  211MOL0     H27790  -0.054   9.536   6.387  1.7095 -0.8873  2.9279
  211MOL0     H27791  -0.275   9.531   6.279 -2.3591  0.5695  0.2378
  211MOL0     H27792  -0.192   9.666   6.236  1.9329 -4.4566 -0.7499
  211MOL0     H27793  -0.411   9.757   6.299  2.0176  1.8495  0.1055
  211MOL0     H27794  -0.321   9.796   6.440  1.0014 -0.2171 -0.1125
  211MOL0     H27795  -0.477   9.530   6.396 -1.6883  0.5241 -0.8183
  211MOL0     H27796  -0.421   9.604   6.552  0.9773  2.0375 -0.2832
  211MOL0     H27797  -0.674   9.602   6.493  0.5452  0.0141 -1.6490
  211MOL0     H27798  -0.628   9.724   6.370  2.3795 -0.3948 -0.2165
  211MOL0     H27799  -0.556   9.881   6.530 -0.3062 -0.1312  0.7131
  211MOL0     H27800  -0.548   9.771   6.664  1.5003 -0.5228  0.1061
  211MOL0     H27801  -0.780   9.917   6.547 -3.2541  2.1639  3.0493
  211MOL0     H27802  -0.814   9.752   6.579 -1.0097  1.3344  0.2519
  211MOL0     H27803  -0.728   9.985   6.760 -0.0454  0.5179 -1.1603
  211MOL0     H27804  -0.722   9.817   6.818 -0.7140 -1.2258 -0.7177
  211MOL0     H27805  -1.009  10.011   6.632  0.4541 -0.6943 -0.5578
  211MOL0     H27806  -1.337   9.844   6.745  2.6683 -1.8021 -3.2332
  211MOL0     H27807  -1.269   9.986   6.659 -1.5375  1.6743  0.2829
  211MOL0     H27808  -1.273  10.124   6.843  1.2167 -1.5120 -1.8111
  211MOL0     H27809  -1.318   9.993   6.950  1.4823  0.6658 -0.3641
  211MOL0     H27810  -1.482  10.108   6.716  0.9809  2.0002  1.7205
  211MOL0     H27811  -1.508   9.944   6.792  1.9520 -0.4354 -3.0637
  211MOL0     H27812  -1.539  10.225   6.929 -0.5610 -0.1839  1.0169
  211MOL0     H27813  -1.523  10.069   7.024 -1.7011  1.7186  2.9228
  211MOL0     H27814  -1.683  10.199   7.146  0.5247 -0.0817 -1.1430
  211MOL0     H27815  -1.869  10.318   7.251 -1.8261 -1.7038  0.6984
  211MOL0     H27816  -2.144  10.718   7.219 -1.4164  2.8913  0.3550
  211MOL0     H27817  -2.338  10.833   7.321  0.1774  0.2332  0.0856
  211MOL0     H27818  -2.486  10.901   7.444  0.2429 -0.6766 -1.6628
  211MOL0     H27819  -2.628  10.877   7.539 -1.2609  1.1614 -1.3317
  211MOL0     H27820  -2.594  10.703   7.294 -2.8619 -1.4391 -1.6949
  211MOL0     H27821  -2.658  10.867   7.278  2.0592  1.1698  1.1958
  211MOL0     H27822  -2.844  10.707   7.274  0.3377 -1.9483 -0.4029
  211MOL0     H27823  -2.853  10.802   7.420 -0.8304 -1.2472 -1.4700
  211MOL0     H27824  -2.751  10.517   7.394  0.0668  0.6182  0.0028
  211MOL0     H27825  -2.728  10.608   7.539 -2.3690 -2.2071  2.1292
  211MOL0     H27826  -2.949  10.446   7.500  0.5149 -0.0624 -2.2857
  211MOL0     H27827  -3.004  10.590   7.423  2.1611  3.0589 -0.7509
  211MOL0     H27828  -2.919  10.704   7.646  1.4603 -0.1700 -1.8163
  211MOL0     H27829  -2.924  10.538   7.711  0.1565  0.4240  0.2072
  211MOL0     H27830  -3.125  10.653   7.779  2.3784  1.6244 -0.3795
  211MOL0     H27831  -3.170  10.702   7.616 -2.1505  0.0495  0.8828
  211MOL0     H27832  -3.185  10.454   7.549 -0.0130  1.2232 -0.2533
  211MOL0     H27833  -3.293  10.515   7.671  0.3205  1.1126  1.2599
  211MOL0     H27834  -2.434  10.477   7.533  0.0275 -0.6031  0.8155
  211MOL0     H27835  -2.230  10.351   7.405 -0.4996 -1.2338 -2.2129
  211MOL0     H27836  -2.055  10.353   6.867  0.6589  0.1805  0.6173
  211MOL0     H27837  -1.878  10.191   6.773 -0.3804 -1.1994  0.5845
  211MOL0     H27838   0.019   9.880   6.644 -2.2651  2.0895 -1.0769
  211MOL0     H27839   0.208  10.038   6.603 -0.8544 -1.3912  1.5478
  211MOL0     H27840   0.431  10.190   6.195  0.6117 -0.5039  0.0069
  211MOL0     H27841   0.543  10.390   6.104  3.0293 -0.7522 -0.5518
  211MOL0     H27842   0.723  10.702   6.090  1.8795 -0.1489  3.1746
  211MOL0     H27843   0.608  10.575   6.049  0.4044 -1.3540  0.5850
  211MOL0     H27844   0.778  10.399   6.054  0.3462 -0.0289  1.1553
  211MOL0     H27845   0.807  10.513   5.923 -1.4066  1.0045  0.0004
  211MOL0     H27846   1.002  10.443   6.063  1.0499  1.6100 -2.5892
  211MOL0     H27847   0.925  10.537   6.197  1.0763  2.5177 -0.8098
  211MOL0     H27848   0.956  10.681   5.928 -0.0042  1.6750  0.5125
  211MOL0     H27849   0.996  10.741   6.085 -2.6195  0.1042 -0.8687
  211MOL0     H27850   1.347  10.614   5.893  1.0104  2.0764 -0.1719
  211MOL0     H27851   0.690  10.489   6.492 -0.3043 -1.9426  2.5398
  211MOL0     H27852   0.594  10.266   6.583  3.1039 -0.7828  0.0550
  212MOL0     O27853   4.021   9.616   2.727  0.1614 -0.8172  0.3661
  212MOL0     C27854   4.009   9.496   2.775 -0.7862 -0.2862  0.0725
  212MOL0     O27855   4.108   9.431   2.839  0.3714  0.4657 -0.2177
  212MOL0     C27856   4.238   9.489   2.855 -0.8103  0.0647 -0.0838
  212MOL0     C27857   4.301   9.570   2.769  0.8198 -0.7639  0.7123
  212MOL0     C27858   4.418   9.641   2.799  0.0783  0.2219 -0.4708
  212MOL0     C27859   4.474   9.619   2.926  0.1344  0.5586 -0.3599
  212MOL0     O27860   4.591   9.678   2.974 -0.7633 -0.0000  1.0980
  212MOL0     C27861   4.639   9.805   2.915  0.0132  0.7858 -0.2870
  212MOL0     C27862   4.765   9.777   2.843  0.0402  0.6302  0.1958
  212MOL0     C27863   4.872   9.746   2.955 -0.4656  0.9294 -0.5567
  212MOL0     C27864   4.972   9.653   2.899  0.5844  0.8527 -0.2305
  212MOL0     C27865   5.082   9.637   3.004 -0.0519 -0.3112 -0.3262
  212MOL0     C27866   5.185   9.541   2.963 -0.1801 -0.2142 -0.1529
  212MOL0     C27867   5.287   9.528   3.075 -0.3409  0.3541  0.2477
  212MOL0     C27868   5.369   9.397   3.060 -0.3011 -0.9315 -0.1393
  212MOL0     N27869   5.324   9.272   3.127  0.4870 -0.7765  0.2553
  212MOL0     C27870   5.248   9.176   3.069 -0.3716  0.0283  0.2085
  212MOL0     C27871   5.197   9.102   3.169 -0.6347 -0.6680 -0.0858
  212MOL0     C27872   5.110   8.987   3.164  0.7049  0.8252  0.0050
  212MOL0     C27873   4.994   8.977   3.065 -0.5798 -0.1573  0.2141
  212MOL0     C27874   4.914   8.844   3.077  0.6075  0.7560 -0.6837
  212MOL0     C27875   4.789   8.839   2.983  0.1989 -0.4810 -0.2548
  212MOL0     O27876   4.734   8.707   3.000  1.4358  0.2777 -0.2030
  212MOL0     C27877   4.606   8.673   2.955 -0.0858 -0.8778  1.3107
  212MOL0     C27878   4.576   8.542   2.934  0.7704 -0.5565 -0.4057
  212MOL0     C27879   4.447   8.505   2.907 -0.7462 -0.3954 -0.4881
  212MOL0     C27880   4.353   8.607   2.872 -0.6847  0.6239 -0.8217
  212MOL0     C27881   4.227   8.568   2.809  1.2820  0.2062 -0.0305
  212MOL0     O27882   4.154   8.652   2.738  0.0083 -0.4556 -0.6634
  212MOL0     C27883   4.023   8.606   2.708 -0.5589  0.1421 -0.5705
  212MOL0     C27884   3.988   8.555   2.582 -1.3318  0.0085 -0.6801
  212MOL0     C27885   3.862   8.493   2.568 -0.1629  0.7661  0.3723
  212MOL0     C27886   3.772   8.472   2.673 -0.4280 -0.9516 -0.1383
  212MOL0     O27887   3.666   8.379   2.657  0.2780  0.3731  0.0464
  212MOL0     C27888   3.539   8.415   2.725 -0.4165  0.9748 -0.6905
  212MOL0     C27889   3.489   8.312   2.829 -0.0535  0.2856 -0.2567
  212MOL0     C27890   3.486   8.176   2.770 -0.1250 -0.3795  0.4537
  212MOL0     C27891   3.391   8.083   2.848  0.1217  0.3477  0.6773
  212MOL0     C27892   3.241   8.099   2.806 -0.1173 -0.1150  0.8536
  212MOL0     C27893   3.240   8.046   2.660  0.1326 -0.0830 -0.1512
  212MOL0     C27894   3.093   8.016   2.626 -1.0193  0.5945  0.2379
  212MOL0     C27895   3.081   7.987   2.481 -0.1419 -0.2280 -0.5396
  212MOL0    Cl27896   2.925   7.919   2.434  0.1487  0.2046  0.2489
  212MOL0     C27897   3.807   8.523   2.804 -0.4456  0.1386 -0.4130
  212MOL0     C27898   3.934   8.591   2.816  0.0639  0.2574 -0.5919
  212MOL0     O27899   4.208   8.445   2.812  1.0906  0.2690  0.0930
  212MOL0     C27900   4.380   8.739   2.887 -0.9285  0.3109 -0.0385
  212MOL0     C27901   4.509   8.770   2.929  0.9824 -0.2128  0.5504
  212MOL0     N27902   5.227   9.162   3.286 -0.0086 -0.0322  1.1415
  212MOL0     N27903   5.301   9.265   3.262 -0.2662  0.2221 -0.0260
  212MOL0     C27904   4.416   9.526   3.013  0.5227  0.8154  0.5024
  212MOL0     C27905   4.296   9.466   2.979  0.0837  0.1497 -0.0405
  212MOL0     C27906   3.877   9.435   2.755  0.0408  0.9420  0.2435
  212MOL0     C27907   3.776   9.497   2.678 -0.3817  0.5665 -0.6739
  212MOL0     C27908   3.666   9.427   2.640 -0.1636 -0.8707  0.2159
  212MOL0     C27909   3.640   9.303   2.698 -0.3095 -0.8326  0.3219
  212MOL0     O27910   3.531   9.209   2.687 -0.4060 -0.5603  0.1025
  212MOL0     C27911   3.425   9.277   2.623 -0.2131 -0.7509  0.0458
  212MOL0     C27912   3.311   9.172   2.607 -0.1416  0.2171  0.7481
  212MOL0     C27913   3.199   9.237   2.522 -0.2206  0.5251  0.5342
  212MOL0     C27914   3.100   9.135   2.462 -0.3057  0.1705 -0.4319
  212MOL0     C27915   2.967   9.186   2.420 -0.6023  0.0451 -0.2801
  212MOL0     C27916   2.878   9.214   2.347  0.3483  0.0083  0.7501
  212MOL0     C27917   3.727   9.243   2.783 -0.5456 -0.4161  0.2637
  212MOL0     C27918   3.856   9.300   2.808  0.2868  0.0349 -0.7228
  212MOL0     H27919   4.261   9.603   2.674  2.5669  2.8426  1.0346
  212MOL0     H27920   4.469   9.700   2.724 -0.7639  1.9172  0.2355
  212MOL0     H27921   4.664   9.874   2.995  0.7674 -1.2513  1.3276
  212MOL0     H27922   4.570   9.857   2.847 -0.0032 -2.6596 -3.2168
  212MOL0     H27923   4.803   9.861   2.783  0.4735  0.1475 -0.2177
  212MOL0     H27924   4.752   9.685   2.786  0.4822  0.0051  1.0908
  212MOL0     H27925   4.828   9.705   3.047 -1.3595 -0.9845 -1.7623
  212MOL0     H27926   4.914   9.844   2.977 -3.1267  2.2491 -0.9245
  212MOL0     H27927   4.914   9.561   2.889 -0.6199  1.6282 -0.6898
  212MOL0     H27928   5.010   9.691   2.804  4.0909 -1.8063 -0.1257
  212MOL0     H27929   5.043   9.601   3.100 -0.0069  2.4905  0.8491
  212MOL0     H27930   5.138   9.730   3.021  2.0816 -1.5293 -0.3874
  212MOL0     H27931   5.239   9.580   2.877 -1.8463  0.3674 -0.9869
  212MOL0     H27932   5.153   9.444   2.925 -0.0555  0.9371 -3.5818
  212MOL0     H27933   5.350   9.617   3.063 -0.6876  0.5034 -0.5488
  212MOL0     H27934   5.243   9.514   3.174 -1.5713  0.1627 -0.3118
  212MOL0     H27935   5.472   9.412   3.095  0.0957  1.5769 -2.0742
  212MOL0     H27936   5.381   9.380   2.953  1.2669  0.7663 -0.2906
  212MOL0     H27937   5.235   9.159   2.963  0.4697  0.4926  0.0215
  212MOL0     H27938   5.071   8.975   3.266 -3.2054  2.0456 -1.2018
  212MOL0     H27939   5.172   8.899   3.144  1.3180  1.1058  0.5963
  212MOL0     H27940   5.035   8.983   2.964  0.8326 -1.6207  0.6608
  212MOL0     H27941   4.927   9.061   3.088  0.0829 -0.2736  2.9759
  212MOL0     H27942   4.978   8.758   3.052  0.5420  0.8145 -1.0549
  212MOL0     H27943   4.886   8.831   3.182  2.3716 -1.1328 -0.3804
  212MOL0     H27944   4.820   8.855   2.879  2.5614 -2.5184  0.0272
  212MOL0     H27945   4.720   8.916   3.018  2.4953  0.3609  2.8501
  212MOL0     H27946   4.651   8.466   2.955  0.8912 -0.5596 -0.8388
  212MOL0     H27947   4.427   8.399   2.906  1.4135 -0.9165  1.9444
  212MOL0     H27948   4.061   8.557   2.502  1.4087 -0.4735  1.6364
  212MOL0     H27949   3.837   8.468   2.466  1.0751 -1.4104  0.5343
  212MOL0     H27950   3.464   8.409   2.646 -0.7504  1.7689 -0.4436
  212MOL0     H27951   3.537   8.516   2.767 -0.6290  1.3579 -1.6069
  212MOL0     H27952   3.387   8.330   2.866 -0.3006  3.6746 -2.2104
  212MOL0     H27953   3.560   8.321   2.912  0.1134  1.3766 -0.5100
  212MOL0     H27954   3.586   8.133   2.781  1.0729  1.1679 -3.1330
  212MOL0     H27955   3.461   8.187   2.664  1.5377  3.3836  0.2978
  212MOL0     H27956   3.424   7.980   2.836  0.9754  0.6802  0.1059
  212MOL0     H27957   3.396   8.097   2.956  0.0058  0.1437  0.7094
  212MOL0     H27958   3.212   8.205   2.804  0.0935 -0.0570  0.8455
  212MOL0     H27959   3.173   8.045   2.872 -1.0058  0.1041  0.1424
  212MOL0     H27960   3.286   7.948   2.646 -2.7547 -1.1174 -4.3352
  212MOL0     H27961   3.280   8.120   2.590 -0.6981  2.3936  1.8616
  212MOL0     H27962   3.052   7.930   2.681 -2.3838 -1.0391 -3.0534
  212MOL0     H27963   3.024   8.096   2.655 -1.1399 -0.3581  2.9105
  212MOL0     H27964   3.160   7.914   2.459 -0.5867 -0.9647  0.2416
  212MOL0     H27965   3.091   8.084   2.433 -0.6166  1.2874  2.2140
  212MOL0     H27966   3.754   8.505   2.897  1.4628  1.0130  0.8961
  212MOL0     H27967   3.974   8.629   2.909 -2.1585 -0.3787  0.6852
  212MOL0     H27968   4.309   8.814   2.850 -1.9003 -0.2810  0.5811
  212MOL0     H27969   4.525   8.877   2.929 -1.0278  0.2471 -2.8520
  212MOL0     H27970   4.450   9.499   3.113 -0.1404  0.8565  0.7490
  212MOL0     H27971   4.240   9.413   3.055 -2.0896  3.9614  1.2865
  212MOL0     H27972   3.814   9.585   2.626  2.3805 -0.8597 -1.2290
  212MOL0     H27973   3.605   9.482   2.568  1.2202  0.3728 -0.0622
  212MOL0     H27974   3.451   9.319   2.526  4.9980  3.9550  2.9394
  212MOL0     H27975   3.385   9.355   2.689  0.1337 -1.5055  1.1960
  212MOL0     H27976   3.337   9.076   2.561 -1.6180  0.8071 -1.4953
  212MOL0     H27977   3.263   9.152   2.703  0.8897 -1.4277  0.9592
  212MOL0     H27978   3.237   9.291   2.435  1.5632  1.4448  1.8003
  212MOL0     H27979   3.137   9.309   2.576 -0.8136  1.9851 -1.9620
  212MOL0     H27980   3.158   9.087   2.382  0.0080  0.1680 -0.2073
  212MOL0     H27981   3.081   9.062   2.542 -0.8633  0.2499 -0.4912
  212MOL0     H27982   2.793   9.234   2.285 -0.3316 -2.6660  0.7329
  212MOL0     H27983   3.697   9.141   2.807 -1.2550 -0.4948 -0.8992
  212MOL0     H27984   3.934   9.242   2.855  1.3547  1.2946 -0.8751
  213MOL0     O27985   8.168   8.569   7.623  0.0569 -0.5369 -0.3801
  213MOL0     C27986   8.177   8.455   7.670 -0.5097 -0.1918 -0.8634
  213MOL0     O27987   8.077   8.376   7.727  0.0184 -0.4457  0.1146
  213MOL0     C27988   7.953   8.437   7.709 -0.7457  0.6465 -0.4033
  213MOL0     C27989   7.915   8.558   7.763 -1.0346 -0.2729  0.0453
  213MOL0     C27990   7.788   8.606   7.731  0.1679  0.8709  0.0568
  213MOL0     C27991   7.694   8.523   7.653 -0.1331  0.3419  0.0115
  213MOL0     O27992   7.569   8.575   7.619 -0.4267  0.2800 -0.0042
  213MOL0     C27993   7.478   8.483   7.581  0.0622  0.4264 -0.5733
  213MOL0     C27994   7.344   8.558   7.580 -0.2616 -0.2262 -0.7441
  213MOL0     C27995   7.230   8.459   7.593  0.2470 -0.0044  0.1630
  213MOL0     C27996   7.103   8.543   7.577 -0.3507  0.6433 -0.4008
  213MOL0     C27997   6.975   8.469   7.633 -0.6450 -0.7020  0.0990
  213MOL0     C27998   6.837   8.529   7.580 -0.4400 -0.2496 -0.4842
  213MOL0     C27999   6.718   8.481   7.665  0.6048 -0.1918  0.6532
  213MOL0     C28000   6.582   8.537   7.608  0.2718  0.2024 -0.3667
  213MOL0     N28001   6.545   8.454   7.493 -0.7261  0.2817 -0.4004
  213MOL0     C28002   6.440   8.378   7.496  0.6433 -0.4085  0.5518
  213MOL0     C28003   6.427   8.328   7.371  0.7856 -0.5494 -0.8284
  213MOL0     C28004   6.310   8.228   7.337 -0.8706  0.4799 -0.2139
  213MOL0     C28005   6.169   8.278   7.325  0.0177 -1.1903 -0.2606
  213MOL0     C28006   6.074   8.171   7.271 -0.6073 -0.5390 -0.9438
  213MOL0     C28007   5.927   8.216   7.268  0.9360 -0.0154 -0.0656
  213MOL0     O28008   5.874   8.227   7.397 -1.0267  0.7543 -0.2384
  213MOL0     C28009   5.739   8.242   7.405  0.1593 -0.3841  0.3809
  213MOL0     C28010   5.640   8.224   7.304  0.1237 -0.0597 -0.1844
  213MOL0     C28011   5.499   8.238   7.338 -0.4598 -0.0840  0.5222
  213MOL0     C28012   5.460   8.292   7.459  0.3965 -0.3669  0.6980
  213MOL0     C28013   5.315   8.325   7.491  0.1126  1.9755 -0.1319
  213MOL0     O28014   5.226   8.284   7.398  0.7834 -0.9628  0.2968
  213MOL0     C28015   5.089   8.285   7.415 -0.0562  0.1744 -0.5628
  213MOL0     C28016   5.015   8.232   7.521  0.1395  0.0432 -0.3267
  213MOL0     C28017   4.879   8.226   7.523  0.2941  0.0204 -1.2368
  213MOL0     C28018   4.806   8.266   7.416 -0.2105 -0.8432 -0.0134
  213MOL0     O28019   4.672   8.235   7.400 -0.1069 -0.4050  0.3753
  213MOL0     C28020   4.602   8.183   7.512  0.6328 -0.5705 -0.2903
  213MOL0     C28021   4.452   8.193   7.475  0.3958 -0.1016 -0.7024
  213MOL0     C28022   4.404   8.099   7.366  1.1721  0.2985 -0.2442
  213MOL0     C28023   4.255   8.130   7.338  0.4488 -0.0213 -0.2275
  213MOL0     C28024   4.195   8.033   7.232  0.1695  0.3165  0.2158
  213MOL0     C28025   4.053   8.075   7.215 -0.2196 -0.2147 -0.4904
  213MOL0     C28026   3.975   7.974   7.126 -0.3305  0.0109  0.7281
  213MOL0     C28027   3.827   7.997   7.116 -0.5621  0.6984  0.1840
  213MOL0    Cl28028   3.758   7.857   7.032  0.1380 -0.2294  0.2393
  213MOL0     C28029   4.877   8.326   7.309  0.1025 -0.0260  0.0038
  213MOL0     C28030   5.015   8.336   7.312  0.1871  0.6996 -0.1570
  213MOL0     O28031   5.288   8.363   7.601 -0.3245  0.0682  0.6229
  213MOL0     C28032   5.562   8.304   7.551  0.2780 -0.1167 -0.1656
  213MOL0     C28033   5.695   8.274   7.532  0.2767 -0.7100 -0.5680
  213MOL0     N28034   6.522   8.383   7.284 -0.2064  0.1822  0.6581
  213MOL0     N28035   6.603   8.449   7.366  0.1589 -0.2368  0.6265
  213MOL0     C28036   7.745   8.399   7.598 -0.0117 -0.9541 -0.5551
  213MOL0     C28037   7.867   8.364   7.622  0.0858  0.3501 -0.4772
  213MOL0     C28038   8.316   8.389   7.663  0.7559 -0.5250 -0.3459
  213MOL0     C28039   8.340   8.254   7.694  0.4521  0.4691 -0.5054
  213MOL0     C28040   8.463   8.189   7.693  0.1104  0.5348  0.2483
  213MOL0     C28041   8.578   8.265   7.658 -0.7443  0.4580 -0.4399
  213MOL0     O28042   8.691   8.194   7.661  0.2600 -0.0594 -0.0788
  213MOL0     C28043   8.826   8.255   7.649 -0.1680  0.0430 -0.1452
  213MOL0     C28044   8.929   8.145   7.681 -0.7613 -0.3434 -0.0133
  213MOL0     C28045   9.089   8.172   7.679  0.3342  0.1631  0.5649
  213MOL0     C28046   9.142   8.228   7.811  0.4111  0.6168 -0.8518
  213MOL0     C28047   9.284   8.209   7.820 -0.2081 -0.2557 -0.1474
  213MOL0     C28048   9.401   8.208   7.841  0.2570  0.0097  0.3272
  213MOL0     C28049   8.557   8.402   7.613 -0.1281 -0.5326  0.6029
  213MOL0     C28050   8.425   8.458   7.617  0.1925  0.5957  0.0136
  213MOL0     H28051   7.969   8.612   7.840 -1.9040 -0.5872  0.8914
  213MOL0     H28052   7.758   8.703   7.770  2.1796  2.2875 -1.6712
  213MOL0     H28053   7.481   8.394   7.645  1.6069  1.4799  0.9056
  213MOL0     H28054   7.500   8.449   7.479 -0.3823 -1.3775 -0.1036
  213MOL0     H28055   7.339   8.612   7.485  0.4187 -2.1445 -1.9221
  213MOL0     H28056   7.334   8.621   7.669 -0.0803 -2.0530  0.6448
  213MOL0     H28057   7.237   8.418   7.694 -1.2556 -2.8461 -0.7774
  213MOL0     H28058   7.221   8.368   7.531  0.8128 -1.7487  2.5149
  213MOL0     H28059   7.113   8.644   7.618 -0.6503  0.3928  0.3158
  213MOL0     H28060   7.083   8.557   7.471 -1.6362  1.1904 -0.1010
  213MOL0     H28061   6.989   8.477   7.741 -1.1761 -2.4166  0.3177
  213MOL0     H28062   6.971   8.364   7.603  1.4817 -0.6053 -0.6849
  213MOL0     H28063   6.819   8.494   7.478 -1.7363 -2.1849  0.3472
  213MOL0     H28064   6.848   8.637   7.586  1.4593 -0.4332  0.1957
  213MOL0     H28065   6.709   8.372   7.659 -2.1375  0.0301 -1.7373
  213MOL0     H28066   6.715   8.513   7.769 -1.0590  3.2683 -0.3202
  213MOL0     H28067   6.590   8.644   7.590  0.4299  0.2904  0.1996
  213MOL0     H28068   6.515   8.531   7.693  0.7575  1.0536  0.0913
  213MOL0     H28069   6.373   8.359   7.579 -1.4095 -0.8715 -1.1109
  213MOL0     H28070   6.304   8.153   7.416  2.5217 -1.4249 -1.5800
  213MOL0     H28071   6.332   8.193   7.236 -1.7184 -0.4561 -0.0905
  213MOL0     H28072   6.179   8.360   7.253  3.8334 -2.7857 -1.8589
  213MOL0     H28073   6.135   8.317   7.422  1.0402  0.5286 -0.5411
  213MOL0     H28074   6.092   8.149   7.165  2.4229  0.3505 -0.6929
  213MOL0     H28075   6.090   8.084   7.335 -2.7776 -1.1134 -1.1037
  213MOL0     H28076   5.861   8.150   7.213 -0.6138  1.7942 -0.4590
  213MOL0     H28077   5.920   8.318   7.230  0.0533 -0.1310 -0.2333
  213MOL0     H28078   5.662   8.200   7.201  0.8822  1.2645 -0.3493
  213MOL0     H28079   5.424   8.228   7.260  0.6226 -1.7245 -0.3590
  213MOL0     H28080   5.071   8.211   7.612 -1.9487 -0.8640  0.8159
  213MOL0     H28081   4.826   8.188   7.611 -1.7799 -0.2367 -2.5226
  213MOL0     H28082   4.624   8.251   7.595  0.9320 -0.1852 -0.6787
  213MOL0     H28083   4.638   8.084   7.540 -2.1405 -1.0650  2.1103
  213MOL0     H28084   4.428   8.291   7.432 -1.5707  0.2056  0.9264
  213MOL0     H28085   4.404   8.168   7.571  1.4409 -1.8119 -0.5882
  213MOL0     H28086   4.405   7.997   7.404  0.9402 -0.5973 -2.4913
  213MOL0     H28087   4.466   8.113   7.277 -1.0018  1.1098 -1.7406
  213MOL0     H28088   4.189   8.122   7.425 -0.7417 -0.6079 -1.1543
  213MOL0     H28089   4.245   8.233   7.302 -0.5086  0.9878  2.6313
  213MOL0     H28090   4.185   7.930   7.268  3.8773  0.4485  2.0810
  213MOL0     H28091   4.250   8.027   7.138  1.4855  0.6065  0.9400
  213MOL0     H28092   4.053   8.177   7.174 -0.8819  0.6835  1.6243
  213MOL0     H28093   4.010   8.083   7.315  0.0469  0.2573 -0.4119
  213MOL0     H28094   4.015   7.963   7.024 -1.5267 -0.3016  0.2706
  213MOL0     H28095   3.984   7.871   7.162 -1.7055 -0.2831  0.2902
  213MOL0     H28096   3.799   8.082   7.053  1.1478  0.5518 -0.8527
  213MOL0     H28097   3.774   8.015   7.210 -0.1633  1.2219  0.3133
  213MOL0     H28098   4.818   8.363   7.227 -0.2233 -1.3332 -0.3690
  213MOL0     H28099   5.069   8.383   7.231  1.2792 -2.1134 -1.1816
  213MOL0     H28100   5.522   8.334   7.648  0.6835  0.3034 -0.1266
  213MOL0     H28101   5.770   8.280   7.610  0.2728  0.4419 -0.6307
  213MOL0     H28102   7.682   8.335   7.537  0.7608 -0.9732 -1.3600
  213MOL0     H28103   7.888   8.264   7.585 -1.4498 -0.0648 -0.2909
  213MOL0     H28104   8.253   8.198   7.725  1.8413 -1.6091 -0.2232
  213MOL0     H28105   8.474   8.082   7.710 -1.1546  0.4638  0.7922
  213MOL0     H28106   8.838   8.340   7.717  0.1504 -1.1390  1.3256
  213MOL0     H28107   8.848   8.290   7.548  4.7750  1.2360  1.0970
  213MOL0     H28108   8.899   8.108   7.780 -1.3303 -3.8226 -1.3454
  213MOL0     H28109   8.911   8.058   7.617  1.6825 -0.5844 -0.4704
  213MOL0     H28110   9.111   8.251   7.605  1.0807  1.4903  2.1369
  213MOL0     H28111   9.146   8.084   7.646 -4.0276 -2.5495 -0.5404
  213MOL0     H28112   9.123   8.336   7.807 -0.4307  0.5503  0.7507
  213MOL0     H28113   9.090   8.183   7.895  0.4324 -1.2532 -1.7885
  213MOL0     H28114   9.507   8.205   7.858  0.0983  1.3841  1.7443
  213MOL0     H28115   8.640   8.464   7.580 -0.0426 -1.5717 -1.3089
  213MOL0     H28116   8.407   8.564   7.601 -1.6030  0.1360 -1.3528
  214MOL0     O28117   2.721   2.292   3.031  0.3326 -0.3216 -0.3819
  214MOL0     C28118   2.819   2.216   3.029  1.1902 -0.5151  0.0181
  214MOL0     O28119   2.812   2.088   2.995  0.0096  0.3470 -0.7896
  214MOL0     C28120   2.693   2.047   2.940  0.2734 -0.0780  0.0016
  214MOL0     C28121   2.677   2.067   2.803  0.1236 -1.0565 -0.1534
  214MOL0     C28122   2.552   2.046   2.736 -0.6364 -0.0467 -1.0520
  214MOL0     C28123   2.439   2.000   2.799  0.4538 -0.1672 -0.2443
  214MOL0     O28124   2.325   1.989   2.721 -0.7111  0.3277 -0.4742
  214MOL0     C28125   2.237   1.876   2.749  0.4932 -0.2927  0.1582
  214MOL0     C28126   2.139   1.873   2.630 -0.3503 -0.2497  0.1731
  214MOL0     C28127   2.049   1.754   2.646 -0.6378 -0.1047 -0.5578
  214MOL0     C28128   1.948   1.743   2.521 -0.6312 -0.3353 -0.4794
  214MOL0     C28129   1.844   1.863   2.491  0.3320 -0.2402 -0.5935
  214MOL0     C28130   1.758   1.883   2.619 -0.1415 -0.5490 -0.1717
  214MOL0     C28131   1.648   1.986   2.597 -0.6925  0.3655  1.0175
  214MOL0     C28132   1.575   1.996   2.722 -0.7839 -0.6780 -0.6861
  214MOL0     N28133   1.453   2.070   2.700  0.3114 -0.2056  0.4531
  214MOL0     C28134   1.316   2.032   2.665 -0.5148 -0.0296  0.2882
  214MOL0     C28135   1.247   2.151   2.689  0.0763  0.3722  0.4655
  214MOL0     C28136   1.100   2.187   2.684 -0.5310 -0.3916  0.8081
  214MOL0     C28137   1.009   2.137   2.795  0.4618 -0.5043 -1.2652
  214MOL0     C28138   1.007   1.984   2.820 -0.7181  0.1279 -0.0220
  214MOL0     C28139   0.908   1.948   2.934  0.1393 -0.1820 -0.2180
  214MOL0     O28140   0.785   1.981   2.863 -0.1398  0.1513 -0.8042
  214MOL0     C28141   0.655   1.958   2.912 -0.5213 -0.0649 -0.1987
  214MOL0     C28142   0.552   2.022   2.845 -0.4313 -0.6522 -0.4689
  214MOL0     C28143   0.417   1.997   2.878  0.4687  0.8229 -0.8832
  214MOL0     C28144   0.379   1.906   2.990 -1.0791  0.0789  0.1008
  214MOL0     C28145   0.235   1.887   3.029 -0.8929  0.5197 -0.6003
  214MOL0     O28146   0.210   1.787   3.122 -0.0957  0.2906 -0.2520
  214MOL0     C28147   0.080   1.753   3.136 -0.3413  0.0564 -0.9995
  214MOL0     C28148   0.023   1.660   3.042  0.3629  0.1093 -0.3105
  214MOL0     C28149  -0.115   1.627   3.052 -0.6986 -0.4956  1.3733
  214MOL0     C28150  -0.200   1.690   3.140  0.4093  0.0614  0.7780
  214MOL0     O28151  -0.337   1.654   3.140  0.0088  0.2852 -0.4369
  214MOL0     C28152  -0.413   1.776   3.125 -0.7795  0.2870 -0.2392
  214MOL0     C28153  -0.486   1.803   3.259  0.2409 -1.0828  0.0460
  214MOL0     C28154  -0.612   1.719   3.297  0.1005 -0.0375  0.6905
  214MOL0     C28155  -0.584   1.567   3.282 -0.4622 -1.4822  0.2303
  214MOL0     C28156  -0.685   1.483   3.360  1.2192  0.3655 -0.3678
  214MOL0     C28157  -0.822   1.501   3.299 -0.1758  0.2930  0.3582
  214MOL0     C28158  -0.915   1.397   3.362 -0.0594  0.2506 -0.2636
  214MOL0     C28159  -0.944   1.415   3.515 -0.7501 -0.2828 -0.0233
  214MOL0    Cl28160  -0.986   1.584   3.540 -0.2616  0.0043 -0.1367
  214MOL0     C28161  -0.137   1.778   3.229  0.2854  0.2648  0.2837
  214MOL0     C28162  -0.002   1.817   3.227  0.0809 -0.0556  1.0664
  214MOL0     O28163   0.153   1.956   2.965  0.3919  0.0972  0.0940
  214MOL0     C28164   0.490   1.847   3.059 -0.5407 -0.0599  0.3083
  214MOL0     C28165   0.625   1.866   3.018  0.3978 -0.1267  0.9768
  214MOL0     N28166   1.339   2.249   2.723  0.5148  0.0303 -0.4149
  214MOL0     N28167   1.452   2.194   2.757  0.6413  0.0090 -0.1155
  214MOL0     C28168   2.459   1.977   2.945 -0.2576 -0.2143  0.3428
  214MOL0     C28169   2.584   2.001   3.009 -0.5374  0.4573 -0.3302
  214MOL0     C28170   2.952   2.279   3.050 -0.1930  0.4585  0.0712
  214MOL0     C28171   2.963   2.412   3.080  0.1380 -0.6632 -0.9216
  214MOL0     C28172   3.094   2.457   3.104  0.0026 -0.0038  0.0448
  214MOL0     C28173   3.207   2.379   3.094 -0.3567 -0.0014  1.1810
  214MOL0     O28174   3.331   2.439   3.099  0.7630  0.1589 -0.2492
  214MOL0     C28175   3.414   2.395   3.202  0.0377 -0.4080 -0.3599
  214MOL0     C28176   3.538   2.479   3.197 -0.7994  0.2838  0.1487
  214MOL0     C28177   3.618   2.450   3.329 -0.2167 -0.4396 -0.1147
  214MOL0     C28178   3.752   2.516   3.324 -0.3432  1.1805  0.8604
  214MOL0     C28179   3.840   2.497   3.447  0.2468 -0.6471  0.0980
  214MOL0     C28180   3.894   2.482   3.555 -0.9689  0.1642  0.0127
  214MOL0     C28181   3.191   2.256   3.057 -1.1044 -0.0073  0.0424
  214MOL0     C28182   3.068   2.198   3.031 -0.0974  0.6650  0.2150
  214MOL0     H28183   2.754   2.115   2.743  0.1811 -1.1357 -0.1433
  214MOL0     H28184   2.552   2.059   2.628  1.3362  2.2029 -0.8679
  214MOL0     H28185   2.188   1.893   2.845  1.5288  0.3909  0.5918
  214MOL0     H28186   2.299   1.786   2.751  1.9502  0.5647 -2.1281
  214MOL0     H28187   2.190   1.871   2.533  0.4190  3.4623  0.3403
  214MOL0     H28188   2.073   1.960   2.635 -1.1746 -0.8542  0.0064
  214MOL0     H28189   1.985   1.764   2.734 -2.0932  3.6370 -1.8431
  214MOL0     H28190   2.114   1.666   2.652 -2.8426 -1.8205 -0.3959
  214MOL0     H28191   2.005   1.739   2.427 -1.1841  1.6157 -0.9376
  214MOL0     H28192   1.897   1.649   2.544 -1.3675  0.2512  0.3361
  214MOL0     H28193   1.791   1.847   2.396  2.5177  0.6202 -2.0496
  214MOL0     H28194   1.893   1.959   2.471 -0.7640  0.2436 -1.0931
  214MOL0     H28195   1.819   1.919   2.702 -1.2418  5.1534 -1.3523
  214MOL0     H28196   1.712   1.787   2.644 -1.2910  0.0635  0.1672
  214MOL0     H28197   1.698   2.078   2.566 -1.2771  1.0918  2.1966
  214MOL0     H28198   1.587   1.943   2.517  0.3434  0.7655 -0.0208
  214MOL0     H28199   1.637   2.059   2.787 -0.9968  3.3259 -3.9686
  214MOL0     H28200   1.548   1.900   2.766  2.2401 -0.2162  2.7085
  214MOL0     H28201   1.275   1.935   2.637 -0.2376  0.4016 -1.7929
  214MOL0     H28202   1.054   2.131   2.602 -0.9270  2.0478 -0.7200
  214MOL0     H28203   1.083   2.293   2.667 -1.6298  0.2589  4.8503
  214MOL0     H28204   0.910   2.180   2.776  0.5166  1.0595  1.3682
  214MOL0     H28205   1.038   2.184   2.890 -0.8204  0.0979 -1.1437
  214MOL0     H28206   0.974   1.936   2.727 -0.2204  0.2629 -0.2739
  214MOL0     H28207   1.110   1.962   2.848 -0.3797  1.0666 -0.5012
  214MOL0     H28208   0.931   2.007   3.023  0.7848 -2.1908  1.0037
  214MOL0     H28209   0.911   1.843   2.964 -4.9298 -0.2829  0.8961
  214MOL0     H28210   0.569   2.091   2.763 -0.6305  0.5246  0.4425
  214MOL0     H28211   0.343   2.037   2.809 -1.0246  1.1920  0.8694
  214MOL0     H28212   0.089   1.603   2.977 -1.0748 -1.9789 -0.0318
  214MOL0     H28213  -0.142   1.542   2.991  0.0984 -1.5375  2.4347
  214MOL0     H28214  -0.477   1.750   3.040  1.3763  1.0624 -2.2243
  214MOL0     H28215  -0.357   1.868   3.105 -0.2324  0.2364  0.9537
  214MOL0     H28216  -0.517   1.907   3.244  0.1060 -1.3129 -1.4378
  214MOL0     H28217  -0.417   1.800   3.344  0.8210 -2.1318 -0.4420
  214MOL0     H28218  -0.692   1.751   3.229  1.9509  2.8380 -0.3201
  214MOL0     H28219  -0.646   1.735   3.400 -1.1547 -4.4081  1.1540
  214MOL0     H28220  -0.588   1.527   3.180 -0.1615  2.1213 -1.3456
  214MOL0     H28221  -0.483   1.545   3.317  1.1958  2.5515 -1.3725
  214MOL0     H28222  -0.698   1.511   3.465 -2.6824 -1.2552 -0.2554
  214MOL0     H28223  -0.658   1.378   3.353 -0.1331 -0.1836  1.5498
  214MOL0     H28224  -0.817   1.485   3.191  1.8738 -1.0533  0.5926
  214MOL0     H28225  -0.867   1.601   3.306  1.7251  1.3555 -1.4751
  214MOL0     H28226  -1.010   1.399   3.308 -1.6023  1.1339  2.2987
  214MOL0     H28227  -0.880   1.295   3.344 -3.1529 -1.0742  0.6405
  214MOL0     H28228  -0.849   1.398   3.565 -0.6720 -2.6407 -0.8561
  214MOL0     H28229  -1.018   1.342   3.549 -1.6631  0.6522  0.0664
  214MOL0     H28230  -0.189   1.831   3.308 -0.2226  0.9585 -0.4970
  214MOL0     H28231   0.040   1.893   3.291  1.0050  1.3357 -1.0880
  214MOL0     H28232   0.471   1.785   3.146 -3.2332 -2.1530 -1.6132
  214MOL0     H28233   0.708   1.814   3.065  0.2606  0.1246  1.5040
  214MOL0     H28234   2.367   1.944   2.992  1.2607 -1.2848  2.7232
  214MOL0     H28235   2.609   2.000   3.115  1.0932 -0.5496 -0.6798
  214MOL0     H28236   2.880   2.481   3.085  1.0884  0.4481  1.1174
  214MOL0     H28237   3.115   2.559   3.134 -1.1395 -0.1703  1.5229
  214MOL0     H28238   3.438   2.289   3.190  1.2022 -0.2498  0.3490
  214MOL0     H28239   3.352   2.393   3.292 -2.0842 -0.5755 -1.7634
  214MOL0     H28240   3.599   2.455   3.109 -1.8830 -0.3230 -0.4504
  214MOL0     H28241   3.511   2.584   3.211  0.7247  0.3327  3.9683
  214MOL0     H28242   3.631   2.343   3.348  1.2605 -0.4843 -1.2034
  214MOL0     H28243   3.545   2.503   3.391 -2.2245  2.4659 -4.4109
  214MOL0     H28244   3.811   2.482   3.239 -1.9316  1.3637 -0.3636
  214MOL0     H28245   3.744   2.622   3.299 -0.0158  0.6788 -1.6746
  214MOL0     H28246   3.947   2.486   3.647 -1.7421  1.0796  0.4448
  214MOL0     H28247   3.281   2.200   3.032 -0.7068  1.4815 -2.1936
  214MOL0     H28248   3.068   2.089   3.022 -3.1060  0.3575  2.3597
  215MOL0     O28249   6.847   5.257   5.628 -0.0891 -0.2257 -0.1467
  215MOL0     C28250   6.818   5.278   5.743 -0.7014  0.3195  0.0397
  215MOL0     O28251   6.900   5.250   5.848  0.4832  0.0289 -0.0610
  215MOL0     C28252   7.019   5.183   5.843  0.0151 -0.0247 -0.1246
  215MOL0     C28253   7.079   5.120   5.727  0.1393 -0.3824  0.2702
  215MOL0     C28254   7.207   5.068   5.729 -0.2264 -0.2802 -0.0437
  215MOL0     C28255   7.289   5.084   5.839 -0.1752  0.7551 -0.0222
  215MOL0     O28256   7.424   5.043   5.851 -0.0029 -0.2385  0.7003
  215MOL0     C28257   7.484   5.012   5.726  0.4447  0.3773  0.1907
  215MOL0     C28258   7.629   4.975   5.741  0.3937  0.7169  0.0064
  215MOL0     C28259   7.659   4.868   5.843 -0.2113  0.1740 -0.0129
  215MOL0     C28260   7.800   4.810   5.814  0.4628  0.3966  0.3597
  215MOL0     C28261   7.834   4.727   5.943  0.1547  0.5256 -0.3262
  215MOL0     C28262   7.851   4.579   5.918 -0.3971 -0.3691  0.2162
  215MOL0     C28263   7.882   4.503   6.046  0.6856 -0.8797  0.9437
  215MOL0     C28264   7.778   4.497   6.152 -0.1203 -0.1864 -0.2875
  215MOL0     N28265   7.661   4.420   6.105  0.1920 -0.0167 -0.2150
  215MOL0     C28266   7.536   4.480   6.078 -0.5834  0.2950  0.5038
  215MOL0     C28267   7.454   4.381   6.030  0.2193  0.0323  0.8349
  215MOL0     C28268   7.307   4.423   5.988 -0.7619  0.7661 -0.5534
  215MOL0     C28269   7.198   4.348   6.065  0.0608  0.5845  0.6801
  215MOL0     C28270   7.059   4.407   6.060 -0.1755 -0.4051  0.6853
  215MOL0     C28271   6.946   4.351   6.150  0.0207  0.0925 -0.3980
  215MOL0     O28272   6.942   4.210   6.130 -0.4183 -0.3788  0.1708
  215MOL0     C28273   6.841   4.151   6.200  0.2605 -0.2705  0.2052
  215MOL0     C28274   6.756   4.203   6.306  0.6243  0.1155  0.1865
  215MOL0     C28275   6.660   4.115   6.361 -0.1121 -0.7757 -0.0365
  215MOL0     C28276   6.653   3.975   6.332  0.2705 -0.5198  0.0052
  215MOL0     C28277   6.562   3.886   6.408 -0.3391  0.3384  0.3517
  215MOL0     O28278   6.514   3.927   6.531  0.0232  0.1835  0.3690
  215MOL0     C28279   6.402   3.853   6.579 -0.3232 -0.1123 -0.1012
  215MOL0     C28280   6.271   3.895   6.575  0.0738 -0.1879 -0.7644
  215MOL0     C28281   6.169   3.816   6.635 -0.1193 -1.3353 -0.2066
  215MOL0     C28282   6.191   3.691   6.696 -0.3592 -0.3180  0.0574
  215MOL0     O28283   6.103   3.597   6.748 -0.3631  0.5758 -0.0109
  215MOL0     C28284   5.976   3.576   6.675 -0.5319 -0.7396  0.0406
  215MOL0     C28285   5.869   3.511   6.771  0.6480  0.2231  0.4590
  215MOL0     C28286   5.829   3.605   6.892 -0.4822 -0.5663  1.1765
  215MOL0     C28287   5.759   3.519   6.994  0.7384 -0.0071  0.7647
  215MOL0     C28288   5.733   3.601   7.114  0.4911  0.1127  0.1704
  215MOL0     C28289   5.674   3.528   7.236  0.1726 -0.0380 -0.5267
  215MOL0     C28290   5.646   3.624   7.355  0.2252 -0.3278  0.4739
  215MOL0     C28291   5.574   3.544   7.465 -0.0500 -0.1383 -0.4456
  215MOL0    Cl28292   5.407   3.501   7.398 -0.3785 -0.3151  0.0366
  215MOL0     C28293   6.320   3.645   6.683  0.4276 -0.7015  0.1892
  215MOL0     C28294   6.426   3.725   6.633  0.1236 -0.0591 -0.2674
  215MOL0     O28295   6.526   3.789   6.346 -0.3707  0.7764  0.2001
  215MOL0     C28296   6.726   3.935   6.223 -0.1648 -1.2000  0.5341
  215MOL0     C28297   6.819   4.018   6.152 -0.2771 -0.4999 -0.1310
  215MOL0     N28298   7.523   4.269   6.004 -0.8052  0.5369  0.2522
  215MOL0     N28299   7.647   4.298   6.049  0.8570  0.3898 -0.6127
  215MOL0     C28300   7.237   5.142   5.952  0.5536 -0.6866  0.2559
  215MOL0     C28301   7.103   5.194   5.958 -0.4666 -0.2847 -0.1435
  215MOL0     C28302   6.692   5.356   5.765 -0.2023 -0.1980  0.0011
  215MOL0     C28303   6.644   5.441   5.661 -0.6893  0.0933  0.6302
  215MOL0     C28304   6.524   5.502   5.685  0.2230 -0.1995 -0.2499
  215MOL0     C28305   6.463   5.502   5.815  0.0563  0.5456 -0.0620
  215MOL0     O28306   6.350   5.563   5.846  1.0059 -0.2185 -0.2758
  215MOL0     C28307   6.283   5.645   5.752 -0.2875  0.3769  0.7739
  215MOL0     C28308   6.167   5.712   5.805  0.3205  0.1524  0.1066
  215MOL0     C28309   6.066   5.602   5.844  0.0439 -0.7397  1.2221
  215MOL0     C28310   5.936   5.677   5.894  0.1200  0.2397  0.1299
  215MOL0     C28311   5.830   5.582   5.909  0.8690  0.5442  0.6495
  215MOL0     C28312   5.738   5.507   5.915  0.6857 -0.1455 -0.4632
  215MOL0     C28313   6.517   5.417   5.915 -0.5750  0.5047 -0.0199
  215MOL0     C28314   6.626   5.338   5.883  0.1118  0.4825  0.0101
  215MOL0     H28315   7.018   5.108   5.638  1.3412 -0.7475 -0.5256
  215MOL0     H28316   7.239   5.020   5.638  0.0090 -0.3187  0.0583
  215MOL0     H28317   7.470   5.094   5.655  0.2176 -0.1503 -0.3884
  215MOL0     H28318   7.432   4.923   5.688 -0.3791 -0.2312  2.5758
  215MOL0     H28319   7.690   5.065   5.748 -1.0652  1.5940  3.6066
  215MOL0     H28320   7.654   4.926   5.646 -2.3104 -3.3072  1.1127
  215MOL0     H28321   7.597   4.780   5.825 -0.4443  0.4070 -0.3564
  215MOL0     H28322   7.658   4.911   5.943 -0.1042 -2.6346  1.2877
  215MOL0     H28323   7.787   4.739   5.732  2.3513 -0.5755  0.8534
  215MOL0     H28324   7.875   4.887   5.795 -1.8318  2.2697 -1.9170
  215MOL0     H28325   7.755   4.733   6.018  0.1849  1.0131 -0.3292
  215MOL0     H28326   7.915   4.775   6.001 -2.0112  1.7869  1.8517
  215MOL0     H28327   7.929   4.576   5.841 -0.5933  3.1490 -0.2970
  215MOL0     H28328   7.756   4.547   5.875  0.6837 -2.7623 -0.5246
  215MOL0     H28329   7.911   4.400   6.021 -0.5249 -0.8394 -0.8802
  215MOL0     H28330   7.972   4.554   6.081  0.5136 -0.3022  0.5585
  215MOL0     H28331   7.746   4.592   6.194  2.6495  0.2741  1.0165
  215MOL0     H28332   7.813   4.439   6.238 -2.3558 -0.0605  0.7851
  215MOL0     H28333   7.514   4.583   6.103 -1.3405 -0.1869  1.9057
  215MOL0     H28334   7.304   4.387   5.885  1.4980  0.4865 -0.5771
  215MOL0     H28335   7.291   4.532   5.987 -0.1848  0.8581 -0.4260
  215MOL0     H28336   7.237   4.348   6.167  1.3884 -0.2788  0.1971
  215MOL0     H28337   7.192   4.247   6.024 -0.4242  0.8573  0.0634
  215MOL0     H28338   7.073   4.513   6.085 -2.3313 -0.0991  0.8207
  215MOL0     H28339   7.019   4.400   5.959  0.4933 -0.6318  0.4323
  215MOL0     H28340   6.847   4.390   6.121 -2.0627 -2.8165  2.1361
  215MOL0     H28341   6.958   4.385   6.253  0.7500 -2.1970  0.3291
  215MOL0     H28342   6.762   4.309   6.331  2.2514 -0.5923  3.3869
  215MOL0     H28343   6.596   4.148   6.442  2.2444  0.6476  1.3486
  215MOL0     H28344   6.253   3.988   6.524  0.5079 -0.3609 -1.2362
  215MOL0     H28345   6.067   3.854   6.630 -0.5486 -2.4460 -0.2703
  215MOL0     H28346   5.997   3.523   6.582  4.8481  0.6695  0.1321
  215MOL0     H28347   5.938   3.674   6.642  2.2989  0.4521  0.0280
  215MOL0     H28348   5.895   3.417   6.820 -2.4238 -0.2378  1.3711
  215MOL0     H28349   5.787   3.471   6.712  1.6337  1.1830 -1.6726
  215MOL0     H28350   5.762   3.683   6.854 -1.3133 -1.4074  0.8799
  215MOL0     H28351   5.917   3.656   6.932 -0.0901 -0.6296  0.4181
  215MOL0     H28352   5.668   3.475   6.954  2.1568 -1.7010 -0.7918
  215MOL0     H28353   5.832   3.442   7.021  0.0283 -1.2083 -0.6120
  215MOL0     H28354   5.655   3.674   7.091 -1.2261 -1.4355  0.7965
  215MOL0     H28355   5.821   3.657   7.148  0.4200  0.8797 -0.8515
  215MOL0     H28356   5.734   3.443   7.270  1.7065  0.7619 -1.1760
  215MOL0     H28357   5.581   3.478   7.206  0.8480 -0.0966 -2.6856
  215MOL0     H28358   5.735   3.675   7.394  1.4493 -2.7898  1.0575
  215MOL0     H28359   5.574   3.702   7.327  1.9182  1.9761  2.0835
  215MOL0     H28360   5.562   3.612   7.550 -3.1468 -0.1066 -0.7821
  215MOL0     H28361   5.621   3.450   7.494 -2.9649 -1.6088 -0.0556
  215MOL0     H28362   6.334   3.540   6.706 -0.0382 -0.6005  0.9858
  215MOL0     H28363   6.526   3.683   6.632  1.4232  2.7634  1.2239
  215MOL0     H28364   6.716   3.832   6.193 -3.1069 -0.6373 -0.8678
  215MOL0     H28365   6.875   3.975   6.070 -1.2305 -1.1940 -0.4312
  215MOL0     H28366   7.294   5.151   6.043 -1.5739  1.1699  1.5129
  215MOL0     H28367   7.066   5.232   6.052  0.2576 -0.2710  0.1480
  215MOL0     H28368   6.689   5.453   5.562  0.2550 -0.8583  0.9258
  215MOL0     H28369   6.481   5.566   5.609  0.2215 -1.1559 -1.0717
  215MOL0     H28370   6.249   5.587   5.667 -0.3347  2.4609 -0.7161
  215MOL0     H28371   6.359   5.720   5.725  1.3553  0.0234  3.9300
  215MOL0     H28372   6.191   5.770   5.894 -0.0505  0.3315  0.0927
  215MOL0     H28373   6.111   5.770   5.731  0.4108 -0.3675 -0.3749
  215MOL0     H28374   6.105   5.545   5.929 -0.5641 -1.4982  1.0064
  215MOL0     H28375   6.035   5.541   5.758  2.2793 -0.9677  0.5133
  215MOL0     H28376   5.950   5.727   5.991  0.2880 -0.1142  0.2881
  215MOL0     H28377   5.894   5.750   5.824 -1.5255 -0.0233  0.7805
  215MOL0     H28378   5.657   5.438   5.906  0.6934 -0.2540  0.2348
  215MOL0     H28379   6.481   5.409   6.017  0.7329  2.5724  0.6563
  215MOL0     H28380   6.677   5.283   5.961 -0.3605  1.1127  0.7716
  216MOL0     O28381   0.070   1.125   4.723  0.3894  0.0923  0.0285
  216MOL0     C28382   0.025   1.062   4.628  0.6850 -0.3431  0.0650
  216MOL0     O28383  -0.102   1.078   4.576  0.1447 -0.3569 -0.1295
  216MOL0     C28384  -0.212   1.129   4.647  0.1865 -0.2067 -0.2266
  216MOL0     C28385  -0.319   1.171   4.565 -0.9786 -1.1275 -0.1730
  216MOL0     C28386  -0.435   1.215   4.628 -0.0847  0.1068  0.6648
  216MOL0     C28387  -0.448   1.218   4.769  0.2975 -0.4515  0.4162
  216MOL0     O28388  -0.565   1.265   4.834 -0.1724 -0.3621  0.7905
  216MOL0     C28389  -0.688   1.206   4.796 -0.5351  0.0147 -0.0031
  216MOL0     C28390  -0.787   1.244   4.901  0.0616  0.0649 -0.1960
  216MOL0     C28391  -0.921   1.173   4.878  0.9890 -0.2865  0.5029
  216MOL0     C28392  -1.014   1.241   4.774 -1.0368  0.1589  0.7671
  216MOL0     C28393  -1.151   1.192   4.771  0.3343  0.8435  0.9520
  216MOL0     C28394  -1.240   1.268   4.672  0.1869 -0.1057  0.5547
  216MOL0     C28395  -1.394   1.237   4.677  0.0755 -0.8012 -0.8355
  216MOL0     C28396  -1.469   1.322   4.576  0.6620 -0.8295 -0.0505
  216MOL0     N28397  -1.604   1.273   4.529 -0.6733 -0.6721 -0.1319
  216MOL0     C28398  -1.725   1.330   4.560 -0.1074  0.4600  0.7066
  216MOL0     C28399  -1.815   1.238   4.508 -0.3035 -0.9106 -0.9632
  216MOL0     C28400  -1.959   1.242   4.511 -0.3138  0.0891 -1.1537
  216MOL0     C28401  -2.008   1.389   4.496 -0.0177 -0.4492  0.2050
  216MOL0     C28402  -2.162   1.400   4.478 -0.4567  0.2925  0.9519
  216MOL0     C28403  -2.246   1.355   4.592 -0.7042  0.1757  0.2301
  216MOL0     O28404  -2.378   1.383   4.549  0.1439  0.7827  0.3174
  216MOL0     C28405  -2.484   1.337   4.619 -0.1626  0.4873 -0.3430
  216MOL0     C28406  -2.610   1.358   4.564 -0.4427  0.2331 -0.3946
  216MOL0     C28407  -2.724   1.326   4.631  0.4062 -0.6153  0.2200
  216MOL0     C28408  -2.720   1.263   4.756  0.5984 -0.4983 -0.2827
  216MOL0     C28409  -2.843   1.230   4.831  0.2430  0.8163  1.0611
  216MOL0     O28410  -2.954   1.241   4.762  0.3817 -0.1807 -0.0083
  216MOL0     C28411  -3.072   1.284   4.821 -0.8362  0.0985  0.5611
  216MOL0     C28412  -3.079   1.351   4.946 -0.4461  0.5969  1.0941
  216MOL0     C28413  -3.198   1.390   4.992 -0.0741  0.0340 -0.5470
  216MOL0     C28414  -3.317   1.378   4.926  0.1385 -0.4926 -0.4531
  216MOL0     O28415  -3.432   1.425   4.986 -0.1580 -0.0134  0.0285
  216MOL0     C28416  -3.564   1.391   4.930  0.4417 -0.8170 -0.1395
  216MOL0     C28417  -3.607   1.502   4.833  0.9840 -0.7665 -0.5524
  216MOL0     C28418  -3.730   1.473   4.746 -0.3421 -0.7160 -0.3082
  216MOL0     C28419  -3.846   1.452   4.837  0.0319  0.7813  0.2275
  216MOL0     C28420  -3.964   1.429   4.739  0.0004 -0.1171  0.4278
  216MOL0     C28421  -4.100   1.435   4.805  0.1226 -1.0758 -0.6725
  216MOL0     C28422  -4.203   1.353   4.715  0.4441  0.4834  0.2921
  216MOL0     C28423  -4.341   1.351   4.778  0.0251 -0.1551 -0.4049
  216MOL0    Cl28424  -4.318   1.265   4.932 -0.1526 -0.0581 -0.2258
  216MOL0     C28425  -3.312   1.315   4.801 -0.4820 -0.6889 -0.7220
  216MOL0     C28426  -3.187   1.261   4.753 -0.0013 -0.0378 -0.4511
  216MOL0     O28427  -2.836   1.189   4.945  0.2107 -0.4425 -0.2843
  216MOL0     C28428  -2.597   1.246   4.815  0.3359  0.0206 -0.4845
  216MOL0     C28429  -2.475   1.279   4.748  0.0163  0.3160 -0.0908
  216MOL0     N28430  -1.737   1.130   4.454  0.0191  0.1749 -0.0191
  216MOL0     N28431  -1.615   1.156   4.469  0.2923 -0.0742  0.1377
  216MOL0     C28432  -0.338   1.187   4.849  0.4270 -0.1659  0.0514
  216MOL0     C28433  -0.219   1.143   4.787 -0.4779  0.4739 -1.1632
  216MOL0     C28434   0.116   0.984   4.546 -0.5021  0.1031  0.1166
  216MOL0     C28435   0.246   1.007   4.555 -0.5818 -0.0507  0.3144
  216MOL0     C28436   0.339   0.944   4.472  0.1946 -0.4090  0.4228
  216MOL0     C28437   0.299   0.840   4.383  0.1069 -0.4588  0.2783
  216MOL0     O28438   0.390   0.810   4.284 -0.8023 -0.2964  0.3902
  216MOL0     C28439   0.372   0.697   4.189  0.8505  0.3074  0.3950
  216MOL0     C28440   0.462   0.692   4.069  0.3462 -0.5398 -0.8720
  216MOL0     C28441   0.606   0.659   4.102 -0.5665  0.5120 -0.5400
  216MOL0     C28442   0.694   0.670   3.978 -0.6756 -0.2115  0.4458
  216MOL0     C28443   0.816   0.598   4.001 -0.3438 -0.2700  0.7435
  216MOL0     C28444   0.908   0.522   4.022 -0.4592  0.4406  0.9241
  216MOL0     C28445   0.163   0.810   4.380 -0.3658  0.3885  0.1659
  216MOL0     C28446   0.076   0.887   4.456  0.2438  0.0074 -0.9564
  216MOL0     H28447  -0.303   1.180   4.458  2.7825  2.5267  0.4105
  216MOL0     H28448  -0.526   1.240   4.573  1.2877 -1.6506 -2.6519
  216MOL0     H28449  -0.683   1.098   4.782 -1.6914 -0.1220  0.5630
  216MOL0     H28450  -0.721   1.250   4.702 -2.4586  0.0496  0.6428
  216MOL0     H28451  -0.791   1.353   4.910  2.2474  0.1818 -0.1049
  216MOL0     H28452  -0.759   1.204   5.000  0.0507 -0.0215 -0.2279
  216MOL0     H28453  -0.985   1.184   4.965 -0.6678  0.5302 -0.7610
  216MOL0     H28454  -0.925   1.065   4.858 -1.0897  0.2002 -2.5268
  216MOL0     H28455  -1.014   1.350   4.783 -0.8115  0.2954 -0.6202
  216MOL0     H28456  -0.963   1.212   4.682 -1.3708  0.6714  0.4122
  216MOL0     H28457  -1.188   1.207   4.873 -1.0018 -1.8308  0.9572
  216MOL0     H28458  -1.152   1.085   4.751 -1.6259  0.5347  2.3313
  216MOL0     H28459  -1.210   1.243   4.570 -0.8158 -1.7752  0.6209
  216MOL0     H28460  -1.224   1.375   4.682  0.2018  0.0778 -1.1548
  216MOL0     H28461  -1.405   1.131   4.656  1.1327 -1.2938  0.8959
  216MOL0     H28462  -1.418   1.256   4.783  2.4239 -0.3283 -0.3231
  216MOL0     H28463  -1.416   1.335   4.481 -2.7539  1.8015 -1.8350
  216MOL0     H28464  -1.476   1.426   4.610  3.3483 -0.8010  0.6198
  216MOL0     H28465  -1.748   1.420   4.617  1.1425  0.6451  0.9596
  216MOL0     H28466  -1.997   1.199   4.604 -0.6701  0.9205 -0.9036
  216MOL0     H28467  -1.998   1.190   4.423 -3.4674  0.7021 -0.2627
  216MOL0     H28468  -1.970   1.434   4.404 -2.7650 -0.0124 -0.8214
  216MOL0     H28469  -1.983   1.451   4.583 -0.3069 -0.0354 -0.0059
  216MOL0     H28470  -2.194   1.503   4.456  1.9229  1.2205  1.4963
  216MOL0     H28471  -2.184   1.337   4.391 -0.4431  0.5577  0.7556
  216MOL0     H28472  -2.213   1.416   4.676 -0.6248  0.2024  0.1804
  216MOL0     H28473  -2.229   1.249   4.609 -0.1723  0.1429 -0.4480
  216MOL0     H28474  -2.621   1.399   4.464 -0.7610 -0.5342 -0.6815
  216MOL0     H28475  -2.819   1.362   4.594 -0.5604  0.7898  3.6178
  216MOL0     H28476  -3.000   1.362   5.019 -0.5904 -0.0716  1.3616
  216MOL0     H28477  -3.210   1.425   5.093  0.6076  1.0549 -0.8047
  216MOL0     H28478  -3.636   1.380   5.012  0.1923  1.0913 -0.0588
  216MOL0     H28479  -3.561   1.293   4.883  1.3594 -0.5391 -0.6708
  216MOL0     H28480  -3.525   1.516   4.762  0.0597  1.3522 -1.3013
  216MOL0     H28481  -3.635   1.594   4.886 -1.1076 -0.8751 -1.3977
  216MOL0     H28482  -3.705   1.387   4.683 -0.8597  0.0255 -1.5595
  216MOL0     H28483  -3.749   1.552   4.673  1.1933 -0.7979 -0.8419
  216MOL0     H28484  -3.835   1.362   4.898 -1.0880  0.0662 -0.5761
  216MOL0     H28485  -3.867   1.534   4.906 -0.5957  0.8537 -0.0426
  216MOL0     H28486  -3.960   1.331   4.690  2.3853 -0.4204  1.1243
  216MOL0     H28487  -3.960   1.500   4.656 -2.3140 -2.1183 -1.5643
  216MOL0     H28488  -4.129   1.539   4.821  1.5264 -0.8750  0.8153
  216MOL0     H28489  -4.086   1.374   4.895  2.4059  2.6810  1.7525
  216MOL0     H28490  -4.198   1.400   4.616  4.2286 -0.4031 -0.1008
  216MOL0     H28491  -4.169   1.250   4.701 -1.5821 -0.2383  0.4088
  216MOL0     H28492  -4.425   1.305   4.726  0.8646 -4.3094  1.5475
  216MOL0     H28493  -4.368   1.456   4.796  0.8659 -0.0688  0.4479
  216MOL0     H28494  -3.404   1.314   4.742 -0.8375  1.1250 -0.2588
  216MOL0     H28495  -3.172   1.226   4.651  4.3333 -0.1744  0.0578
  216MOL0     H28496  -2.585   1.212   4.917  1.0875 -1.1115 -0.9201
  216MOL0     H28497  -2.384   1.284   4.806 -0.5613  1.9437  0.7546
  216MOL0     H28498  -0.344   1.202   4.957  0.9093  0.8700 -0.0513
  216MOL0     H28499  -0.131   1.121   4.847 -1.3432 -0.9660 -0.3827
  216MOL0     H28500   0.287   1.077   4.627 -0.6346 -0.3878  0.6745
  216MOL0     H28501   0.437   0.990   4.474  0.0141  0.2399 -2.1386
  216MOL0     H28502   0.269   0.717   4.159  0.2468 -0.7645  1.6495
  216MOL0     H28503   0.360   0.604   4.244 -1.8246 -0.1530 -0.8192
  216MOL0     H28504   0.420   0.616   4.003 -2.5751  2.7412 -3.1626
  216MOL0     H28505   0.455   0.786   4.013  0.6660 -0.9242 -1.5738
  216MOL0     H28506   0.596   0.555   4.134  1.2751  0.4288 -0.1110
  216MOL0     H28507   0.637   0.725   4.183 -3.6060  2.8522 -1.1285
  216MOL0     H28508   0.640   0.630   3.892 -1.6513 -3.1953  2.3021
  216MOL0     H28509   0.714   0.777   3.964  0.6439 -0.1946  2.1218
  216MOL0     H28510   0.987   0.451   4.035  0.0154  0.8851  0.5190
  216MOL0     H28511   0.136   0.737   4.304  2.8461  0.4768 -1.2287
  216MOL0     H28512  -0.031   0.870   4.451  0.0877  0.3969  0.4664
  217MOL0     O28513   8.972   1.156   4.973 -0.0978  0.7143 -0.5488
  217MOL0     C28514   9.047   1.124   5.063  0.3994  0.6748  1.0828
  217MOL0     O28515   9.020   1.135   5.196  0.1709  0.0360  0.3290
  217MOL0     C28516   8.920   1.218   5.231  0.0769  0.6164  0.8195
  217MOL0     C28517   8.931   1.331   5.305  0.3779  0.7410 -0.2344
  217MOL0     C28518   8.817   1.412   5.322  0.6423  0.3432 -0.5735
  217MOL0     C28519   8.693   1.375   5.280 -0.4379  0.9055 -0.0782
  217MOL0     O28520   8.593   1.463   5.283 -0.1619 -0.1038 -0.5635
  217MOL0     C28521   8.476   1.406   5.344 -0.2912 -0.7354  0.8455
  217MOL0     C28522   8.382   1.520   5.387 -0.4111  0.3044  0.4090
  217MOL0     C28523   8.252   1.468   5.456 -0.3902 -0.4807 -0.2802
  217MOL0     C28524   8.164   1.592   5.497  0.1816  0.2148 -0.0576
  217MOL0     C28525   8.026   1.551   5.533  0.6434  0.1928  0.3390
  217MOL0     C28526   7.942   1.510   5.416 -0.4345 -0.7166 -0.2633
  217MOL0     C28527   7.797   1.542   5.441 -0.0548  0.7915 -0.2652
  217MOL0     C28528   7.715   1.492   5.316 -0.4674 -0.2984 -0.0508
  217MOL0     N28529   7.571   1.545   5.324  0.7527  0.1653  0.4215
  217MOL0     C28530   7.484   1.524   5.425 -0.2799 -0.2341 -1.0141
  217MOL0     C28531   7.365   1.574   5.377  0.2318  0.7456  0.5876
  217MOL0     C28532   7.220   1.557   5.424  0.0167  0.8145 -0.2279
  217MOL0     C28533   7.161   1.414   5.432  0.1660  1.0819  0.4796
  217MOL0     C28534   7.105   1.371   5.297 -0.1478  0.2123 -1.0205
  217MOL0     C28535   7.008   1.256   5.312  0.0961  0.0969 -0.7143
  217MOL0     O28536   6.885   1.321   5.352 -1.0225 -0.6250 -1.0798
  217MOL0     C28537   6.783   1.243   5.395  0.3620  0.3162  0.7008
  217MOL0     C28538   6.667   1.309   5.411  0.7512 -0.4782  0.5645
  217MOL0     C28539   6.539   1.254   5.447 -0.3366 -0.4354  0.8413
  217MOL0     C28540   6.528   1.114   5.451  0.7202 -0.8962 -0.2905
  217MOL0     C28541   6.395   1.048   5.477 -0.8188 -0.3587 -0.3007
  217MOL0     O28542   6.402   0.907   5.456 -0.2624  0.0478  0.5662
  217MOL0     C28543   6.302   0.826   5.501 -0.4459 -0.2767  0.4686
  217MOL0     C28544   6.303   0.688   5.446  0.2461 -0.8174  0.4232
  217MOL0     C28545   6.194   0.601   5.468 -0.0310  0.1143 -0.0223
  217MOL0     C28546   6.095   0.628   5.552 -0.6371  0.3336 -0.0480
  217MOL0     O28547   5.986   0.545   5.558 -0.2507 -0.1995 -0.4300
  217MOL0     C28548   5.875   0.572   5.651  0.6276  0.0705 -0.1303
  217MOL0     C28549   5.765   0.473   5.634 -0.2141  0.0428 -0.7116
  217MOL0     C28550   5.799   0.333   5.674 -0.1088  0.9053 -0.6869
  217MOL0     C28551   5.668   0.255   5.701 -0.1667  0.0434 -0.7332
  217MOL0     C28552   5.590   0.224   5.566  0.2912  1.3337 -0.4781
  217MOL0     C28553   5.454   0.142   5.598 -0.0770 -0.1502 -0.5449
  217MOL0     C28554   5.348   0.228   5.677 -0.0378  0.0916 -0.0495
  217MOL0     C28555   5.248   0.137   5.737 -0.3130 -0.2808 -1.2461
  217MOL0    Cl28556   5.148   0.246   5.843 -0.0524  0.0653  0.1011
  217MOL0     C28557   6.102   0.758   5.623  0.4504  0.2129  0.4228
  217MOL0     C28558   6.203   0.854   5.601 -0.3533  0.5236  0.2894
  217MOL0     O28559   6.299   1.111   5.527 -0.2246 -0.1621 -0.2089
  217MOL0     C28560   6.649   1.046   5.430 -0.9726  0.2204  0.1839
  217MOL0     C28561   6.774   1.105   5.407 -0.2204  0.3237 -0.1780
  217MOL0     N28562   7.388   1.635   5.261 -0.9819 -0.0196 -0.4078
  217MOL0     N28563   7.511   1.625   5.234 -0.4107 -0.0497  0.2269
  217MOL0     C28564   8.682   1.247   5.221 -0.0122 -0.2503 -0.3673
  217MOL0     C28565   8.796   1.178   5.187 -0.6928  0.6572 -0.7462
  217MOL0     C28566   9.174   1.076   5.015 -0.3734  0.2526 -0.4296
  217MOL0     C28567   9.206   1.076   4.877 -0.0921 -0.4697 -0.3933
  217MOL0     C28568   9.324   1.023   4.824 -0.3322  0.0767 -0.0592
  217MOL0     C28569   9.410   0.961   4.908 -0.4947 -0.1477 -1.5099
  217MOL0     O28570   9.511   0.893   4.852 -0.1191 -0.2803 -0.0656
  217MOL0     C28571   9.636   0.864   4.940 -0.6101 -0.6513 -0.2027
  217MOL0     C28572   9.768   0.876   4.868 -0.1487  0.0021 -0.0701
  217MOL0     C28573   9.784   0.778   4.760 -0.6843 -0.1048  0.2916
  217MOL0     C28574   9.913   0.799   4.686  0.4282 -0.8311  0.5347
  217MOL0     C28575  10.037   0.791   4.774 -0.1793  0.9240  0.3133
  217MOL0     C28576  10.141   0.799   4.836 -0.0911  0.3026  0.7884
  217MOL0     C28577   9.381   0.949   5.050 -0.1041 -0.2641  0.3745
  217MOL0     C28578   9.268   1.011   5.101  0.1567 -0.5577  0.3136
  217MOL0     H28579   9.024   1.366   5.349  3.1525 -2.2914 -3.0981
  217MOL0     H28580   8.823   1.502   5.382  2.1741 -0.6209  0.7975
  217MOL0     H28581   8.502   1.348   5.432  0.6245 -2.3154 -0.4076
  217MOL0     H28582   8.424   1.336   5.278  1.4641 -1.2142 -0.1236
  217MOL0     H28583   8.362   1.571   5.293  0.0958  1.2653  0.8103
  217MOL0     H28584   8.441   1.595   5.439  1.4492 -0.2660 -0.7859
  217MOL0     H28585   8.270   1.399   5.539  4.1552 -1.7668 -2.0709
  217MOL0     H28586   8.188   1.410   5.389 -1.8191 -0.0644  0.6723
  217MOL0     H28587   8.199   1.633   5.593 -0.9551 -0.2253  0.5658
  217MOL0     H28588   8.160   1.673   5.424 -3.2633  0.6653  0.4634
  217MOL0     H28589   7.974   1.637   5.575 -0.1835  0.1188 -0.5028
  217MOL0     H28590   8.028   1.470   5.607 -2.2723 -2.6636 -2.3816
  217MOL0     H28591   7.953   1.404   5.390  0.0402  0.0939 -3.9610
  217MOL0     H28592   7.978   1.577   5.337 -0.1929 -0.8381 -0.2582
  217MOL0     H28593   7.762   1.482   5.525 -2.2114  2.3371  0.0359
  217MOL0     H28594   7.787   1.650   5.460 -1.3022  0.7874 -0.7575
  217MOL0     H28595   7.719   1.383   5.308  1.1224 -0.1417 -2.2332
  217MOL0     H28596   7.760   1.525   5.222  1.3623 -2.5752 -0.0634
  217MOL0     H28597   7.509   1.474   5.518 -1.3652  0.0278 -0.5554
  217MOL0     H28598   7.151   1.615   5.363  0.6676  0.0361 -1.7720
  217MOL0     H28599   7.223   1.597   5.525 -1.7254 -4.0351  2.0321
  217MOL0     H28600   7.086   1.409   5.511  1.3559 -1.7296  1.5344
  217MOL0     H28601   7.237   1.343   5.464  0.1733  0.4451 -0.8838
  217MOL0     H28602   7.066   1.453   5.235  3.1788  2.2814 -0.6365
  217MOL0     H28603   7.184   1.323   5.238 -0.5003 -0.1032 -1.2463
  217MOL0     H28604   7.049   1.183   5.383 -0.1640  0.9619  0.3571
  217MOL0     H28605   6.990   1.198   5.220  0.4996 -1.1476 -0.0374
  217MOL0     H28606   6.675   1.417   5.411  2.2596 -0.5662 -0.0352
  217MOL0     H28607   6.456   1.322   5.465  1.5449  2.8529 -1.8694
  217MOL0     H28608   6.382   0.652   5.381 -0.3050  0.2067 -0.8796
  217MOL0     H28609   6.197   0.506   5.415  1.3946  0.7438 -1.1582
  217MOL0     H28610   5.831   0.671   5.639  2.2324  0.6905 -1.3828
  217MOL0     H28611   5.910   0.567   5.755 -2.9428  1.7041  1.3071
  217MOL0     H28612   5.738   0.472   5.528 -2.7333 -1.3545 -0.1299
  217MOL0     H28613   5.671   0.497   5.684 -0.3102 -2.5205  0.5001
  217MOL0     H28614   5.863   0.332   5.763  1.2497 -1.2617 -1.6094
  217MOL0     H28615   5.867   0.285   5.603  0.0427 -0.0737  0.1031
  217MOL0     H28616   5.699   0.158   5.741 -2.4508 -1.0270 -1.3663
  217MOL0     H28617   5.610   0.309   5.776  0.5850  0.7076 -0.6181
  217MOL0     H28618   5.657   0.162   5.506 -0.1051  1.9977 -1.6623
  217MOL0     H28619   5.575   0.319   5.514  0.7666  0.6626 -1.8971
  217MOL0     H28620   5.487   0.056   5.657 -0.1481 -0.2417 -0.6368
  217MOL0     H28621   5.410   0.101   5.506 -1.8863  1.6395 -0.5455
  217MOL0     H28622   5.401   0.275   5.760  1.3769 -2.6000  0.6834
  217MOL0     H28623   5.304   0.304   5.611 -0.3397 -1.7561 -2.0959
  217MOL0     H28624   5.275   0.050   5.796 -3.9308 -0.0434  1.0745
  217MOL0     H28625   5.181   0.097   5.661 -0.0055 -1.8011 -0.7513
  217MOL0     H28626   6.024   0.778   5.695 -0.5730  0.5079 -0.7198
  217MOL0     H28627   6.189   0.950   5.648 -0.3679  0.7482 -0.1648
  217MOL0     H28628   6.641   0.940   5.451 -1.3974  0.4893  1.4629
  217MOL0     H28629   6.852   1.030   5.393 -2.2098 -2.4476  2.2841
  217MOL0     H28630   8.583   1.212   5.192 -0.0005  0.4023 -1.2366
  217MOL0     H28631   8.787   1.077   5.147 -0.8432 -0.6092  2.2281
  217MOL0     H28632   9.149   1.132   4.804 -0.3818 -0.2284  0.0082
  217MOL0     H28633   9.341   1.007   4.718 -2.0068 -4.3052  0.1509
  217MOL0     H28634   9.626   0.767   4.988  0.1499 -0.9596 -0.6382
  217MOL0     H28635   9.646   0.941   5.017 -1.6322 -1.8061  1.1357
  217MOL0     H28636   9.777   0.975   4.823 -0.0863 -0.7270 -1.7330
  217MOL0     H28637   9.842   0.853   4.945 -1.5286  0.1935  1.3721
  217MOL0     H28638   9.700   0.772   4.690 -3.0158 -2.2427  3.0316
  217MOL0     H28639   9.782   0.683   4.814  2.9585  0.3046  1.4223
  217MOL0     H28640   9.908   0.728   4.603 -1.7465  0.0928 -0.1607
  217MOL0     H28641   9.897   0.893   4.634 -0.5697 -2.8928 -3.2797
  217MOL0     H28642  10.231   0.804   4.893  0.3527 -2.6327  0.4782
  217MOL0     H28643   9.446   0.888   5.113  1.3622  0.6379 -0.2183
  217MOL0     H28644   9.243   0.998   5.205 -3.7027  1.0241 -0.2576
  218MOL0     O28645   2.682   3.358   2.153 -0.6648  0.2619  0.0693
  218MOL0     C28646   2.647   3.476   2.150  1.1480  0.4800 -0.1969
  218MOL0     O28647   2.514   3.521   2.150  0.0357 -0.9606  0.0370
  218MOL0     C28648   2.402   3.447   2.143  0.3304 -1.5007  0.0030
  218MOL0     C28649   2.297   3.511   2.079  0.7898  0.1466  0.2117
  218MOL0     C28650   2.164   3.461   2.079  1.2138  0.3046 -0.5855
  218MOL0     C28651   2.137   3.338   2.134  0.7859 -0.3651 -0.0730
  218MOL0     O28652   2.003   3.302   2.134 -0.8373 -0.6823  1.2003
  218MOL0     C28653   1.978   3.165   2.153  0.0375  0.7885 -0.4685
  218MOL0     C28654   1.832   3.139   2.130  0.1673  0.3565  0.5686
  218MOL0     C28655   1.784   3.144   1.980 -0.0737 -0.2628 -0.1226
  218MOL0     C28656   1.635   3.160   1.965  0.0716 -0.0832 -0.0720
  218MOL0     C28657   1.598   3.132   1.815 -0.5301  0.5794  0.0195
  218MOL0     C28658   1.451   3.155   1.785  0.3370 -0.1234  0.2701
  218MOL0     C28659   1.432   3.312   1.766  0.9388 -0.1950  0.1252
  218MOL0     C28660   1.289   3.365   1.732 -0.3113 -0.3748 -0.0258
  218MOL0     N28661   1.240   3.313   1.605  1.0485  0.0652 -0.2846
  218MOL0     C28662   1.149   3.210   1.588 -0.3517 -0.0459 -0.5050
  218MOL0     C28663   1.147   3.191   1.457 -0.0926  0.0000  0.3676
  218MOL0     C28664   1.069   3.104   1.371  1.0599 -0.2029  0.8300
  218MOL0     C28665   0.939   3.183   1.322 -0.0953 -0.4277  0.3123
  218MOL0     C28666   0.888   3.123   1.190 -0.0232 -0.5855  0.7445
  218MOL0     C28667   0.756   3.185   1.151 -0.4045 -0.6798  1.1806
  218MOL0     O28668   0.721   3.181   1.008  0.0797  0.1430 -0.1546
  218MOL0     C28669   0.612   3.242   0.955 -0.3688 -1.0269 -1.1686
  218MOL0     C28670   0.534   3.326   1.028  0.2398 -0.0577  0.0355
  218MOL0     C28671   0.412   3.377   0.979  0.1148  0.6492 -0.2528
  218MOL0     C28672   0.372   3.343   0.840  0.0296 -0.8586 -0.2657
  218MOL0     C28673   0.254   3.391   0.779 -0.6887  0.1110  0.1151
  218MOL0     O28674   0.166   3.442   0.866 -0.0218 -0.8077 -0.2902
  218MOL0     C28675   0.050   3.494   0.822  0.3676 -0.0290  0.5253
  218MOL0     C28676  -0.037   3.414   0.741  0.3015 -0.5445 -0.9768
  218MOL0     C28677  -0.157   3.460   0.706 -0.0074  0.1733 -0.5947
  218MOL0     C28678  -0.210   3.579   0.753 -0.6281 -0.2674  0.0739
  218MOL0     O28679  -0.335   3.611   0.714  0.1463  0.0681 -0.5492
  218MOL0     C28680  -0.342   3.735   0.643  0.4740 -0.0831  0.7125
  218MOL0     C28681  -0.475   3.792   0.678  0.1111  0.0358  0.0687
  218MOL0     C28682  -0.500   3.843   0.820 -0.3300 -0.4366 -0.4863
  218MOL0     C28683  -0.523   3.732   0.920  0.5358  0.1764  0.7138
  218MOL0     C28684  -0.586   3.777   1.049 -0.1779 -0.3150 -0.1040
  218MOL0     C28685  -0.507   3.883   1.121  0.3171  0.5361 -0.3336
  218MOL0     C28686  -0.397   3.814   1.192 -0.0727 -0.1390 -0.7932
  218MOL0     C28687  -0.327   3.923   1.277  0.1031 -0.7070 -0.7573
  218MOL0    Cl28688  -0.436   3.974   1.415 -0.1426 -0.0521 -0.7209
  218MOL0     C28689  -0.130   3.653   0.841 -0.0778  0.3026  0.6625
  218MOL0     C28690  -0.001   3.607   0.873 -0.0542 -0.0020 -0.8558
  218MOL0     O28691   0.244   3.393   0.657 -0.1090 -0.0119  0.4729
  218MOL0     C28692   0.455   3.256   0.766  0.7303 -0.3812 -1.2875
  218MOL0     C28693   0.571   3.197   0.831 -0.6361  0.6427  0.4119
  218MOL0     N28694   1.231   3.278   1.400  0.7117  0.4238  0.2579
  218MOL0     N28695   1.292   3.353   1.485 -0.2857  0.0091 -0.7202
  218MOL0     C28696   2.251   3.270   2.192  0.9372 -0.4740  0.5896
  218MOL0     C28697   2.375   3.324   2.194  0.1143 -0.1871 -0.2534
  218MOL0     C28698   2.752   3.573   2.139  0.4406  1.1382 -0.0217
  218MOL0     C28699   2.709   3.679   2.053 -0.1215 -0.0173  0.4785
  218MOL0     C28700   2.803   3.769   2.023  0.0000  0.5317 -0.1854
  218MOL0     C28701   2.934   3.772   2.063 -0.7411  0.3937 -0.6852
  218MOL0     O28702   3.029   3.870   2.024  0.2882 -0.3543  0.1051
  218MOL0     C28703   3.170   3.875   2.053  0.4988  0.3063 -0.5514
  218MOL0     C28704   3.232   3.990   1.979 -0.4756  0.5078 -0.2744
  218MOL0     C28705   3.359   4.011   2.050  0.3460 -0.5072  0.1581
  218MOL0     C28706   3.451   4.067   1.937 -0.5231  0.4989 -0.5192
  218MOL0     C28707   3.584   4.086   1.980 -0.0011  0.3533 -0.4156
  218MOL0     C28708   3.702   4.097   2.018  0.3416  0.4332 -0.0968
  218MOL0     C28709   2.972   3.679   2.161  0.0013  0.3578 -0.4196
  218MOL0     C28710   2.885   3.569   2.192 -0.3718 -0.6400 -0.3087
  218MOL0     H28711   2.315   3.604   2.026  0.0232 -0.5720 -1.4009
  218MOL0     H28712   2.080   3.509   2.030  2.3174 -0.3595 -3.3250
  218MOL0     H28713   2.002   3.134   2.255  0.6086 -0.6710 -1.0320
  218MOL0     H28714   2.045   3.106   2.090 -0.9530 -1.7425  0.7353
  218MOL0     H28715   1.771   3.211   2.186 -0.7680 -0.0051  0.0536
  218MOL0     H28716   1.815   3.037   2.166  2.8293 -0.3448  0.0359
  218MOL0     H28717   1.820   3.062   1.918 -1.3313  0.9189 -2.5736
  218MOL0     H28718   1.832   3.230   1.932  2.1466  0.1223  2.5112
  218MOL0     H28719   1.589   3.092   2.036 -0.7714  0.3130 -0.2274
  218MOL0     H28720   1.619   3.265   1.991  1.8300  0.2032 -0.0224
  218MOL0     H28721   1.623   3.026   1.804 -3.4189 -0.0290 -1.7970
  218MOL0     H28722   1.660   3.189   1.745 -1.2674  1.2963 -0.0567
  218MOL0     H28723   1.395   3.108   1.866  0.8243 -1.7242 -0.2790
  218MOL0     H28724   1.414   3.112   1.691 -0.5977 -0.1780  0.6497
  218MOL0     H28725   1.448   3.356   1.865 -0.2087  0.1927  0.1499
  218MOL0     H28726   1.512   3.354   1.704  1.1300 -0.7390 -0.0041
  218MOL0     H28727   1.290   3.474   1.725 -0.6653 -0.0944  2.9915
  218MOL0     H28728   1.214   3.337   1.808  1.0098 -1.8955  0.7736
  218MOL0     H28729   1.071   3.163   1.647 -0.3112 -1.7983 -1.7489
  218MOL0     H28730   1.029   3.013   1.417 -3.9342  1.4888  0.5148
  218MOL0     H28731   1.124   3.083   1.278 -0.0113 -0.2282  0.1770
  218MOL0     H28732   0.966   3.287   1.302  3.3635 -1.6734 -2.4534
  218MOL0     H28733   0.859   3.175   1.396 -0.8347  0.7227 -0.3234
  218MOL0     H28734   0.962   3.147   1.113 -0.7790 -1.9196 -0.4419
  218MOL0     H28735   0.865   3.016   1.196 -1.9276 -0.4116 -1.6621
  218MOL0     H28736   0.778   3.290   1.169  1.7801 -0.6525 -1.1757
  218MOL0     H28737   0.678   3.140   1.214  1.9432 -3.2566  2.4461
  218MOL0     H28738   0.561   3.353   1.130 -0.2344 -0.2082  0.2058
  218MOL0     H28739   0.356   3.439   1.048  0.5521  1.2596 -0.4352
  218MOL0     H28740   0.012   3.322   0.709  3.0934  0.3050  0.5253
  218MOL0     H28741  -0.207   3.417   0.620 -0.3470  2.4654 -1.6290
  218MOL0     H28742  -0.354   3.711   0.537 -0.7324 -1.1297  1.0514
  218MOL0     H28743  -0.268   3.812   0.667  0.2644  1.1941 -2.2912
  218MOL0     H28744  -0.551   3.716   0.655 -1.5116  0.4420  3.5851
  218MOL0     H28745  -0.510   3.872   0.612 -1.0622 -0.9018 -0.4917
  218MOL0     H28746  -0.580   3.917   0.814  1.3266  1.6213  1.3876
  218MOL0     H28747  -0.410   3.895   0.855  0.4722 -2.2345  0.2758
  218MOL0     H28748  -0.593   3.662   0.873  0.9315  1.6089 -2.2951
  218MOL0     H28749  -0.430   3.679   0.946  1.0660  1.0146  0.5665
  218MOL0     H28750  -0.606   3.688   1.111  0.5825 -1.1509 -1.0270
  218MOL0     H28751  -0.688   3.817   1.042 -0.1661  0.2729  2.1861
  218MOL0     H28752  -0.575   3.936   1.188 -0.0749  0.7411 -0.8866
  218MOL0     H28753  -0.463   3.963   1.060  0.2670  1.3237  0.6326
  218MOL0     H28754  -0.438   3.734   1.255  3.1470 -0.5401  1.0191
  218MOL0     H28755  -0.331   3.767   1.119  0.7186 -1.8149  0.9168
  218MOL0     H28756  -0.315   4.019   1.227 -3.0459  1.6177  2.4376
  218MOL0     H28757  -0.230   3.888   1.312 -0.3550 -0.3791  0.9733
  218MOL0     H28758  -0.169   3.743   0.887 -0.5336 -0.8456  2.6692
  218MOL0     H28759   0.069   3.665   0.932  1.9665 -0.2565 -2.8570
  218MOL0     H28760   0.419   3.229   0.667 -4.5398 -2.1130  0.7391
  218MOL0     H28761   0.630   3.132   0.767 -1.1738 -0.5864  1.1461
  218MOL0     H28762   2.249   3.171   2.237 -1.8169 -0.3102  1.0042
  218MOL0     H28763   2.456   3.278   2.249  0.2516  0.1402 -0.1801
  218MOL0     H28764   2.610   3.680   2.010 -0.1975 -0.9040  0.6074
  218MOL0     H28765   2.761   3.840   1.952 -2.1912 -0.4658  0.0371
  218MOL0     H28766   3.227   3.786   2.026 -1.6076 -2.3211  2.8008
  218MOL0     H28767   3.179   3.891   2.161 -2.0653 -1.2070 -0.0110
  218MOL0     H28768   3.240   3.968   1.873  1.2101 -0.1555 -0.0436
  218MOL0     H28769   3.177   4.084   1.974 -0.4703  0.4752 -1.0070
  218MOL0     H28770   3.402   3.924   2.101  0.5660  0.1783  1.1861
  218MOL0     H28771   3.344   4.080   2.134  0.0774  0.6382 -0.8069
  218MOL0     H28772   3.455   3.998   1.852  1.7950 -0.0123 -0.0439
  218MOL0     H28773   3.415   4.161   1.894  0.5630  0.3290 -1.8755
  218MOL0     H28774   3.806   4.117   2.029  0.8063 -0.0379 -2.8407
  218MOL0     H28775   3.074   3.688   2.199 -0.2815 -0.6499  0.6428
  218MOL0     H28776   2.926   3.486   2.249 -1.4852 -1.2418 -0.3473
  219MOL0     O28777   4.299   7.662   7.462 -0.0169  0.7304  0.1431
  219MOL0     C28778   4.331   7.740   7.555  0.5938  0.2279 -1.0576
  219MOL0     O28779   4.250   7.834   7.615 -0.0391  0.3416  0.2125
  219MOL0     C28780   4.113   7.836   7.597  0.5917  0.0788 -0.3666
  219MOL0     C28781   4.042   7.880   7.706 -1.2994 -0.0621 -0.7248
  219MOL0     C28782   3.902   7.901   7.698 -0.7303  0.3466  0.2135
  219MOL0     C28783   3.832   7.901   7.579  0.7008  0.7079 -0.2116
  219MOL0     O28784   3.700   7.938   7.591 -0.2533  0.2606  1.1566
  219MOL0     C28785   3.615   7.953   7.472 -0.5089 -0.1386 -0.2919
  219MOL0     C28786   3.568   7.818   7.411  0.4400 -0.2558  0.4742
  219MOL0     C28787   3.434   7.826   7.344  0.3156  0.2708 -0.1961
  219MOL0     C28788   3.349   7.699   7.319  0.5747  0.1578  0.0954
  219MOL0     C28789   3.236   7.713   7.222 -0.1879  0.1388  0.0231
  219MOL0     C28790   3.135   7.813   7.263 -0.0748  0.3421  0.8637
  219MOL0     C28791   3.012   7.811   7.165 -0.1721  0.9823 -0.4898
  219MOL0     C28792   2.892   7.895   7.206  0.0394  0.0709 -0.7513
  219MOL0     N28793   2.772   7.880   7.128 -0.9391 -0.0930  0.1795
  219MOL0     C28794   2.749   7.929   7.000 -0.0705 -0.2744  0.2822
  219MOL0     C28795   2.624   7.905   6.972  0.2896 -0.2893  0.4494
  219MOL0     C28796   2.551   7.928   6.839  0.4649 -0.4606  0.2968
  219MOL0     C28797   2.398   7.944   6.862 -0.1449 -1.2591 -0.3735
  219MOL0     C28798   2.329   7.802   6.878 -0.1412 -0.3679 -0.0555
  219MOL0     C28799   2.177   7.789   6.893  0.0103  0.2962 -0.0359
  219MOL0     O28800   2.125   7.879   6.792 -0.0033  0.3286 -0.7365
  219MOL0     C28801   2.014   7.837   6.725 -0.4336 -0.7020  0.4205
  219MOL0     C28802   1.898   7.786   6.786 -0.4850 -0.1467 -0.4756
  219MOL0     C28803   1.791   7.744   6.707 -0.9140 -0.0397  0.4806
  219MOL0     C28804   1.787   7.758   6.568 -0.4873 -0.1806 -0.0494
  219MOL0     C28805   1.670   7.720   6.477 -0.4905  0.7554 -0.1075
  219MOL0     O28806   1.548   7.710   6.534  0.7407 -0.3347  0.3971
  219MOL0     C28807   1.453   7.650   6.453  0.6116  0.2156  0.2411
  219MOL0     C28808   1.471   7.530   6.379 -0.0382  1.0691  1.1130
  219MOL0     C28809   1.362   7.480   6.296 -0.5440  0.0554 -0.8650
  219MOL0     C28810   1.248   7.563   6.274 -0.3527  0.2128 -0.3069
  219MOL0     O28811   1.152   7.504   6.197  0.4834  0.1554 -0.0937
  219MOL0     C28812   1.093   7.603   6.110  0.4816  0.3002 -0.1875
  219MOL0     C28813   0.986   7.521   6.036  0.1813 -0.1178  0.2193
  219MOL0     C28814   0.856   7.515   6.111  0.2170 -0.2257  0.5515
  219MOL0     C28815   0.756   7.418   6.048  0.0489 -0.6276 -0.7054
  219MOL0     C28816   0.700   7.475   5.918  0.1470  0.1477 -0.0901
  219MOL0     C28817   0.639   7.365   5.834  0.6405 -0.7368 -1.4331
  219MOL0     C28818   0.541   7.271   5.910  0.5091  0.0086  0.0502
  219MOL0     C28819   0.412   7.342   5.954 -0.1086 -0.1460  0.4422
  219MOL0    Cl28820   0.311   7.386   5.805 -0.1788 -0.0446 -0.0276
  219MOL0     C28821   1.230   7.680   6.352 -0.8264  0.1723 -1.3227
  219MOL0     C28822   1.334   7.717   6.444  0.6593  0.3225 -0.2788
  219MOL0     O28823   1.700   7.693   6.362 -0.6333  0.3043 -0.0632
  219MOL0     C28824   1.907   7.811   6.508  0.4180  0.1493 -0.0892
  219MOL0     C28825   2.016   7.849   6.582  0.4281  0.0070 -0.6012
  219MOL0     N28826   2.574   7.856   7.087 -0.1284 -0.5678  0.6159
  219MOL0     N28827   2.656   7.842   7.182 -0.3361 -1.3540  0.0717
  219MOL0     C28828   3.900   7.849   7.467 -0.4469  0.4406  0.0358
  219MOL0     C28829   4.036   7.818   7.477  0.2850 -0.3722  0.3701
  219MOL0     C28830   4.466   7.750   7.606  0.4268 -0.4792 -0.6279
  219MOL0     C28831   4.570   7.664   7.563  0.2377 -0.8786 -0.0069
  219MOL0     C28832   4.704   7.681   7.607 -0.3082  0.7194  0.5825
  219MOL0     C28833   4.735   7.779   7.699  0.2751  0.1719  0.0890
  219MOL0     O28834   4.859   7.802   7.756  0.4634  0.4366  0.5471
  219MOL0     C28835   4.971   7.740   7.680 -0.2969 -0.0389 -0.0121
  219MOL0     C28836   5.108   7.790   7.726  0.2635 -0.0543 -0.2618
  219MOL0     C28837   5.123   7.943   7.696 -0.3738  1.1349  0.5854
  219MOL0     C28838   5.266   7.995   7.732  0.1768  0.0021 -0.6002
  219MOL0     C28839   5.366   7.955   7.630  0.1619 -0.4391 -0.4474
  219MOL0     C28840   5.462   7.925   7.560 -0.4273 -0.4072 -0.6858
  219MOL0     C28841   4.632   7.857   7.743  0.2419 -0.4864 -0.6069
  219MOL0     C28842   4.503   7.851   7.695 -0.4075 -0.4700  0.3945
  219MOL0     H28843   4.096   7.889   7.800  1.3253  0.4702 -2.1715
  219MOL0     H28844   3.850   7.938   7.786  0.5114  0.5405  0.8906
  219MOL0     H28845   3.664   8.017   7.397 -0.4483 -0.7742 -0.7981
  219MOL0     H28846   3.537   8.024   7.500 -0.7664  0.3361 -2.0503
  219MOL0     H28847   3.554   7.752   7.496 -0.8798 -1.9263 -0.9634
  219MOL0     H28848   3.633   7.781   7.331 -2.5972 -2.3128 -1.2279
  219MOL0     H28849   3.445   7.883   7.252 -1.6111  0.1989 -0.5082
  219MOL0     H28850   3.368   7.893   7.399  0.6387 -0.7046  1.4416
  219MOL0     H28851   3.410   7.614   7.286 -0.0119  0.3585 -1.6245
  219MOL0     H28852   3.300   7.673   7.413 -1.0337 -0.3879 -0.8495
  219MOL0     H28853   3.191   7.614   7.222 -2.2464  1.0239 -0.3229
  219MOL0     H28854   3.278   7.735   7.123  2.2048 -0.2602  0.8704
  219MOL0     H28855   3.177   7.914   7.257  1.4748 -0.2321  1.5174
  219MOL0     H28856   3.103   7.796   7.366  1.3304  0.9305  1.4240
  219MOL0     H28857   3.043   7.848   7.067 -2.6952  2.4245 -0.8329
  219MOL0     H28858   2.978   7.707   7.158 -1.1209  1.2090  0.5210
  219MOL0     H28859   2.915   8.001   7.209 -2.5087  0.6982 -0.7947
  219MOL0     H28860   2.860   7.859   7.305 -2.4918  0.9394 -1.1839
  219MOL0     H28861   2.816   7.969   6.924  0.5142  0.1574  1.0182
  219MOL0     H28862   2.574   7.839   6.779 -0.8893  1.0507 -2.6457
  219MOL0     H28863   2.577   8.026   6.798  0.7609  1.4279  4.4703
  219MOL0     H28864   2.350   7.990   6.775 -0.3700 -1.8488 -0.5662
  219MOL0     H28865   2.382   8.008   6.950  0.0102  0.7170 -1.7157
  219MOL0     H28866   2.350   7.740   6.790  0.1453  0.2506 -0.4317
  219MOL0     H28867   2.380   7.753   6.962  0.2427  2.3235  1.4069
  219MOL0     H28868   2.141   7.801   6.996  1.5568  0.8266  0.4772
  219MOL0     H28869   2.156   7.684   6.872  1.4773  0.2401 -1.4214
  219MOL0     H28870   1.887   7.780   6.894 -1.8282  1.7593 -0.4389
  219MOL0     H28871   1.706   7.696   6.755 -1.5457  1.7175  1.1779
  219MOL0     H28872   1.567   7.481   6.386 -1.4285 -1.5486  4.9314
  219MOL0     H28873   1.386   7.393   6.235  1.0944  0.4036 -0.7615
  219MOL0     H28874   1.177   7.631   6.046  1.2058  1.1793  1.1165
  219MOL0     H28875   1.048   7.692   6.155 -0.7059 -0.2383 -0.2514
  219MOL0     H28876   1.027   7.425   6.002  1.3619  1.2971 -2.6273
  219MOL0     H28877   0.969   7.588   5.951  0.8725 -1.4687 -1.0356
  219MOL0     H28878   0.813   7.616   6.117  1.7516  0.4415  0.9016
  219MOL0     H28879   0.876   7.485   6.214 -0.2323  0.9335  0.9959
  219MOL0     H28880   0.811   7.325   6.037  1.4651  0.2102 -0.9726
  219MOL0     H28881   0.676   7.400   6.120  1.4575  1.6820  1.6343
  219MOL0     H28882   0.782   7.509   5.853 -0.9931  1.2502 -0.9956
  219MOL0     H28883   0.634   7.560   5.939  1.0066  0.8533 -0.1297
  219MOL0     H28884   0.716   7.308   5.782 -1.1046 -1.3796 -3.4170
  219MOL0     H28885   0.592   7.419   5.752 -2.4674  0.4482  0.9168
  219MOL0     H28886   0.503   7.195   5.841 -2.6829  2.2808 -0.9268
  219MOL0     H28887   0.574   7.221   6.002 -1.9215 -2.6201 -0.3452
  219MOL0     H28888   0.434   7.435   6.005  0.0524  0.3774 -0.5470
  219MOL0     H28889   0.364   7.274   6.024 -0.4065 -1.7393 -1.2199
  219MOL0     H28890   1.142   7.744   6.359 -0.5780  0.4886 -1.0949
  219MOL0     H28891   1.314   7.793   6.519 -1.5611 -0.2643 -0.1889
  219MOL0     H28892   1.917   7.836   6.402 -0.0256  1.7367  0.2083
  219MOL0     H28893   2.104   7.890   6.534  0.9831 -0.9733 -0.4439
  219MOL0     H28894   3.864   7.845   7.364  2.4727 -1.2067 -1.0458
  219MOL0     H28895   4.079   7.770   7.390  1.3219 -2.6723  2.0574
  219MOL0     H28896   4.541   7.586   7.493 -1.0028 -0.0061 -0.4813
  219MOL0     H28897   4.783   7.616   7.571  2.4878  3.7566  0.7213
  219MOL0     H28898   4.963   7.755   7.572 -2.9317 -3.0737 -0.3700
  219MOL0     H28899   4.974   7.631   7.692 -0.9587 -0.4899 -3.1772
  219MOL0     H28900   5.109   7.776   7.835 -2.7045  1.8041  0.1265
  219MOL0     H28901   5.189   7.727   7.690  1.4900  0.4448  1.4740
  219MOL0     H28902   5.051   8.000   7.756 -1.5735  0.5207 -0.2385
  219MOL0     H28903   5.094   7.948   7.591 -1.6405 -2.0607  0.6775
  219MOL0     H28904   5.267   8.104   7.726 -1.6610  0.0043 -1.8168
  219MOL0     H28905   5.297   7.963   7.831  0.0677  1.7217  0.0229
  219MOL0     H28906   5.552   7.919   7.502 -1.5703 -2.7084 -2.3745
  219MOL0     H28907   4.645   7.934   7.818 -1.0112 -0.5898 -0.2670
  219MOL0     H28908   4.435   7.919   7.745 -2.0903 -0.8350 -1.2763
  220MOL0     O28909   8.859  11.035   3.553 -0.0938  0.0692 -0.0146
  220MOL0     C28910   8.888  11.071   3.438  0.5892  0.4697 -0.3220
  220MOL0     O28911   8.832  11.010   3.320  0.2183 -1.3228 -0.2727
  220MOL0     C28912   8.729  10.913   3.332 -0.7451  0.1721 -0.0737
  220MOL0     C28913   8.615  10.919   3.407 -0.1752 -0.0714 -0.7563
  220MOL0     C28914   8.522  10.819   3.402  0.0398  0.0663  0.6303
  220MOL0     C28915   8.535  10.710   3.321  0.2030  0.3651  0.1566
  220MOL0     O28916   8.425  10.624   3.341 -0.6180 -0.8568  0.6978
  220MOL0     C28917   8.445  10.482   3.323  0.7466 -0.7328 -1.6205
  220MOL0     C28918   8.485  10.430   3.458 -0.3260  0.4033  0.4746
  220MOL0     C28919   8.393  10.459   3.574  0.4607 -0.1089  0.8827
  220MOL0     C28920   8.471  10.453   3.706  0.8861 -0.1250 -0.3537
  220MOL0     C28921   8.390  10.497   3.828  0.2066  0.0307 -0.3639
  220MOL0     C28922   8.248  10.438   3.822 -0.7578  0.0457  0.9562
  220MOL0     C28923   8.171  10.451   3.953 -0.1303 -0.4462  0.4710
  220MOL0     C28924   8.115  10.598   3.985  0.4350 -0.1098  0.5109
  220MOL0     N28925   8.020  10.625   4.093  0.4667  0.2788  0.7539
  220MOL0     C28926   7.892  10.575   4.101  0.2899  0.5771  0.2848
  220MOL0     C28927   7.853  10.596   4.228 -0.3866  0.4458  0.2480
  220MOL0     C28928   7.724  10.555   4.286  0.3833  0.2390 -0.5443
  220MOL0     C28929   7.670  10.668   4.371  0.3707 -0.4552  0.4365
  220MOL0     C28930   7.528  10.651   4.404 -0.3686 -0.2487  0.3099
  220MOL0     C28931   7.462  10.770   4.486 -0.3688 -0.2980 -0.1722
  220MOL0     O28932   7.512  10.760   4.623 -0.7679 -0.8608  0.0900
  220MOL0     C28933   7.420  10.778   4.716 -0.4728 -0.0981 -0.2978
  220MOL0     C28934   7.340  10.894   4.728 -0.0307  0.4234  0.7338
  220MOL0     C28935   7.236  10.898   4.829 -0.2330  0.2629  0.0280
  220MOL0     C28936   7.223  10.791   4.925  0.1470 -0.5979  0.2153
  220MOL0     C28937   7.115  10.784   5.019  0.6545 -0.7296 -1.0877
  220MOL0     O28938   7.092  10.670   5.087 -0.4501  0.3395  0.0230
  220MOL0     C28939   7.002  10.642   5.190  0.1207 -1.4536  0.0414
  220MOL0     C28940   6.900  10.729   5.240 -0.7106  0.1297 -0.8704
  220MOL0     C28941   6.810  10.675   5.333  0.6004 -0.4560  0.0317
  220MOL0     C28942   6.822  10.536   5.379 -0.5549 -0.8376  0.1876
  220MOL0     O28943   6.731  10.465   5.455  0.1793 -0.0598 -0.6637
  220MOL0     C28944   6.608  10.538   5.476 -0.0384  0.1879 -0.8680
  220MOL0     C28945   6.520  10.469   5.572  0.3003 -0.6746 -0.1091
  220MOL0     C28946   6.482  10.331   5.516 -0.1472  0.4191 -0.3723
  220MOL0     C28947   6.366  10.276   5.604 -0.2639  0.3110  0.4974
  220MOL0     C28948   6.287  10.158   5.536 -0.6305 -0.6054 -0.0226
  220MOL0     C28949   6.140  10.154   5.580 -0.5159  0.5767  0.5730
  220MOL0     C28950   6.124  10.145   5.726  0.8480  0.4106 -0.3809
  220MOL0     C28951   6.163  10.013   5.783  0.2415 -0.4766 -0.3736
  220MOL0    Cl28952   6.111   9.994   5.956  0.3065 -0.0786  0.3728
  220MOL0     C28953   6.930  10.454   5.330  0.3598 -0.9420 -1.0352
  220MOL0     C28954   7.017  10.512   5.240  0.6380 -0.1541 -0.1481
  220MOL0     O28955   7.048  10.886   5.044 -0.2002 -0.5951 -0.0152
  220MOL0     C28956   7.308  10.682   4.912 -0.1387 -0.6498  0.1793
  220MOL0     C28957   7.400  10.677   4.807 -0.2756  0.3273 -0.6763
  220MOL0     N28958   7.954  10.664   4.290  0.2454  0.7615  0.7030
  220MOL0     N28959   8.056  10.673   4.218  0.5050  0.6245  0.0683
  220MOL0     C28960   8.655  10.697   3.246  0.0359  0.0535  0.9948
  220MOL0     C28961   8.747  10.805   3.242  0.1558  0.4145 -0.7108
  220MOL0     C28962   8.992  11.174   3.415  0.6759  0.3956 -1.0467
  220MOL0     C28963   9.067  11.220   3.529  0.0946  0.5008  0.2311
  220MOL0     C28964   9.175  11.302   3.510 -0.6064  1.1433  0.0339
  220MOL0     C28965   9.203  11.350   3.376  0.1848  0.3978  0.9344
  220MOL0     O28966   9.307  11.430   3.339  0.0913 -0.4822  0.8999
  220MOL0     C28967   9.433  11.405   3.400 -0.2401 -0.3501  0.0969
  220MOL0     C28968   9.470  11.270   3.354  0.0870 -0.0922  0.4916
  220MOL0     C28969   9.482  11.256   3.195  0.3812  0.0995 -0.0347
  220MOL0     C28970   9.478  11.109   3.151  0.2230  0.0657 -0.4843
  220MOL0     C28971   9.485  11.088   3.004 -0.2463  0.3371  0.2635
  220MOL0     C28972   9.466  11.053   2.892 -0.2758  0.0265 -0.5911
  220MOL0     C28973   9.115  11.333   3.277 -0.8942  0.3543 -0.0204
  220MOL0     C28974   9.011  11.232   3.288  0.4418  0.0782 -0.7983
  220MOL0     H28975   8.594  10.986   3.490 -0.3176 -3.1535  1.8878
  220MOL0     H28976   8.440  10.819   3.472 -0.6924 -0.2879 -0.2091
  220MOL0     H28977   8.528  10.467   3.254  1.5675  1.9340 -1.3436
  220MOL0     H28978   8.350  10.436   3.295  0.5707 -0.6778 -1.1193
  220MOL0     H28979   8.582  10.468   3.491 -1.1533  4.0021 -0.7863
  220MOL0     H28980   8.492  10.321   3.453  1.4217  0.5573 -1.6880
  220MOL0     H28981   8.307  10.391   3.572  0.2299  0.1655  1.2525
  220MOL0     H28982   8.347  10.558   3.566  0.8370  0.1088  1.3941
  220MOL0     H28983   8.502  10.350   3.725 -1.1692 -0.1863  3.6747
  220MOL0     H28984   8.559  10.517   3.708  1.2126 -0.5719 -0.2650
  220MOL0     H28985   8.388  10.606   3.827  1.7285  0.0867 -2.1238
  220MOL0     H28986   8.445  10.463   3.917 -1.3700  0.7867  0.9488
  220MOL0     H28987   8.257  10.331   3.800 -2.4302  0.1455 -0.4572
  220MOL0     H28988   8.188  10.477   3.739 -1.0778 -3.0520 -0.4040
  220MOL0     H28989   8.091  10.377   3.955  0.5215 -1.1652  0.3421
  220MOL0     H28990   8.249  10.428   4.025  1.7250  4.2468  0.3445
  220MOL0     H28991   8.064  10.646   3.900  1.0589  2.1002  1.3125
  220MOL0     H28992   8.209  10.648   4.011  1.3133 -0.8682 -1.0136
  220MOL0     H28993   7.835  10.524   4.025  0.6135 -0.3529  0.6519
  220MOL0     H28994   7.732  10.462   4.341 -0.9633 -0.6268 -1.7276
  220MOL0     H28995   7.655  10.528   4.205 -0.9063 -0.9906  0.9099
  220MOL0     H28996   7.685  10.763   4.320 -1.0138 -0.7228 -0.5055
  220MOL0     H28997   7.726  10.669   4.465 -0.8424  3.3715  1.3040
  220MOL0     H28998   7.477  10.621   4.312  0.6340  0.4108 -0.4834
  220MOL0     H28999   7.536  10.562   4.466  1.6150 -0.8919 -0.7797
  220MOL0     H29000   7.353  10.760   4.491 -0.3475 -0.0392  1.9378
  220MOL0     H29001   7.482  10.868   4.444 -2.8383  0.5168  0.3841
  220MOL0     H29002   7.370  10.974   4.662  0.5247  0.0880  0.5771
  220MOL0     H29003   7.173  10.985   4.834 -1.0311 -0.3782  2.2426
  220MOL0     H29004   6.896  10.836   5.221  1.3484  0.2127 -1.0157
  220MOL0     H29005   6.736  10.738   5.380  0.5167  1.9137 -2.9455
  220MOL0     H29006   6.551  10.543   5.383 -0.5752 -1.6984 -0.6986
  220MOL0     H29007   6.633  10.636   5.516  1.0985 -0.2514 -0.4589
  220MOL0     H29008   6.427  10.522   5.594  0.1016 -1.1655  0.2773
  220MOL0     H29009   6.580  10.458   5.663  0.4289  1.9661  0.1918
  220MOL0     H29010   6.568  10.263   5.516 -0.1724  0.2921  2.1757
  220MOL0     H29011   6.443  10.355   5.417 -1.3109  1.8249  0.3961
  220MOL0     H29012   6.415  10.251   5.699  2.2379  3.0271  0.0754
  220MOL0     H29013   6.298  10.359   5.627  0.0409  1.5187 -2.5441
  220MOL0     H29014   6.341  10.064   5.553  0.3013  0.2034  1.7400
  220MOL0     H29015   6.279  10.174   5.428 -0.1325 -1.3806 -0.1817
  220MOL0     H29016   6.102  10.064   5.530  1.8437 -0.8513  1.2101
  220MOL0     H29017   6.074  10.236   5.550 -0.7897  0.9755  2.2172
  220MOL0     H29018   6.176  10.220   5.786 -0.6972  0.7603  0.5852
  220MOL0     H29019   6.017  10.160   5.739  0.3629 -1.8725 -1.3270
  220MOL0     H29020   6.270   9.992   5.772  0.0225 -1.2721 -1.0664
  220MOL0     H29021   6.104   9.935   5.735  1.7195 -1.2081 -1.0673
  220MOL0     H29022   6.928  10.348   5.354 -1.2840 -0.7568 -0.1997
  220MOL0     H29023   7.087  10.439   5.201 -2.3106 -1.1515 -4.2239
  220MOL0     H29024   7.295  10.601   4.984  0.9210 -1.5684 -0.6193
  220MOL0     H29025   7.460  10.587   4.800  0.1456  0.2619  2.4550
  220MOL0     H29026   8.673  10.608   3.186 -0.6143  1.4613 -1.4162
  220MOL0     H29027   8.841  10.793   3.189 -0.6203 -2.3169 -1.6251
  220MOL0     H29028   9.047  11.185   3.629 -1.5665 -1.6724 -0.7740
  220MOL0     H29029   9.243  11.313   3.594 -3.3818 -0.0426  2.5903
  220MOL0     H29030   9.419  11.415   3.508 -1.0315 -1.3160  0.0934
  220MOL0     H29031   9.507  11.481   3.370 -1.4080  0.5486 -0.6113
  220MOL0     H29032   9.570  11.252   3.395  1.7326 -0.5516 -3.2892
  220MOL0     H29033   9.409  11.192   3.401 -1.4698 -2.1201 -4.2793
  220MOL0     H29034   9.577  11.297   3.159  0.6137 -1.8319 -1.8197
  220MOL0     H29035   9.400  11.314   3.151 -1.9000 -1.5581  1.7800
  220MOL0     H29036   9.559  11.046   3.189  0.3693 -0.8325 -2.1867
  220MOL0     H29037   9.383  11.062   3.179  0.5344 -0.2810  0.0086
  220MOL0     H29038   9.447  11.024   2.790 -1.4401 -2.3651  0.2276
  220MOL0     H29039   9.114  11.378   3.179 -0.6523  0.1901 -0.0987
  220MOL0     H29040   8.943  11.221   3.204 -0.3073 -0.3287 -0.1527
  221MOL0     O29041   4.637   9.109   4.619 -0.4660  0.4400  0.3534
  221MOL0     C29042   4.710   9.134   4.524  0.3180 -0.0805  0.1962
  221MOL0     O29043   4.703   9.080   4.388  0.2869 -0.6673 -0.1347
  221MOL0     C29044   4.615   8.986   4.362 -0.1429  0.0111 -0.2765
  221MOL0     C29045   4.614   8.854   4.425 -0.2134 -0.3294  1.1907
  221MOL0     C29046   4.510   8.768   4.384 -0.4307  0.1684  0.2223
  221MOL0     C29047   4.420   8.792   4.280  0.8277  0.4167 -0.3257
  221MOL0     O29048   4.331   8.699   4.231 -0.1460  0.1247 -0.3161
  221MOL0     C29049   4.333   8.560   4.275 -0.0437  0.2463 -0.6911
  221MOL0     C29050   4.230   8.525   4.390 -0.1409  0.1864 -0.5231
  221MOL0     C29051   4.086   8.530   4.335 -0.3232 -0.0783  0.0673
  221MOL0     C29052   3.992   8.467   4.444 -0.2667 -0.5165 -0.5731
  221MOL0     C29053   3.853   8.449   4.383 -0.4377  0.3951 -0.0643
  221MOL0     C29054   3.764   8.362   4.476  0.1640 -0.0825  0.4161
  221MOL0     C29055   3.632   8.307   4.403 -1.2267  0.0972  0.9953
  221MOL0     C29056   3.548   8.207   4.489  1.4523  0.4011  1.2483
  221MOL0     N29057   3.433   8.165   4.405 -0.0413  0.4052  0.9430
  221MOL0     C29058   3.356   8.060   4.436  1.1503  0.0532 -0.0477
  221MOL0     C29059   3.232   8.088   4.382  0.6007  0.1463  0.0432
  221MOL0     C29060   3.110   8.000   4.385  0.9848  0.5574  0.3812
  221MOL0     C29061   2.990   8.032   4.292 -0.0374 -0.7369 -0.1644
  221MOL0     C29062   2.876   7.941   4.340 -0.0528 -0.0685 -0.2642
  221MOL0     C29063   2.747   7.987   4.262 -0.5109 -0.2540  0.0338
  221MOL0     O29064   2.645   7.915   4.329  0.8067  0.7429 -0.3789
  221MOL0     C29065   2.519   7.942   4.287  0.7786 -0.3678 -0.1255
  221MOL0     C29066   2.473   8.021   4.181 -0.0471  1.1313 -0.2316
  221MOL0     C29067   2.336   8.023   4.136  0.1665  0.5111  0.1017
  221MOL0     C29068   2.242   7.949   4.214  0.7613  0.5974  0.5727
  221MOL0     C29069   2.093   7.930   4.182 -0.0147 -0.1048  1.2014
  221MOL0     O29070   2.020   7.851   4.260 -0.4514  0.5423  0.1383
  221MOL0     C29071   1.887   7.840   4.240 -0.3137 -0.8802 -0.4276
  221MOL0     C29072   1.796   7.941   4.205 -0.5159  0.2044 -0.3110
  221MOL0     C29073   1.659   7.916   4.181  0.3329  0.1974 -0.2076
  221MOL0     C29074   1.612   7.789   4.209  0.1357 -0.0543 -0.2885
  221MOL0     O29075   1.473   7.785   4.183  0.6398 -0.6899 -0.4502
  221MOL0     C29076   1.404   7.667   4.202 -0.6430  0.0452  0.3376
  221MOL0     C29077   1.265   7.693   4.133  0.3437  0.2109 -0.2721
  221MOL0     C29078   1.172   7.571   4.149  0.0533  0.7229  0.0494
  221MOL0     C29079   1.036   7.583   4.073 -0.4861  0.2666  0.6721
  221MOL0     C29080   0.945   7.464   4.103 -0.4936 -0.8007 -0.3166
  221MOL0     C29081   0.984   7.337   4.040 -0.3441 -0.1007  0.2384
  221MOL0     C29082   0.866   7.247   4.031  0.1548  0.1236 -0.3985
  221MOL0     C29083   0.892   7.110   3.959  0.7149 -0.8964  0.0814
  221MOL0    Cl29084   0.986   7.004   4.056  0.2838  0.1444  0.3175
  221MOL0     C29085   1.693   7.691   4.261 -0.3880 -0.0911  0.0220
  221MOL0     C29086   1.833   7.713   4.276 -0.1316  0.3505  0.0921
  221MOL0     O29087   2.046   7.990   4.081 -0.0253  0.0784 -0.3731
  221MOL0     C29088   2.287   7.873   4.323 -0.3794 -0.4175 -0.5581
  221MOL0     C29089   2.416   7.882   4.360 -1.0615 -0.5232  0.5565
  221MOL0     N29090   3.239   8.205   4.309 -0.1165  0.6847 -0.1073
  221MOL0     N29091   3.356   8.249   4.329 -0.0492  0.2654  0.1891
  221MOL0     C29092   4.426   8.922   4.223 -0.4503  0.3901  0.5538
  221MOL0     C29093   4.522   9.016   4.265  0.2439 -0.3700 -0.4437
  221MOL0     C29094   4.818   9.238   4.539 -0.2076  0.3747  0.1804
  221MOL0     C29095   4.914   9.258   4.434 -0.5642  0.4141 -0.0653
  221MOL0     C29096   5.022   9.342   4.462  0.2912  0.7849 -0.1257
  221MOL0     C29097   5.049   9.398   4.585 -0.8971 -1.2372  0.1450
  221MOL0     O29098   5.153   9.487   4.614 -0.0959  0.1813  0.4909
  221MOL0     C29099   5.246   9.516   4.511 -0.0013 -0.3022 -0.6033
  221MOL0     C29100   5.359   9.421   4.488 -0.5291 -0.1820 -0.4795
  221MOL0     C29101   5.459   9.412   4.606 -0.1874 -0.3712  0.0099
  221MOL0     C29102   5.402   9.434   4.748 -0.7716  0.8755  0.2616
  221MOL0     C29103   5.510   9.430   4.842  0.3715  0.6536 -1.4954
  221MOL0     C29104   5.593   9.430   4.929 -1.0217 -0.7380  0.1027
  221MOL0     C29105   4.961   9.381   4.689  0.3689  0.2075  0.3170
  221MOL0     C29106   4.842   9.295   4.667  0.7017 -0.3729 -0.4224
  221MOL0     H29107   4.685   8.815   4.498  0.8432 -2.2385 -0.7465
  221MOL0     H29108   4.507   8.681   4.448  0.3572  0.7585  1.0966
  221MOL0     H29109   4.434   8.530   4.305 -0.3570  0.7198  0.9523
  221MOL0     H29110   4.303   8.496   4.192  0.4413  0.3921 -0.9847
  221MOL0     H29111   4.249   8.591   4.475  3.5416 -0.0356 -1.0030
  221MOL0     H29112   4.248   8.424   4.427  0.7374  0.8272  0.9052
  221MOL0     H29113   4.086   8.479   4.238 -1.2483  0.6334 -0.3267
  221MOL0     H29114   4.065   8.635   4.311 -1.6519 -0.6321 -1.3650
  221MOL0     H29115   4.035   8.369   4.463 -0.0520 -0.1646  0.8610
  221MOL0     H29116   4.000   8.528   4.535 -0.1591 -2.7150  0.9658
  221MOL0     H29117   3.854   8.398   4.286  0.3092  0.3060 -0.0204
  221MOL0     H29118   3.814   8.549   4.368  0.0953  0.5951 -0.1446
  221MOL0     H29119   3.739   8.419   4.566 -1.4386  1.0420 -0.6992
  221MOL0     H29120   3.825   8.274   4.500  2.5299  1.3619 -0.0007
  221MOL0     H29121   3.583   8.395   4.361  0.7572  0.3789 -0.9557
  221MOL0     H29122   3.654   8.253   4.310  1.9712  0.5832  1.3474
  221MOL0     H29123   3.504   8.258   4.575  1.2373 -0.8773  1.9297
  221MOL0     H29124   3.608   8.121   4.521  0.8477 -0.8064 -0.6636
  221MOL0     H29125   3.378   7.966   4.484 -2.6037 -2.1118 -2.1057
  221MOL0     H29126   3.081   7.988   4.490  1.3613  2.0178  0.6717
  221MOL0     H29127   3.144   7.901   4.353  3.1494  1.0232  1.0387
  221MOL0     H29128   3.038   8.017   4.195  1.9575  2.9940  0.0661
  221MOL0     H29129   2.959   8.135   4.310 -2.4628 -1.4450  0.1111
  221MOL0     H29130   2.895   7.837   4.311  1.6015  0.7521 -2.4669
  221MOL0     H29131   2.843   7.947   4.444 -1.5871 -1.8681 -0.6029
  221MOL0     H29132   2.749   7.947   4.161  0.7988  1.6522 -0.7642
  221MOL0     H29133   2.742   8.096   4.267 -1.9341 -0.3354  1.4467
  221MOL0     H29134   2.542   8.087   4.129  1.1106  1.2840  1.4409
  221MOL0     H29135   2.300   8.079   4.050 -0.0652 -3.8330 -2.9511
  221MOL0     H29136   1.836   8.040   4.185  0.4728  0.0633  0.8159
  221MOL0     H29137   1.589   7.992   4.149  0.5768  0.9723  1.0549
  221MOL0     H29138   1.394   7.647   4.309 -2.2761  2.0687  0.6446
  221MOL0     H29139   1.462   7.592   4.147  0.0640  0.5241  0.4128
  221MOL0     H29140   1.285   7.701   4.026  0.8345  0.7183 -0.1504
  221MOL0     H29141   1.210   7.779   4.173 -1.7357 -0.4117 -1.6732
  221MOL0     H29142   1.158   7.570   4.258  1.3927 -1.2824  0.2524
  221MOL0     H29143   1.219   7.480   4.112  0.7640  1.9360 -2.2278
  221MOL0     H29144   0.983   7.673   4.107  2.9236  1.9669  2.1079
  221MOL0     H29145   1.051   7.592   3.965 -4.9102  3.7132  0.0839
  221MOL0     H29146   0.845   7.494   4.070  0.3764  2.3585 -0.4514
  221MOL0     H29147   0.931   7.446   4.210 -0.6876  1.5398  0.1085
  221MOL0     H29148   1.062   7.291   4.102  0.3239  1.9804  1.0373
  221MOL0     H29149   1.022   7.355   3.939 -1.1236  4.5162  0.5351
  221MOL0     H29150   0.828   7.213   4.128  1.6236  0.7081  0.4110
  221MOL0     H29151   0.780   7.296   3.984 -1.8205 -0.1029  2.6666
  221MOL0     H29152   0.945   7.134   3.866 -0.0345  0.4036 -0.0291
  221MOL0     H29153   0.795   7.067   3.933  0.3044  0.4636 -0.7999
  221MOL0     H29154   1.652   7.595   4.290 -1.0553 -0.5864 -2.3318
  221MOL0     H29155   1.900   7.637   4.315 -1.0907 -0.8980 -0.6154
  221MOL0     H29156   2.212   7.830   4.388 -0.5624 -0.2952 -0.6868
  221MOL0     H29157   2.455   7.824   4.443 -2.8993  0.4296  2.1623
  221MOL0     H29158   4.355   8.943   4.143 -0.0863  0.3865  0.2237
  221MOL0     H29159   4.515   9.117   4.226  3.5011  0.2109  0.2010
  221MOL0     H29160   4.896   9.221   4.334 -0.0357  1.5837 -0.6098
  221MOL0     H29161   5.095   9.351   4.382 -0.4545 -0.3354 -0.9598
  221MOL0     H29162   5.285   9.612   4.546  1.2377 -0.6601 -0.9380
  221MOL0     H29163   5.202   9.516   4.411  1.3879 -3.6291 -1.3553
  221MOL0     H29164   5.314   9.323   4.470  1.3822 -1.3120  0.6151
  221MOL0     H29165   5.413   9.438   4.395  0.2048 -4.3103 -0.9948
  221MOL0     H29166   5.533   9.491   4.588 -2.4522  1.4919 -1.6994
  221MOL0     H29167   5.503   9.312   4.599  1.3012  0.3763 -3.2878
  221MOL0     H29168   5.342   9.524   4.765 -2.9200 -0.7951  2.3349
  221MOL0     H29169   5.334   9.350   4.768  2.1187 -0.8779  4.0409
  221MOL0     H29170   5.684   9.448   4.984 -0.4594  1.7187 -1.5007
  221MOL0     H29171   4.971   9.431   4.784  1.3871  1.7024 -0.5473
  221MOL0     H29172   4.775   9.283   4.752  1.6125  1.6152  0.6579
  222MOL0     O29173   6.849   3.241   5.061  0.4242 -0.4758 -0.9213
  222MOL0     C29174   6.867   3.261   4.945 -0.3320 -0.2545  0.7806
  222MOL0     O29175   6.762   3.279   4.855  0.3253  0.6114 -0.2068
  222MOL0     C29176   6.630   3.271   4.897  0.2272  0.8746  0.3155
  222MOL0     C29177   6.586   3.346   5.003 -0.3902 -1.1662  0.1913
  222MOL0     C29178   6.457   3.339   5.049  0.0034  0.1197  0.1882
  222MOL0     C29179   6.360   3.257   4.984 -0.4947  0.0327 -0.6257
  222MOL0     O29180   6.231   3.260   5.016 -0.3667 -0.5778  0.2105
  222MOL0     C29181   6.169   3.383   4.975  0.6285  0.0873 -0.2462
  222MOL0     C29182   6.040   3.417   5.041  1.0546 -0.7031 -0.3416
  222MOL0     C29183   5.932   3.324   4.972 -0.8420 -0.2865 -0.1902
  222MOL0     C29184   5.789   3.354   5.022  0.1079  0.2980  0.5366
  222MOL0     C29185   5.696   3.250   4.949 -0.1821  0.0652 -0.4864
  222MOL0     C29186   5.550   3.273   5.000  0.4443 -0.3339  0.3163
  222MOL0     C29187   5.462   3.185   4.914  0.1818  0.7194  0.1101
  222MOL0     C29188   5.320   3.246   4.930 -0.5335 -0.5497 -0.0393
  222MOL0     N29189   5.214   3.161   4.868 -0.0876  0.0292  0.3006
  222MOL0     C29190   5.180   3.032   4.896  0.0814  0.3278 -0.2231
  222MOL0     C29191   5.060   3.010   4.840  0.0021 -0.0924 -0.0204
  222MOL0     C29192   4.975   2.892   4.863 -1.3865 -0.7030  0.2740
  222MOL0     C29193   4.849   2.893   4.772  0.8482  0.5074  0.7712
  222MOL0     C29194   4.868   2.918   4.620  0.2068 -0.0609  0.6613
  222MOL0     C29195   4.727   2.911   4.556 -0.3372  0.5013 -0.2672
  222MOL0     O29196   4.662   2.788   4.601 -0.8357 -0.2026 -0.6575
  222MOL0     C29197   4.526   2.776   4.593 -0.0674 -0.6598  0.0138
  222MOL0     C29198   4.421   2.859   4.536 -0.3350 -0.0942 -0.1574
  222MOL0     C29199   4.288   2.813   4.529 -0.5640  0.7290 -0.1438
  222MOL0     C29200   4.241   2.699   4.600 -1.4519 -0.1774 -0.9203
  222MOL0     C29201   4.103   2.656   4.585  0.0011 -0.0520  0.9529
  222MOL0     O29202   4.015   2.743   4.520  0.4798 -0.5334 -0.6784
  222MOL0     C29203   3.891   2.689   4.489 -0.4656  1.2210  1.6380
  222MOL0     C29204   3.772   2.748   4.543 -0.1632  0.3648 -0.6430
  222MOL0     C29205   3.646   2.683   4.517  0.0942  0.0792  0.4416
  222MOL0     C29206   3.637   2.571   4.433  0.5421  0.6833 -0.2041
  222MOL0     O29207   3.521   2.494   4.412  0.2747 -0.0330  0.7881
  222MOL0     C29208   3.397   2.553   4.453 -0.5469 -1.8084 -0.5196
  222MOL0     C29209   3.286   2.484   4.373  0.7334  0.1858  0.3611
  222MOL0     C29210   3.165   2.578   4.362  0.1427 -0.2428  0.1289
  222MOL0     C29211   3.069   2.511   4.266  0.4554  0.3059  0.5808
  222MOL0     C29212   2.960   2.603   4.229 -0.4642 -0.6657 -0.5986
  222MOL0     C29213   2.879   2.554   4.106  0.2240  0.7961  0.2157
  222MOL0     C29214   2.817   2.666   4.023  0.5217  0.6063 -0.4169
  222MOL0     C29215   2.670   2.624   3.989 -0.1843  0.6151  0.8902
  222MOL0    Cl29216   2.690   2.465   3.887  0.0647  0.0100 -0.1121
  222MOL0     C29217   3.756   2.528   4.364 -0.7580  0.4914  0.1181
  222MOL0     C29218   3.879   2.582   4.396  0.1650 -1.0165  0.2125
  222MOL0     O29219   4.080   2.546   4.626 -0.3985  0.2329 -0.4175
  222MOL0     C29220   4.342   2.625   4.662  0.0114 -0.3499 -0.0303
  222MOL0     C29221   4.475   2.664   4.667  0.2767 -0.2154  0.1809
  222MOL0     N29222   5.018   3.129   4.781 -0.2757 -0.7093 -0.1096
  222MOL0     N29223   5.120   3.217   4.797  0.2851  0.4111  0.9506
  222MOL0     C29224   6.403   3.177   4.880  0.6433 -0.3378  0.4131
  222MOL0     C29225   6.535   3.191   4.833  0.1287  0.2546  0.0208
  222MOL0     C29226   7.007   3.272   4.883  0.3085 -0.1443 -0.6163
  222MOL0     C29227   7.117   3.232   4.961 -0.1156  0.3774 -0.0888
  222MOL0     C29228   7.247   3.221   4.908 -0.0316 -0.5535 -0.2773
  222MOL0     C29229   7.266   3.257   4.780  0.8275 -0.8545 -0.6629
  222MOL0     O29230   7.391   3.256   4.731  0.7374 -0.2575  0.1717
  222MOL0     C29231   7.428   3.259   4.593 -0.4954 -0.2012  0.0319
  222MOL0     C29232   7.574   3.242   4.580 -0.0941  0.4976 -0.2876
  222MOL0     C29233   7.670   3.331   4.667 -0.8215 -0.6455  0.0952
  222MOL0     C29234   7.803   3.372   4.605 -0.1956 -0.3767 -0.1385
  222MOL0     C29235   7.807   3.517   4.562  0.3463  0.5769 -0.9030
  222MOL0     C29236   7.822   3.637   4.546 -1.3143 -0.3411  0.2861
  222MOL0     C29237   7.159   3.297   4.703 -0.3926 -0.3185 -0.3508
  222MOL0     C29238   7.031   3.299   4.748 -0.6098 -0.4475 -0.1409
  222MOL0     H29239   6.650   3.422   5.046 -1.5020  0.6132 -1.1373
  222MOL0     H29240   6.423   3.406   5.128  1.6872  1.0385  0.1819
  222MOL0     H29241   6.152   3.374   4.868 -0.5693 -2.7933  0.1090
  222MOL0     H29242   6.241   3.463   4.994  1.2293 -0.6392  0.6285
  222MOL0     H29243   6.032   3.524   5.020 -0.0820 -0.0599  2.8928
  222MOL0     H29244   6.041   3.401   5.149  0.1409 -0.8548 -0.3472
  222MOL0     H29245   5.952   3.220   4.998  1.3162  0.2674  0.4870
  222MOL0     H29246   5.925   3.340   4.864 -0.8309 -0.6897 -0.2522
  222MOL0     H29247   5.772   3.346   5.129  1.1525  2.6155  0.9430
  222MOL0     H29248   5.759   3.453   4.985  1.8224  0.4301 -0.6493
  222MOL0     H29249   5.719   3.144   4.965 -2.5931 -0.5495 -0.8001
  222MOL0     H29250   5.711   3.257   4.841 -0.5288 -0.5844 -0.5845
  222MOL0     H29251   5.532   3.378   4.976 -1.6493 -0.5954  0.5563
  222MOL0     H29252   5.550   3.254   5.108  1.8268  0.7473  0.5340
  222MOL0     H29253   5.500   3.191   4.811  1.7782  1.7559  0.7104
  222MOL0     H29254   5.472   3.082   4.950 -0.2556  0.7009  0.1830
  222MOL0     H29255   5.302   3.341   4.879 -0.5265 -1.1889 -1.2629
  222MOL0     H29256   5.310   3.264   5.037 -1.8732 -0.6385 -0.1340
  222MOL0     H29257   5.239   2.965   4.957 -0.7466  1.6486  2.1769
  222MOL0     H29258   4.956   2.878   4.970  3.5201  0.9593  1.6227
  222MOL0     H29259   5.026   2.803   4.824 -1.2500 -0.7606  0.5866
  222MOL0     H29260   4.782   2.971   4.809  0.9447  0.1499  1.7256
  222MOL0     H29261   4.808   2.793   4.787  0.2068  0.4696 -0.9694
  222MOL0     H29262   4.914   3.016   4.600 -1.0517  0.3753 -0.2238
  222MOL0     H29263   4.934   2.837   4.588 -1.5574 -1.4452  0.4240
  222MOL0     H29264   4.722   2.922   4.447  0.3852 -1.7207 -0.5756
  222MOL0     H29265   4.679   2.997   4.604 -3.0718 -0.8209 -0.4369
  222MOL0     H29266   4.453   2.942   4.474  0.6528 -0.5583 -0.3010
  222MOL0     H29267   4.219   2.872   4.469  1.5092  2.9361 -0.5078
  222MOL0     H29268   3.775   2.835   4.608  0.2954  0.3807 -0.6834
  222MOL0     H29269   3.559   2.732   4.561 -0.7371 -1.1603  0.2273
  222MOL0     H29270   3.393   2.661   4.439  3.9390 -1.4300 -0.4052
  222MOL0     H29271   3.373   2.529   4.557 -0.5907 -0.4458 -0.2011
  222MOL0     H29272   3.263   2.385   4.414  2.5280 -0.0597  0.8538
  222MOL0     H29273   3.321   2.471   4.270  1.0245  2.8576  0.0591
  222MOL0     H29274   3.201   2.673   4.322  3.5160  0.1641  3.4809
  222MOL0     H29275   3.123   2.605   4.460 -2.3539 -1.2041 -0.5869
  222MOL0     H29276   3.119   2.473   4.176  2.2518  1.0822  1.2178
  222MOL0     H29277   3.025   2.422   4.313  1.9319 -1.0765 -0.5517
  222MOL0     H29278   3.007   2.698   4.201 -2.9445  0.7335 -0.3065
  222MOL0     H29279   2.892   2.628   4.311  1.9382  0.7492  1.0984
  222MOL0     H29280   2.792   2.496   4.136  0.1865 -0.1987 -1.6750
  222MOL0     H29281   2.947   2.490   4.048 -1.9951 -3.8651  2.2556
  222MOL0     H29282   2.809   2.758   4.082 -1.7570  0.4711 -0.4286
  222MOL0     H29283   2.875   2.678   3.931 -1.2761  0.8250 -1.5643
  222MOL0     H29284   2.619   2.701   3.930  1.5941  0.6167 -0.7185
  222MOL0     H29285   2.613   2.607   4.082 -2.2505 -1.6995 -0.6666
  222MOL0     H29286   3.765   2.448   4.291  2.1313  1.5286 -0.7936
  222MOL0     H29287   3.965   2.531   4.354  1.2715  0.6191  0.3942
  222MOL0     H29288   4.320   2.533   4.714 -0.0101 -1.0845 -1.2894
  222MOL0     H29289   4.542   2.606   4.730 -0.8377 -2.1988 -0.3698
  222MOL0     H29290   6.321   3.125   4.831 -0.4261  1.2907  0.3978
  222MOL0     H29291   6.563   3.136   4.744  3.4044  2.3993 -0.4640
  222MOL0     H29292   7.101   3.203   5.065  2.7806 -0.4638  0.1979
  222MOL0     H29293   7.335   3.199   4.968  0.8991 -0.9622 -1.7422
  222MOL0     H29294   7.401   3.357   4.554 -0.3322  0.1955  0.8770
  222MOL0     H29295   7.372   3.182   4.539 -0.5406  0.2076 -0.5020
  222MOL0     H29296   7.591   3.140   4.615 -0.6650  0.3942 -0.2991
  222MOL0     H29297   7.603   3.245   4.475  1.1516  0.5807  0.0445
  222MOL0     H29298   7.682   3.279   4.763 -2.2703 -0.8879  0.1699
  222MOL0     H29299   7.617   3.425   4.685  1.3197  1.2719 -2.7870
  222MOL0     H29300   7.870   3.371   4.692 -0.0236 -0.2595 -0.2692
  222MOL0     H29301   7.836   3.299   4.531 -2.1540 -1.6858  0.2047
  222MOL0     H29302   7.828   3.744   4.543 -1.7188 -0.3210  0.2152
  222MOL0     H29303   7.175   3.333   4.602 -0.9302  0.5935 -0.1212
  222MOL0     H29304   6.944   3.313   4.684 -0.8625  0.8746  0.4559
  223MOL0     O29305   7.647   6.916  10.835 -1.1094 -0.4249 -0.4658
  223MOL0     C29306   7.682   7.028  10.789 -0.6763 -0.6752 -0.5282
  223MOL0     O29307   7.621   7.147  10.820 -0.1352  0.2393  0.4282
  223MOL0     C29308   7.487   7.133  10.852  0.1296 -0.0345 -0.7893
  223MOL0     C29309   7.435   7.196  10.965 -0.1532 -0.2468  0.6780
  223MOL0     C29310   7.292   7.208  10.975  0.0722 -0.1347 -0.2723
  223MOL0     C29311   7.201   7.166  10.870 -0.3450 -0.1185  0.3513
  223MOL0     O29312   7.074   7.196  10.873  0.0435  0.2791  0.8069
  223MOL0     C29313   7.027   7.292  10.967  0.7334  0.0283  0.3518
  223MOL0     C29314   6.878   7.304  10.932 -0.3583 -0.1405 -0.2852
  223MOL0     C29315   6.858   7.362  10.797  0.2321 -0.0810  0.4598
  223MOL0     C29316   6.713   7.398  10.761 -0.8452  0.4693 -1.1415
  223MOL0     C29317   6.694   7.414  10.609 -0.5084 -0.1870 -0.2647
  223MOL0     C29318   6.549   7.462  10.581  0.0214  0.5778 -0.2396
  223MOL0     C29319   6.518   7.467  10.429 -0.1069 -0.1530 -0.3432
  223MOL0     C29320   6.497   7.334  10.377  0.8774  0.5358 -0.3863
  223MOL0     N29321   6.455   7.306  10.241  0.0932 -0.5592 -0.4381
  223MOL0     C29322   6.517   7.369  10.136  0.3097 -0.0779  0.3756
  223MOL0     C29323   6.446   7.324  10.027  0.3765  0.6951 -0.2556
  223MOL0     C29324   6.457   7.361   9.882 -0.0884 -0.4495 -0.0553
  223MOL0     C29325   6.386   7.488   9.848  0.3995 -0.5129  0.2379
  223MOL0     C29326   6.460   7.556   9.735 -0.4012  0.1113  0.2996
  223MOL0     C29327   6.373   7.643   9.635  0.4774 -0.4913 -0.2422
  223MOL0     O29328   6.262   7.560   9.593 -0.2088 -0.7265  0.9106
  223MOL0     C29329   6.182   7.629   9.505  0.4436 -0.2161 -0.2304
  223MOL0     C29330   6.073   7.559   9.457  0.5024 -0.4226 -0.6308
  223MOL0     C29331   5.976   7.609   9.369  0.9193 -0.0311  0.4311
  223MOL0     C29332   5.996   7.744   9.321  0.3891  1.4558  0.7770
  223MOL0     C29333   5.896   7.809   9.230  0.5512  0.5127  0.0198
  223MOL0     O29334   5.768   7.752   9.213  0.5918  0.0263  1.1416
  223MOL0     C29335   5.668   7.828   9.161 -0.6404  0.0040 -0.7794
  223MOL0     C29336   5.669   7.863   9.026 -0.4822 -0.4767  1.2259
  223MOL0     C29337   5.552   7.934   8.973 -0.2379  0.8576  0.6066
  223MOL0     C29338   5.448   7.965   9.056  1.2428 -0.2217  0.1942
  223MOL0     O29339   5.354   8.047   8.990 -0.6957  0.0184  0.1807
  223MOL0     C29340   5.224   8.034   9.039  0.6603 -1.3353  0.1154
  223MOL0     C29341   5.136   8.055   8.914 -0.1290  0.7415 -0.9130
  223MOL0     C29342   5.133   7.946   8.805 -0.2025  0.4617  0.2737
  223MOL0     C29343   5.018   7.991   8.717  0.2073  0.6398  0.2807
  223MOL0     C29344   4.990   7.879   8.619  0.1293  0.9340  0.0164
  223MOL0     C29345   4.892   7.914   8.508 -0.5238 -0.2129  0.5977
  223MOL0     C29346   4.753   7.944   8.562 -0.1691 -0.5208  1.1796
  223MOL0     C29347   4.649   7.957   8.459  0.0506 -0.5051 -0.6539
  223MOL0    Cl29348   4.501   8.014   8.533  0.3500  0.1989 -0.0832
  223MOL0     C29349   5.453   7.937   9.189  0.3627 -0.6238 -0.7200
  223MOL0     C29350   5.563   7.864   9.243  0.2728 -0.4162  0.3311
  223MOL0     O29351   5.930   7.920   9.188 -0.0752  1.2892  1.1248
  223MOL0     C29352   6.107   7.812   9.367  0.7593 -0.0280 -0.1075
  223MOL0     C29353   6.191   7.755   9.454 -0.8098 -0.9945 -0.6120
  223MOL0     N29354   6.369   7.223  10.062 -0.1219  0.3673  0.0086
  223MOL0     N29355   6.368   7.211  10.190  0.0459  0.0133 -0.3882
  223MOL0     C29356   7.258   7.102  10.760  1.2741  0.0979 -0.2816
  223MOL0     C29357   7.396   7.083  10.760 -0.8314 -0.5498  0.1331
  223MOL0     C29358   7.801   7.040  10.709 -0.0443 -0.3862  0.3453
  223MOL0     C29359   7.832   7.165  10.649  0.5056 -0.3838  0.4322
  223MOL0     C29360   7.941   7.187  10.564  0.2154  0.6945  0.5548
  223MOL0     C29361   8.028   7.077  10.535 -0.0677  0.7669  0.4909
  223MOL0     O29362   8.137   7.115  10.461 -0.0416  0.7814 -0.6441
  223MOL0     C29363   8.236   7.007  10.463  0.2911  0.5067 -0.0765
  223MOL0     C29364   8.376   7.056  10.415  0.0498 -0.2099 -0.8379
  223MOL0     C29365   8.497   6.956  10.448  0.4389  0.0940  0.8371
  223MOL0     C29366   8.618   7.023  10.382 -0.4609  0.4251 -0.1016
  223MOL0     C29367   8.748   6.964  10.433 -0.1056 -0.2005  0.5684
  223MOL0     C29368   8.854   6.916  10.470  0.4396 -0.9935 -1.4999
  223MOL0     C29369   7.980   6.948  10.592 -0.3594  0.8120 -1.4237
  223MOL0     C29370   7.876   6.929  10.674 -0.2296 -0.3874 -0.7871
  223MOL0     H29371   7.499   7.242  11.040 -0.5741  1.8374 -0.1771
  223MOL0     H29372   7.259   7.259  11.064  1.2729  1.0872 -0.4776
  223MOL0     H29373   7.078   7.389  10.965  1.2850 -0.0629  3.5014
  223MOL0     H29374   7.052   7.249  11.065  2.5795  0.8251  0.2657
  223MOL0     H29375   6.847   7.390  10.993  0.6631 -1.9898  3.1291
  223MOL0     H29376   6.824   7.211  10.954 -0.0374 -0.3127 -0.2072
  223MOL0     H29377   6.896   7.288  10.725 -1.1048 -1.1679  0.8485
  223MOL0     H29378   6.919   7.451  10.777 -2.0165  1.7462  1.3786
  223MOL0     H29379   6.655   7.313  10.800  1.2119 -0.8032 -0.7032
  223MOL0     H29380   6.681   7.487  10.816  1.6508 -1.2376  3.7632
  223MOL0     H29381   6.702   7.317  10.559  0.3220 -1.0906  1.5367
  223MOL0     H29382   6.771   7.485  10.577  3.0044 -1.6946  3.7813
  223MOL0     H29383   6.531   7.555  10.635  1.8878 -0.6013  2.5892
  223MOL0     H29384   6.472   7.397  10.624  1.5120 -0.4240  0.9893
  223MOL0     H29385   6.442   7.539  10.400  1.7117  3.0161  2.0248
  223MOL0     H29386   6.612   7.499  10.382 -0.8847 -1.1598 -2.7363
  223MOL0     H29387   6.423   7.293  10.447 -0.2310  1.3866 -1.0356
  223MOL0     H29388   6.586   7.271  10.386  0.3446 -0.6470 -2.6818
  223MOL0     H29389   6.588   7.450  10.149 -2.6576  2.7439  0.3079
  223MOL0     H29390   6.439   7.284   9.806 -1.5078  0.8538 -1.0954
  223MOL0     H29391   6.564   7.379   9.868 -0.1828 -2.0089 -3.8599
  223MOL0     H29392   6.388   7.547   9.940 -1.2239 -0.1101  0.0449
  223MOL0     H29393   6.282   7.468   9.822  0.2555  0.3892  0.0742
  223MOL0     H29394   6.538   7.613   9.786 -0.4792  1.4546 -1.0197
  223MOL0     H29395   6.506   7.478   9.674 -1.5687 -1.4016  1.2486
  223MOL0     H29396   6.430   7.682   9.550 -1.8348  0.0288 -1.6090
  223MOL0     H29397   6.331   7.727   9.691 -0.6724 -0.7869 -0.6564
  223MOL0     H29398   6.069   7.456   9.493 -0.8875 -0.4730 -0.8751
  223MOL0     H29399   5.898   7.543   9.334  2.2183 -0.7688 -1.2424
  223MOL0     H29400   5.748   7.837   8.956  0.0163 -0.3831  1.7472
  223MOL0     H29401   5.552   7.960   8.868 -3.8152  2.0776  0.7607
  223MOL0     H29402   5.205   8.112   9.113 -2.4909  0.8281 -2.6566
  223MOL0     H29403   5.205   7.937   9.085 -0.3476 -0.9449  0.5392
  223MOL0     H29404   5.159   8.157   8.881 -1.0870  1.7504  1.3044
  223MOL0     H29405   5.039   8.066   8.963  1.0869 -1.3304  2.2574
  223MOL0     H29406   5.118   7.843   8.840  0.2523  0.1914 -0.3041
  223MOL0     H29407   5.232   7.945   8.758 -1.2519  0.6706 -2.0379
  223MOL0     H29408   4.923   8.015   8.766  0.6290  3.4119 -0.0950
  223MOL0     H29409   5.051   8.089   8.682  2.6258 -0.1513  0.1549
  223MOL0     H29410   4.958   7.791   8.676  1.3877 -0.3267 -1.1467
  223MOL0     H29411   5.086   7.861   8.570  0.5631 -0.4934  1.3190
  223MOL0     H29412   4.878   7.830   8.439  1.1358 -0.8351  0.9727
  223MOL0     H29413   4.924   7.996   8.443  0.8155 -1.2007 -0.0223
  223MOL0     H29414   4.719   7.859   8.623  0.6506 -3.1944 -1.8314
  223MOL0     H29415   4.751   8.033   8.626 -0.7522  1.1795 -1.0571
  223MOL0     H29416   4.635   7.867   8.399 -0.1425 -0.6911 -0.3338
  223MOL0     H29417   4.686   8.028   8.384  0.5445 -1.3215 -1.2007
  223MOL0     H29418   5.366   7.960   9.250  0.5414  1.4062 -1.1544
  223MOL0     H29419   5.562   7.829   9.346  0.9192 -0.3509  0.3645
  223MOL0     H29420   6.110   7.913   9.328 -2.2665  0.4116  0.5680
  223MOL0     H29421   6.266   7.824   9.491 -0.3447 -1.4298 -0.7206
  223MOL0     H29422   7.190   7.064  10.685  0.2625 -0.6500  0.9805
  223MOL0     H29423   7.435   7.048  10.665  0.2491 -0.7855  0.6437
  223MOL0     H29424   7.768   7.252  10.660 -1.0221 -1.5484  1.2872
  223MOL0     H29425   7.970   7.278  10.511  1.9351 -0.2081 -0.1287
  223MOL0     H29426   8.213   6.927  10.393 -1.8396  0.7127  0.3293
  223MOL0     H29427   8.236   6.961  10.562  0.1833 -1.6094 -1.0105
  223MOL0     H29428   8.367   7.073  10.307 -1.4952  3.3933 -0.2750
  223MOL0     H29429   8.394   7.149  10.470  2.2125 -2.5412  2.8179
  223MOL0     H29430   8.481   6.854  10.414  1.0991 -0.0767  1.0360
  223MOL0     H29431   8.513   6.955  10.557  0.4471  2.5142  0.9224
  223MOL0     H29432   8.595   7.006  10.277  1.7039  2.3745 -0.9739
  223MOL0     H29433   8.611   7.129  10.405 -1.4462 -0.1150  2.3945
  223MOL0     H29434   8.951   6.880  10.499  0.9510  0.7972 -0.8184
  223MOL0     H29435   8.029   6.853  10.572 -1.7088 -0.1504 -0.2800
  223MOL0     H29436   7.850   6.833  10.718 -0.1796 -0.1203 -0.1539
  224MOL0     O29437   2.260   3.692   0.457 -0.4353  0.4240  0.0930
  224MOL0     C29438   2.311   3.748   0.357 -0.2458 -0.0895  0.6083
  224MOL0     O29439   2.244   3.757   0.233 -0.9876  0.2449  0.1949
  224MOL0     C29440   2.124   3.699   0.202 -0.6672  0.0571  0.0461
  224MOL0     C29441   2.069   3.584   0.261  0.6918 -0.9679 -0.7828
  224MOL0     C29442   1.951   3.530   0.213  0.2146  0.1383  0.5577
  224MOL0     C29443   1.882   3.590   0.109  0.5149 -0.2835 -0.5949
  224MOL0     O29444   1.768   3.542   0.050  0.2919  0.5307  0.2037
  224MOL0     C29445   1.711   3.413   0.116 -0.3307 -0.2918  0.5521
  224MOL0     C29446   1.582   3.357   0.056 -0.3691 -1.2117  0.0917
  224MOL0     C29447   1.529   3.233   0.127  0.1213 -0.7705 -0.7298
  224MOL0     C29448   1.384   3.200   0.074  0.4193  0.5630 -0.4500
  224MOL0     C29449   1.270   3.286   0.141  1.4369 -0.0507  0.7397
  224MOL0     C29450   1.131   3.264   0.077  0.1293  0.1467  0.1252
  224MOL0     C29451   1.033   3.347   0.161  0.1880 -0.0141  1.2673
  224MOL0     C29452   0.909   3.374   0.073 -0.4796 -0.9419  1.2949
  224MOL0     N29453   0.939   3.475  -0.028 -0.5748 -0.4777 -0.0901
  224MOL0     C29454   0.989   3.602  -0.023  0.2695 -1.1976 -0.5675
  224MOL0     C29455   0.993   3.645  -0.149  0.5447  0.3386 -0.4074
  224MOL0     C29456   1.023   3.785  -0.185 -0.6234  0.4227 -0.3052
  224MOL0     C29457   0.902   3.868  -0.225  0.0478  0.3399 -0.6115
  224MOL0     C29458   0.933   4.018  -0.266  0.7432  0.1773 -0.3151
  224MOL0     C29459   0.792   4.092  -0.270  0.4458 -0.0185  0.0801
  224MOL0     O29460   0.704   4.047  -0.170  0.1751 -0.2723  0.1554
  224MOL0     C29461   0.591   4.123  -0.140 -0.5716  0.0730 -0.6613
  224MOL0     C29462   0.524   4.206  -0.233  0.0803  0.5051 -0.1315
  224MOL0     C29463   0.409   4.279  -0.195  0.5025 -1.1918  0.4817
  224MOL0     C29464   0.363   4.272  -0.066  0.5098 -0.1244 -0.8140
  224MOL0     C29465   0.233   4.334  -0.022  0.1946  0.6556 -0.5977
  224MOL0     O29466   0.145   4.259   0.049  0.3117  0.8229  0.5098
  224MOL0     C29467   0.013   4.290   0.054  0.3510  0.6884  0.0079
  224MOL0     C29468  -0.040   4.420   0.045  0.1130  0.1804 -0.6414
  224MOL0     C29469  -0.181   4.437   0.056 -0.3700  0.0711 -0.0818
  224MOL0     C29470  -0.269   4.329   0.056 -1.2329  0.2528 -0.8939
  224MOL0     O29471  -0.402   4.351   0.068 -0.2087  0.4405 -0.4780
  224MOL0     C29472  -0.454   4.306   0.187 -0.9156  0.4942  0.4879
  224MOL0     C29473  -0.554   4.398   0.266  0.2857 -0.5916 -0.3048
  224MOL0     C29474  -0.704   4.390   0.230 -0.2537  0.0974  0.0650
  224MOL0     C29475  -0.773   4.497   0.314  0.4057  0.0663 -0.4335
  224MOL0     C29476  -0.924   4.464   0.328 -0.2795  0.9482 -0.1496
  224MOL0     C29477  -0.996   4.482   0.186 -0.0743  0.1840  0.1779
  224MOL0     C29478  -1.148   4.446   0.205 -0.0301  0.8135  0.4993
  224MOL0     C29479  -1.228   4.443   0.076 -0.1981  0.3486 -0.0787
  224MOL0    Cl29480  -1.396   4.433   0.111  0.0990 -0.4786 -0.3502
  224MOL0     C29481  -0.216   4.203   0.066  0.4955 -0.1764 -0.0104
  224MOL0     C29482  -0.076   4.178   0.068 -0.4663 -0.0147 -0.2163
  224MOL0     O29483   0.211   4.445  -0.069  0.3068  0.2026  0.0127
  224MOL0     C29484   0.433   4.201   0.033 -0.2414  1.1745 -0.7461
  224MOL0     C29485   0.542   4.125  -0.004 -0.0749 -0.6223  1.2953
  224MOL0     N29486   0.950   3.544  -0.237  0.7294 -0.8620 -0.4939
  224MOL0     N29487   0.930   3.438  -0.162 -0.2454  0.5986 -1.0384
  224MOL0     C29488   1.945   3.699   0.047 -0.1450 -0.4119  0.9108
  224MOL0     C29489   2.062   3.754   0.090 -0.4138 -0.0534  0.4347
  224MOL0     C29490   2.451   3.793   0.352  0.4223 -0.5338 -0.7452
  224MOL0     C29491   2.506   3.862   0.246  0.6157  0.1199 -0.6584
  224MOL0     C29492   2.639   3.914   0.248 -0.9873 -0.0213  0.1177
  224MOL0     C29493   2.719   3.888   0.356  0.5584  0.2672 -0.6069
  224MOL0     O29494   2.852   3.925   0.359  0.0402 -0.6173  0.0869
  224MOL0     C29495   2.946   3.893   0.250  0.7872  0.8915 -0.3533
  224MOL0     C29496   3.032   4.016   0.253  0.5432  0.8337  0.7410
  224MOL0     C29497   3.121   4.002   0.124  0.5044 -0.3044  0.2733
  224MOL0     C29498   3.237   3.900   0.121  0.2527 -0.3664  0.2401
  224MOL0     C29499   3.287   3.874   0.255  0.4659  0.2483 -0.0018
  224MOL0     C29500   3.317   3.849   0.366 -0.7095  0.2218 -0.7239
  224MOL0     C29501   2.654   3.836   0.471 -0.5381 -0.3917 -0.4805
  224MOL0     C29502   2.527   3.790   0.473  0.4911 -0.2512 -0.7958
  224MOL0     H29503   2.113   3.540   0.350  0.8014 -1.2352 -0.9672
  224MOL0     H29504   1.918   3.433   0.249 -0.4933  0.1261 -0.0947
  224MOL0     H29505   1.697   3.416   0.224  1.6149 -1.7305  0.8958
  224MOL0     H29506   1.783   3.331   0.110 -1.7143 -1.6257  1.5741
  224MOL0     H29507   1.607   3.336  -0.049  2.1852  0.0521  0.3796
  224MOL0     H29508   1.509   3.436   0.071 -0.7277 -1.9152  2.5405
  224MOL0     H29509   1.529   3.250   0.236  2.2350 -0.4088 -0.7356
  224MOL0     H29510   1.592   3.148   0.101  2.2448  0.0464  1.2808
  224MOL0     H29511   1.382   3.196  -0.036 -0.2608 -0.1138 -0.4245
  224MOL0     H29512   1.364   3.098   0.108  1.3616  0.1864 -0.9765
  224MOL0     H29513   1.299   3.391   0.147  5.2487 -0.9458  0.9806
  224MOL0     H29514   1.267   3.244   0.242 -1.2271 -2.0433 -0.0651
  224MOL0     H29515   1.098   3.160   0.082 -1.8126  0.7483  1.0738
  224MOL0     H29516   1.140   3.290  -0.029 -1.1012  1.2900  0.2699
  224MOL0     H29517   1.008   3.296   0.255  1.0222  0.2143  1.6307
  224MOL0     H29518   1.066   3.450   0.181 -0.1642  0.2146  0.6721
  224MOL0     H29519   0.833   3.408   0.144 -1.7499 -1.4781  0.2338
  224MOL0     H29520   0.873   3.284   0.021  0.8385 -1.4030  1.1543
  224MOL0     H29521   1.014   3.665   0.062 -1.8380  0.5308 -1.1224
  224MOL0     H29522   1.087   3.795  -0.273 -0.4927 -0.2664 -0.2961
  224MOL0     H29523   1.079   3.842  -0.110  0.2930  0.2944 -0.8735
  224MOL0     H29524   0.834   3.861  -0.139  1.0823 -3.1274  0.0966
  224MOL0     H29525   0.864   3.799  -0.301  0.3208 -2.5817  1.7230
  224MOL0     H29526   0.986   4.059  -0.179 -0.7190 -0.3599  0.8673
  224MOL0     H29527   0.992   4.034  -0.357  0.7748  2.1232 -0.0108
  224MOL0     H29528   0.737   4.064  -0.360 -1.1890  2.2006  0.3070
  224MOL0     H29529   0.811   4.200  -0.271 -0.2657  0.1432  1.4493
  224MOL0     H29530   0.549   4.208  -0.339  0.3146  0.9878 -0.0699
  224MOL0     H29531   0.352   4.334  -0.269  3.3165 -0.7896 -1.5680
  224MOL0     H29532   0.030   4.501   0.065 -2.1945  1.6673  2.1634
  224MOL0     H29533  -0.215   4.534   0.089  1.2338 -0.0652  2.2143
  224MOL0     H29534  -0.372   4.278   0.254  0.7094  0.8113 -1.2784
  224MOL0     H29535  -0.501   4.209   0.170 -2.2955  1.2987 -0.5325
  224MOL0     H29536  -0.519   4.502   0.255  0.6280 -0.4612  1.6448
  224MOL0     H29537  -0.533   4.391   0.373 -0.4034 -0.1800 -0.1420
  224MOL0     H29538  -0.743   4.288   0.244  0.4778 -0.5634 -2.1907
  224MOL0     H29539  -0.717   4.406   0.123 -1.6180  1.4492  0.3926
  224MOL0     H29540  -0.730   4.498   0.415  0.9403 -0.9242 -0.6454
  224MOL0     H29541  -0.763   4.595   0.267 -2.3954  0.2187 -0.8676
  224MOL0     H29542  -0.966   4.532   0.403  1.7160  0.2911  1.6696
  224MOL0     H29543  -0.927   4.359   0.357 -1.0221 -0.5492 -4.9043
  224MOL0     H29544  -0.954   4.421   0.105 -3.3905 -2.4406  0.1491
  224MOL0     H29545  -0.992   4.586   0.154  1.5412 -0.0242 -0.3600
  224MOL0     H29546  -1.149   4.345   0.248  1.9608  1.0038  1.0700
  224MOL0     H29547  -1.198   4.518   0.271  0.2293  2.1741 -0.7300
  224MOL0     H29548  -1.209   4.360   0.008 -1.4018 -1.4588  1.6873
  224MOL0     H29549  -1.215   4.538   0.023 -0.0871 -0.0200 -0.7331
  224MOL0     H29550  -0.276   4.113   0.078 -1.4490  1.1737  1.1271
  224MOL0     H29551  -0.028   4.080   0.068  4.5698  2.1269 -0.2050
  224MOL0     H29552   0.410   4.185   0.138 -1.9322 -0.1672 -1.2796
  224MOL0     H29553   0.588   4.057   0.067  1.4645 -1.6639 -0.6057
  224MOL0     H29554   1.895   3.744  -0.038  2.0642 -0.9169 -0.7469
  224MOL0     H29555   2.115   3.839   0.049  1.1717 -0.8712  0.7395
  224MOL0     H29556   2.443   3.896   0.164 -0.6385  0.3577  0.3736
  224MOL0     H29557   2.672   3.978   0.167 -1.8103  1.5049  0.9245
  224MOL0     H29558   2.901   3.881   0.151  1.4361 -0.3859 -0.5152
  224MOL0     H29559   3.004   3.802   0.263 -1.5874 -0.3897  2.7172
  224MOL0     H29560   2.980   4.111   0.236 -0.6030 -0.1315 -1.7162
  224MOL0     H29561   3.087   4.019   0.348  2.2365 -0.2773 -0.1490
  224MOL0     H29562   3.155   4.103   0.099 -1.3997  0.2107 -0.3835
  224MOL0     H29563   3.057   3.979   0.039  0.8722 -0.4952  0.0435
  224MOL0     H29564   3.207   3.803   0.080  1.7228 -0.7004 -0.0984
  224MOL0     H29565   3.310   3.953   0.059 -0.6652  0.2414 -0.3536
  224MOL0     H29566   3.339   3.810   0.463  1.9105 -2.7411 -2.3397
  224MOL0     H29567   2.725   3.816   0.551 -2.0890  2.0723  1.7133
  224MOL0     H29568   2.480   3.744   0.559 -1.8148  0.1868 -1.7498
  225MOL0     O29569   0.315   7.693   0.188  0.5526  0.8578  0.0124
  225MOL0     C29570   0.276   7.714   0.308 -0.3519 -0.0333  0.0783
  225MOL0     O29571   0.154   7.705   0.355 -0.1998 -0.0335 -0.0990
  225MOL0     C29572   0.062   7.658   0.266  0.4691 -1.0452  0.3193
  225MOL0     C29573   0.065   7.541   0.206  0.1902  0.7378  0.3759
  225MOL0     C29574  -0.049   7.495   0.137 -0.3222 -0.3170  0.5131
  225MOL0     C29575  -0.162   7.573   0.124  0.1768  0.1551  0.0764
  225MOL0     O29576  -0.273   7.548   0.057 -0.0452  0.9026  0.1748
  225MOL0     C29577  -0.269   7.437  -0.035  0.5206 -0.2928  0.2131
  225MOL0     C29578  -0.379   7.425  -0.135 -0.1056 -0.0032  0.0713
  225MOL0     C29579  -0.503   7.389  -0.055  0.5829  0.8088 -0.4508
  225MOL0     C29580  -0.615   7.351  -0.149 -0.4433  0.4559 -0.4001
  225MOL0     C29581  -0.745   7.353  -0.074  0.1236  0.4234  0.5606
  225MOL0     C29582  -0.856   7.306  -0.166  0.4434  0.2127 -0.0322
  225MOL0     C29583  -0.996   7.322  -0.097  0.2988 -0.1491 -0.4949
  225MOL0     C29584  -1.101   7.381  -0.191  0.6418  0.3909  0.6073
  225MOL0     N29585  -1.236   7.376  -0.127 -0.6734  0.5003 -0.3844
  225MOL0     C29586  -1.279   7.446  -0.018  0.3489 -0.4754  0.2973
  225MOL0     C29587  -1.393   7.388   0.013 -0.6240  0.2715  0.0397
  225MOL0     C29588  -1.478   7.432   0.132  0.1195  0.9081  0.3610
  225MOL0     C29589  -1.599   7.510   0.093 -0.2444 -0.0438 -0.3724
  225MOL0     C29590  -1.680   7.533   0.223  0.8983  0.2557  0.3733
  225MOL0     C29591  -1.815   7.605   0.200 -0.2047 -0.0626  0.2332
  225MOL0     O29592  -1.871   7.643   0.324  0.3865  0.3337  0.7013
  225MOL0     C29593  -1.996   7.698   0.323  0.0864  0.0088  0.8241
  225MOL0     C29594  -2.061   7.743   0.208  0.7528 -1.2979 -0.0764
  225MOL0     C29595  -2.201   7.774   0.203 -0.4809  0.8796 -0.5109
  225MOL0     C29596  -2.275   7.765   0.324  0.1060 -0.9830 -0.2912
  225MOL0     C29597  -2.420   7.783   0.323  0.0252 -0.1524  1.1221
  225MOL0     O29598  -2.471   7.826   0.438  0.1907  0.1662  0.0921
  225MOL0     C29599  -2.608   7.840   0.445 -0.5708 -0.6866  0.3186
  225MOL0     C29600  -2.683   7.742   0.513  0.0562 -0.0534 -0.3256
  225MOL0     C29601  -2.823   7.749   0.523 -0.3655  0.7705  0.0552
  225MOL0     C29602  -2.885   7.861   0.464 -0.9272  0.7176  0.1600
  225MOL0     O29603  -3.016   7.875   0.469  1.2570  0.8973  0.6862
  225MOL0     C29604  -3.074   8.000   0.510 -0.0417  0.3036 -0.2274
  225MOL0     C29605  -3.189   7.970   0.603  0.4691 -0.6313 -0.3390
  225MOL0     C29606  -3.260   8.098   0.649 -0.6053  0.4365  0.2436
  225MOL0     C29607  -3.389   8.066   0.731  0.3631  0.7077 -0.5751
  225MOL0     C29608  -3.475   8.186   0.732  0.5886  0.1928 -0.3586
  225MOL0     C29609  -3.595   8.189   0.832 -0.4014 -0.4015  0.4635
  225MOL0     C29610  -3.653   8.325   0.830  0.2100 -0.2534 -0.0289
  225MOL0     C29611  -3.798   8.329   0.870 -0.2056 -0.5973  0.1745
  225MOL0    Cl29612  -3.917   8.285   0.730 -0.5628 -0.0245 -0.0939
  225MOL0     C29613  -2.808   7.966   0.409 -0.9968  0.1864 -0.1386
  225MOL0     C29614  -2.673   7.956   0.403 -0.7521 -0.0311  0.0152
  225MOL0     O29615  -2.488   7.751   0.223 -0.3331 -0.7322 -0.2551
  225MOL0     C29616  -2.207   7.734   0.445 -0.7415  0.0304  0.4007
  225MOL0     C29617  -2.070   7.693   0.448 -0.2218 -0.1600 -0.1952
  225MOL0     N29618  -1.421   7.286  -0.083  1.0548 -0.6614 -0.1099
  225MOL0     N29619  -1.318   7.274  -0.158  0.5425 -0.1130 -0.3251
  225MOL0     C29620  -0.167   7.691   0.198  0.2286  0.2042 -0.8682
  225MOL0     C29621  -0.053   7.734   0.271  0.1489  0.1900  0.7824
  225MOL0     C29622   0.382   7.762   0.407  0.4174 -0.8841 -0.0650
  225MOL0     C29623   0.357   7.768   0.552  0.3204 -0.8974  0.6264
  225MOL0     C29624   0.454   7.803   0.645  0.5000 -0.1063  0.2025
  225MOL0     C29625   0.576   7.849   0.597 -0.0560  0.2876  0.5547
  225MOL0     O29626   0.681   7.895   0.669  0.2005 -0.5312 -0.3392
  225MOL0     C29627   0.647   7.938   0.810 -0.7978  0.5863 -0.2699
  225MOL0     C29628   0.657   8.088   0.821 -1.1492  0.2523  0.1394
  225MOL0     C29629   0.799   8.128   0.858 -0.2194 -0.5414 -0.8109
  225MOL0     C29630   0.830   8.276   0.819  1.1898 -0.0024  0.7172
  225MOL0     C29631   0.748   8.370   0.900  0.2413  0.7536 -0.2237
  225MOL0     C29632   0.682   8.439   0.974  0.1288 -0.4782  1.0463
  225MOL0     C29633   0.596   7.851   0.462 -0.5296 -0.3012  0.1237
  225MOL0     C29634   0.509   7.812   0.366 -0.5456  0.6996 -0.1559
  225MOL0     H29635   0.139   7.462   0.221 -0.9846 -0.8933 -1.7342
  225MOL0     H29636  -0.039   7.397   0.090 -0.9035 -0.1003 -0.0871
  225MOL0     H29637  -0.279   7.341   0.017 -0.2688  0.6039  1.7936
  225MOL0     H29638  -0.180   7.447  -0.097 -0.2528  0.2291 -0.8501
  225MOL0     H29639  -0.361   7.348  -0.210 -0.7998 -1.2890  1.1713
  225MOL0     H29640  -0.377   7.522  -0.185  0.0033  0.4073  0.8513
  225MOL0     H29641  -0.529   7.477   0.004  0.0277  0.6020 -0.3763
  225MOL0     H29642  -0.489   7.316   0.025 -1.6660  1.3734  0.5366
  225MOL0     H29643  -0.627   7.427  -0.226 -2.2045 -0.0275 -0.6357
  225MOL0     H29644  -0.597   7.254  -0.198 -2.6229  0.2853 -0.9311
  225MOL0     H29645  -0.765   7.453  -0.034 -1.4723 -0.3060  1.7094
  225MOL0     H29646  -0.736   7.278   0.006  0.9263 -0.1472 -0.0532
  225MOL0     H29647  -0.845   7.202  -0.198 -1.1464 -1.0184  2.9759
  225MOL0     H29648  -0.864   7.373  -0.252 -2.1503  1.5631  1.1066
  225MOL0     H29649  -1.028   7.230  -0.049 -0.1851 -0.5449 -1.5495
  225MOL0     H29650  -0.989   7.394  -0.015 -0.9951  0.7178 -1.1048
  225MOL0     H29651  -1.111   7.329  -0.287  1.2507  0.3483  0.5601
  225MOL0     H29652  -1.067   7.483  -0.212 -1.9060  1.5131  1.5481
  225MOL0     H29653  -1.229   7.526   0.035 -4.3534  1.1916  2.8032
  225MOL0     H29654  -1.423   7.498   0.199  3.6775 -2.7896  1.4846
  225MOL0     H29655  -1.504   7.341   0.187 -0.0510  0.9319  0.3214
  225MOL0     H29656  -1.660   7.445   0.029  0.6968 -0.7323 -0.5935
  225MOL0     H29657  -1.579   7.606   0.045 -0.8732  0.6076  0.6353
  225MOL0     H29658  -1.697   7.444   0.283  2.8199  0.0936  0.7447
  225MOL0     H29659  -1.616   7.600   0.282  2.5425  0.9117 -1.9869
  225MOL0     H29660  -1.883   7.538   0.147  1.6166  0.3322 -2.8184
  225MOL0     H29661  -1.799   7.689   0.132 -0.3062 -0.9745 -0.9555
  225MOL0     H29662  -2.011   7.742   0.111  1.3730  0.9824  0.1790
  225MOL0     H29663  -2.235   7.805   0.104  0.7078 -3.2828 -2.4684
  225MOL0     H29664  -2.626   7.663   0.561 -1.1117  0.2116  1.5891
  225MOL0     H29665  -2.897   7.680   0.561 -0.2305  0.2236 -0.6552
  225MOL0     H29666  -3.107   8.050   0.418  1.6065 -1.6906 -2.0245
  225MOL0     H29667  -3.017   8.078   0.562 -2.1483  3.5615 -2.4071
  225MOL0     H29668  -3.140   7.918   0.686 -0.9971  0.6386  1.3966
  225MOL0     H29669  -3.265   7.907   0.554  1.0897 -0.5440 -1.4507
  225MOL0     H29670  -3.286   8.172   0.572 -1.1822  1.1914  1.1372
  225MOL0     H29671  -3.195   8.144   0.724 -1.6374  0.7934  0.9498
  225MOL0     H29672  -3.439   7.977   0.693  0.7565  0.8667 -1.4840
  225MOL0     H29673  -3.362   8.053   0.836 -1.6686  4.6576  0.6682
  225MOL0     H29674  -3.515   8.207   0.633  2.3947 -3.2379 -1.9630
  225MOL0     H29675  -3.411   8.270   0.761 -2.2764  2.9100 -1.2122
  225MOL0     H29676  -3.563   8.155   0.931 -0.4832  0.3616  0.7556
  225MOL0     H29677  -3.674   8.129   0.785 -1.6132  2.1992 -1.0921
  225MOL0     H29678  -3.586   8.388   0.889  1.3136  0.7075 -2.1959
  225MOL0     H29679  -3.661   8.368   0.730  0.2440 -2.2842 -0.9546
  225MOL0     H29680  -3.822   8.429   0.907 -0.0884 -1.3317  2.3928
  225MOL0     H29681  -3.823   8.259   0.951 -0.0339 -0.5761  0.2460
  225MOL0     H29682  -2.849   8.057   0.366 -1.3351 -0.3521 -0.9997
  225MOL0     H29683  -2.619   8.032   0.348 -1.8524 -0.1195 -1.2303
  225MOL0     H29684  -2.258   7.714   0.538  0.2249 -0.0846  0.9145
  225MOL0     H29685  -2.020   7.652   0.536  0.1083  2.0708  0.7503
  225MOL0     H29686  -0.257   7.752   0.197  0.2234  0.2072 -0.5448
  225MOL0     H29687  -0.047   7.826   0.328 -1.0855 -0.8109  2.6192
  225MOL0     H29688   0.263   7.729   0.591 -1.8999  4.4767  1.5978
  225MOL0     H29689   0.420   7.797   0.748 -4.5838  1.9115 -1.0724
  225MOL0     H29690   0.728   7.898   0.871 -2.1025 -2.5080 -0.3966
  225MOL0     H29691   0.550   7.907   0.850 -0.7378 -2.9564 -2.4452
  225MOL0     H29692   0.621   8.128   0.725 -1.8189 -0.2412  0.1739
  225MOL0     H29693   0.582   8.116   0.895 -0.1800 -2.2023  2.1958
  225MOL0     H29694   0.866   8.065   0.799 -0.0732 -0.3366 -0.8641
  225MOL0     H29695   0.823   8.112   0.963 -1.4530 -2.0643 -0.7219
  225MOL0     H29696   0.937   8.298   0.827  1.4372  1.2269 -3.5321
  225MOL0     H29697   0.790   8.295   0.719 -1.4089 -0.7085  1.5240
  225MOL0     H29698   0.625   8.503   1.038 -3.4153 -1.3754 -0.9449
  225MOL0     H29699   0.688   7.903   0.436 -1.1415  0.3904 -0.7154
  225MOL0     H29700   0.541   7.820   0.262  0.0893 -0.0894 -0.0324
  226MOL0     O29701  10.758   0.757   5.701  0.7406 -0.6228 -0.3311
  226MOL0     C29702  10.809   0.716   5.595  0.2657 -0.3365  0.6281
  226MOL0     O29703  10.752   0.649   5.493 -0.5247  0.3307 -0.8712
  226MOL0     C29704  10.622   0.634   5.508  0.2447  0.2241  0.2065
  226MOL0     C29705  10.564   0.507   5.491  0.2215 -0.3899 -0.4916
  226MOL0     C29706  10.428   0.488   5.498  0.2229  0.0167 -1.1640
  226MOL0     C29707  10.339   0.591   5.531  0.0882 -0.0193  0.7390
  226MOL0     O29708  10.208   0.555   5.556 -0.7804 -0.0507  0.1134
  226MOL0     C29709  10.139   0.639   5.648 -0.0436 -0.0057 -0.6167
  226MOL0     C29710  10.001   0.577   5.672  0.1939  0.1974  0.7776
  226MOL0     C29711   9.894   0.672   5.725 -0.3574  0.3943  0.5127
  226MOL0     C29712   9.753   0.606   5.736 -0.6836  0.1867 -0.5138
  226MOL0     C29713   9.636   0.712   5.745 -0.3911 -1.0756 -0.8494
  226MOL0     C29714   9.502   0.639   5.762  0.9857 -0.0928  0.1781
  226MOL0     C29715   9.408   0.741   5.824  0.0872 -0.7694  1.0696
  226MOL0     C29716   9.265   0.680   5.816 -0.2955 -0.2390 -0.3560
  226MOL0     N29717   9.167   0.755   5.900  0.0358  0.4793 -0.6860
  226MOL0     C29718   9.082   0.857   5.861 -0.5360  1.2081 -0.1232
  226MOL0     C29719   9.020   0.875   5.977  0.3995 -0.5460  0.1367
  226MOL0     C29720   8.915   0.982   5.992 -0.3511 -0.3544  0.0614
  226MOL0     C29721   8.831   0.961   6.115 -1.2788  0.1862  0.1738
  226MOL0     C29722   8.727   1.075   6.122  0.5774  0.9802  0.8671
  226MOL0     C29723   8.589   1.030   6.068  0.6887 -0.7622  0.3435
  226MOL0     O29724   8.527   0.951   6.160  0.0257 -0.2023 -0.2778
  226MOL0     C29725   8.393   0.927   6.149 -0.0187 -0.2917  0.4676
  226MOL0     C29726   8.319   0.925   6.263 -0.0436 -0.3015  0.1390
  226MOL0     C29727   8.181   0.894   6.249  0.1722 -0.7688 -0.0110
  226MOL0     C29728   8.121   0.862   6.125 -0.0492  0.0442  0.9107
  226MOL0     C29729   7.981   0.812   6.115  0.1324  0.1352 -0.1367
  226MOL0     O29730   7.909   0.822   6.228 -0.1057  0.8769  0.0084
  226MOL0     C29731   7.772   0.807   6.235 -0.0679 -0.9136 -0.1637
  226MOL0     C29732   7.700   0.705   6.175 -0.4677  0.1329  0.3829
  226MOL0     C29733   7.565   0.698   6.210 -0.0374 -0.0682 -0.3628
  226MOL0     C29734   7.504   0.794   6.287  0.6251  0.8211 -0.5863
  226MOL0     O29735   7.369   0.794   6.317 -0.3163  0.0762 -0.5579
  226MOL0     C29736   7.291   0.682   6.285 -0.1750  1.1736 -0.1940
  226MOL0     C29737   7.152   0.689   6.348 -0.4448 -0.0878 -0.2807
  226MOL0     C29738   7.163   0.649   6.502  0.3375 -0.6697  0.0108
  226MOL0     C29739   7.016   0.636   6.548  0.4840  0.0425 -0.3132
  226MOL0     C29740   7.011   0.611   6.696 -0.3107  0.3027  0.4674
  226MOL0     C29741   6.873   0.557   6.744 -0.1890  0.8715 -0.2514
  226MOL0     C29742   6.780   0.671   6.775 -0.2522  0.2534 -0.1352
  226MOL0     C29743   6.636   0.632   6.807  0.0325 -0.7267 -0.2261
  226MOL0    Cl29744   6.531   0.773   6.821  0.2479 -0.3357  0.5446
  226MOL0     C29745   7.580   0.896   6.349 -0.4558 -1.1759 -0.0286
  226MOL0     C29746   7.714   0.896   6.321 -0.4409 -0.0846 -0.7069
  226MOL0     O29747   7.949   0.762   6.012 -0.3115  0.8078 -0.3395
  226MOL0     C29748   8.203   0.879   6.005  0.0326  0.1974 -0.2588
  226MOL0     C29749   8.340   0.897   6.024  0.0792 -0.1042  0.0392
  226MOL0     N29750   9.067   0.803   6.080 -0.2563  0.2931  0.1297
  226MOL0     N29751   9.174   0.743   6.036  0.4018  0.0351  0.7671
  226MOL0     C29752  10.392   0.716   5.552  0.1763  0.6791 -0.2132
  226MOL0     C29753  10.529   0.737   5.540 -0.2728  0.2724  0.3246
  226MOL0     C29754  10.954   0.755   5.577  0.6504  0.1707 -0.2988
  226MOL0     C29755  11.040   0.690   5.484 -0.5128  0.4765  0.4571
  226MOL0     C29756  11.180   0.724   5.480  0.2375 -0.3980  0.2748
  226MOL0     C29757  11.224   0.831   5.557  0.3683  0.8393 -0.5262
  226MOL0     O29758  11.354   0.869   5.568 -0.2255  0.4735 -0.4487
  226MOL0     C29759  11.455   0.764   5.581  0.4233 -0.0820  0.9806
  226MOL0     C29760  11.507   0.757   5.723 -0.2058 -0.0397 -0.6054
  226MOL0     C29761  11.569   0.892   5.765 -0.2617 -0.0127 -0.0367
  226MOL0     C29762  11.597   0.908   5.917 -0.1609 -0.4872 -0.5506
  226MOL0     C29763  11.727   0.842   5.961 -1.0652  0.1226 -0.3744
  226MOL0     C29764  11.812   0.765   5.991 -0.4140  0.5479 -0.5123
  226MOL0     C29765  11.139   0.891   5.650  0.1220 -0.0821 -0.8394
  226MOL0     C29766  11.005   0.859   5.657  0.0110 -0.0627  0.3247
  226MOL0     H29767  10.627   0.420   5.476  0.7448 -0.0387 -0.3193
  226MOL0     H29768  10.395   0.385   5.486 -0.9521 -0.1557  2.3164
  226MOL0     H29769  10.123   0.740   5.610  0.0611  0.8437  1.4555
  226MOL0     H29770  10.179   0.654   5.749 -0.3575 -2.8956  0.0238
  226MOL0     H29771  10.005   0.490   5.739  1.8419 -0.7547 -0.4814
  226MOL0     H29772   9.965   0.541   5.575 -1.2688  0.3750  1.2233
  226MOL0     H29773   9.880   0.754   5.653 -0.5415 -1.4453 -1.6388
  226MOL0     H29774   9.928   0.709   5.822  1.2751 -1.4008  0.6699
  226MOL0     H29775   9.724   0.556   5.643  0.9137  1.1944 -1.6082
  226MOL0     H29776   9.750   0.542   5.824  0.4887  0.9348  0.0932
  226MOL0     H29777   9.628   0.774   5.656  0.6055 -0.8344 -0.7843
  226MOL0     H29778   9.664   0.776   5.829  4.9466 -1.6526 -1.8448
  226MOL0     H29779   9.516   0.561   5.838 -0.8921  0.7865  1.5204
  226MOL0     H29780   9.461   0.582   5.679 -1.7004 -0.2542  1.4972
  226MOL0     H29781   9.436   0.762   5.928 -1.5224 -2.6107  1.9303
  226MOL0     H29782   9.417   0.838   5.773 -0.6122 -1.1913  0.1384
  226MOL0     H29783   9.262   0.579   5.857 -1.5485 -0.3246 -0.6219
  226MOL0     H29784   9.214   0.682   5.719  1.8656  1.7486 -1.5374
  226MOL0     H29785   9.083   0.913   5.767 -0.1270 -1.4695 -1.8334
  226MOL0     H29786   8.853   0.989   5.903 -1.3675  0.9592  0.8187
  226MOL0     H29787   8.971   1.076   5.999  0.2880 -0.6961 -0.4196
  226MOL0     H29788   8.894   0.954   6.204 -0.2571  0.1663 -0.5380
  226MOL0     H29789   8.784   0.862   6.109 -1.8220  0.5550 -3.2364
  226MOL0     H29790   8.720   1.108   6.226  0.7246  0.6150  0.9945
  226MOL0     H29791   8.762   1.160   6.063  0.7148  1.3207  1.4332
  226MOL0     H29792   8.595   0.989   5.967  0.1356  1.2169 -0.5220
  226MOL0     H29793   8.530   1.120   6.049 -1.6916 -2.2651  0.1957
  226MOL0     H29794   8.373   0.938   6.356 -0.2263 -0.7597  0.3130
  226MOL0     H29795   8.118   0.883   6.337  0.2022 -0.7035  0.0193
  226MOL0     H29796   7.739   0.622   6.118  1.4720  0.2393  1.4733
  226MOL0     H29797   7.508   0.620   6.160 -1.3758  0.6321  0.0164
  226MOL0     H29798   7.339   0.587   6.311 -0.1376  0.8222 -1.4639
  226MOL0     H29799   7.285   0.679   6.175  1.6981 -0.2955 -0.3184
  226MOL0     H29800   7.082   0.617   6.303  1.5745 -2.5210  0.2662
  226MOL0     H29801   7.108   0.787   6.327 -4.1787 -1.5281  0.0945
  226MOL0     H29802   7.211   0.732   6.555  0.2835 -0.8254  0.3079
  226MOL0     H29803   7.207   0.555   6.537 -0.5968 -0.1190  2.9110
  226MOL0     H29804   6.948   0.716   6.516  2.2424  0.6234 -2.8671
  226MOL0     H29805   6.972   0.550   6.498 -2.5316  1.4152 -0.2641
  226MOL0     H29806   7.039   0.706   6.743 -2.3373  2.1297 -1.8003
  226MOL0     H29807   7.085   0.539   6.732 -0.7410 -2.5464 -3.6664
  226MOL0     H29808   6.896   0.499   6.834  1.9228 -0.3086 -1.4728
  226MOL0     H29809   6.841   0.477   6.677  1.6581  1.6248 -2.1480
  226MOL0     H29810   6.823   0.732   6.854  2.2248 -2.6837  0.9752
  226MOL0     H29811   6.761   0.723   6.681  0.2200 -2.6675 -1.9777
  226MOL0     H29812   6.643   0.565   6.893 -0.0236 -2.4950 -1.5284
  226MOL0     H29813   6.591   0.569   6.729  0.3531 -0.0520 -0.9640
  226MOL0     H29814   7.540   0.964   6.424 -0.1279 -0.1304 -0.7727
  226MOL0     H29815   7.772   0.962   6.385 -0.6802  0.6616 -1.2455
  226MOL0     H29816   8.147   0.849   5.916 -0.8652 -4.0268  1.5091
  226MOL0     H29817   8.401   0.882   5.935  1.1528 -0.9678  0.8977
  226MOL0     H29818  10.332   0.801   5.581 -3.0762 -0.8930 -1.8200
  226MOL0     H29819  10.569   0.835   5.562 -0.3926  0.0451  1.6206
  226MOL0     H29820  10.994   0.605   5.435 -1.6372 -0.0981  2.4338
  226MOL0     H29821  11.249   0.671   5.416  1.3818 -1.1392  2.0369
  226MOL0     H29822  11.539   0.782   5.512 -0.2005 -0.7540  0.0326
  226MOL0     H29823  11.416   0.668   5.548 -1.1294  0.2761  1.6947
  226MOL0     H29824  11.426   0.733   5.792 -0.4429  1.9657 -0.1090
  226MOL0     H29825  11.583   0.678   5.717  1.1788  1.2590 -1.0542
  226MOL0     H29826  11.511   0.982   5.742 -0.4302 -0.6952 -2.5807
  226MOL0     H29827  11.667   0.892   5.717 -0.8211 -3.0701 -1.4445
  226MOL0     H29828  11.609   1.013   5.945  1.9354 -0.3661 -1.7163
  226MOL0     H29829  11.516   0.862   5.974  1.3479 -1.2173  1.0737
  226MOL0     H29830  11.897   0.710   6.028 -0.6423  1.8630  2.2599
  226MOL0     H29831  11.180   0.961   5.722 -0.5364 -1.2451  0.7062
  226MOL0     H29832  10.938   0.917   5.721  0.4353  0.7759  0.0254
  227MOL0     O29833   8.526   3.562   5.986 -0.5557 -0.2218 -0.0944
  227MOL0     C29834   8.496   3.672   5.931 -1.0394  1.1140 -0.2735
  227MOL0     O29835   8.368   3.702   5.888 -0.2553  0.0777  0.7400
  227MOL0     C29836   8.269   3.612   5.926 -0.3301 -0.3211 -0.7943
  227MOL0     C29837   8.239   3.512   5.833 -0.5805 -0.5042 -0.6917
  227MOL0     C29838   8.139   3.419   5.863  0.3015  0.4577  0.3816
  227MOL0     C29839   8.057   3.427   5.977 -0.1696  1.0763  0.1175
  227MOL0     O29840   7.943   3.348   5.978  0.0220  0.8527 -0.4791
  227MOL0     C29841   7.852   3.354   6.098 -0.3387 -0.3177  0.0960
  227MOL0     C29842   7.811   3.213   6.109 -0.0704  0.0657 -0.3278
  227MOL0     C29843   7.720   3.164   6.001 -0.0564  0.3548  0.6278
  227MOL0     C29844   7.600   3.264   5.959 -0.0845  0.5519  0.2473
  227MOL0     C29845   7.497   3.303   6.072 -0.5987  1.0090  0.0554
  227MOL0     C29846   7.444   3.170   6.137 -0.4087  0.0961 -0.1826
  227MOL0     C29847   7.368   3.065   6.051 -1.1987 -0.3352 -0.2098
  227MOL0     C29848   7.280   3.147   5.954 -0.3660 -0.0228  0.8915
  227MOL0     N29849   7.228   3.062   5.843 -0.2171  0.1894  0.2567
  227MOL0     C29850   7.144   2.957   5.861  0.2828  0.4006 -0.0320
  227MOL0     C29851   7.156   2.881   5.740  0.1260 -0.3933 -0.4363
  227MOL0     C29852   7.072   2.762   5.702 -0.2241  0.4363 -0.4236
  227MOL0     C29853   6.925   2.803   5.722  0.1987 -0.8930  0.7758
  227MOL0     C29854   6.849   2.689   5.679  0.3643  0.4305  0.0022
  227MOL0     C29855   6.781   2.703   5.544 -0.2478  0.1095  0.0681
  227MOL0     O29856   6.719   2.582   5.521 -0.1270 -0.6050  0.7834
  227MOL0     C29857   6.630   2.565   5.414 -0.8445  1.1717 -0.2824
  227MOL0     C29858   6.629   2.645   5.301 -0.3748 -0.1564 -0.1494
  227MOL0     C29859   6.538   2.626   5.202  0.5013 -0.1425 -0.6920
  227MOL0     C29860   6.436   2.525   5.209  0.9813  0.8357  0.0570
  227MOL0     C29861   6.325   2.504   5.103 -0.0646 -0.7272  0.3691
  227MOL0     O29862   6.215   2.428   5.146  0.3214 -0.3148  0.4600
  227MOL0     C29863   6.123   2.370   5.054  0.5305 -0.7571 -0.0173
  227MOL0     C29864   6.075   2.434   4.941 -0.1520 -0.6084  0.2859
  227MOL0     C29865   5.973   2.381   4.864 -0.1533 -0.7812  0.5601
  227MOL0     C29866   5.926   2.256   4.895 -0.4520  0.1214 -0.9874
  227MOL0     O29867   5.825   2.204   4.812  0.2952 -0.6802  0.6615
  227MOL0     C29868   5.794   2.065   4.819  0.1231  0.3397 -0.8181
  227MOL0     C29869   5.686   2.020   4.726  1.1327 -0.0331  0.3217
  227MOL0     C29870   5.560   2.118   4.720  0.0507 -0.6049 -0.1601
  227MOL0     C29871   5.467   2.101   4.595 -0.0548 -0.2109 -0.2281
  227MOL0     C29872   5.367   2.211   4.594 -0.7538  0.6494  0.1660
  227MOL0     C29873   5.255   2.195   4.699 -0.1682 -0.3640  0.0612
  227MOL0     C29874   5.134   2.294   4.691 -0.1310  0.3031 -0.0974
  227MOL0     C29875   5.033   2.266   4.579 -0.6628  0.2638  0.2265
  227MOL0    Cl29876   4.939   2.126   4.646  0.2740 -0.1388 -0.2842
  227MOL0     C29877   5.966   2.190   5.007 -0.3542  0.2492  0.9243
  227MOL0     C29878   6.067   2.240   5.090 -0.1143 -0.6791 -0.4214
  227MOL0     O29879   6.344   2.550   4.993  0.2469  0.2814 -0.0396
  227MOL0     C29880   6.439   2.439   5.320  0.1933  0.3631  0.2777
  227MOL0     C29881   6.535   2.459   5.419 -0.2438 -0.4204 -0.3724
  227MOL0     N29882   7.263   2.923   5.674 -0.4341 -0.2794 -0.5374
  227MOL0     N29883   7.304   3.030   5.739 -0.1375  0.0299  0.5375
  227MOL0     C29884   8.097   3.533   6.068  0.4426  0.0986 -0.2425
  227MOL0     C29885   8.206   3.615   6.051 -0.2095 -0.1356 -1.0225
  227MOL0     C29886   8.606   3.770   5.917 -0.5962  0.3944  0.4162
  227MOL0     C29887   8.741   3.731   5.916  0.2157  0.2604 -1.0306
  227MOL0     C29888   8.842   3.823   5.897  0.2047  0.6881  0.4646
  227MOL0     C29889   8.814   3.959   5.878  0.3502  0.6799 -0.1540
  227MOL0     O29890   8.905   4.057   5.856 -1.4289 -0.3071  0.6998
  227MOL0     C29891   9.048   4.030   5.862 -0.9165 -0.1635 -0.2624
  227MOL0     C29892   9.137   4.152   5.827 -0.1747  0.2156 -0.3943
  227MOL0     C29893   9.093   4.277   5.895  0.7465  0.4558 -0.5979
  227MOL0     C29894   9.161   4.392   5.831  0.0285 -0.0099 -0.1686
  227MOL0     C29895   9.094   4.524   5.859 -1.1612  0.5402 -0.2363
  227MOL0     C29896   9.039   4.630   5.858  0.1286  0.1058 -0.6417
  227MOL0     C29897   8.682   3.997   5.877  0.5636  0.2451  0.2172
  227MOL0     C29898   8.578   3.910   5.903  0.5366  0.4397 -0.5522
  227MOL0     H29899   8.303   3.518   5.746 -0.9796 -0.9055 -1.0229
  227MOL0     H29900   8.131   3.346   5.783  0.8720  1.0863 -0.2562
  227MOL0     H29901   7.768   3.422   6.083  0.9693  1.4962  0.6852
  227MOL0     H29902   7.910   3.384   6.186  0.9268 -2.0404 -0.0786
  227MOL0     H29903   7.749   3.209   6.199 -0.9373  2.3431 -0.7674
  227MOL0     H29904   7.889   3.136   6.113 -1.5505 -1.4984  0.0798
  227MOL0     H29905   7.685   3.066   6.034 -0.1996  0.0276 -0.4784
  227MOL0     H29906   7.775   3.145   5.909 -2.5098  1.3245 -1.1468
  227MOL0     H29907   7.631   3.362   5.923  2.9479  0.1733  1.5023
  227MOL0     H29908   7.548   3.216   5.875 -2.4171  1.4046  1.1178
  227MOL0     H29909   7.422   3.368   6.027  1.5978  3.4988 -0.2319
  227MOL0     H29910   7.551   3.363   6.146 -0.1357  1.3528 -0.5536
  227MOL0     H29911   7.377   3.201   6.217  0.9416 -0.7412  1.3264
  227MOL0     H29912   7.533   3.135   6.191 -0.4161  0.7946  0.3015
  227MOL0     H29913   7.433   2.998   5.994  2.2221  0.4628  2.4358
  227MOL0     H29914   7.318   3.003   6.126 -2.0788  2.2856  1.5030
  227MOL0     H29915   7.326   3.232   5.902 -2.6391 -0.1368 -1.5231
  227MOL0     H29916   7.205   3.185   6.024 -0.1852 -2.6036  2.6184
  227MOL0     H29917   7.070   2.936   5.938  0.0911 -3.8254 -1.1242
  227MOL0     H29918   7.101   2.682   5.770 -1.3958  1.2721  1.1213
  227MOL0     H29919   7.096   2.727   5.601  1.5410 -0.1240  0.1605
  227MOL0     H29920   6.904   2.889   5.658 -0.2103 -1.1581  0.5466
  227MOL0     H29921   6.912   2.824   5.828  1.1893  0.2811  0.6797
  227MOL0     H29922   6.913   2.601   5.684 -0.9853 -0.5413  0.6406
  227MOL0     H29923   6.767   2.678   5.751 -1.2357  1.0353 -1.6360
  227MOL0     H29924   6.853   2.730   5.466 -1.3905  0.1772 -0.9888
  227MOL0     H29925   6.710   2.785   5.555  0.3111  0.4768  0.9995
  227MOL0     H29926   6.699   2.727   5.290 -1.6928  1.0051 -0.0965
  227MOL0     H29927   6.561   2.680   5.111  2.7039 -1.0320 -0.7225
  227MOL0     H29928   6.117   2.531   4.917  2.7599 -1.8854 -0.1949
  227MOL0     H29929   5.925   2.426   4.777  1.2995  0.9299  0.5893
  227MOL0     H29930   5.757   2.033   4.916  0.2689  0.2489 -0.7918
  227MOL0     H29931   5.880   2.003   4.793 -0.8335 -0.9296 -1.0479
  227MOL0     H29932   5.653   1.920   4.758  3.0422 -0.1766  2.0892
  227MOL0     H29933   5.727   2.007   4.625  0.1942 -1.9495  0.1423
  227MOL0     H29934   5.582   2.225   4.730  0.3755 -0.2749 -3.3900
  227MOL0     H29935   5.493   2.090   4.801 -0.4366  1.6489  0.2847
  227MOL0     H29936   5.534   2.106   4.509  0.3707  1.1712  0.1620
  227MOL0     H29937   5.416   2.004   4.593 -1.8595  0.6146  1.6464
  227MOL0     H29938   5.317   2.191   4.499  1.3473 -1.4531 -0.5668
  227MOL0     H29939   5.404   2.314   4.588 -1.3507  1.0017  1.8425
  227MOL0     H29940   5.310   2.231   4.787  0.2306 -1.2093  0.1718
  227MOL0     H29941   5.222   2.093   4.722  1.3680 -0.5163  1.9240
  227MOL0     H29942   5.073   2.288   4.782 -0.5955  3.2777 -0.1168
  227MOL0     H29943   5.177   2.394   4.693  1.5378 -0.3685 -0.8195
  227MOL0     H29944   5.096   2.241   4.493  1.7295 -1.7028  2.3616
  227MOL0     H29945   4.972   2.356   4.570 -1.4588 -0.0209  2.2513
  227MOL0     H29946   5.928   2.093   5.037  1.0345 -0.9502 -1.0131
  227MOL0     H29947   6.094   2.182   5.178  0.9560 -0.6121 -0.6858
  227MOL0     H29948   6.367   2.360   5.341 -0.6187  0.7172 -1.0348
  227MOL0     H29949   6.538   2.400   5.510 -1.3088  2.2747  1.5489
  227MOL0     H29950   8.045   3.537   6.164  2.9679  0.1863  1.2252
  227MOL0     H29951   8.244   3.674   6.133 -0.2474 -1.6855  0.1499
  227MOL0     H29952   8.769   3.632   5.950  1.5726  0.6354 -1.0058
  227MOL0     H29953   8.944   3.790   5.916 -0.2427 -2.2273 -1.4711
  227MOL0     H29954   9.075   3.943   5.801  0.1630 -1.2797  1.7433
  227MOL0     H29955   9.073   3.996   5.963 -0.8587 -1.9418 -0.8422
  227MOL0     H29956   9.237   4.123   5.861 -0.1092  2.5758  1.7003
  227MOL0     H29957   9.140   4.160   5.718  1.9371 -0.3876 -0.4247
  227MOL0     H29958   9.112   4.274   6.002 -1.3316 -1.7380 -0.1962
  227MOL0     H29959   8.986   4.291   5.879  0.6790  1.2882  0.4867
  227MOL0     H29960   9.265   4.395   5.864  0.1470 -0.8700 -0.4275
  227MOL0     H29961   9.151   4.373   5.724  0.0053  1.1345 -0.3726
  227MOL0     H29962   8.977   4.716   5.851 -0.1599  0.0674  1.0505
  227MOL0     H29963   8.664   4.103   5.867 -1.7924  0.7361  5.7124
  227MOL0     H29964   8.471   3.932   5.907  0.0146 -1.7820 -0.8379
  228MOL0     O29965   1.788   8.329   5.398  0.0943  0.3245  0.1144
  228MOL0     C29966   1.844   8.250   5.463  0.0623 -0.0605 -0.4773
  228MOL0     O29967   1.778   8.158   5.545  0.3912 -0.5241  0.6045
  228MOL0     C29968   1.649   8.180   5.580  0.2170 -1.0372  0.0458
  228MOL0     C29969   1.619   8.185   5.718 -0.8428 -0.2744 -0.2128
  228MOL0     C29970   1.491   8.226   5.752  0.1961 -0.0297  0.4544
  228MOL0     C29971   1.385   8.220   5.661  0.0942 -0.0115 -0.0853
  228MOL0     O29972   1.255   8.233   5.704 -0.1598  0.0609  0.3445
  228MOL0     C29973   1.140   8.221   5.615 -0.1883 -0.0418  0.7215
  228MOL0     C29974   1.021   8.214   5.709 -0.1537  0.6480  0.9047
  228MOL0     C29975   0.897   8.162   5.636 -0.7610 -0.3763  0.3701
  228MOL0     C29976   0.766   8.198   5.716  0.1820  0.1779  0.1347
  228MOL0     C29977   0.640   8.167   5.637  0.4667 -0.3410 -0.4554
  228MOL0     C29978   0.610   8.286   5.539  0.9128  0.6569 -0.1047
  228MOL0     C29979   0.480   8.295   5.464 -0.0139 -0.0555 -0.5528
  228MOL0     C29980   0.475   8.178   5.367 -0.1034 -0.3711 -0.4077
  228MOL0     N29981   0.346   8.190   5.291 -0.7851 -0.2537 -0.1230
  228MOL0     C29982   0.322   8.289   5.194  0.8928  0.5046  0.7556
  228MOL0     C29983   0.189   8.270   5.160 -0.0625 -0.3151  0.0276
  228MOL0     C29984   0.116   8.340   5.046 -0.5937  0.8642  0.2044
  228MOL0     C29985  -0.027   8.349   5.059 -0.0232 -0.2532 -0.4274
  228MOL0     C29986  -0.061   8.449   5.176 -0.1900  0.1691 -0.1170
  228MOL0     C29987  -0.217   8.443   5.192 -0.1038 -0.1026  0.1946
  228MOL0     O29988  -0.255   8.550   5.271 -0.7304  0.5331  0.1815
  228MOL0     C29989  -0.388   8.581   5.285  0.4298  0.1332  0.4866
  228MOL0     C29990  -0.423   8.667   5.385 -0.4260 -1.0023  0.5486
  228MOL0     C29991  -0.551   8.691   5.427 -0.1726  0.1575  0.7852
  228MOL0     C29992  -0.660   8.640   5.345 -0.4323 -0.9911 -0.4766
  228MOL0     C29993  -0.803   8.663   5.384 -0.4313 -0.2980  0.5250
  228MOL0     O29994  -0.886   8.637   5.275  0.0928 -0.0681 -0.5906
  228MOL0     C29995  -1.019   8.655   5.299 -0.3619  0.9519  0.7869
  228MOL0     C29996  -1.083   8.603   5.407  0.0643 -0.1790  0.1281
  228MOL0     C29997  -1.225   8.618   5.416 -0.0204  1.2274 -0.0514
  228MOL0     C29998  -1.298   8.680   5.322  0.0160 -0.2210 -0.3865
  228MOL0     O29999  -1.426   8.710   5.346 -0.2801 -0.3612  0.5173
  228MOL0     C30000  -1.507   8.596   5.355  0.5882 -0.7954  0.6157
  228MOL0     C30001  -1.653   8.631   5.365  0.7581  0.0962  0.3953
  228MOL0     C30002  -1.689   8.659   5.503 -0.0550 -1.0270  0.1589
  228MOL0     C30003  -1.833   8.707   5.503 -0.3698 -0.6646 -0.0448
  228MOL0     C30004  -1.890   8.698   5.649  0.9337 -0.6014  0.0506
  228MOL0     C30005  -2.043   8.746   5.646 -0.0954  0.5932  0.0337
  228MOL0     C30006  -2.058   8.890   5.605 -0.2353 -0.3760  0.1164
  228MOL0     C30007  -2.175   8.956   5.669 -0.0535 -0.5887 -0.2283
  228MOL0    Cl30008  -2.331   8.874   5.627  0.7299  0.3762  0.1376
  228MOL0     C30009  -1.232   8.733   5.212 -0.7829 -0.3818  0.0855
  228MOL0     C30010  -1.093   8.724   5.206  0.4606 -0.4121  0.1125
  228MOL0     O30011  -0.831   8.719   5.491  0.7724  1.1651  0.5058
  228MOL0     C30012  -0.626   8.552   5.238 -1.0827 -0.0689  0.0657
  228MOL0     C30013  -0.491   8.518   5.206  0.4848 -0.5690  0.2993
  228MOL0     N30014   0.137   8.186   5.253  0.3286  0.2281  0.8960
  228MOL0     N30015   0.234   8.128   5.315 -0.1150  0.4708  0.3711
  228MOL0     C30016   1.405   8.209   5.527 -0.0957  1.2821  0.2248
  228MOL0     C30017   1.538   8.188   5.491 -1.4119  0.1043  0.4254
  228MOL0     C30018   1.992   8.241   5.444  0.6022  0.1484 -0.6380
  228MOL0     C30019   2.052   8.166   5.552 -1.1759 -0.5736 -0.0355
  228MOL0     C30020   2.193   8.171   5.551  0.1751 -0.1819 -0.3059
  228MOL0     C30021   2.261   8.262   5.469 -0.5702 -0.6154  0.7810
  228MOL0     O30022   2.398   8.286   5.479 -0.2435  0.7106  0.1915
  228MOL0     C30023   2.494   8.194   5.535  0.1977  0.1257 -0.4827
  228MOL0     C30024   2.502   8.223   5.685 -0.0802  0.4025 -0.2540
  228MOL0     C30025   2.575   8.122   5.776 -0.3309  0.0361  1.0191
  228MOL0     C30026   2.734   8.136   5.763 -0.3809  0.5728  0.1853
  228MOL0     C30027   2.787   8.270   5.733  0.2824  0.1646 -0.0326
  228MOL0     C30028   2.820   8.387   5.715 -0.0810  0.1357 -0.5717
  228MOL0     C30029   2.191   8.338   5.376  0.3974  0.2232  0.2292
  228MOL0     C30030   2.055   8.322   5.353  0.2336  0.1815  0.1061
  228MOL0     H30031   1.698   8.169   5.791 -1.2294  3.5278  1.2800
  228MOL0     H30032   1.465   8.239   5.857  1.9697  0.5955  0.8467
  228MOL0     H30033   1.140   8.136   5.547  0.3417  1.5616 -1.3669
  228MOL0     H30034   1.132   8.306   5.546  1.8088  0.8078  1.4589
  228MOL0     H30035   1.007   8.317   5.744  0.1180  0.9492  0.1455
  228MOL0     H30036   1.041   8.156   5.800  1.9804  1.2042  0.8508
  228MOL0     H30037   0.906   8.058   5.602 -0.3025 -0.1690 -0.1737
  228MOL0     H30038   0.887   8.226   5.547 -0.1184  3.5633  2.8831
  228MOL0     H30039   0.770   8.153   5.815 -0.3211  0.9742  0.5326
  228MOL0     H30040   0.769   8.305   5.739  2.8979  0.0528  0.6355
  228MOL0     H30041   0.562   8.147   5.712  1.1300  0.7723  0.5612
  228MOL0     H30042   0.652   8.076   5.578 -0.3984 -0.2228 -0.8405
  228MOL0     H30043   0.697   8.287   5.474  0.1889 -0.4442 -1.1328
  228MOL0     H30044   0.618   8.369   5.610  3.5603 -0.4560  1.0580
  228MOL0     H30045   0.395   8.278   5.530 -0.1852 -0.4504 -0.8722
  228MOL0     H30046   0.472   8.392   5.414 -1.6027 -1.0210 -2.2915
  228MOL0     H30047   0.476   8.086   5.427 -0.8273 -0.9153 -1.2143
  228MOL0     H30048   0.553   8.172   5.292  0.0789 -3.2812 -0.1167
  228MOL0     H30049   0.385   8.365   5.149  1.1743  0.2546  0.7300
  228MOL0     H30050   0.145   8.282   4.958 -4.2779 -2.6330  0.9692
  228MOL0     H30051   0.150   8.442   5.027 -3.1827  1.7013 -0.4118
  228MOL0     H30052  -0.070   8.248   5.067  0.6105 -0.5546 -0.8114
  228MOL0     H30053  -0.069   8.401   4.972  1.6474  2.2462  0.1494
  228MOL0     H30054  -0.023   8.414   5.272 -0.2419  2.8188  0.9541
  228MOL0     H30055  -0.019   8.547   5.153  2.7165 -0.4483  2.0085
  228MOL0     H30056  -0.255   8.355   5.246 -3.4440  1.4658  0.6334
  228MOL0     H30057  -0.264   8.439   5.094  1.8764 -3.2293 -0.7765
  228MOL0     H30058  -0.336   8.718   5.427 -1.0850  0.9114 -0.3103
  228MOL0     H30059  -0.573   8.750   5.516 -0.2964 -0.7996  1.4050
  228MOL0     H30060  -1.029   8.537   5.474  2.6726 -1.2777 -2.8056
  228MOL0     H30061  -1.274   8.568   5.499 -0.0143 -1.8117 -1.7110
  228MOL0     H30062  -1.486   8.531   5.442  1.3360 -1.0148  0.2784
  228MOL0     H30063  -1.491   8.533   5.267 -1.4849 -1.9760  1.0011
  228MOL0     H30064  -1.702   8.537   5.340  1.1057  0.0179  0.0080
  228MOL0     H30065  -1.684   8.712   5.298 -0.3904  0.5241  1.3942
  228MOL0     H30066  -1.627   8.739   5.546  0.6155 -0.4581 -1.7518
  228MOL0     H30067  -1.684   8.573   5.571  0.2432  0.5306  2.2355
  228MOL0     H30068  -1.832   8.817   5.495  0.2440 -0.5205  1.5874
  228MOL0     H30069  -1.903   8.659   5.435  0.6552 -0.9617 -0.9180
  228MOL0     H30070  -1.832   8.769   5.710 -2.6678  1.2716  1.6437
  228MOL0     H30071  -1.880   8.594   5.679 -1.6000 -1.3617 -1.4035
  228MOL0     H30072  -2.086   8.721   5.743  2.0195 -4.2795  0.0072
  228MOL0     H30073  -2.099   8.690   5.571 -0.5798  1.7385 -0.4841
  228MOL0     H30074  -1.974   8.952   5.638  0.4675  0.1448 -2.4233
  228MOL0     H30075  -2.061   8.903   5.497  1.3307  0.0939  0.1134
  228MOL0     H30076  -2.185   9.063   5.648 -1.3509 -0.5504  0.4236
  228MOL0     H30077  -2.168   8.962   5.778 -1.6360  0.2409 -0.1380
  228MOL0     H30078  -1.281   8.793   5.136  0.4976  0.2729 -0.2472
  228MOL0     H30079  -1.035   8.777   5.131 -1.3504  2.0482  0.3382
  228MOL0     H30080  -0.699   8.522   5.163 -0.1115  0.0671 -0.9527
  228MOL0     H30081  -0.471   8.444   5.129 -0.1200  0.8152 -1.2612
  228MOL0     H30082   1.326   8.205   5.453  0.1401 -1.2700  0.0272
  228MOL0     H30083   1.561   8.166   5.387 -2.6469 -2.1714  0.5839
  228MOL0     H30084   1.990   8.110   5.622 -1.7897 -0.1050 -0.1969
  228MOL0     H30085   2.248   8.111   5.623  2.1179  0.2988 -1.3115
  228MOL0     H30086   2.584   8.206   5.475 -0.0019  2.3157 -0.4267
  228MOL0     H30087   2.449   8.095   5.520  1.2468 -0.8272  2.0378
  228MOL0     H30088   2.544   8.324   5.698  1.3028  0.0331 -1.5432
  228MOL0     H30089   2.399   8.220   5.721 -0.4361 -0.4825 -1.3028
  228MOL0     H30090   2.533   8.024   5.751 -0.0421  0.3665 -0.8972
  228MOL0     H30091   2.553   8.152   5.878 -2.6852  1.9596  0.0333
  228MOL0     H30092   2.769   8.103   5.862  2.4581 -1.7305 -1.4250
  228MOL0     H30093   2.771   8.068   5.686 -0.6741 -1.2391  1.5715
  228MOL0     H30094   2.843   8.490   5.698 -0.5054  1.1492  3.7091
  228MOL0     H30095   2.237   8.411   5.310  0.2887  0.6336  0.5998
  228MOL0     H30096   2.007   8.365   5.266  3.8083  0.9713 -1.6534
  229MOL0     O30097   5.979   7.666   0.629 -0.0524  0.3353  0.1555
  229MOL0     C30098   5.912   7.764   0.602  0.4320 -0.9876  0.3935
  229MOL0     O30099   5.781   7.789   0.617  0.7796 -0.0785 -0.1741
  229MOL0     C30100   5.699   7.698   0.669  0.3742 -0.1080 -0.0102
  229MOL0     C30101   5.583   7.670   0.601 -0.4309 -0.6906  0.0794
  229MOL0     C30102   5.498   7.564   0.642 -0.1615 -0.5481 -0.6319
  229MOL0     C30103   5.532   7.491   0.759  0.1420 -0.1347 -0.4407
  229MOL0     O30104   5.460   7.381   0.803 -0.2830 -0.1663  0.0653
  229MOL0     C30105   5.324   7.361   0.763 -0.5605 -0.6786 -0.0450
  229MOL0     C30106   5.253   7.238   0.835  1.2587 -0.3185  0.2225
  229MOL0     C30107   5.111   7.208   0.776  0.2755  1.4506 -0.3645
  229MOL0     C30108   5.068   7.060   0.816  0.7339 -0.0272 -1.0477
  229MOL0     C30109   4.932   7.017   0.762 -0.6091 -0.0163  0.4870
  229MOL0     C30110   4.923   7.045   0.616  0.0211 -0.3440  0.6280
  229MOL0     C30111   5.016   6.963   0.530 -0.1732  0.3259  0.2468
  229MOL0     C30112   5.025   7.010   0.384  0.4444 -0.2294 -0.5078
  229MOL0     N30113   4.906   6.967   0.318  0.8655  0.1557 -0.3057
  229MOL0     C30114   4.888   6.845   0.253 -0.2674  0.2377 -0.2289
  229MOL0     C30115   4.761   6.846   0.193 -0.2891 -1.1372 -0.6330
  229MOL0     C30116   4.695   6.726   0.124  0.5540 -0.0368  0.0735
  229MOL0     C30117   4.701   6.760  -0.030  0.1969  0.1642 -0.1941
  229MOL0     C30118   4.671   6.632  -0.114 -0.2390 -1.4129 -0.5998
  229MOL0     C30119   4.540   6.637  -0.181  0.0591 -0.6790  0.5976
  229MOL0     O30120   4.524   6.507  -0.245  0.4040 -0.4121 -0.2011
  229MOL0     C30121   4.391   6.471  -0.251  0.4722 -0.0032  0.3343
  229MOL0     C30122   4.346   6.422  -0.374 -0.2676 -0.2845  0.0402
  229MOL0     C30123   4.216   6.381  -0.400 -0.6171 -0.0070  0.2188
  229MOL0     C30124   4.124   6.386  -0.295  0.9670 -0.5062  0.3883
  229MOL0     C30125   3.983   6.338  -0.312 -0.1133  0.6995  0.4890
  229MOL0     O30126   3.931   6.280  -0.206 -0.1222 -0.5384 -0.4672
  229MOL0     C30127   3.812   6.207  -0.206 -0.1195  0.5450 -0.2411
  229MOL0     C30128   3.749   6.196  -0.085 -0.1497  0.8985  0.4622
  229MOL0     C30129   3.627   6.135  -0.073  0.3870  0.2033  0.2341
  229MOL0     C30130   3.568   6.077  -0.184 -0.6123  0.5193 -0.4290
  229MOL0     O30131   3.450   6.014  -0.186 -0.1934 -0.0499  0.4473
  229MOL0     C30132   3.335   6.062  -0.117  0.9945 -0.3631 -0.6087
  229MOL0     C30133   3.209   6.002  -0.170 -0.0157  0.0675  0.8096
  229MOL0     C30134   3.094   6.063  -0.096 -0.0552  0.0833 -0.4416
  229MOL0     C30135   2.964   6.026  -0.174 -0.8851 -0.0683 -0.0568
  229MOL0     C30136   2.834   6.089  -0.112 -0.0082 -0.3578 -0.4230
  229MOL0     C30137   2.824   6.036   0.035  0.2741  0.3296 -0.6223
  229MOL0     C30138   2.690   6.092   0.092  0.6627  0.0209 -0.0076
  229MOL0     C30139   2.644   6.012   0.218  0.0029  0.2921 -0.3939
  229MOL0    Cl30140   2.794   5.990   0.319  0.0442 -0.2382 -0.2836
  229MOL0     C30141   3.632   6.071  -0.308 -0.3008 -0.7105  0.7406
  229MOL0     C30142   3.756   6.142  -0.319  0.0998 -0.0395  0.2630
  229MOL0     O30143   3.943   6.337  -0.434  0.2126 -0.3328  0.0021
  229MOL0     C30144   4.168   6.434  -0.175 -0.0886 -0.6671  0.0977
  229MOL0     C30145   4.292   6.480  -0.147  1.0190  0.7311  0.1240
  229MOL0     N30146   4.716   6.981   0.221 -0.7359 -0.0901 -0.2757
  229MOL0     N30147   4.795   7.044   0.300  0.3375 -0.5408  0.6610
  229MOL0     C30148   5.643   7.527   0.838 -0.5752 -0.1944 -0.5299
  229MOL0     C30149   5.729   7.626   0.793  0.2577 -0.8314  1.4140
  229MOL0     C30150   5.987   7.878   0.544  0.4330 -0.3687  0.0433
  229MOL0     C30151   6.124   7.868   0.505  0.2202  0.2447 -0.8149
  229MOL0     C30152   6.199   7.976   0.457  0.5777  0.0815 -0.0269
  229MOL0     C30153   6.133   8.095   0.432  0.5768  0.0903 -0.9364
  229MOL0     O30154   6.189   8.212   0.387 -0.6222  0.7297 -0.5027
  229MOL0     C30155   6.332   8.223   0.376  0.4101  0.0765 -0.3854
  229MOL0     C30156   6.387   8.351   0.306 -0.4753  0.5513 -0.5244
  229MOL0     C30157   6.343   8.361   0.156  0.0705 -0.5946 -0.7099
  229MOL0     C30158   6.410   8.477   0.087  0.5139 -0.7092 -0.3231
  229MOL0     C30159   6.549   8.442   0.070  0.2995 -0.1395 -0.4875
  229MOL0     C30160   6.666   8.419   0.061 -0.6078  0.2058 -0.3586
  229MOL0     C30161   5.999   8.105   0.449  0.7059  1.1461 -1.5990
  229MOL0     C30162   5.923   8.001   0.512 -0.2490 -0.1584  0.2218
  229MOL0     H30163   5.547   7.737   0.523  0.6415  2.9825  2.4997
  229MOL0     H30164   5.405   7.544   0.590 -0.3582 -1.6381  0.1118
  229MOL0     H30165   5.333   7.357   0.655  0.1048  0.6884 -0.0561
  229MOL0     H30166   5.274   7.452   0.795  0.0026  0.2402 -1.6762
  229MOL0     H30167   5.252   7.255   0.944  0.7976  2.7347 -0.1584
  229MOL0     H30168   5.317   7.154   0.809 -0.6590 -0.7679 -3.7772
  229MOL0     H30169   5.115   7.212   0.667  0.5403  3.1397 -0.3309
  229MOL0     H30170   5.029   7.273   0.808 -0.4590  0.8396 -0.9827
  229MOL0     H30171   5.142   6.982   0.796  0.7495  0.0897 -1.4498
  229MOL0     H30172   5.061   7.076   0.924  0.5976  1.7888 -1.3022
  229MOL0     H30173   4.864   7.096   0.796  3.3441  3.4088  1.1654
  229MOL0     H30174   4.904   6.913   0.780  0.1279 -0.7106 -1.9935
  229MOL0     H30175   4.936   7.150   0.588  0.2867 -0.8512 -1.3686
  229MOL0     H30176   4.825   7.017   0.576 -0.9213  2.2611  0.9493
  229MOL0     H30177   5.118   6.967   0.570  0.0948  0.2660 -0.4148
  229MOL0     H30178   4.992   6.856   0.527 -2.9358  0.8702  0.0997
  229MOL0     H30179   5.109   6.970   0.327  1.6084 -0.0034  0.9790
  229MOL0     H30180   5.042   7.118   0.386 -1.9549  0.2279 -0.9654
  229MOL0     H30181   4.965   6.769   0.243  0.8049  1.0334  1.5562
  229MOL0     H30182   4.593   6.720   0.162  1.2652 -0.0167  2.1603
  229MOL0     H30183   4.748   6.635   0.152  0.0337  0.4259  2.8668
  229MOL0     H30184   4.803   6.794  -0.051 -0.1132  1.4457  0.3194
  229MOL0     H30185   4.623   6.833  -0.052 -0.8905 -0.2868  1.9475
  229MOL0     H30186   4.756   6.610  -0.179 -0.0414 -0.1921 -0.7714
  229MOL0     H30187   4.686   6.549  -0.043 -1.0194  0.7950  2.3621
  229MOL0     H30188   4.542   6.715  -0.257  0.2837  0.7903  2.0550
  229MOL0     H30189   4.456   6.658  -0.114 -2.0086  0.1115 -2.0435
  229MOL0     H30190   4.418   6.390  -0.449 -4.7396 -0.9472 -4.4708
  229MOL0     H30191   4.183   6.357  -0.501  0.1024  0.9267 -0.2520
  229MOL0     H30192   3.797   6.249  -0.003  1.2098  1.2454 -0.5242
  229MOL0     H30193   3.566   6.140   0.017  0.6185 -1.4622  0.5161
  229MOL0     H30194   3.328   6.171  -0.125  1.6456 -0.0148  2.5419
  229MOL0     H30195   3.332   6.040  -0.010 -0.5171 -1.9646 -0.9410
  229MOL0     H30196   3.205   5.892  -0.171 -0.3830 -0.1966 -4.9406
  229MOL0     H30197   3.196   6.035  -0.274  1.9581  3.0354  1.4089
  229MOL0     H30198   3.111   6.170  -0.083 -2.1332  0.3560  0.4254
  229MOL0     H30199   3.105   6.020   0.004  0.4924 -1.6417 -1.2029
  229MOL0     H30200   2.977   6.045  -0.281  0.4213 -2.1094 -0.3147
  229MOL0     H30201   2.942   5.919  -0.180 -0.3080 -0.2426  0.7829
  229MOL0     H30202   2.741   6.067  -0.165 -1.8738  1.0443  2.0278
  229MOL0     H30203   2.838   6.198  -0.112 -1.0567 -0.2979  0.2540
  229MOL0     H30204   2.909   6.072   0.094  0.1909 -1.6205  0.7683
  229MOL0     H30205   2.818   5.927   0.037 -0.7807  0.3799  1.6160
  229MOL0     H30206   2.705   6.196   0.123  1.3396 -0.7281  2.2805
  229MOL0     H30207   2.611   6.098   0.015  1.7646  0.8997 -1.1109
  229MOL0     H30208   2.610   5.911   0.192  1.9823 -0.5784  0.2449
  229MOL0     H30209   2.570   6.064   0.280  2.0577  1.5268  1.1294
  229MOL0     H30210   3.578   6.022  -0.388  0.0858  0.1227 -0.0555
  229MOL0     H30211   3.799   6.151  -0.419 -3.7923  2.6010 -1.4040
  229MOL0     H30212   4.101   6.436  -0.089  1.9924 -0.2259  1.7941
  229MOL0     H30213   4.325   6.522  -0.052 -0.6048 -0.5955  1.3152
  229MOL0     H30214   5.665   7.472   0.929  2.5257 -0.3010 -1.2302
  229MOL0     H30215   5.820   7.656   0.844  1.8639  3.5331 -3.1278
  229MOL0     H30216   6.181   7.777   0.522  0.3121  0.4140 -0.2166
  229MOL0     H30217   6.305   7.968   0.433  0.4241 -1.4036 -0.3128
  229MOL0     H30218   6.376   8.138   0.323  1.4205  0.6433 -0.4798
  229MOL0     H30219   6.377   8.212   0.475 -1.4664 -0.1620  0.4722
  229MOL0     H30220   6.350   8.437   0.363  1.2914  1.0900 -0.1089
  229MOL0     H30221   6.495   8.339   0.322 -1.2091 -1.7180  4.1949
  229MOL0     H30222   6.238   8.390   0.160  0.1405 -0.1364 -1.8201
  229MOL0     H30223   6.345   8.270   0.095 -0.5915 -1.6577  0.7960
  229MOL0     H30224   6.360   8.499  -0.008 -0.4890 -0.8825  0.1445
  229MOL0     H30225   6.404   8.563   0.154  1.8675  0.3666 -1.5228
  229MOL0     H30226   6.766   8.390   0.040 -0.2655  1.4110 -0.4540
  229MOL0     H30227   5.956   8.204   0.438  0.1347  0.9908 -0.8712
  229MOL0     H30228   5.821   8.021   0.542 -0.6767 -1.8739  0.0287
  230MOL0     O30229   2.193   6.728   7.407 -0.0449 -0.5051  0.3870
  230MOL0     C30230   2.196   6.812   7.495 -0.2451  0.2639 -0.5659
  230MOL0     O30231   2.094   6.838   7.581  1.1968  0.3552  0.1402
  230MOL0     C30232   1.975   6.763   7.550  0.0673 -0.1998  0.5554
  230MOL0     C30233   1.907   6.794   7.433  0.0568 -0.1053 -0.0459
  230MOL0     C30234   1.795   6.725   7.392  0.8663  1.1531 -1.3617
  230MOL0     C30235   1.756   6.612   7.474 -0.4536  0.3488 -0.6562
  230MOL0     O30236   1.635   6.563   7.434 -0.0397  0.3798 -1.1811
  230MOL0     C30237   1.584   6.448   7.509  0.0036 -0.6063 -0.2447
  230MOL0     C30238   1.487   6.358   7.424 -0.0016  0.2893 -0.4058
  230MOL0     C30239   1.548   6.288   7.298  0.4938 -0.3216  0.3430
  230MOL0     C30240   1.442   6.210   7.218  0.9408 -1.0853  0.7663
  230MOL0     C30241   1.508   6.153   7.090  0.3203  0.1863 -0.0140
  230MOL0     C30242   1.434   6.034   7.047 -0.3999 -0.4118  0.1137
  230MOL0     C30243   1.510   5.978   6.926  0.1865  0.1447  0.1505
  230MOL0     C30244   1.451   5.840   6.906 -0.6444 -0.2149  0.3063
  230MOL0     N30245   1.307   5.841   6.876  0.4607 -0.1058 -0.0077
  230MOL0     C30246   1.198   5.808   6.958 -0.8414 -0.5021 -0.0317
  230MOL0     C30247   1.085   5.827   6.880 -0.8943  0.3425 -0.5880
  230MOL0     C30248   0.943   5.802   6.920  0.2857 -0.5900 -0.7363
  230MOL0     C30249   0.851   5.910   6.863  0.8850 -0.1305  1.1509
  230MOL0     C30250   0.744   5.953   6.976 -0.2579  0.2887 -0.1364
  230MOL0     C30251   0.659   6.073   6.944 -0.3419  1.1563  0.9985
  230MOL0     O30252   0.577   6.115   7.049  0.2654 -0.9958 -0.8184
  230MOL0     C30253   0.442   6.103   7.045  0.4270  0.2003 -0.5460
  230MOL0     C30254   0.358   6.012   6.979 -0.6034 -0.8830 -0.3114
  230MOL0     C30255   0.213   6.028   6.980 -0.9308 -0.2367 -0.0213
  230MOL0     C30256   0.155   6.124   7.071 -0.3762  1.0312 -0.4680
  230MOL0     C30257   0.003   6.126   7.097 -0.7699 -0.0317 -0.0463
  230MOL0     O30258  -0.035   6.209   7.199  0.4634 -0.4808  0.0759
  230MOL0     C30259  -0.158   6.208   7.259  0.0103 -0.7702 -0.2446
  230MOL0     C30260  -0.278   6.183   7.189 -0.5790 -0.1947  0.0536
  230MOL0     C30261  -0.397   6.208   7.252  0.7472 -0.0612  0.1347
  230MOL0     C30262  -0.404   6.242   7.390 -0.2510 -0.4123 -1.0044
  230MOL0     O30263  -0.527   6.277   7.439 -0.3134 -0.2693 -0.3393
  230MOL0     C30264  -0.567   6.215   7.551  0.3566 -0.2709  0.3446
  230MOL0     C30265  -0.714   6.233   7.563 -0.3148  0.0026  0.2586
  230MOL0     C30266  -0.765   6.135   7.666 -0.2865  0.1263  0.0849
  230MOL0     C30267  -0.917   6.123   7.649 -0.6414  0.0744 -0.6851
  230MOL0     C30268  -0.968   6.056   7.778 -0.1128 -1.0211  1.2099
  230MOL0     C30269  -1.114   6.017   7.756  0.5219 -0.0123  0.4607
  230MOL0     C30270  -1.203   6.136   7.709  0.7930 -0.0132  0.1051
  230MOL0     C30271  -1.337   6.079   7.658 -0.0098 -0.3670 -0.2002
  230MOL0    Cl30272  -1.424   5.963   7.764 -0.1116 -0.0069  0.1160
  230MOL0     C30273  -0.286   6.255   7.468  0.5691 -0.2563  0.3855
  230MOL0     C30274  -0.163   6.234   7.403  0.0628  0.1800  0.0864
  230MOL0     O30275  -0.070   6.051   7.039  0.7174 -0.6630  0.7997
  230MOL0     C30276   0.240   6.203   7.156  0.1088  0.3505  0.3294
  230MOL0     C30277   0.378   6.199   7.133 -0.1910 -1.0157  0.7117
  230MOL0     N30278   1.125   5.866   6.753  0.1316 -0.2662  0.4547
  230MOL0     N30279   1.254   5.877   6.755 -0.1083  0.0525 -0.0585
  230MOL0     C30280   1.822   6.587   7.597  0.4420  0.4117  0.6142
  230MOL0     C30281   1.938   6.656   7.629  0.0149  0.3507 -0.6827
  230MOL0     C30282   2.324   6.894   7.506  0.6856 -0.0793 -0.3880
  230MOL0     C30283   2.331   6.996   7.608  0.8660  0.3523 -0.0089
  230MOL0     C30284   2.447   7.068   7.614  0.3261  0.7391 -0.3797
  230MOL0     C30285   2.563   7.037   7.537 -0.1244 -0.2064  0.7678
  230MOL0     O30286   2.670   7.124   7.547  0.0804  0.2043  0.4009
  230MOL0     C30287   2.792   7.104   7.471  0.0460  0.1533 -0.0087
  230MOL0     C30288   2.866   7.236   7.454  0.2716 -0.4721 -0.0042
  230MOL0     C30289   2.792   7.346   7.383 -0.3286 -0.9711 -0.2212
  230MOL0     C30290   2.855   7.485   7.362  0.4104  0.1977  0.4242
  230MOL0     C30291   2.905   7.546   7.483  0.1166 -0.0250 -0.8086
  230MOL0     C30292   2.957   7.603   7.583 -0.3137  0.6620  0.0076
  230MOL0     C30293   2.565   6.923   7.457 -0.0265 -0.2018 -0.4106
  230MOL0     C30294   2.443   6.854   7.437 -0.5592 -0.0174 -0.6091
  230MOL0     H30295   1.932   6.875   7.365  1.3120 -0.9723 -0.6600
  230MOL0     H30296   1.733   6.743   7.306 -1.3549 -0.5570 -0.2395
  230MOL0     H30297   1.532   6.485   7.598 -0.4979  0.2833 -0.8919
  230MOL0     H30298   1.668   6.387   7.544  1.7425  0.8878 -1.6308
  230MOL0     H30299   1.396   6.417   7.406 -1.4793 -1.6373  0.3130
  230MOL0     H30300   1.450   6.287   7.498  0.6351  0.5012  0.1235
  230MOL0     H30301   1.633   6.229   7.334  2.0354  2.2384  1.1516
  230MOL0     H30302   1.585   6.359   7.224  0.3037  0.7231  1.2218
  230MOL0     H30303   1.398   6.131   7.279  1.4301 -0.3730  2.0659
  230MOL0     H30304   1.356   6.274   7.196  1.8582  0.2881  1.0716
  230MOL0     H30305   1.606   6.114   7.119  1.0710 -0.3662 -2.9698
  230MOL0     H30306   1.505   6.227   7.009 -2.6742 -0.3742 -0.5185
  230MOL0     H30307   1.332   6.060   7.018  0.0877  1.0759 -0.3608
  230MOL0     H30308   1.437   5.966   7.133  0.4382  0.1750  0.5617
  230MOL0     H30309   1.495   6.040   6.837 -0.6946  0.4080  0.4723
  230MOL0     H30310   1.615   5.972   6.956  0.0464  0.5242  0.7361
  230MOL0     H30311   1.464   5.787   7.001  1.2905  2.4353  1.6067
  230MOL0     H30312   1.505   5.786   6.828  0.9030  1.2232  0.3534
  230MOL0     H30313   1.199   5.777   7.062  0.9008  2.0286  0.7772
  230MOL0     H30314   0.942   5.791   7.029 -0.7419  1.9890 -0.4221
  230MOL0     H30315   0.908   5.703   6.888  0.6271 -0.8227 -0.3951
  230MOL0     H30316   0.811   5.858   6.775  0.7021 -2.2024  2.4007
  230MOL0     H30317   0.912   5.994   6.829 -0.0680  0.4202  0.7506
  230MOL0     H30318   0.684   5.866   7.003  1.4534 -0.5978  0.9669
  230MOL0     H30319   0.801   5.986   7.064 -0.0698  0.7737 -0.4371
  230MOL0     H30320   0.595   6.036   6.863 -1.4234  2.5092  1.1921
  230MOL0     H30321   0.728   6.151   6.910  2.2767 -0.5152  2.2252
  230MOL0     H30322   0.390   5.920   6.931 -1.3549 -0.3628 -1.8690
  230MOL0     H30323   0.149   5.968   6.916 -1.1431 -0.0815  0.0449
  230MOL0     H30324  -0.276   6.171   7.081  0.5801 -0.0589  0.0427
  230MOL0     H30325  -0.486   6.204   7.190  2.2952 -1.1956 -2.1494
  230MOL0     H30326  -0.519   6.268   7.633  0.3217  2.6840 -1.4181
  230MOL0     H30327  -0.543   6.108   7.552  0.5133 -0.2473  1.8012
  230MOL0     H30328  -0.757   6.214   7.465  2.1504  1.5584 -1.2241
  230MOL0     H30329  -0.745   6.333   7.594  0.0246 -0.0043  0.6208
  230MOL0     H30330  -0.751   6.187   7.762 -0.5565 -0.7933  0.6312
  230MOL0     H30331  -0.712   6.040   7.654 -0.1159  0.4339 -1.9828
  230MOL0     H30332  -0.945   6.229   7.646  1.9148  0.8116 -1.0018
  230MOL0     H30333  -0.953   6.078   7.556  0.7762 -2.1983 -0.2098
  230MOL0     H30334  -0.966   6.138   7.850  4.3737  1.9051 -1.7683
  230MOL0     H30335  -0.917   5.962   7.803 -1.2999 -1.9987  0.0847
  230MOL0     H30336  -1.151   5.975   7.850 -0.0803 -0.8187 -0.1150
  230MOL0     H30337  -1.121   5.935   7.683  0.5425 -1.8331  2.4258
  230MOL0     H30338  -1.193   6.205   7.793  2.0183 -0.3240  0.2360
  230MOL0     H30339  -1.169   6.189   7.620  0.6421  1.4613  0.9007
  230MOL0     H30340  -1.309   6.023   7.568  0.5478 -1.6901  0.7635
  230MOL0     H30341  -1.411   6.154   7.629 -1.0489 -1.2605  0.0760
  230MOL0     H30342  -0.280   6.292   7.570 -0.1866 -1.0731  0.7347
  230MOL0     H30343  -0.073   6.244   7.463 -0.8126  0.9427  1.3339
  230MOL0     H30344   0.202   6.270   7.232  0.1996  2.4772 -1.3957
  230MOL0     H30345   0.434   6.260   7.203 -0.4607  0.1319 -0.0338
  230MOL0     H30346   1.796   6.509   7.668  0.9894  0.7290  1.1760
  230MOL0     H30347   1.989   6.629   7.722 -3.2183 -0.9921  0.8659
  230MOL0     H30348   2.249   7.019   7.675 -0.7009 -2.5730 -0.7268
  230MOL0     H30349   2.453   7.153   7.681  1.4693  0.5718 -0.2355
  230MOL0     H30350   2.764   7.079   7.369  0.5480  2.5950 -0.8119
  230MOL0     H30351   2.860   7.033   7.520 -0.0880  0.2860  0.3790
  230MOL0     H30352   2.890   7.278   7.552  1.2643  0.0229 -0.4494
  230MOL0     H30353   2.966   7.227   7.412 -0.2077 -1.2749 -1.0100
  230MOL0     H30354   2.705   7.381   7.440  1.9774  1.9053  1.8030
  230MOL0     H30355   2.751   7.310   7.288 -3.6831 -2.8914  1.7680
  230MOL0     H30356   2.941   7.473   7.296 -0.0972  0.1301 -0.2221
  230MOL0     H30357   2.781   7.555   7.322  2.5840  2.9196  0.8411
  230MOL0     H30358   2.986   7.664   7.666  0.5053 -1.1235  1.1185
  230MOL0     H30359   2.648   6.890   7.395 -2.9467 -1.4812 -3.9767
  230MOL0     H30360   2.436   6.769   7.370  1.4322  1.5794 -3.0478
  231MOL0     O30361   3.697   4.006   1.262 -0.6094  0.2445 -0.1463
  231MOL0     C30362   3.768   4.034   1.163 -0.0261 -0.8822  0.2659
  231MOL0     O30363   3.744   4.139   1.077  0.7939  0.5072 -0.6478
  231MOL0     C30364   3.631   4.218   1.104 -0.3494  0.3220  0.1046
  231MOL0     C30365   3.653   4.354   1.141  0.0421  0.3694 -0.3145
  231MOL0     C30366   3.542   4.429   1.184 -1.0120  0.1983  0.0366
  231MOL0     C30367   3.413   4.374   1.186 -0.2549 -0.0931  0.3584
  231MOL0     O30368   3.302   4.446   1.222  0.0956  0.3025  0.2179
  231MOL0     C30369   3.313   4.590   1.223  0.1203  0.7074 -0.5305
  231MOL0     C30370   3.173   4.651   1.226 -0.3343 -1.1658 -0.1723
  231MOL0     C30371   3.089   4.608   1.102 -0.0252  0.3854 -0.1466
  231MOL0     C30372   2.962   4.704   1.098 -0.3653  1.2808 -0.5065
  231MOL0     C30373   2.856   4.657   0.998  0.2971  0.1348  1.6968
  231MOL0     C30374   2.738   4.746   0.964  0.2931  0.7196  0.0929
  231MOL0     C30375   2.672   4.702   0.833 -0.5524  0.2127  0.0976
  231MOL0     C30376   2.592   4.570   0.840 -0.6509 -0.0781 -0.6030
  231MOL0     N30377   2.474   4.594   0.928  0.1450 -0.4897 -0.6401
  231MOL0     C30378   2.469   4.579   1.061 -0.8708 -0.6708  0.1067
  231MOL0     C30379   2.346   4.616   1.099  0.0659 -0.9501  0.4886
  231MOL0     C30380   2.307   4.655   1.240  0.7888 -0.1885  0.6624
  231MOL0     C30381   2.216   4.541   1.287  0.0803 -0.1973  0.5372
  231MOL0     C30382   2.080   4.538   1.226 -1.1329  0.8405 -0.0856
  231MOL0     C30383   1.986   4.462   1.317  0.8521 -0.0107  0.3415
  231MOL0     O30384   1.859   4.455   1.254 -0.8881  0.1909  0.0988
  231MOL0     C30385   1.753   4.417   1.337  0.0836  0.2925 -0.0143
  231MOL0     C30386   1.631   4.407   1.279  0.2926 -0.2617 -1.1698
  231MOL0     C30387   1.526   4.370   1.359 -1.0302 -0.2723  0.4849
  231MOL0     C30388   1.537   4.325   1.494  0.0489 -0.9243 -0.1776
  231MOL0     C30389   1.418   4.288   1.573  0.0646 -0.2392 -0.7605
  231MOL0     O30390   1.290   4.305   1.528 -0.4854  0.3793  0.2296
  231MOL0     C30391   1.191   4.284   1.621  0.3284  0.0113  0.1819
  231MOL0     C30392   1.184   4.355   1.742  0.5121 -0.3909 -0.0401
  231MOL0     C30393   1.091   4.315   1.845 -0.0746  0.0593 -0.2919
  231MOL0     C30394   0.987   4.220   1.814 -1.0734  0.3516 -0.0368
  231MOL0     O30395   0.904   4.192   1.913  0.2985 -0.0574  0.0944
  231MOL0     C30396   0.794   4.108   1.891 -0.1741  0.5160  0.2186
  231MOL0     C30397   0.691   4.115   2.002 -0.8612 -0.5557  0.0871
  231MOL0     C30398   0.585   4.002   1.997 -0.9954 -0.4646  0.0915
  231MOL0     C30399   0.631   3.866   2.032 -0.6517  0.2372  0.2496
  231MOL0     C30400   0.529   3.751   2.024  0.2539 -0.6976 -0.0516
  231MOL0     C30401   0.465   3.736   1.887  0.7270  0.0672 -0.6199
  231MOL0     C30402   0.454   3.587   1.853 -0.7923  0.0790  0.0926
  231MOL0     C30403   0.397   3.561   1.711 -0.2700 -0.0369 -0.3292
  231MOL0    Cl30404   0.234   3.641   1.696 -0.3183 -0.2080 -0.0626
  231MOL0     C30405   0.995   4.156   1.687 -0.1567  0.4148 -0.0937
  231MOL0     C30406   1.099   4.184   1.596 -0.4604  0.1404 -0.2544
  231MOL0     O30407   1.446   4.251   1.695  0.1396 -0.7253  0.3804
  231MOL0     C30408   1.662   4.318   1.551 -0.3743 -0.3863  0.0716
  231MOL0     C30409   1.766   4.372   1.478  0.5279 -0.2252 -0.5145
  231MOL0     N30410   2.280   4.671   0.991  0.6651  0.4944 -0.0733
  231MOL0     N30411   2.364   4.659   0.890  0.6714  0.6820 -0.2181
  231MOL0     C30412   3.402   4.238   1.172  0.7567  0.0427  1.2005
  231MOL0     C30413   3.503   4.159   1.119 -0.5495 -0.2378 -0.3910
  231MOL0     C30414   3.892   3.970   1.127  0.6672  0.1849 -0.5875
  231MOL0     C30415   3.944   3.981   1.000 -0.0029  0.2022  0.2471
  231MOL0     C30416   4.063   3.915   0.967 -0.3855  0.0289 -0.3363
  231MOL0     C30417   4.131   3.834   1.065 -0.1818  0.2114  1.1669
  231MOL0     O30418   4.249   3.766   1.033 -0.1491  0.1081  0.9600
  231MOL0     C30419   4.364   3.809   1.105 -0.6557 -0.1333 -0.0499
  231MOL0     C30420   4.433   3.937   1.047  0.7093  0.6855  0.1915
  231MOL0     C30421   4.582   3.952   1.085  0.3483 -0.2962  0.3688
  231MOL0     C30422   4.606   3.962   1.234  0.0895 -0.3565  0.7072
  231MOL0     C30423   4.551   4.084   1.302 -0.4765 -0.3736  0.0062
  231MOL0     C30424   4.530   4.190   1.352 -0.0567 -0.5032  0.6973
  231MOL0     C30425   4.082   3.826   1.193 -0.0934  0.4355 -0.4666
  231MOL0     C30426   3.966   3.903   1.224  0.0901  0.3327 -0.1606
  231MOL0     H30427   3.743   4.407   1.112 -0.2286  0.7640 -0.4492
  231MOL0     H30428   3.550   4.536   1.196  1.2883  0.2060 -1.0673
  231MOL0     H30429   3.360   4.634   1.135 -0.5429 -0.0991 -1.3100
  231MOL0     H30430   3.373   4.619   1.310 -1.4352 -0.0792  0.8735
  231MOL0     H30431   3.188   4.759   1.220  3.4702 -1.5611 -0.1342
  231MOL0     H30432   3.122   4.620   1.318  1.8699 -0.3870  1.4203
  231MOL0     H30433   3.055   4.504   1.110 -2.9892  1.2585  0.1188
  231MOL0     H30434   3.143   4.619   1.008 -2.3316  0.2739 -1.5852
  231MOL0     H30435   2.919   4.706   1.199  2.7548  0.5398  0.9478
  231MOL0     H30436   2.993   4.804   1.064  0.2356  1.0828 -0.5412
  231MOL0     H30437   2.824   4.558   1.031  2.8340 -1.2768  0.2741
  231MOL0     H30438   2.912   4.633   0.907  1.7804  0.1477  2.5557
  231MOL0     H30439   2.768   4.851   0.956  0.8798  0.8589  3.0223
  231MOL0     H30440   2.678   4.739   1.055  0.2212  0.7120  0.0448
  231MOL0     H30441   2.605   4.780   0.795 -0.3607 -0.8644 -2.6989
  231MOL0     H30442   2.756   4.689   0.764  1.5064  2.1206  2.0791
  231MOL0     H30443   2.651   4.487   0.881 -0.4057  0.1879 -0.4178
  231MOL0     H30444   2.572   4.539   0.737 -2.1441  0.1482 -0.4061
  231MOL0     H30445   2.546   4.565   1.136 -1.9345 -2.4726  0.9349
  231MOL0     H30446   2.249   4.748   1.248 -1.1280 -1.5228  4.6454
  231MOL0     H30447   2.398   4.653   1.300  0.9535 -1.9922  0.3868
  231MOL0     H30448   2.200   4.554   1.395 -0.2818  1.7259  0.2831
  231MOL0     H30449   2.257   4.440   1.273 -0.1108 -1.2876  5.6861
  231MOL0     H30450   2.035   4.637   1.218 -1.7647  0.4567 -1.7633
  231MOL0     H30451   2.074   4.501   1.123 -1.5911 -0.7929  0.4923
  231MOL0     H30452   1.982   4.522   1.409  0.0994 -0.9596  0.9418
  231MOL0     H30453   2.014   4.362   1.352 -2.7421  0.1273  4.5339
  231MOL0     H30454   1.609   4.422   1.173 -1.2179  2.3065 -0.5936
  231MOL0     H30455   1.432   4.375   1.306  0.5806  1.3545 -2.4838
  231MOL0     H30456   1.260   4.432   1.750 -1.9736  2.0840  1.9238
  231MOL0     H30457   1.085   4.363   1.942 -1.1974  0.8456 -0.7224
  231MOL0     H30458   0.832   4.006   1.892 -1.0659  0.1181  3.4014
  231MOL0     H30459   0.753   4.126   1.791  0.7219 -1.3094 -0.5338
  231MOL0     H30460   0.641   4.212   1.999 -0.6447 -0.2296  3.1659
  231MOL0     H30461   0.739   4.100   2.099  0.0491 -0.6983 -0.3750
  231MOL0     H30462   0.552   4.000   1.893 -0.1273 -1.2839 -0.1808
  231MOL0     H30463   0.503   4.027   2.066  2.8496  0.5591  4.9093
  231MOL0     H30464   0.710   3.849   1.958 -0.8431  1.5406 -0.2799
  231MOL0     H30465   0.683   3.863   2.128  0.2697  0.0415 -0.2426
  231MOL0     H30466   0.449   3.775   2.095 -2.4315 -1.5025 -2.5921
  231MOL0     H30467   0.561   3.655   2.066  0.0777  0.1782  2.2128
  231MOL0     H30468   0.529   3.781   1.811  0.2381  1.9347  0.0088
  231MOL0     H30469   0.365   3.780   1.895  0.5502 -0.4799  0.3674
  231MOL0     H30470   0.552   3.539   1.862 -1.1576 -0.3628  2.2906
  231MOL0     H30471   0.396   3.539   1.933 -0.8380  0.6393  0.3969
  231MOL0     H30472   0.384   3.456   1.683 -1.8357 -0.3483  1.3653
  231MOL0     H30473   0.474   3.607   1.648 -1.7214  0.4076 -1.8524
  231MOL0     H30474   0.918   4.085   1.657  0.1261 -0.4908  1.2187
  231MOL0     H30475   1.101   4.130   1.502 -0.5053 -0.4518  0.0750
  231MOL0     H30476   1.690   4.273   1.645 -0.9033 -2.4313 -0.6876
  231MOL0     H30477   1.861   4.375   1.530  0.2719 -3.2303  0.2977
  231MOL0     H30478   3.302   4.196   1.186  0.3171  0.2263 -1.0827
  231MOL0     H30479   3.497   4.050   1.112  4.0933 -0.6620 -1.0874
  231MOL0     H30480   3.895   4.045   0.927 -0.1142 -0.1904 -0.0270
  231MOL0     H30481   4.104   3.938   0.869  2.0078 -1.3177  0.2616
  231MOL0     H30482   4.443   3.734   1.095  2.8879  3.4153 -1.3748
  231MOL0     H30483   4.347   3.809   1.213 -0.9941  0.6771 -0.0939
  231MOL0     H30484   4.411   3.923   0.941 -2.6490 -0.2730  0.9024
  231MOL0     H30485   4.381   4.029   1.075 -0.9839 -0.3843  0.7083
  231MOL0     H30486   4.616   4.045   1.038  3.2224 -1.0125  0.8082
  231MOL0     H30487   4.646   3.867   1.061  2.7171  1.4467  0.0754
  231MOL0     H30488   4.569   3.870   1.281  2.2256 -1.2951  0.6872
  231MOL0     H30489   4.714   3.973   1.250  0.2698  1.3669 -1.2558
  231MOL0     H30490   4.514   4.279   1.408 -3.4536 -1.7986  2.0385
  231MOL0     H30491   4.118   3.758   1.270  1.2066 -0.2409 -1.6394
  231MOL0     H30492   3.919   3.891   1.321 -0.3055  1.4757 -0.2011
  232MOL0     O30493   4.095   2.521  10.032 -0.1269 -0.6100  0.2430
  232MOL0     C30494   4.054   2.495  10.146 -0.2842 -0.4684  0.3074
  232MOL0     O30495   4.126   2.421  10.233  0.0111  0.1662  0.8219
  232MOL0     C30496   4.259   2.417  10.239  0.2199 -0.5973  0.0736
  232MOL0     C30497   4.343   2.521  10.189 -0.1571  0.1713 -0.1566
  232MOL0     C30498   4.483   2.521  10.198 -0.3328 -0.6146 -0.0168
  232MOL0     C30499   4.545   2.417  10.263  0.9027  0.2333 -0.0734
  232MOL0     O30500   4.687   2.407  10.270  0.9147  0.9125 -0.8955
  232MOL0     C30501   4.767   2.518  10.237  0.4952 -0.7399 -0.1626
  232MOL0     C30502   4.909   2.472  10.265  0.2963 -0.5761  0.3518
  232MOL0     C30503   5.007   2.583  10.275  0.2100  0.4059 -1.2661
  232MOL0     C30504   5.076   2.621  10.143  0.3125  0.6689 -0.3111
  232MOL0     C30505   5.137   2.759  10.146  0.7920  0.0001 -0.7254
  232MOL0     C30506   5.234   2.801  10.038  0.2692 -0.1006 -0.2790
  232MOL0     C30507   5.184   2.787   9.894 -0.1992  0.5590  0.1465
  232MOL0     C30508   5.048   2.864   9.868 -0.2699  0.0096 -0.0502
  232MOL0     N30509   4.928   2.778   9.879 -0.4948 -0.4711  0.3351
  232MOL0     C30510   4.871   2.691   9.788  0.5502  0.6000  0.6285
  232MOL0     C30511   4.748   2.659   9.846 -0.9050  0.6845  0.4741
  232MOL0     C30512   4.662   2.547   9.795  0.4085  0.4006  0.2531
  232MOL0     C30513   4.691   2.406   9.860 -0.0282 -0.6666  0.3609
  232MOL0     C30514   4.601   2.290   9.817 -0.6724 -0.1584  0.5701
  232MOL0     C30515   4.461   2.281   9.864  0.4833  0.0843  0.0750
  232MOL0     O30516   4.412   2.146   9.833 -0.1782  0.0998 -0.1762
  232MOL0     C30517   4.287   2.100   9.875  0.2872  0.7511 -0.1758
  232MOL0     C30518   4.208   2.160   9.977 -0.2447 -0.5560  0.2889
  232MOL0     C30519   4.088   2.098  10.022 -0.6657  0.1189  0.1095
  232MOL0     C30520   4.035   1.993   9.953  0.0807  1.2020 -0.0581
  232MOL0     C30521   3.903   1.936   9.986  0.5804  0.0175 -1.0170
  232MOL0     O30522   3.847   1.968  10.109 -0.4184 -0.3777 -0.8500
  232MOL0     C30523   3.723   1.916  10.156 -0.2595  0.3852 -0.1884
  232MOL0     C30524   3.630   1.833  10.080 -0.6716  0.0503 -0.5425
  232MOL0     C30525   3.511   1.795  10.141  0.2380  0.2887  0.4655
  232MOL0     C30526   3.461   1.850  10.258  0.8840  0.3650 -0.3431
  232MOL0     O30527   3.333   1.837  10.314  0.0104 -0.1407  0.0548
  232MOL0     C30528   3.224   1.831  10.221 -0.1363 -0.1093 -0.9933
  232MOL0     C30529   3.095   1.826  10.308  0.2949  0.6090  0.8987
  232MOL0     C30530   2.977   1.780  10.211 -0.5483 -0.2212 -0.4177
  232MOL0     C30531   2.845   1.811  10.275 -0.5036 -0.1564 -0.1451
  232MOL0     C30532   2.747   1.728  10.196 -0.2499  1.0759  0.8782
  232MOL0     C30533   2.602   1.778  10.230 -0.7404 -0.2012 -0.5009
  232MOL0     C30534   2.489   1.731  10.138  0.0661 -0.1775  0.0291
  232MOL0     C30535   2.365   1.814  10.164  0.1917  0.2993 -0.6207
  232MOL0    Cl30536   2.225   1.726  10.112 -0.1494  0.0294  0.4472
  232MOL0     C30537   3.550   1.934  10.321 -0.1054 -0.5618  0.2851
  232MOL0     C30538   3.680   1.969  10.282  0.0095  0.9973 -0.0763
  232MOL0     O30539   3.847   1.863   9.898 -0.2977 -0.2637 -0.3806
  232MOL0     C30540   4.113   1.937   9.845  0.2040 -0.2593 -0.4226
  232MOL0     C30541   4.236   1.988   9.809 -0.1372  0.6565 -0.5021
  232MOL0     N30542   4.730   2.729   9.963  0.6339  0.0300 -0.1407
  232MOL0     N30543   4.836   2.801   9.974 -0.2243 -0.2262 -0.6405
  232MOL0     C30544   4.466   2.308  10.305 -0.4645 -0.6396 -0.0072
  232MOL0     C30545   4.328   2.311  10.306  0.2725 -0.6073 -0.0334
  232MOL0     C30546   3.924   2.559  10.176 -0.1876 -0.5652 -1.3440
  232MOL0     C30547   3.848   2.628  10.082 -0.2475 -0.1466  0.2966
  232MOL0     C30548   3.721   2.682  10.114  0.7771 -0.9138  0.1135
  232MOL0     C30549   3.664   2.674  10.243 -0.0639 -0.1725  0.8711
  232MOL0     O30550   3.548   2.733  10.280  0.1238 -0.3643 -0.3158
  232MOL0     C30551   3.461   2.794  10.190 -0.3987 -0.8796  0.6150
  232MOL0     C30552   3.368   2.701  10.110  0.2283 -0.7220  1.3370
  232MOL0     C30553   3.242   2.769  10.051 -0.7162  0.3479  0.7065
  232MOL0     C30554   3.145   2.668   9.992 -0.6502  1.1656  0.3835
  232MOL0     C30555   3.192   2.574   9.888 -0.5570 -0.6486 -0.8731
  232MOL0     C30556   3.228   2.497   9.799  0.3814  1.2139  0.5203
  232MOL0     C30557   3.736   2.593  10.338  0.1219 -0.0041  0.0695
  232MOL0     C30558   3.864   2.540  10.304  0.3627 -0.7100  0.2536
  232MOL0     H30559   4.292   2.600  10.135 -1.2725  0.5843  1.4502
  232MOL0     H30560   4.529   2.612  10.160 -0.7678  0.7633  2.5590
  232MOL0     H30561   4.749   2.608  10.296  0.7702 -1.1587  0.5785
  232MOL0     H30562   4.742   2.551  10.136 -2.7802  1.5430  1.2290
  232MOL0     H30563   4.946   2.399  10.193  1.6690 -0.2556  0.6969
  232MOL0     H30564   4.912   2.431  10.367 -1.2640  2.2549  1.6618
  232MOL0     H30565   5.083   2.550  10.346 -1.8787 -3.4793 -0.5303
  232MOL0     H30566   4.965   2.668  10.328  0.3285  0.4634 -1.2652
  232MOL0     H30567   5.139   2.535  10.115 -0.6547  0.0559 -0.6687
  232MOL0     H30568   5.008   2.614  10.058  1.2537 -0.9460 -0.9878
  232MOL0     H30569   5.189   2.764  10.242 -2.2902  0.1605  1.0457
  232MOL0     H30570   5.053   2.828  10.146 -0.3356 -1.3192 -1.3805
  232MOL0     H30571   5.326   2.744  10.048  2.4637  2.2597 -4.2970
  232MOL0     H30572   5.266   2.905  10.053  1.3598 -0.3191 -1.0085
  232MOL0     H30573   5.258   2.826   9.824 -1.5877  1.1746 -1.0572
  232MOL0     H30574   5.161   2.682   9.871 -1.5026  0.4610  1.7267
  232MOL0     H30575   5.062   2.885   9.762 -0.0389 -1.2602 -0.2953
  232MOL0     H30576   5.058   2.945   9.940  2.7157 -0.3606  0.0522
  232MOL0     H30577   4.909   2.656   9.692 -3.2248 -1.3402 -0.3506
  232MOL0     H30578   4.670   2.546   9.686 -0.5962  2.5183  0.1305
  232MOL0     H30579   4.557   2.560   9.822  0.2655 -0.5680  0.2195
  232MOL0     H30580   4.671   2.407   9.968 -1.4253  1.0384  0.1375
  232MOL0     H30581   4.797   2.381   9.847  0.5717 -0.4490  3.7791
  232MOL0     H30582   4.593   2.291   9.708 -0.8862  1.6184  0.5825
  232MOL0     H30583   4.654   2.195   9.832 -4.0903 -2.0546  1.8091
  232MOL0     H30584   4.393   2.349   9.812 -0.5960  1.6789  3.2833
  232MOL0     H30585   4.444   2.308   9.969  3.0210  0.0200  0.5638
  232MOL0     H30586   4.241   2.252  10.024 -0.1971 -1.6236  2.4417
  232MOL0     H30587   4.042   2.150  10.105 -0.0171  2.7892 -1.1116
  232MOL0     H30588   3.651   1.794   9.981 -2.3591 -1.1466 -0.4713
  232MOL0     H30589   3.445   1.728  10.087 -0.5278 -1.2476  3.0920
  232MOL0     H30590   3.220   1.736  10.167  0.4922 -1.7028  1.5789
  232MOL0     H30591   3.230   1.917  10.153 -3.0209  2.0994  1.3008
  232MOL0     H30592   3.066   1.926  10.342 -3.5132 -0.4445  1.2019
  232MOL0     H30593   3.104   1.755  10.391 -1.4372 -0.6070  0.0992
  232MOL0     H30594   2.998   1.673  10.201 -0.9075 -0.1531 -2.3966
  232MOL0     H30595   2.993   1.830  10.115  1.8720 -1.6889 -0.8760
  232MOL0     H30596   2.842   1.793  10.383 -2.6151  1.9893  0.2278
  232MOL0     H30597   2.825   1.915  10.248  2.4937 -0.3539 -4.0119
  232MOL0     H30598   2.752   1.621  10.216  1.3056  0.9461 -0.0889
  232MOL0     H30599   2.757   1.742  10.088  0.1605  1.7691  1.0012
  232MOL0     H30600   2.604   1.886  10.215  2.5094 -0.5089 -4.0131
  232MOL0     H30601   2.584   1.746  10.333 -0.0806 -1.0134 -0.6169
  232MOL0     H30602   2.533   1.731  10.038  1.3048 -2.7964  0.4987
  232MOL0     H30603   2.466   1.626  10.157  1.2985 -0.5814 -0.6091
  232MOL0     H30604   2.372   1.911  10.115 -0.5673  1.0183  0.6486
  232MOL0     H30605   2.361   1.828  10.273  2.6200  1.7033 -0.6403
  232MOL0     H30606   3.512   1.967  10.418 -0.2546 -1.9726  0.7255
  232MOL0     H30607   3.739   2.037  10.342  1.7491  0.2915 -0.9230
  232MOL0     H30608   4.063   1.859   9.788  1.9153 -0.5820 -1.5458
  232MOL0     H30609   4.279   1.940   9.721 -1.6957  2.1456 -2.1710
  232MOL0     H30610   4.523   2.221  10.336  3.4772  0.8671 -2.3815
  232MOL0     H30611   4.277   2.232  10.361 -0.8555  0.4854  0.5421
  232MOL0     H30612   3.877   2.629   9.978  0.9008  3.5039  0.4810
  232MOL0     H30613   3.677   2.725  10.024  1.3023  0.7340  0.6153
  232MOL0     H30614   3.505   2.871  10.125 -0.0061  1.7633  3.7415
  232MOL0     H30615   3.391   2.848  10.255 -0.7897 -1.2150  0.4762
  232MOL0     H30616   3.430   2.656  10.031 -0.6038  0.6344 -0.1616
  232MOL0     H30617   3.339   2.609  10.161 -2.4910 -0.1475  0.9852
  232MOL0     H30618   3.280   2.833   9.972 -1.2220 -0.1940  0.0155
  232MOL0     H30619   3.215   2.833  10.135  1.8145  1.4677  0.7505
  232MOL0     H30620   3.101   2.608  10.072 -1.4644  0.1918 -0.7550
  232MOL0     H30621   3.059   2.725   9.954  1.3532  1.3844 -4.5651
  232MOL0     H30622   3.248   2.423   9.724 -2.0222  4.5213 -3.7925
  232MOL0     H30623   3.677   2.556  10.420  2.0111  0.5561  1.7699
  232MOL0     H30624   3.911   2.469  10.371  0.5222 -2.1448 -1.3139
  233MOL0     O30625   2.802   1.148   3.496 -0.1680 -0.0452  0.2026
  233MOL0     C30626   2.831   1.249   3.431 -0.7097  0.3183  1.0246
  233MOL0     O30627   2.749   1.322   3.350  0.2968 -0.5603 -0.2468
  233MOL0     C30628   2.618   1.289   3.351  0.3250 -1.1034 -0.2995
  233MOL0     C30629   2.547   1.243   3.240 -0.3852 -0.2586  0.2636
  233MOL0     C30630   2.411   1.207   3.246  0.0133 -0.7917  0.4426
  233MOL0     C30631   2.340   1.228   3.365 -0.3344 -0.1990 -0.2074
  233MOL0     O30632   2.208   1.209   3.371  1.0016 -0.4623 -0.2729
  233MOL0     C30633   2.141   1.099   3.308 -0.2050 -0.1328 -0.5526
  233MOL0     C30634   1.997   1.099   3.366 -0.0401 -0.3722  0.1566
  233MOL0     C30635   1.917   0.979   3.314  0.5348 -0.3117 -0.2306
  233MOL0     C30636   1.796   0.964   3.401 -0.3192  0.5166 -0.0436
  233MOL0     C30637   1.728   0.824   3.396 -0.3064 -0.7821  0.5739
  233MOL0     C30638   1.677   0.793   3.254 -0.0742 -0.6950  0.1912
  233MOL0     C30639   1.623   0.652   3.236  0.6281 -0.0726 -0.0418
  233MOL0     C30640   1.497   0.617   3.308  0.2647  0.0798  0.2682
  233MOL0     N30641   1.383   0.692   3.257  0.2533  0.2209 -0.3989
  233MOL0     C30642   1.328   0.815   3.288  0.1691 -0.2234  0.5725
  233MOL0     C30643   1.227   0.837   3.204 -0.2948  0.4338 -0.4825
  233MOL0     C30644   1.157   0.969   3.208  0.3637 -0.6658 -0.3237
  233MOL0     C30645   1.091   1.016   3.338 -0.5853 -0.0456 -0.7595
  233MOL0     C30646   0.973   0.935   3.382 -0.6116 -0.1422  0.5620
  233MOL0     C30647   0.859   0.905   3.288 -0.5303  0.1383  0.5412
  233MOL0     O30648   0.760   0.998   3.298 -1.0997  0.3382  0.1760
  233MOL0     C30649   0.629   0.969   3.284 -0.2316  0.8983  0.2852
  233MOL0     C30650   0.538   1.049   3.348  0.5150 -0.0067 -0.0213
  233MOL0     C30651   0.397   1.027   3.318 -0.2719  0.3507  0.2517
  233MOL0     C30652   0.363   0.913   3.242  0.8061  0.5983 -0.3006
  233MOL0     C30653   0.217   0.875   3.239  0.5920  1.1165  0.7486
  233MOL0     O30654   0.185   0.739   3.255 -0.4008 -0.1648  0.1729
  233MOL0     C30655   0.049   0.704   3.279 -0.3613 -0.4646 -0.1301
  233MOL0     C30656   0.007   0.580   3.221 -0.5444 -0.2107 -0.8471
  233MOL0     C30657  -0.123   0.539   3.221 -0.3373 -0.5601 -0.2248
  233MOL0     C30658  -0.213   0.622   3.292  0.2523 -0.1726 -0.9453
  233MOL0     O30659  -0.347   0.587   3.310 -1.0128 -0.0499 -0.5272
  233MOL0     C30660  -0.398   0.469   3.264  0.5340  1.1976  0.0820
  233MOL0     C30661  -0.552   0.489   3.268  0.3969  0.3161  1.0743
  233MOL0     C30662  -0.637   0.372   3.193 -0.1485 -0.0809 -0.7440
  233MOL0     C30663  -0.792   0.389   3.198  0.3840 -0.1475 -0.1648
  233MOL0     C30664  -0.862   0.284   3.108 -0.5618  0.2806  0.6443
  233MOL0     C30665  -1.015   0.323   3.118 -0.3570 -1.2517  0.0403
  233MOL0     C30666  -1.093   0.189   3.101  0.8258 -0.2908 -0.2903
  233MOL0     C30667  -1.245   0.221   3.097  0.4441 -0.3694  0.1991
  233MOL0    Cl30668  -1.329   0.061   3.108 -0.2717 -0.6833  0.1091
  233MOL0     C30669  -0.179   0.743   3.350 -0.0907 -0.3775 -0.5695
  233MOL0     C30670  -0.054   0.787   3.340 -0.1921 -0.0835 -0.6701
  233MOL0     O30671   0.135   0.964   3.234 -0.3241 -0.1265  0.3134
  233MOL0     C30672   0.462   0.833   3.193 -0.1723 -1.2636  0.5914
  233MOL0     C30673   0.599   0.852   3.218  0.1399 -0.6703  0.6100
  233MOL0     N30674   1.203   0.730   3.122 -1.0558  0.1146 -0.3654
  233MOL0     N30675   1.307   0.646   3.148  0.0507 -0.3600 -0.8991
  233MOL0     C30676   2.411   1.285   3.473 -0.2723  0.6536 -0.3550
  233MOL0     C30677   2.546   1.309   3.472  0.0610  0.6081 -0.5867
  233MOL0     C30678   2.965   1.291   3.451 -0.0139  0.4576 -1.2319
  233MOL0     C30679   3.024   1.379   3.359  0.0486  0.7827 -0.4352
  233MOL0     C30680   3.159   1.422   3.381  0.5594  0.7109 -0.2086
  233MOL0     C30681   3.232   1.376   3.491 -0.6619 -0.4733  0.1411
  233MOL0     O30682   3.363   1.423   3.502 -0.0286  1.4548 -0.0085
  233MOL0     C30683   3.473   1.331   3.544 -0.3493 -0.1866  0.5633
  233MOL0     C30684   3.504   1.241   3.425 -0.0120  0.3160 -0.0807
  233MOL0     C30685   3.654   1.201   3.432 -0.5981 -0.2760 -0.1260
  233MOL0     C30686   3.720   1.145   3.307 -0.1549  0.2051 -0.1579
  233MOL0     C30687   3.863   1.123   3.327 -0.3215 -0.3537  0.0884
  233MOL0     C30688   3.982   1.100   3.319 -0.2228 -0.3164 -0.4925
  233MOL0     C30689   3.177   1.285   3.580  0.4791 -0.2111 -0.1542
  233MOL0     C30690   3.045   1.248   3.561 -0.3059  0.0826  0.4017
  233MOL0     H30691   2.595   1.245   3.143 -0.6906  1.6216  0.1147
  233MOL0     H30692   2.362   1.170   3.156 -1.1039 -0.8700  1.0658
  233MOL0     H30693   2.197   1.008   3.331 -3.1565 -2.1932 -0.9806
  233MOL0     H30694   2.143   1.114   3.199  0.5422  0.4479 -0.4711
  233MOL0     H30695   1.946   1.192   3.340  0.8430  0.6418  1.8960
  233MOL0     H30696   2.012   1.092   3.474 -0.4331 -2.0010  0.1292
  233MOL0     H30697   1.969   0.883   3.325 -0.5299 -0.7421  1.4379
  233MOL0     H30698   1.893   0.982   3.207  1.1075 -0.2636 -0.3647
  233MOL0     H30699   1.806   0.988   3.507 -2.5383  0.1448  0.3138
  233MOL0     H30700   1.718   1.023   3.350 -1.6367 -1.0226  0.0932
  233MOL0     H30701   1.643   0.823   3.465 -0.4663  0.6407  0.4245
  233MOL0     H30702   1.777   0.740   3.446  0.7758 -0.2218  0.4797
  233MOL0     H30703   1.756   0.818   3.182  0.9204  0.7253  1.6808
  233MOL0     H30704   1.596   0.865   3.244  2.3404  2.7274  2.6770
  233MOL0     H30705   1.610   0.638   3.128  2.1988  1.2639 -0.4526
  233MOL0     H30706   1.701   0.578   3.255  0.4246  0.2376  2.2163
  233MOL0     H30707   1.504   0.639   3.415 -1.4591  2.4188 -0.0138
  233MOL0     H30708   1.489   0.508   3.300 -1.5555  0.2063 -0.0561
  233MOL0     H30709   1.368   0.890   3.355 -0.7699  0.7751  0.0623
  233MOL0     H30710   1.088   0.964   3.123 -0.3962  0.4665  0.2145
  233MOL0     H30711   1.231   1.045   3.182 -0.2112  0.1842  0.4817
  233MOL0     H30712   1.054   1.117   3.319 -0.8111  0.1575  0.6168
  233MOL0     H30713   1.167   1.016   3.417 -0.8495 -1.3587 -0.4892
  233MOL0     H30714   1.033   0.844   3.395  0.7131  1.0174  3.1287
  233MOL0     H30715   0.939   0.972   3.479  1.9954  2.1203  0.7229
  233MOL0     H30716   0.827   0.802   3.308 -0.5492  0.1963  0.8139
  233MOL0     H30717   0.898   0.898   3.186 -0.7264 -0.0230  0.4759
  233MOL0     H30718   0.575   1.131   3.409  1.1326 -0.1508 -0.1996
  233MOL0     H30719   0.318   1.081   3.368 -1.0021 -1.1270  0.7271
  233MOL0     H30720   0.079   0.519   3.166 -0.9976 -2.4233  0.8609
  233MOL0     H30721  -0.138   0.450   3.160 -0.2214 -0.9293  0.2697
  233MOL0     H30722  -0.365   0.385   3.326  1.3652 -0.4331 -2.4292
  233MOL0     H30723  -0.368   0.451   3.161 -0.3901 -1.3149  0.1841
  233MOL0     H30724  -0.573   0.587   3.224 -0.3423  0.8922  2.6016
  233MOL0     H30725  -0.589   0.486   3.371  2.4921  0.1459  1.8634
  233MOL0     H30726  -0.618   0.277   3.244 -2.7764  0.1618  0.8600
  233MOL0     H30727  -0.608   0.362   3.088  0.6086  0.5859 -0.6047
  233MOL0     H30728  -0.833   0.378   3.298  0.2678 -0.7722 -0.2728
  233MOL0     H30729  -0.822   0.482   3.149  1.3825 -1.2542 -3.1625
  233MOL0     H30730  -0.850   0.181   3.145 -0.9186  0.8765  2.5354
  233MOL0     H30731  -0.833   0.301   3.004  2.3864  0.1751  1.3704
  233MOL0     H30732  -1.040   0.389   3.035  0.3695 -4.5536 -3.0723
  233MOL0     H30733  -1.044   0.363   3.215 -0.4542 -1.9980  0.3321
  233MOL0     H30734  -1.063   0.142   3.007 -1.2579 -1.9993 -0.1712
  233MOL0     H30735  -1.063   0.129   3.187 -0.9574 -0.2455  0.3976
  233MOL0     H30736  -1.267   0.269   3.002  2.4880 -0.1229 -0.1930
  233MOL0     H30737  -1.278   0.281   3.182  2.6661  1.4909 -0.1664
  233MOL0     H30738  -0.260   0.801   3.394 -0.5713 -1.3127 -0.1921
  233MOL0     H30739  -0.020   0.879   3.387  0.3670 -0.1666 -0.9054
  233MOL0     H30740   0.433   0.754   3.124  0.6923  0.1030 -1.4422
  233MOL0     H30741   0.675   0.794   3.167  0.1046 -1.9985  2.0212
  233MOL0     H30742   2.348   1.302   3.559 -1.3464  1.4095 -1.2549
  233MOL0     H30743   2.604   1.340   3.558 -1.2904  1.4011  0.0515
  233MOL0     H30744   2.979   1.423   3.270 -0.7116  0.5689 -0.1675
  233MOL0     H30745   3.189   1.487   3.300  1.5242  1.4477  0.7158
  233MOL0     H30746   3.445   1.275   3.634  0.9386  0.2258  1.2355
  233MOL0     H30747   3.551   1.406   3.557  0.3558 -0.8760  0.3322
  233MOL0     H30748   3.453   1.144   3.425  1.2947 -0.4407  1.4634
  233MOL0     H30749   3.476   1.299   3.337 -0.0196  0.4963  0.0397
  233MOL0     H30750   3.652   1.129   3.514  0.1869  0.7084  0.7913
  233MOL0     H30751   3.716   1.284   3.469 -0.2552 -1.4279  2.0170
  233MOL0     H30752   3.679   1.045   3.288 -1.4196  0.6831 -0.0358
  233MOL0     H30753   3.707   1.207   3.218  1.4922  2.1081  0.8420
  233MOL0     H30754   4.086   1.076   3.303  1.3621  2.1834  4.0933
  233MOL0     H30755   3.226   1.244   3.667  0.2966 -2.3392 -1.0047
  233MOL0     H30756   3.016   1.177   3.638  2.2771 -1.9451 -0.3522
  234MOL0     O30757   8.975   8.098  10.702  0.8217 -0.7526  0.3490
  234MOL0     C30758   8.947   8.030  10.609  0.3488 -0.8243 -0.0916
  234MOL0     O30759   8.825   8.026  10.551  0.0400  0.2226  0.1091
  234MOL0     C30760   8.727   8.114  10.595 -0.3156  0.2170 -0.6036
  234MOL0     C30761   8.613   8.064  10.655 -0.2756  0.8867  0.0261
  234MOL0     C30762   8.516   8.142  10.714  0.4352 -0.0066  0.2443
  234MOL0     C30763   8.532   8.283  10.711  0.1315  0.2675  0.7873
  234MOL0     O30764   8.428   8.356  10.762 -0.5542  0.4251 -0.4418
  234MOL0     C30765   8.301   8.331  10.706 -0.3086  0.5716  0.3957
  234MOL0     C30766   8.218   8.461  10.734 -0.1401  0.8406 -0.4088
  234MOL0     C30767   8.072   8.448  10.683 -1.4336 -0.0976  0.5517
  234MOL0     C30768   7.975   8.358  10.763 -0.0127  0.3377  0.2760
  234MOL0     C30769   7.829   8.339  10.705  0.9019 -0.5247  0.1963
  234MOL0     C30770   7.754   8.472  10.672 -0.4579  1.0976  0.3930
  234MOL0     C30771   7.638   8.450  10.575  0.2456 -0.1716 -0.2022
  234MOL0     C30772   7.536   8.351  10.637  0.0869 -0.6859 -0.5901
  234MOL0     N30773   7.472   8.406  10.758 -0.6520  1.1065 -0.9901
  234MOL0     C30774   7.344   8.458  10.760  0.4395 -0.5794 -1.0266
  234MOL0     C30775   7.320   8.489  10.886 -0.6115  1.0467  0.4868
  234MOL0     C30776   7.196   8.551  10.935  0.9167 -0.5125 -0.6872
  234MOL0     C30777   7.107   8.460  11.020  0.1628 -0.2293 -0.8836
  234MOL0     C30778   6.986   8.514  11.096 -0.2152 -0.1312  0.1068
  234MOL0     C30779   6.891   8.604  11.016  0.3615  0.5901  0.3385
  234MOL0     O30780   6.787   8.663  11.101  0.0469 -0.0580  0.3600
  234MOL0     C30781   6.686   8.718  11.032 -0.1121  0.2737 -0.6644
  234MOL0     C30782   6.709   8.844  10.971 -0.3088 -1.1153  0.6761
  234MOL0     C30783   6.598   8.911  10.919  0.9863  0.2689 -0.0042
  234MOL0     C30784   6.482   8.845  10.914  0.3423 -0.5775 -0.3665
  234MOL0     C30785   6.369   8.897  10.830  0.5453 -0.8351  0.8381
  234MOL0     O30786   6.257   8.821  10.825  0.3593 -0.4438  0.6741
  234MOL0     C30787   6.146   8.888  10.799  0.1329 -0.5366  0.1540
  234MOL0     C30788   6.096   8.992  10.886 -0.3050 -0.5995  0.5084
  234MOL0     C30789   5.967   9.043  10.868  0.4044 -0.0958  0.2695
  234MOL0     C30790   5.889   9.000  10.756 -0.0898 -0.4188  0.4280
  234MOL0     O30791   5.757   9.042  10.758  0.2243  0.3092 -0.1704
  234MOL0     C30792   5.690   9.028  10.638  0.4901 -0.1373  0.0863
  234MOL0     C30793   5.563   9.115  10.626  0.5829 -0.0731 -0.2547
  234MOL0     C30794   5.537   9.153  10.483 -0.5563 -0.2804 -0.2979
  234MOL0     C30795   5.400   9.214  10.457 -0.8178 -0.1985  1.3885
  234MOL0     C30796   5.393   9.298  10.326 -0.4645  0.4135 -0.1439
  234MOL0     C30797   5.484   9.429  10.332 -0.4032 -0.2436 -0.0299
  234MOL0     C30798   5.436   9.516  10.454 -0.0190 -0.4198  0.8634
  234MOL0     C30799   5.439   9.664  10.428 -0.1637  0.0255 -0.2782
  234MOL0    Cl30800   5.387   9.744  10.588  0.0684  0.1334  0.2192
  234MOL0     C30801   5.940   8.902  10.668  0.3998  0.1884 -0.0821
  234MOL0     C30802   6.076   8.849  10.683  1.1640 -0.4366 -0.8298
  234MOL0     O30803   6.379   9.012  10.788  0.1443 -0.1576  0.6448
  234MOL0     C30804   6.469   8.715  10.967 -0.1908 -0.2636 -0.7403
  234MOL0     C30805   6.573   8.648  11.027  0.0933  0.3078 -0.7094
  234MOL0     N30806   7.437   8.461  10.962 -0.1695  0.7554  0.1287
  234MOL0     N30807   7.525   8.402  10.885 -0.6957  0.5410 -0.2680
  234MOL0     C30808   8.638   8.337  10.646 -0.1232 -0.3646 -0.2546
  234MOL0     C30809   8.732   8.255  10.588  0.2643  0.8377  0.0946
  234MOL0     C30810   9.053   7.942  10.557  0.3384  0.8706 -0.4721
  234MOL0     C30811   9.015   7.823  10.485 -0.0237 -0.6461  0.3071
  234MOL0     C30812   9.119   7.738  10.447  0.7152 -0.1345 -0.7709
  234MOL0     C30813   9.257   7.763  10.484  0.9060  0.0315  0.2546
  234MOL0     O30814   9.348   7.667  10.444  0.7729 -0.3000  0.4428
  234MOL0     C30815   9.463   7.665  10.524  0.6925  0.5687 -0.3088
  234MOL0     C30816   9.565   7.557  10.478 -0.5323  0.5336 -0.5522
  234MOL0     C30817   9.604   7.576  10.321 -0.2732  0.5348  0.0027
  234MOL0     C30818   9.694   7.456  10.285  0.2820  0.4414 -0.2049
  234MOL0     C30819   9.738   7.438  10.149 -0.0481  0.3457 -0.3187
  234MOL0     C30820   9.765   7.420  10.035 -0.0921 -0.9296  0.2203
  234MOL0     C30821   9.288   7.887  10.546 -0.2687  0.4388  0.1492
  234MOL0     C30822   9.188   7.978  10.581  0.0940 -0.2591  0.3546
  234MOL0     H30823   8.584   7.963  10.627 -0.7554  0.5866  1.5552
  234MOL0     H30824   8.421   8.101  10.747 -1.3771  3.0887 -0.7471
  234MOL0     H30825   8.249   8.249  10.757 -0.5573  1.5562  1.8059
  234MOL0     H30826   8.295   8.306  10.600 -1.7223  1.0350  0.3428
  234MOL0     H30827   8.265   8.539  10.674  0.3819 -0.3362 -1.5725
  234MOL0     H30828   8.219   8.477  10.842 -0.0717 -2.5016  0.1894
  234MOL0     H30829   8.073   8.411  10.580  3.8627  1.0833 -0.0910
  234MOL0     H30830   8.025   8.547  10.683 -1.1944  0.0486  2.0153
  234MOL0     H30831   8.011   8.255  10.761 -1.5310 -0.2143 -1.6016
  234MOL0     H30832   7.984   8.387  10.869 -0.4460 -0.2797  0.4876
  234MOL0     H30833   7.770   8.278  10.774 -4.1077 -0.7776 -3.7170
  234MOL0     H30834   7.843   8.288  10.609  1.9027  1.0504 -0.5457
  234MOL0     H30835   7.813   8.554  10.628 -0.4828  0.1740 -1.4571
  234MOL0     H30836   7.702   8.508  10.761 -2.6298 -0.8138 -0.0205
  234MOL0     H30837   7.582   8.539  10.545 -0.0961 -0.3050  0.0327
  234MOL0     H30838   7.671   8.397  10.485  1.1370 -0.7657  0.4585
  234MOL0     H30839   7.584   8.258  10.668  0.6688  0.0560  0.7934
  234MOL0     H30840   7.464   8.314  10.563  0.1444  0.6128 -1.3372
  234MOL0     H30841   7.272   8.470  10.680 -0.5612  0.4010 -0.0172
  234MOL0     H30842   7.140   8.595  10.853 -0.9995  0.6065  1.1226
  234MOL0     H30843   7.230   8.629  11.005 -0.3008 -2.7231  2.6518
  234MOL0     H30844   7.176   8.422  11.096 -1.0890  1.5421  1.2464
  234MOL0     H30845   7.062   8.374  10.970  0.4888  0.1269 -1.8181
  234MOL0     H30846   6.930   8.424  11.122 -1.1788 -0.6073 -3.0966
  234MOL0     H30847   7.024   8.558  11.188 -2.5358  0.3115  0.9360
  234MOL0     H30848   6.841   8.555  10.931  1.3031  1.6386 -0.8597
  234MOL0     H30849   6.951   8.686  10.975 -1.2495  1.6644  0.0216
  234MOL0     H30850   6.810   8.881  10.960 -1.6436  2.4825 -0.8670
  234MOL0     H30851   6.610   9.007  10.871  2.1990 -0.9043 -2.2115
  234MOL0     H30852   6.137   9.009  10.985 -3.1972 -2.0838  2.1076
  234MOL0     H30853   5.915   9.114  10.931 -0.5751  1.2817 -1.9712
  234MOL0     H30854   5.670   8.922  10.625  0.6072 -0.1902  0.3255
  234MOL0     H30855   5.752   9.065  10.556  0.7460  0.3440  0.4850
  234MOL0     H30856   5.585   9.208  10.680  2.7882 -1.7259  2.0057
  234MOL0     H30857   5.484   9.058  10.675  2.8177 -0.7103  2.9888
  234MOL0     H30858   5.539   9.064  10.420 -2.9572  1.6324 -3.3434
  234MOL0     H30859   5.623   9.216  10.456 -1.3038  1.6442  1.4848
  234MOL0     H30860   5.327   9.132  10.455 -2.5185  1.2629  0.0667
  234MOL0     H30861   5.378   9.285  10.538  1.1252  0.7140  1.1819
  234MOL0     H30862   5.292   9.336  10.304 -0.3480  2.2799  2.1380
  234MOL0     H30863   5.437   9.232  10.251  0.3356  2.0671 -1.2036
  234MOL0     H30864   5.462   9.489  10.243  0.2427  0.7820  0.4909
  234MOL0     H30865   5.590   9.408  10.348 -0.7293 -0.2141  2.6297
  234MOL0     H30866   5.330   9.492  10.463 -0.4284  0.1166 -1.7718
  234MOL0     H30867   5.492   9.483  10.542 -0.3951 -4.4463 -0.2399
  234MOL0     H30868   5.380   9.687  10.339 -0.2206 -1.8299 -0.7543
  234MOL0     H30869   5.542   9.690  10.400 -0.4907  1.1544 -0.4976
  234MOL0     H30870   5.874   8.874  10.587  0.3778  1.4962 -0.5325
  234MOL0     H30871   6.116   8.775  10.615 -1.1631 -1.7702 -0.8754
  234MOL0     H30872   6.371   8.668  10.964 -1.6966  2.5425  0.3695
  234MOL0     H30873   6.560   8.550  11.071 -1.0222 -0.0803 -1.8508
  234MOL0     H30874   8.646   8.445  10.638 -2.1763 -0.1306  0.4421
  234MOL0     H30875   8.811   8.294  10.525 -0.7001  0.4824 -1.4042
  234MOL0     H30876   8.912   7.798  10.459 -0.6439 -0.5336  2.4396
  234MOL0     H30877   9.094   7.652  10.387  1.3158  1.0858 -2.8584
  234MOL0     H30878   9.438   7.655  10.630  2.0624  1.8021  0.1784
  234MOL0     H30879   9.513   7.762  10.531 -0.5366  1.0774  3.3163
  234MOL0     H30880   9.655   7.585  10.532 -0.3934  2.4590 -1.6884
  234MOL0     H30881   9.529   7.455  10.495 -0.0100 -0.0842 -2.7550
  234MOL0     H30882   9.651   7.674  10.313 -1.3046  1.2084  1.5170
  234MOL0     H30883   9.508   7.564  10.269 -0.2844 -4.0012  0.6857
  234MOL0     H30884   9.781   7.458  10.350  0.8052  3.8692 -0.7974
  234MOL0     H30885   9.652   7.357  10.305  3.2247 -0.9640 -0.5427
  234MOL0     H30886   9.806   7.410   9.937 -0.8728 -3.2508  0.0698
  234MOL0     H30887   9.392   7.915  10.562 -0.6967  1.3921  1.4696
  234MOL0     H30888   9.214   8.080  10.609 -0.5085 -0.5369  2.0159
  235MOL0     O30889   5.608   2.939   8.890  0.4134  0.0675 -0.1452
  235MOL0     C30890   5.713   3.008   8.907 -0.1938  0.4572 -0.0642
  235MOL0     O30891   5.718   3.141   8.941 -0.3741 -1.0494  0.5357
  235MOL0     C30892   5.612   3.210   8.988 -0.1078  0.5337  0.2164
  235MOL0     C30893   5.582   3.323   8.918  0.2811 -0.1129 -0.6256
  235MOL0     C30894   5.471   3.403   8.958  0.1121 -0.8145  0.4479
  235MOL0     C30895   5.412   3.382   9.083 -0.6655  0.1415 -0.1737
  235MOL0     O30896   5.313   3.463   9.132  0.1751  0.8803  0.3883
  235MOL0     C30897   5.319   3.524   9.267  0.4821  0.0922  0.1435
  235MOL0     C30898   5.387   3.659   9.268  0.0451 -0.6213  0.4335
  235MOL0     C30899   5.325   3.768   9.175 -0.3107  0.2403 -0.2849
  235MOL0     C30900   5.175   3.803   9.192  0.1849  0.2306  0.2716
  235MOL0     C30901   5.155   3.949   9.144  1.1083  0.0473 -0.4292
  235MOL0     C30902   5.009   3.986   9.143 -0.0088  0.0773 -0.0812
  235MOL0     C30903   4.946   3.947   9.018  0.4075 -0.3876  1.0045
  235MOL0     C30904   4.792   3.946   9.016 -0.0667 -0.2265  0.0488
  235MOL0     N30905   4.729   3.853   8.921  0.6655  0.7988 -0.0944
  235MOL0     C30906   4.747   3.848   8.786 -0.5486 -0.7227 -0.6332
  235MOL0     C30907   4.669   3.739   8.747 -0.1966  0.7195 -0.7273
  235MOL0     C30908   4.642   3.686   8.604  0.0320 -0.8345 -0.2919
  235MOL0     C30909   4.593   3.531   8.593 -0.4574 -0.1253 -0.1124
  235MOL0     C30910   4.558   3.485   8.447 -0.0148  0.1204 -0.2237
  235MOL0     C30911   4.553   3.335   8.429  0.6627 -0.2736  0.5550
  235MOL0     O30912   4.464   3.275   8.523  0.0105 -0.2701  0.3359
  235MOL0     C30913   4.332   3.284   8.519 -0.0238 -0.4056  0.4892
  235MOL0     C30914   4.265   3.280   8.402 -0.1027  0.0672 -0.5052
  235MOL0     C30915   4.124   3.281   8.394 -0.2951  0.2553 -0.3207
  235MOL0     C30916   4.044   3.290   8.509 -0.2819  0.0174 -0.8091
  235MOL0     C30917   3.898   3.286   8.518  0.0433 -0.1218  0.2910
  235MOL0     O30918   3.847   3.251   8.632  0.0272 -0.2708 -0.4983
  235MOL0     C30919   3.711   3.278   8.664 -0.8577  0.0151 -1.2779
  235MOL0     C30920   3.688   3.314   8.800 -0.1251 -0.6041 -0.9938
  235MOL0     C30921   3.564   3.360   8.847  0.0634 -0.2147 -0.2001
  235MOL0     C30922   3.459   3.397   8.759 -0.2449  0.3030 -0.0246
  235MOL0     O30923   3.347   3.442   8.806 -0.6143  0.0940  0.0314
  235MOL0     C30924   3.246   3.503   8.721 -0.4274 -0.0861 -0.0114
  235MOL0     C30925   3.190   3.613   8.809 -0.3386 -0.3546  0.8406
  235MOL0     C30926   3.112   3.711   8.721  0.3436  0.3396  0.2963
  235MOL0     C30927   3.044   3.823   8.804  0.0317  0.3253  0.3039
  235MOL0     C30928   2.989   3.927   8.699 -0.2759 -0.3509  0.5703
  235MOL0     C30929   2.880   3.868   8.614  0.7243 -0.5074 -0.9388
  235MOL0     C30930   2.806   3.985   8.532  0.3241  0.2705  0.4308
  235MOL0     C30931   2.723   3.931   8.416 -0.1688 -0.4049 -0.5055
  235MOL0    Cl30932   2.586   3.819   8.460 -0.0878  0.3939  0.1077
  235MOL0     C30933   3.471   3.347   8.626 -0.9057  0.4280 -0.7142
  235MOL0     C30934   3.597   3.300   8.582 -0.5154 -0.4334 -0.1787
  235MOL0     O30935   3.838   3.322   8.415  0.2372 -0.2871 -0.6643
  235MOL0     C30936   4.114   3.291   8.633  0.3825  0.5958  0.7772
  235MOL0     C30937   4.258   3.291   8.635  0.0413 -0.4120  0.2195
  235MOL0     N30938   4.610   3.692   8.860 -0.0432  0.0828  0.0028
  235MOL0     N30939   4.654   3.750   8.965  0.7161  0.0548  0.3730
  235MOL0     C30940   5.458   3.276   9.160 -0.5380  0.9057 -0.4194
  235MOL0     C30941   5.555   3.188   9.112 -0.0143 -0.7263 -0.8367
  235MOL0     C30942   5.841   2.936   8.904  0.2576  0.5578  0.8224
  235MOL0     C30943   5.948   2.983   8.981  0.0069 -1.1989 -0.0511
  235MOL0     C30944   6.069   2.910   8.978  0.5843 -0.0390 -0.7724
  235MOL0     C30945   6.073   2.786   8.908 -0.2770  0.5222  0.3085
  235MOL0     O30946   6.181   2.705   8.899  0.4590  0.3947 -0.1115
  235MOL0     C30947   6.308   2.774   8.877  0.6560 -0.4612  0.1508
  235MOL0     C30948   6.403   2.669   8.829 -0.7596 -0.5307  0.2513
  235MOL0     C30949   6.536   2.726   8.787 -0.1453 -0.5575 -0.3283
  235MOL0     C30950   6.637   2.778   8.894 -0.0567 -0.8522 -0.0342
  235MOL0     C30951   6.643   2.701   9.019 -0.7001 -0.4365 -0.0658
  235MOL0     C30952   6.639   2.667   9.136 -0.2185  1.0909  0.0927
  235MOL0     C30953   5.970   2.740   8.829  0.7932 -0.5038  0.1808
  235MOL0     C30954   5.847   2.816   8.823  0.4245  0.6158 -0.5146
  235MOL0     H30955   5.629   3.355   8.826  3.0434 -2.8395 -0.3416
  235MOL0     H30956   5.442   3.489   8.899  3.5249  1.8360  2.2696
  235MOL0     H30957   5.381   3.469   9.339  4.6233  1.8887 -1.7114
  235MOL0     H30958   5.220   3.528   9.313  1.0428 -0.5254  1.4487
  235MOL0     H30959   5.491   3.656   9.232 -0.2506  2.6048 -1.0802
  235MOL0     H30960   5.384   3.694   9.371 -0.8621 -0.3882  0.3313
  235MOL0     H30961   5.346   3.727   9.075  0.6421 -2.8690  1.0701
  235MOL0     H30962   5.382   3.861   9.175 -1.1773  0.7926  0.3567
  235MOL0     H30963   5.119   3.728   9.134 -1.1798  1.4679 -0.0750
  235MOL0     H30964   5.134   3.807   9.293 -1.1110  2.1862 -0.2790
  235MOL0     H30965   5.192   3.959   9.041  1.4937  2.1616 -0.1428
  235MOL0     H30966   5.206   4.008   9.221  1.5354 -2.5549  1.4308
  235MOL0     H30967   5.003   4.094   9.153  0.7809  0.0406  0.9068
  235MOL0     H30968   4.952   3.943   9.226  0.8245 -2.1995 -0.6091
  235MOL0     H30969   4.982   4.011   8.937  0.9211 -2.3000 -0.3602
  235MOL0     H30970   4.976   3.844   8.994  1.8886 -0.0366  1.2736
  235MOL0     H30971   4.759   4.050   9.009 -0.5367 -0.4210 -0.7373
  235MOL0     H30972   4.764   3.915   9.117  0.1313 -1.4923 -0.2686
  235MOL0     H30973   4.811   3.912   8.726  2.1031 -3.7447 -1.3310
  235MOL0     H30974   4.737   3.715   8.559  0.4012 -1.8808 -0.1970
  235MOL0     H30975   4.560   3.744   8.558 -1.0973 -2.9628 -1.0796
  235MOL0     H30976   4.511   3.502   8.659  1.1969 -2.4788  1.0645
  235MOL0     H30977   4.681   3.476   8.629 -0.0478 -0.0531 -0.9609
  235MOL0     H30978   4.455   3.516   8.431 -0.1810 -0.1662  0.2701
  235MOL0     H30979   4.628   3.533   8.379 -1.9152  0.4751 -2.0209
  235MOL0     H30980   4.657   3.303   8.436  0.7587 -0.0771  0.0261
  235MOL0     H30981   4.516   3.315   8.328 -0.0594 -0.7928  0.9066
  235MOL0     H30982   4.321   3.272   8.309  0.0232 -2.0851 -0.2986
  235MOL0     H30983   4.073   3.283   8.298  1.8638  1.0759 -1.5233
  235MOL0     H30984   3.761   3.307   8.879 -1.2430  0.6523  0.2020
  235MOL0     H30985   3.547   3.364   8.954  2.0830 -0.3366  0.1766
  235MOL0     H30986   3.175   3.427   8.689 -3.5964  2.6417  0.0420
  235MOL0     H30987   3.293   3.551   8.634  0.0546  0.4246  0.5161
  235MOL0     H30988   3.269   3.663   8.865  0.2794 -0.1806 -0.1585
  235MOL0     H30989   3.117   3.565   8.875  1.6037 -2.3007  1.7163
  235MOL0     H30990   3.048   3.656   8.652 -0.1419  1.6349 -0.3229
  235MOL0     H30991   3.188   3.758   8.659  1.5740 -0.1705  1.3638
  235MOL0     H30992   2.964   3.797   8.874  0.3289 -0.4159  0.3761
  235MOL0     H30993   3.115   3.880   8.864 -2.2752  2.4834  1.1878
  235MOL0     H30994   3.058   3.966   8.623 -3.5987 -1.2624 -3.3068
  235MOL0     H30995   2.955   4.017   8.750  1.8058  0.8730 -0.0959
  235MOL0     H30996   2.800   3.819   8.671  0.9663 -0.0653 -0.2054
  235MOL0     H30997   2.925   3.796   8.544  1.1161 -1.2782  0.0663
  235MOL0     H30998   2.741   4.044   8.597 -0.1728  0.2650 -0.0536
  235MOL0     H30999   2.889   4.044   8.492  1.4200 -1.0747  0.6630
  235MOL0     H31000   2.787   3.878   8.345  0.3605 -0.0923 -0.2675
  235MOL0     H31001   2.680   4.017   8.364 -1.2842 -0.6500 -0.0322
  235MOL0     H31002   3.394   3.363   8.551 -1.4830  2.3619  0.2315
  235MOL0     H31003   3.614   3.285   8.476 -0.7618 -2.5984  0.0398
  235MOL0     H31004   4.064   3.299   8.729  0.3158 -0.1942  0.8177
  235MOL0     H31005   4.310   3.318   8.726  0.3472  4.2235 -1.1060
  235MOL0     H31006   5.422   3.254   9.260 -0.0462  0.2416 -0.3859
  235MOL0     H31007   5.596   3.110   9.175  0.4616  1.3059  1.5484
  235MOL0     H31008   5.933   3.066   9.049 -0.0136 -3.3004  2.7331
  235MOL0     H31009   6.157   2.941   9.032  0.1118 -0.5866  0.3498
  235MOL0     H31010   6.351   2.820   8.966  0.8212 -0.7079  0.1998
  235MOL0     H31011   6.305   2.850   8.798 -0.4158  0.3221  0.9175
  235MOL0     H31012   6.421   2.599   8.911 -0.8436  0.9091  1.5396
  235MOL0     H31013   6.358   2.620   8.742  0.7266 -0.4044 -0.6206
  235MOL0     H31014   6.528   2.810   8.718 -0.5804 -1.7169 -1.7337
  235MOL0     H31015   6.586   2.649   8.728  3.6989  1.2265  0.2735
  235MOL0     H31016   6.739   2.782   8.857  0.0165 -1.1376  0.1338
  235MOL0     H31017   6.613   2.881   8.925  3.0370 -0.5120  1.6369
  235MOL0     H31018   6.621   2.627   9.234 -1.8994 -0.4283 -0.7791
  235MOL0     H31019   5.977   2.644   8.779 -2.3105 -1.1313  0.7503
  235MOL0     H31020   5.767   2.781   8.760 -0.1838 -0.1711  0.6575
  236MOL0     O31021   2.784   7.387   0.907 -0.1051 -0.5970 -0.1396
  236MOL0     C31022   2.679   7.326   0.882 -0.0393  0.3221  0.1125
  236MOL0     O31023   2.558   7.345   0.946 -0.5976  0.1267  0.1042
  236MOL0     C31024   2.529   7.440   1.033 -0.5666 -0.3775 -0.5686
  236MOL0     C31025   2.527   7.408   1.161  1.0379  0.0803 -0.0723
  236MOL0     C31026   2.485   7.505   1.256 -0.5065  0.1430 -0.1309
  236MOL0     C31027   2.428   7.629   1.221 -0.0375 -0.4097 -0.5627
  236MOL0     O31028   2.386   7.721   1.318 -0.2060 -0.1157 -0.3287
  236MOL0     C31029   2.309   7.668   1.421  0.6525  0.2878 -0.2379
  236MOL0     C31030   2.162   7.643   1.372  0.2793 -0.4432 -0.2425
  236MOL0     C31031   2.050   7.657   1.483  0.3985  0.4505 -0.7717
  236MOL0     C31032   1.920   7.616   1.414 -0.6739 -0.8865  0.4991
  236MOL0     C31033   1.795   7.692   1.460 -0.3030  0.0268 -1.1016
  236MOL0     C31034   1.796   7.834   1.397  0.3890  0.3886  0.2388
  236MOL0     C31035   1.689   7.934   1.445 -0.0810 -0.2687  1.2135
  236MOL0     C31036   1.547   7.882   1.429  0.2256  0.5303 -0.2805
  236MOL0     N31037   1.502   7.868   1.291 -0.2747 -0.1160 -0.0457
  236MOL0     C31038   1.447   7.969   1.217  0.1982  0.1153 -0.2577
  236MOL0     C31039   1.415   7.916   1.100  0.0162  0.3979 -0.4186
  236MOL0     C31040   1.343   7.975   0.982  0.4537 -0.4573 -0.4870
  236MOL0     C31041   1.190   7.938   0.995 -0.3629 -0.4846  0.8017
  236MOL0     C31042   1.153   7.815   0.916  0.4147  0.2516  0.5522
  236MOL0     C31043   1.030   7.758   0.980 -0.3246 -0.3293 -0.3975
  236MOL0     O31044   0.985   7.639   0.906  0.9655  0.1117 -0.2959
  236MOL0     C31045   0.847   7.623   0.892 -0.4499  0.0314  0.3206
  236MOL0     C31046   0.748   7.657   0.983 -0.1784 -0.2317 -0.6016
  236MOL0     C31047   0.613   7.630   0.964  0.5847 -0.1757 -0.4271
  236MOL0     C31048   0.580   7.552   0.852  0.0657 -0.4332  0.4585
  236MOL0     C31049   0.436   7.522   0.820  0.0050  0.5801 -0.0570
  236MOL0     O31050   0.355   7.565   0.916  0.1845  0.3480  0.1811
  236MOL0     C31051   0.229   7.505   0.922 -0.4417 -0.9804 -0.3252
  236MOL0     C31052   0.132   7.588   0.968  0.9353  0.0851 -0.9106
  236MOL0     C31053  -0.002   7.539   0.971  0.1052 -0.3791 -0.5160
  236MOL0     C31054  -0.032   7.405   0.940  0.8356  0.5114 -0.6680
  236MOL0     O31055  -0.153   7.349   0.951 -0.3126 -0.3675 -0.7068
  236MOL0     C31056  -0.212   7.305   0.829  0.0640 -0.5561 -0.2502
  236MOL0     C31057  -0.244   7.164   0.845 -0.2455  0.1065 -0.6005
  236MOL0     C31058  -0.256   7.082   0.716 -0.3533 -0.6998 -0.2901
  236MOL0     C31059  -0.394   7.101   0.650  0.1340 -0.4402 -0.1509
  236MOL0     C31060  -0.421   7.007   0.537 -0.3149 -0.4052  0.5578
  236MOL0     C31061  -0.571   7.007   0.491 -0.3894 -0.0259 -0.4781
  236MOL0     C31062  -0.624   7.140   0.459 -0.0540 -0.2747 -0.1798
  236MOL0     C31063  -0.674   7.137   0.318 -0.3791  0.3465 -0.7345
  236MOL0    Cl31064  -0.537   7.109   0.215 -0.0516 -0.5639  0.0712
  236MOL0     C31065   0.072   7.326   0.901  0.6901 -0.5213 -0.3578
  236MOL0     C31066   0.197   7.379   0.891  0.3461  1.1061 -0.2159
  236MOL0     O31067   0.405   7.470   0.715 -1.0140  0.2888  0.0847
  236MOL0     C31068   0.680   7.512   0.758 -0.1658 -0.1040 -0.2325
  236MOL0     C31069   0.811   7.553   0.777  0.1809  0.2586 -0.1354
  236MOL0     N31070   1.469   7.785   1.093  0.3634 -0.7561  0.0799
  236MOL0     N31071   1.517   7.761   1.212 -0.7063  1.3094 -0.1111
  236MOL0     C31072   2.421   7.656   1.081  0.1516 -0.2741  0.8374
  236MOL0     C31073   2.472   7.560   0.992 -0.3117 -0.1394 -0.0132
  236MOL0     C31074   2.686   7.228   0.770  0.0804  0.5215  0.0892
  236MOL0     C31075   2.769   7.253   0.665 -0.4063 -0.8828  0.3740
  236MOL0     C31076   2.770   7.165   0.557 -0.7013 -0.7248 -0.3601
  236MOL0     C31077   2.698   7.048   0.560 -0.2328  0.4817 -0.2750
  236MOL0     O31078   2.708   6.976   0.441 -0.4381  0.3800 -0.0976
  236MOL0     C31079   2.625   6.857   0.429  0.0483  0.5479  0.7899
  236MOL0     C31080   2.691   6.756   0.328 -0.9381  0.4266  1.0970
  236MOL0     C31081   2.591   6.656   0.289 -0.2679  0.5898 -0.1652
  236MOL0     C31082   2.490   6.701   0.183 -0.2944 -0.0962 -0.1116
  236MOL0     C31083   2.413   6.589   0.130 -0.2261  0.9495 -0.8045
  236MOL0     C31084   2.348   6.501   0.076 -0.8782 -0.6643 -0.0839
  236MOL0     C31085   2.611   7.024   0.662 -0.2885 -0.2821 -0.1237
  236MOL0     C31086   2.606   7.112   0.772 -0.3614 -0.0821  0.8284
  236MOL0     H31087   2.565   7.307   1.174 -0.4727 -1.3182 -4.5410
  236MOL0     H31088   2.494   7.482   1.362  3.5272  0.0242 -0.3668
  236MOL0     H31089   2.312   7.746   1.498  1.5730  1.2859 -1.2629
  236MOL0     H31090   2.343   7.576   1.471 -0.8747 -0.5378 -0.6536
  236MOL0     H31091   2.162   7.538   1.341 -0.0664 -1.0088  1.5299
  236MOL0     H31092   2.138   7.706   1.286 -0.9884 -0.7490 -0.1326
  236MOL0     H31093   2.048   7.760   1.520  1.0377  0.8319 -1.7536
  236MOL0     H31094   2.073   7.580   1.556  1.0828  0.3721 -1.0673
  236MOL0     H31095   1.944   7.642   1.310  1.9751  0.9017  1.4514
  236MOL0     H31096   1.890   7.511   1.420 -1.1473 -0.6792  2.1872
  236MOL0     H31097   1.799   7.701   1.569  1.0766  2.7165 -1.3089
  236MOL0     H31098   1.712   7.624   1.440 -0.0010 -2.9765  5.2482
  236MOL0     H31099   1.792   7.820   1.288  1.6758 -0.8132  0.3154
  236MOL0     H31100   1.893   7.883   1.409 -0.1439  1.7211 -0.6683
  236MOL0     H31101   1.719   7.976   1.541 -2.6166 -0.1955  2.0547
  236MOL0     H31102   1.704   8.019   1.378  4.8978 -1.9166 -0.1769
  236MOL0     H31103   1.475   7.942   1.486 -0.2844 -3.0275  3.2237
  236MOL0     H31104   1.537   7.780   1.467  2.7503 -0.9118 -3.0572
  236MOL0     H31105   1.426   8.069   1.254  0.7521 -0.2718  1.1664
  236MOL0     H31106   1.378   7.941   0.884 -0.0971  1.6951 -1.4780
  236MOL0     H31107   1.344   8.084   0.996  0.7105 -0.3788 -1.1030
  236MOL0     H31108   1.145   8.032   0.961  3.1535  0.8363 -0.6637
  236MOL0     H31109   1.171   7.928   1.102 -0.4386  1.2362  0.9763
  236MOL0     H31110   1.125   7.833   0.812 -3.1419  2.5183  1.7209
  236MOL0     H31111   1.235   7.743   0.916 -0.2909 -0.5905 -0.5276
  236MOL0     H31112   0.951   7.831   1.000  2.1071  1.7418  2.4454
  236MOL0     H31113   1.069   7.717   1.074  2.2565 -1.7417 -1.9547
  236MOL0     H31114   0.783   7.701   1.076  0.6742 -0.8794 -0.6065
  236MOL0     H31115   0.538   7.652   1.039  0.7071  1.9683 -0.8817
  236MOL0     H31116   0.149   7.693   0.988  1.6533  0.0074 -1.0859
  236MOL0     H31117  -0.078   7.614   0.987 -0.5641 -1.6193  2.8413
  236MOL0     H31118  -0.133   7.325   0.755  3.3726 -0.1322  3.1140
  236MOL0     H31119  -0.302   7.362   0.806 -0.3169 -1.2803 -0.6126
  236MOL0     H31120  -0.335   7.151   0.903 -0.4861 -0.5719 -1.1067
  236MOL0     H31121  -0.158   7.127   0.903 -0.9791  0.1456  0.5318
  236MOL0     H31122  -0.230   6.978   0.739  1.1673 -0.8179 -2.2467
  236MOL0     H31123  -0.176   7.111   0.647  0.8782  1.0493  1.7241
  236MOL0     H31124  -0.477   7.099   0.721 -0.2613  2.1017 -0.4697
  236MOL0     H31125  -0.390   7.201   0.607  1.0807 -0.2350  0.3738
  236MOL0     H31126  -0.397   6.901   0.551  2.0141  0.2451  2.1293
  236MOL0     H31127  -0.359   7.040   0.453 -1.8562  0.0036 -0.4581
  236MOL0     H31128  -0.629   6.966   0.574 -0.4353 -1.0826 -1.0140
  236MOL0     H31129  -0.575   6.934   0.409  0.9150 -1.0906  0.3756
  236MOL0     H31130  -0.708   7.176   0.520 -0.3120  1.5078 -1.4828
  236MOL0     H31131  -0.553   7.223   0.451 -2.3270  1.7241 -0.9835
  236MOL0     H31132  -0.716   7.236   0.299 -0.4341  0.3991 -0.3453
  236MOL0     H31133  -0.751   7.060   0.311 -0.0988 -0.4425  2.8472
  236MOL0     H31134   0.058   7.219   0.892 -1.3591 -0.4028  0.9093
  236MOL0     H31135   0.278   7.317   0.854 -1.3500 -0.2755 -1.7969
  236MOL0     H31136   0.650   7.450   0.674  0.5036 -3.4757  1.8223
  236MOL0     H31137   0.890   7.533   0.705 -1.5233 -0.0729 -1.9876
  236MOL0     H31138   2.383   7.742   1.027 -0.1775 -2.4777 -2.7658
  236MOL0     H31139   2.477   7.578   0.885  0.3492 -0.0367  0.0301
  236MOL0     H31140   2.823   7.347   0.668  2.0513 -2.2469  2.4805
  236MOL0     H31141   2.814   7.182   0.459 -1.8127 -4.1627 -1.6159
  236MOL0     H31142   2.521   6.880   0.403  1.0945  3.0840 -1.6503
  236MOL0     H31143   2.631   6.799   0.521  0.7119 -0.9877 -0.1842
  236MOL0     H31144   2.707   6.812   0.235 -3.6621 -1.2157 -0.5265
  236MOL0     H31145   2.775   6.708   0.378 -0.5970 -0.2526 -0.0824
  236MOL0     H31146   2.537   6.616   0.375 -0.1284 -1.7096 -1.0454
  236MOL0     H31147   2.655   6.571   0.262  0.9615  0.9504  1.4771
  236MOL0     H31148   2.423   6.778   0.223 -0.1335 -0.3394  0.6307
  236MOL0     H31149   2.545   6.739   0.096  0.6459  1.9156  1.2923
  236MOL0     H31150   2.271   6.444   0.028 -1.9719  0.4491  0.2854
  236MOL0     H31151   2.538   6.943   0.661 -0.6366  0.0306 -0.1485
  236MOL0     H31152   2.528   7.104   0.847 -1.0934  2.6675  0.4713
  237MOL0     O31153   0.194   5.596   3.090  0.3337 -0.1157  0.2228
  237MOL0     C31154   0.264   5.668   3.018 -0.6263  0.0425  0.4646
  237MOL0     O31155   0.216   5.735   2.908 -0.2521 -0.2356 -0.9400
  237MOL0     C31156   0.089   5.706   2.857 -0.3711  0.0721  0.4503
  237MOL0     C31157  -0.009   5.800   2.890 -0.5506  0.1083  0.1055
  237MOL0     C31158  -0.143   5.758   2.871 -1.5578 -0.4214  0.2873
  237MOL0     C31159  -0.183   5.631   2.824 -0.3467  0.1430  0.6417
  237MOL0     O31160  -0.313   5.603   2.799 -0.1908  1.0045  0.7409
  237MOL0     C31161  -0.401   5.597   2.913 -0.1377  0.5782 -0.0074
  237MOL0     C31162  -0.533   5.542   2.881  1.0009  1.1243 -0.4473
  237MOL0     C31163  -0.605   5.606   2.761 -0.9271  0.6621 -0.1609
  237MOL0     C31164  -0.623   5.759   2.776  0.6253 -0.0754  0.9498
  237MOL0     C31165  -0.746   5.785   2.864  0.7507  0.1799 -0.4033
  237MOL0     C31166  -0.760   5.931   2.912 -0.8427 -0.1202 -0.4940
  237MOL0     C31167  -0.700   5.950   3.059  0.1106 -0.0759  0.8182
  237MOL0     C31168  -0.763   5.867   3.171  0.1019 -0.2341  0.4339
  237MOL0     N31169  -0.909   5.881   3.172 -0.2960  0.2297 -0.4261
  237MOL0     C31170  -0.980   5.988   3.214  0.1241 -0.3354  0.1390
  237MOL0     C31171  -1.108   5.951   3.197  0.4666  0.4050 -0.3007
  237MOL0     C31172  -1.243   6.026   3.202 -0.2537 -0.9801 -0.6035
  237MOL0     C31173  -1.267   6.103   3.333  0.2912 -0.1005  0.2007
  237MOL0     C31174  -1.415   6.157   3.317 -0.8847 -0.1081 -1.0295
  237MOL0     C31175  -1.460   6.270   3.408  0.9819  0.5263  0.6519
  237MOL0     O31176  -1.587   6.326   3.362 -0.3896  0.0721 -0.1843
  237MOL0     C31177  -1.694   6.241   3.372 -0.1841 -0.0009  1.1942
  237MOL0     C31178  -1.726   6.167   3.477  0.2814 -0.1518 -0.6915
  237MOL0     C31179  -1.854   6.106   3.484  0.0301  0.5024 -0.1619
  237MOL0     C31180  -1.931   6.094   3.374 -0.1167  0.1753 -1.3174
  237MOL0     C31181  -2.052   6.003   3.364 -0.5996 -0.3127  0.1664
  237MOL0     O31182  -2.132   6.018   3.253  0.3694  0.7161  0.6296
  237MOL0     C31183  -2.240   5.935   3.237  0.8024 -0.1936 -0.5365
  237MOL0     C31184  -2.349   5.954   3.326  0.0862  0.1031  0.7054
  237MOL0     C31185  -2.466   5.899   3.288  0.1582  0.4716 -0.2747
  237MOL0     C31186  -2.481   5.808   3.179  0.5291 -0.6629  0.7005
  237MOL0     O31187  -2.602   5.758   3.143 -0.1037 -0.6315 -0.6502
  237MOL0     C31188  -2.693   5.858   3.089  0.5793  0.0415  0.3629
  237MOL0     C31189  -2.806   5.798   3.008 -0.2235  0.0582  0.0604
  237MOL0     C31190  -2.859   5.671   3.074  0.8458 -0.5468 -0.0710
  237MOL0     C31191  -3.008   5.638   3.054 -0.0103  0.1346  0.2103
  237MOL0     C31192  -3.031   5.488   3.097  0.5657 -0.3031 -0.5093
  237MOL0     C31193  -3.170   5.455   3.118  0.8205  0.1128 -0.3265
  237MOL0     C31194  -3.269   5.505   3.008 -0.0283 -0.5581 -0.0647
  237MOL0     C31195  -3.413   5.487   3.057  0.1964  0.5757  0.1996
  237MOL0    Cl31196  -3.440   5.311   3.067 -0.1032  0.5914 -0.2594
  237MOL0     C31197  -2.366   5.786   3.101 -0.0893 -0.5479  0.6706
  237MOL0     C31198  -2.247   5.850   3.123 -0.6365 -0.3634 -0.7842
  237MOL0     O31199  -2.075   5.921   3.453 -0.4490  0.5412 -0.7981
  237MOL0     C31200  -1.894   6.166   3.261 -0.4212 -0.0781  0.0308
  237MOL0     C31201  -1.777   6.245   3.262  0.1190  0.8164  0.0727
  237MOL0     N31202  -1.108   5.818   3.144 -0.0470  0.8033  0.0286
  237MOL0     N31203  -0.981   5.779   3.124  0.5353 -0.0153 -0.4773
  237MOL0     C31204  -0.078   5.549   2.786  0.9116 -0.7577  0.4354
  237MOL0     C31205   0.062   5.585   2.796  0.1809 -0.1202  0.2735
  237MOL0     C31206   0.418   5.694   3.046  0.4187  0.2648 -0.4203
  237MOL0     C31207   0.488   5.627   3.149  0.1475 -0.3286  0.0749
  237MOL0     C31208   0.621   5.661   3.174  0.1025  0.8064 -0.0770
  237MOL0     C31209   0.695   5.736   3.083  0.2646 -0.4953  0.0329
  237MOL0     O31210   0.826   5.747   3.121 -0.0901 -0.6566 -0.4792
  237MOL0     C31211   0.906   5.833   3.042  1.0954 -0.3024 -0.0045
  237MOL0     C31212   0.964   5.771   2.917  0.1886 -0.4455  0.6920
  237MOL0     C31213   1.047   5.651   2.955  0.1340  0.5882 -0.0947
  237MOL0     C31214   1.134   5.585   2.847 -0.7222 -0.0297 -0.6481
  237MOL0     C31215   1.256   5.654   2.812  0.4807  0.1890 -0.7393
  237MOL0     C31216   1.361   5.698   2.778  0.6098  0.1801 -0.0104
  237MOL0     C31217   0.628   5.789   2.971 -0.4617  0.1607  0.7738
  237MOL0     C31218   0.489   5.782   2.958 -0.1350  0.0966 -0.4525
  237MOL0     H31219   0.003   5.894   2.942 -1.1152 -0.6867  1.7383
  237MOL0     H31220  -0.218   5.831   2.902  0.2236  2.0005 -0.7420
  237MOL0     H31221  -0.397   5.695   2.962 -0.2529  1.2727 -1.3368
  237MOL0     H31222  -0.358   5.527   2.985  0.3561  1.5675  0.6747
  237MOL0     H31223  -0.585   5.534   2.977  4.7169  0.6954  1.7373
  237MOL0     H31224  -0.521   5.435   2.860 -0.9964  0.9943 -1.1552
  237MOL0     H31225  -0.707   5.569   2.748 -0.4851 -1.0934  0.9875
  237MOL0     H31226  -0.537   5.584   2.678 -2.5937 -0.0293 -1.4232
  237MOL0     H31227  -0.535   5.806   2.822 -0.7312  0.5042  3.1239
  237MOL0     H31228  -0.652   5.811   2.684  1.4720 -1.7662 -0.3161
  237MOL0     H31229  -0.740   5.722   2.953  2.0256  0.8582  0.0209
  237MOL0     H31230  -0.836   5.763   2.805  0.9196  0.1965 -0.6717
  237MOL0     H31231  -0.864   5.963   2.918  0.6495  5.6816 -0.3211
  237MOL0     H31232  -0.714   6.004   2.845  2.7407  0.1677  1.9952
  237MOL0     H31233  -0.592   5.938   3.060  0.1335  0.1657  2.3776
  237MOL0     H31234  -0.714   6.056   3.079 -1.1436 -0.1589  0.4925
  237MOL0     H31235  -0.723   5.909   3.264 -0.9861 -1.6582  1.5871
  237MOL0     H31236  -0.734   5.765   3.145  3.1702  1.2059 -2.5621
  237MOL0     H31237  -0.939   6.081   3.253  0.0768 -0.2770  0.0506
  237MOL0     H31238  -1.321   5.950   3.189 -0.3965 -0.7870 -0.8841
  237MOL0     H31239  -1.250   6.094   3.117  0.6948 -2.5107 -1.9789
  237MOL0     H31240  -1.202   6.190   3.345  3.5955 -2.3588 -0.0857
  237MOL0     H31241  -1.280   6.042   3.423 -3.8877 -0.4519 -0.4179
  237MOL0     H31242  -1.432   6.184   3.212 -0.7458 -1.9923 -1.5668
  237MOL0     H31243  -1.476   6.070   3.343 -1.2088 -1.0729 -4.4678
  237MOL0     H31244  -1.386   6.348   3.389  0.6785  0.6996  0.1697
  237MOL0     H31245  -1.466   6.232   3.510  1.6214 -0.6628  0.2714
  237MOL0     H31246  -1.664   6.170   3.566 -1.1613 -0.2611  0.3628
  237MOL0     H31247  -1.882   6.041   3.567  1.8464 -2.5573 -1.7372
  237MOL0     H31248  -2.348   6.019   3.413 -0.8435  0.8849  0.1563
  237MOL0     H31249  -2.535   5.914   3.371  2.4658  0.4948  1.7822
  237MOL0     H31250  -2.628   5.916   3.022 -0.3611 -0.9199 -1.4698
  237MOL0     H31251  -2.741   5.912   3.171 -4.8318 -0.9568 -1.7368
  237MOL0     H31252  -2.768   5.787   2.905  2.6394 -2.1616  1.2260
  237MOL0     H31253  -2.886   5.873   2.997 -1.1435 -0.9838 -0.5955
  237MOL0     H31254  -2.838   5.692   3.179  0.1007 -1.0566  0.1850
  237MOL0     H31255  -2.800   5.584   3.046 -1.9651 -1.9912 -2.0069
  237MOL0     H31256  -3.077   5.707   3.104 -0.7921  1.0003 -1.9315
  237MOL0     H31257  -3.028   5.653   2.947  3.4279  0.2560 -0.5008
  237MOL0     H31258  -2.983   5.452   3.188 -1.2650 -1.8883 -0.0909
  237MOL0     H31259  -2.992   5.421   3.020  0.3647 -1.0360  0.0098
  237MOL0     H31260  -3.196   5.507   3.211  1.0019  0.9887 -0.7608
  237MOL0     H31261  -3.182   5.347   3.132 -0.6440  0.3029  0.0596
  237MOL0     H31262  -3.256   5.612   2.990  0.7738 -0.6515 -0.0631
  237MOL0     H31263  -3.252   5.451   2.915 -1.1261  1.8297 -1.7521
  237MOL0     H31264  -3.493   5.520   2.990 -0.1438  1.4940  1.0310
  237MOL0     H31265  -3.424   5.535   3.155 -1.3428 -0.6606  0.6801
  237MOL0     H31266  -2.370   5.718   3.016 -1.8929  0.1529  0.1316
  237MOL0     H31267  -2.168   5.832   3.049 -0.9893 -1.6107 -0.8890
  237MOL0     H31268  -1.949   6.171   3.168 -0.2141 -1.3181 -0.1841
  237MOL0     H31269  -1.762   6.306   3.174  1.5789  1.1280  0.5099
  237MOL0     H31270  -0.104   5.452   2.746  0.1959 -0.6948  0.7341
  237MOL0     H31271   0.149   5.524   2.774 -0.1175 -0.3275 -0.3635
  237MOL0     H31272   0.432   5.551   3.203  1.4360  0.2455  2.3488
  237MOL0     H31273   0.663   5.614   3.263 -2.3947  0.7722  1.1761
  237MOL0     H31274   0.996   5.859   3.100  0.6520 -0.0774  0.5926
  237MOL0     H31275   0.844   5.918   3.012 -1.3253 -1.7561  0.6407
  237MOL0     H31276   0.886   5.747   2.844  0.9687  0.9848 -0.6686
  237MOL0     H31277   1.027   5.851   2.878 -1.2027 -0.0447 -0.8600
  237MOL0     H31278   0.975   5.577   2.992 -2.0331  2.4428 -0.3853
  237MOL0     H31279   1.114   5.683   3.036  1.5621  2.6209 -1.9751
  237MOL0     H31280   1.149   5.480   2.872  1.2242  0.0666 -1.1889
  237MOL0     H31281   1.079   5.590   2.752 -0.4042 -1.0378 -0.8958
  237MOL0     H31282   1.463   5.728   2.763  0.6324  1.7830  2.6881
  237MOL0     H31283   0.682   5.845   2.896  1.4161 -0.3560  1.6875
  237MOL0     H31284   0.444   5.829   2.872 -2.3432  0.5348  0.8696
  238MOL0     O31285   2.526   4.225  10.319  0.2905 -0.3434  0.0064
  238MOL0     C31286   2.577   4.293  10.412 -1.1765 -0.1045 -0.6449
  238MOL0     O31287   2.517   4.336  10.526  0.1360 -0.1150 -0.2295
  238MOL0     C31288   2.389   4.293  10.551 -0.3915 -0.8879  0.2958
  238MOL0     C31289   2.286   4.310  10.461  0.9983  0.6945 -0.0707
  238MOL0     C31290   2.153   4.264  10.491 -0.4086 -0.1720  0.5111
  238MOL0     C31291   2.124   4.211  10.619  1.0085  0.1845 -0.6659
  238MOL0     O31292   1.996   4.205  10.675 -0.1913 -0.8658  0.2870
  238MOL0     C31293   1.884   4.254  10.591 -0.3890  0.7729 -0.2591
  238MOL0     C31294   1.762   4.259  10.675 -0.2452 -0.1262 -1.5028
  238MOL0     C31295   1.632   4.312  10.608 -0.9173  0.6729 -0.0107
  238MOL0     C31296   1.516   4.276  10.698  0.5768 -0.6040 -0.1720
  238MOL0     C31297   1.388   4.327  10.642  0.4305 -0.2789  0.4632
  238MOL0     C31298   1.266   4.316  10.745 -0.0721  0.9329 -0.0572
  238MOL0     C31299   1.134   4.375  10.705 -0.7885 -0.2352  0.4851
  238MOL0     C31300   1.032   4.362  10.820 -1.2266 -0.1679  0.3137
  238MOL0     N31301   0.902   4.418  10.798  0.3874  0.8147  0.9719
  238MOL0     C31302   0.855   4.550  10.815  0.2168  0.3823 -0.1372
  238MOL0     C31303   0.723   4.536  10.803  0.6638  0.1963 -0.4001
  238MOL0     C31304   0.621   4.646  10.820 -0.0862 -0.0929  0.3437
  238MOL0     C31305   0.483   4.585  10.838  0.3497  0.7366 -0.1505
  238MOL0     C31306   0.375   4.699  10.839  0.5677  0.9290 -0.1939
  238MOL0     C31307   0.244   4.653  10.912 -0.5286 -0.7084  0.8161
  238MOL0     O31308   0.180   4.556  10.827  0.1774  0.0512 -0.0761
  238MOL0     C31309   0.040   4.554  10.839 -0.6023  0.3440 -0.6295
  238MOL0     C31310  -0.023   4.554  10.958 -0.2226 -0.1180 -0.1419
  238MOL0     C31311  -0.157   4.581  10.956  0.4365  1.2093 -1.0068
  238MOL0     C31312  -0.232   4.591  10.844  0.0568  0.6713  0.4570
  238MOL0     C31313  -0.369   4.634  10.846  0.0676 -0.3377  0.7938
  238MOL0     O31314  -0.438   4.615  10.728  0.1735 -0.0851  0.7747
  238MOL0     C31315  -0.568   4.658  10.693  0.2890  0.2480  0.5716
  238MOL0     C31316  -0.644   4.753  10.759  0.5253 -0.8536  0.2360
  238MOL0     C31317  -0.767   4.801  10.713  0.1768  0.1305 -0.4137
  238MOL0     C31318  -0.809   4.749  10.585  0.2888  0.1447  0.2536
  238MOL0     O31319  -0.923   4.782  10.512  0.2017 -0.3665 -0.1284
  238MOL0     C31320  -1.041   4.816  10.592 -0.2653 -0.4922  0.7928
  238MOL0     C31321  -1.171   4.808  10.505  0.0622  0.0906  0.3908
  238MOL0     C31322  -1.292   4.862  10.573 -0.1880  0.8815  0.7582
  238MOL0     C31323  -1.411   4.870  10.484 -0.3663  0.5385 -0.0669
  238MOL0     C31324  -1.533   4.916  10.558  0.0959  0.2319  0.7218
  238MOL0     C31325  -1.521   5.060  10.616 -0.1734  0.0947  0.5103
  238MOL0     C31326  -1.657   5.083  10.684 -0.4737  0.3289 -0.5679
  238MOL0     C31327  -1.698   5.230  10.685  0.2422  0.4107  0.3184
  238MOL0    Cl31328  -1.561   5.345  10.717 -0.3653  0.0382 -0.0785
  238MOL0     C31329  -0.729   4.653  10.506  0.4405 -0.8058 -0.2902
  238MOL0     C31330  -0.610   4.613  10.567  0.2101 -0.3416  0.2283
  238MOL0     O31331  -0.414   4.687  10.945 -0.0998 -0.2265  0.6044
  238MOL0     C31332  -0.167   4.578  10.721 -0.0930 -0.8115  0.6251
  238MOL0     C31333  -0.033   4.555  10.720  0.3563  0.1921  0.6342
  238MOL0     N31334   0.690   4.407  10.758 -0.0935  0.6723 -0.0082
  238MOL0     N31335   0.801   4.335  10.755 -0.6264  0.3668 -0.1888
  238MOL0     C31336   2.225   4.197  10.714  0.0566 -0.2178  0.6033
  238MOL0     C31337   2.358   4.232  10.677 -0.2625  0.4176 -0.3831
  238MOL0     C31338   2.718   4.314  10.394  0.3236  0.2221  0.4033
  238MOL0     C31339   2.790   4.366  10.500 -0.0298 -0.2981 -0.2361
  238MOL0     C31340   2.923   4.391  10.489  0.0695 -0.2179 -0.4659
  238MOL0     C31341   2.992   4.372  10.368  1.0801  0.5321  0.6124
  238MOL0     O31342   3.125   4.403  10.344 -0.1474  0.8589  0.1791
  238MOL0     C31343   3.211   4.441  10.446 -0.1319  0.5501  0.8360
  238MOL0     C31344   3.265   4.331  10.530 -0.4534 -0.2509  0.7065
  238MOL0     C31345   3.358   4.232  10.449 -0.0377 -0.5248 -0.0696
  238MOL0     C31346   3.491   4.300  10.415  0.1372 -0.8393  0.7371
  238MOL0     C31347   3.583   4.204  10.357 -0.3475  0.1089  0.2265
  238MOL0     C31348   3.672   4.141  10.306 -0.2869  0.6778 -0.0464
  238MOL0     C31349   2.922   4.310  10.262 -0.6907  0.0694  0.8542
  238MOL0     C31350   2.786   4.288  10.280 -0.4312  0.3469 -0.4015
  238MOL0     H31351   2.315   4.368  10.374  0.2485 -2.4925 -2.6338
  238MOL0     H31352   2.081   4.272  10.409 -0.4478 -1.3568  0.4108
  238MOL0     H31353   1.861   4.189  10.506 -1.1262  1.8650 -0.9265
  238MOL0     H31354   1.910   4.354  10.554 -0.4273  1.2895  1.0573
  238MOL0     H31355   1.776   4.305  10.773  0.1794 -2.3995 -0.4512
  238MOL0     H31356   1.747   4.158  10.713 -0.1599  0.5268  0.3882
  238MOL0     H31357   1.613   4.249  10.521 -0.6364 -2.4691  2.0585
  238MOL0     H31358   1.635   4.419  10.585  0.2284  0.8933  1.0377
  238MOL0     H31359   1.510   4.169  10.715  1.1196 -0.4093  1.4670
  238MOL0     H31360   1.525   4.332  10.792 -1.8444 -2.5451  1.3265
  238MOL0     H31361   1.371   4.288  10.541 -0.5600  3.2048 -0.8824
  238MOL0     H31362   1.406   4.434  10.625  5.4369 -1.1881 -1.6685
  238MOL0     H31363   1.302   4.361  10.838 -2.7109  0.7323  1.1237
  238MOL0     H31364   1.263   4.207  10.756 -1.1896  0.6693 -2.2644
  238MOL0     H31365   1.147   4.481  10.682 -0.5766 -0.2354  0.5932
  238MOL0     H31366   1.094   4.323  10.618  0.0517  1.2370 -0.8400
  238MOL0     H31367   1.085   4.399  10.908  0.1295 -2.5154  0.5662
  238MOL0     H31368   1.018   4.254  10.833 -2.8829 -0.0332 -0.2135
  238MOL0     H31369   0.907   4.638  10.850  0.1702  0.2451  0.2822
  238MOL0     H31370   0.630   4.707  10.729  2.4414 -1.6027 -0.5113
  238MOL0     H31371   0.645   4.708  10.907 -3.8065  0.8157  0.9101
  238MOL0     H31372   0.496   4.537  10.936  3.3195  2.2986  0.3308
  238MOL0     H31373   0.461   4.520  10.753  2.2285  3.0552 -2.5677
  238MOL0     H31374   0.417   4.790  10.882 -0.0647  2.1590 -2.0488
  238MOL0     H31375   0.351   4.730  10.737  1.9585 -0.4265 -0.9704
  238MOL0     H31376   0.183   4.744  10.920 -0.0689 -0.2356 -0.7670
  238MOL0     H31377   0.274   4.621  11.012  3.9543  5.0953  1.8535
  238MOL0     H31378   0.027   4.530  11.051  3.0369  0.3780 -1.6232
  238MOL0     H31379  -0.204   4.584  11.054  3.3080  0.9255  0.5055
  238MOL0     H31380  -0.609   4.781  10.857  0.8286 -0.4009  0.0019
  238MOL0     H31381  -0.820   4.876  10.771 -1.4311 -0.4484 -1.0790
  238MOL0     H31382  -1.020   4.920  10.619 -0.2018 -0.7714  1.8466
  238MOL0     H31383  -1.055   4.755  10.682 -0.1253  0.9753  1.8575
  238MOL0     H31384  -1.179   4.705  10.470 -0.2357 -0.2466  1.4239
  238MOL0     H31385  -1.162   4.873  10.418 -0.2360 -1.6184 -0.9655
  238MOL0     H31386  -1.256   4.959  10.610  1.8418  0.4736 -0.0327
  238MOL0     H31387  -1.319   4.792  10.653  0.2199 -1.7594 -1.2777
  238MOL0     H31388  -1.398   4.932  10.395 -1.5412  1.1499  0.1659
  238MOL0     H31389  -1.441   4.771  10.449 -1.1837  0.3648  1.0737
  238MOL0     H31390  -1.555   4.850  10.642 -0.3274  0.6491  0.9460
  238MOL0     H31391  -1.617   4.913  10.488 -0.3152 -0.5146  1.2423
  238MOL0     H31392  -1.510   5.140  10.542  1.0642 -0.8084 -0.3189
  238MOL0     H31393  -1.444   5.078  10.692 -2.3122  0.5501  2.6892
  238MOL0     H31394  -1.723   5.010  10.635  0.7373  0.6048 -2.6951
  238MOL0     H31395  -1.656   5.055  10.790  0.8725  1.1861 -0.3359
  238MOL0     H31396  -1.781   5.257  10.751  1.2343  0.5546  1.5430
  238MOL0     H31397  -1.733   5.263  10.586  0.1172  1.9716  0.8544
  238MOL0     H31398  -0.770   4.630  10.409 -2.9533 -1.8582  1.2574
  238MOL0     H31399  -0.551   4.544  10.507  0.3324  0.4693 -0.6119
  238MOL0     H31400  -0.214   4.609  10.628 -2.1936  1.7540  2.3890
  238MOL0     H31401   0.019   4.545  10.625 -0.7031 -1.4004  0.1892
  238MOL0     H31402   2.207   4.156  10.813 -1.0200 -0.4234  0.3301
  238MOL0     H31403   2.440   4.210  10.744 -0.1941  1.5519 -0.0699
  238MOL0     H31404   2.732   4.389  10.589 -0.4694 -2.6596  0.1701
  238MOL0     H31405   2.972   4.436  10.575 -1.0255  3.8511 -1.7454
  238MOL0     H31406   3.153   4.504  10.514  0.6417  2.0725  0.1480
  238MOL0     H31407   3.289   4.503  10.400  0.6327  0.1537  1.5845
  238MOL0     H31408   3.328   4.384  10.602  3.1298  0.1744 -2.3903
  238MOL0     H31409   3.189   4.270  10.578 -1.2664 -1.5655 -2.0130
  238MOL0     H31410   3.296   4.206  10.362 -0.4366 -1.3673  0.4471
  238MOL0     H31411   3.382   4.138  10.501  1.0489 -0.1205  0.1860
  238MOL0     H31412   3.473   4.372  10.334 -3.0117 -3.1536 -0.8091
  238MOL0     H31413   3.525   4.347  10.507  1.2320  2.4186 -1.1571
  238MOL0     H31414   3.755   4.092  10.259  0.9466  2.4512  0.1770
  238MOL0     H31415   2.975   4.274  10.175 -0.3992 -1.6911  1.7160
  238MOL0     H31416   2.737   4.244  10.194  0.3547  0.0676 -0.7201
  239MOL0     O31417  10.132   4.922   4.749  0.3915  0.1791 -0.2431
  239MOL0     C31418  10.189   4.979   4.844 -0.0648  0.8231 -0.4391
  239MOL0     O31419  10.127   5.062   4.941 -0.3457  0.1923 -0.2110
  239MOL0     C31420   9.994   5.075   4.929 -0.5386 -0.1244  0.3598
  239MOL0     C31421   9.900   4.978   4.977 -0.5009 -0.0518  0.1224
  239MOL0     C31422   9.760   4.995   4.942 -0.3866 -0.7679  0.2996
  239MOL0     C31423   9.707   5.112   4.877 -0.8064  0.1547  0.0644
  239MOL0     O31424   9.574   5.133   4.852 -0.0041  0.0483  0.2555
  239MOL0     C31425   9.497   5.015   4.813  0.2107  0.4762  0.0592
  239MOL0     C31426   9.401   4.973   4.925 -0.2532  0.0630  0.1033
  239MOL0     C31427   9.323   5.075   5.004 -0.0839 -0.1613  0.1341
  239MOL0     C31428   9.227   5.166   4.922  0.6493 -0.0318  0.4160
  239MOL0     C31429   9.085   5.098   4.895 -1.3975  0.2261 -0.2569
  239MOL0     C31430   8.988   5.208   4.852 -0.4098  0.2880  0.0713
  239MOL0     C31431   9.024   5.250   4.709 -0.0018  0.3652  0.4743
  239MOL0     C31432   8.923   5.351   4.656 -0.8507 -0.7045  0.5782
  239MOL0     N31433   8.786   5.307   4.630 -0.5103  0.6118 -0.1533
  239MOL0     C31434   8.680   5.311   4.719 -0.6153  0.7169  0.1533
  239MOL0     C31435   8.575   5.287   4.637  0.2542 -0.0527  0.1678
  239MOL0     C31436   8.430   5.292   4.662  0.3150 -0.2280  0.1463
  239MOL0     C31437   8.379   5.177   4.753  0.3768  0.1338 -0.0289
  239MOL0     C31438   8.232   5.195   4.808 -0.4305  0.5137 -0.4434
  239MOL0     C31439   8.119   5.176   4.705 -0.0364 -0.9052  0.7200
  239MOL0     O31440   8.022   5.276   4.718  0.2876 -0.0133  0.0690
  239MOL0     C31441   7.897   5.252   4.654  0.2630  0.0191  0.2765
  239MOL0     C31442   7.800   5.351   4.681  0.1404  0.4448  0.3145
  239MOL0     C31443   7.664   5.336   4.634 -0.8300 -0.8047 -0.3988
  239MOL0     C31444   7.628   5.214   4.567 -0.6342 -0.0982 -0.4019
  239MOL0     C31445   7.490   5.184   4.537 -0.3801  0.8533 -0.8073
  239MOL0     O31446   7.462   5.087   4.451 -0.8674  0.0657 -0.3342
  239MOL0     C31447   7.330   5.076   4.408  0.5439  0.8316  0.2407
  239MOL0     C31448   7.270   5.129   4.290  0.0505 -0.1009 -0.5502
  239MOL0     C31449   7.125   5.103   4.280  0.6753 -0.6999  0.5709
  239MOL0     C31450   7.051   5.017   4.359  0.0464 -0.1744  0.3474
  239MOL0     O31451   6.924   4.994   4.321  0.1698  0.2140  0.9305
  239MOL0     C31452   6.857   4.877   4.374 -0.2217  0.3537 -0.0917
  239MOL0     C31453   6.736   4.834   4.295 -0.1089  0.2383  0.1973
  239MOL0     C31454   6.634   4.947   4.319 -0.2680  0.3176  0.5802
  239MOL0     C31455   6.525   4.950   4.215 -0.6414  0.2539 -0.0080
  239MOL0     C31456   6.400   5.025   4.282 -0.0548  0.3496  0.5424
  239MOL0     C31457   6.276   4.988   4.191  0.0017 -0.1213 -0.1717
  239MOL0     C31458   6.151   5.063   4.229  0.2973  0.1204  0.0007
  239MOL0     C31459   6.039   5.008   4.146 -0.4657 -0.4890 -0.4658
  239MOL0    Cl31460   5.881   5.090   4.179 -0.0560 -0.1156  0.0508
  239MOL0     C31461   7.109   4.961   4.477  0.2865 -0.9210  0.6049
  239MOL0     C31462   7.243   4.996   4.488 -0.0062  0.9993 -0.6280
  239MOL0     O31463   7.406   5.259   4.591 -1.0317  1.2653  0.5655
  239MOL0     C31464   7.728   5.118   4.547 -0.1594 -0.9666 -0.2988
  239MOL0     C31465   7.867   5.142   4.577  0.1352  0.4519  0.4083
  239MOL0     N31466   8.622   5.274   4.506  0.1869  0.8383 -0.4347
  239MOL0     N31467   8.752   5.280   4.502 -0.1269 -0.4459  0.2923
  239MOL0     C31468   9.805   5.198   4.843 -0.0546 -0.4741 -0.0498
  239MOL0     C31469   9.937   5.186   4.866  0.1554  0.0578 -0.6271
  239MOL0     C31470  10.335   4.950   4.852 -0.1919 -0.6525  0.4122
  239MOL0     C31471  10.393   4.898   4.734 -0.1398  0.1645  0.1810
  239MOL0     C31472  10.531   4.872   4.722  0.1869 -0.3695  0.2320
  239MOL0     C31473  10.614   4.900   4.829  0.5885 -0.4884 -0.5837
  239MOL0     O31474  10.752   4.864   4.823 -0.7475  0.3990  0.3965
  239MOL0     C31475  10.854   4.920   4.906  0.1498  0.3906 -0.0773
  239MOL0     C31476  10.987   4.919   4.825  0.3242  0.6375 -0.0391
  239MOL0     C31477  11.112   4.972   4.904  0.3390  0.0282 -0.3313
  239MOL0     C31478  11.233   4.980   4.799 -0.5387 -1.0088 -0.2464
  239MOL0     C31479  11.362   4.972   4.872 -0.8354  0.1244 -0.2823
  239MOL0     C31480  11.467   4.948   4.931  0.3899 -0.0539  0.7908
  239MOL0     C31481  10.555   4.952   4.946 -1.0325  0.0459 -0.2565
  239MOL0     C31482  10.419   4.971   4.960 -0.1810  0.0087 -0.7964
  239MOL0     H31483   9.912   4.887   5.034 -3.6986 -0.0441  1.0228
  239MOL0     H31484   9.694   4.909   4.950 -0.9882 -0.2821  0.6615
  239MOL0     H31485   9.565   4.937   4.778  1.5160  0.1677  3.0208
  239MOL0     H31486   9.433   5.056   4.734  0.7451 -1.2936 -1.3643
  239MOL0     H31487   9.462   4.920   5.000 -1.2105 -1.3395 -0.0542
  239MOL0     H31488   9.329   4.896   4.896  0.2113  0.5154 -2.4474
  239MOL0     H31489   9.392   5.140   5.058  0.1605  1.3523 -1.8552
  239MOL0     H31490   9.260   5.014   5.069 -1.2452  0.7485 -0.0915
  239MOL0     H31491   9.210   5.262   4.971  2.2698  1.8797 -2.4674
  239MOL0     H31492   9.273   5.195   4.827  2.8276 -1.1615  1.0548
  239MOL0     H31493   9.048   5.054   4.988  0.0581 -1.0140 -0.2193
  239MOL0     H31494   9.090   5.018   4.821  1.5291 -1.2197  1.3273
  239MOL0     H31495   9.000   5.294   4.920  1.0858  0.9289 -0.9401
  239MOL0     H31496   8.883   5.179   4.858 -0.0018 -1.6262 -1.2506
  239MOL0     H31497   9.115   5.311   4.709  0.0472  0.4299 -2.2330
  239MOL0     H31498   9.035   5.162   4.645 -0.9281 -0.6925  1.7283
  239MOL0     H31499   8.969   5.390   4.565 -1.5618  3.4068  1.7478
  239MOL0     H31500   8.921   5.427   4.735 -1.3797 -0.4149  0.2963
  239MOL0     H31501   8.678   5.341   4.824  4.0276  2.8621 -0.1171
  239MOL0     H31502   8.368   5.309   4.574 -1.3146  4.0237  1.8567
  239MOL0     H31503   8.415   5.383   4.720 -3.5201  0.2693 -1.3006
  239MOL0     H31504   8.451   5.166   4.834 -2.1728  1.9554  2.6868
  239MOL0     H31505   8.382   5.081   4.700  2.3046  0.5466 -0.7379
  239MOL0     H31506   8.216   5.114   4.880 -0.1635  2.4417  1.9392
  239MOL0     H31507   8.216   5.293   4.854  0.0968 -1.5272  4.7407
  239MOL0     H31508   8.079   5.074   4.706 -3.1189  0.0811 -2.6852
  239MOL0     H31509   8.155   5.186   4.602 -1.2676 -3.2938 -0.0094
  239MOL0     H31510   7.818   5.447   4.729  0.1037  0.6265 -0.0339
  239MOL0     H31511   7.590   5.415   4.642 -3.1778 -3.0651  2.5054
  239MOL0     H31512   7.325   5.197   4.226  2.8087 -1.5238  0.1570
  239MOL0     H31513   7.077   5.161   4.202  0.6708 -0.7235  0.5563
  239MOL0     H31514   6.823   4.910   4.472 -2.6025  0.3313 -0.8441
  239MOL0     H31515   6.933   4.798   4.381  2.1475  2.1410 -3.0389
  239MOL0     H31516   6.684   4.744   4.329 -2.2131  1.4988  0.5402
  239MOL0     H31517   6.776   4.836   4.193  0.9768 -0.6451  0.5980
  239MOL0     H31518   6.683   5.044   4.326 -0.9833  0.7779 -0.4548
  239MOL0     H31519   6.586   4.928   4.416  2.0033  2.3080  2.1877
  239MOL0     H31520   6.552   5.001   4.122 -1.3418  1.0035  0.1854
  239MOL0     H31521   6.499   4.846   4.193  2.2741 -0.8219  1.0581
  239MOL0     H31522   6.414   5.133   4.287  1.2842  0.1663  1.4087
  239MOL0     H31523   6.387   4.972   4.377  0.0178  0.7645  0.7855
  239MOL0     H31524   6.261   4.880   4.198 -0.0564 -0.2070 -1.4175
  239MOL0     H31525   6.290   5.015   4.086  0.7991  3.0672  0.6511
  239MOL0     H31526   6.135   5.034   4.334  0.7386  0.9349  0.3069
  239MOL0     H31527   6.171   5.170   4.217 -0.0197  0.5617  2.7259
  239MOL0     H31528   6.027   4.900   4.155  1.7173 -0.7480 -0.1582
  239MOL0     H31529   6.055   5.025   4.040  1.1457  1.6003  0.0480
  239MOL0     H31530   7.054   4.899   4.547  0.3965 -0.8424  0.7580
  239MOL0     H31531   7.292   4.944   4.570 -2.0692 -0.0745  0.0049
  239MOL0     H31532   7.704   5.030   4.489 -0.7857  1.6462 -4.4883
  239MOL0     H31533   7.936   5.062   4.555 -1.7255 -0.6633 -1.8422
  239MOL0     H31534   9.773   5.283   4.784 -1.5159  1.1527  2.8488
  239MOL0     H31535  10.007   5.262   4.832  0.4141  0.0887 -0.0381
  239MOL0     H31536  10.334   4.880   4.645 -0.6010 -0.6045  0.6284
  239MOL0     H31537  10.551   4.810   4.635  0.5567 -0.1579  0.1627
  239MOL0     H31538  10.875   4.860   4.995 -0.6356 -1.4626 -1.0691
  239MOL0     H31539  10.829   5.023   4.934  2.5325  1.0252 -0.0731
  239MOL0     H31540  11.010   4.819   4.788 -2.2203  0.2426 -0.7647
  239MOL0     H31541  10.981   4.975   4.731  0.3925 -2.9584 -2.3886
  239MOL0     H31542  11.141   4.893   4.974  2.3425  1.1935  0.2222
  239MOL0     H31543  11.092   5.072   4.943  0.1606 -0.4485  0.8230
  239MOL0     H31544  11.222   4.907   4.719 -1.7672  3.3280 -4.5521
  239MOL0     H31545  11.245   5.076   4.749  0.0158  0.4914  2.5363
  239MOL0     H31546  11.555   4.922   4.985  0.6927  2.6181  1.7084
  239MOL0     H31547  10.622   4.947   5.032 -0.1141 -1.0287 -1.0101
  239MOL0     H31548  10.376   5.008   5.052  0.3080 -0.0418 -0.5503
  240MOL0     O31549   3.954   5.788   3.361 -0.4359 -0.1243  0.2602
  240MOL0     C31550   3.989   5.671   3.329  0.0380  0.1813  0.1525
  240MOL0     O31551   3.909   5.569   3.304  0.1378 -0.7527  0.0963
  240MOL0     C31552   3.776   5.575   3.299  0.8197  0.4005 -0.1590
  240MOL0     C31553   3.707   5.452   3.305  0.1562 -0.6464 -0.5267
  240MOL0     C31554   3.567   5.456   3.309 -0.0969 -0.8321 -1.1631
  240MOL0     C31555   3.497   5.574   3.294  0.4117 -1.3510  0.1542
  240MOL0     O31556   3.358   5.582   3.287 -0.2676  0.3408 -0.9099
  240MOL0     C31557   3.296   5.461   3.307 -0.0552 -0.3878  0.4075
  240MOL0     C31558   3.148   5.503   3.273 -0.7816 -0.4772 -0.7697
  240MOL0     C31559   3.135   5.528   3.114 -0.1125 -0.1090 -0.8899
  240MOL0     C31560   2.998   5.589   3.092  0.3407 -0.2645  0.3757
  240MOL0     C31561   2.882   5.500   3.090  0.2205 -0.7258 -0.4940
  240MOL0     C31562   2.897   5.366   3.009  0.6703  0.1273  0.5091
  240MOL0     C31563   2.793   5.258   3.042 -0.1166  0.1902 -0.1250
  240MOL0     C31564   2.648   5.302   3.016  0.7887  0.4042 -0.6102
  240MOL0     N31565   2.577   5.345   3.140  0.3305 -0.3282 -0.3135
  240MOL0     C31566   2.562   5.468   3.202  0.1727  0.5681 -0.0097
  240MOL0     C31567   2.481   5.452   3.310 -0.1122  0.4034  0.4591
  240MOL0     C31568   2.444   5.573   3.399 -1.6009 -0.3640 -0.2659
  240MOL0     C31569   2.324   5.661   3.356 -0.8732  0.6273 -0.7141
  240MOL0     C31570   2.264   5.733   3.487 -0.2359 -0.1708  0.2919
  240MOL0     C31571   2.134   5.811   3.451 -0.2507  0.3772 -0.0571
  240MOL0     O31572   2.058   5.847   3.568  0.3231 -0.4080 -0.0529
  240MOL0     C31573   1.922   5.891   3.555 -0.4086 -0.8931 -0.2253
  240MOL0     C31574   1.835   5.844   3.462 -0.5107 -0.9377 -0.1862
  240MOL0     C31575   1.706   5.895   3.462 -0.5141 -0.8192  0.0611
  240MOL0     C31576   1.655   5.977   3.569  0.4449 -0.3033  0.0709
  240MOL0     C31577   1.506   6.015   3.566 -0.6443 -0.1433  0.3509
  240MOL0     O31578   1.455   6.047   3.689  0.5980 -0.1023  0.3279
  240MOL0     C31579   1.326   6.080   3.702  0.1706 -0.0371 -0.9089
  240MOL0     C31580   1.289   6.213   3.685 -0.0594  0.0290  0.0416
  240MOL0     C31581   1.164   6.244   3.709  0.9503  0.1890 -0.0636
  240MOL0     C31582   1.061   6.146   3.745  0.5702  0.5321  0.5184
  240MOL0     O31583   0.925   6.162   3.752  0.6246  0.2746  0.1942
  240MOL0     C31584   0.874   6.297   3.766  0.5461  0.1837  0.0764
  240MOL0     C31585   0.728   6.284   3.808 -1.0951 -0.3806 -0.1930
  240MOL0     C31586   0.655   6.417   3.823  0.0120 -0.6842 -0.4011
  240MOL0     C31587   0.706   6.494   3.943  0.0367 -0.1391 -0.3636
  240MOL0     C31588   0.624   6.618   3.967 -0.2988 -0.9250  0.1550
  240MOL0     C31589   0.638   6.660   4.113  0.4477  0.1062  0.4257
  240MOL0     C31590   0.558   6.783   4.146  0.7659  0.4008  0.0805
  240MOL0     C31591   0.614   6.917   4.101  0.8769  0.6322 -0.0022
  240MOL0    Cl31592   0.493   7.039   4.141  0.3114  0.9599  0.6368
  240MOL0     C31593   1.105   6.018   3.768  0.0305  0.7936  0.2184
  240MOL0     C31594   1.236   5.985   3.749  1.2918 -0.0273 -0.7681
  240MOL0     O31595   1.443   6.020   3.460  0.1198  0.0092 -0.2137
  240MOL0     C31596   1.738   6.014   3.676  0.3760  0.0009 -0.3582
  240MOL0     C31597   1.870   5.974   3.665  0.4621 -0.0093  0.0159
  240MOL0     N31598   2.444   5.321   3.320 -0.2138 -0.3565 -1.0384
  240MOL0     N31599   2.491   5.260   3.221 -0.8820  0.0142  0.7847
  240MOL0     C31600   3.564   5.696   3.276 -0.0250 -0.5234 -0.1468
  240MOL0     C31601   3.702   5.693   3.288 -0.5289 -0.0532  0.6336
  240MOL0     C31602   4.128   5.633   3.330  1.0076 -0.0779  0.0766
  240MOL0     C31603   4.228   5.711   3.393  0.5109  0.3793 -0.6006
  240MOL0     C31604   4.358   5.675   3.381 -0.1774 -0.3314  0.3413
  240MOL0     C31605   4.403   5.557   3.317  0.3012  0.0896  0.5203
  240MOL0     O31606   4.534   5.518   3.305  0.1211 -0.0535  0.6545
  240MOL0     C31607   4.638   5.599   3.363 -0.3128  0.1301 -0.8158
  240MOL0     C31608   4.783   5.544   3.336 -0.0131  0.5737  0.0216
  240MOL0     C31609   4.801   5.390   3.378 -0.4248  0.0557  0.3327
  240MOL0     C31610   4.799   5.379   3.532  0.2741  0.1862 -0.3330
  240MOL0     C31611   4.662   5.342   3.572  0.0083 -1.2175  0.5930
  240MOL0     C31612   4.549   5.316   3.604 -0.2091  0.4522  0.5002
  240MOL0     C31613   4.310   5.482   3.260  0.3461  0.7608  0.6581
  240MOL0     C31614   4.175   5.518   3.262 -0.0490 -0.0018 -0.2749
  240MOL0     H31615   3.765   5.360   3.308 -1.0591 -1.4750 -1.3190
  240MOL0     H31616   3.536   5.352   3.304  0.1465 -1.0614  0.9278
  240MOL0     H31617   3.312   5.418   3.406  1.4445 -0.0718  0.3133
  240MOL0     H31618   3.328   5.384   3.237  0.7476 -0.1418  0.5001
  240MOL0     H31619   3.130   5.588   3.339  0.8474 -2.7438  2.9272
  240MOL0     H31620   3.082   5.432   3.324 -0.3715  0.9778  2.0066
  240MOL0     H31621   3.155   5.435   3.060 -3.9217 -2.8833  1.9334
  240MOL0     H31622   3.203   5.607   3.079 -2.0286  1.1996 -1.8042
  240MOL0     H31623   2.978   5.668   3.166 -2.9711 -0.6472  0.0076
  240MOL0     H31624   2.995   5.627   2.989 -0.4752 -2.5551 -0.5013
  240MOL0     H31625   2.799   5.564   3.059  0.6743 -0.2965 -0.8388
  240MOL0     H31626   2.860   5.475   3.194  0.3735 -0.6013 -0.4304
  240MOL0     H31627   2.996   5.323   3.027  0.6746  0.2329  0.7392
  240MOL0     H31628   2.892   5.393   2.903  0.7845  2.3007  0.9976
  240MOL0     H31629   2.820   5.169   2.985  1.4930  1.7327 -1.8996
  240MOL0     H31630   2.811   5.238   3.149 -0.9635  1.5903  0.3087
  240MOL0     H31631   2.587   5.216   2.986  0.6246  0.4932 -0.5309
  240MOL0     H31632   2.643   5.363   2.925  0.3469 -1.1791 -1.7073
  240MOL0     H31633   2.598   5.563   3.162  5.4783 -1.6682 -1.5444
  240MOL0     H31634   2.532   5.638   3.400 -0.7831 -1.3769 -2.0458
  240MOL0     H31635   2.422   5.530   3.498 -3.0911  1.5894  0.2931
  240MOL0     H31636   2.247   5.599   3.310 -0.3896  0.0621 -0.7831
  240MOL0     H31637   2.369   5.736   3.290  0.7545  0.8353  0.5350
  240MOL0     H31638   2.244   5.666   3.570 -2.1971  0.6677  0.5402
  240MOL0     H31639   2.344   5.803   3.513 -1.4264  2.4379 -2.3728
  240MOL0     H31640   2.079   5.744   3.384  2.5648 -0.8659 -1.3316
  240MOL0     H31641   2.167   5.899   3.395  3.7646 -0.0182  1.3609
  240MOL0     H31642   1.869   5.790   3.373 -1.8130  0.3037 -1.4835
  240MOL0     H31643   1.632   5.871   3.386 -0.8572 -0.6747  0.3467
  240MOL0     H31644   1.356   6.288   3.645 -1.8780  1.1346 -1.0167
  240MOL0     H31645   1.124   6.342   3.686 -0.0516 -0.7581 -2.8136
  240MOL0     H31646   0.885   6.359   3.676  1.0271 -0.7872 -0.5621
  240MOL0     H31647   0.918   6.342   3.855 -0.5713 -0.4493  0.9660
  240MOL0     H31648   0.710   6.234   3.903 -1.0911  0.6637  0.3698
  240MOL0     H31649   0.674   6.228   3.731 -0.9555 -1.7460  0.6725
  240MOL0     H31650   0.551   6.388   3.839 -1.2653  2.3019 -2.4578
  240MOL0     H31651   0.655   6.483   3.736  0.3916  0.0725  0.1540
  240MOL0     H31652   0.704   6.434   4.034  4.9956  0.3147  0.3348
  240MOL0     H31653   0.811   6.523   3.937 -0.0666  0.7627  1.5057
  240MOL0     H31654   0.519   6.607   3.938 -0.8203  0.6064  1.3145
  240MOL0     H31655   0.661   6.692   3.895 -1.4773 -0.3916  0.0681
  240MOL0     H31656   0.744   6.675   4.136  0.4740 -0.8187  0.9574
  240MOL0     H31657   0.594   6.578   4.170  1.3047  0.0121  0.9730
  240MOL0     H31658   0.460   6.786   4.098  0.3893  2.9465  0.8653
  240MOL0     H31659   0.537   6.788   4.253 -0.7948 -3.3534  0.0958
  240MOL0     H31660   0.637   6.919   3.994  2.0936  2.3667  0.2412
  240MOL0     H31661   0.705   6.945   4.155  0.1964  0.9937  0.9792
  240MOL0     H31662   1.032   5.944   3.799 -0.8787  0.8258 -1.7162
  240MOL0     H31663   1.272   5.888   3.783 -0.2896  0.1100  1.5265
  240MOL0     H31664   1.692   6.058   3.764 -0.5251 -0.4383 -0.5950
  240MOL0     H31665   1.944   6.009   3.736  0.2337  2.5623 -0.9122
  240MOL0     H31666   3.507   5.787   3.266 -0.1314 -0.8302 -2.8746
  240MOL0     H31667   3.746   5.791   3.279  1.2518 -0.9481 -1.4651
  240MOL0     H31668   4.198   5.800   3.447 -1.3783 -0.3110 -0.4624
  240MOL0     H31669   4.421   5.753   3.422 -2.9252  2.7074 -0.7694
  240MOL0     H31670   4.630   5.599   3.472 -3.0202  2.9909 -0.8912
  240MOL0     H31671   4.627   5.707   3.346 -1.7101  0.1955  0.3808
  240MOL0     H31672   4.804   5.557   3.230 -3.1587  0.1472 -0.7741
  240MOL0     H31673   4.845   5.610   3.397 -2.3736  3.9495 -0.9535
  240MOL0     H31674   4.892   5.350   3.331 -1.5864 -1.3248 -0.8152
  240MOL0     H31675   4.720   5.330   3.335  0.4451 -0.6434 -0.3870
  240MOL0     H31676   4.859   5.294   3.566  1.1610  1.8378  2.6389
  240MOL0     H31677   4.825   5.469   3.590 -0.3411 -0.0139  0.2744
  240MOL0     H31678   4.442   5.305   3.614 -0.1889  0.2914  0.5441
  240MOL0     H31679   4.336   5.394   3.203 -0.7170  1.4310 -0.9364
  240MOL0     H31680   4.109   5.455   3.204 -0.7448  0.3665  0.1036
  241MOL0     O31681  11.007  10.358   3.200 -0.3819  0.2487  0.9392
  241MOL0     C31682  10.977  10.357   3.083 -0.0530  0.4861 -0.3242
  241MOL0     O31683  10.856  10.309   3.039  0.2994  0.7620  0.5394
  241MOL0     C31684  10.780  10.227   3.116 -0.3787  0.6840 -0.2578
  241MOL0     C31685  10.635  10.244   3.133  0.1510 -0.9178  0.1044
  241MOL0     C31686  10.547  10.150   3.183  0.4585 -0.5726 -0.5073
  241MOL0     C31687  10.605  10.038   3.246  0.2838  0.7267  0.2054
  241MOL0     O31688  10.527   9.934   3.303 -0.1281 -0.4407 -0.1069
  241MOL0     C31689  10.443   9.987   3.417 -1.0828  0.0207 -0.2615
  241MOL0     C31690  10.290   9.992   3.398  0.3211 -0.0394  0.3137
  241MOL0     C31691  10.224  10.028   3.531 -0.2357 -0.2556 -0.2427
  241MOL0     C31692  10.073  10.033   3.519  0.5700  0.0636 -0.3316
  241MOL0     C31693  10.028  10.164   3.449  0.2358 -0.6870 -0.5780
  241MOL0     C31694   9.879  10.149   3.431  0.7322 -0.1842 -0.1268
  241MOL0     C31695   9.821  10.286   3.397  0.0138  0.1528 -0.9266
  241MOL0     C31696   9.674  10.283   3.384  0.0996 -0.3225  0.1522
  241MOL0     N31697   9.634  10.194   3.280  0.5135  0.9256  0.1247
  241MOL0     C31698   9.595  10.064   3.285 -0.7406  0.5528 -0.0136
  241MOL0     C31699   9.571  10.028   3.154  0.1396 -0.2841 -1.1604
  241MOL0     C31700   9.511   9.899   3.103  0.2687  0.6418  0.4514
  241MOL0     C31701   9.355   9.906   3.107 -0.4831 -0.1575 -0.5013
  241MOL0     C31702   9.286   9.779   3.046 -0.5415 -0.1702 -1.0189
  241MOL0     C31703   9.140   9.793   3.060 -0.4874  1.5260  0.2224
  241MOL0     O31704   9.081   9.916   3.017 -0.3780 -1.2157 -0.4814
  241MOL0     C31705   8.960   9.965   3.073  0.0057 -0.2885  0.3624
  241MOL0     C31706   8.885   9.883   3.154 -0.1197  0.0547 -0.4917
  241MOL0     C31707   8.753   9.918   3.179  0.1504 -0.0729  0.2130
  241MOL0     C31708   8.703  10.049   3.141  0.7574  0.8325  0.6445
  241MOL0     C31709   8.569  10.098   3.182 -0.4312  0.2449  0.6761
  241MOL0     O31710   8.500  10.027   3.268 -0.9213  0.2705 -0.2010
  241MOL0     C31711   8.386  10.074   3.320 -0.5237 -0.9030 -0.1767
  241MOL0     C31712   8.282  10.146   3.257  0.0807 -0.6475  0.0375
  241MOL0     C31713   8.178  10.212   3.327  0.2588 -0.3198 -0.1494
  241MOL0     C31714   8.168  10.182   3.467 -0.1067  0.8123  0.4185
  241MOL0     O31715   8.048  10.214   3.525 -0.5021  0.0098  0.2678
  241MOL0     C31716   7.980  10.118   3.612  0.1429 -0.5431  0.5805
  241MOL0     C31717   7.831  10.156   3.635 -0.6138  0.5228  0.0931
  241MOL0     C31718   7.832  10.285   3.715  0.1472  0.0978  0.8372
  241MOL0     C31719   7.693  10.340   3.721  0.4769  0.2750  0.4748
  241MOL0     C31720   7.587  10.241   3.775  0.3203  0.0651 -0.2902
  241MOL0     C31721   7.621  10.168   3.906 -0.8477 -0.3832  0.7679
  241MOL0     C31722   7.645  10.258   4.023 -0.4983 -0.0517 -0.7122
  241MOL0     C31723   7.652  10.179   4.159 -0.4209  0.1808 -0.0956
  241MOL0    Cl31724   7.775  10.043   4.152 -0.3403  0.2275  0.3745
  241MOL0     C31725   8.258  10.107   3.536  1.0928 -0.1067 -0.4697
  241MOL0     C31726   8.370  10.056   3.464  0.6577 -1.1106 -0.2618
  241MOL0     O31727   8.539  10.206   3.132 -0.3719  0.3782 -0.1979
  241MOL0     C31728   8.787  10.129   3.066 -0.8986 -0.2565 -0.0756
  241MOL0     C31729   8.917  10.092   3.041  0.3229  0.4858  0.0399
  241MOL0     N31730   9.582  10.138   3.079  0.5558  0.2409  0.1816
  241MOL0     N31731   9.622  10.240   3.156 -0.2156 -1.1170 -0.4422
  241MOL0     C31732  10.745  10.021   3.246 -0.1239  0.6081  0.4088
  241MOL0     C31733  10.827  10.117   3.176  0.6643  0.3253  0.6673
  241MOL0     C31734  11.083  10.401   2.982 -0.4334 -0.3591  0.3254
  241MOL0     C31735  11.212  10.433   3.030 -0.5135 -0.0727  0.0900
  241MOL0     C31736  11.312  10.460   2.937  0.0668  0.4649  0.0308
  241MOL0     C31737  11.293  10.469   2.800  0.0393 -0.3382 -0.5645
  241MOL0     O31738  11.409  10.505   2.729  0.6694  0.3747 -0.4015
  241MOL0     C31739  11.391  10.497   2.585 -0.0766  0.8323 -0.1817
  241MOL0     C31740  11.522  10.508   2.506 -0.1110  1.0448 -0.2195
  241MOL0     C31741  11.599  10.643   2.529 -0.1871  0.7403  0.6460
  241MOL0     C31742  11.741  10.632   2.463 -1.1591 -0.3029  0.0728
  241MOL0     C31743  11.742  10.613   2.322 -0.6680  0.4178  0.2378
  241MOL0     C31744  11.736  10.581   2.208 -0.0086 -0.4221 -0.4013
  241MOL0     C31745  11.159  10.452   2.754 -0.4480 -0.1266  0.0998
  241MOL0     C31746  11.052  10.415   2.844  0.0126  0.0244 -0.2497
  241MOL0     H31747  10.578  10.326   3.092 -0.7758 -1.1742  0.8202
  241MOL0     H31748  10.439  10.152   3.173  0.5252 -1.5026 -1.5763
  241MOL0     H31749  10.491  10.073   3.464  4.4157 -3.4368  1.3209
  241MOL0     H31750  10.447   9.907   3.491 -0.0829  0.4779  0.1888
  241MOL0     H31751  10.250   9.896   3.363  1.3879  0.5967 -3.0903
  241MOL0     H31752  10.255  10.056   3.316  1.7077 -3.4030 -3.2488
  241MOL0     H31753  10.263  10.121   3.573  1.2390 -0.2276 -1.5785
  241MOL0     H31754  10.245   9.961   3.615 -0.7118  1.5448  1.3927
  241MOL0     H31755  10.040   9.950   3.456  1.5571 -0.3810 -0.2863
  241MOL0     H31756  10.037  10.031   3.623  0.9159 -4.4214 -0.1012
  241MOL0     H31757  10.080  10.179   3.354  3.0135 -2.2527  0.5824
  241MOL0     H31758  10.040  10.249   3.518 -1.3595 -1.1376  0.3019
  241MOL0     H31759   9.827  10.113   3.520 -0.1623  1.9477  0.2683
  241MOL0     H31760   9.853  10.082   3.348 -2.0251  0.0090  0.4968
  241MOL0     H31761   9.840  10.351   3.483 -0.3180 -0.7203 -0.1696
  241MOL0     H31762   9.877  10.332   3.316 -2.4657  0.7107 -2.4232
  241MOL0     H31763   9.631  10.381   3.362  0.5499  0.1369  1.2196
  241MOL0     H31764   9.638  10.237   3.477 -0.4461  0.1450  0.1850
  241MOL0     H31765   9.571  10.006   3.373 -5.1691 -0.7660 -1.7736
  241MOL0     H31766   9.556   9.814   3.154  0.3742 -0.1868 -0.9709
  241MOL0     H31767   9.535   9.881   2.998  1.2639 -1.2859  0.9686
  241MOL0     H31768   9.325   9.995   3.051 -1.5800  0.0467  0.3806
  241MOL0     H31769   9.334   9.925   3.212  1.8232  1.3682 -0.2603
  241MOL0     H31770   9.315   9.783   2.940  0.9132  2.1641 -0.6047
  241MOL0     H31771   9.314   9.685   3.093 -2.2706 -0.4753 -0.5362
  241MOL0     H31772   9.126   9.778   3.167 -0.2620  0.7455  0.1492
  241MOL0     H31773   9.078   9.708   3.031 -1.1564  1.3441  2.0474
  241MOL0     H31774   8.904   9.781   3.183 -1.3067 -0.3517 -1.0561
  241MOL0     H31775   8.692   9.850   3.237  3.0777 -2.6126  0.5618
  241MOL0     H31776   8.292  10.153   3.150  2.3578  0.8962  0.2922
  241MOL0     H31777   8.112  10.273   3.266  0.5667 -1.5415 -1.7628
  241MOL0     H31778   8.042  10.096   3.699  1.6132 -0.0488 -0.3142
  241MOL0     H31779   7.964  10.017   3.573 -0.6044 -0.7518  1.3840
  241MOL0     H31780   7.786  10.074   3.692 -1.0496  1.9030  1.8215
  241MOL0     H31781   7.792  10.184   3.537  0.5759  1.2636 -0.1964
  241MOL0     H31782   7.889  10.362   3.661  0.0659 -0.3832  0.0444
  241MOL0     H31783   7.879  10.279   3.813 -0.9988 -1.1367  1.3340
  241MOL0     H31784   7.713  10.428   3.783  2.3257  1.3131 -1.4825
  241MOL0     H31785   7.655  10.372   3.624  0.5210 -3.2963 -0.8678
  241MOL0     H31786   7.582  10.168   3.694  1.6098  0.6289 -0.9046
  241MOL0     H31787   7.492  10.296   3.780  0.2099 -0.2098  0.7958
  241MOL0     H31788   7.707  10.102   3.892  0.4268  1.2323  0.7414
  241MOL0     H31789   7.540  10.097   3.927 -1.3481  0.4747  1.8301
  241MOL0     H31790   7.741  10.310   4.025  1.7960 -3.9805  1.1682
  241MOL0     H31791   7.570  10.338   4.030 -0.5815  0.0419 -2.2746
  241MOL0     H31792   7.557  10.124   4.160  2.3441 -5.4051 -0.8578
  241MOL0     H31793   7.649  10.239   4.250 -2.8704  0.1645 -0.1030
  241MOL0     H31794   8.255  10.101   3.644  2.4594 -1.0311 -0.4536
  241MOL0     H31795   8.458  10.013   3.510  0.3568  0.3814  1.8431
  241MOL0     H31796   8.767  10.230   3.032  2.4584  0.1101 -1.3353
  241MOL0     H31797   8.986  10.149   2.980  2.1970 -1.4891  0.1855
  241MOL0     H31798  10.798   9.932   3.275  3.3025  2.8346  1.5998
  241MOL0     H31799  10.932  10.090   3.170  0.4203 -1.1692  2.2714
  241MOL0     H31800  11.237  10.437   3.136 -3.5212  0.9975  0.8438
  241MOL0     H31801  11.416  10.475   2.964  1.4145  0.4479 -4.3778
  241MOL0     H31802  11.318  10.575   2.563  0.0245  0.2546 -2.8854
  241MOL0     H31803  11.341  10.407   2.547  0.8789  1.8555 -4.3879
  241MOL0     H31804  11.598  10.433   2.531  1.6241  2.9756  0.6029
  241MOL0     H31805  11.505  10.501   2.398  2.6845 -1.7572 -0.6364
  241MOL0     H31806  11.604  10.656   2.638 -0.3684 -2.3098  1.0953
  241MOL0     H31807  11.546  10.729   2.488 -0.6115  1.3938  2.4717
  241MOL0     H31808  11.811  10.709   2.496  0.3148 -0.8603 -1.5713
  241MOL0     H31809  11.795  10.541   2.492  2.9656  1.3177 -1.6860
  241MOL0     H31810  11.725  10.552   2.105  3.7422 -0.7315 -0.8860
  241MOL0     H31811  11.136  10.445   2.648  1.5672 -1.5653 -0.3171
  241MOL0     H31812  10.960  10.372   2.805 -0.0988 -2.1870  2.1591
  242MOL0     O31813   9.544   2.550   7.786  0.9882 -0.0636 -0.1320
  242MOL0     C31814   9.519   2.521   7.666 -0.2804 -0.3220 -0.9148
  242MOL0     O31815   9.393   2.511   7.615 -0.3926  0.5018 -0.1562
  242MOL0     C31816   9.287   2.548   7.688 -1.2404 -0.7810  0.1613
  242MOL0     C31817   9.227   2.666   7.653  0.0260 -0.4683 -0.5873
  242MOL0     C31818   9.115   2.707   7.725  0.2127  0.4190  0.3662
  242MOL0     C31819   9.051   2.619   7.814 -0.2572 -1.0155 -0.7550
  242MOL0     O31820   8.929   2.652   7.881 -0.1056  0.0968 -0.3750
  242MOL0     C31821   8.861   2.774   7.838 -0.1102  0.3133 -1.0165
  242MOL0     C31822   8.802   2.776   7.693  0.6691 -0.2101 -0.2617
  242MOL0     C31823   8.657   2.702   7.672 -0.5132  0.3938  0.0181
  242MOL0     C31824   8.609   2.722   7.525  0.0122  0.5252  0.7566
  242MOL0     C31825   8.459   2.670   7.498 -0.2295 -0.0012 -0.3298
  242MOL0     C31826   8.368   2.728   7.602 -0.3603 -0.1185 -0.3656
  242MOL0     C31827   8.225   2.692   7.563  0.0745 -0.1453 -0.7467
  242MOL0     C31828   8.137   2.723   7.688 -0.0542  0.5976  0.7734
  242MOL0     N31829   8.001   2.676   7.656 -0.2982 -0.4391  0.2593
  242MOL0     C31830   7.931   2.707   7.542 -0.0166  0.3713  0.1972
  242MOL0     C31831   7.825   2.627   7.544  0.0281  0.3285 -0.5617
  242MOL0     C31832   7.715   2.645   7.442 -0.1086  0.4157 -0.0157
  242MOL0     C31833   7.577   2.693   7.493 -0.2712 -0.1519 -0.0649
  242MOL0     C31834   7.455   2.633   7.412 -0.3199  0.4885 -0.3322
  242MOL0     C31835   7.320   2.682   7.451  0.7530 -0.0111 -0.5277
  242MOL0     O31836   7.206   2.612   7.393 -0.7187 -0.0739 -0.2851
  242MOL0     C31837   7.083   2.669   7.411 -0.3499 -0.2401 -0.0260
  242MOL0     C31838   6.976   2.620   7.341 -0.8466 -1.3894 -0.3201
  242MOL0     C31839   6.846   2.679   7.358  0.0945  0.1304  0.1130
  242MOL0     C31840   6.819   2.777   7.455  0.0324  0.8947 -0.2059
  242MOL0     C31841   6.684   2.844   7.486  0.1274  0.1639  1.2920
  242MOL0     O31842   6.581   2.804   7.413  0.3390 -0.4148 -0.0124
  242MOL0     C31843   6.462   2.863   7.391 -0.0333 -0.3418  0.0001
  242MOL0     C31844   6.437   3.004   7.396  0.4512 -0.2486  0.8579
  242MOL0     C31845   6.307   3.058   7.381 -1.0882 -0.8038  0.2158
  242MOL0     C31846   6.200   2.976   7.357 -0.8659 -1.0379  0.2512
  242MOL0     O31847   6.076   3.035   7.349  0.3280 -0.5563 -0.3461
  242MOL0     C31848   5.960   2.948   7.372 -0.5455  0.1748  0.1137
  242MOL0     C31849   5.834   3.022   7.392  0.1242 -0.1688 -0.9125
  242MOL0     C31850   5.822   3.097   7.516  0.0084  0.1794 -0.5332
  242MOL0     C31851   5.690   3.085   7.599 -0.8125  0.4202 -0.7790
  242MOL0     C31852   5.575   3.133   7.518 -0.2467 -0.5114 -0.0912
  242MOL0     C31853   5.457   3.157   7.606  0.0859  0.1108  0.4848
  242MOL0     C31854   5.328   3.170   7.529 -0.2125  0.1122 -0.4161
  242MOL0     C31855   5.219   3.252   7.607 -0.4815  0.3599  0.2822
  242MOL0    Cl31856   5.075   3.162   7.675 -0.0325  0.3745  0.2590
  242MOL0     C31857   6.227   2.831   7.349  1.5355 -0.3844  0.2675
  242MOL0     C31858   6.355   2.778   7.367  0.0267  0.0050 -1.0089
  242MOL0     O31859   6.688   2.932   7.570 -0.2525  0.0904 -0.2645
  242MOL0     C31860   6.932   2.818   7.536 -0.2419  0.5737 -0.3155
  242MOL0     C31861   7.061   2.761   7.512  0.5541 -0.7786 -0.5551
  242MOL0     N31862   7.829   2.541   7.656  0.9476 -0.2644 -0.2023
  242MOL0     N31863   7.941   2.574   7.717  0.2862  0.0825  0.6890
  242MOL0     C31864   9.109   2.500   7.852  0.2292 -0.4959  0.2804
  242MOL0     C31865   9.232   2.462   7.785  0.7169  0.5603  0.8038
  242MOL0     C31866   9.628   2.469   7.581  0.2812 -0.1410  0.2856
  242MOL0     C31867   9.758   2.517   7.602 -0.0824  0.2524  0.8392
  242MOL0     C31868   9.866   2.471   7.527  0.2015 -0.0199 -0.0721
  242MOL0     C31869   9.838   2.371   7.430  0.1300 -0.4020 -0.3637
  242MOL0     O31870   9.946   2.310   7.365  0.7945 -0.4664 -0.2972
  242MOL0     C31871  10.009   2.384   7.264  0.6274 -1.0925  0.2559
  242MOL0     C31872  10.132   2.320   7.213 -1.2982 -0.2628  0.1501
  242MOL0     C31873  10.187   2.395   7.088  0.8384 -0.7092 -0.7381
  242MOL0     C31874  10.330   2.339   7.066  0.3313 -0.1229 -0.5235
  242MOL0     C31875  10.413   2.412   6.977  0.0613  0.9259  0.0545
  242MOL0     C31876  10.481   2.472   6.898  0.0835 -0.3046 -0.0303
  242MOL0     C31877   9.709   2.319   7.410  0.2282 -0.3293 -0.0900
  242MOL0     C31878   9.605   2.367   7.486  0.4796 -0.4292  0.9941
  242MOL0     H31879   9.281   2.738   7.592  0.3979 -1.3229 -1.2745
  242MOL0     H31880   9.070   2.799   7.690 -1.1151 -0.5536 -0.5799
  242MOL0     H31881   8.917   2.865   7.862  0.3335 -0.3511  0.5410
  242MOL0     H31882   8.768   2.786   7.895 -1.6933 -1.5482 -3.0409
  242MOL0     H31883   8.875   2.729   7.627 -0.5454 -2.1983 -0.2610
  242MOL0     H31884   8.784   2.880   7.665 -0.2637 -0.7716 -1.8199
  242MOL0     H31885   8.587   2.759   7.733 -1.5184 -1.4169  0.6379
  242MOL0     H31886   8.670   2.604   7.720 -0.7016  1.2840  1.9869
  242MOL0     H31887   8.630   2.822   7.486  0.2957  0.5634  1.0068
  242MOL0     H31888   8.669   2.650   7.468 -0.0854 -0.9933  2.4835
  242MOL0     H31889   8.449   2.561   7.502  1.3243 -0.1460  0.0847
  242MOL0     H31890   8.425   2.711   7.402  1.3123 -0.7595 -1.2234
  242MOL0     H31891   8.386   2.836   7.596 -0.1445 -0.1223  0.2124
  242MOL0     H31892   8.396   2.681   7.697 -1.9254 -0.4829 -0.0525
  242MOL0     H31893   8.201   2.757   7.478 -1.0179  1.8615  1.0157
  242MOL0     H31894   8.213   2.588   7.531  1.2531 -0.3677 -0.5218
  242MOL0     H31895   8.139   2.831   7.702  1.4615  0.8942 -1.2804
  242MOL0     H31896   8.171   2.672   7.778 -1.7224 -0.1781  1.0002
  242MOL0     H31897   7.946   2.791   7.475  0.4911 -1.5962 -2.3082
  242MOL0     H31898   7.704   2.540   7.412 -1.1593 -1.0741  4.7209
  242MOL0     H31899   7.739   2.709   7.357 -4.1351  2.0719 -0.1041
  242MOL0     H31900   7.561   2.801   7.479 -0.2569  0.1650  1.9998
  242MOL0     H31901   7.576   2.679   7.602 -0.4216  1.5075  0.1867
  242MOL0     H31902   7.473   2.666   7.310  2.0923  1.8400  0.4474
  242MOL0     H31903   7.466   2.524   7.409  0.8457  0.4176  2.6587
  242MOL0     H31904   7.321   2.791   7.439  1.8978  0.2343  1.3095
  242MOL0     H31905   7.306   2.664   7.558  2.6632  1.9669  0.1399
  242MOL0     H31906   6.983   2.546   7.261 -2.8667 -2.6021  0.5738
  242MOL0     H31907   6.766   2.642   7.295  1.0963 -1.0737 -0.4820
  242MOL0     H31908   6.521   3.071   7.412  0.1894 -0.2479  2.4458
  242MOL0     H31909   6.311   3.166   7.376  1.7836 -0.7840  1.4322
  242MOL0     H31910   5.956   2.892   7.466 -1.6733 -1.3726 -0.8130
  242MOL0     H31911   5.950   2.873   7.293  2.0882 -0.4408  0.2576
  242MOL0     H31912   5.749   2.953   7.394  0.4639 -0.6115  1.1684
  242MOL0     H31913   5.815   3.095   7.313 -0.2575  1.7348  0.8350
  242MOL0     H31914   5.839   3.198   7.477  1.2860  1.0783  2.1366
  242MOL0     H31915   5.910   3.080   7.578 -0.3059 -2.1174 -0.6491
  242MOL0     H31916   5.676   2.982   7.634 -3.5657  0.8561 -0.3821
  242MOL0     H31917   5.700   3.151   7.686  2.0011 -0.5396 -0.2808
  242MOL0     H31918   5.562   3.057   7.441 -0.5781 -1.6350  1.0364
  242MOL0     H31919   5.609   3.220   7.462  4.8203 -3.5559 -2.5557
  242MOL0     H31920   5.479   3.251   7.657  0.8881 -0.7112  1.7075
  242MOL0     H31921   5.457   3.086   7.689 -2.0465 -0.6443 -0.1101
  242MOL0     H31922   5.351   3.222   7.436 -3.5426  0.8770 -0.9412
  242MOL0     H31923   5.292   3.067   7.518 -1.2091  0.0364  2.6966
  242MOL0     H31924   5.186   3.321   7.529  1.6721 -1.3503 -2.3487
  242MOL0     H31925   5.269   3.313   7.683 -1.4470  1.5921 -0.0544
  242MOL0     H31926   6.136   2.772   7.347  1.2037  0.1317 -0.4569
  242MOL0     H31927   6.359   2.670   7.366  0.8785 -0.0169  1.0149
  242MOL0     H31928   6.910   2.887   7.616 -0.1638 -2.3914  2.4775
  242MOL0     H31929   7.132   2.795   7.587  0.2918  2.3057 -1.5711
  242MOL0     H31930   9.060   2.430   7.919  0.4953  1.0981  2.2263
  242MOL0     H31931   9.295   2.377   7.809  1.8990  1.4281  0.8811
  242MOL0     H31932   9.774   2.593   7.678 -1.2065  0.1760  1.1678
  242MOL0     H31933   9.966   2.507   7.548  0.5680  0.3968 -2.2512
  242MOL0     H31934  10.013   2.492   7.276  1.7911 -0.9718 -1.0142
  242MOL0     H31935   9.945   2.375   7.176  0.9397 -0.3734 -0.0493
  242MOL0     H31936  10.209   2.331   7.290 -1.1725 -0.9307  0.1281
  242MOL0     H31937  10.128   2.214   7.187 -1.3819  0.2583 -2.2322
  242MOL0     H31938  10.191   2.504   7.090  2.5439 -0.5898 -3.9888
  242MOL0     H31939  10.122   2.365   7.006  3.6198 -2.1886 -2.5644
  242MOL0     H31940  10.389   2.328   7.157  0.6323  2.3434 -0.3681
  242MOL0     H31941  10.328   2.239   7.021 -0.2146  0.1958 -1.2170
  242MOL0     H31942  10.549   2.524   6.833  0.0619 -1.5365 -1.0751
  242MOL0     H31943   9.689   2.233   7.347 -1.3747  0.3113 -0.5156
  242MOL0     H31944   9.505   2.329   7.465 -0.3405  3.0120 -2.7327
  243MOL0     O31945   3.777   3.113   2.636  0.5708 -0.0891  0.7706
  243MOL0     C31946   3.828   3.094   2.521  0.0099 -0.2675  0.2607
  243MOL0     O31947   3.756   3.079   2.405 -0.1789  0.3083 -0.4791
  243MOL0     C31948   3.628   3.033   2.413  0.1733  0.3041 -0.9460
  243MOL0     C31949   3.590   2.940   2.511  0.4785 -0.2354 -0.3970
  243MOL0     C31950   3.458   2.888   2.524 -0.1622 -0.0131  0.5491
  243MOL0     C31951   3.355   2.931   2.435 -0.7843 -0.4527  0.5151
  243MOL0     O31952   3.228   2.882   2.453 -0.1561  0.0772  0.5406
  243MOL0     C31953   3.130   2.888   2.344  0.0073  0.3283  0.0003
  243MOL0     C31954   3.008   2.825   2.382 -1.0430  0.4924  0.2182
  243MOL0     C31955   2.921   2.797   2.268 -0.8550 -0.4468 -0.4602
  243MOL0     C31956   2.792   2.717   2.305  0.4761 -0.3060  0.5359
  243MOL0     C31957   2.690   2.783   2.404  0.6299 -0.2564  0.0464
  243MOL0     C31958   2.644   2.934   2.365  0.3974  1.1814  0.2258
  243MOL0     C31959   2.537   2.968   2.466  1.5295 -0.5468  0.0103
  243MOL0     C31960   2.405   2.927   2.404 -0.7773  0.2603  0.2720
  243MOL0     N31961   2.313   2.979   2.503 -0.3187  0.5746  0.3914
  243MOL0     C31962   2.252   2.908   2.605 -0.1283  0.5852 -0.2979
  243MOL0     C31963   2.162   2.993   2.652 -0.0485  0.2641 -0.1184
  243MOL0     C31964   2.094   2.970   2.793 -0.0616 -1.4569  0.9877
  243MOL0     C31965   2.006   2.840   2.815  0.0650 -0.1339  0.3127
  243MOL0     C31966   1.992   2.819   2.963  0.2605  0.9329  0.3035
  243MOL0     C31967   1.950   2.671   2.968  0.2089  0.6750  0.1342
  243MOL0     O31968   1.852   2.649   3.070 -0.0206  0.1753 -0.4703
  243MOL0     C31969   1.801   2.523   3.097 -0.3032 -0.5148  0.5154
  243MOL0     C31970   1.827   2.409   3.018 -0.1236  0.8803 -0.3164
  243MOL0     C31971   1.745   2.294   3.041  0.2953  0.3743 -0.9153
  243MOL0     C31972   1.648   2.285   3.145  0.4981  0.2431 -0.0371
  243MOL0     C31973   1.555   2.172   3.149  0.7265 -0.4349 -0.2348
  243MOL0     O31974   1.603   2.064   3.079  0.6386 -1.0313 -0.7231
  243MOL0     C31975   1.535   1.952   3.055  0.3835  0.2197  1.2768
  243MOL0     C31976   1.396   1.964   3.035  0.1933 -0.0376 -0.5145
  243MOL0     C31977   1.327   1.846   3.019 -0.4831  0.7304  0.1927
  243MOL0     C31978   1.398   1.717   3.005  0.8458  0.1584 -0.1416
  243MOL0     O31979   1.330   1.609   2.953  0.1666  0.1562 -0.1990
  243MOL0     C31980   1.378   1.479   2.994  0.4841  0.1842  0.4412
  243MOL0     C31981   1.244   1.392   2.991 -0.2309  0.6333 -0.3652
  243MOL0     C31982   1.117   1.439   3.064 -0.2323 -0.6747  0.8046
  243MOL0     C31983   1.002   1.345   3.051  0.1614 -0.1243  0.4903
  243MOL0     C31984   0.874   1.406   3.106  0.3840  0.4011  0.1472
  243MOL0     C31985   0.744   1.333   3.069  0.4327  0.1440 -0.0432
  243MOL0     C31986   0.621   1.391   3.143 -1.5448 -0.1540 -0.5972
  243MOL0     C31987   0.499   1.404   3.052 -0.4264 -0.0817 -0.0450
  243MOL0    Cl31988   0.406   1.259   3.032 -0.2140 -0.1644  0.6394
  243MOL0     C31989   1.539   1.707   3.033  0.4726 -0.6275  0.0835
  243MOL0     C31990   1.605   1.828   3.048  0.3510 -0.1199  0.3258
  243MOL0     O31991   1.458   2.178   3.226  0.5192  0.6368 -0.1439
  243MOL0     C31992   1.641   2.396   3.232  0.1506  0.0693  0.0432
  243MOL0     C31993   1.730   2.508   3.215  0.2367 -0.4773  0.7622
  243MOL0     N31994   2.170   3.118   2.581 -0.1920  0.9772 -0.6291
  243MOL0     N31995   2.255   3.096   2.488  0.7657 -0.3484 -0.1900
  243MOL0     C31996   3.395   3.018   2.328  0.9679 -0.6775 -0.7016
  243MOL0     C31997   3.529   3.075   2.322 -0.0841 -0.6079  0.1075
  243MOL0     C31998   3.976   3.098   2.513  0.0034  0.3439 -0.3751
  243MOL0     C31999   4.052   3.106   2.639  0.3328 -0.3208  0.0618
  243MOL0     C32000   4.187   3.104   2.628 -0.0247  0.7175  0.0864
  243MOL0     C32001   4.250   3.129   2.506  0.0388  0.7781 -0.2632
  243MOL0     O32002   4.385   3.143   2.506  0.1120  0.7318  0.5900
  243MOL0     C32003   4.430   3.280   2.479 -0.7171  0.8426 -0.0924
  243MOL0     C32004   4.501   3.331   2.604  0.7175 -0.4322 -0.2236
  243MOL0     C32005   4.643   3.284   2.626 -0.7917  0.6012  1.0823
  243MOL0     C32006   4.701   3.326   2.757 -0.2313 -0.0058 -0.9274
  243MOL0     C32007   4.844   3.308   2.754 -0.1298  0.7341  0.7802
  243MOL0     C32008   4.965   3.303   2.769  0.2756 -0.7997  0.4762
  243MOL0     C32009   4.180   3.118   2.388 -0.2616  0.2714 -0.7370
  243MOL0     C32010   4.040   3.095   2.392  0.0019 -0.0988  0.4003
  243MOL0     H32011   3.670   2.900   2.572  0.3652 -1.4059 -0.9919
  243MOL0     H32012   3.439   2.817   2.603 -0.0886 -0.4864  0.1445
  243MOL0     H32013   3.172   2.836   2.257  0.7814 -0.0174  0.5583
  243MOL0     H32014   3.106   2.991   2.316 -0.1510 -0.0951 -1.4945
  243MOL0     H32015   2.948   2.890   2.447 -2.3168 -0.3646 -0.0649
  243MOL0     H32016   3.028   2.737   2.443 -1.2215 -0.5265 -1.1574
  243MOL0     H32017   2.967   2.747   2.182 -0.3223  2.9287 -2.2942
  243MOL0     H32018   2.890   2.893   2.226 -0.0415  0.0164 -0.0337
  243MOL0     H32019   2.733   2.681   2.220 -0.9300 -0.0984  1.3919
  243MOL0     H32020   2.829   2.620   2.339  0.3651  0.3783  2.7594
  243MOL0     H32021   2.724   2.777   2.508  2.0688  0.5054 -0.3523
  243MOL0     H32022   2.600   2.722   2.415 -1.1762  2.6151  3.1577
  243MOL0     H32023   2.595   2.935   2.267 -0.7788  1.1949  0.7867
  243MOL0     H32024   2.727   3.004   2.354 -0.0854  1.4295 -2.5504
  243MOL0     H32025   2.552   2.935   2.569 -1.8820  0.2026  0.8896
  243MOL0     H32026   2.522   3.077   2.471 -1.4579 -0.5749 -3.4860
  243MOL0     H32027   2.400   2.820   2.384 -1.3528  0.0184  1.5773
  243MOL0     H32028   2.387   2.977   2.308  0.6780  0.9994  0.3670
  243MOL0     H32029   2.276   2.811   2.647 -0.6348  0.8071  0.5357
  243MOL0     H32030   2.022   3.053   2.801  1.2568 -0.0573 -0.7402
  243MOL0     H32031   2.161   2.991   2.876  0.0990  4.2282 -0.1351
  243MOL0     H32032   2.057   2.757   2.765  0.0552 -0.1398  0.3126
  243MOL0     H32033   1.910   2.849   2.764 -0.7088 -2.1115  1.3156
  243MOL0     H32034   2.075   2.849   3.028  0.1112  0.5539  0.6692
  243MOL0     H32035   1.908   2.881   2.996  0.4908  1.7818 -0.6781
  243MOL0     H32036   2.036   2.605   2.973 -1.1685 -1.3159 -0.9908
  243MOL0     H32037   1.900   2.645   2.874 -0.6846 -0.2244  0.8345
  243MOL0     H32038   1.885   2.423   2.927 -1.2703  0.7659 -1.0821
  243MOL0     H32039   1.735   2.218   2.964 -5.5222 -2.1372  1.7255
  243MOL0     H32040   1.338   2.056   3.039 -2.8774 -1.8243 -0.5765
  243MOL0     H32041   1.218   1.853   3.020 -0.5469  1.1025 -2.5220
  243MOL0     H32042   1.425   1.488   3.093  3.7054 -0.3268 -0.9278
  243MOL0     H32043   1.458   1.433   2.935 -2.2793  0.6081 -4.0626
  243MOL0     H32044   1.267   1.291   3.029 -0.6284  1.1577  1.3510
  243MOL0     H32045   1.227   1.368   2.886  1.5934  1.5355 -0.9046
  243MOL0     H32046   1.106   1.538   3.018 -1.6587 -0.4951  1.4711
  243MOL0     H32047   1.139   1.460   3.170 -1.3152  0.5680  0.8074
  243MOL0     H32048   0.988   1.317   2.946  0.3402 -1.3194  0.7756
  243MOL0     H32049   1.026   1.253   3.105  0.3493 -0.3761 -0.0113
  243MOL0     H32050   0.853   1.511   3.082 -0.9832  0.4157  1.2641
  243MOL0     H32051   0.879   1.396   3.215 -2.1726 -1.1114  0.2236
  243MOL0     H32052   0.753   1.225   3.085  2.2235  0.3849  0.8274
  243MOL0     H32053   0.719   1.338   2.963 -1.0919 -0.2905  0.2685
  243MOL0     H32054   0.602   1.314   3.219  1.4272 -2.6031 -2.0808
  243MOL0     H32055   0.643   1.485   3.194  0.9835 -0.3261 -1.2664
  243MOL0     H32056   0.530   1.445   2.955  1.8446 -4.0478 -1.2445
  243MOL0     H32057   0.426   1.471   3.098 -0.3986  0.4119 -0.7014
  243MOL0     H32058   1.593   1.613   3.028  2.5702  0.5186 -0.1537
  243MOL0     H32059   1.714   1.831   3.050  0.7345 -5.0734  1.4781
  243MOL0     H32060   1.556   2.409   3.298 -0.6528  0.4815 -1.0352
  243MOL0     H32061   1.712   2.600   3.269 -0.5351  0.5263 -1.1008
  243MOL0     H32062   3.315   3.035   2.257  0.4879 -3.9580 -1.0881
  243MOL0     H32063   3.564   3.131   2.235  1.2833 -2.0340 -0.3051
  243MOL0     H32064   4.013   3.104   2.741  1.4069  0.5432  0.5128
  243MOL0     H32065   4.255   3.093   2.712 -0.9518  0.8648  0.8630
  243MOL0     H32066   4.349   3.351   2.456  0.2050  2.5636  1.6449
  243MOL0     H32067   4.514   3.285   2.409  1.6890  1.7500  2.6401
  243MOL0     H32068   4.501   3.440   2.589 -2.1320 -0.1564  1.1219
  243MOL0     H32069   4.430   3.299   2.681 -0.6126 -0.0580 -1.2560
  243MOL0     H32070   4.697   3.323   2.540 -1.1538 -1.2766 -0.0525
  243MOL0     H32071   4.646   3.175   2.626 -3.0667  0.4804  1.8040
  243MOL0     H32072   4.689   3.434   2.772 -1.6421 -0.1231 -1.0853
  243MOL0     H32073   4.683   3.257   2.839  0.5295 -0.0953 -0.8254
  243MOL0     H32074   5.072   3.313   2.771  0.1414  1.2390  0.0113
  243MOL0     H32075   4.233   3.124   2.293 -1.4070 -2.9214 -1.7146
  243MOL0     H32076   3.981   3.083   2.301  1.5085 -0.0107 -0.6206
  244MOL0     O32077   8.248   1.432   1.303 -0.5521  0.0370 -0.5406
  244MOL0     C32078   8.291   1.469   1.411 -0.0727 -0.1547 -0.2437
  244MOL0     O32079   8.228   1.478   1.528 -0.2748  0.2809 -0.2268
  244MOL0     C32080   8.096   1.463   1.538  0.5595 -0.4043  0.3233
  244MOL0     C32081   8.034   1.569   1.612 -0.5388  0.7440 -0.0285
  244MOL0     C32082   7.904   1.567   1.652  1.0270  0.2527  0.5348
  244MOL0     C32083   7.831   1.451   1.622 -0.1915 -0.1088  0.5294
  244MOL0     O32084   7.694   1.445   1.643  0.4796  0.0668 -0.3640
  244MOL0     C32085   7.615   1.568   1.644 -0.0028  0.0508 -0.2105
  244MOL0     C32086   7.469   1.528   1.669 -0.0184  0.7883  0.2596
  244MOL0     C32087   7.383   1.652   1.674 -0.1827 -0.7718 -0.1901
  244MOL0     C32088   7.245   1.602   1.722 -0.0074 -0.9330 -0.2511
  244MOL0     C32089   7.155   1.724   1.725  0.5528 -0.9173 -0.1363
  244MOL0     C32090   7.002   1.688   1.746 -0.3592  0.4380 -1.0937
  244MOL0     C32091   6.982   1.616   1.880 -0.3947  0.3307 -1.3575
  244MOL0     C32092   6.846   1.552   1.900 -1.6574 -0.5434  1.0137
  244MOL0     N32093   6.732   1.645   1.897  0.3585  0.6187 -0.0800
  244MOL0     C32094   6.685   1.715   1.784  0.1620 -0.6261 -1.0972
  244MOL0     C32095   6.569   1.767   1.828 -0.4775  0.0654  0.6041
  244MOL0     C32096   6.474   1.840   1.743  0.8033 -0.7670  0.6313
  244MOL0     C32097   6.343   1.770   1.722  0.3241  0.0991  0.2883
  244MOL0     C32098   6.275   1.744   1.862  0.2988 -0.3986  0.5542
  244MOL0     C32099   6.135   1.713   1.848  0.1480  0.1345 -0.3126
  244MOL0     O32100   6.056   1.825   1.808 -0.5617  0.3565  0.7429
  244MOL0     C32101   5.921   1.800   1.783  0.7717  0.1218  1.2598
  244MOL0     C32102   5.853   1.681   1.824 -0.8068  0.4115 -0.0101
  244MOL0     C32103   5.717   1.674   1.832  0.1158  0.0470 -0.5435
  244MOL0     C32104   5.643   1.786   1.789 -0.6755  0.5893 -0.4700
  244MOL0     C32105   5.496   1.777   1.795  0.2652 -0.3549 -0.2694
  244MOL0     O32106   5.431   1.659   1.833  0.3682 -0.2653  0.7915
  244MOL0     C32107   5.294   1.656   1.848  0.4063  0.4741  0.4112
  244MOL0     C32108   5.209   1.558   1.790 -0.2765 -0.6019  0.3943
  244MOL0     C32109   5.073   1.563   1.834  0.4287  0.7241  0.6494
  244MOL0     C32110   5.014   1.662   1.913 -0.0739  0.2871  0.1138
  244MOL0     O32111   4.881   1.661   1.945  0.2392 -0.4960 -0.7589
  244MOL0     C32112   4.805   1.548   1.898  0.1106  0.6113 -0.9956
  244MOL0     C32113   4.671   1.537   1.971 -0.5613 -0.7085  0.0478
  244MOL0     C32114   4.571   1.434   1.907 -0.0702  1.3596  0.1497
  244MOL0     C32115   4.439   1.460   1.983 -1.1661  0.2937 -0.4865
  244MOL0     C32116   4.331   1.374   1.912  0.4779 -1.0403  0.2705
  244MOL0     C32117   4.206   1.389   1.996  0.2672  0.0935 -0.4327
  244MOL0     C32118   4.073   1.395   1.917 -0.1407  0.0608  0.1361
  244MOL0     C32119   4.044   1.268   1.840 -1.0679  0.9175  0.0019
  244MOL0    Cl32120   4.052   1.116   1.943 -0.3091 -0.3173 -0.1430
  244MOL0     C32121   5.096   1.764   1.966  0.2624  0.9101 -0.0912
  244MOL0     C32122   5.234   1.757   1.933  0.6610  0.8127  0.4384
  244MOL0     O32123   5.437   1.871   1.749  0.1133  0.1772  0.5843
  244MOL0     C32124   5.706   1.898   1.733 -0.8696  0.0471  0.2587
  244MOL0     C32125   5.848   1.904   1.737  0.3758 -0.8242 -0.4212
  244MOL0     N32126   6.546   1.732   1.956 -0.3213 -0.4692 -0.3483
  244MOL0     N32127   6.635   1.652   1.993 -0.4656  0.7130 -0.6961
  244MOL0     C32128   7.900   1.341   1.568  0.3778  0.6009  0.5281
  244MOL0     C32129   8.034   1.345   1.528 -1.4765 -0.6436  0.2360
  244MOL0     C32130   8.436   1.497   1.415  0.5888 -0.8026 -0.2714
  244MOL0     C32131   8.491   1.565   1.529 -0.3244 -0.2846 -0.0240
  244MOL0     C32132   8.623   1.610   1.534  0.0137 -0.5641  0.9814
  244MOL0     C32133   8.709   1.595   1.421 -0.2969  0.0336 -0.2190
  244MOL0     O32134   8.834   1.647   1.417 -0.4353 -0.2231  0.9477
  244MOL0     C32135   8.907   1.625   1.528 -0.1359 -0.3826 -0.3216
  244MOL0     C32136   9.054   1.617   1.500 -0.5283 -0.2773 -0.0457
  244MOL0     C32137   9.120   1.581   1.632  0.2937  0.3434  0.1824
  244MOL0     C32138   9.272   1.573   1.615  0.0001 -0.1412 -0.3347
  244MOL0     C32139   9.340   1.464   1.549  0.0378  0.6842 -0.2071
  244MOL0     C32140   9.405   1.372   1.509  0.7544  1.0025  0.5871
  244MOL0     C32141   8.656   1.532   1.306 -0.4151 -0.3649  0.6878
  244MOL0     C32142   8.528   1.474   1.300  0.4290 -0.5502 -0.0764
  244MOL0     H32143   8.110   1.640   1.645 -0.4339  0.2222  0.8858
  244MOL0     H32144   7.869   1.645   1.720  2.5184  1.3356  0.1219
  244MOL0     H32145   7.620   1.626   1.551 -2.1202  1.2475  0.3360
  244MOL0     H32146   7.659   1.632   1.721  0.9671 -0.4325 -0.3566
  244MOL0     H32147   7.469   1.483   1.769  2.3727  1.3381  0.5727
  244MOL0     H32148   7.418   1.458   1.603 -1.4712  0.8870  1.2252
  244MOL0     H32149   7.369   1.680   1.569  0.8217 -0.4852 -0.2571
  244MOL0     H32150   7.427   1.734   1.731  0.3868  0.3910 -2.2093
  244MOL0     H32151   7.207   1.523   1.656 -0.6745 -2.8851  2.2781
  244MOL0     H32152   7.251   1.569   1.826 -0.3851 -1.4816 -0.3989
  244MOL0     H32153   7.167   1.782   1.633 -0.0798  3.7116  2.4178
  244MOL0     H32154   7.187   1.792   1.804 -0.8280  2.8062 -2.5156
  244MOL0     H32155   6.978   1.619   1.665 -1.9940 -0.8531  0.4226
  244MOL0     H32156   6.958   1.787   1.733  1.1093  1.0814 -1.4655
  244MOL0     H32157   7.058   1.538   1.889 -1.3121 -0.7290 -2.4130
  244MOL0     H32158   7.016   1.679   1.963  0.2105 -1.9700  0.2245
  244MOL0     H32159   6.855   1.503   1.998 -0.0601 -1.9883  0.2168
  244MOL0     H32160   6.827   1.473   1.827 -2.5287  0.0816  0.5601
  244MOL0     H32161   6.729   1.733   1.687  1.1205  3.6016 -0.0951
  244MOL0     H32162   6.507   1.881   1.647 -3.5143  1.2733 -0.1827
  244MOL0     H32163   6.450   1.922   1.811 -0.3422 -0.1940 -0.4277
  244MOL0     H32164   6.365   1.676   1.671  1.4134  0.2941  0.3863
  244MOL0     H32165   6.274   1.831   1.662  1.3076 -0.0679 -1.0687
  244MOL0     H32166   6.321   1.650   1.896  1.0685 -0.1769  0.1642
  244MOL0     H32167   6.276   1.821   1.939 -1.3607  0.2267 -0.0116
  244MOL0     H32168   6.098   1.668   1.940 -3.2746 -1.3361 -2.1897
  244MOL0     H32169   6.130   1.626   1.782  2.4515 -2.2528  2.4362
  244MOL0     H32170   5.907   1.593   1.858  2.2568  1.1838 -2.4357
  244MOL0     H32171   5.656   1.594   1.873  2.6376 -1.2635  0.8611
  244MOL0     H32172   5.248   1.491   1.714 -3.6769 -0.6285 -1.4745
  244MOL0     H32173   5.016   1.482   1.790  2.2230 -0.2779  0.0720
  244MOL0     H32174   4.865   1.459   1.916 -0.0661  0.9128  1.3436
  244MOL0     H32175   4.794   1.550   1.789 -0.8440  0.5776 -0.9099
  244MOL0     H32176   4.629   1.635   1.943 -1.8137 -1.1214  0.4286
  244MOL0     H32177   4.679   1.531   2.080  0.2113  2.0584  0.2236
  244MOL0     H32178   4.605   1.330   1.903  0.3434  1.3489  2.4477
  244MOL0     H32179   4.555   1.468   1.805  0.1461 -0.5721 -0.5630
  244MOL0     H32180   4.454   1.425   2.085  0.8717  0.3885 -0.7018
  244MOL0     H32181   4.414   1.566   1.985 -0.4219  0.4617  1.2956
  244MOL0     H32182   4.358   1.269   1.895  2.8368 -0.0026 -3.5014
  244MOL0     H32183   4.315   1.425   1.817  3.1395  0.5297  0.5416
  244MOL0     H32184   4.217   1.478   2.060 -1.9662  1.4476 -1.7779
  244MOL0     H32185   4.208   1.306   2.068  1.9370 -1.1000 -1.7776
  244MOL0     H32186   3.983   1.415   1.976 -0.2511 -1.1868  0.4037
  244MOL0     H32187   4.075   1.480   1.848 -0.4557  2.3836  2.7962
  244MOL0     H32188   4.112   1.251   1.756 -0.8251  1.4691  0.0799
  244MOL0     H32189   3.950   1.287   1.788 -2.1956 -0.4952  1.4167
  244MOL0     H32190   5.069   1.833   2.044 -0.2428 -1.8694  2.3549
  244MOL0     H32191   5.303   1.827   1.982  1.4758  2.4330 -2.7459
  244MOL0     H32192   5.657   1.980   1.683  0.5678  0.6892 -0.1270
  244MOL0     H32193   5.904   1.983   1.687 -1.3667  0.2243 -0.8342
  244MOL0     H32194   7.829   1.259   1.564 -2.2251  2.7081 -3.4403
  244MOL0     H32195   8.089   1.263   1.483  1.6395  0.2977  2.0360
  244MOL0     H32196   8.432   1.589   1.617  1.3301  0.8063  0.8567
  244MOL0     H32197   8.647   1.670   1.621  1.1129  2.8308 -1.4555
  244MOL0     H32198   8.877   1.533   1.579  0.8761 -0.2953  0.4783
  244MOL0     H32199   8.877   1.706   1.596  0.2355 -0.4803 -0.0321
  244MOL0     H32200   9.072   1.538   1.427  1.8004  0.4172 -0.2951
  244MOL0     H32201   9.088   1.711   1.457 -3.8799  0.7056 -0.8988
  244MOL0     H32202   9.074   1.493   1.678  0.4081  2.0712  4.0264
  244MOL0     H32203   9.102   1.661   1.704  0.0104  1.2149 -0.8343
  244MOL0     H32204   9.302   1.663   1.562  0.5855 -1.0563 -1.6116
  244MOL0     H32205   9.317   1.598   1.712 -0.2224 -0.1598 -0.2253
  244MOL0     H32206   9.444   1.275   1.485 -2.1566  0.1662 -1.2266
  244MOL0     H32207   8.718   1.515   1.219  0.4746 -0.7867  1.3857
  244MOL0     H32208   8.483   1.429   1.212 -0.8737  0.2831  0.1307
  245MOL0     O32209   1.370   0.130   6.069 -0.2079 -0.3849  0.5450
  245MOL0     C32210   1.314   0.111   5.961  0.4518  0.6033  0.4893
  245MOL0     O32211   1.183   0.109   5.938  0.2166 -0.7512 -0.0949
  245MOL0     C32212   1.096   0.139   6.034  0.5302  0.1017 -0.0595
  245MOL0     C32213   0.981   0.058   6.061  0.3892 -0.5112 -0.5196
  245MOL0     C32214   0.896   0.088   6.166  0.6577  0.3313 -0.1158
  245MOL0     C32215   0.907   0.209   6.241  0.2227 -1.2498  0.3630
  245MOL0     O32216   0.823   0.266   6.330  0.7760  0.0882 -0.6878
  245MOL0     C32217   0.720   0.180   6.394  0.2632 -0.3593  1.1937
  245MOL0     C32218   0.604   0.265   6.443 -1.0331 -0.3211 -0.6731
  245MOL0     C32219   0.521   0.336   6.331  0.8714 -0.5991 -0.9857
  245MOL0     C32220   0.448   0.248   6.230 -0.8238 -0.0018 -0.1461
  245MOL0     C32221   0.382   0.326   6.115  0.0606 -0.3584  0.3446
  245MOL0     C32222   0.479   0.411   6.020 -0.4069  0.8275 -0.1795
  245MOL0     C32223   0.598   0.316   5.964  0.6489 -0.0390 -0.5361
  245MOL0     C32224   0.708   0.389   5.893  0.4536 -0.2370  0.0686
  245MOL0     N32225   0.656   0.462   5.776  0.6391  0.5388  0.4627
  245MOL0     C32226   0.688   0.596   5.751  0.0518  0.6637  0.1363
  245MOL0     C32227   0.640   0.605   5.623 -0.4151  0.3931 -0.3744
  245MOL0     C32228   0.653   0.739   5.551  0.9561 -0.3968 -0.1357
  245MOL0     C32229   0.656   0.718   5.402  0.0322 -0.8893  0.2835
  245MOL0     C32230   0.679   0.839   5.302  0.4725 -0.1655  0.8252
  245MOL0     C32231   0.835   0.858   5.286 -1.0257 -0.9140  0.2624
  245MOL0     O32232   0.863   0.953   5.193  0.0624 -0.3114 -0.0339
  245MOL0     C32233   0.990   0.967   5.146 -0.0576  1.0409  0.0850
  245MOL0     C32234   1.097   0.888   5.181 -0.3141 -0.5015  0.4937
  245MOL0     C32235   1.227   0.912   5.141 -0.7467  0.0268 -0.0005
  245MOL0     C32236   1.250   1.015   5.056  0.7922  0.7366 -0.0116
  245MOL0     C32237   1.398   1.040   5.015 -0.6283 -0.1026 -0.3161
  245MOL0     O32238   1.495   0.982   5.091  0.6910 -0.2574 -0.1040
  245MOL0     C32239   1.619   0.975   5.038 -0.2322 -1.1572 -0.7735
  245MOL0     C32240   1.677   0.853   5.007  0.1743  0.1176  0.4902
  245MOL0     C32241   1.808   0.852   4.949  0.6383  0.2842  0.3773
  245MOL0     C32242   1.884   0.968   4.929  0.0060 -0.1490 -0.2173
  245MOL0     O32243   2.002   0.964   4.859  0.7230 -0.3222  0.3188
  245MOL0     C32244   2.094   0.860   4.885  0.2537  0.7341 -0.5230
  245MOL0     C32245   2.236   0.907   4.858 -0.3667  0.4935 -0.1504
  245MOL0     C32246   2.339   0.785   4.860 -0.0380  0.2440 -0.0624
  245MOL0     C32247   2.480   0.848   4.840  0.1499 -0.6498  0.2701
  245MOL0     C32248   2.593   0.743   4.864  0.4857  0.0844 -0.7467
  245MOL0     C32249   2.727   0.798   4.834  0.2015 -1.1445 -0.1217
  245MOL0     C32250   2.760   0.848   4.690  0.5332 -0.4747 -0.9694
  245MOL0     C32251   2.721   0.761   4.572 -0.0265  0.1983  1.2452
  245MOL0    Cl32252   2.831   0.769   4.440 -0.4184  0.3064  0.1954
  245MOL0     C32253   1.829   1.089   4.962 -0.4775 -0.3391  0.1427
  245MOL0     C32254   1.697   1.091   5.015 -0.3871 -0.1911  0.4109
  245MOL0     O32255   1.414   1.091   4.901  0.4412 -0.1546 -0.3681
  245MOL0     C32256   1.146   1.104   5.020 -0.2309  0.3891  0.8772
  245MOL0     C32257   1.012   1.072   5.064  0.9652  0.3362  0.6588
  245MOL0     N32258   0.583   0.485   5.581  0.0691  0.4432  0.1232
  245MOL0     N32259   0.602   0.389   5.671  0.4609 -0.0449  0.2148
  245MOL0     C32260   1.020   0.291   6.212  0.0132  0.3549  0.2927
  245MOL0     C32261   1.114   0.253   6.117  0.0529  0.6304  0.1750
  245MOL0     C32262   1.402   0.077   5.840  0.3273  0.0312  0.0971
  245MOL0     C32263   1.357   0.078   5.711 -0.5677 -0.4507 -0.3088
  245MOL0     C32264   1.438   0.023   5.608  0.3990  0.3374  0.4228
  245MOL0     C32265   1.565  -0.031   5.637 -0.1532  0.5636 -0.1274
  245MOL0     O32266   1.650  -0.080   5.539 -0.9885 -0.2771  0.5002
  245MOL0     C32267   1.604  -0.064   5.404 -0.4939 -0.5199  0.0111
  245MOL0     C32268   1.718  -0.108   5.316  0.4859 -0.2634  0.1176
  245MOL0     C32269   1.833  -0.006   5.313 -0.1173  0.6103 -1.3869
  245MOL0     C32270   1.958  -0.059   5.234  0.7461  1.1140 -0.8196
  245MOL0     C32271   2.064   0.038   5.244 -0.4834  0.0056  0.2452
  245MOL0     C32272   2.144   0.131   5.255  0.2422  0.3891 -1.1874
  245MOL0     C32273   1.610  -0.019   5.765 -0.3805 -1.2841  0.2275
  245MOL0     C32274   1.533   0.035   5.869  0.6306 -0.5160  0.1585
  245MOL0     H32275   0.966  -0.020   5.986  0.2536 -2.4482  1.4098
  245MOL0     H32276   0.806   0.031   6.187 -2.6684  5.4908  1.4158
  245MOL0     H32277   0.763   0.116   6.471 -1.3374 -0.1470  2.3133
  245MOL0     H32278   0.694   0.101   6.324  1.4523 -0.2584  0.6107
  245MOL0     H32279   0.649   0.339   6.511 -1.2902 -1.4144  0.7362
  245MOL0     H32280   0.546   0.203   6.512  2.0838  0.2228  2.7444
  245MOL0     H32281   0.591   0.401   6.278  1.7371 -2.2630 -1.9939
  245MOL0     H32282   0.443   0.395   6.378  0.5229 -0.6429 -1.5015
  245MOL0     H32283   0.513   0.166   6.198  1.4387  0.2543  3.2549
  245MOL0     H32284   0.365   0.204   6.286 -0.3414 -1.5930 -0.6315
  245MOL0     H32285   0.309   0.391   6.164 -1.5807  0.0471 -2.4180
  245MOL0     H32286   0.326   0.256   6.052  0.6181  0.6378 -1.3274
  245MOL0     H32287   0.526   0.485   6.085 -2.0662  1.5935  0.2264
  245MOL0     H32288   0.428   0.452   5.932  0.8307  1.7169 -0.5036
  245MOL0     H32289   0.636   0.250   6.043 -1.2260 -1.3065 -0.6341
  245MOL0     H32290   0.553   0.249   5.890  0.4864  0.1714 -0.6282
  245MOL0     H32291   0.788   0.322   5.862 -0.0451 -1.5426  1.4913
  245MOL0     H32292   0.756   0.462   5.960 -0.1006  1.6891 -1.5313
  245MOL0     H32293   0.736   0.668   5.816  0.4876  2.1290 -1.7115
  245MOL0     H32294   0.741   0.799   5.576 -1.5233  3.8692 -0.5994
  245MOL0     H32295   0.568   0.799   5.586  1.5671  0.6881 -0.4771
  245MOL0     H32296   0.558   0.682   5.371  0.0356 -0.1420 -0.6382
  245MOL0     H32297   0.730   0.643   5.373 -0.4400 -0.8409 -1.1285
  245MOL0     H32298   0.642   0.822   5.201 -1.4811  1.9172  1.0988
  245MOL0     H32299   0.627   0.929   5.335 -0.4575 -0.1255 -0.6520
  245MOL0     H32300   0.880   0.760   5.268 -2.7064 -1.7104  0.1229
  245MOL0     H32301   0.870   0.898   5.381 -1.0360 -1.4087  0.4780
  245MOL0     H32302   1.091   0.808   5.254  0.1499  0.7053  1.9158
  245MOL0     H32303   1.311   0.853   5.177  2.6599  1.8730 -3.9596
  245MOL0     H32304   1.626   0.761   5.035 -0.5658  0.4845  0.3792
  245MOL0     H32305   1.859   0.759   4.927 -2.5152 -1.3842 -0.3488
  245MOL0     H32306   2.064   0.784   4.811 -0.1305 -0.6072  0.9483
  245MOL0     H32307   2.089   0.814   4.984 -1.3565 -1.4075 -1.4937
  245MOL0     H32308   2.256   0.976   4.941  1.9807  0.1464 -0.3866
  245MOL0     H32309   2.232   0.959   4.762 -2.9524 -2.1187 -1.6388
  245MOL0     H32310   2.324   0.719   4.775 -0.7238  0.5417 -0.1831
  245MOL0     H32311   2.331   0.719   4.947 -0.6652 -0.9175 -0.9654
  245MOL0     H32312   2.489   0.890   4.739  0.6051 -2.9267 -0.6894
  245MOL0     H32313   2.498   0.927   4.914 -2.2404 -0.7458  1.0513
  245MOL0     H32314   2.583   0.659   4.794 -2.3916 -1.6375  1.5024
  245MOL0     H32315   2.592   0.690   4.960 -0.8358 -0.3431 -0.9715
  245MOL0     H32316   2.798   0.715   4.844  2.7813  0.9289 -0.2580
  245MOL0     H32317   2.763   0.864   4.912 -2.0402  0.9549 -0.7310
  245MOL0     H32318   2.724   0.950   4.673  1.5693 -0.0082 -0.4357
  245MOL0     H32319   2.868   0.860   4.701  0.2682 -0.0148  1.7805
  245MOL0     H32320   2.627   0.794   4.526  0.7061  1.3869  0.5647
  245MOL0     H32321   2.704   0.655   4.597  0.6046 -0.3728 -0.5867
  245MOL0     H32322   1.883   1.179   4.932  0.8612 -1.1721 -0.0354
  245MOL0     H32323   1.669   1.191   5.048  1.2521 -0.0230  1.4256
  245MOL0     H32324   1.162   1.179   4.943 -1.7877 -1.6708 -1.5986
  245MOL0     H32325   0.927   1.120   5.018  0.4057  0.1481  1.4909
  245MOL0     H32326   1.030   0.382   6.270  0.5111  0.6339 -0.2235
  245MOL0     H32327   1.203   0.308   6.089  0.7869 -1.6863 -2.4116
  245MOL0     H32328   1.257   0.109   5.683  0.3735  0.9317 -2.3812
  245MOL0     H32329   1.385   0.030   5.514 -3.1256  1.0939  2.2621
  245MOL0     H32330   1.582   0.039   5.375  2.5379 -0.4473 -2.5190
  245MOL0     H32331   1.518  -0.131   5.390  0.9199 -2.6020  0.8745
  245MOL0     H32332   1.759  -0.204   5.349 -0.4710 -0.3247  1.2020
  245MOL0     H32333   1.687  -0.123   5.213 -0.3493 -2.1119  0.6075
  245MOL0     H32334   1.872   0.026   5.411  0.3035 -1.8031 -0.7124
  245MOL0     H32335   1.792   0.085   5.267  0.0670  1.5405  0.1892
  245MOL0     H32336   1.997  -0.153   5.275  1.4910  1.0040 -1.7544
  245MOL0     H32337   1.915  -0.087   5.137  0.6372 -0.2477 -0.4059
  245MOL0     H32338   2.207   0.218   5.262  0.7582  0.0482 -1.4932
  245MOL0     H32339   1.714  -0.040   5.789  0.6273  1.6053 -1.2030
  245MOL0     H32340   1.578   0.040   5.967  2.8896  0.5919 -0.8488
  246MOL0     O32341   4.707   8.685   0.171 -0.3622 -0.5367 -0.1095
  246MOL0     C32342   4.710   8.634   0.279  0.8750  0.2401 -0.1676
  246MOL0     O32343   4.613   8.641   0.378  0.1673  0.3640  0.1726
  246MOL0     C32344   4.488   8.682   0.343  0.0361  0.4292 -0.1036
  246MOL0     C32345   4.424   8.643   0.222 -0.2256 -0.1289  0.5774
  246MOL0     C32346   4.293   8.689   0.192 -0.6776  0.0375  0.2005
  246MOL0     C32347   4.222   8.772   0.277 -0.9503  0.6673 -0.6247
  246MOL0     O32348   4.087   8.811   0.248 -1.3862  0.0574 -0.0086
  246MOL0     C32349   3.994   8.787   0.348  0.1704 -0.0542 -0.1795
  246MOL0     C32350   3.996   8.645   0.413  0.2725 -0.0939  1.0615
  246MOL0     C32351   3.969   8.546   0.292  0.1823  0.2980 -0.6361
  246MOL0     C32352   3.984   8.407   0.353  1.6259 -0.4867  0.0235
  246MOL0     C32353   3.961   8.308   0.244 -0.6191  1.1512  0.1718
  246MOL0     C32354   3.940   8.176   0.329  0.1218 -0.0994 -0.0008
  246MOL0     C32355   3.953   8.059   0.232  0.1433 -0.5699 -0.7841
  246MOL0     C32356   3.912   7.936   0.311 -0.3676  0.6790 -0.4454
  246MOL0     N32357   3.768   7.923   0.321  0.1963 -0.0503  0.5487
  246MOL0     C32358   3.689   7.850   0.232 -0.6776 -0.0347  0.2007
  246MOL0     C32359   3.568   7.846   0.295 -0.7681  0.1267 -0.1305
  246MOL0     C32360   3.445   7.774   0.241  0.2301  0.2139  0.2322
  246MOL0     C32361   3.374   7.868   0.145 -0.3511  0.0632 -0.4059
  246MOL0     C32362   3.246   7.920   0.208  0.0736 -0.1300  1.1534
  246MOL0     C32363   3.121   7.909   0.126 -0.0896 -0.5829 -0.6961
  246MOL0     O32364   3.092   7.768   0.125  0.0290  0.1215 -0.2694
  246MOL0     C32365   2.967   7.735   0.069  1.1908  0.2461  0.6458
  246MOL0     C32366   2.872   7.813  -0.003  0.1818  0.2356 -1.3350
  246MOL0     C32367   2.756   7.754  -0.053  0.0265  0.2503 -0.5520
  246MOL0     C32368   2.729   7.620  -0.028 -0.1031  0.3106  0.5828
  246MOL0     C32369   2.604   7.552  -0.080  0.1685  0.7298  1.3775
  246MOL0     O32370   2.537   7.455  -0.003 -0.3712 -0.3538 -0.5024
  246MOL0     C32371   2.418   7.400  -0.061 -1.0593  0.1714  0.1360
  246MOL0     C32372   2.300   7.403   0.008 -0.4746  0.5637 -0.2757
  246MOL0     C32373   2.184   7.348  -0.046 -0.4362 -0.2401  0.3142
  246MOL0     C32374   2.182   7.286  -0.174 -0.2051 -0.2684 -0.3774
  246MOL0     O32375   2.074   7.240  -0.248  0.0394 -0.0698  0.0248
  246MOL0     C32376   1.953   7.216  -0.176  0.3085 -1.0025 -0.2647
  246MOL0     C32377   1.900   7.074  -0.181  0.3159  0.0788 -0.9298
  246MOL0     C32378   1.870   7.031  -0.326  1.1262 -0.5598  0.2342
  246MOL0     C32379   1.845   6.871  -0.338 -0.4889 -0.3183 -1.3515
  246MOL0     C32380   1.815   6.813  -0.474 -0.0601  0.0387  0.3862
  246MOL0     C32381   1.726   6.686  -0.464  0.2551  0.5971 -0.3899
  246MOL0     C32382   1.734   6.611  -0.597  1.0539 -0.2596 -0.6531
  246MOL0     C32383   1.640   6.664  -0.708 -0.7975 -0.3511 -0.3372
  246MOL0    Cl32384   1.476   6.576  -0.692 -0.2502  0.0513 -0.1154
  246MOL0     C32385   2.312   7.261  -0.225  0.3049  1.1430  0.3639
  246MOL0     C32386   2.427   7.332  -0.177 -0.4801  0.4125 -0.3585
  246MOL0     O32387   2.553   7.594  -0.182 -0.1092  0.0496 -0.1020
  246MOL0     C32388   2.824   7.538   0.036 -0.2975  0.4876 -0.7011
  246MOL0     C32389   2.940   7.600   0.085 -0.7137  0.1545 -0.6858
  246MOL0     N32390   3.581   7.888   0.421 -0.3196  0.3906  0.4197
  246MOL0     N32391   3.699   7.938   0.437 -0.4725 -0.5763 -0.0509
  246MOL0     C32392   4.284   8.813   0.400  0.2716 -0.1960 -0.2573
  246MOL0     C32393   4.418   8.762   0.430 -0.6224 -0.0441 -0.1379
  246MOL0     C32394   4.835   8.554   0.316 -0.6414  0.1684 -0.1457
  246MOL0     C32395   4.830   8.441   0.402  0.3083 -0.6222  0.2286
  246MOL0     C32396   4.945   8.368   0.442 -0.1060  0.2888  0.1549
  246MOL0     C32397   5.065   8.401   0.375  0.5193 -0.6672 -0.6522
  246MOL0     O32398   5.193   8.353   0.401 -0.3855  0.0138 -0.2960
  246MOL0     C32399   5.194   8.222   0.463  0.0276 -0.5384 -0.1371
  246MOL0     C32400   5.335   8.153   0.458 -0.5282  0.5283 -0.0280
  246MOL0     C32401   5.435   8.218   0.554 -0.5966  0.3081 -0.0611
  246MOL0     C32402   5.576   8.149   0.537 -0.1676  0.4007  0.3490
  246MOL0     C32403   5.666   8.215   0.630  0.7972  0.0695  0.1339
  246MOL0     C32404   5.730   8.288   0.706 -0.3057  0.0116 -0.1967
  246MOL0     C32405   5.066   8.516   0.287 -1.0894 -0.4905 -0.2025
  246MOL0     C32406   4.958   8.585   0.259 -0.1294 -0.1577 -0.4603
  246MOL0     H32407   4.479   8.586   0.147  0.4989 -1.1452  1.8374
  246MOL0     H32408   4.252   8.649   0.100 -1.1277  1.7141 -0.3727
  246MOL0     H32409   3.897   8.814   0.306  1.0434  2.2059 -0.9076
  246MOL0     H32410   4.012   8.857   0.430  2.6795 -1.4558  0.5699
  246MOL0     H32411   3.912   8.643   0.483 -2.4296  2.8899 -1.7377
  246MOL0     H32412   4.091   8.625   0.462  1.5026  3.1240  0.2901
  246MOL0     H32413   4.038   8.555   0.207 -1.5708 -4.1185 -2.8427
  246MOL0     H32414   3.873   8.569   0.246 -0.0122  1.3748  0.2626
  246MOL0     H32415   4.081   8.385   0.398  1.8538  1.3512  0.5129
  246MOL0     H32416   3.910   8.389   0.432  2.0297 -1.4690  0.1974
  246MOL0     H32417   4.051   8.296   0.183 -0.7948 -0.0760  0.1422
  246MOL0     H32418   3.871   8.332   0.187 -1.4583 -2.5071 -0.2574
  246MOL0     H32419   3.840   8.186   0.372 -0.1612 -4.2495  0.7284
  246MOL0     H32420   4.013   8.162   0.410 -0.3416  1.1127  0.6448
  246MOL0     H32421   3.888   8.072   0.145  0.3918 -0.4187 -0.9465
  246MOL0     H32422   4.058   8.065   0.202  0.0901  2.8047 -0.6287
  246MOL0     H32423   3.956   7.953   0.410 -1.7533 -2.6662  0.9116
  246MOL0     H32424   3.949   7.851   0.253 -2.5066  0.1237 -1.1047
  246MOL0     H32425   3.739   7.804   0.147 -2.4020  0.5363 -1.1914
  246MOL0     H32426   3.378   7.741   0.321  0.2998 -0.1846  0.1296
  246MOL0     H32427   3.467   7.678   0.194 -1.2371 -1.1916  2.2248
  246MOL0     H32428   3.362   7.817   0.049  1.6405 -0.3931 -0.4523
  246MOL0     H32429   3.435   7.958   0.133  0.3526 -0.6517 -2.7872
  246MOL0     H32430   3.228   7.880   0.308 -0.5639 -0.3315  0.9634
  246MOL0     H32431   3.264   8.026   0.231  0.6980 -0.7702  3.8990
  246MOL0     H32432   3.129   7.952   0.026  1.2688  3.3661  0.8883
  246MOL0     H32433   3.040   7.963   0.176  2.1554  3.7875 -1.2881
  246MOL0     H32434   2.886   7.920   0.007 -1.8765  0.4316  0.0248
  246MOL0     H32435   2.692   7.824  -0.107  0.5302  0.5251 -0.7925
  246MOL0     H32436   2.292   7.458   0.101  0.7716  0.8250 -0.3128
  246MOL0     H32437   2.091   7.371   0.005 -1.0965  2.2467 -1.7799
  246MOL0     H32438   1.879   7.279  -0.226 -0.3431  0.8354  2.7441
  246MOL0     H32439   1.958   7.240  -0.070 -1.5706 -0.1486 -0.3350
  246MOL0     H32440   1.810   7.069  -0.118  2.1338  1.1318  1.9475
  246MOL0     H32441   1.962   7.005  -0.123 -2.0549  1.2197  3.4098
  246MOL0     H32442   1.960   7.057  -0.384  0.2209  1.8122 -0.2327
  246MOL0     H32443   1.782   7.084  -0.364  1.6816 -1.0259 -1.8688
  246MOL0     H32444   1.931   6.823  -0.291 -0.6964  2.1693  1.9409
  246MOL0     H32445   1.753   6.851  -0.281 -1.9407  1.8097 -2.7988
  246MOL0     H32446   1.913   6.788  -0.515  0.1725  2.4123 -0.6462
  246MOL0     H32447   1.773   6.880  -0.549 -2.7885 -0.2630  1.5416
  246MOL0     H32448   1.624   6.710  -0.434 -0.0405  0.3928 -1.2325
  246MOL0     H32449   1.768   6.621  -0.386 -0.3656 -1.6118 -1.8092
  246MOL0     H32450   1.834   6.607  -0.640  0.9278 -0.5133 -0.9258
  246MOL0     H32451   1.708   6.506  -0.577  0.6107  0.4140  2.9886
  246MOL0     H32452   1.694   6.624  -0.794 -1.2460  0.6978 -1.1336
  246MOL0     H32453   1.625   6.772  -0.705  0.2686 -0.1013 -2.3974
  246MOL0     H32454   2.326   7.201  -0.314 -0.9832 -0.4441  1.1850
  246MOL0     H32455   2.523   7.329  -0.227 -0.3953  1.3288 -0.2691
  246MOL0     H32456   2.810   7.431   0.045 -2.5690  0.7882 -0.0635
  246MOL0     H32457   3.022   7.542   0.128 -2.5771 -2.0965  0.0660
  246MOL0     H32458   4.226   8.878   0.464 -1.0134  2.5876 -3.8872
  246MOL0     H32459   4.454   8.792   0.528 -2.5810 -0.5944  0.8212
  246MOL0     H32460   4.739   8.412   0.453  1.5542  0.5137  3.3683
  246MOL0     H32461   4.941   8.283   0.510  0.8385 -0.2478 -0.4423
  246MOL0     H32462   5.124   8.154   0.415  1.2823 -0.7392 -1.8105
  246MOL0     H32463   5.166   8.247   0.565  2.3332 -2.4766  1.0838
  246MOL0     H32464   5.305   8.055   0.496 -1.9763  1.2165  0.6839
  246MOL0     H32465   5.376   8.153   0.357 -2.4371  0.0980 -0.8354
  246MOL0     H32466   5.396   8.205   0.656  1.0768  1.8328  0.8320
  246MOL0     H32467   5.457   8.323   0.534  3.6474 -0.2462  0.7504
  246MOL0     H32468   5.578   8.040   0.541  2.3766  0.1448 -3.2459
  246MOL0     H32469   5.611   8.175   0.437 -0.5260  0.5937  0.2706
  246MOL0     H32470   5.775   8.351   0.780  1.6868 -0.6677 -0.7602
  246MOL0     H32471   5.159   8.536   0.235 -1.6193  0.6533 -0.7695
  246MOL0     H32472   4.974   8.662   0.184  2.1995  0.8238  0.9281
  247MOL0     O32473   8.096   2.487   3.299  0.0645 -0.4551  0.4314
  247MOL0     C32474   8.157   2.423   3.375 -0.2715  0.5365 -0.6299
  247MOL0     O32475   8.102   2.376   3.500 -0.0374  0.0774 -0.0276
  247MOL0     C32476   7.965   2.373   3.520  0.0797  0.1831  0.0092
  247MOL0     C32477   7.931   2.430   3.639  0.3956  1.0717 -1.2327
  247MOL0     C32478   7.793   2.445   3.669 -0.8811 -0.0765 -0.1568
  247MOL0     C32479   7.697   2.385   3.588  1.1971  0.0813  0.7855
  247MOL0     O32480   7.561   2.388   3.626 -0.2238 -0.5541 -0.9672
  247MOL0     C32481   7.531   2.404   3.762 -0.2442  0.0395 -1.0304
  247MOL0     C32482   7.386   2.368   3.794  0.3921  0.7655 -0.0771
  247MOL0     C32483   7.320   2.426   3.917  0.1761 -0.4141  0.0471
  247MOL0     C32484   7.190   2.353   3.963  0.5187 -0.7862  0.2440
  247MOL0     C32485   7.092   2.328   3.853 -0.1489  0.9959  0.4699
  247MOL0     C32486   6.984   2.226   3.890 -0.5820 -0.0428 -0.4862
  247MOL0     C32487   6.869   2.228   3.790 -0.2765  0.2497  0.0870
  247MOL0     C32488   6.761   2.128   3.817  0.3752  0.9315  0.3860
  247MOL0     N32489   6.705   2.135   3.954 -0.0946  0.2480  0.5665
  247MOL0     C32490   6.692   2.031   4.045  0.7406  0.3170  0.2104
  247MOL0     C32491   6.640   2.088   4.154 -0.7365  0.2389 -0.6122
  247MOL0     C32492   6.617   2.018   4.288 -0.1358  0.1205  1.0483
  247MOL0     C32493   6.677   2.095   4.409 -0.0569  0.6441  0.2510
  247MOL0     C32494   6.830   2.103   4.378  0.2528  0.3031  0.4339
  247MOL0     C32495   6.896   2.163   4.508 -0.4935  0.8482 -0.4267
  247MOL0     O32496   7.035   2.143   4.490 -0.1784 -0.2186 -0.3101
  247MOL0     C32497   7.118   2.212   4.566  0.4531 -0.4252  0.4823
  247MOL0     C32498   7.254   2.216   4.527  1.2019  0.0099  0.1094
  247MOL0     C32499   7.351   2.295   4.592  0.8141 -0.7402  0.5684
  247MOL0     C32500   7.312   2.377   4.700  0.0039 -0.7903 -0.2317
  247MOL0     C32501   7.414   2.443   4.780 -0.6380  0.1182  0.1774
  247MOL0     O32502   7.540   2.438   4.729 -0.8525 -0.5053  0.5459
  247MOL0     C32503   7.654   2.470   4.805  0.6974 -0.2121 -0.5699
  247MOL0     C32504   7.672   2.521   4.939  0.5731  0.5081  0.1887
  247MOL0     C32505   7.796   2.556   4.995  0.1647  1.6498 -0.5653
  247MOL0     C32506   7.911   2.527   4.927  0.2295  0.4222 -1.1840
  247MOL0     O32507   8.034   2.547   4.972 -1.0366  0.5839  0.2934
  247MOL0     C32508   8.077   2.559   5.105  0.3068 -0.1172  0.3919
  247MOL0     C32509   8.177   2.450   5.130 -0.5752  0.1856  0.3099
  247MOL0     C32510   8.204   2.443   5.282  0.2938 -0.1783  0.0310
  247MOL0     C32511   8.303   2.332   5.304  0.5154 -0.0409  0.1072
  247MOL0     C32512   8.447   2.384   5.291  0.1140 -0.3587 -0.8714
  247MOL0     C32513   8.540   2.259   5.300 -0.0464 -0.0968 -1.0995
  247MOL0     C32514   8.683   2.315   5.278  0.5190  0.0652  0.6622
  247MOL0     C32515   8.784   2.206   5.265 -0.6526  0.2820 -0.2259
  247MOL0    Cl32516   8.944   2.269   5.242 -0.2410 -0.2234  0.2810
  247MOL0     C32517   7.896   2.479   4.795 -0.3273 -0.4963  0.2658
  247MOL0     C32518   7.771   2.454   4.731 -0.5707 -0.4997 -0.4136
  247MOL0     O32519   7.378   2.498   4.877 -0.0735  0.1121 -0.4792
  247MOL0     C32520   7.173   2.384   4.738  0.0751 -0.1659  0.7289
  247MOL0     C32521   7.083   2.309   4.665 -0.2590 -0.3958 -0.7069
  247MOL0     N32522   6.625   2.225   4.132 -0.4587 -0.6446 -0.8369
  247MOL0     N32523   6.661   2.252   4.007 -0.1166  0.0078 -0.2181
  247MOL0     C32524   7.733   2.333   3.463 -0.2608 -0.4058  0.4779
  247MOL0     C32525   7.862   2.318   3.430 -0.7362  0.4964 -0.7347
  247MOL0     C32526   8.312   2.398   3.353  0.2816  0.2631 -0.2608
  247MOL0     C32527   8.369   2.446   3.233  1.1004 -0.3396 -0.2469
  247MOL0     C32528   8.505   2.440   3.206 -0.0663  0.6109 -0.5454
  247MOL0     C32529   8.594   2.385   3.299 -0.1895  0.3700  0.6659
  247MOL0     O32530   8.727   2.380   3.262  0.0338  0.3978  0.6517
  247MOL0     C32531   8.815   2.292   3.321 -0.7976  0.3602  0.5487
  247MOL0     C32532   8.937   2.377   3.341  0.1628  0.3729  0.6448
  247MOL0     C32533   9.009   2.400   3.202 -0.3983  0.1363 -1.1932
  247MOL0     C32534   9.035   2.282   3.121  0.2220  0.4825  0.2383
  247MOL0     C32535   9.096   2.338   2.994 -0.5579 -0.2595 -0.5047
  247MOL0     C32536   9.143   2.361   2.891 -0.2675  0.0551  0.2074
  247MOL0     C32537   8.539   2.328   3.420  0.8100  0.0684 -0.6897
  247MOL0     C32538   8.404   2.335   3.443 -0.1760 -0.5064 -0.9725
  247MOL0     H32539   8.000   2.475   3.711 -0.6418  0.6411  0.0727
  247MOL0     H32540   7.761   2.503   3.755  1.2324  0.4509  0.3336
  247MOL0     H32541   7.539   2.512   3.777 -0.9169  0.3262 -2.5120
  247MOL0     H32542   7.596   2.347   3.829 -2.3957 -0.4094  0.8287
  247MOL0     H32543   7.393   2.259   3.796 -1.8341  0.5540  2.7551
  247MOL0     H32544   7.318   2.396   3.713  0.9620 -0.4730 -1.0185
  247MOL0     H32545   7.307   2.534   3.905  3.3949  0.0684 -0.0361
  247MOL0     H32546   7.380   2.413   4.008  0.7570 -0.4094 -0.3284
  247MOL0     H32547   7.211   2.261   4.018 -0.8272  1.3545  4.7889
  247MOL0     H32548   7.140   2.421   4.033  0.1106 -0.1842 -0.6107
  247MOL0     H32549   7.141   2.288   3.764  0.7980  0.6212  1.1452
  247MOL0     H32550   7.039   2.417   3.817 -1.0580  1.1986  2.1897
  247MOL0     H32551   6.951   2.257   3.990  0.8517 -1.3328  0.4457
  247MOL0     H32552   7.036   2.130   3.898 -1.8231 -0.6679  0.3476
  247MOL0     H32553   6.837   2.332   3.803  0.1207  0.4574 -0.5608
  247MOL0     H32554   6.906   2.223   3.687  0.7671 -0.3955  0.4881
  247MOL0     H32555   6.794   2.025   3.799 -0.6622  0.7609 -0.6107
  247MOL0     H32556   6.683   2.144   3.743  1.2229 -0.9087 -0.9941
  247MOL0     H32557   6.703   1.924   4.029 -2.4814  0.1881 -2.0008
  247MOL0     H32558   6.629   1.909   4.283 -0.6716  0.0861  0.0829
  247MOL0     H32559   6.508   2.030   4.287 -0.2609 -0.7865  2.0379
  247MOL0     H32560   6.669   2.043   4.504 -2.0711  2.4152  1.1341
  247MOL0     H32561   6.626   2.191   4.420  1.1964  1.1497  2.0201
  247MOL0     H32562   6.856   2.000   4.353 -1.1135 -0.0395  0.3548
  247MOL0     H32563   6.844   2.165   4.289  1.8891 -0.3262  0.2227
  247MOL0     H32564   6.857   2.125   4.604 -0.7177  2.4103  0.1225
  247MOL0     H32565   6.876   2.270   4.516 -1.8687  0.6534 -0.9626
  247MOL0     H32566   7.282   2.151   4.445 -0.5476 -4.5121  2.7201
  247MOL0     H32567   7.456   2.280   4.570  1.2415  1.2724  0.9749
  247MOL0     H32568   7.579   2.543   4.990 -1.9624  0.0942 -3.8537
  247MOL0     H32569   7.790   2.592   5.098 -2.3155  1.2520 -0.5123
  247MOL0     H32570   7.991   2.552   5.173 -1.9126 -1.5277 -2.3216
  247MOL0     H32571   8.126   2.657   5.110 -1.1850  0.7084 -0.3843
  247MOL0     H32572   8.270   2.483   5.083 -2.5568  2.8309 -2.0929
  247MOL0     H32573   8.144   2.356   5.084  1.6472  0.2779 -1.6864
  247MOL0     H32574   8.113   2.421   5.339 -1.2162 -1.3724 -2.6349
  247MOL0     H32575   8.247   2.539   5.312  2.7670 -1.2097  0.0348
  247MOL0     H32576   8.291   2.280   5.399 -1.1098 -3.1106 -1.6275
  247MOL0     H32577   8.294   2.241   5.244 -1.2136 -0.4391  0.9091
  247MOL0     H32578   8.465   2.464   5.364  3.3106 -1.2762 -0.5235
  247MOL0     H32579   8.453   2.416   5.187  0.1986 -2.3248 -1.5185
  247MOL0     H32580   8.508   2.175   5.237 -3.9647 -0.6334  1.2748
  247MOL0     H32581   8.551   2.221   5.402  1.6013  0.1653 -1.1460
  247MOL0     H32582   8.682   2.370   5.183  0.4854  0.0085  0.6296
  247MOL0     H32583   8.712   2.373   5.366  1.4971 -1.9212  1.7064
  247MOL0     H32584   8.755   2.138   5.184  1.9072 -0.0862 -0.8971
  247MOL0     H32585   8.778   2.147   5.358 -1.1255  0.6287 -0.0313
  247MOL0     H32586   7.989   2.458   4.743  0.9322  2.0809  1.2936
  247MOL0     H32587   7.775   2.426   4.627  0.3243  1.1057 -0.8483
  247MOL0     H32588   7.139   2.445   4.821 -1.2493 -1.8777  1.4969
  247MOL0     H32589   6.983   2.328   4.703 -0.3775 -1.4081 -0.4930
  247MOL0     H32590   7.657   2.299   3.395  2.4926 -0.3605 -2.8920
  247MOL0     H32591   7.890   2.270   3.336  1.1768  0.0388  0.0134
  247MOL0     H32592   8.304   2.484   3.155  0.0410 -0.7459  0.4167
  247MOL0     H32593   8.552   2.474   3.114 -0.0014 -2.2000 -1.6475
  247MOL0     H32594   8.838   2.201   3.263  1.5938 -0.3911  2.5249
  247MOL0     H32595   8.784   2.248   3.416 -0.0854  0.2947  0.7562
  247MOL0     H32596   8.918   2.467   3.400 -0.1720  2.2215 -2.0813
  247MOL0     H32597   8.998   2.316   3.408 -0.8258 -3.0217 -1.3131
  247MOL0     H32598   9.106   2.439   3.232 -0.6027  0.8029 -1.3748
  247MOL0     H32599   8.952   2.474   3.145  1.6028  3.9612  1.3228
  247MOL0     H32600   9.099   2.213   3.176 -2.2158 -1.3993  0.8801
  247MOL0     H32601   8.940   2.237   3.090  0.6268 -0.8937  0.9043
  247MOL0     H32602   9.191   2.378   2.797 -0.6825 -3.0158 -0.6439
  247MOL0     H32603   8.607   2.287   3.493  0.2164 -0.2048 -0.2871
  247MOL0     H32604   8.357   2.288   3.528 -2.1288 -0.1400 -1.7860
  248MOL0     O32605   3.848   5.983   1.962 -0.5957 -0.1878 -0.2047
  248MOL0     C32606   3.895   6.043   2.061 -1.0053  0.6374 -0.3935
  248MOL0     O32607   3.822   6.065   2.180  0.7829  0.2868  0.1368
  248MOL0     C32608   3.693   6.015   2.196  0.2716 -0.1936 -0.0407
  248MOL0     C32609   3.644   6.032   2.331  0.6708 -0.0469 -0.1264
  248MOL0     C32610   3.520   5.992   2.368 -0.2901 -1.5917  0.1859
  248MOL0     C32611   3.432   5.929   2.277 -0.0688  0.3270 -0.2394
  248MOL0     O32612   3.309   5.890   2.318 -0.3457  0.4849  0.0782
  248MOL0     C32613   3.233   5.793   2.236 -0.2985 -0.4536 -0.5196
  248MOL0     C32614   3.097   5.770   2.304 -0.1806 -0.4018  0.2477
  248MOL0     C32615   3.008   5.890   2.279  0.1604  0.2279  0.0312
  248MOL0     C32616   2.872   5.858   2.351 -0.3525  0.3729 -0.6424
  248MOL0     C32617   2.777   5.785   2.255  0.2268 -0.7332  0.0279
  248MOL0     C32618   2.631   5.782   2.325 -0.7377  0.0384  0.4772
  248MOL0     C32619   2.520   5.762   2.219 -0.1983  0.3165 -0.4058
  248MOL0     C32620   2.388   5.715   2.278  0.0408 -0.0248  0.0119
  248MOL0     N32621   2.319   5.823   2.349  0.8190  0.2907 -0.5771
  248MOL0     C32622   2.256   5.921   2.273  0.2041  0.2813 -0.0157
  248MOL0     C32623   2.177   5.986   2.365 -0.2842 -0.2522  0.1027
  248MOL0     C32624   2.072   6.090   2.324 -0.1490 -0.0203  0.3790
  248MOL0     C32625   2.018   6.171   2.447  1.0210 -0.5016 -0.2204
  248MOL0     C32626   1.952   6.296   2.403  0.3818  0.6738  0.3792
  248MOL0     C32627   2.055   6.403   2.359  0.0348 -0.7193 -0.4257
  248MOL0     O32628   2.012   6.497   2.256  0.3567 -0.6094  0.3545
  248MOL0     C32629   1.887   6.558   2.269 -0.1003  0.1493 -0.4261
  248MOL0     C32630   1.818   6.597   2.160  0.2902 -0.0904  0.2974
  248MOL0     C32631   1.688   6.645   2.176  0.7021 -0.0120  0.0092
  248MOL0     C32632   1.624   6.669   2.296 -0.1103  0.0277 -0.4476
  248MOL0     C32633   1.486   6.725   2.306 -0.2421  0.1599  0.5578
  248MOL0     O32634   1.425   6.694   2.427  0.3297 -0.1561  0.0042
  248MOL0     C32635   1.308   6.757   2.447 -0.4039 -0.1059  0.3506
  248MOL0     C32636   1.285   6.832   2.567  0.2424 -0.7283 -0.1390
  248MOL0     C32637   1.154   6.879   2.588 -0.1299  0.2218  0.2426
  248MOL0     C32638   1.045   6.841   2.511 -0.3670  0.0761 -0.3349
  248MOL0     O32639   0.914   6.881   2.546  1.1193 -0.8957 -0.4913
  248MOL0     C32640   0.792   6.846   2.480 -0.3190  0.4922 -0.0789
  248MOL0     C32641   0.678   6.927   2.531 -0.0790  0.7140  0.5448
  248MOL0     C32642   0.540   6.886   2.466  0.1092  0.0250 -0.5610
  248MOL0     C32643   0.426   6.979   2.523  0.7413  0.1194  0.1367
  248MOL0     C32644   0.287   6.963   2.456  0.3616 -0.0906  0.2642
  248MOL0     C32645   0.183   7.049   2.526  0.3701 -0.5290  0.0048
  248MOL0     C32646   0.042   7.018   2.468  0.0098  0.0629  0.6666
  248MOL0     C32647  -0.071   7.094   2.541 -0.0883 -0.8070 -0.6289
  248MOL0    Cl32648  -0.044   7.272   2.517  0.3322  0.7174 -0.2728
  248MOL0     C32649   1.069   6.761   2.400 -0.6822  0.2124 -0.7427
  248MOL0     C32650   1.201   6.722   2.366  0.1795  0.5613 -0.8397
  248MOL0     O32651   1.445   6.798   2.213 -0.2222  0.0458 -0.9261
  248MOL0     C32652   1.704   6.649   2.401  0.3333  0.2462 -0.1021
  248MOL0     C32653   1.832   6.587   2.393 -0.0973 -0.4087 -0.4223
  248MOL0     N32654   2.198   5.937   2.488  0.6356 -0.5630  1.1397
  248MOL0     N32655   2.279   5.837   2.479 -0.9228 -0.0635  0.5650
  248MOL0     C32656   3.484   5.906   2.146  0.2502  0.5859 -0.4240
  248MOL0     C32657   3.614   5.949   2.105  0.9386  0.7297 -0.4369
  248MOL0     C32658   4.034   6.091   2.058 -0.3077  0.2373 -0.2779
  248MOL0     C32659   4.104   6.082   1.937 -0.0142  0.7744  0.4043
  248MOL0     C32660   4.228   6.141   1.920 -0.4990  0.4348 -0.4044
  248MOL0     C32661   4.289   6.200   2.030 -0.1913  1.3012 -0.5498
  248MOL0     O32662   4.407   6.262   1.992  0.6501 -0.3110 -0.9344
  248MOL0     C32663   4.462   6.365   2.085  0.1258 -1.0502 -0.7589
  248MOL0     C32664   4.578   6.449   2.014 -0.6841 -0.0860 -0.2248
  248MOL0     C32665   4.719   6.376   1.991 -0.4947  0.5684  0.2819
  248MOL0     C32666   4.833   6.430   2.077  0.1245 -0.8017  0.2340
  248MOL0     C32667   4.886   6.563   2.040 -0.4354  0.1154 -0.6960
  248MOL0     C32668   4.920   6.674   2.021 -0.6446 -0.4449 -0.5384
  248MOL0     C32669   4.223   6.205   2.156 -0.1857  0.5497 -0.3426
  248MOL0     C32670   4.090   6.153   2.166  0.8271 -0.5287  0.4019
  248MOL0     H32671   3.718   6.069   2.402  1.2257 -1.1881 -0.0750
  248MOL0     H32672   3.481   6.015   2.466 -0.4084 -4.3363  0.8754
  248MOL0     H32673   3.288   5.702   2.211 -0.3426 -0.9742  1.1943
  248MOL0     H32674   3.211   5.853   2.146  0.4579  1.8295  0.7416
  248MOL0     H32675   3.105   5.761   2.413  0.5877  0.4154  0.2740
  248MOL0     H32676   3.054   5.678   2.264  0.0948 -2.2042  3.6410
  248MOL0     H32677   3.000   5.898   2.170  1.1910 -0.8484 -0.1475
  248MOL0     H32678   3.043   5.984   2.324 -0.7690  0.0019  1.2861
  248MOL0     H32679   2.874   5.792   2.438 -1.5270  1.3379  0.1486
  248MOL0     H32680   2.823   5.945   2.394  0.0289  0.0743  0.4169
  248MOL0     H32681   2.826   5.688   2.243  0.7812 -0.5038  0.3907
  248MOL0     H32682   2.779   5.850   2.166 -1.4885  0.3204  0.6946
  248MOL0     H32683   2.619   5.873   2.384  1.4607  2.2515 -2.1824
  248MOL0     H32684   2.638   5.701   2.398 -1.2594 -1.1490 -0.7347
  248MOL0     H32685   2.504   5.852   2.158 -1.5499 -0.2337 -0.9138
  248MOL0     H32686   2.551   5.681   2.153  1.7076  1.8764 -1.5312
  248MOL0     H32687   2.405   5.640   2.355  2.1258  1.8100  1.4547
  248MOL0     H32688   2.337   5.686   2.186  0.5537  0.4857 -0.4441
  248MOL0     H32689   2.257   5.927   2.164 -0.2389  1.9744  0.0521
  248MOL0     H32690   1.989   6.036   2.277 -2.3827  3.0215  0.5475
  248MOL0     H32691   2.125   6.144   2.245 -0.2466 -3.0221 -1.8966
  248MOL0     H32692   2.094   6.187   2.524  2.0357 -0.7633 -1.1278
  248MOL0     H32693   1.937   6.118   2.498 -0.5046 -0.8603 -2.8591
  248MOL0     H32694   1.881   6.270   2.324  3.8036 -3.2754 -1.8059
  248MOL0     H32695   1.889   6.329   2.487 -0.7586 -2.4260  0.8993
  248MOL0     H32696   2.142   6.357   2.313  1.7371 -0.1159  1.9947
  248MOL0     H32697   2.089   6.445   2.455  0.1748 -1.7940  0.0099
  248MOL0     H32698   1.863   6.579   2.062  2.1971  1.5003  0.8325
  248MOL0     H32699   1.640   6.671   2.082  0.1678  1.5183  0.6678
  248MOL0     H32700   1.364   6.858   2.637  1.3219  1.1575 -1.9667
  248MOL0     H32701   1.140   6.949   2.670  1.6885  0.5905  0.2843
  248MOL0     H32702   0.765   6.745   2.512 -0.8032 -0.1938 -2.4547
  248MOL0     H32703   0.802   6.849   2.371 -1.7028  3.2392 -0.2205
  248MOL0     H32704   0.693   7.032   2.503 -1.6122  0.7122 -0.3812
  248MOL0     H32705   0.665   6.917   2.640  0.4518  0.9678  0.6322
  248MOL0     H32706   0.516   6.781   2.488  1.4899  0.0296  1.1963
  248MOL0     H32707   0.550   6.897   2.358  1.0861  1.5243 -0.3498
  248MOL0     H32708   0.412   6.959   2.630 -0.3588 -1.5614 -0.2876
  248MOL0     H32709   0.455   7.085   2.514 -0.2712  0.2888 -1.6440
  248MOL0     H32710   0.257   6.859   2.475  2.0598 -1.2839 -2.7843
  248MOL0     H32711   0.297   6.982   2.348  3.1463 -4.7995 -0.5981
  248MOL0     H32712   0.202   7.156   2.515  1.0132 -0.5027  1.1155
  248MOL0     H32713   0.179   7.032   2.634 -1.2125 -1.8589 -0.2298
  248MOL0     H32714   0.043   7.056   2.366  0.4909  2.4538  1.4976
  248MOL0     H32715   0.016   6.912   2.474  2.1302 -0.5059  0.4989
  248MOL0     H32716  -0.070   7.076   2.649 -3.6455 -1.7760 -0.6351
  248MOL0     H32717  -0.169   7.059   2.506 -0.9445  0.2554  0.6122
  248MOL0     H32718   0.995   6.732   2.327 -1.0888  1.2787 -0.7678
  248MOL0     H32719   1.217   6.650   2.286  2.0134  0.2297 -0.2333
  248MOL0     H32720   1.665   6.666   2.501  1.7678 -0.0021  0.5326
  248MOL0     H32721   1.890   6.575   2.484 -3.5170 -0.4557  1.9492
  248MOL0     H32722   3.424   5.833   2.093  0.0391  1.5300 -1.5261
  248MOL0     H32723   3.642   5.946   2.001  1.2545  1.1136 -0.3642
  248MOL0     H32724   4.060   6.052   1.842 -0.4137 -0.5695  0.9919
  248MOL0     H32725   4.278   6.154   1.824 -2.0228  0.8749 -1.1866
  248MOL0     H32726   4.488   6.311   2.177 -0.0614 -0.0933 -0.1267
  248MOL0     H32727   4.380   6.436   2.098 -0.1907 -1.0959 -2.3391
  248MOL0     H32728   4.539   6.473   1.915 -0.3357 -1.1965 -0.6484
  248MOL0     H32729   4.594   6.549   2.055 -2.7562  1.1061 -2.0673
  248MOL0     H32730   4.748   6.369   1.886  0.2208 -1.3493  0.5748
  248MOL0     H32731   4.690   6.276   2.025  1.4565 -0.6494 -1.3777
  248MOL0     H32732   4.813   6.437   2.184  0.8896  2.0316  0.2606
  248MOL0     H32733   4.911   6.356   2.061  0.4854 -0.6036  1.0659
  248MOL0     H32734   4.949   6.775   1.997  0.5750 -1.4948 -4.0235
  248MOL0     H32735   4.273   6.252   2.240  1.0088 -0.0645 -0.6732
  248MOL0     H32736   4.043   6.146   2.263  0.2842 -3.2375  0.0093
  249MOL0     O32737   0.746  10.665   8.041  1.2504 -0.2637  0.1969
  249MOL0     C32738   0.758  10.683   8.159  0.1378  0.1112 -0.3263
  249MOL0     O32739   0.658  10.712   8.244  0.0800 -0.4144  0.1056
  249MOL0     C32740   0.529  10.705   8.209 -0.4483 -0.3942  0.4077
  249MOL0     C32741   0.443  10.702   8.320 -1.0763  0.1350 -0.8473
  249MOL0     C32742   0.311  10.724   8.316  0.0731  0.3155  0.0484
  249MOL0     C32743   0.246  10.743   8.195 -0.0493 -0.0794 -0.3571
  249MOL0     O32744   0.111  10.765   8.208  0.7560 -0.2535  0.6534
  249MOL0     C32745   0.039  10.765   8.085  0.9567  0.5512 -0.2116
  249MOL0     C32746  -0.104  10.744   8.147  0.7329  0.1886  0.4132
  249MOL0     C32747  -0.214  10.844   8.086 -0.3995 -0.1687 -0.5015
  249MOL0     C32748  -0.349  10.785   8.127  0.9862 -0.9700  0.6536
  249MOL0     C32749  -0.469  10.879   8.085  0.6051 -1.0465 -0.2939
  249MOL0     C32750  -0.469  11.019   8.150  0.8908 -0.7814 -0.1217
  249MOL0     C32751  -0.599  11.097   8.111 -0.4770 -0.2334 -0.0425
  249MOL0     C32752  -0.715  11.044   8.189  0.5153 -0.1188 -0.7821
  249MOL0     N32753  -0.835  11.136   8.191 -0.3506  0.2352  0.8438
  249MOL0     C32754  -0.969  11.102   8.212  0.0105 -0.2219 -0.1704
  249MOL0     C32755  -1.029  11.228   8.219  0.5490 -0.0632 -0.8748
  249MOL0     C32756  -1.180  11.255   8.217 -0.2972 -0.3823  0.7865
  249MOL0     C32757  -1.250  11.267   8.351 -0.0024 -0.1503 -0.9482
  249MOL0     C32758  -1.347  11.152   8.384 -0.3127 -0.1534  0.6417
  249MOL0     C32759  -1.280  11.014   8.382  0.0298  0.1241  0.4726
  249MOL0     O32760  -1.358  10.935   8.473 -0.2037 -0.0632 -0.3101
  249MOL0     C32761  -1.361  10.801   8.452  0.1018 -0.3636  0.6754
  249MOL0     C32762  -1.467  10.726   8.495 -0.6106 -0.4210  0.1932
  249MOL0     C32763  -1.466  10.588   8.478 -0.1944 -0.1705  0.1063
  249MOL0     C32764  -1.366  10.517   8.403 -0.1189 -0.6445  0.4277
  249MOL0     C32765  -1.374  10.375   8.374  0.2331 -1.0119  0.1373
  249MOL0     O32766  -1.490  10.312   8.418  0.1608  0.3727 -0.1606
  249MOL0     C32767  -1.514  10.186   8.366 -0.3107 -0.0933 -0.6220
  249MOL0     C32768  -1.433  10.077   8.403 -0.3663 -0.6286  0.0759
  249MOL0     C32769  -1.449   9.950   8.357  0.4148 -0.3142  0.9243
  249MOL0     C32770  -1.552   9.922   8.261  0.1301  0.0563 -0.2674
  249MOL0     O32771  -1.550   9.795   8.212 -0.5128 -0.6202  0.2427
  249MOL0     C32772  -1.651   9.742   8.140  0.4430  0.1944 -0.0214
  249MOL0     C32773  -1.622   9.602   8.082  0.1441 -0.6682  0.8323
  249MOL0     C32774  -1.728   9.546   7.986 -0.3200 -0.2249 -0.3540
  249MOL0     C32775  -1.710   9.396   7.954  0.5230 -0.3013  0.5207
  249MOL0     C32776  -1.715   9.293   8.067  0.1066  0.4332  0.0744
  249MOL0     C32777  -1.808   9.331   8.177  0.1782  0.2957 -0.7326
  249MOL0     C32778  -1.813   9.230   8.300 -0.0610 -0.6050  0.1742
  249MOL0     C32779  -1.912   9.114   8.276 -0.0555 -0.5072  0.3784
  249MOL0    Cl32780  -2.077   9.153   8.256  0.2847 -0.0415 -0.0120
  249MOL0     C32781  -1.637  10.029   8.233  0.3771 -0.1776  1.2441
  249MOL0     C32782  -1.614  10.155   8.286  0.3020 -0.0154 -0.4418
  249MOL0     O32783  -1.285  10.327   8.303  0.8680 -0.1288  0.3387
  249MOL0     C32784  -1.256  10.598   8.371  0.4778 -0.6478  0.5489
  249MOL0     C32785  -1.257  10.732   8.380  0.0699  0.2622  0.0929
  249MOL0     N32786  -0.935  11.325   8.218 -0.3622 -0.5821 -0.4149
  249MOL0     N32787  -0.815  11.269   8.200 -0.2678  0.2591  0.2317
  249MOL0     C32788   0.324  10.754   8.072  0.9563  0.6742 -0.3744
  249MOL0     C32789   0.470  10.739   8.082 -0.0069  0.9125 -0.6414
  249MOL0     C32790   0.895  10.676   8.216 -0.4107 -0.1338 -0.1073
  249MOL0     C32791   0.983  10.599   8.133 -0.7093  0.0941 -0.8673
  249MOL0     C32792   1.126  10.608   8.158 -0.7015  0.2102  0.5050
  249MOL0     C32793   1.171  10.690   8.264  0.0830  0.5821 -0.2543
  249MOL0     O32794   1.299  10.724   8.304 -0.1023  0.3902 -0.6806
  249MOL0     C32795   1.416  10.648   8.252  0.5576  0.7920 -0.6812
  249MOL0     C32796   1.547  10.725   8.270 -0.3665  0.0470  0.0242
  249MOL0     C32797   1.560  10.765   8.414 -0.6341  0.1253 -0.3478
  249MOL0     C32798   1.633  10.892   8.437  0.6597 -0.8204  0.7510
  249MOL0     C32799   1.770  10.895   8.393 -0.0074 -0.0353 -0.4155
  249MOL0     C32800   1.888  10.895   8.375 -0.1669  0.3898 -0.9753
  249MOL0     C32801   1.081  10.755   8.343 -0.5991  0.3458 -0.7382
  249MOL0     C32802   0.943  10.748   8.325 -0.4181  0.0323  0.3376
  249MOL0     H32803   0.492  10.699   8.416 -3.0846  2.5187  0.3830
  249MOL0     H32804   0.254  10.726   8.408 -2.7050  0.4393 -1.5560
  249MOL0     H32805   0.063  10.691   8.008 -0.3142  0.3086 -0.3949
  249MOL0     H32806   0.048  10.868   8.048  0.9285 -0.0209 -1.9027
  249MOL0     H32807  -0.103  10.755   8.255  2.3296  1.6159  0.2997
  249MOL0     H32808  -0.126  10.639   8.127  1.5952  0.2310 -0.8968
  249MOL0     H32809  -0.206  10.849   7.977  1.0506  0.9909 -0.3771
  249MOL0     H32810  -0.181  10.943   8.121 -1.7057 -0.7666  2.8057
  249MOL0     H32811  -0.356  10.682   8.090  0.7275 -0.9500  0.6467
  249MOL0     H32812  -0.347  10.766   8.235 -0.4782 -1.2186  0.6600
  249MOL0     H32813  -0.560  10.821   8.101  0.5165 -0.3814  1.8954
  249MOL0     H32814  -0.466  10.886   7.975 -0.6648 -2.7512 -0.4717
  249MOL0     H32815  -0.386  11.069   8.098 -0.0136  0.9846  0.0545
  249MOL0     H32816  -0.461  11.022   8.259  0.0232  0.0213 -0.0646
  249MOL0     H32817  -0.577  11.202   8.131  1.8446 -0.8334  0.8049
  249MOL0     H32818  -0.616  11.093   8.003 -1.1571  0.3284  0.0330
  249MOL0     H32819  -0.687  11.025   8.293 -1.0918  2.0957  0.1421
  249MOL0     H32820  -0.735  10.946   8.145  3.2101 -1.2771  0.3452
  249MOL0     H32821  -1.010  11.002   8.200 -0.9708  0.3198 -1.5754
  249MOL0     H32822  -1.220  11.177   8.152  0.8886  1.0105 -1.7574
  249MOL0     H32823  -1.212  11.347   8.168 -1.3216  0.1228  2.3228
  249MOL0     H32824  -1.296  11.366   8.362  0.4547  0.2491 -2.4075
  249MOL0     H32825  -1.179  11.271   8.434 -2.4180  1.9505  1.1665
  249MOL0     H32826  -1.383  11.169   8.486 -1.7099  0.0233  0.1438
  249MOL0     H32827  -1.433  11.159   8.316  0.7891  3.4508 -0.5954
  249MOL0     H32828  -1.175  11.022   8.414  0.1194 -2.3101  0.9973
  249MOL0     H32829  -1.289  10.973   8.281 -1.1835 -1.1688  1.0779
  249MOL0     H32830  -1.551  10.776   8.541 -0.2109  2.0683 -1.5776
  249MOL0     H32831  -1.554  10.526   8.491  0.8844 -2.1881 -1.5600
  249MOL0     H32832  -1.344  10.097   8.461  0.7153 -0.6704 -1.5260
  249MOL0     H32833  -1.379   9.873   8.388  2.1214  0.5063 -0.7163
  249MOL0     H32834  -1.668   9.810   8.056 -0.9700  1.8494  1.5184
  249MOL0     H32835  -1.739   9.742   8.205 -1.5122 -0.3271 -2.4680
  249MOL0     H32836  -1.621   9.540   8.172  0.7663  0.3515  1.5516
  249MOL0     H32837  -1.529   9.601   8.023 -1.0622  4.1922 -1.6604
  249MOL0     H32838  -1.745   9.601   7.893 -3.3489  2.4114  1.5614
  249MOL0     H32839  -1.818   9.564   8.044  0.0581  2.9606 -0.6024
  249MOL0     H32840  -1.790   9.367   7.885 -1.7832  1.5059  2.2482
  249MOL0     H32841  -1.618   9.388   7.896  0.0383 -1.5536 -0.1288
  249MOL0     H32842  -1.616   9.286   8.113  0.8703 -0.9105 -1.6414
  249MOL0     H32843  -1.734   9.193   8.027 -4.2838  1.8595 -2.0303
  249MOL0     H32844  -1.912   9.343   8.145  0.2759 -0.1482 -1.2285
  249MOL0     H32845  -1.773   9.420   8.230  1.5796 -0.6056 -0.1109
  249MOL0     H32846  -1.712   9.193   8.314  0.0185  0.2960  2.3269
  249MOL0     H32847  -1.837   9.290   8.389 -0.8158  0.4564 -0.7163
  249MOL0     H32848  -1.899   9.050   8.364  2.2921  1.6002  1.7203
  249MOL0     H32849  -1.883   9.051   8.191 -0.9646  1.4034 -1.4366
  249MOL0     H32850  -1.711  10.007   8.157  2.2079 -2.6475  0.0306
  249MOL0     H32851  -1.675  10.240   8.258 -2.4943 -1.4767  0.7497
  249MOL0     H32852  -1.161  10.547   8.352 -0.2904 -2.9155  2.3142
  249MOL0     H32853  -1.162  10.782   8.364 -0.5021  0.9356 -1.3191
  249MOL0     H32854   0.292  10.772   7.970 -1.4127  3.2991  0.6869
  249MOL0     H32855   0.531  10.751   7.994 -0.9458 -1.4206 -1.6728
  249MOL0     H32856   0.948  10.526   8.061  1.3753  0.3182 -2.1966
  249MOL0     H32857   1.198  10.545   8.107 -2.1033 -1.0226 -0.0246
  249MOL0     H32858   1.404  10.620   8.147 -2.7493 -3.0166  0.4447
  249MOL0     H32859   1.413  10.555   8.310 -2.8598 -1.6515 -4.2781
  249MOL0     H32860   1.635  10.661   8.254 -1.7078 -1.9238  0.1905
  249MOL0     H32861   1.550  10.805   8.195 -2.9953 -0.6519 -0.9247
  249MOL0     H32862   1.609  10.686   8.473  1.0022 -0.0491 -1.8424
  249MOL0     H32863   1.457  10.773   8.448 -0.6859 -2.2235  0.2365
  249MOL0     H32864   1.590  10.965   8.368  0.1127  0.5276  2.4263
  249MOL0     H32865   1.625  10.932   8.539 -1.2045 -0.1908  0.4019
  249MOL0     H32866   1.995  10.901   8.363 -0.1586  2.9239 -0.1673
  249MOL0     H32867   1.120  10.814   8.425 -1.1860  0.4470 -0.5240
  249MOL0     H32868   0.872  10.805   8.385 -0.9518 -1.3597  1.0718
  250MOL0     O32869  10.413   9.991  10.252 -0.0195  0.1006 -0.4026
  250MOL0     C32870  10.408  10.023  10.376 -0.4498  0.7307 -0.2494
  250MOL0     O32871  10.297  10.071  10.446 -0.7164 -0.0880 -0.6563
  250MOL0     C32872  10.183  10.111  10.390 -0.0600  0.7039 -0.4661
  250MOL0     C32873  10.076  10.125  10.480 -0.2977  1.2840 -0.8840
  250MOL0     C32874   9.948  10.169  10.432 -0.1698 -0.3767 -0.3503
  250MOL0     C32875   9.940  10.222  10.303  0.5355 -0.1442  0.2512
  250MOL0     O32876   9.824  10.269  10.249  0.0411  0.7441 -0.8953
  250MOL0     C32877   9.695  10.237  10.304 -0.6148 -0.5621 -0.5162
  250MOL0     C32878   9.595  10.342  10.253  0.2892  0.0074  0.6023
  250MOL0     C32879   9.450  10.320  10.301 -0.4924  0.0558 -0.3381
  250MOL0     C32880   9.366  10.424  10.238  0.3557 -0.4836  0.0155
  250MOL0     C32881   9.219  10.404  10.277 -0.6430  0.1880 -0.1421
  250MOL0     C32882   9.189  10.338  10.409  0.2122 -0.6397  0.5692
  250MOL0     C32883   9.035  10.338  10.434  0.1284  0.4826  0.5304
  250MOL0     C32884   9.003  10.263  10.556  0.1703  1.0861 -0.1341
  250MOL0     N32885   8.863  10.268  10.597 -0.5496  0.0045  0.5302
  250MOL0     C32886   8.797  10.361  10.673 -0.1209 -0.7927 -0.6778
  250MOL0     C32887   8.669  10.324  10.672 -0.5904  0.5147 -0.7711
  250MOL0     C32888   8.564  10.398  10.748  0.0568 -0.2287 -0.3697
  250MOL0     C32889   8.424  10.372  10.704 -1.1381  0.1509 -0.5165
  250MOL0     C32890   8.315  10.454  10.778 -0.7999  0.1148  0.5400
  250MOL0     C32891   8.178  10.381  10.754  0.1667  0.2077  0.0591
  250MOL0     O32892   8.072  10.477  10.772  0.5480 -0.1195  0.3068
  250MOL0     C32893   7.942  10.431  10.795 -0.4388 -0.5754  0.1842
  250MOL0     C32894   7.861  10.507  10.875  0.3115  0.2553 -0.2694
  250MOL0     C32895   7.734  10.466  10.918 -0.4168 -0.3266 -0.0698
  250MOL0     C32896   7.676  10.354  10.868  0.0792  0.3264  0.3720
  250MOL0     C32897   7.533  10.312  10.888  0.5563 -0.5495 -0.1202
  250MOL0     O32898   7.468  10.375  10.992  0.3194  0.2623  0.7196
  250MOL0     C32899   7.339  10.340  11.007  0.3322 -0.2144  0.0802
  250MOL0     C32900   7.315  10.240  11.099  0.4926 -0.0608 -0.0081
  250MOL0     C32901   7.177  10.198  11.117 -0.1775 -0.2845  0.6563
  250MOL0     C32902   7.072  10.249  11.032 -0.8675 -1.5725  0.5600
  250MOL0     O32903   6.938  10.213  11.036  0.0959  0.5277  0.1623
  250MOL0     C32904   6.907  10.091  11.102  0.2726 -0.0372 -0.0963
  250MOL0     C32905   6.749  10.076  11.097  0.3202 -0.1267  1.1112
  250MOL0     C32906   6.713  10.023  10.952  0.1193  0.4122 -0.5890
  250MOL0     C32907   6.572   9.977  10.939 -0.3589 -0.6550 -0.5091
  250MOL0     C32908   6.548   9.885  10.823 -0.4316 -0.1983  0.1999
  250MOL0     C32909   6.402   9.866  10.820  0.7945  0.3464  0.5152
  250MOL0     C32910   6.372   9.777  10.706 -0.0164 -0.3138  0.7367
  250MOL0     C32911   6.218   9.771  10.687 -0.4510  1.1055  0.3302
  250MOL0    Cl32912   6.127   9.711  10.829 -0.0338 -0.2281 -0.0275
  250MOL0     C32913   7.104  10.351  10.944 -0.1231  0.6448  0.6357
  250MOL0     C32914   7.237  10.400  10.943 -0.5234  0.3280  0.3959
  250MOL0     O32915   7.485  10.225  10.821  0.2162 -0.4813  0.0737
  250MOL0     C32916   7.752  10.272  10.781 -0.6397  0.7942  1.0769
  250MOL0     C32917   7.881  10.317  10.739 -0.5055 -0.6673 -0.5948
  250MOL0     N32918   8.669  10.211  10.592  0.1088  0.1875 -0.1515
  250MOL0     N32919   8.782  10.175  10.548 -0.2629 -0.2372  0.0205
  250MOL0     C32920  10.046  10.210  10.213  0.0903 -0.1092  0.6753
  250MOL0     C32921  10.169  10.159  10.254  0.0146  0.2375 -1.3005
  250MOL0     C32922  10.523   9.976  10.454  0.7116  1.0288  0.3219
  250MOL0     C32923  10.532  10.012  10.590 -0.1153 -0.4180  0.6326
  250MOL0     C32924  10.644   9.972  10.658 -0.1891 -0.7234 -0.1757
  250MOL0     C32925  10.750   9.905  10.597  0.3487 -0.4418 -1.2099
  250MOL0     O32926  10.845   9.854  10.684 -0.6840  0.2611 -0.0708
  250MOL0     C32927  10.954   9.789  10.628 -0.8271  0.0978 -0.6403
  250MOL0     C32928  11.059   9.782  10.742 -0.2247 -0.4900  0.2032
  250MOL0     C32929  11.177   9.703  10.680 -0.2500 -0.1479  0.6632
  250MOL0     C32930  11.299   9.674  10.772  0.4005  0.2840  0.2951
  250MOL0     C32931  11.407   9.608  10.708  0.2237  0.3512  0.2764
  250MOL0     C32932  11.503   9.546  10.663 -0.8352  0.2145  0.7635
  250MOL0     C32933  10.747   9.877  10.460 -0.2737  0.1940  0.0525
  250MOL0     C32934  10.630   9.904  10.384 -0.0465 -0.6641  0.2539
  250MOL0     H32935  10.090  10.085  10.580 -2.2837 -0.3606 -1.1978
  250MOL0     H32936   9.874  10.166  10.511  1.6011  0.6900  1.4385
  250MOL0     H32937   9.701  10.249  10.413 -0.0119 -3.0501 -0.2092
  250MOL0     H32938   9.669  10.131  10.289 -2.6034 -0.4263  1.3968
  250MOL0     H32939   9.614  10.334  10.146  0.8744 -2.0044  0.8098
  250MOL0     H32940   9.625  10.443  10.282 -1.9174  1.0229 -0.3897
  250MOL0     H32941   9.442  10.314  10.410  1.3229 -2.9286 -0.2472
  250MOL0     H32942   9.411  10.226  10.261 -1.7585  0.3706  0.0862
  250MOL0     H32943   9.392  10.524  10.275 -3.4856  0.3059  0.9419
  250MOL0     H32944   9.367  10.426  10.128 -4.3406  0.6220 -0.2017
  250MOL0     H32945   9.178  10.351  10.190 -0.0016  0.2534 -0.4936
  250MOL0     H32946   9.178  10.504  10.260  0.7689  0.3021 -3.7226
  250MOL0     H32947   9.225  10.393  10.496 -2.4203  1.4051  0.5065
  250MOL0     H32948   9.238  10.240  10.408 -0.1549 -0.8227  0.2433
  250MOL0     H32949   8.995  10.438  10.454 -0.9664  0.3357 -0.7852
  250MOL0     H32950   8.983  10.292  10.350  1.2463 -0.3963  0.2906
  250MOL0     H32951   9.059  10.297  10.644 -1.3320 -1.1922  1.8532
  250MOL0     H32952   9.028  10.158  10.537  1.9002  1.7758 -2.0919
  250MOL0     H32953   8.840  10.443  10.730 -2.5118 -0.1475  0.3218
  250MOL0     H32954   8.584  10.505  10.757 -0.1127 -0.2524  0.3780
  250MOL0     H32955   8.578  10.359  10.849  1.3124  2.1566  0.4657
  250MOL0     H32956   8.405  10.265  10.718  2.9806 -0.4926  1.8394
  250MOL0     H32957   8.420  10.392  10.596  1.9319 -2.9259 -1.3760
  250MOL0     H32958   8.329  10.476  10.884 -3.8297  0.2098  0.9959
  250MOL0     H32959   8.314  10.551  10.729  1.0318  0.7600  1.7098
  250MOL0     H32960   8.164  10.295  10.820  0.5793 -0.2966 -0.5029
  250MOL0     H32961   8.182  10.345  10.651 -0.4109  3.9073 -1.4058
  250MOL0     H32962   7.912  10.581  10.936  2.8330 -1.0389 -0.6634
  250MOL0     H32963   7.688  10.538  10.984 -2.4132  2.6649 -4.3073
  250MOL0     H32964   7.392  10.181  11.147 -0.7684 -1.1641  0.7254
  250MOL0     H32965   7.164  10.113  11.184 -1.4368 -2.2522 -1.9070
  250MOL0     H32966   6.934  10.088  11.208 -0.4100 -1.8508  0.0557
  250MOL0     H32967   6.964  10.011  11.053  0.0616 -0.6256  0.6025
  250MOL0     H32968   6.699  10.173  11.101  1.4392  0.5891 -0.9690
  250MOL0     H32969   6.715  10.000  11.168  0.0337  0.7648  1.9528
  250MOL0     H32970   6.780   9.939  10.935  0.9068  1.5597 -3.9712
  250MOL0     H32971   6.746  10.084  10.867  3.7382 -1.8154 -1.0330
  250MOL0     H32972   6.548   9.925  11.032  1.0510  1.1870  0.9660
  250MOL0     H32973   6.507  10.065  10.928  0.2404 -0.0968  0.2926
  250MOL0     H32974   6.598   9.787  10.826 -2.2471 -1.1562  0.9277
  250MOL0     H32975   6.589   9.927  10.731 -0.1355  0.3063  0.5568
  250MOL0     H32976   6.353   9.964  10.816  2.6375  1.2726 -1.4452
  250MOL0     H32977   6.367   9.818  10.912 -0.0318  3.4170  1.9588
  250MOL0     H32978   6.415   9.819  10.614 -0.8911 -0.0000  0.4580
  250MOL0     H32979   6.418   9.678  10.713  1.3173  0.3935  2.9312
  250MOL0     H32980   6.194   9.707  10.602  1.4940 -0.2659  0.7182
  250MOL0     H32981   6.188   9.873  10.666 -3.8150  0.3714  0.9576
  250MOL0     H32982   7.031  10.409  10.889  2.0113  1.4626 -1.5426
  250MOL0     H32983   7.261  10.479  10.873  2.4522  0.6116  1.5967
  250MOL0     H32984   7.711  10.179  10.742  2.8209 -0.1610 -0.6971
  250MOL0     H32985   7.935  10.265  10.661  2.2679 -1.5424  1.7332
  250MOL0     H32986  10.028  10.249  10.113  2.0331  1.5185  0.8956
  250MOL0     H32987  10.262  10.171  10.198  1.8272  2.6044  1.8785
  250MOL0     H32988  10.454  10.063  10.644 -0.1358  0.5503 -0.3022
  250MOL0     H32989  10.654   9.996  10.764  0.2323 -0.8702 -0.1829
  250MOL0     H32990  10.998   9.845  10.544 -0.4870  2.6641  1.1367
  250MOL0     H32991  10.925   9.689  10.597  0.9237 -0.8813  0.7441
  250MOL0     H32992  11.087   9.882  10.778  0.0841 -1.1656  1.9410
  250MOL0     H32993  11.014   9.716  10.817  1.1698 -1.6322  0.0783
  250MOL0     H32994  11.216   9.762  10.596 -1.0060  0.7835  0.9360
  250MOL0     H32995  11.133   9.607  10.652 -2.1519  0.9049 -0.2351
  250MOL0     H32996  11.328   9.764  10.827 -1.6311 -0.1614  2.2790
  250MOL0     H32997  11.268   9.605  10.851 -0.0228 -0.1717 -0.2507
  250MOL0     H32998  11.580   9.502  10.603 -2.4642 -2.6166  0.5957
  250MOL0     H32999  10.818   9.821  10.399 -1.7760  0.4427 -2.0458
  250MOL0     H33000  10.617   9.897  10.276  1.5274  1.6011 -0.1641
  251MOL0     O33001   5.470   1.534   7.131  0.6775 -0.0272  0.4936
  251MOL0     C33002   5.566   1.610   7.117  0.3078  0.1326  0.3644
  251MOL0     O33003   5.559   1.736   7.057  0.5591  0.6785  0.4239
  251MOL0     C33004   5.442   1.768   6.996 -0.4017 -0.2514  0.0104
  251MOL0     C33005   5.320   1.789   7.054 -0.0426  0.4210  0.9793
  251MOL0     C33006   5.205   1.809   6.986  0.5603  0.1378 -0.1650
  251MOL0     C33007   5.201   1.804   6.857  0.6273  0.5072 -0.1260
  251MOL0     O33008   5.088   1.851   6.791 -0.1735 -0.1033 -0.0379
  251MOL0     C33009   5.066   1.820   6.654 -1.1464  0.7712  0.4223
  251MOL0     C33010   4.910   1.838   6.624 -0.6405 -0.9055  0.5247
  251MOL0     C33011   4.829   1.740   6.713  0.3074  0.0739 -0.6676
  251MOL0     C33012   4.677   1.762   6.689  0.7414  0.5072 -0.7040
  251MOL0     C33013   4.606   1.696   6.800  0.0794  0.3110 -1.1345
  251MOL0     C33014   4.452   1.658   6.772  0.5672  0.1860 -0.6664
  251MOL0     C33015   4.377   1.784   6.759  0.2326  0.0860 -0.7336
  251MOL0     C33016   4.233   1.745   6.752  0.4757  0.4924  0.1236
  251MOL0     N33017   4.162   1.713   6.877 -0.2402  0.1091 -0.1289
  251MOL0     C33018   4.064   1.622   6.896 -0.1196  0.4855  0.0298
  251MOL0     C33019   4.050   1.626   7.032 -0.1300 -0.2254 -0.2339
  251MOL0     C33020   3.939   1.551   7.099  0.5950  0.3673  0.2485
  251MOL0     C33021   3.855   1.649   7.178  0.4031 -0.8796 -0.5008
  251MOL0     C33022   3.813   1.597   7.318 -0.0153 -0.3588  0.9314
  251MOL0     C33023   3.729   1.471   7.302 -0.5010 -0.5541  0.0117
  251MOL0     O33024   3.598   1.508   7.250 -0.1548  0.3862  0.1025
  251MOL0     C33025   3.484   1.441   7.291 -0.0917  0.0861  1.1000
  251MOL0     C33026   3.358   1.494   7.268  1.0070  0.0614  1.4846
  251MOL0     C33027   3.241   1.432   7.305  0.1766  0.0520 -0.2325
  251MOL0     C33028   3.242   1.312   7.371  0.4551 -0.0276  0.2965
  251MOL0     C33029   3.106   1.254   7.421 -0.2523 -0.0004 -0.1774
  251MOL0     O33030   2.990   1.326   7.400  0.7237  0.2031 -1.0978
  251MOL0     C33031   2.874   1.294   7.466  0.5793  0.1953  0.5192
  251MOL0     C33032   2.867   1.225   7.582 -0.2842 -0.0392  0.7267
  251MOL0     C33033   2.746   1.192   7.638  0.3168  0.3405  0.8107
  251MOL0     C33034   2.627   1.259   7.596 -0.0303 -0.3551  0.1261
  251MOL0     O33035   2.500   1.247   7.653  0.2401  0.6628  0.9015
  251MOL0     C33036   2.499   1.224   7.792  0.3217 -0.5115  0.2813
  251MOL0     C33037   2.358   1.221   7.843 -1.2404 -0.5858 -0.0830
  251MOL0     C33038   2.270   1.110   7.788  0.1693  0.0008 -0.1559
  251MOL0     C33039   2.135   1.108   7.848  0.1907  0.6021 -0.5203
  251MOL0     C33040   2.027   1.042   7.748  0.0776 -0.3088 -0.1810
  251MOL0     C33041   1.897   1.039   7.819  0.4540 -0.4340  1.0198
  251MOL0     C33042   1.801   0.947   7.741  0.0709 -0.8409 -0.2887
  251MOL0     C33043   1.660   0.952   7.793 -0.7146  0.3336 -0.7310
  251MOL0    Cl33044   1.554   0.816   7.727 -0.0466  0.5049 -0.2236
  251MOL0     C33045   2.627   1.332   7.475 -1.0867 -0.5438  0.1005
  251MOL0     C33046   2.755   1.353   7.412  0.3544  0.3011 -0.8467
  251MOL0     O33047   3.117   1.139   7.468 -0.2050  0.1107 -0.2747
  251MOL0     C33048   3.364   1.269   7.400  0.0814 -0.7451 -0.1836
  251MOL0     C33049   3.481   1.325   7.362 -0.0634  0.1015 -0.2100
  251MOL0     N33050   4.126   1.722   7.082 -1.1773 -1.0358 -0.0087
  251MOL0     N33051   4.195   1.781   6.993  0.2548 -0.3330  0.8450
  251MOL0     C33052   5.325   1.776   6.792  0.3966  0.9513 -0.2190
  251MOL0     C33053   5.443   1.763   6.859  0.8733 -0.1304  0.1235
  251MOL0     C33054   5.697   1.597   7.181  0.3185  0.1198 -1.2318
  251MOL0     C33055   5.710   1.525   7.298  1.1997 -0.5218 -0.5637
  251MOL0     C33056   5.835   1.515   7.361  0.1902 -0.4499 -0.3105
  251MOL0     C33057   5.948   1.581   7.307 -0.0582 -0.3839  0.7695
  251MOL0     O33058   6.071   1.579   7.374 -0.3854 -0.5325  0.6081
  251MOL0     C33059   6.174   1.665   7.330 -0.4723  0.5629  0.2440
  251MOL0     C33060   6.250   1.594   7.216 -0.4726  0.6327 -0.2478
  251MOL0     C33061   6.414   1.631   7.218 -0.3273 -0.1217  0.2637
  251MOL0     C33062   6.484   1.580   7.093 -0.3302 -1.4386  0.1673
  251MOL0     C33063   6.627   1.613   7.089 -0.1305 -0.0438 -0.0890
  251MOL0     C33064   6.747   1.639   7.090 -0.3150  0.0790 -0.1038
  251MOL0     C33065   5.932   1.647   7.189  0.0038 -0.0338  0.3733
  251MOL0     C33066   5.814   1.655   7.130  0.5592 -0.7542  0.7456
  251MOL0     H33067   5.324   1.792   7.163  0.8549  0.4297  0.9542
  251MOL0     H33068   5.116   1.837   7.041 -0.8526  2.1218 -3.2390
  251MOL0     H33069   5.104   1.719   6.638  1.2431  1.6924 -0.3419
  251MOL0     H33070   5.128   1.874   6.581 -1.0930 -1.2733 -1.1426
  251MOL0     H33071   4.891   1.819   6.518 -1.4845  1.8177  0.1015
  251MOL0     H33072   4.880   1.937   6.660  2.0342  0.7518 -1.4262
  251MOL0     H33073   4.854   1.754   6.819 -1.1375 -0.6417 -0.2025
  251MOL0     H33074   4.870   1.640   6.693  1.5948 -0.1709  2.4915
  251MOL0     H33075   4.651   1.869   6.692  2.8528  1.0538  0.6033
  251MOL0     H33076   4.647   1.716   6.595  2.4520 -0.3491 -0.8696
  251MOL0     H33077   4.607   1.761   6.888  1.4500  0.6095 -1.3404
  251MOL0     H33078   4.659   1.603   6.826 -0.3964  0.0606 -1.0385
  251MOL0     H33079   4.406   1.605   6.855 -1.1813 -2.1628 -2.9703
  251MOL0     H33080   4.450   1.588   6.688  3.0474 -1.4633  0.5169
  251MOL0     H33081   4.385   1.854   6.842 -1.2728 -2.7261  2.0111
  251MOL0     H33082   4.408   1.833   6.666  0.8213 -0.6265 -0.9241
  251MOL0     H33083   4.216   1.669   6.676  0.6794  1.3917 -0.8407
  251MOL0     H33084   4.182   1.832   6.709 -0.1586 -0.6989 -1.6375
  251MOL0     H33085   4.011   1.573   6.816  2.7326 -0.4731 -1.4021
  251MOL0     H33086   3.986   1.473   7.158 -2.2835 -0.3017  1.8837
  251MOL0     H33087   3.872   1.497   7.031 -0.9563  2.5049 -0.0388
  251MOL0     H33088   3.770   1.673   7.114  0.6366 -1.8596 -1.2173
  251MOL0     H33089   3.906   1.742   7.203 -0.3208 -0.5604 -0.2119
  251MOL0     H33090   3.902   1.579   7.379  0.8096  1.3083  0.2811
  251MOL0     H33091   3.757   1.671   7.376  0.4351  0.4003  0.4170
  251MOL0     H33092   3.718   1.437   7.405  1.5017  0.7713  0.7194
  251MOL0     H33093   3.775   1.385   7.253 -0.2231 -0.3695 -0.0517
  251MOL0     H33094   3.351   1.596   7.231 -3.3776 -0.6259 -0.2187
  251MOL0     H33095   3.144   1.478   7.293  0.5499  0.8611 -0.1778
  251MOL0     H33096   2.954   1.173   7.620 -1.0490 -2.0634 -0.1572
  251MOL0     H33097   2.744   1.110   7.708 -1.1285 -2.8745 -2.6658
  251MOL0     H33098   2.538   1.311   7.844 -1.0135 -0.6602  1.6130
  251MOL0     H33099   2.559   1.141   7.832  2.3548  0.5820 -0.4180
  251MOL0     H33100   2.313   1.316   7.813  2.5706  0.7421 -2.3120
  251MOL0     H33101   2.361   1.211   7.952  1.1020  2.4070  0.2798
  251MOL0     H33102   2.317   1.011   7.793  0.0447 -0.0028  2.3760
  251MOL0     H33103   2.256   1.117   7.680 -0.9654 -0.5803 -0.0564
  251MOL0     H33104   2.140   1.043   7.935 -0.0683  0.0799 -0.8869
  251MOL0     H33105   2.094   1.201   7.890  1.6267  0.3710  1.5245
  251MOL0     H33106   2.063   0.939   7.745  0.7545 -0.1624  1.7149
  251MOL0     H33107   2.015   1.098   7.655 -0.2253 -0.1303 -0.0379
  251MOL0     H33108   1.857   1.141   7.815  0.4994 -0.4091  1.2120
  251MOL0     H33109   1.898   1.014   7.925 -1.4650 -1.8917  0.7582
  251MOL0     H33110   1.808   0.975   7.635  0.5103  1.1114  0.2248
  251MOL0     H33111   1.838   0.845   7.752 -0.7410 -1.3595 -1.9865
  251MOL0     H33112   1.621   1.052   7.770  0.4863  1.0426  0.1834
  251MOL0     H33113   1.664   0.939   7.901 -1.8975  1.3047 -0.5440
  251MOL0     H33114   2.540   1.385   7.439 -0.1850  0.5461 -0.5444
  251MOL0     H33115   2.755   1.409   7.319  0.2726  1.4921 -0.1560
  251MOL0     H33116   3.350   1.195   7.478 -2.6550  1.9062  2.1567
  251MOL0     H33117   3.574   1.279   7.394  0.4177  1.7751  0.8850
  251MOL0     H33118   5.332   1.766   6.684 -0.0422  1.0642 -0.2606
  251MOL0     H33119   5.527   1.729   6.799 -0.3819 -0.9705 -1.2069
  251MOL0     H33120   5.628   1.484   7.357  3.0294  0.4446  2.9566
  251MOL0     H33121   5.843   1.455   7.450 -1.6411 -0.8925 -0.4075
  251MOL0     H33122   6.239   1.675   7.417 -1.2218 -0.1113  0.8894
  251MOL0     H33123   6.131   1.764   7.313 -0.5038  0.8447  1.8696
  251MOL0     H33124   6.234   1.486   7.216 -2.2716  0.8787 -0.2459
  251MOL0     H33125   6.212   1.638   7.123  4.0238  0.5444 -2.4583
  251MOL0     H33126   6.457   1.588   7.309 -3.4947 -1.0923  1.4173
  251MOL0     H33127   6.428   1.739   7.222 -2.5620  0.2526 -0.6813
  251MOL0     H33128   6.487   1.470   7.093 -0.0058 -1.4603 -1.2864
  251MOL0     H33129   6.432   1.613   7.002 -0.0191  0.7753  0.7296
  251MOL0     H33130   6.853   1.656   7.093  0.0013 -0.8336 -2.7385
  251MOL0     H33131   6.004   1.700   7.127 -2.8462  1.0373 -2.2730
  251MOL0     H33132   5.803   1.706   7.035 -1.7181 -2.4391 -0.0043
  252MOL0     O33133   1.374   5.509   8.922 -0.3156  0.0254 -0.9732
  252MOL0     C33134   1.360   5.387   8.920  0.5088 -1.1026  0.8099
  252MOL0     O33135   1.276   5.314   8.996 -0.2497  0.2942  0.2276
  252MOL0     C33136   1.214   5.392   9.088  0.0903  0.3856  0.9189
  252MOL0     C33137   1.100   5.465   9.056  1.2167  0.7393  0.0179
  252MOL0     C33138   1.033   5.537   9.157  0.4362 -0.2039  0.3577
  252MOL0     C33139   1.090   5.536   9.290  0.3475 -0.7452 -0.4013
  252MOL0     O33140   1.021   5.587   9.395  0.0767  0.0145 -0.9993
  252MOL0     C33141   0.884   5.603   9.392  0.3682  0.1731 -0.1439
  252MOL0     C33142   0.860   5.745   9.339 -0.1636 -0.6806  0.6233
  252MOL0     C33143   0.748   5.812   9.429 -0.9976  0.3150  0.9341
  252MOL0     C33144   0.697   5.936   9.366  0.4171  0.9259 -0.2939
  252MOL0     C33145   0.566   5.893   9.292 -1.1146 -0.2599 -0.1326
  252MOL0     C33146   0.493   5.991   9.202  1.2311  0.2148 -0.2987
  252MOL0     C33147   0.576   6.044   9.090 -0.3337  0.4848 -0.3532
  252MOL0     C33148   0.498   6.133   8.988 -0.8516 -0.3122  0.7359
  252MOL0     N33149   0.425   6.236   9.057 -0.5647  0.2022 -0.1506
  252MOL0     C33150   0.472   6.366   9.034  0.4815  0.5957  0.0138
  252MOL0     C33151   0.369   6.439   9.040  0.8380  0.1072  0.4229
  252MOL0     C33152   0.369   6.587   9.027 -0.1080  0.1304 -0.3712
  252MOL0     C33153   0.460   6.635   8.908 -0.7469  0.0450 -0.0276
  252MOL0     C33154   0.417   6.605   8.762 -0.3354 -0.7682 -0.3820
  252MOL0     C33155   0.262   6.636   8.743 -0.8997 -0.9353  0.5940
  252MOL0     O33156   0.236   6.774   8.750  0.6785 -0.2468  0.6320
  252MOL0     C33157   0.111   6.839   8.754 -0.4324 -0.2995  0.5736
  252MOL0     C33158   0.106   6.977   8.731  1.3327  0.1888 -0.3287
  252MOL0     C33159  -0.021   7.041   8.736  0.3835  0.4751  0.1630
  252MOL0     C33160  -0.138   6.971   8.781  0.0163 -0.2379  1.0621
  252MOL0     C33161  -0.269   7.031   8.764  0.1688 -0.4299 -0.0531
  252MOL0     O33162  -0.372   6.934   8.760  0.1222 -0.2041 -0.8768
  252MOL0     C33163  -0.502   6.984   8.750 -0.2388 -0.2593  0.2339
  252MOL0     C33164  -0.585   7.022   8.856 -0.2514  0.7288 -0.1417
  252MOL0     C33165  -0.708   7.075   8.840 -0.1165 -1.1729 -0.0147
  252MOL0     C33166  -0.757   7.090   8.717  1.2141  0.2880 -0.8056
  252MOL0     O33167  -0.881   7.148   8.719  0.7653 -0.7719 -0.5498
  252MOL0     C33168  -0.949   7.180   8.599 -0.9462  0.8119 -0.5409
  252MOL0     C33169  -1.009   7.054   8.539 -0.7420  0.1358 -0.1213
  252MOL0     C33170  -1.097   7.080   8.425  0.7028 -0.2621  0.0832
  252MOL0     C33171  -1.165   6.955   8.359 -0.2833  0.5802  0.2385
  252MOL0     C33172  -1.273   6.995   8.256 -0.2370  0.1536  0.2155
  252MOL0     C33173  -1.390   7.052   8.326 -0.1170 -0.7285 -0.2557
  252MOL0     C33174  -1.512   7.056   8.241 -0.0949 -0.2665  0.6329
  252MOL0     C33175  -1.638   7.095   8.313  0.4441 -0.5655 -0.4035
  252MOL0    Cl33176  -1.681   6.980   8.439  0.0329 -0.3559 -0.4114
  252MOL0     C33177  -0.684   7.052   8.595 -0.3947  0.4062  0.2866
  252MOL0     C33178  -0.557   7.004   8.622 -0.3774 -0.1136 -0.1436
  252MOL0     O33179  -0.283   7.153   8.754 -0.2783  0.0710 -0.0566
  252MOL0     C33180  -0.122   6.838   8.817  0.7358  0.1929 -1.2087
  252MOL0     C33181   0.003   6.768   8.810  0.6075 -0.4761 -0.0369
  252MOL0     N33182   0.257   6.359   9.072  0.1344 -0.1496 -0.1380
  252MOL0     N33183   0.291   6.235   9.074 -0.1981  0.2756 -0.8911
  252MOL0     C33184   1.211   5.468   9.310 -0.0320 -0.1616 -0.4335
  252MOL0     C33185   1.273   5.398   9.207 -0.3122 -0.1330 -0.5957
  252MOL0     C33186   1.457   5.306   8.835 -0.0894  0.2096 -0.5406
  252MOL0     C33187   1.555   5.369   8.757 -0.6936  0.8022 -0.1831
  252MOL0     C33188   1.639   5.285   8.673 -0.8801 -0.4128 -0.1173
  252MOL0     C33189   1.621   5.151   8.667 -0.1740  0.3835  0.4478
  252MOL0     O33190   1.714   5.077   8.593  0.5017 -0.5962  0.1168
  252MOL0     C33191   1.769   4.963   8.659 -0.0362 -0.2405 -0.0332
  252MOL0     C33192   1.889   4.899   8.572  0.1343  0.8550  0.4523
  252MOL0     C33193   1.965   4.795   8.652  0.0824  0.4584  0.0541
  252MOL0     C33194   2.046   4.691   8.576  0.1210 -0.0555  0.7320
  252MOL0     C33195   2.159   4.759   8.513 -1.0445 -0.4881  0.7153
  252MOL0     C33196   2.245   4.833   8.472  0.5270  0.0351  0.3123
  252MOL0     C33197   1.518   5.098   8.745 -0.4401  1.3195 -0.0221
  252MOL0     C33198   1.440   5.171   8.833 -0.0760  0.6112  0.7728
  252MOL0     H33199   1.046   5.466   8.962 -2.7260 -0.1452  2.0315
  252MOL0     H33200   0.937   5.579   9.128 -0.0275 -1.5455 -0.1328
  252MOL0     H33201   0.847   5.587   9.494  0.3542 -2.6171 -0.5049
  252MOL0     H33202   0.824   5.531   9.336 -2.2123  0.3068  2.2262
  252MOL0     H33203   0.839   5.746   9.232  2.3785 -0.5768  0.0497
  252MOL0     H33204   0.956   5.797   9.343  1.5429 -3.6590  1.3727
  252MOL0     H33205   0.787   5.826   9.531  1.2207 -0.5781  0.2722
  252MOL0     H33206   0.664   5.742   9.437  1.4667 -3.2254 -1.3942
  252MOL0     H33207   0.680   6.015   9.440 -0.2252 -0.9517  1.6740
  252MOL0     H33208   0.774   5.977   9.301  1.1301 -0.9468 -0.6883
  252MOL0     H33209   0.497   5.855   9.368 -0.1661  2.1115  2.0519
  252MOL0     H33210   0.587   5.814   9.219  1.6221  0.2699 -0.0244
  252MOL0     H33211   0.462   6.073   9.268  0.1265 -0.1366 -0.3547
  252MOL0     H33212   0.407   5.948   9.150 -0.7938  3.3773  0.1307
  252MOL0     H33213   0.666   6.094   9.128 -0.3725  0.0563  0.3167
  252MOL0     H33214   0.615   5.957   9.037 -1.0006 -0.2360  0.3092
  252MOL0     H33215   0.418   6.075   8.942 -0.1769 -0.8383  0.2157
  252MOL0     H33216   0.569   6.164   8.911 -3.3580  1.8075 -0.8846
  252MOL0     H33217   0.576   6.385   9.007  0.2963  1.0175 -0.3957
  252MOL0     H33218   0.410   6.633   9.117  1.6195  3.4635 -2.6306
  252MOL0     H33219   0.267   6.628   9.027 -0.7575 -1.3241  1.8184
  252MOL0     H33220   0.556   6.584   8.921 -1.2692 -0.6732  1.1877
  252MOL0     H33221   0.463   6.743   8.922 -1.7723 -0.1428  2.1022
  252MOL0     H33222   0.468   6.663   8.685  0.3607  1.0380  1.3431
  252MOL0     H33223   0.457   6.506   8.740  1.1170  0.1224 -1.9784
  252MOL0     H33224   0.199   6.587   8.818 -1.8918  2.3204  2.0621
  252MOL0     H33225   0.227   6.602   8.645  1.0191  0.3961 -0.6120
  252MOL0     H33226   0.199   7.028   8.708  0.7814  1.4836  0.2469
  252MOL0     H33227  -0.031   7.144   8.705  1.5738  0.4270 -0.4373
  252MOL0     H33228  -0.524   7.023   8.946  3.9549  4.3945 -2.6059
  252MOL0     H33229  -0.760   7.110   8.928 -1.3293  0.9518 -1.4935
  252MOL0     H33230  -0.876   7.227   8.533  0.7953 -1.3396 -0.2489
  252MOL0     H33231  -1.032   7.246   8.627 -0.9078  0.5228  0.2850
  252MOL0     H33232  -1.068   7.005   8.617  1.5171 -0.0401  1.5884
  252MOL0     H33233  -0.928   6.987   8.508 -1.8104 -1.3772  0.2016
  252MOL0     H33234  -1.041   7.131   8.346  0.8408 -0.9576 -0.2823
  252MOL0     H33235  -1.188   7.135   8.452 -0.3919 -1.2839 -1.3030
  252MOL0     H33236  -1.087   6.889   8.320 -1.8814 -1.4984  0.3966
  252MOL0     H33237  -1.212   6.891   8.434 -2.4266 -1.8167 -2.8965
  252MOL0     H33238  -1.309   6.903   8.209 -2.7206  1.2840 -0.2375
  252MOL0     H33239  -1.239   7.071   8.184 -2.9796  0.2924 -1.0514
  252MOL0     H33240  -1.363   7.154   8.355  0.3221 -1.2804  1.3899
  252MOL0     H33241  -1.414   7.010   8.424 -2.5092 -0.8190 -0.8205
  252MOL0     H33242  -1.493   7.133   8.165  0.5018 -0.6440  0.3945
  252MOL0     H33243  -1.537   6.957   8.201  2.2678 -0.1486 -1.3919
  252MOL0     H33244  -1.723   7.108   8.246  0.5516  2.3260 -0.1183
  252MOL0     H33245  -1.629   7.192   8.363 -2.4837 -1.4725  2.2544
  252MOL0     H33246  -0.725   7.062   8.495 -2.2689  1.5126  1.0964
  252MOL0     H33247  -0.498   6.989   8.533  1.9243  0.7428  1.1449
  252MOL0     H33248  -0.218   6.798   8.849  1.3017 -0.9123 -0.8263
  252MOL0     H33249   0.012   6.663   8.837 -1.2516 -1.0482 -1.4376
  252MOL0     H33250   1.252   5.459   9.410  0.1648 -0.3214 -0.5275
  252MOL0     H33251   1.365   5.341   9.224 -0.4610 -0.7169 -1.6460
  252MOL0     H33252   1.561   5.476   8.747  0.6165  0.6639 -0.9651
  252MOL0     H33253   1.709   5.335   8.607  0.0884  0.1209  1.2492
  252MOL0     H33254   1.687   4.892   8.673 -0.3973  0.0741 -0.5388
  252MOL0     H33255   1.796   4.996   8.760  0.8721  3.1583 -1.2306
  252MOL0     H33256   1.833   4.842   8.497 -0.8376  2.6957 -0.2874
  252MOL0     H33257   1.964   4.962   8.524  0.3603 -0.3290 -0.8198
  252MOL0     H33258   1.894   4.737   8.711 -0.7725  1.2337 -0.1910
  252MOL0     H33259   2.005   4.856   8.734 -0.5749 -0.3125  0.9747
  252MOL0     H33260   2.083   4.627   8.657 -3.8932 -1.0925  1.9792
  252MOL0     H33261   1.993   4.638   8.496 -0.7875  0.5268  0.9420
  252MOL0     H33262   2.323   4.894   8.432  2.6361 -2.0856  0.9153
  252MOL0     H33263   1.502   4.991   8.736  2.2536  0.8323  0.1459
  252MOL0     H33264   1.358   5.126   8.888 -1.7227  0.5347 -1.6150
  253MOL0     O33265   1.948   7.708   7.213 -0.4579 -0.0772 -0.0887
  253MOL0     C33266   1.853   7.652   7.262  0.4091  0.0078  0.2043
  253MOL0     O33267   1.792   7.701   7.376 -0.6609  0.5721  0.1977
  253MOL0     C33268   1.840   7.807   7.442  0.7888 -0.5198 -0.0966
  253MOL0     C33269   1.744   7.892   7.507 -0.4528  0.8060  0.1390
  253MOL0     C33270   1.793   7.997   7.588 -0.2611  0.2705  0.3495
  253MOL0     C33271   1.923   8.028   7.609 -0.1416  0.1794  0.7844
  253MOL0     O33272   1.964   8.136   7.669 -0.4180 -0.2098  0.0876
  253MOL0     C33273   2.069   8.133   7.767 -0.8528 -0.0474 -0.4017
  253MOL0     C33274   2.084   8.272   7.839 -0.4458 -0.6878  0.6833
  253MOL0     C33275   2.201   8.283   7.940 -0.7781  0.3209  0.6768
  253MOL0     C33276   2.341   8.221   7.885  0.9076  0.2130  0.0034
  253MOL0     C33277   2.448   8.281   7.983 -0.2392 -0.7059  0.1738
  253MOL0     C33278   2.595   8.253   7.948 -0.0111  0.0440  0.2532
  253MOL0     C33279   2.634   8.325   7.813  0.1185 -0.1915  0.0357
  253MOL0     C33280   2.781   8.333   7.782 -0.6087 -0.3445  0.0102
  253MOL0     N33281   2.866   8.410   7.877 -0.5423  0.3460 -0.0190
  253MOL0     C33282   2.834   8.514   7.965 -0.3691  0.0419  0.0755
  253MOL0     C33283   2.953   8.544   8.025 -0.1917 -0.0434 -0.1300
  253MOL0     C33284   2.973   8.651   8.129  0.8699 -0.2238  0.0612
  253MOL0     C33285   3.008   8.588   8.266 -0.3055  0.0125  0.0012
  253MOL0     C33286   2.898   8.629   8.366  0.4101  0.3403  0.9077
  253MOL0     C33287   2.761   8.569   8.330 -0.3201 -0.5123 -0.1540
  253MOL0     O33288   2.666   8.589   8.429 -0.3920 -0.3182 -0.2459
  253MOL0     C33289   2.531   8.577   8.400 -0.7584  0.2450  0.4170
  253MOL0     C33290   2.474   8.502   8.294  0.2790 -0.0858 -0.2525
  253MOL0     C33291   2.337   8.499   8.277  0.6060  0.2172  0.3116
  253MOL0     C33292   2.250   8.566   8.367  0.0151  0.3551 -0.7056
  253MOL0     C33293   2.103   8.576   8.353 -0.2221 -0.4427 -0.7630
  253MOL0     O33294   2.029   8.645   8.453 -0.2722 -0.2237 -0.8610
  253MOL0     C33295   1.892   8.640   8.453  0.9486  0.8907  0.4227
  253MOL0     C33296   1.823   8.755   8.406 -0.3206  0.1756  0.0235
  253MOL0     C33297   1.681   8.767   8.404 -0.1624  0.4310  0.7809
  253MOL0     C33298   1.610   8.665   8.463  0.1324 -0.0535 -0.6464
  253MOL0     O33299   1.472   8.686   8.480 -0.4929  0.7502 -0.5399
  253MOL0     C33300   1.394   8.576   8.539  0.0015 -0.2296 -0.4741
  253MOL0     C33301   1.387   8.594   8.690  0.1803  0.0519  0.1516
  253MOL0     C33302   1.333   8.465   8.756 -0.2258 -0.5008 -0.1088
  253MOL0     C33303   1.280   8.508   8.900  0.3721  0.1588 -0.5545
  253MOL0     C33304   1.174   8.409   8.949  0.5421 -0.2149 -0.1002
  253MOL0     C33305   1.093   8.484   9.066  0.2286  0.0120 -0.1239
  253MOL0     C33306   0.974   8.402   9.113 -0.6000  0.6611  0.3880
  253MOL0     C33307   0.937   8.433   9.248 -0.0055  0.7378 -0.5548
  253MOL0    Cl33308   0.857   8.603   9.249 -0.1097  0.1186  0.0345
  253MOL0     C33309   1.674   8.547   8.515  0.0683  0.1840  0.1293
  253MOL0     C33310   1.817   8.529   8.492  0.0162 -0.3833  0.4006
  253MOL0     O33311   2.056   8.497   8.273  0.0987 -0.3996 -0.3689
  253MOL0     C33312   2.310   8.633   8.477 -1.1935 -0.2074  0.1461
  253MOL0     C33313   2.447   8.639   8.497 -1.3566  1.4452 -0.4565
  253MOL0     N33314   3.053   8.474   7.962 -0.6592 -0.6911 -0.2558
  253MOL0     N33315   3.001   8.391   7.879 -0.5173  0.0240  0.4210
  253MOL0     C33316   2.019   7.948   7.542  0.1544 -0.2483 -0.0475
  253MOL0     C33317   1.977   7.843   7.460  0.4147  0.1601 -0.3299
  253MOL0     C33318   1.804   7.524   7.196 -0.4685 -0.8897 -0.1523
  253MOL0     C33319   1.884   7.473   7.092  0.5099 -0.1316  0.3069
  253MOL0     C33320   1.852   7.356   7.030 -0.1798  0.0272  0.1741
  253MOL0     C33321   1.733   7.294   7.061  0.2682  0.0948 -0.6912
  253MOL0     O33322   1.699   7.175   7.000 -0.0053 -0.5065 -0.4458
  253MOL0     C33323   1.779   7.065   7.046 -0.3511 -0.2382 -0.0236
  253MOL0     C33324   1.705   6.933   7.030 -0.7919 -0.0379 -0.1349
  253MOL0     C33325   1.617   6.942   6.902  0.1944  0.4703  0.1644
  253MOL0     C33326   1.579   6.795   6.858 -0.1077  0.2620 -0.2440
  253MOL0     C33327   1.541   6.698   6.963  0.2069 -0.4731 -0.2708
  253MOL0     C33328   1.532   6.618   7.050 -0.6519 -0.5119  0.5288
  253MOL0     C33329   1.645   7.347   7.156  0.4320 -0.1257  0.0718
  253MOL0     C33330   1.680   7.464   7.222  0.2750  0.2928  0.0786
  253MOL0     H33331   1.638   7.879   7.486 -0.3651 -0.9558  0.6514
  253MOL0     H33332   1.734   8.071   7.641 -1.2221 -1.0842  1.2489
  253MOL0     H33333   2.164   8.103   7.722  1.0605  4.4983  0.0818
  253MOL0     H33334   2.046   8.055   7.840 -0.4480  1.9074  1.9333
  253MOL0     H33335   1.994   8.274   7.901 -0.6637 -1.7580  0.4145
  253MOL0     H33336   2.087   8.357   7.770  1.8557 -0.4759  0.9599
  253MOL0     H33337   2.168   8.239   8.034 -3.9233 -0.4890 -0.7030
  253MOL0     H33338   2.224   8.389   7.957 -1.1203  0.7632 -1.2908
  253MOL0     H33339   2.341   8.112   7.893 -0.3161  0.1166 -0.9721
  253MOL0     H33340   2.360   8.249   7.781 -0.3970 -0.1330 -0.3508
  253MOL0     H33341   2.419   8.259   8.086 -2.2762  1.7716  0.2491
  253MOL0     H33342   2.441   8.390   7.969  1.6620 -0.8291 -2.4617
  253MOL0     H33343   2.614   8.145   7.951 -0.6942 -0.1160 -0.6716
  253MOL0     H33344   2.656   8.287   8.032  0.7895 -1.0521  0.1316
  253MOL0     H33345   2.597   8.268   7.728  2.0711 -2.4183  0.5979
  253MOL0     H33346   2.603   8.431   7.815  2.8672  0.6749  1.7057
  253MOL0     H33347   2.792   8.376   7.683 -1.0718 -1.8413 -0.7268
  253MOL0     H33348   2.826   8.233   7.782 -0.0773 -0.1444  1.8278
  253MOL0     H33349   2.730   8.546   7.970 -1.2083 -2.0533 -1.8646
  253MOL0     H33350   2.881   8.709   8.137  0.4760 -0.8057 -0.1761
  253MOL0     H33351   3.056   8.717   8.102  2.6129 -2.0515  0.6863
  253MOL0     H33352   3.098   8.626   8.314  0.9486 -2.0154 -0.6178
  253MOL0     H33353   3.016   8.479   8.258 -1.2001  0.0170 -1.2208
  253MOL0     H33354   2.932   8.610   8.468  0.7132  0.9740  0.9255
  253MOL0     H33355   2.878   8.736   8.359 -1.0288  0.0914  0.8594
  253MOL0     H33356   2.763   8.462   8.306  0.4654 -0.5454  0.0524
  253MOL0     H33357   2.721   8.619   8.242 -3.6904 -1.3071  0.7731
  253MOL0     H33358   2.530   8.468   8.208  0.5023  2.2239 -1.0825
  253MOL0     H33359   2.296   8.444   8.193 -4.3567  1.0414  1.8715
  253MOL0     H33360   1.882   8.842   8.379  0.8483 -0.5876  0.0208
  253MOL0     H33361   1.623   8.851   8.369 -2.7745 -0.5721  2.4414
  253MOL0     H33362   1.420   8.479   8.495  1.5127  1.2585 -3.1641
  253MOL0     H33363   1.293   8.596   8.501  0.8910  1.0785 -2.3345
  253MOL0     H33364   1.326   8.683   8.704 -0.2665  0.8632 -5.0300
  253MOL0     H33365   1.492   8.607   8.719  0.8768  3.1299 -3.1168
  253MOL0     H33366   1.412   8.390   8.757  3.2967  2.7561 -2.5507
  253MOL0     H33367   1.248   8.426   8.698 -0.2922 -0.0408 -0.3311
  253MOL0     H33368   1.360   8.508   8.974 -0.8193  1.0333  0.7835
  253MOL0     H33369   1.226   8.604   8.895 -1.0891 -0.6881 -2.1589
  253MOL0     H33370   1.213   8.311   8.978  0.2117 -0.9266 -1.9642
  253MOL0     H33371   1.103   8.382   8.871  0.8304 -3.8711  0.7472
  253MOL0     H33372   1.067   8.580   9.023  1.9553  1.4028  1.7295
  253MOL0     H33373   1.159   8.510   9.149 -1.2871  1.2406  0.7512
  253MOL0     H33374   0.889   8.419   9.047  0.8105  2.4675 -1.0956
  253MOL0     H33375   1.007   8.298   9.113 -0.7388  0.5581 -1.8499
  253MOL0     H33376   1.027   8.417   9.308 -0.3199 -3.4171 -0.9093
  253MOL0     H33377   0.860   8.363   9.281 -0.1943  1.0021 -0.4344
  253MOL0     H33378   1.615   8.469   8.561 -1.6204  3.3524  3.8606
  253MOL0     H33379   1.876   8.439   8.509  1.1870  0.5748  1.5756
  253MOL0     H33380   2.248   8.696   8.541 -0.4264  1.6530 -0.8778
  253MOL0     H33381   2.493   8.698   8.576 -0.4751  0.1502  0.0155
  253MOL0     H33382   2.121   7.984   7.527 -0.1168 -0.3471 -2.6139
  253MOL0     H33383   2.060   7.795   7.410  1.5941  2.3598 -0.6210
  253MOL0     H33384   1.968   7.524   7.044 -0.6363 -1.2751 -3.1912
  253MOL0     H33385   1.920   7.321   6.952 -2.4204  2.4002 -3.0889
  253MOL0     H33386   1.796   7.067   7.154  1.6919 -3.3031 -0.1625
  253MOL0     H33387   1.877   7.054   6.998 -1.1636  0.9075 -2.1122
  253MOL0     H33388   1.779   6.852   7.024 -0.6895  0.1568 -2.4216
  253MOL0     H33389   1.645   6.908   7.118  0.9628 -4.5716  0.0359
  253MOL0     H33390   1.667   7.000   6.823 -0.3599 -0.8892 -1.2366
  253MOL0     H33391   1.527   6.998   6.929  1.1681  2.6343 -0.8007
  253MOL0     H33392   1.497   6.801   6.786 -0.0107 -1.5143 -0.5316
  253MOL0     H33393   1.661   6.752   6.800  0.5755  1.9278 -0.5913
  253MOL0     H33394   1.528   6.556   7.137 -1.1493 -2.4696 -0.8142
  253MOL0     H33395   1.557   7.285   7.175 -0.1166  0.0776 -1.6847
  253MOL0     H33396   1.621   7.497   7.307  1.5050 -0.1809  1.1557
  254MOL0     O33397   1.708   5.142   1.669 -0.1077 -0.3264  0.0645
  254MOL0     C33398   1.664   5.135   1.552  0.9410  0.1427  0.6339
  254MOL0     O33399   1.531   5.120   1.519  0.1144  0.2614 -0.1078
  254MOL0     C33400   1.440   5.098   1.620 -0.6517 -0.6323 -0.8912
  254MOL0     C33401   1.465   5.014   1.731  0.7121 -0.3765 -0.1010
  254MOL0     C33402   1.359   4.981   1.819 -0.1974  0.5456  0.3639
  254MOL0     C33403   1.236   5.030   1.811  0.9246 -0.4260  0.4909
  254MOL0     O33404   1.162   4.987   1.901  0.5214 -0.6708 -0.7553
  254MOL0     C33405   1.032   5.047   1.917 -0.0702 -1.5152 -1.3475
  254MOL0     C33406   0.969   4.987   2.041 -0.0949 -0.0132 -0.8312
  254MOL0     C33407   0.827   5.035   2.058 -0.0927 -0.1135 -1.0284
  254MOL0     C33408   0.777   4.992   2.197  0.0246 -0.1029  0.0401
  254MOL0     C33409   0.617   4.982   2.200 -0.0163  0.0038  0.2834
  254MOL0     C33410   0.556   5.113   2.246  0.4760  0.0426 -0.1095
  254MOL0     C33411   0.407   5.118   2.258  0.1253  0.0623  0.2017
  254MOL0     C33412   0.360   5.249   2.320  0.6360 -0.2534 -0.3633
  254MOL0     N33413   0.221   5.235   2.358 -0.1809 -0.4712 -1.0534
  254MOL0     C33414   0.180   5.187   2.475 -0.2187  0.0662 -0.0505
  254MOL0     C33415   0.045   5.178   2.467  0.2227 -0.4028 -0.6831
  254MOL0     C33416  -0.054   5.114   2.553 -0.4396  0.1560  0.3356
  254MOL0     C33417  -0.185   5.201   2.583  0.4938  0.6719  0.2583
  254MOL0     C33418  -0.299   5.105   2.619 -0.4359  0.1995 -0.1829
  254MOL0     C33419  -0.426   5.161   2.685  0.0561  0.0100  0.3593
  254MOL0     O33420  -0.525   5.208   2.590  0.0259  0.5860  0.0402
  254MOL0     C33421  -0.653   5.163   2.616  0.1564 -0.0837 -0.4452
  254MOL0     C33422  -0.725   5.115   2.508 -0.4651 -0.2645  0.3096
  254MOL0     C33423  -0.849   5.052   2.524 -0.1388 -0.4733  0.2925
  254MOL0     C33424  -0.906   5.054   2.654 -0.5090 -0.4992  0.4761
  254MOL0     C33425  -1.041   4.985   2.666 -0.2592 -0.1837 -0.9841
  254MOL0     O33426  -1.105   4.960   2.542 -1.0752 -0.1040  0.0409
  254MOL0     C33427  -1.234   4.922   2.530 -0.2225 -0.5272  0.3416
  254MOL0     C33428  -1.271   4.823   2.441  0.5860 -0.4459  0.5575
  254MOL0     C33429  -1.406   4.782   2.434  0.6266 -0.0067  0.1236
  254MOL0     C33430  -1.504   4.850   2.518  0.6947  0.2272  1.2926
  254MOL0     O33431  -1.635   4.819   2.504 -0.1017  0.1066  0.1617
  254MOL0     C33432  -1.724   4.927   2.479 -1.2156  1.0258 -0.0674
  254MOL0     C33433  -1.833   4.888   2.390  0.6174  0.0793  0.7776
  254MOL0     C33434  -1.791   4.832   2.255 -0.2176  0.9045  0.2626
  254MOL0     C33435  -1.902   4.823   2.147 -0.4559  0.4013 -0.1346
  254MOL0     C33436  -1.998   4.710   2.138  0.4864 -0.2550  0.6615
  254MOL0     C33437  -2.103   4.692   2.260  0.8039 -0.4263 -0.2925
  254MOL0     C33438  -2.201   4.814   2.246 -0.8857 -0.4507  0.6212
  254MOL0     C33439  -2.312   4.807   2.348 -0.6060  0.2595  1.1705
  254MOL0    Cl33440  -2.388   4.645   2.371  0.4096 -0.3116  0.3080
  254MOL0     C33441  -1.465   4.955   2.602  0.5207  0.0510  0.3861
  254MOL0     C33442  -1.330   4.985   2.607  0.5372 -1.4831  0.3663
  254MOL0     O33443  -1.085   4.971   2.780  0.1084 -0.0989  0.1777
  254MOL0     C33444  -0.830   5.090   2.763 -0.7862 -0.6512  0.0407
  254MOL0     C33445  -0.710   5.157   2.745 -1.4119  0.4206  0.3708
  254MOL0     N33446   0.005   5.215   2.342  0.6848 -0.0545 -0.1565
  254MOL0     N33447   0.113   5.254   2.279  0.5822  0.3798 -0.3761
  254MOL0     C33448   1.208   5.117   1.703  0.4821 -0.5082 -0.9998
  254MOL0     C33449   1.306   5.145   1.602 -0.3086  0.2483  0.2632
  254MOL0     C33450   1.756   5.166   1.445  0.0694  0.7958  0.4982
  254MOL0     C33451   1.730   5.153   1.309  0.4556  0.2660 -0.5392
  254MOL0     C33452   1.821   5.171   1.211 -0.6587 -0.2473 -0.3067
  254MOL0     C33453   1.956   5.197   1.246 -0.5015 -0.3227  0.1727
  254MOL0     O33454   2.032   5.229   1.131 -0.0689  0.3639 -0.4236
  254MOL0     C33455   2.169   5.265   1.132  0.4403  0.3162  0.0379
  254MOL0     C33456   2.177   5.413   1.169 -0.3699  0.6573  0.7509
  254MOL0     C33457   2.314   5.476   1.118  0.7661  0.6019  0.0580
  254MOL0     C33458   2.299   5.624   1.104  0.2396  0.8020  1.4607
  254MOL0     C33459   2.419   5.699   1.082 -0.1478 -0.6536 -0.6412
  254MOL0     C33460   2.516   5.777   1.063  0.7163  0.5445  0.5821
  254MOL0     C33461   1.987   5.216   1.379  0.6520 -0.6189 -0.0940
  254MOL0     C33462   1.887   5.193   1.476 -0.6246 -0.0659  0.0398
  254MOL0     H33463   1.563   4.966   1.734  1.6985  1.5250 -0.3263
  254MOL0     H33464   1.396   4.921   1.901 -0.7646 -1.4887 -0.7659
  254MOL0     H33465   0.966   5.024   1.833 -3.4553 -0.5157  0.8538
  254MOL0     H33466   1.036   5.154   1.937  0.8775 -1.6652 -0.6690
  254MOL0     H33467   1.022   5.019   2.131 -1.7245  1.4316 -0.3186
  254MOL0     H33468   0.968   4.879   2.024 -1.0814 -0.4174  1.4917
  254MOL0     H33469   0.769   4.992   1.977 -1.8318 -0.8653  0.5310
  254MOL0     H33470   0.812   5.144   2.058  0.2760 -0.0032  1.3937
  254MOL0     H33471   0.816   4.891   2.214  0.9589 -0.2054 -2.3463
  254MOL0     H33472   0.813   5.062   2.272  3.5159 -1.3360 -0.3041
  254MOL0     H33473   0.591   4.905   2.274  0.5924 -0.2772  0.2116
  254MOL0     H33474   0.595   4.964   2.095  1.0984  1.4313 -0.2195
  254MOL0     H33475   0.578   5.189   2.170 -2.0276  1.7318  0.7261
  254MOL0     H33476   0.607   5.137   2.340 -0.8762  0.7116  0.4730
  254MOL0     H33477   0.378   5.107   2.153  1.3948  0.2739 -0.1950
  254MOL0     H33478   0.364   5.035   2.316  4.4441 -1.5602  1.4912
  254MOL0     H33479   0.350   5.338   2.257 -3.2373 -0.3765 -0.1659
  254MOL0     H33480   0.400   5.286   2.415 -2.4076 -0.5943  1.1537
  254MOL0     H33481   0.247   5.157   2.555  1.1999  0.7725 -0.9267
  254MOL0     H33482  -0.011   5.081   2.648 -2.2807 -1.1618  0.7702
  254MOL0     H33483  -0.080   5.021   2.501 -1.0244  0.8182 -0.5845
  254MOL0     H33484  -0.205   5.250   2.487  0.4834 -1.1206 -0.6832
  254MOL0     H33485  -0.184   5.279   2.660  0.3152  1.3609 -0.4261
  254MOL0     H33486  -0.333   5.045   2.534 -0.9338 -2.2417  1.6244
  254MOL0     H33487  -0.261   5.030   2.689 -0.2913  0.8333  0.4281
  254MOL0     H33488  -0.404   5.236   2.762  0.9532 -1.2716  1.3957
  254MOL0     H33489  -0.472   5.080   2.741  0.8691 -0.6492  0.0963
  254MOL0     H33490  -0.676   5.107   2.411  1.7583 -0.9516  1.4412
  254MOL0     H33491  -0.890   4.997   2.440  0.3165 -1.6769  0.8382
  254MOL0     H33492  -1.199   4.787   2.368  1.0490 -0.6916  1.1325
  254MOL0     H33493  -1.456   4.705   2.376 -4.8797  1.2697  2.5538
  254MOL0     H33494  -1.668   5.011   2.439  1.5261 -0.3694  0.5766
  254MOL0     H33495  -1.774   4.964   2.569  1.1551  1.3812  1.1833
  254MOL0     H33496  -1.902   4.969   2.366  2.7910  2.1579  1.2026
  254MOL0     H33497  -1.878   4.806   2.447  2.2851 -0.0978  1.9112
  254MOL0     H33498  -1.733   4.740   2.260  0.0821  1.1580  1.7875
  254MOL0     H33499  -1.724   4.910   2.217 -1.7138  0.6323 -3.3413
  254MOL0     H33500  -1.966   4.912   2.149  0.0685  0.7950 -0.7935
  254MOL0     H33501  -1.852   4.823   2.050  3.5780 -4.7007  1.4973
  254MOL0     H33502  -1.941   4.617   2.129 -1.2565 -1.2537 -0.7244
  254MOL0     H33503  -2.044   4.716   2.039  1.3759 -0.1663  0.2443
  254MOL0     H33504  -2.057   4.688   2.359  0.0221  1.8026  0.2077
  254MOL0     H33505  -2.156   4.597   2.247 -0.3533  0.1133  0.3886
  254MOL0     H33506  -2.151   4.912   2.249 -0.5490 -0.4374 -2.4412
  254MOL0     H33507  -2.229   4.804   2.141  0.8806 -0.1094  0.0841
  254MOL0     H33508  -2.399   4.867   2.323  0.0151  0.2036 -1.3082
  254MOL0     H33509  -2.270   4.836   2.446 -1.1620 -3.5956  2.7430
  254MOL0     H33510  -1.539   5.005   2.664 -0.2855 -1.4143  0.6403
  254MOL0     H33511  -1.298   5.058   2.681  0.3035 -1.1824  0.1751
  254MOL0     H33512  -0.863   5.076   2.866  1.0826  0.7600  0.8946
  254MOL0     H33513  -0.654   5.197   2.828  0.1327 -2.9927  1.1761
  254MOL0     H33514   1.109   5.155   1.683  0.5497 -0.4468 -1.2180
  254MOL0     H33515   1.281   5.205   1.515 -0.8886 -0.4146 -0.0392
  254MOL0     H33516   1.629   5.132   1.273  0.9768  0.1008 -1.9867
  254MOL0     H33517   1.799   5.161   1.106  0.7138 -0.1609 -0.6212
  254MOL0     H33518   2.218   5.259   1.034  0.2626 -0.7452 -0.0026
  254MOL0     H33519   2.227   5.200   1.199  2.5356  1.1117 -0.9218
  254MOL0     H33520   2.096   5.468   1.121 -2.8041 -2.2401  1.2777
  254MOL0     H33521   2.158   5.425   1.276 -3.6536  1.4136  0.1700
  254MOL0     H33522   2.347   5.430   1.024 -0.6920  2.1747 -1.3067
  254MOL0     H33523   2.395   5.457   1.188  0.2395  1.7940  1.0323
  254MOL0     H33524   2.260   5.632   1.003  0.3804  0.9081  1.4149
  254MOL0     H33525   2.241   5.669   1.184  1.4617  1.0165  2.2544
  254MOL0     H33526   2.586   5.858   1.056  0.7176  0.6129  1.3599
  254MOL0     H33527   2.087   5.241   1.413  0.5129  0.6430 -0.5970
  254MOL0     H33528   1.920   5.207   1.578  0.8910  1.1978 -0.5782
  255MOL0     O33529   3.720   2.900   9.601 -0.1064  0.0564  0.0582
  255MOL0     C33530   3.812   2.969   9.560 -0.3765  0.4455 -0.3138
  255MOL0     O33531   3.808   3.053   9.455  0.2776  0.3074  0.3359
  255MOL0     C33532   3.698   3.093   9.381 -0.4489 -0.1458 -0.4904
  255MOL0     C33533   3.709   3.217   9.321 -0.4727  0.0582 -0.0632
  255MOL0     C33534   3.610   3.269   9.239 -0.4661  0.5195  0.2667
  255MOL0     C33535   3.488   3.199   9.217 -1.0985  0.0178 -0.1849
  255MOL0     O33536   3.409   3.263   9.132  0.1421  0.2810 -0.2098
  255MOL0     C33537   3.277   3.207   9.105 -0.1738 -0.0767 -0.5131
  255MOL0     C33538   3.277   3.125   8.978 -0.7430  0.4466  0.3322
  255MOL0     C33539   3.130   3.095   8.935 -0.2922  0.2203  0.9191
  255MOL0     C33540   3.112   3.043   8.793 -0.2576 -0.1130  0.0816
  255MOL0     C33541   2.971   3.029   8.735  0.2733  0.0750  0.1630
  255MOL0     C33542   2.883   2.940   8.814 -0.6579  0.8050  0.7131
  255MOL0     C33543   2.757   2.893   8.731 -1.0583  0.3863 -0.7811
  255MOL0     C33544   2.664   2.789   8.804 -0.4885  0.4787  1.0792
  255MOL0     N33545   2.588   2.833   8.918  0.7750  0.3109  0.1437
  255MOL0     C33546   2.452   2.863   8.910 -0.5400  0.2995 -0.7778
  255MOL0     C33547   2.412   2.866   9.041  0.7781 -0.3507  0.2372
  255MOL0     C33548   2.284   2.911   9.106 -0.7133 -0.6448 -0.2817
  255MOL0     C33549   2.190   2.802   9.156 -0.1217 -0.5820  0.7492
  255MOL0     C33550   2.083   2.862   9.254 -0.0541 -0.9081  0.6204
  255MOL0     C33551   1.948   2.802   9.242 -0.6075  0.9542 -0.7629
  255MOL0     O33552   1.861   2.835   9.355 -0.5233 -0.4189  0.5891
  255MOL0     C33553   1.733   2.776   9.356  0.7971 -0.1399  0.4158
  255MOL0     C33554   1.650   2.800   9.463  0.1710 -0.4400 -0.2210
  255MOL0     C33555   1.520   2.751   9.463  0.2486  0.2823  0.5364
  255MOL0     C33556   1.473   2.672   9.358  0.2890  0.3462  0.0642
  255MOL0     C33557   1.337   2.625   9.360  0.2669 -0.2469 -0.7114
  255MOL0     O33558   1.272   2.605   9.481  0.9055 -0.7549 -0.5402
  255MOL0     C33559   1.133   2.583   9.479  0.5416  0.4000 -0.4376
  255MOL0     C33560   1.074   2.466   9.528  0.4932  1.2336 -0.6861
  255MOL0     C33561   0.931   2.451   9.521  0.2666  1.2412  0.7290
  255MOL0     C33562   0.843   2.551   9.466  0.2992  0.0477  0.5248
  255MOL0     O33563   0.705   2.529   9.467 -0.0933 -0.4509 -0.1279
  255MOL0     C33564   0.604   2.610   9.385 -1.0666  0.2253  0.0130
  255MOL0     C33565   0.478   2.534   9.383  0.3031  0.2971 -0.4529
  255MOL0     C33566   0.397   2.538   9.525 -0.2646  0.0677  0.2701
  255MOL0     C33567   0.274   2.441   9.509  0.1495  0.3211  0.3471
  255MOL0     C33568   0.211   2.419   9.643  0.5855 -0.0452 -0.4902
  255MOL0     C33569   0.083   2.319   9.644 -0.0520 -0.0726  0.1713
  255MOL0     C33570  -0.025   2.341   9.541  0.3164  0.2382 -0.8656
  255MOL0     C33571  -0.104   2.471   9.561  0.0009  0.4372  0.2563
  255MOL0    Cl33572  -0.181   2.462   9.715 -0.5583 -0.2805 -0.0327
  255MOL0     C33573   0.904   2.670   9.426  0.3629  0.2199  0.9360
  255MOL0     C33574   1.044   2.683   9.431 -0.3335 -0.0680  0.4047
  255MOL0     O33575   1.290   2.623   9.247 -0.0853 -0.0874  0.2040
  255MOL0     C33576   1.564   2.632   9.254  0.1009 -0.5578 -0.5342
  255MOL0     C33577   1.686   2.687   9.255 -1.0308 -0.6998 -0.1170
  255MOL0     N33578   2.522   2.861   9.129 -0.7932 -0.1938  0.5506
  255MOL0     N33579   2.625   2.838   9.048  0.6527  0.7416 -0.4913
  255MOL0     C33580   3.480   3.069   9.279  0.7174 -0.4487  0.0881
  255MOL0     C33581   3.580   3.017   9.358 -0.1375 -0.2640 -0.4487
  255MOL0     C33582   3.943   2.943   9.624 -0.6056 -0.4016  0.1472
  255MOL0     C33583   3.958   2.839   9.714  0.6275  0.1126 -0.2610
  255MOL0     C33584   4.085   2.805   9.765 -0.2845 -0.6681  0.1098
  255MOL0     C33585   4.195   2.888   9.722 -0.5715  0.3020 -0.2471
  255MOL0     O33586   4.321   2.857   9.778 -0.0760  0.5121  0.7075
  255MOL0     C33587   4.438   2.874   9.702  0.8960  0.6475  0.3591
  255MOL0     C33588   4.426   2.785   9.575 -0.5215  0.1245 -0.0137
  255MOL0     C33589   4.540   2.788   9.476 -0.3941  0.9834 -0.0392
  255MOL0     C33590   4.558   2.936   9.430 -0.8015  0.1347 -0.6176
  255MOL0     C33591   4.625   2.943   9.307  0.0746 -0.3380 -0.0130
  255MOL0     C33592   4.680   2.948   9.202 -0.0618 -0.7622  0.7294
  255MOL0     C33593   4.183   3.000   9.635  0.0962 -0.3883 -0.5307
  255MOL0     C33594   4.057   3.012   9.580 -1.0273  0.1412 -0.7506
  255MOL0     H33595   3.800   3.275   9.327 -1.2480  1.6338 -2.1235
  255MOL0     H33596   3.621   3.366   9.192  0.6955  0.8015  1.0797
  255MOL0     H33597   3.216   3.297   9.091 -1.7734 -0.5591  2.5982
  255MOL0     H33598   3.245   3.143   9.187  1.8159  0.5546  0.8272
  255MOL0     H33599   3.324   3.027   8.989 -0.8221  0.0868 -1.9752
  255MOL0     H33600   3.326   3.183   8.899 -0.7825  1.3059  0.9273
  255MOL0     H33601   3.069   3.185   8.948 -3.5100 -1.7131  0.3573
  255MOL0     H33602   3.092   3.018   9.004 -2.4071  0.5082  0.1333
  255MOL0     H33603   3.162   3.113   8.725  0.2640  1.3293  1.8921
  255MOL0     H33604   3.161   2.945   8.782  0.1644  0.3046 -2.4477
  255MOL0     H33605   2.990   2.988   8.635 -1.4219  1.2481 -0.6855
  255MOL0     H33606   2.924   3.127   8.720  2.5869  1.0363 -1.4587
  255MOL0     H33607   2.844   2.992   8.903 -0.7484 -3.0318  3.1588
  255MOL0     H33608   2.947   2.860   8.850  0.4465  0.1249 -2.4678
  255MOL0     H33609   2.702   2.983   8.701 -0.8442  1.0415  0.7024
  255MOL0     H33610   2.794   2.843   8.641 -3.1835  0.5047 -1.7742
  255MOL0     H33611   2.738   2.723   8.852 -1.1984 -2.4737 -1.5535
  255MOL0     H33612   2.612   2.734   8.726  1.5835  0.6421 -0.5257
  255MOL0     H33613   2.403   2.902   8.822 -2.2885  1.3428  0.5805
  255MOL0     H33614   2.233   2.977   9.035  0.7193 -0.6621 -1.3874
  255MOL0     H33615   2.309   2.968   9.196 -1.2290 -1.2455  0.2480
  255MOL0     H33616   2.253   2.726   9.204  0.8113  0.1570  0.7137
  255MOL0     H33617   2.146   2.750   9.070  2.0703  1.6687 -1.9315
  255MOL0     H33618   2.118   2.844   9.356 -2.1187 -0.7511  1.4023
  255MOL0     H33619   2.070   2.970   9.252  1.2698 -0.6072  3.5313
  255MOL0     H33620   1.960   2.693   9.239  0.2473  0.9646  0.9387
  255MOL0     H33621   1.906   2.832   9.146 -1.3952 -2.3179 -1.5683
  255MOL0     H33622   1.675   2.855   9.553 -0.2582 -0.8433  0.1501
  255MOL0     H33623   1.460   2.772   9.552 -0.0509  0.6325  0.2554
  255MOL0     H33624   1.140   2.390   9.569 -0.5748 -0.3614 -1.8310
  255MOL0     H33625   0.886   2.357   9.554  1.5661  0.4312  0.2839
  255MOL0     H33626   0.652   2.612   9.287  2.5892 -2.8209  1.4636
  255MOL0     H33627   0.596   2.711   9.426 -2.0340 -0.9858  3.1415
  255MOL0     H33628   0.494   2.432   9.347  0.2495 -0.5644  1.7549
  255MOL0     H33629   0.416   2.592   9.314  0.5116 -0.0133 -0.9052
  255MOL0     H33630   0.352   2.634   9.551  0.1486  0.3932 -0.1862
  255MOL0     H33631   0.468   2.499   9.599  0.3348 -0.8331 -0.7448
  255MOL0     H33632   0.205   2.479   9.433 -1.3103 -0.5492  1.1878
  255MOL0     H33633   0.311   2.343   9.480 -0.4554 -0.8423  3.1812
  255MOL0     H33634   0.173   2.515   9.679  1.2303 -0.4362  1.3756
  255MOL0     H33635   0.284   2.378   9.714 -0.5091 -0.1807  0.5967
  255MOL0     H33636   0.037   2.306   9.743  0.5761 -4.3758  0.0940
  255MOL0     H33637   0.125   2.220   9.625  0.4896 -0.2715  2.1445
  255MOL0     H33638   0.021   2.336   9.443 -0.4364 -1.4354 -1.1620
  255MOL0     H33639  -0.089   2.252   9.542  0.0546  0.3687  1.5076
  255MOL0     H33640  -0.183   2.464   9.485 -0.6218 -3.0304  1.0455
  255MOL0     H33641  -0.039   2.558   9.543  0.9211 -0.4611 -0.9594
  255MOL0     H33642   0.848   2.746   9.372  1.4477 -0.1515 -0.8073
  255MOL0     H33643   1.089   2.774   9.392  1.7874 -1.7629 -1.3277
  255MOL0     H33644   1.531   2.573   9.169  0.6546 -3.4512  1.1227
  255MOL0     H33645   1.756   2.656   9.178 -2.0414 -1.6171 -0.6874
  255MOL0     H33646   3.397   3.000   9.264 -0.1718  0.2077  1.6743
  255MOL0     H33647   3.562   2.926   9.414  1.3667 -0.0595  0.4202
  255MOL0     H33648   3.877   2.775   9.747  1.3380 -0.4838  0.3733
  255MOL0     H33649   4.105   2.727   9.837  0.4399 -0.1984  0.4395
  255MOL0     H33650   4.529   2.852   9.759  0.6965  1.1617  0.8827
  255MOL0     H33651   4.444   2.978   9.667  0.8013  1.1070  1.6317
  255MOL0     H33652   4.418   2.683   9.613 -0.5409  0.2362  0.2877
  255MOL0     H33653   4.339   2.806   9.512 -1.1266 -0.7343  0.5082
  255MOL0     H33654   4.519   2.725   9.390  2.0950 -1.3159  0.8747
  255MOL0     H33655   4.627   2.742   9.524 -1.9491 -0.9065  1.0764
  255MOL0     H33656   4.460   2.984   9.425 -1.3570 -0.9425 -0.2958
  255MOL0     H33657   4.632   2.987   9.493  1.6268  1.5489 -4.2829
  255MOL0     H33658   4.735   2.925   9.113  1.9072 -1.5397  2.0594
  255MOL0     H33659   4.262   3.068   9.605 -1.4936  1.3411 -0.9411
  255MOL0     H33660   4.051   3.086   9.501 -0.8457 -0.8626 -1.7220
  256MOL0     O33661  10.931   3.079   4.133  0.1616  0.1643  0.2222
  256MOL0     C33662  10.989   3.067   4.027  0.5464  0.2233 -0.3297
  256MOL0     O33663  10.930   3.093   3.910 -0.7329 -0.5675 -0.1849
  256MOL0     C33664  10.791   3.112   3.908  0.9315 -0.5154 -0.6182
  256MOL0     C33665  10.747   3.216   3.831  0.4329  0.0572  0.0043
  256MOL0     C33666  10.607   3.261   3.825 -0.2505  0.1426 -1.0374
  256MOL0     C33667  10.510   3.171   3.879  0.5492  0.0587  0.3328
  256MOL0     O33668  10.369   3.184   3.877 -0.0510  0.1026  0.0532
  256MOL0     C33669  10.315   3.289   3.803  0.8656 -0.2261 -0.1697
  256MOL0     C33670  10.162   3.297   3.824 -0.0620 -0.4458  0.7575
  256MOL0     C33671  10.088   3.409   3.749 -0.3219 -0.3880 -0.4515
  256MOL0     C33672   9.941   3.411   3.795  0.0417  0.3259  0.3857
  256MOL0     C33673   9.872   3.520   3.710  0.0487  0.2117 -0.0498
  256MOL0     C33674   9.721   3.513   3.722 -0.9941 -0.2075  0.2648
  256MOL0     C33675   9.679   3.532   3.868  0.7436  0.6563  0.2678
  256MOL0     C33676   9.535   3.534   3.895  1.1775  0.2481  0.3012
  256MOL0     N33677   9.500   3.516   4.040  0.2457 -0.1715  0.1206
  256MOL0     C33678   9.504   3.618   4.133 -0.1045  0.0282  0.3496
  256MOL0     C33679   9.506   3.549   4.253  0.4223 -0.3782  0.5890
  256MOL0     C33680   9.535   3.605   4.391  0.5569  1.0758 -0.9582
  256MOL0     C33681   9.661   3.548   4.447 -0.7048  0.4771  0.4104
  256MOL0     C33682   9.693   3.580   4.588  0.2739 -1.6515 -1.4013
  256MOL0     C33683   9.805   3.495   4.653 -0.0947 -0.5548  0.0254
  256MOL0     O33684   9.932   3.519   4.598 -0.1065 -0.4711  0.2534
  256MOL0     C33685  10.046   3.490   4.660 -0.6347  0.5160  0.8352
  256MOL0     C33686  10.059   3.416   4.776 -0.3984 -1.1818 -0.3553
  256MOL0     C33687  10.189   3.377   4.817  0.2015 -0.4238  0.1218
  256MOL0     C33688  10.301   3.419   4.747  0.7974  0.0831  0.4492
  256MOL0     C33689  10.433   3.371   4.780 -0.2843  0.0753  0.0436
  256MOL0     O33690  10.515   3.388   4.674  0.1427 -0.3665 -0.0112
  256MOL0     C33691  10.644   3.333   4.681  0.0633  0.2519 -0.3970
  256MOL0     C33692  10.694   3.215   4.736  0.6323  0.2491 -0.5177
  256MOL0     C33693  10.821   3.161   4.700  0.6867 -0.3712 -0.9429
  256MOL0     C33694  10.897   3.225   4.606  0.1035 -0.3262 -0.1631
  256MOL0     O33695  11.010   3.192   4.538  0.0249  0.5179 -0.4654
  256MOL0     C33696  11.114   3.110   4.594  0.0788 -0.1002 -0.1560
  256MOL0     C33697  11.247   3.137   4.531 -0.2219  0.9391  0.5306
  256MOL0     C33698  11.337   3.061   4.621 -0.4502 -0.7975  0.1910
  256MOL0     C33699  11.486   3.119   4.596 -0.5753 -0.1693  0.1138
  256MOL0     C33700  11.585   3.055   4.697  0.7560  0.5749 -0.3173
  256MOL0     C33701  11.727   3.080   4.674  1.0011  0.2899  0.1338
  256MOL0     C33702  11.806   2.969   4.603  0.0286 -0.1028 -0.3393
  256MOL0     C33703  11.841   2.858   4.703 -0.2546 -1.2797  0.1220
  256MOL0    Cl33704  11.955   2.747   4.614 -0.0610 -0.0284 -0.1692
  256MOL0     C33705  10.848   3.348   4.554  0.1845 -0.0107  0.6546
  256MOL0     C33706  10.730   3.400   4.595  0.6600 -0.4421  0.3209
  256MOL0     O33707  10.464   3.328   4.891 -0.6115  0.1664  0.3590
  256MOL0     C33708  10.283   3.505   4.641 -0.1138  0.0774  0.0942
  256MOL0     C33709  10.160   3.535   4.592  0.1557 -0.0338 -0.5536
  256MOL0     N33710   9.501   3.414   4.223 -0.0366 -0.0998  0.6914
  256MOL0     N33711   9.510   3.391   4.097  0.0445  0.0983 -0.1349
  256MOL0     C33712  10.561   3.058   3.950 -0.5644 -0.2047 -0.6688
  256MOL0     C33713  10.694   3.028   3.975  0.0398 -0.0480  0.5500
  256MOL0     C33714  11.130   3.040   4.035 -1.0021 -0.3476 -0.3435
  256MOL0     C33715  11.212   3.044   3.925  0.5344 -0.0917 -0.1965
  256MOL0     C33716  11.353   3.023   3.946  0.0332 -0.1735  0.3556
  256MOL0     C33717  11.409   2.989   4.066  0.1485  0.2167  0.2471
  256MOL0     O33718  11.550   2.980   4.074 -0.5897 -1.0216  0.1364
  256MOL0     C33719  11.614   2.919   4.189  0.8157 -0.0699 -0.7839
  256MOL0     C33720  11.571   2.764   4.199  0.4094 -0.7520 -0.4722
  256MOL0     C33721  11.605   2.702   4.333  0.0537 -0.4414  0.2936
  256MOL0     C33722  11.496   2.736   4.437  0.2685  0.3862  0.0475
  256MOL0     C33723  11.531   2.671   4.567  0.1140  0.2377  0.0858
  256MOL0     C33724  11.559   2.614   4.669 -0.1907  0.2113 -0.0336
  256MOL0     C33725  11.320   2.972   4.176 -0.5520  0.7281 -0.1396
  256MOL0     C33726  11.189   2.993   4.157 -0.3239 -1.3280  0.7368
  256MOL0     H33727  10.828   3.272   3.785  1.2703 -2.1500 -1.3482
  256MOL0     H33728  10.586   3.354   3.772  0.3476  0.7133 -0.3041
  256MOL0     H33729  10.349   3.274   3.700  1.8791  1.1123 -0.0523
  256MOL0     H33730  10.354   3.387   3.830  0.4215 -0.5607  1.8989
  256MOL0     H33731  10.140   3.315   3.929 -0.7714  2.7150  0.1697
  256MOL0     H33732  10.118   3.200   3.796  0.7098 -1.2737  2.3337
  256MOL0     H33733  10.093   3.405   3.640 -1.6792  2.5738 -0.7323
  256MOL0     H33734  10.142   3.498   3.782  0.4128 -1.3204  0.9395
  256MOL0     H33735   9.896   3.312   3.784 -3.5930  1.7572  0.9647
  256MOL0     H33736   9.928   3.437   3.901 -1.0853  0.3971  0.2431
  256MOL0     H33737   9.892   3.481   3.610 -2.5337 -0.5269 -0.3586
  256MOL0     H33738   9.914   3.619   3.728 -0.0063  0.2679 -0.2307
  256MOL0     H33739   9.681   3.422   3.676  1.3964 -0.7565 -0.9102
  256MOL0     H33740   9.687   3.604   3.672  0.5164 -0.3942 -1.1806
  256MOL0     H33741   9.708   3.445   3.928  1.3579 -2.1026 -3.6602
  256MOL0     H33742   9.727   3.626   3.898  0.4191  1.5100 -1.7652
  256MOL0     H33743   9.487   3.452   3.841  0.8470  0.8847 -0.3999
  256MOL0     H33744   9.477   3.620   3.859 -1.3102 -0.8377  1.4789
  256MOL0     H33745   9.519   3.725   4.118  0.2965  0.0608  0.9558
  256MOL0     H33746   9.457   3.567   4.458  1.0734 -0.9808 -1.4449
  256MOL0     H33747   9.537   3.714   4.399  2.2736  0.9339  2.2848
  256MOL0     H33748   9.744   3.590   4.389 -0.8131 -0.1881 -0.2379
  256MOL0     H33749   9.673   3.440   4.435 -1.1327  0.5315 -0.6097
  256MOL0     H33750   9.715   3.687   4.590 -0.0742 -1.5541  1.3730
  256MOL0     H33751   9.604   3.562   4.649  1.7988  0.1789  1.6055
  256MOL0     H33752   9.777   3.389   4.657 -1.5307 -0.1701  0.8209
  256MOL0     H33753   9.811   3.526   4.757 -0.1728  2.3358 -0.7468
  256MOL0     H33754   9.973   3.389   4.837  0.6219  0.4008  1.8961
  256MOL0     H33755  10.187   3.314   4.906 -2.3335 -0.2288  0.2633
  256MOL0     H33756  10.628   3.165   4.806 -1.8246  3.8535 -0.0199
  256MOL0     H33757  10.845   3.065   4.744  0.5265 -0.0213 -0.0829
  256MOL0     H33758  11.088   3.004   4.585 -1.6590  0.0416  2.1235
  256MOL0     H33759  11.106   3.131   4.701  0.4852 -1.4269  0.1458
  256MOL0     H33760  11.281   3.240   4.518 -0.3815  0.8288 -0.8569
  256MOL0     H33761  11.239   3.087   4.434  0.9698 -0.4047  1.0853
  256MOL0     H33762  11.353   2.956   4.593  1.3073 -0.6584  0.5137
  256MOL0     H33763  11.316   3.073   4.727  0.0391  0.2393  0.1849
  256MOL0     H33764  11.518   3.096   4.494  0.4757 -0.9002  0.5955
  256MOL0     H33765  11.475   3.225   4.620 -3.0385 -0.0607 -1.1052
  256MOL0     H33766  11.563   2.948   4.696  1.9982  0.3048 -0.8949
  256MOL0     H33767  11.560   3.090   4.797  1.2855  1.2779 -0.4281
  256MOL0     H33768  11.773   3.106   4.770  1.3520 -5.1379  1.8033
  256MOL0     H33769  11.735   3.161   4.602 -0.6832  0.0432 -0.3716
  256MOL0     H33770  11.742   2.922   4.528  0.5397 -0.1377 -0.7613
  256MOL0     H33771  11.896   3.007   4.553 -0.3696  0.0709 -0.9251
  256MOL0     H33772  11.747   2.811   4.732 -1.4925 -1.0028 -3.0391
  256MOL0     H33773  11.882   2.894   4.797 -2.4512 -1.1168  1.0752
  256MOL0     H33774  10.896   3.404   4.475 -0.8236  1.0563  0.7662
  256MOL0     H33775  10.701   3.489   4.541  0.7219  0.1115  1.1887
  256MOL0     H33776  10.363   3.535   4.573 -1.0474  2.2189 -0.1383
  256MOL0     H33777  10.147   3.605   4.510  1.0366  3.0601  1.7742
  256MOL0     H33778  10.483   3.009   4.006 -0.0880 -1.0920 -0.7687
  256MOL0     H33779  10.725   2.933   4.018  2.6014 -1.2403 -3.3816
  256MOL0     H33780  11.183   3.064   3.822 -3.4637 -4.3886 -0.2491
  256MOL0     H33781  11.416   3.041   3.859 -0.2602 -2.4376 -0.4111
  256MOL0     H33782  11.580   2.974   4.277  0.2620 -0.4390 -0.7590
  256MOL0     H33783  11.723   2.926   4.192  0.8020 -0.1380  1.1622
  256MOL0     H33784  11.467   2.738   4.177 -0.8122 -1.2125  4.7258
  256MOL0     H33785  11.632   2.712   4.124  2.3781  2.6567 -1.4675
  256MOL0     H33786  11.701   2.747   4.359  0.3675 -0.5236 -0.6945
  256MOL0     H33787  11.604   2.593   4.323 -0.7506 -0.2232 -4.7247
  256MOL0     H33788  11.495   2.845   4.448  1.0972  0.7005 -2.3369
  256MOL0     H33789  11.399   2.700   4.401  0.1093 -0.5423  1.3257
  256MOL0     H33790  11.584   2.553   4.753  0.0528  0.4323  0.0523
  256MOL0     H33791  11.371   2.974   4.272 -2.0825  2.3890  0.7024
  256MOL0     H33792  11.126   2.987   4.245 -0.9111 -0.3261  0.4012
  257MOL0     O33793   3.705   1.578   8.125  0.0725 -0.2822  0.3257
  257MOL0     C33794   3.689   1.646   8.027  0.0033 -0.6588 -0.5888
  257MOL0     O33795   3.572   1.692   7.985 -0.4875 -0.4844  0.4782
  257MOL0     C33796   3.459   1.643   8.053  0.1934  0.0225 -0.8910
  257MOL0     C33797   3.438   1.507   8.073 -0.0920 -0.3117  0.1316
  257MOL0     C33798   3.320   1.461   8.134  0.5024  0.2457 -0.1136
  257MOL0     C33799   3.220   1.549   8.175 -0.0726  0.5293  0.1991
  257MOL0     O33800   3.099   1.498   8.214  0.1914  0.6134  0.5580
  257MOL0     C33801   3.016   1.565   8.303 -0.9284 -0.9003  0.1612
  257MOL0     C33802   2.901   1.478   8.355 -0.7583 -0.0868  1.3591
  257MOL0     C33803   2.819   1.549   8.458 -0.3258 -0.2313  0.4847
  257MOL0     C33804   2.739   1.449   8.539  1.0095  0.6091  0.1964
  257MOL0     C33805   2.629   1.364   8.462 -0.6685 -0.4143  0.4775
  257MOL0     C33806   2.524   1.458   8.408  0.1919  0.6084 -0.5087
  257MOL0     C33807   2.391   1.392   8.406 -0.3165 -0.0278 -0.2520
  257MOL0     C33808   2.401   1.249   8.347 -0.0085  0.8442 -0.7909
  257MOL0     N33809   2.278   1.193   8.298 -0.6771 -0.2755  0.3676
  257MOL0     C33810   2.164   1.202   8.370  0.1268 -0.3849  0.0546
  257MOL0     C33811   2.073   1.128   8.303  0.0382 -0.1421 -0.3802
  257MOL0     C33812   1.934   1.103   8.351  0.0095  0.0064 -0.3681
  257MOL0     C33813   1.852   1.014   8.257 -0.4770  0.1143  0.4911
  257MOL0     C33814   1.736   0.967   8.343 -0.0954 -0.1552 -0.2490
  257MOL0     C33815   1.598   0.988   8.279  0.4622 -0.0726 -0.1649
  257MOL0     O33816   1.563   1.131   8.273  0.5635  0.2261 -0.7183
  257MOL0     C33817   1.429   1.162   8.249  0.3087 -0.5626  0.4351
  257MOL0     C33818   1.391   1.297   8.254 -0.5343 -0.5487  0.6222
  257MOL0     C33819   1.270   1.344   8.213  0.0266 -0.1738  0.6672
  257MOL0     C33820   1.173   1.259   8.155  0.2875  0.7042  0.0598
  257MOL0     C33821   1.030   1.302   8.121 -0.3894  0.1013 -0.5445
  257MOL0     O33822   0.947   1.203   8.103  0.3137  0.0494  0.2300
  257MOL0     C33823   0.807   1.218   8.102 -0.3951  0.0423  0.1444
  257MOL0     C33824   0.744   1.308   8.193  0.7453 -0.1393  0.1341
  257MOL0     C33825   0.602   1.307   8.191 -0.0110 -0.5715  0.0452
  257MOL0     C33826   0.525   1.224   8.110  0.7152 -0.7021  0.0714
  257MOL0     O33827   0.392   1.268   8.111 -0.4944  0.1094 -0.1331
  257MOL0     C33828   0.295   1.193   8.036 -0.2257 -0.4284  0.4218
  257MOL0     C33829   0.160   1.244   8.093  0.3816 -0.7507 -0.0507
  257MOL0     C33830   0.029   1.193   8.035  0.8386  0.5369  0.2551
  257MOL0     C33831  -0.090   1.260   8.105 -0.1116 -0.3494  0.5790
  257MOL0     C33832  -0.210   1.167   8.088 -0.0006  0.1809  0.3097
  257MOL0     C33833  -0.340   1.238   8.133  0.5103 -1.1602 -0.4717
  257MOL0     C33834  -0.459   1.143   8.122 -0.4246 -0.0673  0.7670
  257MOL0     C33835  -0.593   1.222   8.104  0.2878  0.0379 -0.0524
  257MOL0    Cl33836  -0.725   1.106   8.102  0.0960  0.4404  0.1876
  257MOL0     C33837   0.588   1.135   8.032  0.2935  0.3224  0.7648
  257MOL0     C33838   0.730   1.130   8.021 -0.1291 -0.7989 -0.5101
  257MOL0     O33839   1.009   1.425   8.118  0.2840 -0.4757 -0.2908
  257MOL0     C33840   1.208   1.122   8.136  0.7061 -0.9988  0.3572
  257MOL0     C33841   1.330   1.083   8.178  0.1839  0.0602  0.1597
  257MOL0     N33842   2.138   1.076   8.193  0.5978 -0.2692  0.4079
  257MOL0     N33843   2.265   1.108   8.193 -0.2120  0.8564  0.9643
  257MOL0     C33844   3.242   1.682   8.154 -0.9085  0.3656 -0.0347
  257MOL0     C33845   3.361   1.732   8.094  0.2750 -0.0194  0.0398
  257MOL0     C33846   3.813   1.680   7.969 -1.2631 -0.5984 -0.3574
  257MOL0     C33847   3.816   1.790   7.879 -0.4857  0.4021  1.0658
  257MOL0     C33848   3.928   1.828   7.807 -1.0644  0.3498  0.0199
  257MOL0     C33849   4.044   1.760   7.826  0.4200  0.2204 -0.0744
  257MOL0     O33850   4.161   1.784   7.772 -0.4398 -0.2971  0.3279
  257MOL0     C33851   4.163   1.817   7.635 -0.1335  0.3044 -0.1763
  257MOL0     C33852   4.213   1.955   7.621  0.0836 -0.5193 -0.3328
  257MOL0     C33853   4.153   2.068   7.710 -0.4618  0.7557 -0.0236
  257MOL0     C33854   4.242   2.187   7.716 -0.5823 -0.3056 -0.4613
  257MOL0     C33855   4.367   2.163   7.785 -0.4281 -0.5180 -0.1298
  257MOL0     C33856   4.468   2.129   7.844 -0.6311  0.3384  0.7501
  257MOL0     C33857   4.043   1.653   7.920 -0.0571 -0.7507  0.3319
  257MOL0     C33858   3.932   1.607   7.994 -0.3584  0.0524  0.7090
  257MOL0     H33859   3.504   1.432   8.031 -0.7672 -0.2635 -1.0549
  257MOL0     H33860   3.300   1.356   8.156  0.2372 -0.3769 -2.8912
  257MOL0     H33861   2.971   1.656   8.262 -2.3555 -0.8001  1.8298
  257MOL0     H33862   3.071   1.586   8.395 -0.4931  1.4120 -0.5600
  257MOL0     H33863   2.939   1.381   8.388  0.0136 -0.2478  0.0635
  257MOL0     H33864   2.828   1.461   8.274  0.8763 -2.7013  0.3039
  257MOL0     H33865   2.755   1.626   8.414 -0.4241  0.3518  1.6047
  257MOL0     H33866   2.888   1.596   8.530  1.5529  1.4343 -2.1874
  257MOL0     H33867   2.800   1.371   8.585  1.9390  0.8871 -0.5436
  257MOL0     H33868   2.689   1.507   8.617  1.6241  0.5417  0.6433
  257MOL0     H33869   2.578   1.301   8.536  0.4323 -1.7526  0.1560
  257MOL0     H33870   2.679   1.303   8.385 -1.4476 -0.3484 -0.0921
  257MOL0     H33871   2.540   1.492   8.305  3.2895  0.7855 -0.0841
  257MOL0     H33872   2.523   1.551   8.464 -0.1946  0.2969  0.0042
  257MOL0     H33873   2.353   1.378   8.507  1.9039 -0.2684  0.6048
  257MOL0     H33874   2.322   1.449   8.344  0.8634  1.3342 -0.3712
  257MOL0     H33875   2.429   1.176   8.423 -0.0420  0.1209 -1.4512
  257MOL0     H33876   2.465   1.260   8.259 -1.0616 -0.5009 -1.7802
  257MOL0     H33877   2.152   1.264   8.458 -3.3627  0.7840 -1.0851
  257MOL0     H33878   1.890   1.201   8.370  1.1103  0.3889  0.2992
  257MOL0     H33879   1.939   1.054   8.449  0.6320 -0.6601 -0.7194
  257MOL0     H33880   1.909   0.926   8.226 -1.5088 -0.7580  1.0028
  257MOL0     H33881   1.819   1.063   8.165 -0.2307 -0.7022 -0.0438
  257MOL0     H33882   1.740   0.858   8.356 -0.0114  0.0690  1.9588
  257MOL0     H33883   1.734   1.018   8.440 -2.3182 -1.1971  0.3296
  257MOL0     H33884   1.522   0.939   8.341  0.3636  1.2747  0.8373
  257MOL0     H33885   1.601   0.948   8.178  1.8550 -0.5960  0.0674
  257MOL0     H33886   1.465   1.371   8.281  1.5528 -0.2205 -4.7141
  257MOL0     H33887   1.254   1.451   8.217  2.9047  0.4098 -0.6592
  257MOL0     H33888   0.794   1.382   8.254 -2.6015  1.6412  0.9888
  257MOL0     H33889   0.552   1.379   8.255 -1.1889 -1.5079  0.2312
  257MOL0     H33890   0.326   1.089   8.054 -0.3752 -0.2889  1.5413
  257MOL0     H33891   0.318   1.218   7.932 -2.5739 -0.9304 -0.2646
  257MOL0     H33892   0.149   1.353   8.093  2.6521 -0.4751  0.3838
  257MOL0     H33893   0.154   1.225   8.201  0.6881  2.0271  0.5213
  257MOL0     H33894   0.029   1.085   8.054 -0.7339  0.1595 -1.6316
  257MOL0     H33895   0.028   1.202   7.926 -0.2932 -0.2887  0.1810
  257MOL0     H33896  -0.074   1.272   8.213 -0.9783 -1.3150  0.8283
  257MOL0     H33897  -0.096   1.359   8.060 -0.7939 -0.9021 -0.5770
  257MOL0     H33898  -0.204   1.071   8.141  1.0196  0.4182  0.6558
  257MOL0     H33899  -0.225   1.140   7.983  1.5795 -3.1622  0.7955
  257MOL0     H33900  -0.365   1.328   8.076 -0.9487 -0.1796  1.6074
  257MOL0     H33901  -0.329   1.267   8.237  0.7253  0.0081 -0.8067
  257MOL0     H33902  -0.448   1.066   8.045 -2.9644 -1.3392  1.5509
  257MOL0     H33903  -0.456   1.094   8.219 -0.0405 -0.5460  0.5137
  257MOL0     H33904  -0.585   1.282   8.012  3.5639 -1.2642 -0.7584
  257MOL0     H33905  -0.605   1.294   8.186 -0.9928  0.4071 -0.5392
  257MOL0     H33906   0.533   1.068   7.966 -0.5311  2.6587 -1.0601
  257MOL0     H33907   0.785   1.062   7.957  2.1334  2.4270 -2.2724
  257MOL0     H33908   1.137   1.049   8.099 -0.5588 -0.2972  1.3066
  257MOL0     H33909   1.358   0.978   8.172  0.3070 -0.1149  2.8239
  257MOL0     H33910   3.170   1.756   8.185 -1.9064 -0.7742  0.4546
  257MOL0     H33911   3.386   1.835   8.073  1.5080 -0.1265  0.8455
  257MOL0     H33912   3.724   1.846   7.862  0.6052  1.9550  0.0093
  257MOL0     H33913   3.923   1.918   7.746 -3.6014  1.9375  2.3167
  257MOL0     H33914   4.062   1.819   7.593 -0.2609 -0.9702  0.0146
  257MOL0     H33915   4.217   1.745   7.572 -0.1797  1.6759 -1.8551
  257MOL0     H33916   4.318   1.941   7.646 -0.7994 -1.7929  3.3227
  257MOL0     H33917   4.204   1.992   7.518 -0.5016  0.1197 -0.0636
  257MOL0     H33918   4.146   2.028   7.812  1.8404  0.1407 -0.0366
  257MOL0     H33919   4.050   2.093   7.683 -0.2506 -0.2703 -1.9758
  257MOL0     H33920   4.266   2.223   7.615 -0.3919  0.2877 -0.2102
  257MOL0     H33921   4.182   2.267   7.761 -2.2868 -1.3768 -0.7249
  257MOL0     H33922   4.555   2.096   7.897 -1.0290 -1.6885  0.2327
  257MOL0     H33923   4.139   1.606   7.937 -0.0983 -1.5140 -1.4208
  257MOL0     H33924   3.947   1.521   8.058  2.0951 -0.1366 -0.0194
  258MOL0     O33925  11.164   3.093   9.309 -0.0031  0.0924  0.2153
  258MOL0     C33926  11.174   3.114   9.193 -0.3669  0.4648  0.2423
  258MOL0     O33927  11.080   3.085   9.095 -0.6230 -0.1933  0.1724
  258MOL0     C33928  10.962   3.024   9.137 -0.6780  0.4418 -1.0536
  258MOL0     C33929  10.941   2.887   9.093  0.0199  0.5964  0.8668
  258MOL0     C33930  10.823   2.825   9.126  0.5723 -0.7563  0.7134
  258MOL0     C33931  10.734   2.888   9.204  0.7541 -0.0445 -0.3878
  258MOL0     O33932  10.612   2.817   9.227  0.8589  0.6291 -0.1948
  258MOL0     C33933  10.510   2.860   9.322  0.3425  0.2237 -0.4941
  258MOL0     C33934  10.394   2.758   9.317  0.6213 -0.8598 -0.9884
  258MOL0     C33935  10.259   2.804   9.386  0.6822 -0.0005 -0.0716
  258MOL0     C33936  10.271   2.853   9.531  0.0248 -0.7325 -0.1152
  258MOL0     C33937  10.134   2.899   9.592  0.8793  0.8492  0.3599
  258MOL0     C33938  10.112   3.044   9.597 -0.6723 -0.6104 -0.1175
  258MOL0     C33939   9.987   3.098   9.660  0.3479 -0.6344 -0.3254
  258MOL0     C33940   9.871   3.055   9.581 -0.2440  0.3544  0.2240
  258MOL0     N33941   9.752   3.137   9.617 -0.6297  0.3030 -0.9109
  258MOL0     C33942   9.669   3.113   9.721  0.4033  0.5755  0.4118
  258MOL0     C33943   9.590   3.221   9.740  0.3068  0.6315  1.0460
  258MOL0     C33944   9.508   3.241   9.859 -0.2264 -0.7613  0.1242
  258MOL0     C33945   9.358   3.237   9.842  0.3681  1.0468  0.2820
  258MOL0     C33946   9.286   3.205   9.966 -0.9036 -0.4062 -0.4127
  258MOL0     C33947   9.141   3.178   9.920 -0.3764 -0.4489  0.5530
  258MOL0     O33948   9.062   3.237  10.019  0.7311 -0.0517 -0.0109
  258MOL0     C33949   8.920   3.222  10.004  0.2187 -0.5049  0.3456
  258MOL0     C33950   8.855   3.173   9.898  0.1776  0.0970 -0.2620
  258MOL0     C33951   8.714   3.159   9.897 -0.4859 -0.6403 -0.4368
  258MOL0     C33952   8.638   3.209  10.000  0.1697 -0.6523 -0.2225
  258MOL0     C33953   8.490   3.213  10.001 -0.2708 -0.5562 -0.2195
  258MOL0     O33954   8.427   3.150   9.904  0.1579  0.4453  0.5907
  258MOL0     C33955   8.293   3.171   9.883 -0.3925  0.2322 -0.0581
  258MOL0     C33956   8.251   3.224   9.762  0.4795  0.2709 -0.4939
  258MOL0     C33957   8.115   3.235   9.744  0.2257  0.1611 -0.4411
  258MOL0     C33958   8.017   3.206   9.844 -0.2498 -0.3003 -0.1994
  258MOL0     O33959   7.891   3.220   9.821  0.4932 -0.2462 -0.0486
  258MOL0     C33960   7.852   3.308   9.720  0.2708  0.3171  0.7358
  258MOL0     C33961   7.718   3.350   9.749  0.4702 -0.3272 -0.7410
  258MOL0     C33962   7.612   3.237   9.755 -0.0194  0.0567  0.3189
  258MOL0     C33963   7.470   3.294   9.785 -0.3111  0.2981 -0.2872
  258MOL0     C33964   7.350   3.199   9.785 -0.6223 -0.2498  0.7000
  258MOL0     C33965   7.359   3.125   9.923 -0.4604 -0.3281  0.0639
  258MOL0     C33966   7.249   3.018   9.940  0.4342  0.3738  1.2760
  258MOL0     C33967   7.275   2.874   9.901  0.5690  0.1737 -0.1728
  258MOL0    Cl33968   7.254   2.876   9.723 -0.0388 -0.0085  0.1207
  258MOL0     C33969   8.068   3.149   9.962  0.2420 -0.0402 -0.3201
  258MOL0     C33970   8.202   3.118   9.978  0.1096  0.0427 -0.5046
  258MOL0     O33971   8.437   3.280  10.089  0.8018 -0.3091 -0.0184
  258MOL0     C33972   8.707   3.263  10.112  0.5019 -0.9235 -0.4073
  258MOL0     C33973   8.850   3.259  10.118  0.6478  0.1284 -0.4691
  258MOL0     N33974   9.639   3.314   9.658  0.3689 -0.3420 -0.2292
  258MOL0     N33975   9.717   3.263   9.575  0.0749  0.1772 -0.0435
  258MOL0     C33976  10.753   3.016   9.258 -0.2172 -0.1082 -0.0009
  258MOL0     C33977  10.871   3.085   9.225  0.7364  0.4536 -0.9992
  258MOL0     C33978  11.293   3.193   9.162  0.2655 -0.3018  0.6640
  258MOL0     C33979  11.334   3.235   9.034  0.2494 -0.4283 -0.0951
  258MOL0     C33980  11.456   3.301   9.009 -0.3197 -0.9298 -0.4949
  258MOL0     C33981  11.545   3.338   9.113  0.1846  0.2940 -0.2005
  258MOL0     O33982  11.648   3.421   9.071 -0.2308 -0.5715 -0.1161
  258MOL0     C33983  11.744   3.467   9.177 -0.0835  0.3188  0.6309
  258MOL0     C33984  11.795   3.604   9.131 -0.1863  0.1881  0.4186
  258MOL0     C33985  11.855   3.675   9.254 -0.0261  0.0718  0.2655
  258MOL0     C33986  11.998   3.739   9.231 -0.0725  0.4030  0.4349
  258MOL0     C33987  12.095   3.631   9.215  0.8295 -0.3417  0.8393
  258MOL0     C33988  12.185   3.552   9.214  0.3956  0.2783 -0.1295
  258MOL0     C33989  11.511   3.294   9.245 -0.3669  0.2291 -0.0538
  258MOL0     C33990  11.387   3.221   9.269 -0.3495  0.0208  0.8539
  258MOL0     H33991  11.019   2.837   9.037  1.2804  2.4319  0.9101
  258MOL0     H33992  10.812   2.729   9.076 -0.1902 -0.6688  0.7014
  258MOL0     H33993  10.484   2.963   9.295  2.8576  0.4980 -2.2503
  258MOL0     H33994  10.557   2.862   9.420 -0.2233  0.0827 -0.2133
  258MOL0     H33995  10.444   2.672   9.362  3.5062  0.6902 -0.9662
  258MOL0     H33996  10.372   2.738   9.212  2.2978  1.9274 -2.0044
  258MOL0     H33997  10.194   2.716   9.380 -0.3450  0.5584  1.9714
  258MOL0     H33998  10.213   2.878   9.320 -2.1280  0.3561  2.0823
  258MOL0     H33999  10.296   2.765   9.591  0.5323 -1.2440 -1.0473
  258MOL0     H34000  10.348   2.930   9.536 -0.6462 -0.0118 -0.7021
  258MOL0     H34001  10.127   2.871   9.698  0.1221  0.1781  0.1404
  258MOL0     H34002  10.048   2.849   9.547 -0.7519  1.4686  2.6180
  258MOL0     H34003  10.113   3.083   9.495  2.8987 -1.2837 -0.4748
  258MOL0     H34004  10.197   3.096   9.644 -2.0657  1.7892 -0.0788
  258MOL0     H34005   9.975   3.073   9.765  0.4443  2.8977  0.6396
  258MOL0     H34006   9.989   3.207   9.667  0.2799 -0.7614  3.4981
  258MOL0     H34007   9.846   2.950   9.596 -0.8500  0.2632 -1.2637
  258MOL0     H34008   9.890   3.069   9.474 -1.1732 -1.3377 -0.1899
  258MOL0     H34009   9.659   3.015   9.768 -1.2892  1.2027  1.4526
  258MOL0     H34010   9.545   3.334   9.904  1.1563  0.2202 -2.7777
  258MOL0     H34011   9.530   3.152   9.919 -1.0203 -0.0416  1.5179
  258MOL0     H34012   9.321   3.167   9.767  0.4410  0.2915  0.9365
  258MOL0     H34013   9.335   3.338   9.807 -0.5884  0.7968  0.1376
  258MOL0     H34014   9.330   3.118  10.016  0.1427 -0.1308 -0.8286
  258MOL0     H34015   9.288   3.289  10.036 -1.2697  1.6532 -2.7267
  258MOL0     H34016   9.127   3.070   9.911  3.0271 -1.0329  0.8859
  258MOL0     H34017   9.129   3.221   9.821  4.2233  1.5299  0.5908
  258MOL0     H34018   8.902   3.127   9.811  1.7778 -1.4471  1.3324
  258MOL0     H34019   8.676   3.109   9.808  0.7064 -2.4957  0.0397
  258MOL0     H34020   8.317   3.248   9.679 -1.5434  4.3201 -1.1926
  258MOL0     H34021   8.082   3.263   9.644  1.0256  2.2204 -0.1976
  258MOL0     H34022   7.853   3.256   9.623 -1.3128  0.6897  0.4925
  258MOL0     H34023   7.924   3.390   9.718 -1.4525  2.0411  3.4578
  258MOL0     H34024   7.702   3.440   9.688  1.4867  0.6464  0.3831
  258MOL0     H34025   7.718   3.389   9.851  0.9190 -1.4685 -0.2902
  258MOL0     H34026   7.641   3.170   9.836 -0.3662  0.5010  0.8195
  258MOL0     H34027   7.603   3.183   9.661  3.5993  0.3283 -0.2953
  258MOL0     H34028   7.469   3.344   9.882 -1.9988 -2.5092  1.2728
  258MOL0     H34029   7.451   3.374   9.712 -0.7339  0.3347 -0.1396
  258MOL0     H34030   7.377   3.120   9.714 -0.9359 -0.4066  0.7510
  258MOL0     H34031   7.256   3.254   9.773 -1.9499 -1.6611  3.4602
  258MOL0     H34032   7.345   3.199  10.003  2.4910 -1.4972  1.8095
  258MOL0     H34033   7.456   3.084   9.950 -1.0948 -1.1342  1.2292
  258MOL0     H34034   7.244   3.000  10.048  2.4710  0.7177  1.4685
  258MOL0     H34035   7.155   3.057   9.900  1.9461  1.8328 -1.1503
  258MOL0     H34036   7.205   2.806   9.950 -1.2341  0.8740 -1.6867
  258MOL0     H34037   7.378   2.845   9.924 -0.6833 -3.4666  1.6903
  258MOL0     H34038   7.995   3.111  10.033  1.3590 -0.3644  0.6832
  258MOL0     H34039   8.236   3.067  10.067 -2.4209  0.1873  0.6533
  258MOL0     H34040   8.648   3.321  10.181  0.3972 -0.9676 -0.4595
  258MOL0     H34041   8.918   3.303  10.190  2.4193 -2.5329 -0.3868
  258MOL0     H34042  10.685   3.058   9.332 -2.8943  0.6208 -2.7046
  258MOL0     H34043  10.878   3.182   9.272  1.1170  0.2855 -0.7004
  258MOL0     H34044  11.292   3.191   8.944  0.8047  1.5106 -1.3620
  258MOL0     H34045  11.484   3.321   8.906 -1.0212  1.3246 -0.3159
  258MOL0     H34046  11.827   3.397   9.187 -1.7563 -2.1070 -1.2533
  258MOL0     H34047  11.701   3.468   9.278 -0.4914 -2.2397  0.5470
  258MOL0     H34048  11.875   3.608   9.056  2.9186 -2.4028  3.2774
  258MOL0     H34049  11.710   3.658   9.087 -0.4448  0.4937  1.2737
  258MOL0     H34050  11.865   3.611   9.342  0.7138  3.1882  2.6238
  258MOL0     H34051  11.785   3.755   9.282  0.0143 -0.0610  0.7473
  258MOL0     H34052  12.004   3.812   9.149  2.7525 -1.6648 -1.3531
  258MOL0     H34053  12.019   3.793   9.323 -0.2491  0.1775  0.6081
  258MOL0     H34054  12.270   3.486   9.212 -0.5807 -1.2528  2.7971
  258MOL0     H34055  11.571   3.313   9.334 -0.8851  0.5217  0.2332
  258MOL0     H34056  11.379   3.188   9.372  5.9191 -5.2250  0.3274
  259MOL0     O34057  10.358   3.922  10.323  0.5380 -0.8447  0.0922
  259MOL0     C34058  10.440   4.007  10.298  0.3243  0.7975 -0.8650
  259MOL0     O34059  10.423   4.137  10.317 -0.0877  0.3420  1.0712
  259MOL0     C34060  10.299   4.187  10.322  0.6235  0.3743  1.1426
  259MOL0     C34061  10.278   4.295  10.403  0.4706 -0.1982 -0.3674
  259MOL0     C34062  10.146   4.344  10.424 -0.7740 -0.5919 -0.2986
  259MOL0     C34063  10.042   4.315  10.337  0.1277 -0.6710 -0.3199
  259MOL0     O34064   9.914   4.370  10.345 -0.3498 -0.5861 -0.0241
  259MOL0     C34065   9.879   4.470  10.444 -0.0401  0.8226 -0.1504
  259MOL0     C34066   9.734   4.499  10.476  0.4311 -0.5736  0.3958
  259MOL0     C34067   9.678   4.381  10.556 -1.0852  0.8906  0.3245
  259MOL0     C34068   9.535   4.380  10.582  0.4638  0.1512 -0.1662
  259MOL0     C34069   9.498   4.502  10.676 -0.4092  0.1308  0.7969
  259MOL0     C34070   9.360   4.489  10.737  0.2432  0.4315  0.2421
  259MOL0     C34071   9.250   4.522  10.635 -1.1030 -0.9725  1.0555
  259MOL0     C34072   9.240   4.669  10.587  0.2554 -0.5367  0.4591
  259MOL0     N34073   9.141   4.691  10.483 -0.2097 -0.3856  0.9309
  259MOL0     C34074   9.013   4.643  10.482  0.6195 -0.2829 -0.4687
  259MOL0     C34075   8.963   4.701  10.366  0.0098  0.9409 -0.3138
  259MOL0     C34076   8.821   4.677  10.326  0.3670 -0.3099 -0.0692
  259MOL0     C34077   8.784   4.675  10.180 -0.7062  0.4342  0.7824
  259MOL0     C34078   8.648   4.607  10.141  0.2216  0.0355 -0.1341
  259MOL0     C34079   8.522   4.690  10.191 -0.5211 -0.3320 -0.8563
  259MOL0     O34080   8.403   4.660  10.121 -0.4378  0.3259 -0.1357
  259MOL0     C34081   8.284   4.693  10.178  0.6997 -0.5309  0.3116
  259MOL0     C34082   8.187   4.598  10.214 -0.2567 -0.3071 -0.0849
  259MOL0     C34083   8.054   4.628  10.249 -0.6500  0.3428 -0.5991
  259MOL0     C34084   8.006   4.756  10.222  0.0051 -0.6098  0.3384
  259MOL0     C34085   7.865   4.796  10.228 -0.9693 -0.3356 -0.0021
  259MOL0     O34086   7.778   4.736  10.311  0.3649  0.1145 -0.6018
  259MOL0     C34087   7.649   4.782  10.324 -0.1090 -0.2253  0.4103
  259MOL0     C34088   7.550   4.742  10.242 -0.0254  0.3876  0.1743
  259MOL0     C34089   7.419   4.798  10.259 -0.7128  0.2420 -0.5534
  259MOL0     C34090   7.394   4.890  10.360  0.0821 -0.2524 -0.1075
  259MOL0     O34091   7.273   4.944  10.399 -0.5145 -0.0985  0.2726
  259MOL0     C34092   7.154   4.870  10.358 -0.3149 -0.0739 -0.4430
  259MOL0     C34093   7.044   4.909  10.466 -0.4922  0.2940 -0.9271
  259MOL0     C34094   6.992   5.051  10.443 -1.0336  0.1177 -0.6913
  259MOL0     C34095   6.931   5.103  10.567  0.2322  0.0280  0.3365
  259MOL0     C34096   6.871   5.239  10.560 -0.1762 -0.0776 -0.5811
  259MOL0     C34097   6.803   5.264  10.700 -0.6013  0.1017  0.0717
  259MOL0     C34098   6.727   5.393  10.693  0.5887  0.0083 -0.7124
  259MOL0     C34099   6.654   5.414  10.828  0.0246 -0.1266 -0.6845
  259MOL0    Cl34100   6.522   5.293  10.853 -0.3751 -0.0952  0.0575
  259MOL0     C34101   7.496   4.923  10.444 -0.3593 -0.0813 -0.6557
  259MOL0     C34102   7.627   4.875  10.425  0.3322 -0.4276  0.0041
  259MOL0     O34103   7.835   4.889  10.147 -0.4986 -0.8780 -0.3341
  259MOL0     C34104   8.104   4.858  10.196 -0.1777 -0.3872 -0.0543
  259MOL0     C34105   8.240   4.823  10.177 -0.5283  0.3707 -0.8779
  259MOL0     N34106   9.062   4.770  10.303  0.5530 -0.3031  0.9790
  259MOL0     N34107   9.162   4.765  10.378 -0.4556 -0.0835 -1.1051
  259MOL0     C34108  10.061   4.207  10.247  0.0598  0.2446 -0.5123
  259MOL0     C34109  10.184   4.141  10.244 -0.7540  0.2483  0.3495
  259MOL0     C34110  10.577   3.956  10.271  0.0222 -0.3135  0.6672
  259MOL0     C34111  10.606   3.815  10.251 -0.3301  0.0614 -0.1543
  259MOL0     C34112  10.735   3.786  10.214 -0.2555  0.5038 -0.1628
  259MOL0     C34113  10.832   3.883  10.208  0.0702  0.0802  0.0912
  259MOL0     O34114  10.954   3.826  10.183 -0.7191 -0.7815  0.0509
  259MOL0     C34115  11.064   3.898  10.235 -0.1832 -0.0481  0.0508
  259MOL0     C34116  11.176   3.793  10.245  0.3959 -0.3616 -0.1042
  259MOL0     C34117  11.230   3.735  10.116  0.6656  0.1373 -0.2604
  259MOL0     C34118  11.366   3.656  10.143  0.2786 -0.0687  0.6562
  259MOL0     C34119  11.487   3.744  10.151  0.0168  1.0900  0.0912
  259MOL0     C34120  11.581   3.821  10.165 -0.2359 -0.0477 -0.1979
  259MOL0     C34121  10.804   4.016  10.237 -0.2321 -0.8096  0.0626
  259MOL0     C34122  10.677   4.051  10.271  0.4960 -0.4379 -0.4042
  259MOL0     H34123  10.352   4.328  10.477 -2.4927  5.5302  0.6603
  259MOL0     H34124  10.143   4.407  10.512 -1.9452  1.8230 -1.9387
  259MOL0     H34125   9.926   4.567  10.423  0.3620  0.7074  0.1912
  259MOL0     H34126   9.920   4.432  10.538 -1.0037 -1.1239 -0.4627
  259MOL0     H34127   9.678   4.536  10.390 -0.3974  3.1137  2.3141
  259MOL0     H34128   9.733   4.581  10.548  1.8983 -0.9511  0.8797
  259MOL0     H34129   9.734   4.362  10.648  1.8385  0.5424 -1.3937
  259MOL0     H34130   9.694   4.299  10.484 -1.4021 -0.2190  1.4884
  259MOL0     H34131   9.484   4.403  10.488 -2.7805  2.3877  1.9102
  259MOL0     H34132   9.495   4.285  10.621  1.8165 -0.5680 -0.4643
  259MOL0     H34133   9.516   4.601  10.633  1.3355  0.1273  1.4506
  259MOL0     H34134   9.571   4.498  10.758 -0.6484 -0.6663  0.9804
  259MOL0     H34135   9.345   4.555  10.823 -1.4903  0.5539 -0.1374
  259MOL0     H34136   9.342   4.388  10.777 -2.3058  0.9720  0.5875
  259MOL0     H34137   9.253   4.447  10.555 -0.2844 -1.1946  1.2939
  259MOL0     H34138   9.154   4.497  10.681 -1.3669 -0.9034  0.5600
  259MOL0     H34139   9.336   4.697  10.544  1.3207 -0.9281  2.4415
  259MOL0     H34140   9.200   4.728  10.670 -0.3810 -0.5815  0.1839
  259MOL0     H34141   8.965   4.572  10.549 -0.6668 -0.1139 -1.1885
  259MOL0     H34142   8.760   4.746  10.385  0.4814 -2.5685  2.9554
  259MOL0     H34143   8.789   4.578  10.361 -0.5947  1.0114  3.1831
  259MOL0     H34144   8.863   4.624  10.124 -0.5118  0.2113  1.2504
  259MOL0     H34145   8.776   4.777  10.142 -2.6434 -1.5125 -5.1931
  259MOL0     H34146   8.645   4.593  10.033  1.2074 -1.7331  0.0396
  259MOL0     H34147   8.640   4.506  10.182 -2.0740  0.2067 -0.0165
  259MOL0     H34148   8.547   4.796  10.179 -1.4081  0.2001  1.4975
  259MOL0     H34149   8.511   4.666  10.298 -2.1929  2.5854 -0.2864
  259MOL0     H34150   8.211   4.493  10.223 -0.4323 -0.3896 -0.5158
  259MOL0     H34151   7.975   4.560  10.277 -1.4580  1.2607 -0.5776
  259MOL0     H34152   7.571   4.685  10.152  1.4444  3.1262 -1.3690
  259MOL0     H34153   7.342   4.769  10.189 -0.4697  0.2730 -0.8323
  259MOL0     H34154   7.177   4.763  10.364 -0.4174 -0.0812 -0.1603
  259MOL0     H34155   7.123   4.898  10.257 -0.1505 -0.9715 -0.7571
  259MOL0     H34156   7.090   4.891  10.563  0.2621  0.5857 -1.2280
  259MOL0     H34157   6.958   4.841  10.460 -0.5637 -0.1247  2.8146
  259MOL0     H34158   6.914   5.052  10.366 -3.1547  0.1789  1.3347
  259MOL0     H34159   7.076   5.120  10.434  0.1201 -0.3472  3.9474
  259MOL0     H34160   6.850   5.033  10.593 -0.7295  0.2586 -1.8254
  259MOL0     H34161   6.998   5.102  10.654  3.7253  1.3656 -2.1490
  259MOL0     H34162   6.794   5.221  10.484 -1.4278 -0.5793  0.7650
  259MOL0     H34163   6.946   5.314  10.534 -0.9568  0.6310 -0.8095
  259MOL0     H34164   6.874   5.270  10.783  0.9669 -1.2977 -1.1084
  259MOL0     H34165   6.738   5.181  10.728  0.0320 -1.5251 -2.9051
  259MOL0     H34166   6.779   5.486  10.667 -1.2912  0.4624 -3.2013
  259MOL0     H34167   6.641   5.389  10.625 -0.6598  3.4887  0.4478
  259MOL0     H34168   6.618   5.518  10.827 -1.1048 -0.4858 -2.4324
  259MOL0     H34169   6.720   5.392  10.912  0.1132  1.4691 -0.3062
  259MOL0     H34170   7.488   4.996  10.523 -0.0245 -0.4078 -0.3131
  259MOL0     H34171   7.705   4.905  10.495  1.7117 -2.9193 -0.3258
  259MOL0     H34172   8.090   4.966  10.190  2.4559 -0.0332 -1.5726
  259MOL0     H34173   8.309   4.902  10.149 -0.0395  1.0814  1.9731
  259MOL0     H34174   9.975   4.177  10.188  0.0625 -0.2384 -0.2767
  259MOL0     H34175  10.191   4.061  10.170 -0.9412  0.3150  0.2609
  259MOL0     H34176  10.535   3.735  10.268  1.0823 -1.0967  0.5804
  259MOL0     H34177  10.763   3.682  10.196  0.7654  0.2513  2.4306
  259MOL0     H34178  11.035   3.931  10.335 -1.1083  0.2804 -0.3114
  259MOL0     H34179  11.086   3.981  10.167 -2.7785  0.2066 -0.6240
  259MOL0     H34180  11.255   3.845  10.301  1.9917  0.8786 -3.2624
  259MOL0     H34181  11.135   3.710  10.302 -1.0880 -1.1644 -2.2291
  259MOL0     H34182  11.240   3.814  10.040 -1.9160  1.5862  0.7845
  259MOL0     H34183  11.165   3.656  10.078  0.9181  0.6441 -1.8110
  259MOL0     H34184  11.344   3.605  10.237 -1.4440  0.5651  0.6388
  259MOL0     H34185  11.382   3.579  10.067  0.1835 -0.4145  0.9847
  259MOL0     H34186  11.653   3.897  10.185 -0.4528 -0.0976  0.8517
  259MOL0     H34187  10.882   4.090  10.217 -1.1444 -0.2950 -1.8499
  259MOL0     H34188  10.657   4.156  10.289  0.0488 -0.6827  0.5903
  260MOL0     O34189   0.859   5.756   2.604  0.2829 -0.2341  0.0650
  260MOL0     C34190   0.897   5.688   2.510  0.4024  0.4209 -0.4811
  260MOL0     O34191   0.812   5.608   2.434 -1.0679  0.5632 -0.5625
  260MOL0     C34192   0.676   5.633   2.449 -2.2976 -0.3515 -0.0427
  260MOL0     C34193   0.607   5.614   2.568 -0.2444 -0.4139  0.1958
  260MOL0     C34194   0.465   5.611   2.570  0.4471 -0.7028 -0.4956
  260MOL0     C34195   0.392   5.635   2.461 -0.4763  0.3684  0.3926
  260MOL0     O34196   0.256   5.640   2.470  0.4768  0.3697 -0.5956
  260MOL0     C34197   0.174   5.639   2.354 -0.1500 -0.1207 -0.9566
  260MOL0     C34198   0.032   5.607   2.405  0.6692 -1.0685  0.1953
  260MOL0     C34199  -0.064   5.599   2.289 -0.6028  0.6171 -1.1395
  260MOL0     C34200  -0.199   5.606   2.358  0.6378  0.2023 -0.2639
  260MOL0     C34201  -0.300   5.596   2.238 -0.0179 -0.0446 -0.7042
  260MOL0     C34202  -0.446   5.617   2.284  0.0145 -0.2762  0.0757
  260MOL0     C34203  -0.502   5.500   2.367 -0.0749  0.3401 -0.3665
  260MOL0     C34204  -0.571   5.384   2.291 -1.2403  0.0206  0.3185
  260MOL0     N34205  -0.481   5.313   2.196 -0.0483 -0.4521 -0.3204
  260MOL0     C34206  -0.372   5.231   2.236 -0.0554  0.4939 -0.5086
  260MOL0     C34207  -0.339   5.160   2.124  0.0275  0.0981 -0.6807
  260MOL0     C34208  -0.214   5.072   2.096 -0.9689  0.6918 -0.7326
  260MOL0     C34209  -0.114   5.150   2.007  0.8486  0.4312  0.6264
  260MOL0     C34210   0.002   5.052   1.987  0.4395 -0.4619 -0.7615
  260MOL0     C34211   0.130   5.119   1.909 -0.1725 -0.4126 -0.0219
  260MOL0     O34212   0.242   5.026   1.943 -0.0483  0.6249  0.0041
  260MOL0     C34213   0.349   5.033   1.864 -0.6456  0.4906 -0.3853
  260MOL0     C34214   0.408   5.156   1.828 -0.3423 -0.5014 -0.0005
  260MOL0     C34215   0.532   5.151   1.763  0.2784  0.4544 -0.1406
  260MOL0     C34216   0.590   5.037   1.725  0.5424  1.1764  0.3911
  260MOL0     C34217   0.710   5.043   1.639 -0.0841 -0.8864 -0.2687
  260MOL0     O34218   0.733   5.156   1.569  0.3580 -0.2148 -0.4325
  260MOL0     C34219   0.840   5.177   1.482  0.7387 -0.0930 -0.1200
  260MOL0     C34220   0.945   5.086   1.456  0.3275 -0.9598 -0.7268
  260MOL0     C34221   1.046   5.121   1.373 -0.2414 -1.3108  0.2720
  260MOL0     C34222   1.051   5.245   1.306 -0.5437  0.1287 -0.3131
  260MOL0     O34223   1.156   5.288   1.231  0.2479 -0.1813 -0.2073
  260MOL0     C34224   1.233   5.204   1.148  0.7978 -0.1453 -0.9563
  260MOL0     C34225   1.350   5.282   1.083 -0.6750  0.4566 -0.1407
  260MOL0     C34226   1.438   5.347   1.188 -0.4695 -0.0139  0.0070
  260MOL0     C34227   1.562   5.401   1.110 -0.6249 -0.5802 -0.8427
  260MOL0     C34228   1.649   5.504   1.192 -0.3846  0.9269  0.2330
  260MOL0     C34229   1.727   5.603   1.095  0.2391  0.8479 -0.0074
  260MOL0     C34230   1.802   5.708   1.179  0.9188 -0.3464 -0.1280
  260MOL0     C34231   1.880   5.804   1.097 -0.0976 -0.4808 -0.1760
  260MOL0    Cl34232   2.014   5.731   1.028  0.0095  0.1818 -0.1932
  260MOL0     C34233   0.945   5.334   1.322  0.5876  0.1995 -0.1083
  260MOL0     C34234   0.841   5.295   1.417 -0.5351 -0.0487 -0.3816
  260MOL0     O34235   0.771   4.942   1.633 -0.5021  0.7835 -0.6763
  260MOL0     C34236   0.523   4.918   1.753  0.2851  0.1232  0.6161
  260MOL0     C34237   0.402   4.910   1.825 -0.3400 -0.7099  0.6285
  260MOL0     N34238  -0.434   5.194   2.020  0.3148  0.8117 -0.6337
  260MOL0     N34239  -0.524   5.283   2.070  0.0941  0.1758  0.0981
  260MOL0     C34240   0.462   5.658   2.341 -0.6140 -1.1727  0.1664
  260MOL0     C34241   0.600   5.652   2.333 -0.6470  0.3729  0.7065
  260MOL0     C34242   1.028   5.711   2.468 -1.0906  0.5078  0.2069
  260MOL0     C34243   1.106   5.626   2.391 -0.2478 -0.0453  0.0523
  260MOL0     C34244   1.240   5.635   2.369 -1.0707  0.4556 -1.0547
  260MOL0     C34245   1.317   5.734   2.434 -0.1335  0.2029  0.0086
  260MOL0     O34246   1.455   5.749   2.401  0.8602 -0.1728  0.1192
  260MOL0     C34247   1.522   5.626   2.382 -0.9650  0.3092 -0.7088
  260MOL0     C34248   1.668   5.659   2.406  0.9136 -0.2300 -0.6722
  260MOL0     C34249   1.758   5.531   2.382  0.2258  0.2217 -0.3670
  260MOL0     C34250   1.905   5.549   2.403 -0.1144 -0.2831 -0.0970
  260MOL0     C34251   1.992   5.443   2.347  0.0617  0.0070  0.4008
  260MOL0     C34252   2.052   5.351   2.294  0.2528 -0.3208  0.1275
  260MOL0     C34253   1.250   5.828   2.515  0.7620 -1.0320  0.3773
  260MOL0     C34254   1.106   5.819   2.519  0.2211 -0.9234 -0.3028
  260MOL0     H34255   0.661   5.597   2.661  0.8496  3.3147  0.4153
  260MOL0     H34256   0.415   5.593   2.664 -1.6254 -0.4701 -1.5006
  260MOL0     H34257   0.216   5.557   2.295  0.4853 -2.2159  2.1974
  260MOL0     H34258   0.170   5.733   2.299 -0.7127  0.1475 -0.4688
  260MOL0     H34259  -0.002   5.694   2.463 -3.3638 -2.8392  0.8370
  260MOL0     H34260   0.029   5.521   2.472 -0.8078 -2.3546 -1.4397
  260MOL0     H34261  -0.046   5.509   2.230 -3.8880  0.1667 -1.6515
  260MOL0     H34262  -0.052   5.687   2.225 -1.1655 -0.2484 -2.4896
  260MOL0     H34263  -0.216   5.522   2.426 -1.0418 -1.3647 -2.4623
  260MOL0     H34264  -0.206   5.702   2.410  1.5722  0.7659 -1.1379
  260MOL0     H34265  -0.291   5.500   2.185 -3.3736 -0.5267 -0.6098
  260MOL0     H34266  -0.281   5.681   2.172 -0.4542  2.0501  1.6848
  260MOL0     H34267  -0.513   5.629   2.198 -0.9574 -0.3489  0.8020
  260MOL0     H34268  -0.452   5.712   2.339  3.1065  0.0335  0.0144
  260MOL0     H34269  -0.421   5.452   2.423  0.7918  1.5973 -0.5168
  260MOL0     H34270  -0.558   5.530   2.456 -0.0904  0.5562 -0.4489
  260MOL0     H34271  -0.661   5.415   2.237 -1.3961 -4.0886 -2.1699
  260MOL0     H34272  -0.601   5.310   2.366 -0.2402 -2.2267 -1.3794
  260MOL0     H34273  -0.311   5.234   2.326  0.8556  2.2138 -1.1488
  260MOL0     H34274  -0.245   4.976   2.052 -1.8640 -0.4660  2.1759
  260MOL0     H34275  -0.171   5.046   2.193  1.3716  3.2358 -0.9966
  260MOL0     H34276  -0.068   5.238   2.055  2.7020  0.0135 -0.2877
  260MOL0     H34277  -0.170   5.186   1.920 -2.1221  1.4613  2.7881
  260MOL0     H34278   0.044   5.033   2.086 -1.5546  2.8143  0.8546
  260MOL0     H34279  -0.036   4.955   1.953 -0.7485 -0.3010  0.0567
  260MOL0     H34280   0.146   5.214   1.959 -0.8536 -0.9164  1.2024
  260MOL0     H34281   0.110   5.131   1.802 -2.0300 -2.0898  0.0623
  260MOL0     H34282   0.365   5.254   1.850 -0.5012 -0.8904  1.5329
  260MOL0     H34283   0.588   5.243   1.751  0.9283  0.1749  0.6230
  260MOL0     H34284   0.949   4.987   1.500 -2.0328 -1.6673 -1.8967
  260MOL0     H34285   1.138   5.066   1.359  2.0567  2.1596  0.3703
  260MOL0     H34286   1.169   5.170   1.066 -1.6335  1.3446  0.2126
  260MOL0     H34287   1.262   5.114   1.202 -1.5020 -0.7465 -0.5982
  260MOL0     H34288   1.307   5.359   1.019 -0.3175  0.6782 -0.1152
  260MOL0     H34289   1.414   5.220   1.019 -0.0538  2.4863 -1.5747
  260MOL0     H34290   1.474   5.276   1.263 -1.1384 -2.0882 -1.5652
  260MOL0     H34291   1.381   5.427   1.237 -1.1908  1.6736 -3.2660
  260MOL0     H34292   1.619   5.317   1.068 -1.6265 -1.2428 -0.9254
  260MOL0     H34293   1.530   5.450   1.017 -0.5144  3.3505  0.9924
  260MOL0     H34294   1.719   5.445   1.252 -2.7312 -0.9300  1.2650
  260MOL0     H34295   1.579   5.560   1.255 -0.2277  2.6909 -1.0744
  260MOL0     H34296   1.660   5.652   1.024 -0.0802 -0.3778 -0.5901
  260MOL0     H34297   1.794   5.541   1.033 -0.6380 -0.5772  0.4126
  260MOL0     H34298   1.746   5.761   1.256  3.9903 -0.6893  2.5835
  260MOL0     H34299   1.864   5.640   1.239  0.6381  0.0945  0.6742
  260MOL0     H34300   1.921   5.891   1.149 -2.2084  0.3842  0.1558
  260MOL0     H34301   1.819   5.834   1.010 -5.2171 -0.2980  3.0239
  260MOL0     H34302   0.936   5.431   1.273  1.7924  1.1224  1.3799
  260MOL0     H34303   0.761   5.367   1.426 -0.2416  0.5128 -1.9629
  260MOL0     H34304   0.579   4.832   1.718 -0.9436 -1.0589  1.4191
  260MOL0     H34305   0.350   4.820   1.856  0.2822 -1.8229 -1.3765
  260MOL0     H34306   0.415   5.688   2.248  0.3401  2.5945  0.7628
  260MOL0     H34307   0.654   5.667   2.240 -1.5207 -0.1172  0.1106
  260MOL0     H34308   1.044   5.549   2.346 -0.7061 -2.3909  4.1715
  260MOL0     H34309   1.283   5.557   2.307 -2.5190 -2.1353  1.0020
  260MOL0     H34310   1.501   5.597   2.279 -0.6270  1.7504 -1.2198
  260MOL0     H34311   1.498   5.544   2.450  0.5993  1.2217  1.0405
  260MOL0     H34312   1.713   5.742   2.351  1.1627  3.0278  3.8525
  260MOL0     H34313   1.673   5.691   2.510 -8.4208 -0.5273  0.7854
  260MOL0     H34314   1.743   5.493   2.281 -1.3198  2.6462 -1.1394
  260MOL0     H34315   1.719   5.455   2.451  0.5237 -1.5788 -2.1011
  260MOL0     H34316   1.934   5.639   2.348  0.8439 -0.4819  0.0709
  260MOL0     H34317   1.924   5.580   2.506 -0.1115  1.2875 -0.5432
  260MOL0     H34318   2.106   5.273   2.243  3.0245  3.0816 -2.7066
  260MOL0     H34319   1.304   5.908   2.564  1.0361 -1.9377  1.6119
  260MOL0     H34320   1.064   5.890   2.589  0.1731 -0.8147 -0.4412
  261MOL0     O34321   4.645   9.877  11.124 -0.0149  0.0510 -0.3149
  261MOL0     C34322   4.684   9.826  11.016  0.9758  0.7377 -0.8864
  261MOL0     O34323   4.606   9.811  10.907  0.0515  0.3172  0.9721
  261MOL0     C34324   4.471   9.828  10.934  0.7896  0.4992 -0.1056
  261MOL0     C34325   4.410   9.952  10.911 -0.3427 -0.1659  0.5216
  261MOL0     C34326   4.279   9.974  10.938  0.3314 -0.0062 -0.0331
  261MOL0     C34327   4.199   9.869  10.985 -0.0050 -0.3074  0.4191
  261MOL0     O34328   4.071   9.890  11.003  0.6433 -0.4489  1.2463
  261MOL0     C34329   3.992   9.876  10.882  1.2846 -0.2445  0.0656
  261MOL0     C34330   3.846   9.911  10.907 -0.2971  0.1097 -0.8693
  261MOL0     C34331   3.764   9.870  10.781 -0.0920 -0.2145 -0.3506
  261MOL0     C34332   3.607   9.882  10.801 -0.1252  0.2521  0.3650
  261MOL0     C34333   3.524   9.841  10.683 -1.2268 -0.0425  0.5394
  261MOL0     C34334   3.373   9.870  10.700 -1.2553  0.7885  0.0545
  261MOL0     C34335   3.298   9.849  10.566 -0.1627  0.9054 -0.0533
  261MOL0     C34336   3.147   9.884  10.588  0.3363  0.1331 -0.2156
  261MOL0     N34337   3.084   9.783  10.672  0.2056 -0.0040 -0.3231
  261MOL0     C34338   3.041   9.819  10.790 -0.0303 -0.3617  1.0684
  261MOL0     C34339   2.987   9.705  10.842 -0.6074 -0.0238  0.3532
  261MOL0     C34340   2.944   9.693  10.988 -0.3629 -0.2899  0.2227
  261MOL0     C34341   2.797   9.672  10.999  0.7859 -0.4448  0.0476
  261MOL0     C34342   2.747   9.669  11.146 -0.9130 -0.2435  0.5228
  261MOL0     C34343   2.793   9.533  11.222 -0.0901 -0.2213  0.3440
  261MOL0     O34344   2.729   9.418  11.160  0.4068 -0.2184 -0.1663
  261MOL0     C34345   2.600   9.386  11.207 -0.4246  0.0292  0.0741
  261MOL0     C34346   2.512   9.473  11.270 -0.6343 -0.1318  0.3184
  261MOL0     C34347   2.383   9.428  11.291 -0.5853  0.4462  0.1376
  261MOL0     C34348   2.342   9.299  11.254  0.1348 -0.4047  0.1247
  261MOL0     C34349   2.206   9.249  11.298 -0.1343 -0.2418  1.1358
  261MOL0     O34350   2.195   9.112  11.293  0.2315 -0.4726  0.6491
  261MOL0     C34351   2.077   9.066  11.338 -0.2491  0.1001 -1.0158
  261MOL0     C34352   2.075   8.972  11.441  0.4265  0.0576 -0.6332
  261MOL0     C34353   1.956   8.910  11.488 -0.7564 -0.3368 -0.0086
  261MOL0     C34354   1.833   8.949  11.436  0.2693  0.1394 -0.4023
  261MOL0     O34355   1.712   8.902  11.474 -0.2905 -0.0285  0.5966
  261MOL0     C34356   1.704   8.779  11.561 -0.2240  0.7376  0.3858
  261MOL0     C34357   1.566   8.717  11.557  0.0955 -0.2843 -0.1098
  261MOL0     C34358   1.459   8.806  11.627  0.6059  0.1363 -1.2713
  261MOL0     C34359   1.317   8.728  11.626 -0.3933  0.1434 -0.8673
  261MOL0     C34360   1.208   8.809  11.696 -0.3158  0.4370  0.0660
  261MOL0     C34361   1.078   8.724  11.703 -1.7751 -0.0702 -0.1501
  261MOL0     C34362   0.970   8.799  11.764 -0.4345 -0.1285 -0.9641
  261MOL0     C34363   0.838   8.726  11.785  0.1127 -0.1038  0.8381
  261MOL0    Cl34364   0.701   8.834  11.826 -0.1816  0.2025 -0.0261
  261MOL0     C34365   1.828   9.054  11.349  0.1437 -1.0480  0.3927
  261MOL0     C34366   1.946   9.114  11.298  0.1718 -0.2043 -0.7450
  261MOL0     O34367   2.122   9.331  11.334 -0.7472 -0.4439 -0.6350
  261MOL0     C34368   2.438   9.210  11.186  0.7448 -0.6065 -0.4908
  261MOL0     C34369   2.562   9.258  11.160 -0.0205  0.5105 -0.6757
  261MOL0     N34370   2.986   9.609  10.745 -0.1285 -0.1764 -0.3447
  261MOL0     N34371   3.044   9.660  10.639  1.2313  0.1247 -0.1531
  261MOL0     C34372   4.257   9.745  11.019 -0.1177  0.4463 -0.0000
  261MOL0     C34373   4.393   9.726  10.982 -1.1117 -0.6970 -0.1955
  261MOL0     C34374   4.827   9.803  11.009 -0.0619 -0.7840 -0.6190
  261MOL0     C34375   4.874   9.693  10.927  0.2559 -0.2293  0.0079
  261MOL0     C34376   5.012   9.660  10.913 -0.4854 -0.3739  0.2151
  261MOL0     C34377   5.105   9.730  10.993  0.3817 -0.0847 -0.0993
  261MOL0     O34378   5.232   9.690  10.968 -0.3982 -0.1246 -0.1328
  261MOL0     C34379   5.339   9.759  11.015  0.1753 -0.0971 -0.0721
  261MOL0     C34380   5.471   9.726  10.940  0.7111  0.5180 -0.1479
  261MOL0     C34381   5.509   9.582  10.960  0.4094 -0.5270 -0.8504
  261MOL0     C34382   5.653   9.567  10.907  0.1004  1.0693  0.5793
  261MOL0     C34383   5.762   9.619  10.979 -0.0984 -0.6418  0.4296
  261MOL0     C34384   5.869   9.651  11.026 -1.0636 -0.0819  0.3457
  261MOL0     C34385   5.059   9.826  11.087  0.3201  0.3641  0.4133
  261MOL0     C34386   4.922   9.862  11.090 -0.6986  0.4089  0.0763
  261MOL0     H34387   4.467  10.039  10.881 -1.3827  0.6127  0.7711
  261MOL0     H34388   4.234  10.072  10.925  0.8295  0.2762  0.2937
  261MOL0     H34389   4.002   9.772  10.853  0.2077  0.2854 -2.4318
  261MOL0     H34390   4.035   9.936  10.801  1.4920 -2.6275 -1.6860
  261MOL0     H34391   3.835  10.020  10.915  2.1628  0.2827  2.7556
  261MOL0     H34392   3.817   9.865  11.002  0.5638  1.6280  0.1826
  261MOL0     H34393   3.782   9.768  10.746  0.3319 -0.1698 -0.2661
  261MOL0     H34394   3.790   9.941  10.703 -2.1368  0.6444 -0.2988
  261MOL0     H34395   3.587   9.814  10.885  2.3595 -0.4859  0.4323
  261MOL0     H34396   3.580   9.982  10.836 -1.2954 -0.2284  0.8923
  261MOL0     H34397   3.546   9.736  10.663  0.8424  0.3037  0.7400
  261MOL0     H34398   3.558   9.906  10.602  0.7743 -1.3816  0.2346
  261MOL0     H34399   3.361   9.970  10.742  1.9861  0.1059  3.1181
  261MOL0     H34400   3.332   9.804  10.777 -0.4379 -0.3811 -0.4836
  261MOL0     H34401   3.348   9.917  10.497  0.1147  3.1753  2.2153
  261MOL0     H34402   3.317   9.745  10.537  0.1980  0.2252  2.3382
  261MOL0     H34403   3.095   9.884  10.492 -1.2989  3.3934  0.5282
  261MOL0     H34404   3.130   9.979  10.639  0.3127  1.0270 -1.8429
  261MOL0     H34405   3.047   9.919  10.834 -0.5973  0.9771 -1.6738
  261MOL0     H34406   2.976   9.774  11.053 -1.0998 -2.0689  2.9562
  261MOL0     H34407   2.995   9.602  11.021 -0.0089 -1.2112 -2.5400
  261MOL0     H34408   2.777   9.573  10.956 -1.6488 -1.1143  2.3843
  261MOL0     H34409   2.748   9.750  10.940  2.2469  1.6328  1.4618
  261MOL0     H34410   2.792   9.753  11.200  1.1952 -1.8312  1.3659
  261MOL0     H34411   2.639   9.683  11.157 -0.7530  0.7082  0.9470
  261MOL0     H34412   2.764   9.542  11.328 -2.5804 -0.5594 -0.2452
  261MOL0     H34413   2.900   9.511  11.218 -0.1179 -0.1293 -1.4200
  261MOL0     H34414   2.543   9.569  11.308 -0.6820 -0.1242  0.3380
  261MOL0     H34415   2.319   9.490  11.352  1.6720  1.9946  1.0666
  261MOL0     H34416   2.167   8.950  11.495 -0.9980  1.2829  2.5427
  261MOL0     H34417   1.965   8.836  11.567 -2.5817  1.1164  1.6585
  261MOL0     H34418   1.733   8.783  11.666 -2.7157 -1.7455  1.3037
  261MOL0     H34419   1.764   8.704  11.508 -0.4718 -0.3159  1.5486
  261MOL0     H34420   1.576   8.618  11.601  1.5422 -0.0635  0.1114
  261MOL0     H34421   1.530   8.706  11.454 -3.2534 -1.7400  1.0980
  261MOL0     H34422   1.446   8.898  11.569  1.0574 -0.7403 -2.8137
  261MOL0     H34423   1.495   8.811  11.730 -0.3021 -2.6843 -0.7202
  261MOL0     H34424   1.289   8.709  11.523 -0.7283  2.0610 -1.1755
  261MOL0     H34425   1.322   8.631  11.677 -1.2608  1.5258  2.0628
  261MOL0     H34426   1.193   8.905  11.645 -2.3182  1.2660  2.0370
  261MOL0     H34427   1.237   8.845  11.795  0.4624  0.4454 -0.1594
  261MOL0     H34428   1.088   8.629  11.754  0.8568 -0.1276 -0.6173
  261MOL0     H34429   1.048   8.717  11.598 -0.5399  0.6547 -0.5799
  261MOL0     H34430   1.010   8.831  11.860 -0.1236 -3.5280  0.1706
  261MOL0     H34431   0.962   8.890  11.703  0.4694  1.3710  1.0637
  261MOL0     H34432   0.856   8.659  11.870  0.8931 -2.2071 -0.8996
  261MOL0     H34433   0.808   8.667  11.697 -0.2872  0.4314  0.6148
  261MOL0     H34434   1.732   9.093  11.319 -0.0397 -2.3834 -0.8347
  261MOL0     H34435   1.943   9.188  11.219 -0.3556  1.0969  0.4400
  261MOL0     H34436   2.423   9.106  11.159  1.8568 -0.3259 -2.3325
  261MOL0     H34437   2.636   9.203  11.103  0.2777  0.5827 -0.3629
  261MOL0     H34438   4.198   9.661  11.056 -0.5018  0.6962 -0.0442
  261MOL0     H34439   4.440   9.628  10.982 -0.7433 -0.6183 -2.8103
  261MOL0     H34440   4.804   9.631  10.874 -1.7820  1.8322  0.1186
  261MOL0     H34441   5.049   9.575  10.857  0.6445  1.2574 -1.6361
  261MOL0     H34442   5.345   9.731  11.120  0.1587 -1.8322 -0.4962
  261MOL0     H34443   5.316   9.866  11.005  0.2338 -0.1870 -1.2876
  261MOL0     H34444   5.468   9.758  10.836 -2.3609 -0.9830 -0.6329
  261MOL0     H34445   5.540   9.795  10.990 -1.9216  1.0382  3.1097
  261MOL0     H34446   5.447   9.513  10.902  0.1636 -2.2871  1.3837
  261MOL0     H34447   5.503   9.562  11.067  3.5829  0.1439 -0.4519
  261MOL0     H34448   5.673   9.460  10.902  4.5906  1.7572 -1.6217
  261MOL0     H34449   5.654   9.613  10.807  1.0512 -0.1354  0.0119
  261MOL0     H34450   5.955   9.706  11.059 -2.8031  1.5495  2.3515
  261MOL0     H34451   5.120   9.881  11.158 -0.9754  0.8945  1.1449
  261MOL0     H34452   4.895   9.943  11.157  1.4242  0.6018  0.7636
  262MOL0     O34453   9.648   9.951   3.579 -0.5991 -0.5115 -0.6119
  262MOL0     C34454   9.671   9.907   3.697 -0.1381  0.5573  0.0139
  262MOL0     O34455   9.609   9.955   3.819  0.4355 -0.5639  0.4175
  262MOL0     C34456   9.493  10.023   3.814  0.1040 -0.5688 -0.1254
  262MOL0     C34457   9.395  10.028   3.718  0.1831 -0.1268  0.8838
  262MOL0     C34458   9.282  10.107   3.732  0.4269  0.0435  0.1036
  262MOL0     C34459   9.250  10.174   3.855  0.6011  0.3127  0.0705
  262MOL0     O34460   9.129  10.253   3.853 -0.6353 -0.2924 -1.6585
  262MOL0     C34461   9.069  10.289   3.976 -0.1765 -0.0721 -0.2759
  262MOL0     C34462   8.918  10.330   3.951 -0.0884 -0.9122 -0.3496
  262MOL0     C34463   8.835  10.388   4.073 -0.0337  0.0358  0.0110
  262MOL0     C34464   8.688  10.410   4.039 -0.4360  0.8001  0.6568
  262MOL0     C34465   8.599  10.443   4.164  0.1131 -0.4193  0.4165
  262MOL0     C34466   8.648  10.576   4.234  0.2738 -0.0020  0.1417
  262MOL0     C34467   8.554  10.620   4.354 -0.6986 -0.2543 -0.4166
  262MOL0     C34468   8.586  10.753   4.420 -0.0775  0.3935 -0.4924
  262MOL0     N34469   8.518  10.753   4.553 -0.6200  0.0466 -0.0353
  262MOL0     C34470   8.387  10.780   4.573  0.0123  0.2500  1.0211
  262MOL0     C34471   8.378  10.808   4.702  0.6585 -0.1922  1.3369
  262MOL0     C34472   8.249  10.834   4.772  0.1318  0.5095 -0.5428
  262MOL0     C34473   8.250  10.925   4.897  0.6648 -0.2951 -0.7373
  262MOL0     C34474   8.297  10.854   5.027 -0.3898 -0.0400  0.3067
  262MOL0     C34475   8.289  10.952   5.146  0.3182  0.2535  0.7611
  262MOL0     O34476   8.155  11.002   5.167 -0.1026 -0.0818 -0.1166
  262MOL0     C34477   8.079  10.958   5.269  1.0506  0.7715  0.0676
  262MOL0     C34478   8.014  11.049   5.359 -0.4042 -0.0259 -0.6217
  262MOL0     C34479   7.947  10.997   5.467 -0.0958 -0.0401  0.6892
  262MOL0     C34480   7.927  10.857   5.485 -0.3232 -0.7526 -0.7001
  262MOL0     C34481   7.864  10.805   5.604 -0.0962  0.2838  1.0884
  262MOL0     O34482   7.769  10.884   5.655  0.3736  1.1045 -0.4426
  262MOL0     C34483   7.692  10.825   5.755 -0.4376 -0.0055 -0.2016
  262MOL0     C34484   7.747  10.805   5.887  1.0750  0.7830  0.3843
  262MOL0     C34485   7.672  10.751   5.992  0.1610  0.1003  0.4482
  262MOL0     C34486   7.537  10.743   5.978  0.8213  0.1379  0.4530
  262MOL0     O34487   7.467  10.676   6.072 -1.0015 -0.2046 -0.7895
  262MOL0     C34488   7.459  10.747   6.200  0.1182  0.4010 -1.4721
  262MOL0     C34489   7.312  10.783   6.236  0.0259 -0.3834  0.2883
  262MOL0     C34490   7.222  10.665   6.283  0.7947  0.6947 -0.1595
  262MOL0     C34491   7.085  10.720   6.341  0.6192 -0.3278 -0.2294
  262MOL0     C34492   7.004  10.598   6.386 -0.3699  0.0841 -0.7887
  262MOL0     C34493   6.869  10.646   6.434  0.0897 -0.7229 -0.7361
  262MOL0     C34494   6.761  10.554   6.494 -0.4442  0.1041  0.0509
  262MOL0     C34495   6.769  10.537   6.643 -0.8976 -0.5892  0.9548
  262MOL0    Cl34496   6.636  10.431   6.695 -0.2455  0.4803  0.2753
  262MOL0     C34497   7.467  10.768   5.856 -0.3037 -0.2155  0.3539
  262MOL0     C34498   7.552  10.809   5.744  0.0023  0.3471 -0.0240
  262MOL0     O34499   7.890  10.687   5.631 -0.1840  0.3905 -0.0895
  262MOL0     C34500   7.975  10.776   5.388  0.6095 -0.2147  0.5161
  262MOL0     C34501   8.053  10.825   5.285  0.1521 -0.2300  0.4409
  262MOL0     N34502   8.492  10.796   4.769 -0.3211 -0.1880 -0.1641
  262MOL0     N34503   8.586  10.761   4.676  0.7901 -0.0075  0.2611
  262MOL0     C34504   9.341  10.156   3.957 -0.2890  0.1371 -0.0891
  262MOL0     C34505   9.467  10.092   3.942  0.5647  0.6173  0.3854
  262MOL0     C34506   9.779   9.802   3.722  0.4469 -0.1745  0.2161
  262MOL0     C34507   9.832   9.772   3.848 -0.3922  0.4227 -0.0871
  262MOL0     C34508   9.942   9.688   3.854  0.1466  0.3777  0.2330
  262MOL0     C34509   9.997   9.623   3.740  0.2627  0.2371 -0.1189
  262MOL0     O34510  10.109   9.552   3.753  0.2779 -0.0284  0.2777
  262MOL0     C34511  10.187   9.520   3.640  0.2032  0.1434  0.8623
  262MOL0     C34512  10.306   9.435   3.698 -0.2718 -0.1660 -0.6947
  262MOL0     C34513  10.257   9.297   3.756  0.3165 -0.7332  0.9217
  262MOL0     C34514  10.347   9.237   3.859 -0.5744 -0.4831 -0.1073
  262MOL0     C34515  10.484   9.204   3.798 -0.0998 -1.2117 -0.4269
  262MOL0     C34516  10.594   9.165   3.761  0.0123 -0.2456  0.4246
  262MOL0     C34517   9.930   9.636   3.619  0.1917 -0.4906  0.0333
  262MOL0     C34518   9.825   9.723   3.609  1.1499 -0.4804  0.0483
  262MOL0     H34519   9.414   9.965   3.631  1.1198 -0.0243  1.0085
  262MOL0     H34520   9.215  10.132   3.650 -0.6301  1.3406  1.3097
  262MOL0     H34521   9.125  10.367   4.029  0.8987 -0.8554 -0.2251
  262MOL0     H34522   9.060  10.198   4.037  1.3068 -0.8989 -1.2393
  262MOL0     H34523   8.868  10.237   3.921 -1.1783 -1.9056  3.7724
  262MOL0     H34524   8.911  10.407   3.875  2.6181 -0.5290 -0.2904
  262MOL0     H34525   8.876  10.479   4.117  0.9166 -0.6167  0.5313
  262MOL0     H34526   8.849  10.322   4.160 -1.6683  1.1553  1.1952
  262MOL0     H34527   8.680  10.488   3.963  0.0467 -0.5256 -0.8108
  262MOL0     H34528   8.657  10.316   3.993  1.2936 -0.2466  1.5562
  262MOL0     H34529   8.617  10.361   4.234  3.2985  0.5098  0.8862
  262MOL0     H34530   8.493  10.440   4.141  0.5648 -1.9652 -1.7067
  262MOL0     H34531   8.652  10.659   4.162 -0.3115  0.9038  1.1270
  262MOL0     H34532   8.751  10.559   4.266  0.4319 -1.6494 -1.0681
  262MOL0     H34533   8.447  10.614   4.333 -0.4779  0.4976 -1.8930
  262MOL0     H34534   8.585  10.552   4.434  0.0834  1.4290  0.7694
  262MOL0     H34535   8.584  10.843   4.358 -0.8392  0.6791 -0.0739
  262MOL0     H34536   8.690  10.743   4.453 -0.1145  0.4475 -0.3563
  262MOL0     H34537   8.310  10.781   4.496  0.3931 -1.7251  0.5571
  262MOL0     H34538   8.201  10.741   4.801 -0.2702  1.2955  1.4427
  262MOL0     H34539   8.179  10.879   4.701 -0.7476  2.7186  1.5819
  262MOL0     H34540   8.152  10.972   4.904  0.3932 -1.1021  3.4329
  262MOL0     H34541   8.318  11.006   4.869 -0.4443  0.9359  0.0586
  262MOL0     H34542   8.226  10.773   5.044  1.1447 -1.0875  2.2474
  262MOL0     H34543   8.396  10.807   5.024  0.1957  0.9624  1.9757
  262MOL0     H34544   8.357  11.033   5.122 -1.1348  0.4334 -3.6759
  262MOL0     H34545   8.320  10.897   5.235  0.0512 -2.5213 -0.7386
  262MOL0     H34546   8.039  11.154   5.349  0.0763  0.1208  1.5087
  262MOL0     H34547   7.904  11.075   5.529 -4.1296  0.3853 -2.2594
  262MOL0     H34548   7.852  10.821   5.905  1.3632 -1.2239  0.7553
  262MOL0     H34549   7.697  10.711   6.090 -2.5081 -2.4459  0.2212
  262MOL0     H34550   7.512  10.842   6.211  1.1322 -0.3867  1.3955
  262MOL0     H34551   7.491  10.687   6.285  2.5910  0.7817 -2.0443
  262MOL0     H34552   7.260  10.829   6.153  1.3573 -1.7929 -1.4053
  262MOL0     H34553   7.311  10.861   6.313  3.2146  1.5799 -1.4502
  262MOL0     H34554   7.276  10.603   6.356 -0.6892 -1.6459 -0.9493
  262MOL0     H34555   7.201  10.613   6.190 -1.4429  0.6964  0.2827
  262MOL0     H34556   7.109  10.791   6.420 -0.7866 -1.1750  1.0102
  262MOL0     H34557   7.038  10.781   6.264 -0.9887 -1.8259 -0.5147
  262MOL0     H34558   7.055  10.553   6.471 -0.8727 -0.2747 -0.6733
  262MOL0     H34559   6.995  10.520   6.309 -3.9486 -0.8823  0.4259
  262MOL0     H34560   6.812  10.682   6.347 -0.0319 -0.5548 -0.5893
  262MOL0     H34561   6.883  10.729   6.504 -1.1454 -3.5649  3.2357
  262MOL0     H34562   6.661  10.589   6.468 -1.0006 -1.8496 -0.6425
  262MOL0     H34563   6.777  10.451   6.461  0.8690 -1.4017  4.5768
  262MOL0     H34564   6.751  10.638   6.681 -2.9139 -1.1700  1.6593
  262MOL0     H34565   6.866  10.510   6.685 -1.3083  0.8850  3.0047
  262MOL0     H34566   7.359  10.760   5.844  0.0047 -5.4117 -1.0401
  262MOL0     H34567   7.499  10.845   5.656  2.2427  0.8692 -1.2161
  262MOL0     H34568   7.943  10.673   5.384  1.8418 -0.6646  1.5446
  262MOL0     H34569   8.087  10.750   5.214 -0.0083 -0.2377  0.3724
  262MOL0     H34570   9.335  10.212   4.049  0.2722  1.8891 -1.0785
  262MOL0     H34571   9.542  10.093   4.020 -0.5596 -3.0629  1.7334
  262MOL0     H34572   9.779   9.818   3.931 -0.3521 -0.5248  0.4759
  262MOL0     H34573   9.981   9.663   3.952 -0.8159 -2.7907 -0.0753
  262MOL0     H34574  10.233   9.607   3.593 -1.1428  2.0416  2.8695
  262MOL0     H34575  10.133   9.462   3.564 -0.0785  0.1515  1.0544
  262MOL0     H34576  10.379   9.420   3.618 -1.0914  3.3308 -2.3320
  262MOL0     H34577  10.348   9.500   3.775 -1.2732  0.6697 -0.8299
  262MOL0     H34578  10.253   9.230   3.669  1.1036 -0.5751  0.7562
  262MOL0     H34579  10.157   9.298   3.800 -0.3979  0.1666 -0.6404
  262MOL0     H34580  10.368   9.305   3.942 -0.9949  1.1381 -1.2989
  262MOL0     H34581  10.306   9.142   3.895  0.6120 -0.6869  0.7857
  262MOL0     H34582  10.695   9.135   3.738  0.0247 -2.3859  2.8361
  262MOL0     H34583   9.968   9.587   3.530 -1.3643 -0.5470 -0.6353
  262MOL0     H34584   9.781   9.738   3.510 -0.3022  0.4005  0.7974
  263MOL0     O34585   9.741   6.506   0.027  0.4018 -0.6027  0.4727
  263MOL0     C34586   9.708   6.623   0.011 -0.7052 -0.3190 -0.5501
  263MOL0     O34587   9.624   6.693   0.090 -0.1687  0.2954  1.1827
  263MOL0     C34588   9.566   6.625   0.198 -0.7998  0.1754  1.4656
  263MOL0     C34589   9.442   6.565   0.182  0.1658  0.2515 -0.0024
  263MOL0     C34590   9.385   6.509   0.299  0.7172  0.8560 -0.5334
  263MOL0     C34591   9.456   6.513   0.422  0.5052 -0.1574  0.6118
  263MOL0     O34592   9.410   6.447   0.531  0.2832  0.2132  0.6362
  263MOL0     C34593   9.430   6.303   0.531 -0.8500 -0.8410 -0.1215
  263MOL0     C34594   9.315   6.224   0.457  0.7451 -0.2674  0.2461
  263MOL0     C34595   9.172   6.255   0.497 -0.2301  0.4698 -0.5753
  263MOL0     C34596   9.060   6.163   0.446 -0.3062 -0.0723  0.0962
  263MOL0     C34597   8.923   6.191   0.492 -0.4354 -0.2168 -0.9193
  263MOL0     C34598   8.849   6.308   0.419 -0.0130 -0.4466 -0.2198
  263MOL0     C34599   8.696   6.300   0.436  0.0253 -0.2530  0.9120
  263MOL0     C34600   8.639   6.333   0.573 -0.0272  0.6903  0.3371
  263MOL0     N34601   8.505   6.264   0.572  0.9351 -0.1950  0.3111
  263MOL0     C34602   8.384   6.318   0.527 -0.0564  0.1332 -0.8194
  263MOL0     C34603   8.308   6.204   0.504 -0.3165 -0.5485  0.5015
  263MOL0     C34604   8.174   6.213   0.439 -0.0112 -0.5597 -0.4578
  263MOL0     C34605   8.057   6.216   0.539  0.0119 -0.1916  0.1155
  263MOL0     C34606   7.986   6.356   0.551 -0.8147 -0.8659 -0.4777
  263MOL0     C34607   7.861   6.357   0.634  0.6524  0.0457 -0.2692
  263MOL0     O34608   7.803   6.490   0.641  0.0595  0.7850 -0.0254
  263MOL0     C34609   7.684   6.516   0.714  0.4506 -0.0013 -0.1852
  263MOL0     C34610   7.609   6.422   0.786 -0.3239  0.3071 -0.4593
  263MOL0     C34611   7.500   6.462   0.862  0.2916 -1.9149  0.4527
  263MOL0     C34612   7.458   6.601   0.863 -0.0844  0.0971 -0.4868
  263MOL0     C34613   7.334   6.649   0.925  0.3228 -0.4085  0.5362
  263MOL0     O34614   7.313   6.781   0.927 -0.1127  0.4579 -0.6685
  263MOL0     C34615   7.197   6.836   0.971 -0.2111  0.1031 -0.2690
  263MOL0     C34616   7.214   6.945   1.059  1.0423 -0.3717  0.3475
  263MOL0     C34617   7.102   7.006   1.118 -0.1745 -0.3779  0.8913
  263MOL0     C34618   6.972   6.962   1.085  0.0037 -0.0231  0.4499
  263MOL0     O34619   6.855   7.026   1.131 -0.5251 -0.0286 -0.2331
  263MOL0     C34620   6.869   7.129   1.230 -0.0447 -0.0867  0.5754
  263MOL0     C34621   6.722   7.196   1.255  0.1319  0.7782  0.8161
  263MOL0     C34622   6.709   7.285   1.373  0.2168 -0.2950 -0.0628
  263MOL0     C34623   6.574   7.370   1.382  0.2000  0.0922 -0.2302
  263MOL0     C34624   6.445   7.285   1.371 -0.3841  0.5439  0.8772
  263MOL0     C34625   6.333   7.383   1.421 -0.4214  0.3594 -0.7777
  263MOL0     C34626   6.204   7.294   1.437  0.0004  0.3820  0.3256
  263MOL0     C34627   6.083   7.372   1.480  0.1155  0.0973  0.8335
  263MOL0    Cl34628   5.939   7.258   1.496  0.1888  0.1681 -0.0945
  263MOL0     C34629   6.958   6.858   0.991  0.5525 -0.0364 -0.4025
  263MOL0     C34630   7.066   6.795   0.941  0.4881  0.0238  0.1651
  263MOL0     O34631   7.263   6.571   0.971 -0.2054  0.0385 -0.2328
  263MOL0     C34632   7.530   6.688   0.786 -0.4754 -0.0742  0.0015
  263MOL0     C34633   7.650   6.650   0.724  0.4114 -1.4773  0.8887
  263MOL0     N34634   8.375   6.090   0.546  0.0675 -0.4063  0.0011
  263MOL0     N34635   8.493   6.130   0.584  0.7958  0.2344 -0.7256
  263MOL0     C34636   9.578   6.571   0.428 -0.4103  1.1347 -0.1180
  263MOL0     C34637   9.636   6.630   0.315  0.7515  0.1059  0.5090
  263MOL0     C34638   9.773   6.701  -0.096 -0.0474 -0.3125 -0.6642
  263MOL0     C34639   9.763   6.846  -0.100 -0.4230  0.3247  0.9237
  263MOL0     C34640   9.822   6.910  -0.208  0.0461  0.4460 -0.5142
  263MOL0     C34641   9.915   6.847  -0.290  0.3739  0.5805  1.0529
  263MOL0     O34642   9.965   6.921  -0.394 -0.6371 -0.7862  0.2782
  263MOL0     C34643  10.075   6.872  -0.472  0.4648  0.3059  0.7914
  263MOL0     C34644  10.138   6.992  -0.544 -0.3458  0.1133  0.3072
  263MOL0     C34645  10.214   7.071  -0.445 -0.0099 -0.1623  0.6991
  263MOL0     C34646  10.293   7.188  -0.516  0.4315  0.7096  0.4277
  263MOL0     C34647  10.429   7.163  -0.549 -0.1963 -0.5843  0.8608
  263MOL0     C34648  10.550   7.153  -0.571  0.1371  0.1859  0.0704
  263MOL0     C34649   9.928   6.708  -0.285 -0.1125 -0.8895 -0.0218
  263MOL0     C34650   9.853   6.640  -0.191 -0.0492 -0.3422  1.0013
  263MOL0     H34651   9.398   6.575   0.083 -2.7234 -2.7124  0.7886
  263MOL0     H34652   9.288   6.461   0.300  1.6354 -1.1495  1.0367
  263MOL0     H34653   9.410   6.278   0.635 -5.3103  1.8583 -0.0692
  263MOL0     H34654   9.530   6.279   0.493 -0.6586 -1.1069  0.5401
  263MOL0     H34655   9.335   6.117   0.446  1.1911  0.0079 -2.3013
  263MOL0     H34656   9.326   6.261   0.354  1.7313  1.1482  0.8189
  263MOL0     H34657   9.158   6.356   0.457  1.2653  0.9083 -0.0617
  263MOL0     H34658   9.168   6.260   0.606  2.3170 -1.1689 -0.3135
  263MOL0     H34659   9.057   6.164   0.337 -1.5646 -2.7935  0.0106
  263MOL0     H34660   9.090   6.065   0.485 -0.5442  0.5957  2.0538
  263MOL0     H34661   8.929   6.215   0.598  1.2496 -4.5982  0.1901
  263MOL0     H34662   8.860   6.101   0.485 -1.1186 -0.3968  4.0877
  263MOL0     H34663   8.878   6.326   0.315 -0.6167 -0.1913 -0.3514
  263MOL0     H34664   8.886   6.393   0.476  1.8728 -1.2463 -0.1882
  263MOL0     H34665   8.662   6.371   0.360  0.9743 -2.4568 -1.7260
  263MOL0     H34666   8.667   6.201   0.400  0.7189 -0.6573  1.4350
  263MOL0     H34667   8.630   6.441   0.582 -0.2782  0.7957 -0.9171
  263MOL0     H34668   8.700   6.285   0.650 -0.4295 -1.0188 -0.3626
  263MOL0     H34669   8.355   6.416   0.490 -0.9430  0.5609  0.8911
  263MOL0     H34670   8.172   6.118   0.385  2.2091 -0.7406 -0.3197
  263MOL0     H34671   8.157   6.292   0.365 -1.1708 -1.4888 -1.2076
  263MOL0     H34672   8.092   6.172   0.632  0.4354 -1.6241 -0.6887
  263MOL0     H34673   7.990   6.140   0.497 -0.2580 -0.9195  1.8000
  263MOL0     H34674   8.052   6.426   0.602 -3.0963  0.9033  0.2120
  263MOL0     H34675   7.960   6.386   0.449  1.2952 -2.3997 -1.5438
  263MOL0     H34676   7.879   6.315   0.734  0.0680 -0.5558 -0.4116
  263MOL0     H34677   7.792   6.294   0.578  2.9971 -0.7422 -2.4369
  263MOL0     H34678   7.631   6.316   0.784  2.7582  0.8671 -0.8274
  263MOL0     H34679   7.431   6.390   0.905 -1.1047 -0.7837  0.1869
  263MOL0     H34680   7.315   6.977   1.082  0.8051 -0.9824  2.5061
  263MOL0     H34681   7.114   7.083   1.194  1.4623  2.2391 -1.7915
  263MOL0     H34682   6.930   7.208   1.185  0.0177 -0.1712  0.5106
  263MOL0     H34683   6.919   7.093   1.321  2.2115 -1.0323 -0.9475
  263MOL0     H34684   6.645   7.122   1.280 -0.0196  1.1353  1.4196
  263MOL0     H34685   6.691   7.257   1.170  0.1543 -0.4848 -0.1357
  263MOL0     H34686   6.790   7.358   1.366 -0.6147  0.8929  1.8615
  263MOL0     H34687   6.724   7.227   1.465  2.6655 -0.6257 -0.5970
  263MOL0     H34688   6.571   7.427   1.475  0.1165  1.4199 -1.0127
  263MOL0     H34689   6.569   7.452   1.309 -1.0167  2.1290  1.9938
  263MOL0     H34690   6.463   7.191   1.424  0.2532 -0.0566 -0.3627
  263MOL0     H34691   6.419   7.259   1.268 -1.7405 -1.0292  1.5677
  263MOL0     H34692   6.319   7.460   1.345 -1.0247  0.6104 -0.4188
  263MOL0     H34693   6.356   7.437   1.513  2.2804 -1.0163 -0.5243
  263MOL0     H34694   6.178   7.253   1.339 -1.8964 -0.6338  1.1930
  263MOL0     H34695   6.222   7.206   1.500  3.2452 -0.9348 -2.2116
  263MOL0     H34696   6.060   7.444   1.401  0.7097 -2.7003 -2.1125
  263MOL0     H34697   6.106   7.423   1.574  0.0121 -1.1926  1.5803
  263MOL0     H34698   6.858   6.828   0.963 -0.2469  1.8086  0.3487
  263MOL0     H34699   7.046   6.704   0.886 -1.0069  0.7520 -0.5636
  263MOL0     H34700   7.504   6.794   0.784 -1.3345 -0.2184 -3.4426
  263MOL0     H34701   7.716   6.722   0.676 -0.8384 -2.2248 -2.1567
  263MOL0     H34702   9.639   6.575   0.518  1.4581  0.5006 -1.3002
  263MOL0     H34703   9.724   6.693   0.322  1.1892 -0.4707  0.3645
  263MOL0     H34704   9.701   6.910  -0.038 -0.1761  2.1443 -0.6177
  263MOL0     H34705   9.837   7.017  -0.218  0.9411  0.5239  1.2191
  263MOL0     H34706  10.047   6.794  -0.544  2.7764  0.3605 -0.2639
  263MOL0     H34707  10.142   6.820  -0.403  0.4998  0.2257  0.6977
  263MOL0     H34708  10.204   6.977  -0.630 -2.4100 -0.0298 -1.3687
  263MOL0     H34709  10.052   7.047  -0.585 -0.2442 -1.4360 -2.2498
  263MOL0     H34710  10.285   7.003  -0.398 -0.0622 -0.7800 -0.0980
  263MOL0     H34711  10.141   7.119  -0.379 -1.8274 -1.5154 -0.2275
  263MOL0     H34712  10.237   7.218  -0.605 -0.1031  0.1596  0.5733
  263MOL0     H34713  10.294   7.282  -0.461  1.5096  2.3555 -2.2354
  263MOL0     H34714  10.655   7.145  -0.593  0.1111  2.1845 -1.0644
  263MOL0     H34715   9.984   6.654  -0.361  0.0622 -1.1395  0.2866
  263MOL0     H34716   9.860   6.532  -0.189  0.5285 -0.3046  1.0884
  264MOL0     O34717  10.379  10.873   7.213  0.2546  0.4852 -0.2216
  264MOL0     C34718  10.370  10.780   7.133  0.2950  0.3672  0.6323
  264MOL0     O34719  10.272  10.745   7.051  0.3396 -0.9444 -0.3606
  264MOL0     C34720  10.164  10.829   7.050 -0.1202  0.0523 -0.4389
  264MOL0     C34721  10.064  10.847   7.151 -0.9518  0.5169 -0.2684
  264MOL0     C34722   9.958  10.929   7.115  0.7994  0.1786  0.0189
  264MOL0     C34723   9.934  10.993   6.996 -0.4947 -0.4312  0.2217
  264MOL0     O34724   9.814  11.053   6.951 -1.1654  0.2482  0.5320
  264MOL0     C34725   9.704  10.966   6.965 -0.0370 -0.4038  0.3325
  264MOL0     C34726   9.597  11.042   7.047  0.2219 -0.8439  0.0706
  264MOL0     C34727   9.474  10.955   7.061  0.1657  0.4483  0.2036
  264MOL0     C34728   9.373  10.996   7.159 -0.0386 -0.8544 -0.0005
  264MOL0     C34729   9.313  11.135   7.132 -1.0184  0.9362  0.4913
  264MOL0     C34730   9.184  11.157   7.217 -0.8053 -0.0691 -0.4270
  264MOL0     C34731   9.119  11.290   7.207 -0.4339 -0.2902  0.2254
  264MOL0     C34732   9.160  11.401   7.313  0.6430 -0.1648  0.2764
  264MOL0     N34733   9.051  11.497   7.312  0.2646 -0.7122  0.4386
  264MOL0     C34734   9.046  11.620   7.253 -0.2036 -0.4442 -0.0022
  264MOL0     C34735   8.932  11.672   7.298  1.2307  0.0951 -0.1924
  264MOL0     C34736   8.897  11.814   7.256 -0.3891  0.4601  0.8278
  264MOL0     C34737   8.791  11.874   7.349 -0.7186 -0.4988 -0.3159
  264MOL0     C34738   8.744  12.014   7.307  0.0369 -0.4470  0.2399
  264MOL0     C34739   8.619  12.063   7.374  0.4262  0.5507  0.1842
  264MOL0     O34740   8.602  12.205   7.373 -0.1251 -0.0092 -0.7173
  264MOL0     C34741   8.478  12.262   7.402 -0.0834 -0.4906 -0.5171
  264MOL0     C34742   8.372  12.192   7.451  0.6567 -0.5080  0.2430
  264MOL0     C34743   8.255  12.254   7.493  0.0648 -0.2154  0.3514
  264MOL0     C34744   8.236  12.393   7.480 -0.1876 -0.7718  0.0196
  264MOL0     C34745   8.097  12.447   7.495 -0.1472  0.2303 -0.1116
  264MOL0     O34746   8.085  12.583   7.477 -0.2073 -0.4842  0.2488
  264MOL0     C34747   7.964  12.651   7.477  0.5852  0.6206  0.4060
  264MOL0     C34748   7.953  12.747   7.375 -0.4278  0.6148 -0.6001
  264MOL0     C34749   7.833  12.819   7.357  0.0075  0.2542  0.1372
  264MOL0     C34750   7.726  12.799   7.438  1.1476 -0.0217  0.2258
  264MOL0     O34751   7.618  12.883   7.419 -0.2018 -0.1509 -0.4769
  264MOL0     C34752   7.583  12.968   7.533 -0.3417  0.7070  0.1446
  264MOL0     C34753   7.494  13.078   7.472 -1.1969  0.8860 -0.9655
  264MOL0     C34754   7.343  13.056   7.465 -1.2767  0.4300  0.4585
  264MOL0     C34755   7.286  13.157   7.362  0.4379 -0.3004 -0.3565
  264MOL0     C34756   7.141  13.142   7.317  1.2428  0.0776  0.4343
  264MOL0     C34757   7.089  13.275   7.262  0.7569 -0.3383 -0.2663
  264MOL0     C34758   6.946  13.252   7.214 -0.5507 -0.1499  0.3826
  264MOL0     C34759   6.844  13.228   7.328  0.3005  0.2130 -0.2796
  264MOL0    Cl34760   6.684  13.191   7.251  0.0622 -0.0411  0.0188
  264MOL0     C34761   7.728  12.709   7.548 -0.1561  1.1939 -0.9848
  264MOL0     C34762   7.845  12.631   7.557 -0.3546 -0.1626 -0.5570
  264MOL0     O34763   8.003  12.370   7.517 -0.2202 -0.1315 -0.7026
  264MOL0     C34764   8.349  12.466   7.438  0.4369 -0.4917  0.2553
  264MOL0     C34765   8.465  12.406   7.405 -0.6560 -0.3591  0.2350
  264MOL0     N34766   8.870  11.586   7.391 -0.1621  1.0373 -0.0831
  264MOL0     N34767   8.937  11.475   7.378  0.1131 -0.1445  0.4909
  264MOL0     C34768  10.027  10.968   6.895 -0.2716 -0.3620 -0.3858
  264MOL0     C34769  10.140  10.890   6.931  0.5594 -0.4040  0.3095
  264MOL0     C34770  10.489  10.701   7.097 -0.5562  0.2475  0.3883
  264MOL0     C34771  10.482  10.584   7.025  0.0731 -0.5325  0.9660
  264MOL0     C34772  10.598  10.512   6.985 -0.5323  0.0323  0.4503
  264MOL0     C34773  10.721  10.563   7.021  0.3975  0.1860  0.4406
  264MOL0     O34774  10.835  10.492   7.002 -0.1313 -0.0843 -0.0306
  264MOL0     C34775  10.953  10.561   6.946  0.3804 -0.3690 -0.2472
  264MOL0     C34776  11.030  10.476   6.838 -0.0256  0.4570  0.0584
  264MOL0     C34777  10.933  10.432   6.730 -0.5173 -0.0116 -0.8185
  264MOL0     C34778  10.993  10.392   6.596  0.3345 -0.1231  0.0719
  264MOL0     C34779  11.075  10.277   6.632 -1.2966 -0.1266 -0.0060
  264MOL0     C34780  11.132  10.173   6.664  0.3477 -0.0356 -0.1216
  264MOL0     C34781  10.724  10.688   7.094 -0.4030  0.6390 -0.1838
  264MOL0     C34782  10.609  10.759   7.135 -0.7583 -0.3127 -0.1144
  264MOL0     H34783  10.077  10.801   7.249 -0.0069 -0.2049 -0.7188
  264MOL0     H34784   9.882  10.942   7.192  1.1497 -3.5271  1.2019
  264MOL0     H34785   9.716  10.865   7.006  0.1759 -1.3619 -1.9508
  264MOL0     H34786   9.663  10.945   6.866 -0.4144 -1.8819  0.7814
  264MOL0     H34787   9.572  11.138   7.002  0.9970 -1.0603 -0.8542
  264MOL0     H34788   9.635  11.053   7.149 -0.6574  0.8263  0.2493
  264MOL0     H34789   9.511  10.856   7.091 -1.7404 -0.9015 -1.5909
  264MOL0     H34790   9.430  10.936   6.962  1.9961 -4.3487 -0.0010
  264MOL0     H34791   9.289  10.927   7.146  0.1097 -0.7680 -1.4971
  264MOL0     H34792   9.413  10.989   7.261 -2.1010 -1.3875  0.8199
  264MOL0     H34793   9.282  11.151   7.029 -1.3474 -2.1740 -0.0008
  264MOL0     H34794   9.386  11.209   7.165 -1.1101 -0.4424  4.3012
  264MOL0     H34795   9.204  11.129   7.321 -1.5932 -2.6843 -0.9132
  264MOL0     H34796   9.117  11.078   7.182  0.9463 -1.0790 -1.6796
  264MOL0     H34797   9.125  11.338   7.109  2.2342  0.5122  0.7045
  264MOL0     H34798   9.011  11.271   7.208 -0.7171  0.7137 -2.5643
  264MOL0     H34799   9.252  11.451   7.283 -0.4681  1.5484 -0.4026
  264MOL0     H34800   9.172  11.352   7.410 -1.9240 -1.2311  0.1547
  264MOL0     H34801   9.126  11.657   7.189 -0.8199 -0.6392 -0.9114
  264MOL0     H34802   8.865  11.816   7.152  0.9098 -1.8531  0.2990
  264MOL0     H34803   8.989  11.871   7.272  1.5692 -1.8330 -1.4279
  264MOL0     H34804   8.834  11.889   7.448  0.8552 -2.1359 -0.6972
  264MOL0     H34805   8.710  11.804   7.371 -0.9873  0.5309  2.3983
  264MOL0     H34806   8.832  12.073   7.336  0.2388 -0.1678 -0.8630
  264MOL0     H34807   8.716  12.003   7.202  1.4347 -0.2936 -0.1764
  264MOL0     H34808   8.623  12.029   7.478  2.0229  2.5391  0.8254
  264MOL0     H34809   8.535  12.008   7.329  1.4612 -2.9013  2.1394
  264MOL0     H34810   8.368  12.084   7.450 -0.5442 -0.5139 -1.9469
  264MOL0     H34811   8.186  12.176   7.521  0.8692 -2.1277 -2.5635
  264MOL0     H34812   8.045  12.757   7.319  1.4815 -2.5737  1.6521
  264MOL0     H34813   7.836  12.902   7.287 -2.6871  1.0017  0.7875
  264MOL0     H34814   7.676  13.005   7.576  0.5758 -1.9173  0.5972
  264MOL0     H34815   7.526  12.915   7.610  2.7366 -1.3726  1.1772
  264MOL0     H34816   7.533  13.096   7.372 -0.9592  1.4257 -0.7815
  264MOL0     H34817   7.519  13.169   7.528  2.9746 -1.3592  1.2488
  264MOL0     H34818   7.296  13.088   7.558 -0.4615 -0.9552  1.3806
  264MOL0     H34819   7.313  12.954   7.440 -0.5161  0.1885  0.5089
  264MOL0     H34820   7.303  13.260   7.393 -2.2992  0.2184 -0.2855
  264MOL0     H34821   7.344  13.154   7.269  1.3069  1.0419  0.1175
  264MOL0     H34822   7.085  13.102   7.403  0.7763  1.2491  0.7013
  264MOL0     H34823   7.127  13.065   7.241 -0.4229  0.6085  0.1535
  264MOL0     H34824   7.147  13.318   7.180 -1.0746 -1.2292 -2.1166
  264MOL0     H34825   7.085  13.352   7.340  1.4387  1.2590 -1.7365
  264MOL0     H34826   6.927  13.332   7.142 -0.8408 -1.1290 -0.6626
  264MOL0     H34827   6.958  13.169   7.144  1.2303 -0.0122  0.4952
  264MOL0     H34828   6.835  13.323   7.381  3.1452 -0.4479  1.6555
  264MOL0     H34829   6.880  13.153   7.399  0.1462 -0.0872 -0.5169
  264MOL0     H34830   7.643  12.691   7.614  0.8236  0.8259  0.2280
  264MOL0     H34831   7.858  12.559   7.638  3.0631 -0.4182 -1.1395
  264MOL0     H34832   8.342  12.567   7.398 -1.8968 -0.3549  0.8486
  264MOL0     H34833   8.561  12.448   7.376  0.4209 -1.4794  1.9694
  264MOL0     H34834  10.028  11.003   6.792 -1.5403 -0.5453 -0.4657
  264MOL0     H34835  10.204  10.862   6.848  2.1171  0.6881  1.1027
  264MOL0     H34836  10.383  10.550   6.997 -1.0578  3.1809 -0.0859
  264MOL0     H34837  10.580  10.424   6.924  1.4065 -0.0203 -0.1086
  264MOL0     H34838  11.033  10.586   7.016 -1.0488 -2.2191  2.2384
  264MOL0     H34839  10.919  10.652   6.897  3.5011  0.3383 -1.2960
  264MOL0     H34840  11.110  10.537   6.796 -0.8512  1.2086 -0.4469
  264MOL0     H34841  11.074  10.390   6.890 -0.1077 -1.0355 -2.2151
  264MOL0     H34842  10.871  10.518   6.704  1.7254  1.8614 -0.3062
  264MOL0     H34843  10.876  10.352   6.779 -1.1229  1.3999  0.9081
  264MOL0     H34844  10.915  10.387   6.519 -1.8215  1.1240  2.0346
  264MOL0     H34845  11.062  10.469   6.561  1.8008  0.3616  3.6324
  264MOL0     H34846  11.183  10.081   6.683 -2.1187 -1.2167  1.2715
  264MOL0     H34847  10.826  10.724   7.101  1.0881 -3.3200  0.9470
  264MOL0     H34848  10.615  10.857   7.180 -2.1130  0.0080 -0.5778
  265MOL0     O34849   9.341   4.969   0.797 -0.1438  0.5340  1.1810
  265MOL0     C34850   9.385   4.898   0.709 -0.0594  0.0070 -0.0187
  265MOL0     O34851   9.323   4.815   0.629  0.5659  0.2205 -0.9372
  265MOL0     C34852   9.191   4.774   0.655 -0.6544 -0.6017  0.7031
  265MOL0     C34853   9.129   4.774   0.787 -0.3116 -0.0149 -0.8478
  265MOL0     C34854   8.993   4.734   0.803  0.1629  0.8417 -0.5234
  265MOL0     C34855   8.920   4.683   0.689 -0.2255  0.4701 -0.8565
  265MOL0     O34856   8.792   4.625   0.701 -0.1183  0.7598 -0.8035
  265MOL0     C34857   8.732   4.625   0.826  0.1220 -0.6638 -0.6208
  265MOL0     C34858   8.585   4.601   0.820  0.6082  0.7354 -0.4548
  265MOL0     C34859   8.507   4.645   0.942 -0.3451 -1.3483  0.5942
  265MOL0     C34860   8.357   4.618   0.927  0.3868 -0.3050  0.3832
  265MOL0     C34861   8.266   4.658   1.053 -0.3229  0.2307  0.7840
  265MOL0     C34862   8.120   4.635   1.017 -0.9674 -0.2114  0.5830
  265MOL0     C34863   8.031   4.651   1.141  0.8283  0.2451 -0.9751
  265MOL0     C34864   7.959   4.783   1.137  0.0687  0.0950 -0.1006
  265MOL0     N34865   7.840   4.796   1.230 -0.5001 -0.1278  0.5252
  265MOL0     C34866   7.790   4.699   1.311  1.0373 -1.6936 -0.4986
  265MOL0     C34867   7.664   4.734   1.349 -0.1067 -0.4159 -1.0884
  265MOL0     C34868   7.578   4.667   1.449 -0.4989  0.9645 -0.8333
  265MOL0     C34869   7.439   4.622   1.398 -0.5040 -0.3565 -0.6091
  265MOL0     C34870   7.446   4.540   1.267  0.2009  0.5957 -0.3274
  265MOL0     C34871   7.305   4.495   1.219 -0.4384  0.0696  0.2809
  265MOL0     O34872   7.240   4.418   1.319 -0.4521  0.3726 -0.7212
  265MOL0     C34873   7.110   4.384   1.297  0.8317  0.1375 -0.0028
  265MOL0     C34874   7.042   4.403   1.178 -0.2384 -0.4834  0.1423
  265MOL0     C34875   6.904   4.370   1.158 -0.4283 -0.3043  0.0910
  265MOL0     C34876   6.828   4.317   1.268 -0.1911  0.0564  0.0110
  265MOL0     C34877   6.684   4.297   1.254 -0.0707 -1.0452  0.5844
  265MOL0     O34878   6.629   4.219   1.352 -0.5036  0.6251  0.3349
  265MOL0     C34879   6.493   4.227   1.369 -0.6159 -0.0998  1.2788
  265MOL0     C34880   6.396   4.253   1.263  0.2091  0.5372  0.3674
  265MOL0     C34881   6.263   4.255   1.294 -0.5324 -0.0667 -0.8506
  265MOL0     C34882   6.224   4.246   1.433  0.2436 -0.1736  0.6125
  265MOL0     O34883   6.086   4.257   1.453  0.1514  0.0549 -0.2803
  265MOL0     C34884   6.041   4.308   1.582  0.2360 -0.4389  0.1614
  265MOL0     C34885   5.897   4.351   1.581 -0.1662  0.1587 -0.2874
  265MOL0     C34886   5.835   4.381   1.722 -0.2109 -0.6883  0.0347
  265MOL0     C34887   5.697   4.452   1.712  0.4903  0.2025  0.1240
  265MOL0     C34888   5.592   4.395   1.618  0.4060 -0.1022  0.0548
  265MOL0     C34889   5.469   4.481   1.614  0.1514 -0.1608  0.0665
  265MOL0     C34890   5.489   4.625   1.560 -0.0432 -0.0076  0.2459
  265MOL0     C34891   5.358   4.689   1.509 -0.3354 -0.1758  0.1368
  265MOL0    Cl34892   5.408   4.830   1.409  0.5298 -0.3228  0.0973
  265MOL0     C34893   6.320   4.216   1.536  0.5202 -0.4908 -0.8039
  265MOL0     C34894   6.452   4.198   1.500  0.2043 -0.0255  0.4266
  265MOL0     O34895   6.625   4.350   1.157 -0.8573 -0.2331  0.2359
  265MOL0     C34896   6.892   4.291   1.391 -0.0567  0.3435  1.0039
  265MOL0     C34897   7.030   4.332   1.403 -0.3652  0.0996  0.4221
  265MOL0     N34898   7.642   4.855   1.289  0.8823  0.1487 -0.1944
  265MOL0     N34899   7.745   4.887   1.217  1.0087  0.6474  0.3012
  265MOL0     C34900   8.981   4.680   0.566 -0.3554  0.0094  0.1219
  265MOL0     C34901   9.112   4.724   0.545  0.3963 -0.7975  0.4777
  265MOL0     C34902   9.533   4.903   0.686  0.0607 -0.6912 -0.2310
  265MOL0     C34903   9.596   4.835   0.578 -0.0728  0.7928 -0.7381
  265MOL0     C34904   9.732   4.850   0.560 -0.0885 -0.6336  1.4679
  265MOL0     C34905   9.808   4.937   0.640 -0.8025  0.7627 -0.3691
  265MOL0     O34906   9.945   4.962   0.613 -0.2211 -0.4214 -0.1952
  265MOL0     C34907  10.022   5.071   0.658  0.5014 -0.0568  0.3244
  265MOL0     C34908  10.175   5.064   0.628  0.5868  0.8857 -0.3797
  265MOL0     C34909  10.246   4.935   0.684 -0.4308 -0.5303 -0.2007
  265MOL0     C34910  10.400   4.935   0.660 -0.1427 -0.5421  0.3062
  265MOL0     C34911  10.444   4.975   0.520 -0.3579 -0.0229 -0.4279
  265MOL0     C34912  10.478   5.017   0.411  1.1342 -0.1457  0.1007
  265MOL0     C34913   9.741   4.998   0.751 -0.2686 -0.2377  0.3671
  265MOL0     C34914   9.606   4.989   0.775 -1.2759 -0.2567  0.1428
  265MOL0     H34915   9.172   4.807   0.881 -1.5845 -0.6034 -0.0171
  265MOL0     H34916   8.953   4.738   0.905  1.9769  1.5184  0.1958
  265MOL0     H34917   8.746   4.723   0.872  0.0299 -0.8871 -0.1041
  265MOL0     H34918   8.789   4.554   0.888  1.4582  0.4643 -0.5057
  265MOL0     H34919   8.565   4.493   0.816 -3.6126  1.3801 -0.8134
  265MOL0     H34920   8.550   4.649   0.728 -1.7324 -0.7594 -0.4116
  265MOL0     H34921   8.531   4.750   0.963  0.2827 -1.8273  2.5384
  265MOL0     H34922   8.543   4.588   1.029  0.1458 -0.3548  1.0681
  265MOL0     H34923   8.327   4.667   0.834  1.4520 -1.5940 -0.6828
  265MOL0     H34924   8.337   4.511   0.915 -2.6245 -0.0650  2.2735
  265MOL0     H34925   8.278   4.765   1.076  0.0043 -0.1834  2.7087
  265MOL0     H34926   8.293   4.602   1.143  0.1092  0.7029  0.9594
  265MOL0     H34927   8.116   4.529   0.990  0.6717 -1.1957  3.6872
  265MOL0     H34928   8.102   4.694   0.927  0.2896 -0.3095  0.2514
  265MOL0     H34929   7.953   4.575   1.135 -0.5215  1.4302  0.6073
  265MOL0     H34930   8.082   4.632   1.236 -1.7790 -1.8639  0.1286
  265MOL0     H34931   7.912   4.801   1.039  0.9833 -0.5613 -0.6684
  265MOL0     H34932   8.033   4.860   1.161 -1.5320  1.2280  1.4629
  265MOL0     H34933   7.848   4.613   1.341  1.4025 -1.8763 -1.6685
  265MOL0     H34934   7.561   4.745   1.524  1.9657 -0.5614  1.4819
  265MOL0     H34935   7.635   4.586   1.496  0.0390  0.9226 -1.5332
  265MOL0     H34936   7.384   4.712   1.370 -0.2931 -0.4709 -1.4167
  265MOL0     H34937   7.389   4.561   1.473 -1.2527  0.3145 -0.5481
  265MOL0     H34938   7.508   4.585   1.188 -0.4452  0.0990 -1.1393
  265MOL0     H34939   7.497   4.447   1.293 -1.0397 -0.0575 -0.1959
  265MOL0     H34940   7.316   4.439   1.126  2.8743  0.6382  0.2050
  265MOL0     H34941   7.243   4.583   1.196 -0.3485 -0.1596 -0.9202
  265MOL0     H34942   7.087   4.450   1.092  0.6640  0.7063  1.2279
  265MOL0     H34943   6.852   4.390   1.065 -1.1630 -1.9615  0.1221
  265MOL0     H34944   6.415   4.263   1.156 -0.7951  2.5986  0.3248
  265MOL0     H34945   6.183   4.271   1.223 -1.9757  4.0081  1.3629
  265MOL0     H34946   6.097   4.396   1.615 -1.0997  0.3336  0.4108
  265MOL0     H34947   6.052   4.230   1.657  2.0084 -1.6116 -1.2275
  265MOL0     H34948   5.843   4.265   1.542 -2.7599  0.7502  1.7321
  265MOL0     H34949   5.897   4.440   1.517 -1.2283 -0.5002 -1.2322
  265MOL0     H34950   5.900   4.438   1.789 -1.0218 -0.6455  0.7944
  265MOL0     H34951   5.812   4.291   1.779  1.8865  0.0757  2.2781
  265MOL0     H34952   5.656   4.452   1.814  0.5798  0.7815  0.1626
  265MOL0     H34953   5.708   4.557   1.684  2.5748  0.3674  1.3473
  265MOL0     H34954   5.560   4.295   1.647 -2.1234  1.5670  3.7970
  265MOL0     H34955   5.623   4.391   1.513 -0.4411 -0.0273 -0.2078
  265MOL0     H34956   5.435   4.498   1.717  3.8967 -1.0865  1.6289
  265MOL0     H34957   5.397   4.420   1.560 -1.2116  2.5398 -1.4029
  265MOL0     H34958   5.521   4.694   1.639 -4.4735  1.1271  1.3306
  265MOL0     H34959   5.568   4.615   1.485  1.5026 -0.8750  1.8960
  265MOL0     H34960   5.295   4.728   1.589  0.8638 -0.3421  1.2094
  265MOL0     H34961   5.301   4.610   1.460  0.4269  0.1696 -1.3806
  265MOL0     H34962   6.288   4.182   1.634  1.7658 -5.2471 -1.7868
  265MOL0     H34963   6.522   4.180   1.581  1.4972 -3.0183 -1.2096
  265MOL0     H34964   6.837   4.251   1.476  0.1703  0.5498  1.2492
  265MOL0     H34965   7.092   4.334   1.492  3.3373 -1.5701 -1.9041
  265MOL0     H34966   8.934   4.643   0.476  0.6496 -0.7808 -0.0931
  265MOL0     H34967   9.160   4.711   0.449 -1.9474  2.1215 -1.2750
  265MOL0     H34968   9.537   4.773   0.512  1.6541 -0.6507 -1.0009
  265MOL0     H34969   9.777   4.797   0.476 -1.3286 -1.7285  1.4728
  265MOL0     H34970  10.008   5.083   0.766 -1.3961  1.7879 -0.0522
  265MOL0     H34971   9.981   5.164   0.617 -0.6279  0.4702  2.4561
  265MOL0     H34972  10.188   5.076   0.520 -3.2482 -0.7722 -1.2037
  265MOL0     H34973  10.198   5.151   0.690 -1.0813 -0.2237  1.9650
  265MOL0     H34974  10.207   4.847   0.632  0.5517 -1.5300  0.7053
  265MOL0     H34975  10.219   4.926   0.790  0.3360 -2.9571 -0.1601
  265MOL0     H34976  10.438   5.012   0.727  0.2119  1.6426 -2.2066
  265MOL0     H34977  10.432   4.833   0.685  0.1307 -0.1749  1.4662
  265MOL0     H34978  10.511   5.058   0.318 -0.2921  2.8006  0.7940
  265MOL0     H34979   9.789   5.065   0.822  1.5996 -2.6298  1.4792
  265MOL0     H34980   9.566   5.037   0.863  1.0285  0.3549  0.9346
  266MOL0     O34981   0.502  11.141   7.117  0.4870  0.5345  0.3273
  266MOL0     C34982   0.614  11.159   7.146  0.1122  0.3929 -0.3078
  266MOL0     O34983   0.667  11.163   7.272 -0.1813  0.2301  0.0818
  266MOL0     C34984   0.585  11.114   7.372 -0.1541  0.3910  0.6710
  266MOL0     C34985   0.586  10.982   7.404  0.1495 -0.2248  0.5233
  266MOL0     C34986   0.514  10.940   7.513 -0.4711  0.3078 -0.2439
  266MOL0     C34987   0.460  11.029   7.610  0.3340 -0.2549 -0.1342
  266MOL0     O34988   0.414  10.987   7.737 -0.0253 -0.6240 -0.5419
  266MOL0     C34989   0.330  11.087   7.813 -0.4262  0.1237  0.1089
  266MOL0     C34990   0.188  11.113   7.749  0.4368  0.1919 -1.3452
  266MOL0     C34991   0.100  11.189   7.851 -0.3251  0.4470  1.0084
  266MOL0     C34992  -0.034  11.217   7.791 -0.1160  0.7528  0.6969
  266MOL0     C34993  -0.102  11.311   7.894 -0.9640 -0.0297 -0.5164
  266MOL0     C34994  -0.224  11.367   7.839  0.3494 -0.5530 -0.7411
  266MOL0     C34995  -0.286  11.457   7.949  0.5826 -0.6365 -0.5028
  266MOL0     C34996  -0.401  11.547   7.895 -0.9852  0.7063  0.5850
  266MOL0     N34997  -0.517  11.473   7.856 -0.6733 -0.6898  0.2736
  266MOL0     C34998  -0.620  11.425   7.925  0.7126 -1.0575 -0.3681
  266MOL0     C34999  -0.700  11.367   7.830 -0.1149  0.1113 -0.3691
  266MOL0     C35000  -0.825  11.286   7.846 -0.0768 -0.3940  0.1510
  266MOL0     C35001  -0.934  11.393   7.873 -0.6743  0.7406  0.4248
  266MOL0     C35002  -1.067  11.346   7.815 -0.0372  0.7637  0.0491
  266MOL0     C35003  -1.160  11.461   7.839  0.5444 -0.2642 -0.0410
  266MOL0     O35004  -1.300  11.419   7.823  0.2550  0.1760  0.4433
  266MOL0     C35005  -1.399  11.506   7.858  0.2461  0.1738  0.3714
  266MOL0     C35006  -1.385  11.644   7.876 -0.2028 -0.2398 -0.5212
  266MOL0     C35007  -1.502  11.714   7.923 -0.5074  0.2070  0.1622
  266MOL0     C35008  -1.627  11.658   7.904  0.1247 -0.0214 -0.5910
  266MOL0     C35009  -1.737  11.741   7.959  0.1004 -0.5235  0.4899
  266MOL0     O35010  -1.716  11.844   8.044 -0.4771  0.0895  0.2303
  266MOL0     C35011  -1.820  11.893   8.111 -0.1931  0.1374 -0.4984
  266MOL0     C35012  -1.909  11.814   8.181 -0.6561  1.0866  0.0396
  266MOL0     C35013  -2.016  11.870   8.246 -0.0026  0.3920 -1.6023
  266MOL0     C35014  -2.043  12.001   8.247  0.2141  0.2940  0.3941
  266MOL0     O35015  -2.162  12.035   8.282  0.2402  0.0407 -0.7326
  266MOL0     C35016  -2.239  12.125   8.194  0.5865 -0.3451  0.7315
  266MOL0     C35017  -2.380  12.119   8.236  0.3170 -0.1923  0.7501
  266MOL0     C35018  -2.473  12.210   8.147 -0.5242  0.1790 -0.0258
  266MOL0     C35019  -2.617  12.195   8.198  0.3810  0.1861 -0.0735
  266MOL0     C35020  -2.716  12.222   8.092 -0.0829 -0.0780  0.7772
  266MOL0     C35021  -2.863  12.216   8.146 -0.1632 -0.2850  0.2590
  266MOL0     C35022  -2.924  12.087   8.186 -0.0960  0.3586 -0.3166
  266MOL0     C35023  -3.069  12.101   8.219 -0.3116  0.1272  0.6716
  266MOL0    Cl35024  -3.084  12.195   8.372 -0.0305 -0.1205 -0.1567
  266MOL0     C35025  -1.946  12.090   8.190  0.2339 -0.4709 -0.1754
  266MOL0     C35026  -1.832  12.030   8.119  0.2718 -0.5502 -0.8766
  266MOL0     O35027  -1.849  11.715   7.908  0.4137 -0.3586  0.5991
  266MOL0     C35028  -1.644  11.528   7.870 -0.3947  0.3012  0.0837
  266MOL0     C35029  -1.528  11.449   7.865  0.0932 -0.4694  0.3692
  266MOL0     N35030  -0.639  11.391   7.708  0.2219  0.4826 -0.5502
  266MOL0     N35031  -0.530  11.459   7.724  0.3776 -0.7700 -0.1664
  266MOL0     C35032   0.474  11.167   7.572 -0.0621 -0.0207  0.2688
  266MOL0     C35033   0.528  11.208   7.454  0.4912 -0.2011 -0.8960
  266MOL0     C35034   0.700  11.201   7.037  0.7588  0.8314  0.5751
  266MOL0     C35035   0.835  11.223   7.062  0.3183 -0.0584 -0.3984
  266MOL0     C35036   0.926  11.256   6.966 -0.9012  0.5176 -0.2105
  266MOL0     C35037   0.886  11.266   6.833 -0.6605 -0.1678  0.2314
  266MOL0     O35038   0.967  11.298   6.727  0.2384 -0.0968 -0.0866
  266MOL0     C35039   1.109  11.301   6.754 -0.5119 -0.1486  0.9009
  266MOL0     C35040   1.191  11.352   6.639 -0.0743  0.1867  0.4943
  266MOL0     C35041   1.184  11.263   6.511 -0.9401  0.3178 -0.3688
  266MOL0     C35042   1.307  11.285   6.423  0.2164 -0.2439 -0.3349
  266MOL0     C35043   1.434  11.226   6.472 -0.4020  0.1924  0.7397
  266MOL0     C35044   1.537  11.183   6.500 -0.1929 -0.0707  0.5159
  266MOL0     C35045   0.751  11.248   6.805 -0.3093  0.0070 -0.4055
  266MOL0     C35046   0.657  11.221   6.905  0.3181  0.1414 -1.2046
  266MOL0     H35047   0.640  10.922   7.331 -1.7582 -0.2164 -0.9616
  266MOL0     H35048   0.513  10.832   7.524 -2.1906  0.2730 -0.5148
  266MOL0     H35049   0.375  11.186   7.825 -0.6069  0.2993 -0.6019
  266MOL0     H35050   0.324  11.061   7.919  3.1951  1.4189  0.7728
  266MOL0     H35051   0.126  11.024   7.740 -2.2269  1.5113  1.8927
  266MOL0     H35052   0.196  11.167   7.654  2.1484  2.3119 -0.1024
  266MOL0     H35053   0.163  11.275   7.874  0.3594  0.0406  0.7017
  266MOL0     H35054   0.097  11.134   7.946  3.1323 -0.1801  0.8965
  266MOL0     H35055  -0.029  11.274   7.697  1.5718  0.5191  0.6108
  266MOL0     H35056  -0.092  11.124   7.784  0.6009  0.3559 -0.2495
  266MOL0     H35057  -0.032  11.390   7.921 -0.6044 -0.0443 -1.3812
  266MOL0     H35058  -0.131  11.252   7.982 -3.3220  0.8237 -0.6406
  266MOL0     H35059  -0.293  11.289   7.804  0.4312 -0.2911 -1.5145
  266MOL0     H35060  -0.187  11.433   7.760  3.9159  1.4651  2.3112
  266MOL0     H35061  -0.335  11.393   8.024  0.5422  1.6461  1.5097
  266MOL0     H35062  -0.213  11.515   8.005 -0.3605  2.3410 -2.1153
  266MOL0     H35063  -0.365  11.609   7.812  0.9584 -0.6034  0.3827
  266MOL0     H35064  -0.429  11.612   7.979 -2.3973 -1.1474  1.5990
  266MOL0     H35065  -0.631  11.423   8.033 -0.1825  1.4150 -0.3477
  266MOL0     H35066  -0.826  11.222   7.935  0.4675  0.6721  0.9508
  266MOL0     H35067  -0.851  11.234   7.754  1.4353 -2.6213  0.9094
  266MOL0     H35068  -0.911  11.487   7.822 -1.6929  0.3697 -0.7466
  266MOL0     H35069  -0.946  11.409   7.981  0.5204  2.6273  0.3258
  266MOL0     H35070  -1.049  11.306   7.715 -1.0541 -2.3370  0.9961
  266MOL0     H35071  -1.108  11.259   7.866 -1.4033  0.6445 -1.1805
  266MOL0     H35072  -1.126  11.541   7.773  1.8961 -1.2303 -0.5613
  266MOL0     H35073  -1.152  11.491   7.943  3.2216 -1.5552  0.2078
  266MOL0     H35074  -1.289  11.694   7.871  0.2429 -1.1704 -1.6093
  266MOL0     H35075  -1.491  11.818   7.955  0.9630  1.1683 -3.0863
  266MOL0     H35076  -1.883  11.710   8.193 -1.1295  0.5701 -2.6014
  266MOL0     H35077  -2.079  11.811   8.312  1.6103  0.4262  0.0448
  266MOL0     H35078  -2.239  12.093   8.089  0.1023 -1.3118  1.0131
  266MOL0     H35079  -2.200  12.227   8.204  2.0540 -0.9774  1.8277
  266MOL0     H35080  -2.400  12.155   8.338  1.3719  1.2758  0.4597
  266MOL0     H35081  -2.413  12.016   8.222  1.2894 -0.2982 -0.9826
  266MOL0     H35082  -2.481  12.182   8.041 -1.6748  0.0138  0.0825
  266MOL0     H35083  -2.445  12.316   8.146 -0.3519  0.1398  0.4250
  266MOL0     H35084  -2.643  12.096   8.236  0.2810  0.8719  1.7524
  266MOL0     H35085  -2.631  12.259   8.285 -2.6859 -1.2556  0.6426
  266MOL0     H35086  -2.701  12.151   8.010 -0.4189  1.6714 -0.8692
  266MOL0     H35087  -2.706  12.327   8.063 -2.0910  0.4088  1.6584
  266MOL0     H35088  -2.906  12.269   8.060  3.1942  3.7017  0.7311
  266MOL0     H35089  -2.885  12.286   8.228 -0.2301  1.9158 -1.5481
  266MOL0     H35090  -2.929  12.021   8.099 -0.6452 -1.5335  1.0850
  266MOL0     H35091  -2.877  12.042   8.274 -1.8599 -0.2943  0.3395
  266MOL0     H35092  -3.112  12.004   8.243 -0.5916  1.0640  4.7737
  266MOL0     H35093  -3.120  12.152   8.137  0.5300  0.1549  0.1558
  266MOL0     H35094  -1.972  12.195   8.187  2.7962  0.2772  1.1658
  266MOL0     H35095  -1.760  12.084   8.059 -1.3502 -1.7632 -4.1324
  266MOL0     H35096  -1.748  11.502   7.851 -1.4454  4.2493 -0.5080
  266MOL0     H35097  -1.551  11.346   7.842  0.1044  0.1847 -3.0161
  266MOL0     H35098   0.432  11.249   7.630  0.1693  0.2149  0.1059
  266MOL0     H35099   0.530  11.313   7.429  0.7541  0.1123  0.3787
  266MOL0     H35100   0.866  11.223   7.166  1.3515 -1.3779 -0.6903
  266MOL0     H35101   1.028  11.265   7.002 -0.6346 -0.7252 -0.6052
  266MOL0     H35102   1.144  11.202   6.782  0.1917 -1.2980 -3.3431
  266MOL0     H35103   1.127  11.372   6.836 -1.1072  2.5960 -1.1932
  266MOL0     H35104   1.158  11.454   6.615  1.4704  0.7154  0.5094
  266MOL0     H35105   1.298  11.354   6.659  0.1469 -1.2890 -0.3580
  266MOL0     H35106   1.103  11.297   6.446 -0.0997 -1.2498 -2.3471
  266MOL0     H35107   1.173  11.158   6.539  3.7727  0.0051  1.2143
  266MOL0     H35108   1.288  11.261   6.318 -4.2146 -2.0883  0.6408
  266MOL0     H35109   1.309  11.394   6.412 -3.5641 -0.1836 -2.1751
  266MOL0     H35110   1.634  11.170   6.544 -0.3726 -0.9869  0.6580
  266MOL0     H35111   0.724  11.280   6.705  0.8604 -0.3133 -0.8415
  266MOL0     H35112   0.553  11.206   6.876 -0.0896  3.0971 -1.5202
  267MOL0     O35113   1.567   5.073   9.397  0.3584 -0.1219  0.2304
  267MOL0     C35114   1.517   5.000   9.476  0.1676  0.6270 -0.2622
  267MOL0     O35115   1.576   4.893   9.533 -0.3223 -0.2000  0.1308
  267MOL0     C35116   1.699   4.862   9.494 -0.0084 -0.2095 -0.3079
  267MOL0     C35117   1.718   4.778   9.391 -1.1030  0.6173 -0.6235
  267MOL0     C35118   1.853   4.754   9.354  0.0663 -0.3493 -0.5404
  267MOL0     C35119   1.968   4.804   9.421  0.4642 -0.4654 -0.7082
  267MOL0     O35120   2.088   4.782   9.364 -0.1806 -0.0665  0.0852
  267MOL0     C35121   2.199   4.871   9.387  0.1886  0.3195 -0.2024
  267MOL0     C35122   2.177   5.011   9.339  0.3777  0.0408  0.1245
  267MOL0     C35123   2.135   5.019   9.191 -0.0807 -0.1205  0.2554
  267MOL0     C35124   2.137   5.160   9.123 -0.8532  0.0820 -0.0311
  267MOL0     C35125   2.100   5.162   8.969 -0.4760  0.1219 -0.1624
  267MOL0     C35126   2.210   5.098   8.889 -0.3574  0.1933  0.4484
  267MOL0     C35127   2.192   5.115   8.743 -0.5329 -0.1125  0.3586
  267MOL0     C35128   2.189   5.263   8.699 -0.4881 -0.1828  0.0477
  267MOL0     N35129   2.152   5.268   8.553  0.0897 -0.1838  0.0056
  267MOL0     C35130   2.051   5.343   8.483 -0.5905 -0.6360 -0.0774
  267MOL0     C35131   2.064   5.314   8.352 -0.1521  0.5569  0.2966
  267MOL0     C35132   1.975   5.364   8.238  1.2734  0.2075 -1.3371
  267MOL0     C35133   2.041   5.459   8.155  0.3993 -0.3754  0.0847
  267MOL0     C35134   1.948   5.500   8.047  0.2492  0.4092  1.0906
  267MOL0     C35135   2.016   5.617   7.957  1.0026  0.8044  0.1621
  267MOL0     O35136   1.921   5.640   7.847 -0.4077 -0.2498  0.2322
  267MOL0     C35137   1.962   5.734   7.758 -0.0405 -0.2769 -0.8793
  267MOL0     C35138   2.088   5.792   7.763 -0.7953 -1.6061  0.3286
  267MOL0     C35139   2.124   5.876   7.662 -0.5672 -0.1534  0.4197
  267MOL0     C35140   2.030   5.931   7.581 -0.4785  0.5148 -0.1662
  267MOL0     C35141   2.060   6.035   7.489 -1.0399 -0.8759  0.5924
  267MOL0     O35142   1.970   6.058   7.385  0.1523  0.8059 -0.2188
  267MOL0     C35143   1.948   6.183   7.322 -0.1916  1.0635 -0.2770
  267MOL0     C35144   2.006   6.300   7.370  0.2208  0.0894 -0.2175
  267MOL0     C35145   1.987   6.430   7.300  0.0280 -0.7665  0.3577
  267MOL0     C35146   1.905   6.437   7.188  0.3674 -0.7872 -0.2719
  267MOL0     O35147   1.882   6.549   7.113  0.2650  0.1332  0.4119
  267MOL0     C35148   2.002   6.604   7.057 -0.5692 -0.0538 -0.3486
  267MOL0     C35149   2.043   6.517   6.938  0.4515  0.6265  0.6295
  267MOL0     C35150   1.938   6.509   6.826  0.2642  0.1388  0.8665
  267MOL0     C35151   1.940   6.643   6.749  0.9029  0.0369  0.8389
  267MOL0     C35152   1.854   6.641   6.617 -0.4135 -0.7129 -0.3851
  267MOL0     C35153   1.864   6.771   6.536  0.7290 -0.7577 -0.1257
  267MOL0     C35154   1.783   6.752   6.399  0.4357 -0.0893 -0.8562
  267MOL0     C35155   1.848   6.816   6.283 -0.4035 -0.0772 -0.5875
  267MOL0    Cl35156   1.865   6.988   6.312  0.4056  0.1817 -0.1681
  267MOL0     C35157   1.851   6.318   7.156  0.3870  0.2215  0.5602
  267MOL0     C35158   1.882   6.187   7.203  0.4819  0.6771 -0.3303
  267MOL0     O35159   2.159   6.108   7.515 -0.0959  0.1424 -0.2550
  267MOL0     C35160   1.898   5.879   7.578  0.1486  0.5848 -0.1902
  267MOL0     C35161   1.862   5.782   7.670 -0.1166 -0.3012  0.5684
  267MOL0     N35162   2.181   5.231   8.334  0.6652  0.2853 -0.4430
  267MOL0     N35163   2.228   5.200   8.457  0.7032 -0.4209  0.2606
  267MOL0     C35164   1.942   4.875   9.539 -0.2680 -0.4679  0.2958
  267MOL0     C35165   1.810   4.913   9.574  0.1352  0.1901  0.0104
  267MOL0     C35166   1.373   5.017   9.513  0.2886  0.0292 -0.4138
  267MOL0     C35167   1.310   4.922   9.600  0.9498  0.6615  0.8001
  267MOL0     C35168   1.174   4.932   9.624 -0.3926 -0.0986  1.1330
  267MOL0     C35169   1.097   5.032   9.574  0.8751  0.0337 -0.7483
  267MOL0     O35170   0.963   5.066   9.606 -0.3788  0.7025  0.1311
  267MOL0     C35171   0.874   4.965   9.670 -0.3925  0.2281  0.6904
  267MOL0     C35172   0.851   4.848   9.567  0.9415  0.3357 -0.2018
  267MOL0     C35173   0.750   4.897   9.462  0.1986  0.8926 -0.5578
  267MOL0     C35174   0.742   4.801   9.347  0.0058 -0.2251 -0.6508
  267MOL0     C35175   0.641   4.844   9.246 -0.0007  0.2056 -0.2006
  267MOL0     C35176   0.564   4.893   9.168  1.3333  0.8655 -0.6093
  267MOL0     C35177   1.163   5.131   9.498 -0.3817 -0.1110 -0.4595
  267MOL0     C35178   1.295   5.121   9.459  0.1609  0.1812  0.5741
  267MOL0     H35179   1.633   4.735   9.339 -0.1099 -1.8853 -0.3075
  267MOL0     H35180   1.874   4.703   9.260  0.4133  1.8501 -1.7118
  267MOL0     H35181   2.284   4.835   9.327 -1.0109 -1.0980 -1.1399
  267MOL0     H35182   2.233   4.857   9.490 -0.0585  0.5158 -0.0948
  267MOL0     H35183   2.277   5.053   9.346  1.6928 -2.8667  0.1761
  267MOL0     H35184   2.100   5.064   9.396 -0.4118 -2.3631  1.4512
  267MOL0     H35185   2.039   4.967   9.186 -0.7709  0.9927  1.5128
  267MOL0     H35186   2.202   4.959   9.129 -3.1443 -1.9189 -1.5429
  267MOL0     H35187   2.067   5.224   9.177  0.6711  2.0169 -0.2364
  267MOL0     H35188   2.238   5.198   9.139 -1.0627  0.2452  0.9857
  267MOL0     H35189   2.073   5.264   8.941 -4.0029 -0.4664  0.5287
  267MOL0     H35190   2.008   5.103   8.960 -1.1621  0.9971  0.8468
  267MOL0     H35191   2.212   4.990   8.906  2.8339 -0.8081 -4.2161
  267MOL0     H35192   2.305   5.146   8.915 -1.3709  2.6130 -0.0036
  267MOL0     H35193   2.275   5.069   8.689 -2.3906 -0.4111 -2.4381
  267MOL0     H35194   2.103   5.058   8.714 -1.0579 -0.3255  2.2215
  267MOL0     H35195   2.290   5.301   8.717 -1.4761  2.0345  1.3245
  267MOL0     H35196   2.120   5.320   8.761  0.4972  0.2609  0.7546
  267MOL0     H35197   1.980   5.408   8.532 -0.6680 -0.6854 -0.1213
  267MOL0     H35198   1.884   5.410   8.277  1.5285 -0.7714  0.4873
  267MOL0     H35199   1.932   5.278   8.186  0.3050 -0.1735  0.0604
  267MOL0     H35200   2.135   5.424   8.112  0.5364 -0.7086  0.6435
  267MOL0     H35201   2.062   5.551   8.209 -0.6268 -1.2155  2.0190
  267MOL0     H35202   1.932   5.416   7.979  0.0089  0.5358  0.9856
  267MOL0     H35203   1.849   5.526   8.085  0.2992  1.0317  0.8211
  267MOL0     H35204   2.105   5.577   7.906  1.4799 -0.1648  1.6816
  267MOL0     H35205   2.039   5.705   8.018 -3.3969  1.4948  1.1040
  267MOL0     H35206   2.171   5.762   7.826  0.4222  1.3723  0.3204
  267MOL0     H35207   2.227   5.905   7.649 -0.9883  0.2821 -2.5796
  267MOL0     H35208   2.054   6.300   7.467 -2.3796 -1.5389  1.1906
  267MOL0     H35209   2.028   6.518   7.348 -0.5397 -1.1872  1.6577
  267MOL0     H35210   2.083   6.598   7.130  0.5110 -0.4435 -1.5358
  267MOL0     H35211   1.995   6.708   7.023  0.8020 -0.0425 -0.6666
  267MOL0     H35212   2.065   6.413   6.965 -2.9777 -0.5697 -0.6395
  267MOL0     H35213   2.134   6.563   6.899  0.1685  2.1024  1.6350
  267MOL0     H35214   1.838   6.477   6.857  0.0543 -0.6781 -0.5849
  267MOL0     H35215   1.968   6.427   6.761  1.1459  1.5142 -0.5097
  267MOL0     H35216   1.893   6.721   6.809 -1.8606 -0.0096 -1.1080
  267MOL0     H35217   2.039   6.676   6.715  1.7599 -3.5420 -0.5740
  267MOL0     H35218   1.752   6.603   6.626 -0.2772 -0.9876  0.0424
  267MOL0     H35219   1.899   6.568   6.549  1.5230  0.5196 -0.4833
  267MOL0     H35220   1.966   6.801   6.509  1.4769 -0.8472  2.3515
  267MOL0     H35221   1.818   6.852   6.594  2.4084 -1.3839  2.2627
  267MOL0     H35222   1.779   6.646   6.373 -2.4712 -0.3659  0.3332
  267MOL0     H35223   1.683   6.794   6.415  0.6320  2.1216 -4.3550
  267MOL0     H35224   1.783   6.817   6.195 -0.7536  2.2185 -0.3557
  267MOL0     H35225   1.944   6.763   6.278  0.1614  0.7549  0.8856
  267MOL0     H35226   1.799   6.322   7.061 -1.1086  0.0041  1.3414
  267MOL0     H35227   1.851   6.092   7.162 -2.3095  0.4226  2.0366
  267MOL0     H35228   1.817   5.920   7.518  1.6462  1.2636 -1.8645
  267MOL0     H35229   1.764   5.737   7.687  1.3612 -3.5084  1.2574
  267MOL0     H35230   2.024   4.913   9.599 -1.1942 -0.5110  1.6446
  267MOL0     H35231   1.799   4.972   9.664 -0.2191 -0.2477  0.2567
  267MOL0     H35232   1.367   4.841   9.644 -0.0339 -1.3733 -1.4766
  267MOL0     H35233   1.119   4.863   9.687 -1.2329 -2.5188 -2.0212
  267MOL0     H35234   0.779   5.006   9.703  0.5474  1.2801  2.2251
  267MOL0     H35235   0.912   4.925   9.764  1.5850 -0.7897 -0.4680
  267MOL0     H35236   0.944   4.814   9.521 -0.5986 -2.6983 -1.3599
  267MOL0     H35237   0.817   4.756   9.615  0.8469  0.0600 -0.7899
  267MOL0     H35238   0.779   4.993   9.419 -1.1085  0.8741 -1.5269
  267MOL0     H35239   0.653   4.917   9.508  1.3568  1.5139  1.7585
  267MOL0     H35240   0.844   4.804   9.306  1.5701  0.3324  2.9428
  267MOL0     H35241   0.725   4.696   9.373 -1.3497  0.1810  0.1720
  267MOL0     H35242   0.492   4.911   9.091  0.7827 -0.5846 -0.4655
  267MOL0     H35243   1.104   5.219   9.474  0.3921  1.3376  2.5171
  267MOL0     H35244   1.332   5.176   9.373 -0.7335 -0.7648 -0.4355
  268MOL0     O35245   7.169   0.147   0.688  0.6000  0.0097 -0.3018
  268MOL0     C35246   7.152   0.084   0.582  0.2596 -0.0127 -0.1666
  268MOL0     O35247   7.037   0.059   0.519  0.4622 -0.1752 -0.7454
  268MOL0     C35248   6.929   0.143   0.541 -0.2343  0.7265 -0.3198
  268MOL0     C35249   6.931   0.276   0.587  0.0725  0.3803 -0.2130
  268MOL0     C35250   6.812   0.349   0.608 -0.4441  0.3192 -0.1801
  268MOL0     C35251   6.690   0.291   0.578  0.0223  0.0437  0.1626
  268MOL0     O35252   6.570   0.357   0.594  0.1933  0.2020 -0.0272
  268MOL0     C35253   6.551   0.407   0.731 -0.8688 -0.0010  0.7957
  268MOL0     C35254   6.443   0.514   0.723  0.5242 -0.4730  0.2601
  268MOL0     C35255   6.298   0.470   0.695 -0.2735 -0.0579 -0.1081
  268MOL0     C35256   6.211   0.589   0.705  0.3584 -0.0700 -0.4637
  268MOL0     C35257   6.067   0.556   0.683  0.1496  0.0619  0.6312
  268MOL0     C35258   5.996   0.514   0.810 -1.1479 -0.3333 -0.6356
  268MOL0     C35259   5.849   0.494   0.762  0.1369 -0.4835  0.4818
  268MOL0     C35260   5.755   0.444   0.870 -0.4099 -0.1815 -0.0487
  268MOL0     N35261   5.797   0.332   0.964  0.7386 -0.3935  0.0982
  268MOL0     C35262   5.767   0.203   0.942  0.2448 -0.3544  0.4673
  268MOL0     C35263   5.805   0.137   1.055 -0.6460  0.1934 -0.3130
  268MOL0     C35264   5.779  -0.001   1.086  0.8495  0.1786  0.3770
  268MOL0     C35265   5.881  -0.106   1.045  0.2304  0.2866 -0.1251
  268MOL0     C35266   5.893  -0.127   0.891  0.1442  0.3606  1.3641
  268MOL0     C35267   5.770  -0.198   0.825  0.0099 -0.5078 -0.3758
  268MOL0     O35268   5.711  -0.295   0.904  0.5338  0.3110 -0.6945
  268MOL0     C35269   5.577  -0.330   0.901 -1.0760  0.1430  0.0972
  268MOL0     C35270   5.506  -0.341   1.018 -0.4483 -0.6123  0.0975
  268MOL0     C35271   5.370  -0.369   1.012  0.3954  0.0050  0.2546
  268MOL0     C35272   5.303  -0.385   0.899  0.8601  0.7966  0.2501
  268MOL0     C35273   5.157  -0.411   0.906  0.7500 -0.5519 -0.5558
  268MOL0     O35274   5.111  -0.462   1.018  0.3222  0.3121  0.8625
  268MOL0     C35275   4.978  -0.481   1.022  0.5709 -0.6632  0.7887
  268MOL0     C35276   4.917  -0.608   1.014  0.8001  0.2386 -0.3988
  268MOL0     C35277   4.776  -0.613   1.021  0.4288  1.3040  0.0844
  268MOL0     C35278   4.696  -0.500   1.038 -0.4910  0.5681  0.0377
  268MOL0     O35279   4.558  -0.512   1.049 -0.4444 -0.3442 -0.6511
  268MOL0     C35280   4.479  -0.402   1.012  0.4278  0.2114 -0.3603
  268MOL0     C35281   4.329  -0.437   1.045 -0.1464  0.4715  0.3489
  268MOL0     C35282   4.281  -0.574   0.983 -0.0442 -0.3996  0.4105
  268MOL0     C35283   4.142  -0.611   1.031 -0.1699 -0.7476  0.4470
  268MOL0     C35284   4.092  -0.710   0.923 -0.1053  0.9532 -0.1522
  268MOL0     C35285   3.964  -0.783   0.960 -0.6548  0.0806 -0.3407
  268MOL0     C35286   3.838  -0.695   0.978 -0.2276 -1.0740  0.4891
  268MOL0     C35287   3.774  -0.662   0.846  0.1897 -0.1981  0.4470
  268MOL0    Cl35288   3.705  -0.801   0.761 -0.4576  0.7034 -0.3669
  268MOL0     C35289   4.761  -0.381   1.059  0.6068  0.2388  0.1779
  268MOL0     C35290   4.901  -0.371   1.054 -0.2864 -0.1124 -0.3674
  268MOL0     O35291   5.086  -0.378   0.809  0.5459 -0.0574 -0.5289
  268MOL0     C35292   5.376  -0.366   0.779  0.6938  0.1470  0.6147
  268MOL0     C35293   5.509  -0.331   0.783  0.2934 -0.2317  0.9034
  268MOL0     N35294   5.866   0.229   1.139  0.1839 -0.2249 -0.0445
  268MOL0     N35295   5.850   0.349   1.088  0.5502  0.1379 -0.5246
  268MOL0     C35296   6.685   0.162   0.529 -0.5598  0.0613 -0.6193
  268MOL0     C35297   6.801   0.085   0.518  0.3216 -0.1995 -0.0515
  268MOL0     C35298   7.268   0.030   0.498 -1.3231 -0.3980  0.0109
  268MOL0     C35299   7.263  -0.036   0.375  0.6589 -0.3245  1.0443
  268MOL0     C35300   7.377  -0.083   0.303  1.1325  0.1356  0.1336
  268MOL0     C35301   7.508  -0.064   0.360 -1.4604  0.4208 -0.4861
  268MOL0     O35302   7.625  -0.107   0.310  0.4344 -0.0578 -0.4743
  268MOL0     C35303   7.626  -0.237   0.248  0.1135  0.3052  0.8541
  268MOL0     C35304   7.678  -0.342   0.342  0.6547 -0.1910 -0.1546
  268MOL0     C35305   7.797  -0.321   0.430  0.4763  0.3733 -0.3716
  268MOL0     C35306   7.921  -0.299   0.350  0.0539 -0.2065  0.8943
  268MOL0     C35307   7.955  -0.435   0.288  0.4612 -0.1682  0.1335
  268MOL0     C35308   8.017  -0.529   0.243 -0.4419  0.0007  0.0845
  268MOL0     C35309   7.503  -0.007   0.486  0.3627 -0.0938 -0.0761
  268MOL0     C35310   7.392   0.044   0.552 -0.6324  0.0442  0.5085
  268MOL0     H35311   7.030   0.315   0.611  1.2088 -2.4594  0.0351
  268MOL0     H35312   6.817   0.449   0.650 -5.3797  0.4678  0.6208
  268MOL0     H35313   6.646   0.452   0.759  0.8195 -2.1042 -1.1669
  268MOL0     H35314   6.522   0.324   0.797  0.7216  0.0648  1.6370
  268MOL0     H35315   6.476   0.576   0.639  2.4490 -0.9096  0.6544
  268MOL0     H35316   6.442   0.568   0.818 -0.2693  1.4652 -0.7916
  268MOL0     H35317   6.265   0.405   0.776  0.0473  0.8044  0.7400
  268MOL0     H35318   6.282   0.428   0.595 -4.4770 -2.1590  1.2104
  268MOL0     H35319   6.230   0.630   0.805  0.1313 -1.1798  0.0538
  268MOL0     H35320   6.237   0.665   0.631  0.8066 -0.7122 -0.9686
  268MOL0     H35321   6.048   0.475   0.611 -1.9154  0.2049  0.9623
  268MOL0     H35322   6.026   0.651   0.646  0.1518  0.0785  0.6722
  268MOL0     H35323   6.002   0.593   0.886 -1.9208 -0.7373 -0.1474
  268MOL0     H35324   6.037   0.423   0.854  1.6588  1.6441  1.2084
  268MOL0     H35325   5.814   0.590   0.724 -1.6260 -1.0349  0.5774
  268MOL0     H35326   5.844   0.430   0.673  0.1660 -0.3817  0.4071
  268MOL0     H35327   5.661   0.422   0.818 -0.5343  3.7378 -1.7941
  268MOL0     H35328   5.737   0.532   0.932 -1.9957 -0.9765  0.7009
  268MOL0     H35329   5.732   0.153   0.852 -0.7837  0.4974  0.3891
  268MOL0     H35330   5.684  -0.026   1.037  1.1259 -0.0782 -0.0346
  268MOL0     H35331   5.757  -0.002   1.193  0.0300 -0.1064  0.2163
  268MOL0     H35332   5.841  -0.194   1.097 -0.3002  0.6925  0.1692
  268MOL0     H35333   5.979  -0.075   1.083 -0.2152  0.3585  1.0074
  268MOL0     H35334   5.914  -0.034   0.837  0.5333  0.2079  1.2435
  268MOL0     H35335   5.974  -0.197   0.867  0.2815 -0.1110  3.0287
  268MOL0     H35336   5.803  -0.250   0.735  2.3003  1.0123 -0.5017
  268MOL0     H35337   5.691  -0.124   0.812  0.0124  0.2025  2.7962
  268MOL0     H35338   5.556  -0.334   1.115  1.5719  0.9587 -0.9688
  268MOL0     H35339   5.311  -0.372   1.103 -0.1519  2.9883  0.0953
  268MOL0     H35340   4.983  -0.695   1.014 -0.2881 -0.6736  1.5441
  268MOL0     H35341   4.716  -0.704   1.018  1.3453  0.5986  1.6460
  268MOL0     H35342   4.484  -0.397   0.903 -2.6104 -2.8529 -0.8327
  268MOL0     H35343   4.503  -0.306   1.058 -2.4066  0.6132  0.4952
  268MOL0     H35344   4.270  -0.356   1.003 -1.8828 -0.4146  0.9619
  268MOL0     H35345   4.319  -0.437   1.154  4.0898 -0.1936  0.9469
  268MOL0     H35346   4.340  -0.662   1.008  2.4456  1.7188  2.5930
  268MOL0     H35347   4.286  -0.558   0.875 -3.2293  1.5159  0.4020
  268MOL0     H35348   4.158  -0.662   1.127  0.6249  0.4457  0.9777
  268MOL0     H35349   4.071  -0.529   1.046 -0.1943 -0.5147 -0.8365
  268MOL0     H35350   4.172  -0.782   0.907 -0.8117  0.4848 -1.7165
  268MOL0     H35351   4.071  -0.654   0.832 -1.2493 -0.7941 -1.0197
  268MOL0     H35352   3.991  -0.830   1.055 -0.0360  0.2179 -0.4439
  268MOL0     H35353   3.941  -0.870   0.898 -1.5933 -0.3158  0.5470
  268MOL0     H35354   3.763  -0.753   1.032  2.1532 -2.5373  2.4884
  268MOL0     H35355   3.849  -0.597   1.025 -2.5122  1.0478 -3.0178
  268MOL0     H35356   3.848  -0.607   0.787 -0.0763 -0.4739 -0.1483
  268MOL0     H35357   3.697  -0.587   0.867  0.6885 -0.0751  2.0054
  268MOL0     H35358   4.694  -0.297   1.075 -0.1983 -0.0922 -1.2558
  268MOL0     H35359   4.955  -0.278   1.068 -0.5024  0.2868 -2.0352
  268MOL0     H35360   5.326  -0.353   0.683  1.7728  2.0313  0.2413
  268MOL0     H35361   5.556  -0.331   0.685 -0.5949  0.7659  0.4596
  268MOL0     H35362   6.590   0.116   0.503  0.2513 -1.9822 -0.1434
  268MOL0     H35363   6.796  -0.014   0.474 -3.1824  1.0807 -3.0243
  268MOL0     H35364   7.163  -0.043   0.332  1.5623 -2.1395 -0.9047
  268MOL0     H35365   7.367  -0.145   0.214  2.1098 -0.2411  0.2684
  268MOL0     H35366   7.702  -0.224   0.171 -1.3985  1.4516 -0.5194
  268MOL0     H35367   7.541  -0.261   0.183  0.3565  0.3305  0.5262
  268MOL0     H35368   7.600  -0.383   0.407  0.6610 -0.0117 -0.0330
  268MOL0     H35369   7.703  -0.425   0.275  0.5667 -2.1837  2.1592
  268MOL0     H35370   7.806  -0.404   0.501 -1.7109  0.6497  0.3064
  268MOL0     H35371   7.780  -0.226   0.482  0.8299 -0.6254  1.6762
  268MOL0     H35372   7.904  -0.232   0.266 -1.6968 -0.6386  0.8742
  268MOL0     H35373   7.992  -0.259   0.423 -1.9700 -0.9907  3.4377
  268MOL0     H35374   8.078  -0.601   0.192  2.0390  2.5332 -0.8148
  268MOL0     H35375   7.598  -0.007   0.537  1.7701 -0.8256 -2.5266
  268MOL0     H35376   7.408   0.096   0.646 -1.5311  2.6022 -0.6383
  269MOL0     O35377   7.004   4.101   0.171 -0.0086  0.1973  0.0146
  269MOL0     C35378   7.016   4.115   0.292  0.2957 -0.0976  0.6684
  269MOL0     O35379   6.912   4.107   0.371 -0.4365 -0.0827  0.0990
  269MOL0     C35380   6.800   4.034   0.338  0.1087 -0.0589  0.3230
  269MOL0     C35381   6.669   4.094   0.353  0.6955 -0.1234  0.7678
  269MOL0     C35382   6.546   4.029   0.318  0.3242 -0.2143 -0.0671
  269MOL0     C35383   6.544   3.888   0.284 -0.3542 -0.1445 -0.7507
  269MOL0     O35384   6.414   3.842   0.256 -0.1737  0.3181 -0.1669
  269MOL0     C35385   6.410   3.721   0.183  0.3077  0.2825  1.0225
  269MOL0     C35386   6.274   3.706   0.117 -0.1713 -0.0224 -0.7398
  269MOL0     C35387   6.160   3.700   0.223 -0.0681  0.4393 -0.3623
  269MOL0     C35388   6.025   3.658   0.154 -0.5202  0.4143 -0.3944
  269MOL0     C35389   5.906   3.649   0.249  0.5980  0.0410  0.1390
  269MOL0     C35390   5.920   3.564   0.371  0.6586 -0.3580 -1.1804
  269MOL0     C35391   5.933   3.411   0.333 -0.2096  0.3436 -0.1312
  269MOL0     C35392   5.824   3.350   0.254 -0.8506 -0.0298  0.3397
  269MOL0     N35393   5.694   3.345   0.327  0.9595 -0.7189  0.0473
  269MOL0     C35394   5.652   3.245   0.412 -0.7336 -0.8741 -0.5063
  269MOL0     C35395   5.553   3.289   0.486  0.3019 -1.1992  0.0867
  269MOL0     C35396   5.477   3.226   0.606 -0.3124  0.4118 -0.3908
  269MOL0     C35397   5.336   3.178   0.575  0.4294  0.0986 -0.1571
  269MOL0     C35398   5.316   3.073   0.465  0.8700 -0.3292 -0.6171
  269MOL0     C35399   5.347   2.927   0.514  0.6443 -0.0451  0.4753
  269MOL0     O35400   5.307   2.838   0.409 -0.6608 -0.9644 -0.0309
  269MOL0     C35401   5.176   2.843   0.369 -0.9718 -0.6945 -0.0406
  269MOL0     C35402   5.072   2.833   0.466 -0.2052 -0.2032  1.1614
  269MOL0     C35403   4.936   2.833   0.423 -0.0903  0.1407 -0.1768
  269MOL0     C35404   4.892   2.835   0.287  1.1624  0.3680  0.7049
  269MOL0     C35405   4.747   2.847   0.261 -0.3861  0.1727  0.6441
  269MOL0     O35406   4.664   2.816   0.366  0.5641 -0.6907 -0.8382
  269MOL0     C35407   4.533   2.829   0.344  0.5131  0.5511 -0.2027
  269MOL0     C35408   4.467   2.947   0.367  0.3974  0.1020  0.2207
  269MOL0     C35409   4.325   2.963   0.355 -0.9275 -0.2555  0.5853
  269MOL0     C35410   4.254   2.850   0.310 -0.7197  0.3035 -0.1531
  269MOL0     O35411   4.118   2.862   0.321 -0.2158  0.2451  0.5605
  269MOL0     C35412   4.027   2.759   0.259 -0.0879 -0.2559 -0.4845
  269MOL0     C35413   3.956   2.820   0.137 -0.1954  0.1625 -0.0614
  269MOL0     C35414   3.833   2.749   0.104  0.3425 -0.3248 -0.1819
  269MOL0     C35415   3.734   2.846   0.053  1.8291 -0.1536  0.0669
  269MOL0     C35416   3.598   2.767   0.016 -0.1571 -0.2245 -0.2113
  269MOL0     C35417   3.534   2.695   0.135  0.2156 -0.2362 -0.8764
  269MOL0     C35418   3.393   2.660   0.098 -0.2846  0.1951 -0.0809
  269MOL0     C35419   3.330   2.574   0.208  0.3306  0.6342 -0.2870
  269MOL0    Cl35420   3.175   2.524   0.141 -0.1746 -0.2840 -0.0059
  269MOL0     C35421   4.320   2.721   0.286  0.9270 -0.1933 -0.3673
  269MOL0     C35422   4.460   2.722   0.295  0.2028  0.5124  0.4837
  269MOL0     O35423   4.708   2.877   0.146 -0.7881 -0.1043  0.3273
  269MOL0     C35424   4.997   2.852   0.192 -0.2163 -0.2853 -0.0887
  269MOL0     C35425   5.138   2.846   0.233  0.0624 -0.4275  0.2846
  269MOL0     N35426   5.523   3.418   0.438 -0.1183 -1.1324  0.5501
  269MOL0     N35427   5.607   3.449   0.343  0.4458 -0.5540  0.3750
  269MOL0     C35428   6.670   3.825   0.291  0.1622 -0.4073 -0.4394
  269MOL0     C35429   6.795   3.893   0.317  0.9060  0.0933  0.7723
  269MOL0     C35430   7.154   4.128   0.347  0.4833  0.1525 -0.3926
  269MOL0     C35431   7.186   4.123   0.483  0.1039 -0.0995  0.8375
  269MOL0     C35432   7.321   4.137   0.518 -0.5127 -1.0816  0.0975
  269MOL0     C35433   7.422   4.150   0.420 -0.2394  0.5463 -0.7145
  269MOL0     O35434   7.550   4.167   0.466 -0.1247 -0.5317  0.2518
  269MOL0     C35435   7.664   4.190   0.375  1.6346  0.7331 -0.3266
  269MOL0     C35436   7.802   4.227   0.437  0.0002  0.1940 -0.3334
  269MOL0     C35437   7.916   4.152   0.365  0.0188 -0.2925  0.2838
  269MOL0     C35438   8.053   4.205   0.422  0.4482  0.1257  0.5209
  269MOL0     C35439   8.153   4.133   0.341  0.6246 -0.2793 -0.4980
  269MOL0     C35440   8.239   4.070   0.283  0.4527 -0.9160  0.3054
  269MOL0     C35441   7.384   4.153   0.288 -0.3276  0.2557  0.1256
  269MOL0     C35442   7.254   4.151   0.252  1.0371 -0.1776 -0.0452
  269MOL0     H35443   6.664   4.199   0.383 -0.5180  0.7423 -2.0983
  269MOL0     H35444   6.462   4.097   0.302  0.2815 -0.0229  0.9319
  269MOL0     H35445   6.431   3.635   0.247 -0.6261  0.2675  1.3230
  269MOL0     H35446   6.476   3.722   0.096  0.3471  0.0593  1.0489
  269MOL0     H35447   6.277   3.615   0.055  2.2260 -0.0525 -0.6917
  269MOL0     H35448   6.252   3.789   0.049  2.0144 -1.1420 -3.0074
  269MOL0     H35449   6.144   3.796   0.273  1.8244  1.4798 -1.6164
  269MOL0     H35450   6.189   3.622   0.294 -2.3322 -1.3581 -1.2989
  269MOL0     H35451   6.001   3.724   0.070  1.1126 -1.3828 -2.3804
  269MOL0     H35452   6.032   3.563   0.101  1.9668  0.6423 -0.6230
  269MOL0     H35453   5.815   3.620   0.195 -0.9047  1.3304  1.8392
  269MOL0     H35454   5.881   3.748   0.289  0.8875 -0.6713  2.1826
  269MOL0     H35455   5.824   3.575   0.423  0.3885 -1.5807 -1.3953
  269MOL0     H35456   5.998   3.588   0.444  3.5478 -3.3017 -3.0091
  269MOL0     H35457   6.029   3.406   0.282 -0.6995  1.6404 -1.2264
  269MOL0     H35458   5.955   3.357   0.425  1.9315  0.1670 -0.7034
  269MOL0     H35459   5.847   3.245   0.234 -2.4099 -0.4534  0.6561
  269MOL0     H35460   5.815   3.395   0.154  2.3714  1.6375  0.6673
  269MOL0     H35461   5.707   3.151   0.410  0.5091 -0.2423  1.4802
  269MOL0     H35462   5.469   3.304   0.682  1.6918  0.7719 -0.4995
  269MOL0     H35463   5.539   3.152   0.658  0.6594  1.5022  0.0305
  269MOL0     H35464   5.277   3.268   0.557 -3.9023 -1.7358  3.1797
  269MOL0     H35465   5.295   3.146   0.671 -1.7102 -0.6379 -1.2421
  269MOL0     H35466   5.208   3.080   0.452  0.7634  0.3849  0.5653
  269MOL0     H35467   5.373   3.097   0.374  2.0402 -5.0051 -1.4177
  269MOL0     H35468   5.305   2.898   0.610  1.6058 -0.2996  0.8277
  269MOL0     H35469   5.455   2.920   0.534  0.6570  1.0809  0.8704
  269MOL0     H35470   5.090   2.829   0.573  1.3437 -1.8166  0.8797
  269MOL0     H35471   4.865   2.817   0.503  1.1992  0.8277  1.1695
  269MOL0     H35472   4.528   3.029   0.404 -1.3734  1.1507  0.9717
  269MOL0     H35473   4.274   3.055   0.384  1.8637  1.5272  0.2044
  269MOL0     H35474   3.961   2.736   0.343  2.8623 -2.6270  1.4289
  269MOL0     H35475   4.080   2.668   0.229  0.3506 -0.6267  1.2891
  269MOL0     H35476   4.015   2.833   0.046  1.0308  2.2746  0.9541
  269MOL0     H35477   3.935   2.924   0.160  0.9141  0.3370  0.2308
  269MOL0     H35478   3.783   2.703   0.189 -1.5747  2.3940  0.2913
  269MOL0     H35479   3.852   2.679   0.021  1.8362  0.5376 -0.6082
  269MOL0     H35480   3.723   2.932   0.119  0.8252  0.7535 -1.2436
  269MOL0     H35481   3.765   2.896  -0.039 -0.3435  0.8621 -0.1919
  269MOL0     H35482   3.617   2.703  -0.071  1.1166  2.0177 -1.6608
  269MOL0     H35483   3.532   2.851  -0.007 -1.3917 -0.9894  0.4187
  269MOL0     H35484   3.531   2.754   0.227  2.7877 -2.8045  1.0300
  269MOL0     H35485   3.587   2.602   0.159  0.8717  0.7569  1.8548
  269MOL0     H35486   3.328   2.746   0.081  1.4022  1.4018 -0.6332
  269MOL0     H35487   3.392   2.608   0.001 -1.1629 -2.5756  1.2957
  269MOL0     H35488   3.299   2.633   0.295  0.1973  0.2106 -0.0452
  269MOL0     H35489   3.398   2.490   0.224  0.1730  0.2045 -1.7325
  269MOL0     H35490   4.267   2.628   0.270  0.2058 -0.2885  2.1161
  269MOL0     H35491   4.519   2.632   0.283  1.7244  0.9795  3.4922
  269MOL0     H35492   4.971   2.848   0.087 -0.2105 -0.1691 -0.0946
  269MOL0     H35493   5.210   2.852   0.152 -1.7312  2.5464 -1.2688
  269MOL0     H35494   6.671   3.718   0.275 -1.1601 -0.6360  0.7905
  269MOL0     H35495   6.888   3.838   0.314  1.6819  1.2501 -3.5553
  269MOL0     H35496   7.105   4.118   0.555  0.3159  0.0095  1.0853
  269MOL0     H35497   7.334   4.154   0.624 -3.2710  0.2141  0.3031
  269MOL0     H35498   7.648   4.271   0.303  1.2996  0.7741 -0.2055
  269MOL0     H35499   7.669   4.108   0.304 -1.9620  0.0371  0.0285
  269MOL0     H35500   7.810   4.336   0.439  2.1200  0.1444 -2.0161
  269MOL0     H35501   7.800   4.190   0.540  0.7961 -0.1413 -0.4279
  269MOL0     H35502   7.912   4.163   0.257  2.9333  0.1880  0.1558
  269MOL0     H35503   7.900   4.045   0.381 -0.1485 -0.7615 -2.5220
  269MOL0     H35504   8.073   4.311   0.406  3.6213 -0.4856 -0.3887
  269MOL0     H35505   8.050   4.182   0.529 -1.2062 -2.3727  0.0166
  269MOL0     H35506   8.326   4.022   0.244  0.1933  1.2335 -3.2934
  269MOL0     H35507   7.460   4.145   0.211 -0.5379  0.8838 -0.1506
  269MOL0     H35508   7.230   4.152   0.146 -1.2910  1.3261  0.4217
  270MOL0     O35509   9.244   0.563   2.800 -0.1799 -0.3304  0.0545
  270MOL0     C35510   9.280   0.453   2.855  0.7462  0.3480  0.7361
  270MOL0     O35511   9.199   0.365   2.930 -0.2870  0.2097  0.0966
  270MOL0     C35512   9.072   0.395   2.974  0.0209 -0.3143  0.2437
  270MOL0     C35513   9.012   0.519   2.980 -0.3964  0.9350 -0.3956
  270MOL0     C35514   8.878   0.537   3.019 -0.4700  0.2003  0.6175
  270MOL0     C35515   8.806   0.423   3.059 -0.6656 -0.0327  0.0522
  270MOL0     O35516   8.674   0.447   3.087 -0.7706  0.8592 -0.0605
  270MOL0     C35517   8.584   0.335   3.070  0.3103 -0.9847  0.0329
  270MOL0     C35518   8.428   0.363   3.090 -0.2490 -0.1842 -0.4750
  270MOL0     C35519   8.352   0.233   3.121  0.1099 -0.1594 -0.2796
  270MOL0     C35520   8.206   0.260   3.149  0.4510 -0.1519  0.5666
  270MOL0     C35521   8.127   0.123   3.191  0.6968  0.4394  0.2516
  270MOL0     C35522   7.978   0.135   3.163  0.1949 -0.8194 -0.2954
  270MOL0     C35523   7.887   0.048   3.250 -1.0706 -0.1758  0.2107
  270MOL0     C35524   7.747   0.100   3.245  0.5677  1.0379 -0.4409
  270MOL0     N35525   7.679   0.005   3.339  0.2672  0.2005  0.0058
  270MOL0     C35526   7.591  -0.090   3.302  0.7581 -0.2511 -0.3221
  270MOL0     C35527   7.555  -0.157   3.417  0.2773 -0.5008  0.7558
  270MOL0     C35528   7.472  -0.274   3.425  0.3323  0.3814  0.4190
  270MOL0     C35529   7.326  -0.248   3.408 -0.4729  0.4059 -0.2885
  270MOL0     C35530   7.245  -0.366   3.474  0.3691 -0.0360 -0.1748
  270MOL0     C35531   7.094  -0.361   3.446  0.1947 -0.3520 -0.0614
  270MOL0     O35532   7.044  -0.234   3.488 -0.3948 -0.2929  0.6540
  270MOL0     C35533   6.904  -0.233   3.500 -0.3778  0.8334  0.1190
  270MOL0     C35534   6.813  -0.308   3.429 -0.2074  0.0822  0.8149
  270MOL0     C35535   6.679  -0.302   3.457 -0.1075 -0.1469 -0.0047
  270MOL0     C35536   6.623  -0.196   3.531  0.8300 -1.0585 -0.5334
  270MOL0     C35537   6.474  -0.187   3.552  0.5387  1.0111  0.6072
  270MOL0     O35538   6.405  -0.297   3.505 -0.2057  0.0183  0.3288
  270MOL0     C35539   6.268  -0.295   3.509  0.4988 -0.6661 -0.7136
  270MOL0     C35540   6.191  -0.222   3.422  0.2689 -0.2787 -0.2617
  270MOL0     C35541   6.049  -0.222   3.433 -0.0590 -0.6267  0.4532
  270MOL0     C35542   5.984  -0.299   3.529  0.1455  0.5251 -0.3456
  270MOL0     O35543   5.850  -0.310   3.537  0.4486 -0.6078 -0.1417
  270MOL0     C35544   5.763  -0.199   3.501  0.4378 -0.3330  0.5944
  270MOL0     C35545   5.621  -0.246   3.562  0.3848  0.3735  0.0909
  270MOL0     C35546   5.573  -0.375   3.492  0.5971  0.1804 -0.4255
  270MOL0     C35547   5.485  -0.458   3.587 -0.0630 -0.8777  0.1304
  270MOL0     C35548   5.394  -0.562   3.523 -0.3015  0.1275  0.1837
  270MOL0     C35549   5.301  -0.641   3.612 -0.4127 -0.2024 -0.9872
  270MOL0     C35550   5.214  -0.738   3.540 -0.0590  0.2068  0.6222
  270MOL0     C35551   5.152  -0.825   3.639  0.3162 -0.0405  1.2274
  270MOL0    Cl35552   5.075  -0.950   3.537  0.0811 -0.1375 -0.1527
  270MOL0     C35553   6.073  -0.389   3.602  0.4127  0.0198 -0.1807
  270MOL0     C35554   6.208  -0.378   3.601  0.1677 -0.0036  0.6119
  270MOL0     O35555   6.424  -0.090   3.616  0.2967  0.2966 -0.2104
  270MOL0     C35556   6.713  -0.105   3.584  0.4520  0.1808 -0.3492
  270MOL0     C35557   6.854  -0.123   3.559  1.1062  0.0734 -1.0269
  270MOL0     N35558   7.629  -0.097   3.519  0.0714  0.3921  0.3740
  270MOL0     N35559   7.708  -0.003   3.476 -0.1131  0.1063 -0.2216
  270MOL0     C35560   8.858   0.300   3.049 -0.2772  0.1798 -0.7341
  270MOL0     C35561   8.991   0.280   3.009 -0.9828 -0.7873  0.7154
  270MOL0     C35562   9.410   0.396   2.809 -0.7733 -0.5953 -0.0151
  270MOL0     C35563   9.474   0.295   2.882  0.5182 -0.4235 -0.0039
  270MOL0     C35564   9.604   0.262   2.844 -0.8892  0.2939  0.2582
  270MOL0     C35565   9.663   0.311   2.727  0.2694 -0.4710  0.3633
  270MOL0     O35566   9.785   0.276   2.683 -0.1347  1.2275 -0.0101
  270MOL0     C35567   9.839   0.154   2.732  0.0788 -0.3411  0.2793
  270MOL0     C35568   9.956   0.129   2.645  0.4359 -0.6382  0.6678
  270MOL0     C35569  10.026  -0.002   2.683 -0.2901 -0.3975  0.2227
  270MOL0     C35570  10.146  -0.022   2.591  0.1756 -0.2695  0.1973
  270MOL0     C35571  10.216  -0.151   2.613  0.8077  0.3607  0.3315
  270MOL0     C35572  10.281  -0.253   2.624 -0.0581 -0.3736 -0.5715
  270MOL0     C35573   9.595   0.416   2.662 -0.3136  0.1858  0.0390
  270MOL0     C35574   9.472   0.457   2.702 -0.0487 -0.5570  0.2001
  270MOL0     H35575   9.066   0.608   2.949  2.1188 -0.8467 -1.4012
  270MOL0     H35576   8.833   0.636   3.020 -0.7585  0.0822 -0.0777
  270MOL0     H35577   8.606   0.267   3.154  1.7332  0.4846  0.9102
  270MOL0     H35578   8.602   0.291   2.972 -2.3985  1.0840 -1.5148
  270MOL0     H35579   8.401   0.405   2.992  1.2164  2.5959  0.2109
  270MOL0     H35580   8.402   0.442   3.161 -1.6258  0.2517 -1.4130
  270MOL0     H35581   8.397   0.193   3.212 -0.6079  1.1093  0.6514
  270MOL0     H35582   8.360   0.158   3.041  1.4999 -1.0980  0.6992
  270MOL0     H35583   8.192   0.345   3.216 -0.0228  2.0383 -2.1780
  270MOL0     H35584   8.168   0.296   3.054 -0.5831 -1.0806  0.6023
  270MOL0     H35585   8.132   0.087   3.294 -0.9344  4.3384  1.8769
  270MOL0     H35586   8.169   0.045   3.126  2.1398 -0.5541  2.2557
  270MOL0     H35587   7.955   0.114   3.058  1.5826  2.4038 -1.3830
  270MOL0     H35588   7.947   0.238   3.184  0.9640 -0.8769  1.3067
  270MOL0     H35589   7.902  -0.058   3.229 -1.7191  0.0034 -1.3478
  270MOL0     H35590   7.933   0.057   3.348  0.1889 -1.5325 -0.2227
  270MOL0     H35591   7.702   0.096   3.146 -0.7476  0.5802  0.1568
  270MOL0     H35592   7.742   0.198   3.292 -1.0057  1.4644 -1.4338
  270MOL0     H35593   7.551  -0.114   3.205 -0.3613  1.6996 -0.4040
  270MOL0     H35594   7.484  -0.319   3.523  0.0442  1.5696  1.0155
  270MOL0     H35595   7.497  -0.348   3.348 -1.1354  1.7648 -1.5227
  270MOL0     H35596   7.304  -0.242   3.301  0.8055 -1.5892 -0.7240
  270MOL0     H35597   7.288  -0.155   3.452  0.7163  1.0445 -0.5895
  270MOL0     H35598   7.282  -0.465   3.447  1.1506  0.3678 -0.5981
  270MOL0     H35599   7.261  -0.362   3.582 -0.7816 -1.3761  0.0776
  270MOL0     H35600   7.041  -0.440   3.500  1.4618 -2.5879 -1.9011
  270MOL0     H35601   7.076  -0.384   3.340  1.7666  1.5495 -0.8213
  270MOL0     H35602   6.848  -0.385   3.361  1.4006  0.0032  1.6838
  270MOL0     H35603   6.616  -0.380   3.414  0.0770 -1.2549  1.6191
  270MOL0     H35604   6.247  -0.152   3.362  0.4918  0.3333  0.6332
  270MOL0     H35605   6.001  -0.151   3.365 -0.1377  0.0787  1.2379
  270MOL0     H35606   5.755  -0.192   3.392  2.0103 -3.9182  0.1106
  270MOL0     H35607   5.803  -0.102   3.532  0.9385 -0.1293 -0.6302
  270MOL0     H35608   5.547  -0.167   3.545  3.2379  2.7776 -2.2928
  270MOL0     H35609   5.643  -0.255   3.669  2.4271  3.5808  0.0777
  270MOL0     H35610   5.658  -0.436   3.461 -0.3703 -0.9592 -0.9366
  270MOL0     H35611   5.521  -0.345   3.401  2.0468  1.0426 -1.0038
  270MOL0     H35612   5.553  -0.505   3.660  3.2824  2.3190 -0.6267
  270MOL0     H35613   5.420  -0.384   3.635 -1.5754 -1.2939 -1.2018
  270MOL0     H35614   5.447  -0.628   3.453 -0.0479 -1.4370  1.7857
  270MOL0     H35615   5.325  -0.502   3.464 -3.4456 -1.2301  2.2627
  270MOL0     H35616   5.233  -0.567   3.655 -1.6315 -1.4744 -0.6535
  270MOL0     H35617   5.363  -0.692   3.687 -0.4372  2.7759  1.2455
  270MOL0     H35618   5.133  -0.698   3.479  0.2869 -0.5508 -0.3858
  270MOL0     H35619   5.264  -0.796   3.461  0.5687  1.1481  0.3050
  270MOL0     H35620   5.078  -0.764   3.691  0.0275  1.6043 -0.9761
  270MOL0     H35621   5.224  -0.868   3.710  1.3239 -1.8900 -0.8003
  270MOL0     H35622   6.030  -0.455   3.676 -2.8597 -0.9782 -2.7142
  270MOL0     H35623   6.269  -0.439   3.666  3.4290  1.0605 -1.2472
  270MOL0     H35624   6.686  -0.017   3.641 -2.3355 -0.9948  0.2999
  270MOL0     H35625   6.937  -0.058   3.588 -0.1514  0.5186  1.9812
  270MOL0     H35626   8.805   0.207   3.063  1.1336 -0.3875  1.2325
  270MOL0     H35627   9.023   0.180   2.981 -1.3549 -0.3714 -1.3396
  270MOL0     H35628   9.423   0.246   2.965  1.7753  3.2511  3.2691
  270MOL0     H35629   9.652   0.175   2.888  1.5453  0.8172 -1.1559
  270MOL0     H35630   9.771   0.070   2.712 -0.0275  0.4948 -3.7632
  270MOL0     H35631   9.853   0.162   2.840 -1.2700 -0.0965  0.4507
  270MOL0     H35632   9.916   0.123   2.544 -0.9675  0.6082  1.1033
  270MOL0     H35633  10.031   0.209   2.649 -0.0157 -0.1461 -0.4815
  270MOL0     H35634   9.956  -0.085   2.673  1.5383 -1.8221 -1.7813
  270MOL0     H35635  10.058   0.013   2.787 -3.6012 -1.9371  1.6130
  270MOL0     H35636  10.105  -0.009   2.491  1.0153  1.9283  0.0937
  270MOL0     H35637  10.219   0.057   2.611 -0.6220  0.7997 -0.9809
  270MOL0     H35638  10.325  -0.350   2.641  0.4900 -0.1434 -0.6530
  270MOL0     H35639   9.635   0.456   2.569  1.9706 -2.4959 -0.2889
  270MOL0     H35640   9.427   0.539   2.647  0.5980 -0.9384 -0.9126
  271MOL0     O35641   4.331   0.278   0.303 -0.0018  0.3084  0.5406
  271MOL0     C35642   4.330   0.158   0.277  0.1059  0.7966 -0.5011
  271MOL0     O35643   4.210   0.086   0.267 -0.3915 -0.3585 -0.0742
  271MOL0     C35644   4.095   0.165   0.267 -0.2174  0.4949 -1.1694
  271MOL0     C35645   4.077   0.279   0.179 -0.6629  0.7193 -0.1857
  271MOL0     C35646   3.959   0.363   0.196  0.4491  0.5201 -0.3851
  271MOL0     C35647   3.866   0.325   0.290  0.2549  1.2132 -0.4198
  271MOL0     O35648   3.753   0.400   0.296 -0.6999 -0.1856  0.4347
  271MOL0     C35649   3.664   0.393   0.406 -0.2567 -0.1797  0.2561
  271MOL0     C35650   3.537   0.471   0.376  0.3763  0.1232  0.1608
  271MOL0     C35651   3.436   0.391   0.287 -0.6551  0.6200 -0.2150
  271MOL0     C35652   3.295   0.419   0.331 -0.6884 -0.6182 -0.2601
  271MOL0     C35653   3.196   0.367   0.220  0.6259 -0.8030  0.5927
  271MOL0     C35654   3.056   0.393   0.264  1.0551 -0.6235  0.2072
  271MOL0     C35655   2.950   0.374   0.154 -0.0842  0.6476  0.8877
  271MOL0     C35656   2.973   0.266   0.046 -0.1961  0.3727 -0.2189
  271MOL0     N35657   2.836   0.218   0.000  0.6908  0.5325  1.1146
  271MOL0     C35658   2.730   0.298  -0.043  0.7161  0.4760 -0.5826
  271MOL0     C35659   2.624   0.209  -0.064 -0.7444 -0.5607 -0.7650
  271MOL0     C35660   2.494   0.248  -0.114 -0.5259  0.0087 -0.1833
  271MOL0     C35661   2.413   0.235   0.008 -0.4242  0.1735  1.2751
  271MOL0     C35662   2.263   0.243  -0.032 -0.6026 -0.1674  0.2177
  271MOL0     C35663   2.165   0.208   0.088 -0.5268  0.4407  0.6955
  271MOL0     O35664   2.035   0.266   0.064 -0.7259 -0.1293  0.0000
  271MOL0     C35665   1.944   0.214   0.140  1.2783  0.9090  0.5180
  271MOL0     C35666   1.847   0.129   0.096 -0.0044 -0.4068  0.0751
  271MOL0     C35667   1.753   0.080   0.179  0.3366 -1.0941  0.3080
  271MOL0     C35668   1.734   0.124   0.311 -0.4846 -0.1161 -0.1297
  271MOL0     C35669   1.631   0.058   0.400  0.4780 -0.5486 -0.9775
  271MOL0     O35670   1.588   0.133   0.506 -0.2704  0.0386  0.1862
  271MOL0     C35671   1.537   0.065   0.609  0.2584  0.3559  0.9879
  271MOL0     C35672   1.599   0.078   0.737  0.0367 -0.3694  0.1113
  271MOL0     C35673   1.531   0.025   0.851  0.3471  0.1310 -0.4215
  271MOL0     C35674   1.406  -0.034   0.824  0.2834 -0.3688 -1.0583
  271MOL0     O35675   1.334  -0.092   0.933  0.0716 -0.2320  0.7383
  271MOL0     C35676   1.362  -0.238   0.941 -0.8057 -0.4516  0.2202
  271MOL0     C35677   1.254  -0.314   1.011 -0.3000  0.4296 -0.7369
  271MOL0     C35678   1.257  -0.294   1.160 -0.5428 -0.8964 -0.2370
  271MOL0     C35679   1.130  -0.327   1.237 -0.4424 -0.1701  0.1269
  271MOL0     C35680   1.149  -0.276   1.381  0.2889  0.0938 -0.1189
  271MOL0     C35681   1.146  -0.127   1.406  0.1582  1.1884  0.0679
  271MOL0     C35682   1.196  -0.090   1.542 -0.5046  0.7271 -1.0455
  271MOL0     C35683   1.091  -0.117   1.644  0.6821  0.6196 -1.1380
  271MOL0    Cl35684   1.146  -0.073   1.818 -0.2747 -0.0713  0.6227
  271MOL0     C35685   1.341  -0.035   0.708  0.4227 -0.0751 -0.1707
  271MOL0     C35686   1.413   0.008   0.593  0.5655 -0.2808  0.8568
  271MOL0     O35687   1.597  -0.058   0.377 -0.1037 -0.3849 -0.2515
  271MOL0     C35688   1.831   0.215   0.357 -0.0884 -1.0812  0.3732
  271MOL0     C35689   1.931   0.264   0.267  0.3280 -1.3785 -0.3106
  271MOL0     N35690   2.668   0.085  -0.021 -0.0907  0.2794  0.4655
  271MOL0     N35691   2.792   0.086   0.012 -0.3967 -0.4727 -0.5696
  271MOL0     C35692   3.885   0.212   0.368  0.8092 -0.2495  0.3908
  271MOL0     C35693   3.998   0.137   0.360  0.6599 -0.2858  0.9285
  271MOL0     C35694   4.462   0.084   0.265 -0.5686 -0.9004  0.3568
  271MOL0     C35695   4.582   0.151   0.280 -1.0513  0.0153 -0.0220
  271MOL0     C35696   4.715   0.087   0.253  0.6405 -0.5658  0.2098
  271MOL0     C35697   4.711  -0.047   0.221  0.5267 -0.5320  0.3748
  271MOL0     O35698   4.834  -0.107   0.207 -0.5708  0.6583 -0.0359
  271MOL0     C35699   4.837  -0.250   0.190  0.0058 -0.2020  0.1458
  271MOL0     C35700   4.977  -0.305   0.202  0.4933  0.0132 -0.9625
  271MOL0     C35701   5.065  -0.221   0.305 -0.2039 -0.3997 -0.4101
  271MOL0     C35702   5.197  -0.303   0.325 -0.0699 -0.0064  0.0086
  271MOL0     C35703   5.279  -0.227   0.425 -0.2805 -0.2730  0.2611
  271MOL0     C35704   5.345  -0.146   0.486  0.3508 -1.3207 -1.1330
  271MOL0     C35705   4.590  -0.119   0.211  1.1187 -0.1902 -0.0652
  271MOL0     C35706   4.470  -0.045   0.220 -0.2854 -0.0580  0.1763
  271MOL0     H35707   4.157   0.319   0.119  1.0076  0.5744  1.8235
  271MOL0     H35708   3.940   0.445   0.127 -0.3047  0.5562 -0.1393
  271MOL0     H35709   3.709   0.448   0.490  1.5682  0.0707 -0.8308
  271MOL0     H35710   3.622   0.300   0.447 -2.7231  2.0424  3.2632
  271MOL0     H35711   3.557   0.571   0.338  0.7603 -0.1058 -0.2480
  271MOL0     H35712   3.489   0.476   0.474 -0.0594  1.0049 -0.0857
  271MOL0     H35713   3.466   0.286   0.291 -1.3664  0.4169 -0.1384
  271MOL0     H35714   3.439   0.436   0.187  0.3281 -0.4541 -0.6923
  271MOL0     H35715   3.270   0.368   0.424  0.2026 -3.8882 -1.6489
  271MOL0     H35716   3.290   0.528   0.335  1.9886 -0.4919  1.0369
  271MOL0     H35717   3.207   0.267   0.178 -1.1042 -1.0191  0.5582
  271MOL0     H35718   3.216   0.430   0.134 -0.9714 -1.6528 -0.4516
  271MOL0     H35719   3.042   0.496   0.301 -1.7881 -0.5473 -0.8324
  271MOL0     H35720   3.032   0.330   0.351 -3.5018 -1.2257 -1.2205
  271MOL0     H35721   2.854   0.355   0.203 -0.0723  0.0646  0.6894
  271MOL0     H35722   2.947   0.467   0.095 -1.8640  0.1693  0.1556
  271MOL0     H35723   3.031   0.189   0.096  2.1368  0.6639 -2.2731
  271MOL0     H35724   3.033   0.301  -0.039 -0.2511  0.2208 -0.3211
  271MOL0     H35725   2.744   0.402  -0.073  1.8089  1.3713  2.5879
  271MOL0     H35726   2.450   0.174  -0.182 -0.7800 -0.8161  0.8541
  271MOL0     H35727   2.493   0.342  -0.170 -1.0951 -0.0891 -0.3388
  271MOL0     H35728   2.440   0.316   0.076 -1.8020  2.1798 -0.4195
  271MOL0     H35729   2.427   0.141   0.062  2.1451 -0.6019 -0.5450
  271MOL0     H35730   2.244   0.349  -0.055  0.5826  0.0516  0.1996
  271MOL0     H35731   2.246   0.176  -0.117  1.0619  0.1553 -0.3972
  271MOL0     H35732   2.214   0.244   0.179  0.5718  2.0987 -0.5062
  271MOL0     H35733   2.154   0.100   0.103  4.2472 -0.2725  0.6628
  271MOL0     H35734   1.860   0.101  -0.008  0.8502  0.6164 -0.1114
  271MOL0     H35735   1.691  -0.004   0.147 -1.8670  0.1260  1.1629
  271MOL0     H35736   1.699   0.120   0.748 -0.0710 -0.8923  4.8553
  271MOL0     H35737   1.574   0.016   0.950 -0.8195  2.5783  0.3896
  271MOL0     H35738   1.463  -0.249   0.980 -0.4434  1.0422 -0.2362
  271MOL0     H35739   1.369  -0.265   0.835  1.9250  1.0278 -0.0679
  271MOL0     H35740   1.267  -0.422   1.002 -0.3319  0.4066 -0.4998
  271MOL0     H35741   1.158  -0.283   0.970 -1.9173 -0.5399  2.0631
  271MOL0     H35742   1.272  -0.186   1.173  1.7746 -1.2140  0.1542
  271MOL0     H35743   1.337  -0.353   1.206 -2.2648 -2.7604  0.5336
  271MOL0     H35744   1.042  -0.301   1.179 -1.3901 -2.9124  0.1611
  271MOL0     H35745   1.110  -0.434   1.249  0.1830 -0.3909 -0.7169
  271MOL0     H35746   1.237  -0.320   1.427  1.3485 -0.5253 -2.5911
  271MOL0     H35747   1.061  -0.328   1.422  0.8975 -2.8189 -2.1825
  271MOL0     H35748   1.041  -0.097   1.394 -0.8744 -0.4572  3.6192
  271MOL0     H35749   1.207  -0.065   1.340 -0.5496  0.9465 -0.8279
  271MOL0     H35750   1.291  -0.136   1.574 -0.5396  3.2101  3.6103
  271MOL0     H35751   1.219   0.016   1.530 -1.9301  0.9566 -1.9139
  271MOL0     H35752   1.063  -0.222   1.648  0.9108  0.5668 -0.9191
  271MOL0     H35753   0.996  -0.066   1.624 -0.0715  0.8002  2.3156
  271MOL0     H35754   1.251  -0.092   0.686  0.6290 -0.2351 -0.6238
  271MOL0     H35755   1.371  -0.014   0.495 -0.0626 -1.6783  1.4013
  271MOL0     H35756   1.847   0.242   0.461 -0.8158  0.5579  0.0837
  271MOL0     H35757   1.989   0.349   0.302  1.1174 -1.5648 -1.1205
  271MOL0     H35758   3.802   0.184   0.432 -0.6183  0.6773 -0.9617
  271MOL0     H35759   3.996   0.057   0.433  2.2996 -1.7443 -0.5046
  271MOL0     H35760   4.589   0.257   0.304 -0.6319 -0.2858  1.2525
  271MOL0     H35761   4.812   0.132   0.270  0.3935 -0.8227  2.7698
  271MOL0     H35762   4.793  -0.290   0.098  1.8797 -0.8934 -0.4940
  271MOL0     H35763   4.786  -0.300   0.272 -1.2001  1.6915  0.6044
  271MOL0     H35764   4.971  -0.409   0.236  0.6968 -0.1523 -1.4144
  271MOL0     H35765   5.025  -0.292   0.104 -2.4692  1.5869 -2.3423
  271MOL0     H35766   5.003  -0.207   0.394  0.5133 -0.2924  0.0839
  271MOL0     H35767   5.099  -0.121   0.277  1.0963 -0.2432  1.4741
  271MOL0     H35768   5.181  -0.407   0.357 -2.7860  0.0181 -0.9683
  271MOL0     H35769   5.244  -0.315   0.228  1.3596 -1.4412  0.8298
  271MOL0     H35770   5.401  -0.082   0.551 -0.5844  0.8598 -2.3837
  271MOL0     H35771   4.592  -0.223   0.178  2.7194 -1.0768  2.5196
  271MOL0     H35772   4.379  -0.091   0.183 -0.1786 -0.3969  0.3337
  272MOL0     O35773   5.627   0.766   1.182 -0.2573 -1.0992 -0.7096
  272MOL0     C35774   5.638   0.783   1.061 -0.2614  0.2484  0.4595
  272MOL0     O35775   5.547   0.740   0.968  0.5259  0.0420  0.2700
  272MOL0     C35776   5.426   0.667   0.998 -0.1730 -0.3447  0.3568
  272MOL0     C35777   5.335   0.698   1.097 -0.3106  1.1759 -0.1187
  272MOL0     C35778   5.222   0.632   1.133  0.1563  0.1490 -0.5482
  272MOL0     C35779   5.188   0.527   1.049  0.5994  0.2082  0.3480
  272MOL0     O35780   5.087   0.442   1.075 -0.3208 -0.0620  0.5156
  272MOL0     C35781   4.960   0.497   1.115 -0.5571  0.7805 -0.0163
  272MOL0     C35782   4.869   0.372   1.128 -0.0906 -0.7215 -0.1395
  272MOL0     C35783   4.725   0.425   1.142 -0.5310  0.0556 -0.6542
  272MOL0     C35784   4.618   0.315   1.162  0.2208 -0.0260 -0.4227
  272MOL0     C35785   4.504   0.388   1.234 -0.6584 -0.1334 -0.1459
  272MOL0     C35786   4.394   0.283   1.266 -0.2661  0.1261 -1.3998
  272MOL0     C35787   4.322   0.235   1.150 -0.2624  0.0817  0.4852
  272MOL0     C35788   4.183   0.191   1.190 -0.0731  0.2956 -0.2403
  272MOL0     N35789   4.098   0.295   1.252 -0.3790  0.1216  0.4689
  272MOL0     C35790   3.988   0.269   1.334 -0.1525  0.2341 -0.4063
  272MOL0     C35791   3.936   0.390   1.368  0.4404  0.7771  0.0821
  272MOL0     C35792   3.823   0.393   1.466 -0.4367 -0.7979  0.9700
  272MOL0     C35793   3.702   0.484   1.421 -0.8104 -0.3103 -0.0674
  272MOL0     C35794   3.592   0.471   1.528 -0.4000 -0.3654 -0.1284
  272MOL0     C35795   3.478   0.575   1.512  0.8178 -0.0251 -0.0468
  272MOL0     O35796   3.370   0.545   1.613 -0.3002  0.6811 -0.4936
  272MOL0     C35797   3.276   0.452   1.578  0.5972  0.2484  0.4117
  272MOL0     C35798   3.269   0.383   1.454 -0.2628 -0.7151  0.6126
  272MOL0     C35799   3.152   0.312   1.417  0.2297  0.2245 -0.3986
  272MOL0     C35800   3.051   0.293   1.512 -0.2454 -0.6132  0.1129
  272MOL0     C35801   2.922   0.213   1.479 -0.2824 -0.7596  0.3552
  272MOL0     O35802   2.835   0.177   1.586 -0.0801 -0.4919  0.5260
  272MOL0     C35803   2.726   0.093   1.560 -0.7321  0.0896 -0.6712
  272MOL0     C35804   2.626   0.127   1.477  0.9394 -0.1315 -0.3596
  272MOL0     C35805   2.520   0.044   1.455 -0.4990 -0.1396  0.0644
  272MOL0     C35806   2.506  -0.075   1.535 -0.3507  0.5307 -0.6021
  272MOL0     O35807   2.400  -0.160   1.536  0.7365  0.2446  0.1904
  272MOL0     C35808   2.324  -0.168   1.415  0.0880 -0.5707 -0.2272
  272MOL0     C35809   2.206  -0.269   1.417 -0.0814  0.3357 -0.3851
  272MOL0     C35810   2.259  -0.412   1.410 -0.3753  0.0579 -0.7051
  272MOL0     C35811   2.182  -0.491   1.508  0.7385  0.0763  0.3626
  272MOL0     C35812   2.233  -0.633   1.526  0.4588 -0.6276  0.3478
  272MOL0     C35813   2.209  -0.723   1.408 -0.4898  0.5058 -0.3267
  272MOL0     C35814   2.219  -0.870   1.447 -0.0270  0.0129  0.0464
  272MOL0     C35815   2.217  -0.946   1.317  0.0688  0.5053 -0.3902
  272MOL0    Cl35816   2.067  -0.932   1.209  0.3310  0.3225  0.2249
  272MOL0     C35817   2.610  -0.111   1.625  0.3949  0.2275 -0.4595
  272MOL0     C35818   2.715  -0.025   1.632  0.1968 -0.0065  0.5308
  272MOL0     O35819   2.905   0.178   1.364  0.0433  0.2201  0.4291
  272MOL0     C35820   3.068   0.349   1.638 -0.6693 -0.0049 -0.0030
  272MOL0     C35821   3.185   0.415   1.669 -0.0526 -0.6649  0.0748
  272MOL0     N35822   4.004   0.482   1.296 -0.4640  0.5250 -0.7649
  272MOL0     N35823   4.102   0.430   1.234 -0.4739  0.4560 -0.5530
  272MOL0     C35824   5.270   0.495   0.932 -0.1143 -0.3446  0.1928
  272MOL0     C35825   5.389   0.559   0.913 -0.1562  0.0687  0.1989
  272MOL0     C35826   5.764   0.827   0.998  0.8918 -0.5648  0.3413
  272MOL0     C35827   5.774   0.838   0.858  0.4382  0.2254  0.1327
  272MOL0     C35828   5.906   0.869   0.808 -0.5330  0.7409  0.1860
  272MOL0     C35829   6.014   0.889   0.886 -0.6917 -0.7495 -0.0423
  272MOL0     O35830   6.132   0.910   0.822 -0.0190  0.6900  0.1546
  272MOL0     C35831   6.253   0.963   0.879  0.2534 -0.1659 -0.5393
  272MOL0     C35832   6.366   0.968   0.772  0.4728  0.5182 -0.0701
  272MOL0     C35833   6.348   1.049   0.642 -0.3138 -0.3525  0.3324
  272MOL0     C35834   6.473   1.052   0.552 -0.0243  0.6406  0.6241
  272MOL0     C35835   6.576   1.130   0.616  0.1563 -0.9731 -0.2932
  272MOL0     C35836   6.654   1.214   0.659  0.0709  0.7797  0.0449
  272MOL0     C35837   5.997   0.891   1.020  0.6166 -0.3579  0.1597
  272MOL0     C35838   5.872   0.857   1.078  0.5915 -0.1715  0.3363
  272MOL0     H35839   5.364   0.781   1.162  0.5659  1.5057 -0.9039
  272MOL0     H35840   5.171   0.657   1.225 -2.0680 -2.8054 -0.8374
  272MOL0     H35841   4.912   0.565   1.044 -1.6815  0.8358  0.7764
  272MOL0     H35842   4.968   0.541   1.215  0.1161 -2.2880  1.4226
  272MOL0     H35843   4.902   0.309   1.212  4.7197  1.2662 -0.1946
  272MOL0     H35844   4.870   0.318   1.033 -1.9332 -0.1375 -0.5350
  272MOL0     H35845   4.701   0.476   1.049  2.6586 -0.4307 -1.8723
  272MOL0     H35846   4.731   0.490   1.230  0.8571 -2.3810  1.1706
  272MOL0     H35847   4.589   0.270   1.066  1.6047  2.2239 -1.9882
  272MOL0     H35848   4.654   0.243   1.236 -0.3094 -1.2369 -1.3075
  272MOL0     H35849   4.456   0.461   1.168 -1.3669  0.0822  0.5923
  272MOL0     H35850   4.532   0.433   1.329  2.3256 -1.1843 -0.4206
  272MOL0     H35851   4.329   0.317   1.347 -0.4460 -1.6238 -0.7637
  272MOL0     H35852   4.443   0.196   1.312  2.9112  1.0996 -2.6607
  272MOL0     H35853   4.314   0.315   1.075  0.8595 -0.4220 -0.2083
  272MOL0     H35854   4.372   0.153   1.098 -1.6032  0.4174 -1.4311
  272MOL0     H35855   4.188   0.106   1.259 -0.6968 -1.0498 -1.7828
  272MOL0     H35856   4.133   0.147   1.104 -2.0904  0.4495  0.7862
  272MOL0     H35857   3.965   0.171   1.377  0.0266  0.6481  0.6549
  272MOL0     H35858   3.866   0.426   1.561  2.3762 -1.4949  0.0223
  272MOL0     H35859   3.785   0.293   1.487 -0.6980 -0.4166  2.4440
  272MOL0     H35860   3.673   0.466   1.317  0.9203  3.1262 -1.2998
  272MOL0     H35861   3.738   0.587   1.414  0.6155 -0.6931  1.2501
  272MOL0     H35862   3.559   0.367   1.535 -1.9913 -0.1085 -2.4438
  272MOL0     H35863   3.649   0.500   1.617  5.3614  1.0838 -3.7577
  272MOL0     H35864   3.435   0.579   1.412  0.1541 -0.5366  0.2085
  272MOL0     H35865   3.513   0.677   1.534  1.4428 -0.4863  1.2127
  272MOL0     H35866   3.334   0.386   1.367 -0.6712 -1.1687  0.2837
  272MOL0     H35867   3.155   0.267   1.318 -0.3218  1.3323 -0.9263
  272MOL0     H35868   2.641   0.222   1.426  0.3265  2.6074  4.0459
  272MOL0     H35869   2.446   0.079   1.384 -2.0852 -1.6427  0.8985
  272MOL0     H35870   2.377  -0.182   1.320 -2.8294 -0.4822 -1.9995
  272MOL0     H35871   2.280  -0.069   1.400  3.0900  0.9134  0.0565
  272MOL0     H35872   2.136  -0.254   1.334 -0.5572 -0.1079 -0.0637
  272MOL0     H35873   2.150  -0.249   1.508  0.2458  0.5830 -0.2359
  272MOL0     H35874   2.365  -0.426   1.434 -0.5489 -1.3799 -0.6619
  272MOL0     H35875   2.262  -0.455   1.309  0.0631 -0.0371 -0.6543
  272MOL0     H35876   2.190  -0.441   1.605 -0.3671  0.4121  0.2928
  272MOL0     H35877   2.077  -0.492   1.476  1.3143  2.2686 -1.9241
  272MOL0     H35878   2.181  -0.675   1.612 -0.7155 -0.7856 -0.4147
  272MOL0     H35879   2.339  -0.615   1.544  0.4171  1.3344 -1.0377
  272MOL0     H35880   2.282  -0.700   1.330 -0.5233  1.9903  0.0315
  272MOL0     H35881   2.106  -0.705   1.377 -1.4832 -2.7874  0.7280
  272MOL0     H35882   2.317  -0.890   1.492 -1.0163  1.6228  3.2333
  272MOL0     H35883   2.134  -0.893   1.511 -1.4646  3.5675 -0.3142
  272MOL0     H35884   2.238  -1.051   1.344  0.5971  1.1521  1.9966
  272MOL0     H35885   2.304  -0.909   1.262  1.1632 -1.3380 -0.0120
  272MOL0     H35886   2.602  -0.198   1.690 -1.2295  0.3329 -0.4770
  272MOL0     H35887   2.786  -0.050   1.710  0.7963  0.7064  0.2266
  272MOL0     H35888   3.006   0.323   1.723 -1.0077  0.0366 -0.2356
  272MOL0     H35889   3.214   0.441   1.770 -1.4867  0.1628  0.3117
  272MOL0     H35890   5.238   0.414   0.868  1.3384  0.4333 -1.6197
  272MOL0     H35891   5.452   0.519   0.833 -1.4751 -1.4809 -0.1103
  272MOL0     H35892   5.694   0.808   0.791 -1.9986  2.4952  1.8092
  272MOL0     H35893   5.925   0.858   0.701 -0.4903  0.2691  0.2390
  272MOL0     H35894   6.295   0.900   0.958  1.6817 -1.5409 -2.3158
  272MOL0     H35895   6.223   1.058   0.924 -3.1276 -1.8337  1.0753
  272MOL0     H35896   6.462   0.986   0.822  0.3745 -2.6011  1.5144
  272MOL0     H35897   6.372   0.864   0.740  0.0081  0.3999  0.2265
  272MOL0     H35898   6.329   1.154   0.666 -0.5541 -0.3949  0.3308
  272MOL0     H35899   6.263   1.002   0.592  1.0174 -0.5586 -1.8755
  272MOL0     H35900   6.509   0.951   0.530  0.6890  1.1761 -0.7536
  272MOL0     H35901   6.444   1.108   0.463 -0.5862 -0.4540  0.1072
  272MOL0     H35902   6.717   1.281   0.715 -0.6791  1.4944  0.0720
  272MOL0     H35903   6.084   0.908   1.082  1.5882 -1.4773 -0.8442
  272MOL0     H35904   5.870   0.846   1.186  0.7685  0.3974  0.4008
  273MOL0     O35905   1.750   5.764   7.083  0.3166  0.2457 -0.0975
  273MOL0     C35906   1.812   5.723   7.185 -0.3849  0.2502 -0.4059
  273MOL0     O35907   1.760   5.677   7.299 -0.1181 -1.2519  0.1577
  273MOL0     C35908   1.636   5.709   7.318  0.3692 -0.3710  0.6957
  273MOL0     C35909   1.593   5.835   7.372 -0.6397 -0.0301 -0.0240
  273MOL0     C35910   1.454   5.864   7.390 -0.1564  0.5245 -0.1250
  273MOL0     C35911   1.362   5.778   7.332 -1.1618 -0.4688 -0.0072
  273MOL0     O35912   1.236   5.827   7.335 -1.1131 -0.1221  0.0160
  273MOL0     C35913   1.120   5.739   7.337  0.1901  0.2352 -0.3896
  273MOL0     C35914   1.001   5.824   7.335  0.3161  0.5451 -0.1722
  273MOL0     C35915   0.871   5.745   7.352  0.0390 -0.1712 -0.3539
  273MOL0     C35916   0.764   5.845   7.386 -0.0483 -0.1730 -0.4257
  273MOL0     C35917   0.626   5.778   7.395  0.1666 -0.4851  0.1626
  273MOL0     C35918   0.526   5.896   7.407 -0.2138 -0.8625  0.1659
  273MOL0     C35919   0.388   5.840   7.432 -0.4143 -0.1330 -0.5748
  273MOL0     C35920   0.278   5.945   7.441  0.5418  0.0175 -1.1545
  273MOL0     N35921   0.148   5.883   7.450  0.3512 -0.4532  0.1765
  273MOL0     C35922   0.087   5.822   7.338 -0.3050  0.1521  0.2561
  273MOL0     C35923  -0.031   5.771   7.385 -0.3410 -0.1544 -0.8264
  273MOL0     C35924  -0.129   5.704   7.294  0.0631  0.8152 -0.4604
  273MOL0     C35925  -0.268   5.702   7.350  0.1739 -0.7750  0.0637
  273MOL0     C35926  -0.325   5.842   7.371 -0.0910  0.1261  0.0614
  273MOL0     C35927  -0.459   5.818   7.441 -0.0259  0.5078 -0.2549
  273MOL0     O35928  -0.448   5.740   7.564 -0.0457  0.3196  0.3239
  273MOL0     C35929  -0.567   5.706   7.626  0.6370 -0.0908 -0.1452
  273MOL0     C35930  -0.695   5.730   7.576 -0.3363 -0.6614  0.9302
  273MOL0     C35931  -0.819   5.698   7.644 -0.2795  0.1247 -0.3522
  273MOL0     C35932  -0.810   5.649   7.777 -1.0390  0.3782 -0.9669
  273MOL0     C35933  -0.929   5.614   7.859  0.2906 -0.9483  0.8596
  273MOL0     O35934  -1.043   5.681   7.833  0.2727  0.2139 -0.1981
  273MOL0     C35935  -1.160   5.634   7.893  0.3657 -0.6870 -0.4032
  273MOL0     C35936  -1.243   5.549   7.826 -0.7025 -0.4190 -0.1227
  273MOL0     C35937  -1.371   5.516   7.868 -0.2863 -0.4575 -0.6863
  273MOL0     C35938  -1.426   5.575   7.980  0.2946  0.2245 -0.2853
  273MOL0     O35939  -1.546   5.535   8.030 -0.0724  0.5670  0.0044
  273MOL0     C35940  -1.617   5.616   8.134 -0.3412  0.8779  0.2578
  273MOL0     C35941  -1.762   5.577   8.180 -0.0141  0.5965  1.1484
  273MOL0     C35942  -1.858   5.523   8.065  0.3535  0.9673 -0.5553
  273MOL0     C35943  -1.991   5.482   8.124  0.1713 -0.1160 -0.3996
  273MOL0     C35944  -2.089   5.440   8.008  0.1055  0.1777  0.1244
  273MOL0     C35945  -2.228   5.400   8.056 -0.1817  1.1541  0.6968
  273MOL0     C35946  -2.310   5.330   7.950  0.0922  0.1929 -0.8325
  273MOL0     C35947  -2.450   5.299   8.003 -0.4845 -0.0186  0.1739
  273MOL0    Cl35948  -2.524   5.188   7.890 -0.4810 -0.2817 -0.1687
  273MOL0     C35949  -1.333   5.656   8.054 -0.3331  0.1592 -0.3994
  273MOL0     C35950  -1.202   5.691   8.013 -0.2538  0.9017  0.2126
  273MOL0     O35951  -0.915   5.533   7.941 -0.0372  0.0919 -0.1978
  273MOL0     C35952  -0.679   5.614   7.821 -1.2413 -1.3987  0.2785
  273MOL0     C35953  -0.558   5.638   7.747  0.3620 -0.0125  0.7408
  273MOL0     N35954  -0.029   5.790   7.524 -0.3452 -0.3331  0.0482
  273MOL0     N35955   0.077   5.860   7.569  0.8723  0.3503  0.1356
  273MOL0     C35956   1.406   5.652   7.293  0.6674 -0.6780 -0.2003
  273MOL0     C35957   1.536   5.615   7.302 -1.0550 -0.1867 -0.2895
  273MOL0     C35958   1.965   5.721   7.190  0.2487 -0.5941  0.5006
  273MOL0     C35959   2.037   5.725   7.069  0.1310  0.7669 -0.1847
  273MOL0     C35960   2.174   5.726   7.056  0.0682  0.0277 -0.2519
  273MOL0     C35961   2.249   5.738   7.175 -0.0254  0.8687 -0.9312
  273MOL0     O35962   2.389   5.746   7.151  0.3686 -0.1858 -0.9209
  273MOL0     C35963   2.469   5.714   7.263 -0.2047  0.0052  0.0195
  273MOL0     C35964   2.620   5.706   7.236 -0.0457  0.5680 -0.3966
  273MOL0     C35965   2.670   5.851   7.204  0.0602  0.3008  0.2058
  273MOL0     C35966   2.821   5.849   7.194  0.3791  0.4419 -0.5763
  273MOL0     C35967   2.885   5.799   7.075 -0.0958 -0.1430  0.4256
  273MOL0     C35968   2.946   5.768   6.974  0.1130 -0.1900  0.3381
  273MOL0     C35969   2.176   5.739   7.295 -0.2416 -0.3120  0.8425
  273MOL0     C35970   2.039   5.728   7.312  0.5644  0.2659 -0.5489
  273MOL0     H35971   1.659   5.920   7.388 -2.8716  1.5660  1.4436
  273MOL0     H35972   1.420   5.960   7.427  1.3363  1.1223 -0.2352
  273MOL0     H35973   1.110   5.679   7.429 -5.7112 -0.4975 -1.0733
  273MOL0     H35974   1.113   5.669   7.253 -2.6784 -2.2115  1.6526
  273MOL0     H35975   1.008   5.883   7.243  2.2665  1.1977  0.3352
  273MOL0     H35976   1.016   5.888   7.422  2.6113 -1.8435  1.3377
  273MOL0     H35977   0.882   5.664   7.425 -2.3020  0.1499  0.4469
  273MOL0     H35978   0.837   5.691   7.263  0.8370 -3.6011  1.2356
  273MOL0     H35979   0.783   5.896   7.480 -0.8144  0.6384 -0.6917
  273MOL0     H35980   0.758   5.926   7.312 -1.1560  1.9854  1.8874
  273MOL0     H35981   0.617   5.708   7.478 -3.1000 -0.8028 -0.2937
  273MOL0     H35982   0.612   5.727   7.299  1.0101  1.1575 -0.8778
  273MOL0     H35983   0.528   5.950   7.312  3.0922  0.5940  0.9429
  273MOL0     H35984   0.556   5.978   7.472  0.6834  0.4529 -1.7974
  273MOL0     H35985   0.376   5.758   7.361 -3.0956 -0.3057 -0.0341
  273MOL0     H35986   0.385   5.788   7.528 -0.3942 -0.5173 -0.7836
  273MOL0     H35987   0.283   6.007   7.351  1.9584  0.3398 -0.8869
  273MOL0     H35988   0.291   6.020   7.520  2.0276 -1.0331 -0.3532
  273MOL0     H35989   0.122   5.808   7.236 -0.1667 -2.3992  0.5710
  273MOL0     H35990  -0.106   5.602   7.261  0.5732  1.3294 -1.7775
  273MOL0     H35991  -0.140   5.772   7.209 -2.2034  1.2288  0.0824
  273MOL0     H35992  -0.276   5.636   7.437  0.6491 -0.9903 -0.0479
  273MOL0     H35993  -0.327   5.655   7.270 -1.2187  0.7542  0.1484
  273MOL0     H35994  -0.263   5.906   7.433  1.0009  1.3377 -2.1492
  273MOL0     H35995  -0.336   5.900   7.279  1.0693  2.0339  1.0650
  273MOL0     H35996  -0.535   5.776   7.376  2.1745 -0.6519 -2.2042
  273MOL0     H35997  -0.489   5.915   7.482  0.5038  0.2238  0.8422
  273MOL0     H35998  -0.714   5.792   7.489 -0.6428  0.5391  1.8225
  273MOL0     H35999  -0.920   5.710   7.605 -0.3105  0.1747 -0.2573
  273MOL0     H36000  -1.210   5.498   7.735  1.0110 -0.0862  0.2631
  273MOL0     H36001  -1.435   5.447   7.814 -1.1902  1.2288 -1.8738
  273MOL0     H36002  -1.622   5.720   8.102  1.2183  0.6260 -0.9270
  273MOL0     H36003  -1.554   5.610   8.224 -0.3458 -1.8983  0.1895
  273MOL0     H36004  -1.800   5.676   8.208 -2.6088  0.9875 -2.9172
  273MOL0     H36005  -1.771   5.514   8.269 -0.8359  0.6333  1.0923
  273MOL0     H36006  -1.806   5.440   8.016  0.1773  0.2830  0.3823
  273MOL0     H36007  -1.868   5.597   7.985 -0.8140 -0.6518 -1.9800
  273MOL0     H36008  -1.980   5.396   8.191 -2.0738 -0.4416 -0.3715
  273MOL0     H36009  -2.023   5.568   8.184  1.3947 -0.1533  0.3364
  273MOL0     H36010  -2.035   5.368   7.946 -1.4505 -1.4763  0.5798
  273MOL0     H36011  -2.098   5.520   7.935 -0.7907  0.0097  0.0411
  273MOL0     H36012  -2.281   5.491   8.087  1.0499  3.2633 -2.8999
  273MOL0     H36013  -2.220   5.323   8.133  0.0037  0.9320  0.4539
  273MOL0     H36014  -2.323   5.403   7.869 -0.2810  1.7786  0.6104
  273MOL0     H36015  -2.265   5.237   7.915  1.2514 -0.1458  1.3851
  273MOL0     H36016  -2.508   5.392   7.998  0.5960  0.6247 -1.9048
  273MOL0     H36017  -2.455   5.255   8.103  0.0947 -3.7679 -1.3030
  273MOL0     H36018  -1.354   5.685   8.157  1.0669 -1.3080  0.3535
  273MOL0     H36019  -1.138   5.753   8.074  1.0103  0.1613 -0.3363
  273MOL0     H36020  -0.649   5.580   7.920 -1.4408 -0.5980  0.6183
  273MOL0     H36021  -0.463   5.632   7.800 -0.9125  1.6464  3.4592
  273MOL0     H36022   1.335   5.572   7.273  0.3964 -1.4217  3.0679
  273MOL0     H36023   1.578   5.514   7.299  1.6545  0.7548  1.5493
  273MOL0     H36024   1.981   5.727   6.975 -0.3475 -0.1544  0.0630
  273MOL0     H36025   2.231   5.733   6.964 -0.3221  1.9325 -0.3847
  273MOL0     H36026   2.432   5.615   7.291  0.4004 -0.4996 -0.8992
  273MOL0     H36027   2.461   5.795   7.336  0.2118  1.0597 -1.0511
  273MOL0     H36028   2.669   5.677   7.329 -0.0276 -4.3781 -1.6737
  273MOL0     H36029   2.644   5.632   7.159  0.3306 -0.6622  0.8612
  273MOL0     H36030   2.646   5.923   7.283  0.8892  0.0108  0.7370
  273MOL0     H36031   2.630   5.879   7.106  1.1157 -0.2945 -0.4179
  273MOL0     H36032   2.841   5.956   7.202  0.6399  0.3713 -0.2636
  273MOL0     H36033   2.867   5.793   7.276  3.6799 -2.2655 -3.9263
  273MOL0     H36034   3.000   5.771   6.882 -1.0591  0.7188 -0.3424
  273MOL0     H36035   2.238   5.754   7.383 -1.3404  2.4237  1.2373
  273MOL0     H36036   1.986   5.731   7.407  0.9725 -0.1013 -0.3098
  274MOL0     O36037  10.542   1.143   3.205 -0.9477 -0.0930  0.2860
  274MOL0     C36038  10.645   1.075   3.222  0.1916  0.4891 -0.9199
  274MOL0     O36039  10.643   0.948   3.275 -0.0575  0.5359 -0.8703
  274MOL0     C36040  10.530   0.876   3.319 -0.1689  0.3845  0.9294
  274MOL0     C36041  10.562   0.760   3.402 -0.6376 -0.4836  0.4049
  274MOL0     C36042  10.458   0.694   3.466  0.0753 -0.5797  0.4306
  274MOL0     C36043  10.319   0.722   3.432 -0.8061  0.7965 -0.4771
  274MOL0     O36044  10.209   0.659   3.481  0.1926  0.1643  0.9816
  274MOL0     C36045  10.228   0.556   3.581 -0.1960 -0.7460  0.4260
  274MOL0     C36046  10.096   0.478   3.600 -0.1656 -0.1407 -0.3334
  274MOL0     C36047   9.976   0.560   3.648  0.0101 -0.5640 -0.0615
  274MOL0     C36048  10.013   0.620   3.779  0.0332  0.5508 -0.0877
  274MOL0     C36049   9.886   0.665   3.845 -0.9377 -0.5508  0.0396
  274MOL0     C36050   9.809   0.770   3.769 -0.4542 -0.3385  0.0388
  274MOL0     C36051   9.691   0.826   3.858  0.3058 -0.2073  0.1333
  274MOL0     C36052   9.610   0.933   3.783 -0.6388  0.6072 -1.1668
  274MOL0     N36053   9.571   0.908   3.643  0.6230  0.3868  0.2713
  274MOL0     C36054   9.513   0.788   3.604  0.0626  0.7792 -0.1385
  274MOL0     C36055   9.521   0.782   3.470  0.0751  0.0835  0.5371
  274MOL0     C36056   9.486   0.670   3.381  0.1951  0.5936  0.0123
  274MOL0     C36057   9.337   0.637   3.404 -0.0391 -1.0941  0.3119
  274MOL0     C36058   9.284   0.560   3.285 -0.0590 -0.2787 -0.6215
  274MOL0     C36059   9.172   0.470   3.331  0.3002  0.3728  0.1626
  274MOL0     O36060   9.070   0.549   3.396  0.0657  0.0983 -0.6340
  274MOL0     C36061   8.950   0.490   3.399 -0.1944  0.1526 -0.9232
  274MOL0     C36062   8.836   0.580   3.402  0.1010  0.2234 -0.3418
  274MOL0     C36063   8.711   0.532   3.412  0.1721 -0.1643 -0.6993
  274MOL0     C36064   8.681   0.391   3.422  0.1789 -0.3744 -0.5903
  274MOL0     C36065   8.547   0.338   3.450 -0.6340 -0.5822 -0.1183
  274MOL0     O36066   8.456   0.424   3.496  0.0163 -0.4418  0.1155
  274MOL0     C36067   8.341   0.372   3.553  0.0996  0.0723 -1.1178
  274MOL0     C36068   8.220   0.404   3.480 -0.6929  1.4624 -0.2896
  274MOL0     C36069   8.097   0.354   3.528  0.0463 -0.2475  0.3394
  274MOL0     C36070   8.100   0.270   3.644  0.9585 -0.1830 -0.3013
  274MOL0     O36071   7.987   0.206   3.695 -0.1647 -0.1275 -0.3411
  274MOL0     C36072   7.865   0.266   3.693  0.7478 -0.1728 -0.7941
  274MOL0     C36073   7.749   0.180   3.750  0.3714 -0.0478 -0.0545
  274MOL0     C36074   7.608   0.243   3.733 -0.1719  0.5763 -0.1698
  274MOL0     C36075   7.516   0.159   3.827  0.0743 -0.0127  0.2883
  274MOL0     C36076   7.378   0.224   3.847  0.4097 -0.0361  0.3546
  274MOL0     C36077   7.289   0.130   3.927  0.6825  0.8722 -0.8120
  274MOL0     C36078   7.140   0.172   3.932  0.2500 -0.6052 -0.0413
  274MOL0     C36079   7.070   0.193   3.790  1.0230  0.2690 -0.5535
  274MOL0    Cl36080   6.890   0.165   3.797 -0.2269 -0.3249  0.1634
  274MOL0     C36081   8.219   0.252   3.715 -0.3857  0.0825 -0.4780
  274MOL0     C36082   8.346   0.304   3.673  0.6512 -0.2178 -0.4230
  274MOL0     O36083   8.521   0.225   3.433 -0.6267 -0.0748  0.6348
  274MOL0     C36084   8.791   0.305   3.412  0.6850  0.1492  0.4131
  274MOL0     C36085   8.917   0.355   3.410 -0.7728  0.0989 -0.5052
  274MOL0     N36086   9.579   0.905   3.438 -0.3248  0.8613 -0.1343
  274MOL0     N36087   9.610   0.978   3.541 -0.0170 -0.0313  1.0185
  274MOL0     C36088  10.294   0.824   3.344  0.2797 -0.5649 -0.6130
  274MOL0     C36089  10.394   0.906   3.290 -0.2819  0.2920  0.3694
  274MOL0     C36090  10.776   1.118   3.179 -0.4754 -0.0251  0.1370
  274MOL0     C36091  10.801   1.250   3.145 -0.7758 -0.2206  0.2633
  274MOL0     C36092  10.921   1.288   3.099 -1.1747  0.0386  0.1888
  274MOL0     C36093  11.030   1.202   3.102 -0.2271  0.2509  0.5039
  274MOL0     O36094  11.145   1.269   3.076 -0.5252 -0.0658 -0.3460
  274MOL0     C36095  11.268   1.215   3.119  0.1835 -0.0142  0.4568
  274MOL0     C36096  11.356   1.324   3.179  0.4707  0.3281 -0.2904
  274MOL0     C36097  11.281   1.386   3.303 -0.0450  0.4843  0.7102
  274MOL0     C36098  11.376   1.478   3.383 -0.3963 -0.1584  0.7342
  274MOL0     C36099  11.480   1.400   3.448 -0.2339  0.3052 -0.4110
  274MOL0     C36100  11.571   1.341   3.510 -0.1682 -0.2254  0.5782
  274MOL0     C36101  11.013   1.066   3.140 -0.5281 -1.8751  0.3350
  274MOL0     C36102  10.882   1.021   3.172  0.1390 -0.7007  0.2242
  274MOL0     H36103  10.660   0.747   3.447 -1.9255  0.7292  3.9334
  274MOL0     H36104  10.482   0.616   3.537 -1.9178 -0.1145  1.6943
  274MOL0     H36105  10.264   0.609   3.670  0.4872  0.2605 -0.4222
  274MOL0     H36106  10.300   0.485   3.540  0.0524 -0.2059 -0.0985
  274MOL0     H36107  10.122   0.402   3.674 -3.6004  0.7048  1.9598
  274MOL0     H36108  10.060   0.422   3.513 -0.0083  2.8884 -2.5038
  274MOL0     H36109   9.887   0.499   3.665  1.6767 -2.8171  1.1020
  274MOL0     H36110   9.954   0.632   3.568 -1.2643 -0.3932  0.4103
  274MOL0     H36111  10.069   0.545   3.835 -2.1554  0.2430  1.8831
  274MOL0     H36112  10.076   0.708   3.765 -0.0796  0.4684 -1.2139
  274MOL0     H36113   9.902   0.704   3.946  1.5543 -2.1176  0.3424
  274MOL0     H36114   9.821   0.577   3.852  2.0537 -3.1758 -2.1429
  274MOL0     H36115   9.777   0.745   3.668 -1.4247  1.5328 -0.1659
  274MOL0     H36116   9.874   0.857   3.757  1.4259 -1.6126  0.6173
  274MOL0     H36117   9.629   0.741   3.888  1.6644 -1.5846 -0.8280
  274MOL0     H36118   9.729   0.875   3.949  1.3597 -1.6985  0.5311
  274MOL0     H36119   9.665   1.027   3.795 -0.7895  0.3355  5.8677
  274MOL0     H36120   9.517   0.953   3.837 -0.5454  1.2897 -1.2446
  274MOL0     H36121   9.475   0.701   3.657 -1.0663 -0.6221 -3.0364
  274MOL0     H36122   9.551   0.583   3.391 -0.4784  0.1385  0.5192
  274MOL0     H36123   9.493   0.712   3.281 -1.7306 -0.6656 -0.7157
  274MOL0     H36124   9.275   0.727   3.404 -0.2136 -1.2088  1.2660
  274MOL0     H36125   9.316   0.576   3.492 -0.8504 -2.1515 -0.5932
  274MOL0     H36126   9.248   0.643   3.222 -2.6134 -0.0252  1.0406
  274MOL0     H36127   9.367   0.502   3.242  0.6760 -1.3058  1.9996
  274MOL0     H36128   9.207   0.390   3.395  1.6235  1.3565  0.7013
  274MOL0     H36129   9.128   0.420   3.244  1.3510 -0.6868  0.2269
  274MOL0     H36130   8.848   0.687   3.417  2.1184  0.0639 -0.4625
  274MOL0     H36131   8.628   0.598   3.434  1.0042  0.7775 -0.3241
  274MOL0     H36132   8.222   0.463   3.389 -2.8364  1.4987 -0.3569
  274MOL0     H36133   8.003   0.374   3.477  0.2301 -2.3084 -0.8979
  274MOL0     H36134   7.839   0.286   3.588 -0.1591 -0.8663 -0.7080
  274MOL0     H36135   7.864   0.361   3.748 -1.2873  0.7790 -2.2915
  274MOL0     H36136   7.774   0.165   3.855  1.3431  0.4057 -0.2143
  274MOL0     H36137   7.751   0.079   3.708  1.7450  0.2879 -0.8531
  274MOL0     H36138   7.574   0.241   3.629 -2.5218 -0.1288  0.5608
  274MOL0     H36139   7.617   0.346   3.769  0.6091  0.8666 -1.1492
  274MOL0     H36140   7.501   0.072   3.762  2.1043 -0.8255  0.8198
  274MOL0     H36141   7.557   0.121   3.921 -0.0089  0.6005  0.5730
  274MOL0     H36142   7.342   0.256   3.749 -0.0866  1.3672  0.9694
  274MOL0     H36143   7.378   0.315   3.907 -1.8892  0.5180 -0.4088
  274MOL0     H36144   7.333   0.122   4.027 -0.7348 -2.5217 -0.3374
  274MOL0     H36145   7.286   0.035   3.873 -1.4654  1.0447 -1.0561
  274MOL0     H36146   7.082   0.096   3.985  1.4984 -0.5515  1.5082
  274MOL0     H36147   7.132   0.267   3.987 -2.6871 -1.6242  1.5283
  274MOL0     H36148   7.117   0.125   3.718  1.6599 -1.5137  1.4023
  274MOL0     H36149   7.083   0.297   3.759  0.3947  0.9742  1.3925
  274MOL0     H36150   8.220   0.194   3.806 -0.6517  1.9557  0.7710
  274MOL0     H36151   8.441   0.269   3.712  1.2265 -0.1828 -1.7207
  274MOL0     H36152   8.777   0.198   3.415  1.1323  0.0893  0.4806
  274MOL0     H36153   8.998   0.283   3.425 -2.5561 -2.0029 -0.5269
  274MOL0     H36154  10.192   0.858   3.333  0.2991 -0.1638  0.4116
  274MOL0     H36155  10.365   0.986   3.223 -2.0212 -1.9163 -1.6735
  274MOL0     H36156  10.722   1.322   3.163  0.1020  1.0826 -0.9658
  274MOL0     H36157  10.941   1.388   3.061  1.6697 -0.7818 -0.7639
  274MOL0     H36158  11.324   1.178   3.033 -0.3108 -0.5163  0.3453
  274MOL0     H36159  11.256   1.136   3.193  2.1973  0.0488  0.8930
  274MOL0     H36160  11.453   1.280   3.205 -0.1470 -1.2021 -0.4798
  274MOL0     H36161  11.380   1.400   3.103 -1.3661  1.0974 -0.1421
  274MOL0     H36162  11.243   1.303   3.362  0.2888 -1.1276 -1.2189
  274MOL0     H36163  11.203   1.448   3.259  0.5760  2.1443  1.8570
  274MOL0     H36164  11.423   1.551   3.317 -3.0291 -0.6131 -1.8711
  274MOL0     H36165  11.316   1.531   3.458 -2.4641 -1.9268  0.4655
  274MOL0     H36166  11.637   1.278   3.566  0.7922 -0.3570 -0.6564
  274MOL0     H36167  11.100   1.005   3.162  0.7391  0.6530  3.0941
  274MOL0     H36168  10.874   0.917   3.200  1.2720 -0.6495  0.7649
  275MOL0     O36169   1.253   5.227   7.267 -0.1159 -0.4698 -0.0560
  275MOL0     C36170   1.289   5.128   7.213 -0.2060  0.7499  0.2767
  275MOL0     O36171   1.225   5.042   7.134  0.5807 -0.9603  0.5870
  275MOL0     C36172   1.086   5.043   7.137 -1.0726 -0.0916 -0.4527
  275MOL0     C36173   1.001   5.069   7.240 -0.1502 -0.3112 -0.0649
  275MOL0     C36174   0.863   5.052   7.222  0.1459 -0.7151 -1.0573
  275MOL0     C36175   0.810   5.014   7.100  0.6253  0.2244  0.0072
  275MOL0     O36176   0.673   5.000   7.076  0.6103 -0.2251  0.1716
  275MOL0     C36177   0.588   5.099   7.113 -0.4460 -0.4336  0.0129
  275MOL0     C36178   0.447   5.051   7.072 -0.3900  0.5503  0.6481
  275MOL0     C36179   0.346   5.143   7.127  0.4107 -0.4091 -0.3233
  275MOL0     C36180   0.200   5.109   7.078 -0.0835 -0.4225 -0.3586
  275MOL0     C36181   0.108   5.223   7.124 -0.1474 -0.4085  0.1452
  275MOL0     C36182  -0.041   5.214   7.077  0.4478  0.7973  0.1223
  275MOL0     C36183  -0.140   5.272   7.171 -0.5789  0.0095  0.1643
  275MOL0     C36184  -0.289   5.233   7.133  0.1088  0.3989  0.1470
  275MOL0     N36185  -0.393   5.308   7.211  0.1799  0.4243 -0.6821
  275MOL0     C36186  -0.496   5.382   7.156  0.6105 -0.6487 -0.4730
  275MOL0     C36187  -0.576   5.410   7.262 -0.1211 -0.4862  0.6574
  275MOL0     C36188  -0.698   5.494   7.260 -1.1728 -0.5634 -0.1955
  275MOL0     C36189  -0.822   5.417   7.209 -0.0477 -0.1963  0.9192
  275MOL0     C36190  -0.947   5.497   7.174 -0.8540 -0.5456  0.2039
  275MOL0     C36191  -1.062   5.397   7.149 -0.7191  0.8053 -0.1551
  275MOL0     O36192  -1.173   5.478   7.130  0.2743  0.1392 -0.6947
  275MOL0     C36193  -1.291   5.417   7.113 -0.2230  1.3558 -0.1490
  275MOL0     C36194  -1.331   5.352   6.995 -0.1563  0.0249 -0.2784
  275MOL0     C36195  -1.446   5.274   6.989  0.2710 -0.0091 -0.0618
  275MOL0     C36196  -1.540   5.266   7.101  0.4443 -0.1733  0.6090
  275MOL0     C36197  -1.677   5.193   7.091  0.6920 -0.4456 -0.9618
  275MOL0     O36198  -1.764   5.220   7.191  0.0183  0.1515  0.4849
  275MOL0     C36199  -1.907   5.219   7.182 -0.8381 -0.1371  0.5872
  275MOL0     C36200  -1.971   5.259   7.298  0.0598 -0.3546 -0.3675
  275MOL0     C36201  -2.107   5.272   7.307  0.2469 -0.8782 -0.2318
  275MOL0     C36202  -2.185   5.252   7.194  0.1141  0.2322 -0.4104
  275MOL0     O36203  -2.318   5.270   7.181  1.4125 -0.4414  0.0789
  275MOL0     C36204  -2.405   5.289   7.300  0.0953 -0.1669  1.0819
  275MOL0     C36205  -2.559   5.303   7.268 -0.0832 -0.3185 -0.5395
  275MOL0     C36206  -2.574   5.429   7.181 -0.9260  0.2195 -0.4165
  275MOL0     C36207  -2.706   5.416   7.105 -1.0277 -0.2995  0.4691
  275MOL0     C36208  -2.736   5.548   7.028 -0.0403 -0.3302  0.4331
  275MOL0     C36209  -2.863   5.545   6.943  0.0004  0.0883 -0.2623
  275MOL0     C36210  -2.843   5.464   6.806  0.1752 -0.3742  0.1742
  275MOL0     C36211  -2.757   5.525   6.697 -0.1125 -0.3885 -0.3158
  275MOL0    Cl36212  -2.820   5.694   6.674  0.0659  0.0975 -0.2211
  275MOL0     C36213  -2.128   5.195   7.082 -0.4715  0.3653  0.0754
  275MOL0     C36214  -1.988   5.178   7.077 -0.0007  0.2295 -0.1538
  275MOL0     O36215  -1.698   5.124   6.989  0.0676 -0.3169 -0.6707
  275MOL0     C36216  -1.491   5.317   7.224  0.0432  0.1802  0.0722
  275MOL0     C36217  -1.367   5.395   7.226  0.9324  0.0632 -0.9718
  275MOL0     N36218  -0.527   5.357   7.374  0.8621  0.6006  0.9796
  275MOL0     N36219  -0.416   5.292   7.343 -0.5044  0.0158  0.2243
  275MOL0     C36220   0.894   4.972   7.002 -0.0334 -0.5292 -0.0040
  275MOL0     C36221   1.031   5.001   7.012  0.2210  0.1489 -0.4966
  275MOL0     C36222   1.434   5.091   7.220  0.0770 -0.7408 -0.3008
  275MOL0     C36223   1.489   4.988   7.141  0.4453  0.1443  0.2921
  275MOL0     C36224   1.629   4.974   7.122 -0.0575  0.9505 -0.5340
  275MOL0     C36225   1.720   5.059   7.196  0.3329  0.2151  0.4852
  275MOL0     O36226   1.858   5.049   7.191  0.4938 -0.1817  0.2790
  275MOL0     C36227   1.922   4.964   7.093  0.3845 -0.0691  0.8594
  275MOL0     C36228   2.073   4.970   7.084 -0.2391  0.7714  0.6354
  275MOL0     C36229   2.120   5.119   7.118  0.1529  0.4504  0.3499
  275MOL0     C36230   2.273   5.112   7.122 -0.4283  0.4121  0.3149
  275MOL0     C36231   2.329   5.240   7.139 -1.4846 -0.6301 -0.7501
  275MOL0     C36232   2.377   5.351   7.133 -0.0092 -0.8200 -0.7989
  275MOL0     C36233   1.663   5.139   7.287  0.4164 -0.3623 -0.1074
  275MOL0     C36234   1.527   5.166   7.298  0.7213  0.5728  0.9656
  275MOL0     H36235   1.028   5.104   7.339 -1.1685  1.8013 -0.4539
  275MOL0     H36236   0.802   5.075   7.309  2.9344  3.2801  0.1356
  275MOL0     H36237   0.612   5.183   7.046  0.5211 -1.1808 -0.6159
  275MOL0     H36238   0.588   5.120   7.220 -1.2612 -1.9853  0.3375
  275MOL0     H36239   0.429   4.951   7.113 -0.2233  0.6612  0.9947
  275MOL0     H36240   0.426   5.056   6.965 -1.4678  0.5007  0.8401
  275MOL0     H36241   0.360   5.247   7.094 -1.2466 -0.1260 -0.2463
  275MOL0     H36242   0.358   5.134   7.235 -1.3581  1.0425  0.0573
  275MOL0     H36243   0.206   5.102   6.969 -1.1546  1.0804 -0.5351
  275MOL0     H36244   0.163   5.018   7.127 -0.6965 -0.2034 -0.4036
  275MOL0     H36245   0.145   5.318   7.083 -3.4299  1.3534  0.9094
  275MOL0     H36246   0.116   5.238   7.232  2.2290  0.3496 -0.0943
  275MOL0     H36247  -0.072   5.110   7.063 -1.6993  1.4142 -0.1991
  275MOL0     H36248  -0.042   5.265   6.980 -2.3995 -3.5300 -2.4642
  275MOL0     H36249  -0.128   5.230   7.271  0.0649  2.9272  1.3931
  275MOL0     H36250  -0.137   5.381   7.167  0.9911  0.0448  1.5943
  275MOL0     H36251  -0.295   5.125   7.154  0.8652  0.0010 -1.5545
  275MOL0     H36252  -0.307   5.246   7.026  0.2192 -0.5589 -0.0001
  275MOL0     H36253  -0.500   5.409   7.051 -1.6677 -4.7647 -1.6714
  275MOL0     H36254  -0.672   5.579   7.196 -0.1013 -0.6953  0.0561
  275MOL0     H36255  -0.726   5.520   7.363  1.5433 -0.8787  0.6944
  275MOL0     H36256  -0.842   5.336   7.279  0.4069 -0.6196  0.5616
  275MOL0     H36257  -0.782   5.368   7.120  1.8978 -2.3892  2.8796
  275MOL0     H36258  -0.973   5.574   7.247  0.1600  1.6969 -1.6456
  275MOL0     H36259  -0.928   5.550   7.080 -2.8006  1.3209  0.7677
  275MOL0     H36260  -1.070   5.332   7.236  1.9067  0.9457  0.2622
  275MOL0     H36261  -1.052   5.341   7.056 -1.5021 -0.2033  0.3544
  275MOL0     H36262  -1.272   5.371   6.906 -0.2894  0.1261 -0.3439
  275MOL0     H36263  -1.486   5.230   6.897  0.6349 -0.1230 -0.1678
  275MOL0     H36264  -1.912   5.285   7.386  0.5490  0.8085 -1.0242
  275MOL0     H36265  -2.157   5.312   7.395  0.3058  0.8948 -0.9455
  275MOL0     H36266  -2.366   5.377   7.352  1.2394 -1.1492  1.9464
  275MOL0     H36267  -2.383   5.203   7.364  0.6955 -1.2884 -0.5695
  275MOL0     H36268  -2.629   5.287   7.349 -1.6448  4.0354 -0.8064
  275MOL0     H36269  -2.580   5.218   7.201 -2.7014 -0.6180  0.5683
  275MOL0     H36270  -2.491   5.432   7.110 -0.0303  0.8987  0.6408
  275MOL0     H36271  -2.576   5.516   7.248  0.0875  0.1885 -0.3370
  275MOL0     H36272  -2.694   5.337   7.030 -1.9675  2.7374 -3.2064
  275MOL0     H36273  -2.780   5.393   7.182  0.6979 -2.1076  1.7094
  275MOL0     H36274  -2.647   5.579   6.973 -0.6455 -0.7286 -0.7976
  275MOL0     H36275  -2.753   5.637   7.090  1.1473  0.9316 -0.9547
  275MOL0     H36276  -2.916   5.639   6.927  0.7418  0.4243 -0.7653
  275MOL0     H36277  -2.938   5.492   7.003 -1.2158  2.5205  0.5055
  275MOL0     H36278  -2.819   5.359   6.826 -0.6827  0.0348  4.2354
  275MOL0     H36279  -2.936   5.446   6.753 -0.7281 -0.0502  1.5937
  275MOL0     H36280  -2.763   5.461   6.608 -0.0510  0.3425 -0.8532
  275MOL0     H36281  -2.655   5.538   6.735  0.0260  0.2351 -0.8879
  275MOL0     H36282  -2.198   5.164   7.005 -1.5511 -2.0785  1.8965
  275MOL0     H36283  -1.939   5.129   6.993  0.8000 -3.4916  2.2389
  275MOL0     H36284  -1.555   5.306   7.311 -1.7707  0.5318 -1.1429
  275MOL0     H36285  -1.322   5.434   7.317  2.7058  2.1396 -2.6391
  275MOL0     H36286   0.855   4.954   6.902 -1.9456 -0.8628  0.7463
  275MOL0     H36287   1.081   4.963   6.923 -1.4201 -0.7867 -1.0594
  275MOL0     H36288   1.422   4.929   7.080 -1.8443  2.2283  0.6484
  275MOL0     H36289   1.678   4.899   7.060  0.6856 -0.0432  1.1824
  275MOL0     H36290   1.885   4.986   6.992  4.3511 -0.8220 -0.9243
  275MOL0     H36291   1.891   4.863   7.120 -2.9860  1.0007  1.5931
  275MOL0     H36292   2.106   4.907   7.167  0.7780  1.1376  0.5302
  275MOL0     H36293   2.113   4.934   6.989 -2.1402 -0.7431  0.3376
  275MOL0     H36294   2.073   5.153   7.210 -1.9905 -0.9140 -0.1609
  275MOL0     H36295   2.093   5.188   7.038 -0.1649 -0.3772 -0.2787
  275MOL0     H36296   2.306   5.059   7.211  0.6265  2.5105  1.2521
  275MOL0     H36297   2.307   5.065   7.029 -1.3074  1.1196 -0.3840
  275MOL0     H36298   2.411   5.452   7.122 -2.7389  0.2451 -0.2472
  275MOL0     H36299   1.736   5.184   7.352  0.8221  0.1583 -0.8987
  275MOL0     H36300   1.480   5.246   7.355 -1.5824 -1.8213  2.7106
  276MOL0     O36301   3.950   3.073   7.321  0.6572  0.6215 -0.0958
  276MOL0     C36302   3.947   3.016   7.429  0.6309  0.8834  0.2321
  276MOL0     O36303   4.055   2.984   7.497 -0.4277  0.2080 -0.5776
  276MOL0     C36304   4.183   3.028   7.466  0.2657 -0.1398  0.7806
  276MOL0     C36305   4.239   3.025   7.336 -0.4023  1.1939  0.2915
  276MOL0     C36306   4.373   3.056   7.309 -0.4728 -0.7445  0.7774
  276MOL0     C36307   4.455   3.094   7.416 -0.5529 -0.7430 -0.3030
  276MOL0     O36308   4.581   3.137   7.394 -0.2760 -0.5502  0.4009
  276MOL0     C36309   4.665   3.026   7.359  0.3309 -0.3598  0.5553
  276MOL0     C36310   4.796   3.096   7.321  0.1387 -1.3518 -0.4855
  276MOL0     C36311   4.905   3.010   7.251 -0.2482  0.3927  0.1907
  276MOL0     C36312   5.040   3.070   7.219 -0.2759  0.4775  0.9431
  276MOL0     C36313   5.044   3.204   7.134  0.7930  0.4721 -0.2032
  276MOL0     C36314   5.178   3.233   7.079 -0.1631 -0.0477  0.6380
  276MOL0     C36315   5.194   3.358   6.995  0.6903 -0.7317  0.3342
  276MOL0     C36316   5.338   3.383   6.989 -0.6044 -0.7784 -0.1625
  276MOL0     N36317   5.379   3.503   6.913  0.7885  0.0396  0.1208
  276MOL0     C36318   5.349   3.635   6.944 -0.9160 -0.7573  0.1451
  276MOL0     C36319   5.415   3.712   6.856  0.1403  0.5750 -0.0562
  276MOL0     C36320   5.396   3.854   6.840 -0.0338 -0.5603 -0.0979
  276MOL0     C36321   5.412   3.936   6.962  0.6070 -0.6144 -0.6845
  276MOL0     C36322   5.559   3.978   6.983  0.6848  0.2919 -0.3719
  276MOL0     C36323   5.570   4.057   7.108  0.9074  0.3535 -0.1190
  276MOL0     O36324   5.570   3.971   7.233  0.2170  0.1988  1.3847
  276MOL0     C36325   5.503   4.020   7.336  0.3767 -0.1198  0.1274
  276MOL0     C36326   5.401   3.931   7.387 -0.4191 -0.4861 -0.2030
  276MOL0     C36327   5.330   3.977   7.495 -1.0852  0.2273  0.0405
  276MOL0     C36328   5.351   4.103   7.557  0.1101 -0.2477 -0.3088
  276MOL0     C36329   5.258   4.152   7.658  1.0370  0.4599 -0.6292
  276MOL0     O36330   5.267   4.269   7.714 -0.8509 -0.2187  0.3460
  276MOL0     C36331   5.182   4.321   7.805  0.4254 -0.0084 -0.1427
  276MOL0     C36332   5.154   4.252   7.919  0.1188  0.3538  0.0633
  276MOL0     C36333   5.047   4.289   8.012 -0.4582 -0.7330  0.4601
  276MOL0     C36334   4.966   4.393   7.972  0.2828 -0.3409 -0.2799
  276MOL0     O36335   4.857   4.425   8.054 -0.2826  0.2150 -0.4066
  276MOL0     C36336   4.722   4.408   7.996 -0.3283 -0.4202  0.5266
  276MOL0     C36337   4.662   4.266   8.022  0.6922  0.3131 -0.0721
  276MOL0     C36338   4.539   4.214   7.933 -0.2165 -1.0480 -0.4711
  276MOL0     C36339   4.408   4.287   7.961 -0.4720 -0.3920 -0.3194
  276MOL0     C36340   4.292   4.213   7.899 -0.1579 -0.0059 -0.1067
  276MOL0     C36341   4.179   4.298   7.916  0.4666 -0.1661 -0.5312
  276MOL0     C36342   4.057   4.242   7.835 -0.5704 -0.4231  0.0524
  276MOL0     C36343   4.011   4.104   7.884 -0.1390 -0.3195  0.1795
  276MOL0    Cl36344   3.967   4.092   8.061 -0.0150  0.2641  0.6158
  276MOL0     C36345   4.992   4.460   7.855 -0.2369 -0.6031  0.5703
  276MOL0     C36346   5.091   4.415   7.767  0.6341 -0.2078 -0.2881
  276MOL0     O36347   5.161   4.073   7.680  0.0082 -0.0415 -0.0429
  276MOL0     C36348   5.436   4.196   7.501 -0.3220  0.3384 -0.2598
  276MOL0     C36349   5.521   4.144   7.396  0.2662 -1.2339  0.8813
  276MOL0     N36350   5.478   3.629   6.767 -0.6886  0.9299 -0.2847
  276MOL0     N36351   5.455   3.502   6.803  0.2732 -0.3946  0.2214
  276MOL0     C36352   4.401   3.106   7.542 -0.0473  0.7413  0.0673
  276MOL0     C36353   4.268   3.067   7.575  0.4217 -0.1471  0.4683
  276MOL0     C36354   3.815   2.988   7.495 -0.1564  0.1590  0.3200
  276MOL0     C36355   3.701   2.991   7.411  0.2886  0.5400  0.2008
  276MOL0     C36356   3.572   2.965   7.466 -0.1305  0.1709 -0.6661
  276MOL0     C36357   3.567   2.928   7.603  0.6718 -0.3632 -1.0544
  276MOL0     O36358   3.445   2.902   7.647  0.7499 -0.4276 -0.8147
  276MOL0     C36359   3.390   2.972   7.766 -0.4901 -0.4644  0.1802
  276MOL0     C36360   3.273   3.058   7.728  0.5403  0.0605 -0.3198
  276MOL0     C36361   3.150   2.977   7.683  0.5331  0.0261  0.2816
  276MOL0     C36362   3.107   2.853   7.773  0.6814  0.3432 -0.4881
  276MOL0     C36363   2.987   2.799   7.714  0.0136 -0.3711 -0.2409
  276MOL0     C36364   2.891   2.737   7.679  0.2541  0.1854 -0.0554
  276MOL0     C36365   3.682   2.911   7.677  0.0068  0.5706 -0.3363
  276MOL0     C36366   3.805   2.943   7.625  1.1925  0.9727 -0.2914
  276MOL0     H36367   4.170   2.983   7.263  0.7092  1.2238 -0.8234
  276MOL0     H36368   4.416   3.056   7.209  2.6495 -1.9448  1.9801
  276MOL0     H36369   4.618   2.983   7.269  1.9651  0.3128 -0.6620
  276MOL0     H36370   4.670   2.945   7.432  1.1927  0.1348  1.0581
  276MOL0     H36371   4.842   3.133   7.414  1.7751 -2.1479 -0.9323
  276MOL0     H36372   4.771   3.181   7.257 -1.2014 -1.8918 -0.7107
  276MOL0     H36373   4.851   2.981   7.160  1.2150 -3.1000  0.2883
  276MOL0     H36374   4.923   2.923   7.314  0.0296 -0.5179 -1.1156
  276MOL0     H36375   5.095   3.081   7.313  1.3336 -2.6018  0.4941
  276MOL0     H36376   5.098   2.992   7.170  0.4260  0.4756  1.7497
  276MOL0     H36377   5.010   3.283   7.201 -1.9539 -2.1113  1.7315
  276MOL0     H36378   4.970   3.197   7.054 -0.5357 -2.0172  1.1078
  276MOL0     H36379   5.205   3.149   7.015  1.1315  1.4139 -0.8134
  276MOL0     H36380   5.254   3.224   7.158  4.3456  0.6506 -3.1611
  276MOL0     H36381   5.158   3.339   6.894  2.3545  1.2895 -0.7170
  276MOL0     H36382   5.135   3.439   7.039  0.4972 -0.3505 -0.6120
  276MOL0     H36383   5.374   3.292   6.939 -2.8313 -0.3254 -2.8832
  276MOL0     H36384   5.370   3.394   7.093  0.7860 -1.2509 -0.5225
  276MOL0     H36385   5.294   3.674   7.029  0.0285 -0.8350  0.8090
  276MOL0     H36386   5.294   3.872   6.805  0.3137  6.2746  0.8958
  276MOL0     H36387   5.459   3.895   6.760  0.3785 -1.8783 -0.4648
  276MOL0     H36388   5.388   3.884   7.055  2.1235  0.2168  0.1992
  276MOL0     H36389   5.345   4.022   6.961 -1.0524 -1.6981  2.9338
  276MOL0     H36390   5.626   3.893   6.994  2.5589  1.5060 -1.7763
  276MOL0     H36391   5.583   4.039   6.896 -1.3253  2.4863  0.4799
  276MOL0     H36392   5.492   4.133   7.112  1.8002  1.3902 -1.4691
  276MOL0     H36393   5.669   4.104   7.098  1.2935 -0.0588  1.4554
  276MOL0     H36394   5.375   3.839   7.335 -0.1167 -0.8036  0.2031
  276MOL0     H36395   5.243   3.919   7.525 -3.9835  4.0503 -0.1595
  276MOL0     H36396   5.212   4.161   7.935 -3.0951 -1.7598  0.5282
  276MOL0     H36397   5.036   4.230   8.103  1.2068  0.2227  1.3458
  276MOL0     H36398   4.725   4.418   7.887  1.0230  0.0122  0.5878
  276MOL0     H36399   4.658   4.489   8.033 -2.3732 -0.9110 -1.6944
  276MOL0     H36400   4.648   4.249   8.129  0.9159  2.1528  0.2765
  276MOL0     H36401   4.740   4.197   7.988  0.2005  0.0722 -0.7469
  276MOL0     H36402   4.523   4.111   7.963  3.4698 -1.9255 -1.0532
  276MOL0     H36403   4.569   4.222   7.828  0.5012 -1.7633 -0.3307
  276MOL0     H36404   4.392   4.284   8.069  0.8206  2.4534  0.0363
  276MOL0     H36405   4.413   4.392   7.931 -0.8230 -0.3033 -0.0727
  276MOL0     H36406   4.270   4.120   7.952 -0.3299  0.8099  1.2895
  276MOL0     H36407   4.303   4.182   7.794 -0.0485 -3.0949  0.6962
  276MOL0     H36408   4.212   4.395   7.879 -0.2487 -0.7149 -2.7799
  276MOL0     H36409   4.154   4.313   8.022 -2.9198 -1.8726 -0.9178
  276MOL0     H36410   3.966   4.303   7.830 -0.2193  0.1415  0.3420
  276MOL0     H36411   4.085   4.223   7.731  1.1014  1.7054  0.0393
  276MOL0     H36412   4.089   4.032   7.855  0.0931 -1.3473  2.9344
  276MOL0     H36413   3.929   4.060   7.826  0.2931 -1.6637  0.5297
  276MOL0     H36414   4.939   4.550   7.827  0.2839 -0.0787  1.2501
  276MOL0     H36415   5.095   4.458   7.668  1.5025 -2.5484 -1.3532
  276MOL0     H36416   5.450   4.298   7.534  1.8751  0.4314 -1.2713
  276MOL0     H36417   5.601   4.208   7.359 -0.8081 -0.3340  0.0628
  276MOL0     H36418   4.466   3.111   7.629  0.1368 -0.8450  0.0349
  276MOL0     H36419   4.238   3.069   7.679 -0.3659 -0.2998  0.2538
  276MOL0     H36420   3.719   3.007   7.305  2.9399  0.8984  0.6537
  276MOL0     H36421   3.484   2.976   7.402  0.6409  1.4844 -1.5578
  276MOL0     H36422   3.465   3.038   7.810 -0.2336  0.0526 -1.0031
  276MOL0     H36423   3.356   2.897   7.838 -1.5234  0.4337  0.6507
  276MOL0     H36424   3.246   3.113   7.819  0.8795  0.6901 -0.5969
  276MOL0     H36425   3.308   3.132   7.656 -1.8400  0.4778 -1.1646
  276MOL0     H36426   3.178   2.935   7.585  1.2922  3.4713 -1.1442
  276MOL0     H36427   3.070   3.050   7.672  2.3595  1.9504 -1.2369
  276MOL0     H36428   3.183   2.774   7.773 -1.1391 -1.4969 -1.9581
  276MOL0     H36429   3.082   2.895   7.872 -2.6219  2.2857 -1.9838
  276MOL0     H36430   2.801   2.687   7.648  0.1788  1.2724 -1.7325
  276MOL0     H36431   3.674   2.882   7.781 -0.0794 -0.3350 -0.5850
  276MOL0     H36432   3.893   2.929   7.687  0.6691 -3.8112 -0.2453
  277MOL0     O36433  10.203   7.930   5.595  0.4687 -0.8607 -0.0053
  277MOL0     C36434  10.238   7.817   5.569  1.1423  0.9821  0.4549
  277MOL0     O36435  10.163   7.703   5.588 -0.6248  0.5867 -0.0084
  277MOL0     C36436  10.035   7.706   5.650  0.3486 -0.6486 -0.1724
  277MOL0     C36437   9.956   7.589   5.645  1.1126 -0.6740  0.0635
  277MOL0     C36438   9.824   7.584   5.705 -0.4304 -0.1027  0.3263
  277MOL0     C36439   9.792   7.675   5.800  0.2293  0.1536  0.9225
  277MOL0     O36440   9.687   7.653   5.881 -0.5192  0.5539  0.3717
  277MOL0     C36441   9.583   7.752   5.889 -0.6206  0.0830  0.3404
  277MOL0     C36442   9.458   7.705   5.964  0.2528 -0.3200 -0.2041
  277MOL0     C36443   9.357   7.819   5.987  0.6693 -0.8827 -0.1113
  277MOL0     C36444   9.310   7.892   5.861 -0.0032  0.0172 -1.5260
  277MOL0     C36445   9.224   8.015   5.897 -0.5858  0.0004  0.4201
  277MOL0     C36446   9.082   7.972   5.944 -1.1680 -0.5451  0.0960
  277MOL0     C36447   8.983   8.086   5.969 -0.1134  0.1722 -0.7759
  277MOL0     C36448   8.846   8.056   6.022 -0.1865  0.5099 -0.3792
  277MOL0     N36449   8.769   8.181   6.070 -0.3364  0.3100  0.3878
  277MOL0     C36450   8.824   8.288   6.136 -0.6374  0.0386 -0.1699
  277MOL0     C36451   8.714   8.363   6.170  0.7586  0.2325 -0.6803
  277MOL0     C36452   8.718   8.482   6.254 -0.0792  0.3450  0.4480
  277MOL0     C36453   8.651   8.598   6.183 -0.8972 -0.9580 -0.7242
  277MOL0     C36454   8.705   8.730   6.240  0.4835 -0.5241 -0.0704
  277MOL0     C36455   8.641   8.856   6.183 -1.0286 -1.0107  0.2879
  277MOL0     O36456   8.510   8.875   6.248 -0.1808  0.0266  0.2525
  277MOL0     C36457   8.408   8.934   6.169 -0.4826  0.1531 -0.3176
  277MOL0     C36458   8.278   8.931   6.221 -0.0151 -0.7116  0.2630
  277MOL0     C36459   8.176   9.010   6.163  0.5151 -0.6969  0.0105
  277MOL0     C36460   8.202   9.097   6.049  0.1345 -0.8407  0.6572
  277MOL0     C36461   8.090   9.168   5.988  0.4092 -1.3424 -0.4067
  277MOL0     O36462   7.960   9.145   6.029 -0.2304 -0.4808  0.2020
  277MOL0     C36463   7.864   9.217   5.969 -0.2030 -0.0239  0.7205
  277MOL0     C36464   7.766   9.143   5.903  0.2348 -0.5561  0.6494
  277MOL0     C36465   7.634   9.197   5.897 -0.5760  0.1178  0.1937
  277MOL0     C36466   7.607   9.328   5.927  0.7127 -0.0288 -0.1810
  277MOL0     O36467   7.474   9.365   5.908  0.0256  0.0256  0.0179
  277MOL0     C36468   7.439   9.464   6.008  0.8218 -0.0513 -0.2626
  277MOL0     C36469   7.288   9.484   6.008 -0.1582 -0.0980  0.2187
  277MOL0     C36470   7.243   9.540   6.145 -0.1844 -0.0227 -0.2984
  277MOL0     C36471   7.318   9.670   6.189 -0.0658 -0.3754  0.6300
  277MOL0     C36472   7.285   9.798   6.105  1.0004 -0.5655 -0.1912
  277MOL0     C36473   7.133   9.842   6.111  0.2925  0.3242  0.8667
  277MOL0     C36474   7.100   9.959   6.020  0.7697  0.3121  0.3867
  277MOL0     C36475   6.946   9.979   6.009  0.1103  0.1930  0.1877
  277MOL0    Cl36476   6.875  10.033   6.166  0.1402 -0.3389  0.0958
  277MOL0     C36477   7.709   9.402   5.984  0.0175 -0.4962 -0.2321
  277MOL0     C36478   7.832   9.342   6.008 -0.0786 -0.2812 -0.6915
  277MOL0     O36479   8.120   9.252   5.902  0.7870  0.4944 -0.4265
  277MOL0     C36480   8.333   9.092   5.992  0.2883  0.0796 -0.3485
  277MOL0     C36481   8.429   9.013   6.049 -0.4864  0.2959 -0.2486
  277MOL0     N36482   8.599   8.308   6.109  0.2213 -0.4549  0.7558
  277MOL0     N36483   8.638   8.195   6.047 -0.1382 -0.6498 -0.1021
  277MOL0     C36484   9.881   7.788   5.818  1.2698 -0.8159  0.0059
  277MOL0     C36485   9.994   7.810   5.740  0.8072 -0.8255  0.2387
  277MOL0     C36486  10.372   7.790   5.510  0.4317  0.3496  0.9455
  277MOL0     C36487  10.470   7.885   5.515 -0.3972 -0.2696 -0.1252
  277MOL0     C36488  10.595   7.863   5.464  0.9229  0.7072 -0.8336
  277MOL0     C36489  10.634   7.747   5.402  0.0945 -0.2281  1.1816
  277MOL0     O36490  10.741   7.719   5.322 -0.5271 -0.2613 -0.0357
  277MOL0     C36491  10.801   7.835   5.249  0.3861 -0.4147 -0.3423
  277MOL0     C36492  10.917   7.895   5.322 -0.1495 -0.2647 -0.9982
  277MOL0     C36493  11.026   7.789   5.324 -0.6236 -0.8683 -0.7957
  277MOL0     C36494  11.161   7.845   5.381  0.1609  0.5308 -0.2574
  277MOL0     C36495  11.138   7.877   5.528  0.3813  0.3382  0.5550
  277MOL0     C36496  11.112   7.905   5.641  0.4573 -0.3879  0.2897
  277MOL0     C36497  10.543   7.640   5.404  0.0327 -1.2838  0.1878
  277MOL0     C36498  10.408   7.663   5.454  0.7834  0.7626 -0.3979
  277MOL0     H36499   9.982   7.510   5.574 -1.3165 -0.4586 -1.1774
  277MOL0     H36500   9.753   7.504   5.690  0.4988 -0.9992  0.5451
  277MOL0     H36501   9.556   7.778   5.786 -1.3115  0.5355  0.6285
  277MOL0     H36502   9.623   7.843   5.936 -1.8383  0.1404  1.3260
  277MOL0     H36503   9.492   7.659   6.057  2.4435 -0.1063 -0.8402
  277MOL0     H36504   9.402   7.629   5.909 -1.7253  0.7277  0.2581
  277MOL0     H36505   9.384   7.898   6.059  0.6441  0.3400 -1.3945
  277MOL0     H36506   9.270   7.782   6.042  1.6904 -0.6382  1.7937
  277MOL0     H36507   9.402   7.926   5.812  1.7666 -2.6958 -0.3536
  277MOL0     H36508   9.265   7.814   5.798 -0.0296 -3.0943  1.9695
  277MOL0     H36509   9.217   8.080   5.809  0.9112 -0.9673 -0.4612
  277MOL0     H36510   9.283   8.066   5.974  1.2169 -0.4606 -0.6170
  277MOL0     H36511   9.086   7.917   6.038  1.7697  0.5257  0.7243
  277MOL0     H36512   9.034   7.911   5.866 -0.1144  0.4104 -1.3573
  277MOL0     H36513   9.027   8.149   6.047  0.5978  0.3339 -1.2912
  277MOL0     H36514   8.970   8.151   5.882 -1.3597  0.2829 -0.5121
  277MOL0     H36515   8.854   7.988   6.106  1.4322  0.0206 -0.8854
  277MOL0     H36516   8.796   7.997   5.945  0.6527 -2.1580  1.0127
  277MOL0     H36517   8.927   8.316   6.157 -0.5730  0.8037 -1.4220
  277MOL0     H36518   8.820   8.507   6.284 -0.6635  1.8737  1.2319
  277MOL0     H36519   8.666   8.462   6.348 -1.0237 -1.5143 -0.3926
  277MOL0     H36520   8.544   8.583   6.200 -0.9978 -1.8398 -2.0010
  277MOL0     H36521   8.674   8.592   6.076  1.3731  0.8545 -0.4130
  277MOL0     H36522   8.701   8.720   6.349  1.5204 -4.6352 -0.2454
  277MOL0     H36523   8.810   8.736   6.210 -0.2738  0.2033 -2.9682
  277MOL0     H36524   8.641   8.850   6.074  2.7983 -2.2504  0.1997
  277MOL0     H36525   8.698   8.947   6.204 -2.6239  0.0560  0.0864
  277MOL0     H36526   8.263   8.870   6.310  0.1788 -0.0826  0.7338
  277MOL0     H36527   8.079   9.019   6.211  1.1892 -0.3631  1.3276
  277MOL0     H36528   7.793   9.043   5.871 -0.1790 -0.7545  0.9054
  277MOL0     H36529   7.555   9.129   5.866 -1.7307  1.3458  0.3348
  277MOL0     H36530   7.489   9.560   5.987 -2.2504  2.1212  1.5324
  277MOL0     H36531   7.466   9.426   6.107  1.5968 -1.6343 -1.0420
  277MOL0     H36532   7.237   9.388   5.998 -0.2221 -0.1337  0.8337
  277MOL0     H36533   7.253   9.554   5.931 -1.9646  0.3849  1.4094
  277MOL0     H36534   7.269   9.471   6.225  3.7987  0.0790 -1.2527
  277MOL0     H36535   7.135   9.542   6.158 -0.1073 -1.3353  0.7282
  277MOL0     H36536   7.294   9.685   6.294  3.4417 -1.6452  1.7697
  277MOL0     H36537   7.426   9.649   6.192 -0.2926 -1.5597  1.0246
  277MOL0     H36538   7.317   9.787   6.001  1.4029 -0.0479 -0.1309
  277MOL0     H36539   7.341   9.887   6.136  1.4393 -1.2354  1.0135
  277MOL0     H36540   7.107   9.866   6.214 -0.7837  1.9923  0.2470
  277MOL0     H36541   7.067   9.763   6.073 -0.4923  1.1549  0.4740
  277MOL0     H36542   7.133  10.055   6.061 -0.0865  2.3942 -3.3401
  277MOL0     H36543   7.154   9.941   5.926  4.7412  1.0719  2.3161
  277MOL0     H36544   6.907   9.881   5.980  2.5858 -0.4962 -1.1052
  277MOL0     H36545   6.921  10.055   5.934  0.7657  1.5027  1.2482
  277MOL0     H36546   7.696   9.494   6.040  0.0017 -0.2812 -0.5900
  277MOL0     H36547   7.906   9.398   6.065  2.2051  0.0731 -3.7407
  277MOL0     H36548   8.357   9.157   5.909  2.9545  2.3132  1.9913
  277MOL0     H36549   8.528   9.021   6.004 -0.4777  0.7304 -0.1469
  277MOL0     H36550   9.843   7.866   5.883 -0.0901 -1.6370  0.2411
  277MOL0     H36551  10.045   7.905   5.755 -1.7870  0.7630 -0.3745
  277MOL0     H36552  10.460   7.983   5.560  0.7793  0.0812 -0.5794
  277MOL0     H36553  10.656   7.953   5.466  0.4802  1.0075  0.4024
  277MOL0     H36554  10.723   7.912   5.240 -1.6644 -2.0376  2.1189
  277MOL0     H36555  10.833   7.820   5.146  1.2909  2.2052 -0.5084
  277MOL0     H36556  10.961   7.979   5.267  2.6577 -1.4715 -0.7492
  277MOL0     H36557  10.883   7.920   5.423 -0.6501 -0.4782 -1.1089
  277MOL0     H36558  11.046   7.750   5.224  2.6653 -0.6264 -0.3662
  277MOL0     H36559  10.989   7.701   5.378 -1.8931  2.0443  3.6847
  277MOL0     H36560  11.239   7.771   5.366  1.8424  1.6355  2.3339
  277MOL0     H36561  11.197   7.934   5.329  2.0626  0.2241  0.4541
  277MOL0     H36562  11.098   7.931   5.744  2.8356 -0.7045  0.7452
  277MOL0     H36563  10.571   7.540   5.372  0.1297 -1.3568  0.5007
  277MOL0     H36564  10.343   7.577   5.465 -0.2857  1.7891  2.1712
  278MOL0     O36565   7.012   2.007   2.743 -0.2525 -0.1425 -0.1057
  278MOL0     C36566   7.029   1.930   2.643  0.0053 -0.1899 -0.4400
  278MOL0     O36567   6.926   1.878   2.579 -0.2143  0.7423  0.1558
  278MOL0     C36568   6.800   1.919   2.614  0.4834  0.0228  0.3444
  278MOL0     C36569   6.750   2.042   2.569  0.2064 -0.4572 -0.2812
  278MOL0     C36570   6.617   2.078   2.590  1.0931  0.4957 -0.6158
  278MOL0     C36571   6.541   2.007   2.689  0.0374  0.3456  0.2973
  278MOL0     O36572   6.407   2.035   2.727 -0.0273  0.6730  0.5442
  278MOL0     C36573   6.319   2.098   2.630  0.4967 -0.1012  0.5614
  278MOL0     C36574   6.298   2.240   2.661  0.6120 -0.6572  0.8912
  278MOL0     C36575   6.183   2.302   2.582 -0.2435  0.5027 -0.2621
  278MOL0     C36576   6.123   2.425   2.651 -0.5685 -0.4234  0.1611
  278MOL0     C36577   6.030   2.514   2.563  0.2599  0.2052 -0.0361
  278MOL0     C36578   5.897   2.439   2.528 -0.5460  0.2582 -0.5404
  278MOL0     C36579   5.817   2.529   2.435 -0.0248 -0.0107 -0.3641
  278MOL0     C36580   5.720   2.463   2.339  0.1676  0.1318 -0.2321
  278MOL0     N36581   5.648   2.573   2.273 -0.1192 -0.5698 -0.0156
  278MOL0     C36582   5.539   2.637   2.327 -0.0786 -0.1023  0.2404
  278MOL0     C36583   5.487   2.705   2.227 -0.2413 -0.9810  0.8723
  278MOL0     C36584   5.376   2.801   2.227  0.4235  0.8919 -0.8651
  278MOL0     C36585   5.256   2.751   2.315  0.4732 -0.2457  0.6977
  278MOL0     C36586   5.174   2.656   2.230 -0.3188  0.1357 -0.1984
  278MOL0     C36587   5.026   2.657   2.267  0.4084 -0.1954  0.1415
  278MOL0     O36588   4.958   2.542   2.215  0.6576  0.0987 -0.2585
  278MOL0     C36589   4.820   2.528   2.211  0.7650  0.2451  0.0508
  278MOL0     C36590   4.767   2.405   2.165 -0.5698 -0.9633 -0.5647
  278MOL0     C36591   4.638   2.378   2.153  0.6082 -0.3931 -0.8014
  278MOL0     C36592   4.540   2.478   2.190 -0.0606 -0.3745 -0.1753
  278MOL0     C36593   4.398   2.446   2.181 -0.4557  0.5356  0.3054
  278MOL0     O36594   4.376   2.332   2.107  0.7157  0.1784 -0.7507
  278MOL0     C36595   4.243   2.286   2.100 -0.0476 -0.8254  0.3833
  278MOL0     C36596   4.206   2.154   2.083 -0.5774 -0.1985  0.8573
  278MOL0     C36597   4.078   2.110   2.061  1.2008 -0.7737  0.8924
  278MOL0     C36598   3.970   2.204   2.049 -0.2613 -0.3660 -0.7152
  278MOL0     O36599   3.836   2.182   2.015 -0.1572  0.6644  0.8414
  278MOL0     C36600   3.772   2.057   2.031 -0.1712  0.2613  0.8184
  278MOL0     C36601   3.762   2.010   2.176  0.5382  0.1283 -0.8877
  278MOL0     C36602   3.701   2.122   2.270  0.8282  1.1810  0.1839
  278MOL0     C36603   3.705   2.067   2.418  0.3917  0.5528 -0.4926
  278MOL0     C36604   3.559   2.039   2.469 -0.9162 -0.0323  0.2359
  278MOL0     C36605   3.498   1.919   2.393 -0.0085  1.1347  0.5751
  278MOL0     C36606   3.385   1.858   2.468  0.6484  0.2255 -0.3049
  278MOL0     C36607   3.311   1.751   2.398 -0.1958  0.5839 -0.2540
  278MOL0    Cl36608   3.424   1.608   2.368 -0.1999  0.0520  0.3859
  278MOL0     C36609   4.003   2.338   2.046  0.1979 -0.2790 -0.3603
  278MOL0     C36610   4.135   2.375   2.085  0.3844  0.1330 -0.0663
  278MOL0     O36611   4.316   2.499   2.257 -0.1979 -0.6304 -0.4140
  278MOL0     C36612   4.591   2.607   2.242  0.2318  0.3122 -0.2585
  278MOL0     C36613   4.727   2.626   2.247  0.1334  0.0121  0.1100
  278MOL0     N36614   5.562   2.696   2.114 -0.2209 -0.2391 -0.2240
  278MOL0     N36615   5.660   2.613   2.146  0.1027 -0.3352  0.0685
  278MOL0     C36616   6.593   1.890   2.733  0.1537 -0.3890  0.0645
  278MOL0     C36617   6.720   1.846   2.703 -0.5600 -0.6803  0.3972
  278MOL0     C36618   7.166   1.901   2.606 -0.2253 -0.4378  0.1685
  278MOL0     C36619   7.278   1.978   2.650 -0.4148 -0.1302  0.0013
  278MOL0     C36620   7.408   1.949   2.600 -0.5766  0.4282 -0.1690
  278MOL0     C36621   7.424   1.834   2.514  0.6895 -0.3772  0.3002
  278MOL0     O36622   7.552   1.819   2.471  0.0057  0.3153 -0.1121
  278MOL0     C36623   7.602   1.685   2.454  0.9068 -0.1071 -0.4966
  278MOL0     C36624   7.755   1.681   2.482  0.2808 -0.7776  0.1268
  278MOL0     C36625   7.844   1.772   2.388  0.3789  0.1590 -0.6157
  278MOL0     C36626   7.993   1.768   2.438  0.1702  0.0792 -0.6044
  278MOL0     C36627   8.077   1.840   2.345  0.9549 -0.0751 -0.0445
  278MOL0     C36628   8.142   1.907   2.271  0.1785 -0.4418  0.5389
  278MOL0     C36629   7.315   1.751   2.486  0.3712 -0.0970  0.6256
  278MOL0     C36630   7.187   1.793   2.524  0.7239 -0.1043  0.6033
  278MOL0     H36631   6.808   2.102   2.500 -0.9402 -0.5252 -1.3466
  278MOL0     H36632   6.577   2.158   2.530 -1.0860  0.7913  1.0957
  278MOL0     H36633   6.221   2.048   2.630 -0.3010  1.2904 -1.6452
  278MOL0     H36634   6.366   2.090   2.531  1.1127  3.0137  0.4930
  278MOL0     H36635   6.394   2.293   2.663 -0.0069  0.6446 -1.0603
  278MOL0     H36636   6.260   2.256   2.762 -1.5465  2.6635 -0.2947
  278MOL0     H36637   6.106   2.226   2.571  1.1842 -1.2434  1.1959
  278MOL0     H36638   6.215   2.331   2.482  0.6322  2.5864  0.5600
  278MOL0     H36639   6.081   2.390   2.746 -1.3902 -0.5126 -0.2213
  278MOL0     H36640   6.205   2.496   2.668  1.5112 -2.0010 -2.5135
  278MOL0     H36641   6.081   2.559   2.478  0.3934 -1.2264 -0.7452
  278MOL0     H36642   6.004   2.604   2.619  1.4051 -0.4781  1.7021
  278MOL0     H36643   5.832   2.424   2.614 -0.3072  1.6678 -0.0909
  278MOL0     H36644   5.909   2.337   2.491 -1.5266 -0.6344  1.4591
  278MOL0     H36645   5.766   2.604   2.495 -0.6194  0.3243 -1.2679
  278MOL0     H36646   5.886   2.584   2.370 -2.4196  0.3751 -2.7757
  278MOL0     H36647   5.647   2.397   2.387  0.0508  1.9454  2.2942
  278MOL0     H36648   5.782   2.417   2.262  1.1704  1.1107 -0.0326
  278MOL0     H36649   5.497   2.624   2.426 -0.2494 -0.6071  0.1021
  278MOL0     H36650   5.352   2.822   2.122  1.9300  0.3622 -1.3452
  278MOL0     H36651   5.422   2.895   2.260  1.9928  0.5327 -1.9003
  278MOL0     H36652   5.196   2.837   2.348 -1.3538 -1.7422  1.4117
  278MOL0     H36653   5.288   2.698   2.405  5.4458 -0.6807 -1.0075
  278MOL0     H36654   5.175   2.664   2.121 -0.9486 -1.8715 -0.3968
  278MOL0     H36655   5.219   2.558   2.252 -0.1106  0.4752  0.9785
  278MOL0     H36656   4.986   2.750   2.225  0.9312  0.7151  1.5929
  278MOL0     H36657   5.024   2.660   2.376  1.6378 -0.2391  0.1864
  278MOL0     H36658   4.838   2.332   2.127  0.1384 -0.6805  0.1582
  278MOL0     H36659   4.617   2.287   2.097  1.2416  0.4791 -2.5544
  278MOL0     H36660   4.288   2.084   2.093  1.8943  2.0571 -1.7171
  278MOL0     H36661   4.050   2.007   2.041  0.4538  0.0450 -2.8908
  278MOL0     H36662   3.832   1.985   1.975  2.1086  0.7562  2.4842
  278MOL0     H36663   3.673   2.079   1.991 -0.1257  3.1586  2.0439
  278MOL0     H36664   3.862   1.992   2.217  0.8651 -0.2485 -1.8314
  278MOL0     H36665   3.703   1.918   2.179 -1.7566  1.4620  2.5171
  278MOL0     H36666   3.601   2.140   2.229  1.5563  0.4337 -2.1083
  278MOL0     H36667   3.752   2.218   2.255  0.8341  1.0926 -0.3908
  278MOL0     H36668   3.763   1.975   2.427 -0.5948 -0.0787 -0.4806
  278MOL0     H36669   3.752   2.142   2.483 -0.8380 -2.0189  3.7574
  278MOL0     H36670   3.497   2.129   2.472 -1.1666 -0.2211  2.2258
  278MOL0     H36671   3.568   2.009   2.574  0.1071 -0.5216  0.0205
  278MOL0     H36672   3.576   1.843   2.382 -0.9655 -0.1720  2.3157
  278MOL0     H36673   3.464   1.949   2.294  1.4896  0.2045 -0.2670
  278MOL0     H36674   3.417   1.820   2.566 -1.1351  1.7039  0.9116
  278MOL0     H36675   3.319   1.944   2.484 -0.5130 -0.3090 -2.0006
  278MOL0     H36676   3.282   1.795   2.302  1.1856 -0.8083 -1.3568
  278MOL0     H36677   3.234   1.702   2.458  0.6796  0.6628  0.9647
  278MOL0     H36678   3.928   2.414   2.027  0.5944  0.6217  1.5271
  278MOL0     H36679   4.147   2.482   2.077 -1.5848  0.6389  2.2809
  278MOL0     H36680   4.526   2.694   2.251 -2.5684 -1.1555 -3.7339
  278MOL0     H36681   4.763   2.720   2.286 -0.0162  0.8220 -1.6189
  278MOL0     H36682   6.526   1.832   2.796  0.4357 -1.1531 -0.3221
  278MOL0     H36683   6.751   1.745   2.726 -0.6162 -1.5978 -2.9332
  278MOL0     H36684   7.266   2.069   2.708 -2.8200 -0.1214 -0.4128
  278MOL0     H36685   7.497   2.008   2.621  1.1900 -1.5131 -1.8221
  278MOL0     H36686   7.574   1.648   2.356  1.8490 -1.1994 -0.3734
  278MOL0     H36687   7.553   1.628   2.533  1.7264  0.9307  0.8187
  278MOL0     H36688   7.767   1.702   2.589 -1.5130 -0.0835  0.2225
  278MOL0     H36689   7.797   1.581   2.474  1.8755 -0.1458  0.2328
  278MOL0     H36690   7.805   1.874   2.388 -2.4600 -0.6532  3.6477
  278MOL0     H36691   7.841   1.730   2.287 -0.8537 -0.2477 -0.4248
  278MOL0     H36692   8.007   1.809   2.538 -0.9008 -1.4631  0.2124
  278MOL0     H36693   8.031   1.668   2.418 -0.1235 -0.3475  0.8712
  278MOL0     H36694   8.190   1.978   2.207 -1.8769  1.1165  0.6131
  278MOL0     H36695   7.324   1.669   2.416  3.1664  0.4385  0.2251
  278MOL0     H36696   7.096   1.743   2.492 -1.5691  1.0113  4.7108
  279MOL0     O36697   1.141   3.572   0.609 -0.3405 -0.0179  0.1740
  279MOL0     C36698   1.245   3.638   0.627  0.4584  0.5025 -0.0377
  279MOL0     O36699   1.258   3.763   0.676 -0.2255 -0.5399  0.3121
  279MOL0     C36700   1.153   3.846   0.709  0.0751 -0.3498  0.1171
  279MOL0     C36701   1.033   3.793   0.772  0.1891  0.8639  1.0243
  279MOL0     C36702   0.924   3.877   0.801 -0.0481  0.0252  0.3002
  279MOL0     C36703   0.950   4.017   0.801  0.7603 -0.0627 -0.1003
  279MOL0     O36704   0.867   4.117   0.838 -0.1254 -0.0942 -0.6316
  279MOL0     C36705   0.728   4.092   0.881  0.5294  0.5029  0.6206
  279MOL0     C36706   0.662   4.230   0.915  0.0091  0.3618 -0.0242
  279MOL0     C36707   0.540   4.215   1.001 -1.2484 -0.0457 -0.2575
  279MOL0     C36708   0.464   4.347   1.018 -0.9026 -0.3086 -0.7117
  279MOL0     C36709   0.366   4.337   1.136  0.0422 -0.1160  0.1395
  279MOL0     C36710   0.293   4.465   1.155  1.0414  0.0806 -0.1591
  279MOL0     C36711   0.177   4.497   1.056 -0.2679 -0.3481  0.3031
  279MOL0     C36712   0.232   4.577   0.934  1.0142  0.8046  0.1084
  279MOL0     N36713   0.139   4.681   0.889  0.4436 -0.0909 -0.6209
  279MOL0     C36714   0.101   4.788   0.964 -0.4056 -0.9566  0.8789
  279MOL0     C36715   0.025   4.860   0.886 -0.0426 -1.0425  0.1071
  279MOL0     C36716  -0.052   4.992   0.935  0.3663  0.0783  0.5193
  279MOL0     C36717  -0.178   4.949   1.008 -0.7868  0.5390  0.4610
  279MOL0     C36718  -0.267   5.066   1.042  0.5214  0.5700  0.0880
  279MOL0     C36719  -0.403   5.024   1.102  0.6240  0.9112 -0.5764
  279MOL0     O36720  -0.492   4.980   0.988 -0.1811  0.0394  0.6444
  279MOL0     C36721  -0.629   4.990   1.004 -0.7528 -0.2116  0.0307
  279MOL0     C36722  -0.702   5.107   1.019  0.5925 -1.0923 -0.4282
  279MOL0     C36723  -0.840   5.111   1.035  0.2671 -0.7688  0.3288
  279MOL0     C36724  -0.910   4.992   1.043 -0.2099  0.7059 -0.1550
  279MOL0     C36725  -1.059   4.985   1.069  0.0840 -0.3732  0.3564
  279MOL0     O36726  -1.122   5.098   1.096 -0.1017  0.4143 -0.8254
  279MOL0     C36727  -1.254   5.104   1.121 -0.4478  0.0604 -0.7255
  279MOL0     C36728  -1.347   5.005   1.142  0.0533  0.3949  0.1890
  279MOL0     C36729  -1.472   5.034   1.198 -0.3065 -0.6803 -0.3460
  279MOL0     C36730  -1.518   5.164   1.225  0.7708  0.3492 -0.1736
  279MOL0     O36731  -1.640   5.216   1.267  0.2490  1.3222 -0.0670
  279MOL0     C36732  -1.747   5.113   1.276  0.5246 -0.0402  0.1915
  279MOL0     C36733  -1.805   5.098   1.136  0.0621 -0.1390 -0.0382
  279MOL0     C36734  -1.875   5.221   1.082  1.0391  0.0330  0.0041
  279MOL0     C36735  -1.981   5.290   1.167 -0.0640  0.2923  1.1264
  279MOL0     C36736  -2.036   5.417   1.097  0.6083  0.9677  0.2951
  279MOL0     C36737  -2.135   5.492   1.174  0.6240  0.0198  0.0176
  279MOL0     C36738  -2.090   5.548   1.308  0.1201 -0.0372 -0.3047
  279MOL0     C36739  -2.194   5.596   1.407  0.6243 -0.3083  0.5395
  279MOL0    Cl36740  -2.302   5.704   1.307 -0.0255 -0.4005  0.0482
  279MOL0     C36741  -1.432   5.261   1.200  0.2768 -0.4551 -0.4126
  279MOL0     C36742  -1.305   5.236   1.141 -0.3696 -0.3910  0.6463
  279MOL0     O36743  -1.113   4.881   1.047 -0.2469 -0.4487 -0.2620
  279MOL0     C36744  -0.842   4.874   1.007 -0.9878  0.2612 -0.2914
  279MOL0     C36745  -0.700   4.875   0.988  0.1636 -0.5352  0.7078
  279MOL0     N36746   0.016   4.800   0.769 -0.1912 -0.2648 -1.0979
  279MOL0     N36747   0.085   4.694   0.763 -0.4485  0.2472 -0.2903
  279MOL0     C36748   1.071   4.062   0.749  0.1917 -0.2904  0.6274
  279MOL0     C36749   1.170   3.982   0.697 -0.7178 -0.8784 -0.1475
  279MOL0     C36750   1.371   3.568   0.591  0.3573  0.1537  1.1514
  279MOL0     C36751   1.376   3.430   0.539 -0.4990 -0.1299  1.5022
  279MOL0     C36752   1.504   3.376   0.505 -0.5041  0.3413  0.7518
  279MOL0     C36753   1.618   3.453   0.512 -0.3378 -0.3470 -0.0474
  279MOL0     O36754   1.737   3.404   0.473  0.2892  0.0326  0.0093
  279MOL0     C36755   1.851   3.440   0.560 -0.1890  0.4935  0.3468
  279MOL0     C36756   1.931   3.318   0.547  0.3959 -0.0882 -0.1453
  279MOL0     C36757   2.030   3.295   0.670 -0.2391  0.1208  0.4525
  279MOL0     C36758   2.171   3.339   0.636 -0.2123  0.2194  0.7139
  279MOL0     C36759   2.262   3.338   0.751 -0.1876 -0.4663  0.1907
  279MOL0     C36760   2.338   3.347   0.851 -0.3190  0.5638  0.1463
  279MOL0     C36761   1.609   3.587   0.557 -0.5172  0.8197 -0.0243
  279MOL0     C36762   1.487   3.648   0.591  0.2119 -0.4048 -0.3096
  279MOL0     H36763   1.027   3.685   0.783 -0.2531  0.8721  0.8801
  279MOL0     H36764   0.827   3.842   0.837 -0.1511 -0.3556 -0.3381
  279MOL0     H36765   0.727   4.027   0.969  0.2288 -2.3515 -1.3515
  279MOL0     H36766   0.664   4.050   0.803 -0.3322 -0.5189  1.8566
  279MOL0     H36767   0.622   4.274   0.823 -2.6193  1.9231  1.7224
  279MOL0     H36768   0.735   4.298   0.958  1.9816 -0.8842 -1.2693
  279MOL0     H36769   0.562   4.175   1.101  0.0823  0.8962 -0.1447
  279MOL0     H36770   0.472   4.139   0.963  2.1543 -2.8458 -1.2784
  279MOL0     H36771   0.537   4.423   1.045 -0.6959 -1.2213  1.4256
  279MOL0     H36772   0.414   4.371   0.923 -2.9241  0.2136  0.4100
  279MOL0     H36773   0.418   4.313   1.229  1.8939 -2.1941 -1.3189
  279MOL0     H36774   0.288   4.262   1.123  0.6433 -1.1406  2.0567
  279MOL0     H36775   0.373   4.540   1.154  2.3389 -1.2738 -0.5520
  279MOL0     H36776   0.261   4.449   1.258 -0.7983 -0.3970 -0.7626
  279MOL0     H36777   0.143   4.403   1.012  1.9394 -0.6333 -0.9298
  279MOL0     H36778   0.096   4.544   1.113  0.3516  1.2498 -0.0573
  279MOL0     H36779   0.261   4.517   0.847 -0.3692  2.2642 -1.4322
  279MOL0     H36780   0.323   4.629   0.966  2.5005 -0.2688 -2.0647
  279MOL0     H36781   0.117   4.809   1.070  1.1912 -1.5542  0.7806
  279MOL0     H36782  -0.084   5.045   0.845  0.0546 -2.2628 -0.8461
  279MOL0     H36783   0.013   5.055   0.996 -1.3804  0.9083  1.5984
  279MOL0     H36784  -0.141   4.900   1.099  1.0672 -1.8902 -1.4838
  279MOL0     H36785  -0.232   4.870   0.955  0.4302 -0.1157  0.1736
  279MOL0     H36786  -0.201   5.125   1.106  2.4761 -0.9391 -0.4438
  279MOL0     H36787  -0.286   5.126   0.953  2.8719  0.6776 -0.4038
  279MOL0     H36788  -0.449   5.100   1.166  1.7755 -0.6171  2.2171
  279MOL0     H36789  -0.384   4.939   1.168  1.2463  3.2751  2.5136
  279MOL0     H36790  -0.642   5.193   1.048  0.7683 -0.2470 -3.0258
  279MOL0     H36791  -0.897   5.204   1.033  3.0993  1.1336  1.1298
  279MOL0     H36792  -1.321   4.899   1.146 -1.9138 -0.1402 -0.3372
  279MOL0     H36793  -1.528   4.948   1.234 -2.3377  0.5552 -0.4063
  279MOL0     H36794  -1.825   5.161   1.337  1.0061  0.4275  0.4484
  279MOL0     H36795  -1.712   5.019   1.320  2.4881  0.0431 -1.0593
  279MOL0     H36796  -1.878   5.017   1.143 -0.0903  0.0947  1.5797
  279MOL0     H36797  -1.728   5.072   1.063 -1.9705 -0.9112 -2.0138
  279MOL0     H36798  -1.922   5.195   0.987 -0.5714  0.0448  0.7557
  279MOL0     H36799  -1.801   5.299   1.062 -1.2452  1.9940 -1.3695
  279MOL0     H36800  -2.053   5.212   1.193  0.9481 -0.2690  2.3906
  279MOL0     H36801  -1.937   5.321   1.263  0.5163  1.7732  0.4024
  279MOL0     H36802  -2.073   5.388   0.998  1.3449 -2.8350  0.9719
  279MOL0     H36803  -1.969   5.500   1.072 -1.1570  1.2626 -4.8562
  279MOL0     H36804  -2.221   5.428   1.193  1.5846 -0.9270  1.3295
  279MOL0     H36805  -2.175   5.578   1.119 -0.4506  0.5062  1.5230
  279MOL0     H36806  -2.041   5.467   1.364  0.8072  1.0452  0.7133
  279MOL0     H36807  -2.014   5.624   1.292  0.6162 -1.0006 -3.0119
  279MOL0     H36808  -2.150   5.646   1.494  0.9503 -2.7301  1.8311
  279MOL0     H36809  -2.259   5.512   1.432 -0.5255 -0.2593 -1.9488
  279MOL0     H36810  -1.452   5.361   1.236  6.1785 -0.6795  5.1601
  279MOL0     H36811  -1.229   5.313   1.135  0.9270 -1.7287 -0.8360
  279MOL0     H36812  -0.895   4.780   1.004 -0.5983  0.0525 -0.8465
  279MOL0     H36813  -0.649   4.783   0.961 -0.8910 -1.0431  0.3774
  279MOL0     H36814   1.091   4.168   0.762  0.5275 -0.5492  2.4934
  279MOL0     H36815   1.262   4.020   0.653  0.0224 -1.3488  0.9437
  279MOL0     H36816   1.282   3.378   0.537  0.2825 -1.6423 -1.4274
  279MOL0     H36817   1.504   3.276   0.463 -0.8818  0.7301 -0.2099
  279MOL0     H36818   1.821   3.462   0.663 -0.1841 -1.5008  0.8082
  279MOL0     H36819   1.904   3.525   0.514 -0.4915  1.0951  1.0842
  279MOL0     H36820   1.867   3.230   0.537 -1.0994  0.9208  0.2397
  279MOL0     H36821   1.994   3.326   0.458  3.1280 -0.5309  1.6106
  279MOL0     H36822   2.033   3.189   0.696  0.8888 -0.2800 -1.1747
  279MOL0     H36823   1.994   3.347   0.760 -2.6645 -3.0869  1.5311
  279MOL0     H36824   2.207   3.277   0.553  0.5200 -1.6483  2.3611
  279MOL0     H36825   2.166   3.440   0.593 -2.0094 -0.3976 -0.6446
  279MOL0     H36826   2.406   3.351   0.934 -1.0895  0.5082  0.7976
  279MOL0     H36827   1.699   3.645   0.542 -0.8418  0.9548 -1.7364
  279MOL0     H36828   1.490   3.756   0.599 -2.2152 -0.2630 -0.5082
  280MOL0     O36829   6.073   4.570   0.763 -0.2243  0.4757  0.4901
  280MOL0     C36830   6.058   4.677   0.821 -0.0547  1.3271  0.2826
  280MOL0     O36831   5.972   4.700   0.927 -0.3321  0.5977 -0.0554
  280MOL0     C36832   5.898   4.602   0.995 -0.0458 -0.1302  0.0344
  280MOL0     C36833   5.782   4.655   1.061 -0.2716 -0.2829 -0.3843
  280MOL0     C36834   5.712   4.571   1.143 -0.6253  0.5632 -1.6311
  280MOL0     C36835   5.750   4.437   1.165 -0.0444  0.0073 -0.4197
  280MOL0     O36836   5.673   4.353   1.247  0.0339  0.2906 -0.1998
  280MOL0     C36837   5.704   4.219   1.236 -0.4656  0.7976 -0.1551
  280MOL0     C36838   5.587   4.138   1.290 -0.3461 -0.6894 -0.2549
  280MOL0     C36839   5.596   3.991   1.274  0.6036  0.5142 -0.4039
  280MOL0     C36840   5.486   3.907   1.360 -0.1898 -0.2701  0.6103
  280MOL0     C36841   5.489   3.766   1.323 -0.2761  0.0797  0.1893
  280MOL0     C36842   5.410   3.676   1.417  0.3722 -1.0958  0.5601
  280MOL0     C36843   5.260   3.685   1.398  0.5801 -0.0359 -0.4485
  280MOL0     C36844   5.159   3.612   1.490  0.2154 -0.0181  0.4791
  280MOL0     N36845   5.025   3.629   1.433  0.0990  0.5098  0.6165
  280MOL0     C36846   4.968   3.544   1.342  0.6377 -0.0174  0.3860
  280MOL0     C36847   4.858   3.615   1.290 -0.2256  0.0977 -0.1739
  280MOL0     C36848   4.770   3.567   1.179 -0.6353 -0.5382  0.6561
  280MOL0     C36849   4.625   3.548   1.222  0.7293  0.0157  0.5989
  280MOL0     C36850   4.597   3.433   1.321  0.0959  0.5115  0.0079
  280MOL0     C36851   4.630   3.288   1.282  0.6476 -0.7712  0.3155
  280MOL0     O36852   4.543   3.233   1.178  0.0621 -0.2670 -0.1015
  280MOL0     C36853   4.411   3.207   1.204  0.0478  0.2571  0.7271
  280MOL0     C36854   4.325   3.237   1.098 -0.2559  0.9477  0.1868
  280MOL0     C36855   4.190   3.210   1.108 -0.1163 -0.3704 -0.1642
  280MOL0     C36856   4.131   3.167   1.228 -0.6142 -0.7933 -0.0381
  280MOL0     C36857   3.982   3.147   1.241  0.7322  0.3076  0.3655
  280MOL0     O36858   3.912   3.147   1.121 -0.1102 -0.2944  0.5324
  280MOL0     C36859   3.778   3.129   1.142 -0.2335 -0.4009 -0.2735
  280MOL0     C36860   3.687   3.238   1.152  0.0885  0.2012 -0.6972
  280MOL0     C36861   3.552   3.212   1.167 -0.9805 -0.0477 -0.0321
  280MOL0     C36862   3.503   3.085   1.156 -0.2585 -0.0214  0.1067
  280MOL0     O36863   3.371   3.066   1.171 -0.2017 -0.0284  0.1269
  280MOL0     C36864   3.281   3.147   1.096  0.0468 -0.7836 -0.1379
  280MOL0     C36865   3.197   3.065   1.007  0.0534  0.5146 -0.2689
  280MOL0     C36866   3.107   3.153   0.927  0.0656  0.3994 -0.4925
  280MOL0     C36867   2.981   3.072   0.871  0.0794  0.4952  0.6532
  280MOL0     C36868   2.904   3.150   0.767 -1.0826 -0.2682  0.4229
  280MOL0     C36869   2.772   3.083   0.754 -0.0645  0.0594  0.8997
  280MOL0     C36870   2.768   2.947   0.682  0.2664  0.6770  0.0277
  280MOL0     C36871   2.857   2.943   0.563 -0.2877  0.7639 -0.0295
  280MOL0    Cl36872   2.873   2.781   0.490 -0.2216  0.2538  0.1715
  280MOL0     C36873   3.590   2.978   1.134  0.2483  0.4851  0.0744
  280MOL0     C36874   3.728   3.003   1.133  0.0410 -0.4010 -0.0421
  280MOL0     O36875   3.936   3.139   1.356 -0.5071 -1.2027 -0.1617
  280MOL0     C36876   4.214   3.153   1.342  0.1766 -0.4997  0.6029
  280MOL0     C36877   4.358   3.166   1.324  0.0185 -0.5149 -0.2274
  280MOL0     N36878   4.867   3.746   1.352  0.1619  0.1508 -0.3319
  280MOL0     N36879   4.953   3.742   1.444  0.3007  0.5213 -0.1587
  280MOL0     C36880   5.871   4.388   1.105 -0.2383 -0.6788  0.2882
  280MOL0     C36881   5.945   4.472   1.014  0.3246  0.4275 -0.1177
  280MOL0     C36882   6.136   4.790   0.772  0.8750 -0.1669  0.7343
  280MOL0     C36883   6.099   4.916   0.819  0.8343  0.2275 -1.1424
  280MOL0     C36884   6.170   5.025   0.786  0.0470  0.8277 -0.1482
  280MOL0     C36885   6.282   5.018   0.709  0.8915  0.4039 -1.0410
  280MOL0     O36886   6.338   5.145   0.698  0.7147 -0.1438 -0.1638
  280MOL0     C36887   6.469   5.167   0.629 -0.0595 -0.4924 -1.1629
  280MOL0     C36888   6.527   5.303   0.646  0.2319 -0.2738  0.3955
  280MOL0     C36889   6.418   5.415   0.608 -0.1344  0.2562 -0.9187
  280MOL0     C36890   6.474   5.554   0.641  0.3143 -0.6609 -0.3345
  280MOL0     C36891   6.577   5.602   0.555  0.0486 -0.3090 -0.3554
  280MOL0     C36892   6.666   5.635   0.477 -0.1262  0.1091  0.4346
  280MOL0     C36893   6.322   4.900   0.648  0.7611 -0.4225 -0.3460
  280MOL0     C36894   6.250   4.784   0.689  0.1835 -0.8781  0.3045
  280MOL0     H36895   5.745   4.754   1.036  0.6459 -0.3569 -2.2521
  280MOL0     H36896   5.613   4.596   1.180  0.0793 -0.8889  1.6190
  280MOL0     H36897   5.778   4.198   1.314 -2.5104 -0.7784  1.4935
  280MOL0     H36898   5.733   4.187   1.135 -0.7815 -0.6128  0.1743
  280MOL0     H36899   5.509   4.180   1.227 -0.9845  1.1889  1.6538
  280MOL0     H36900   5.560   4.155   1.395 -6.2041  0.2816 -1.5720
  280MOL0     H36901   5.692   3.964   1.318  0.1062  0.8247  0.9215
  280MOL0     H36902   5.579   3.976   1.166 -1.7073 -1.4400  0.1277
  280MOL0     H36903   5.518   3.919   1.464 -0.4600  0.4674  0.6162
  280MOL0     H36904   5.387   3.949   1.344 -0.2906 -1.0617 -1.0488
  280MOL0     H36905   5.593   3.729   1.327 -0.3890 -0.1199  2.2762
  280MOL0     H36906   5.456   3.755   1.219 -2.0192  4.6692  0.0204
  280MOL0     H36907   5.445   3.694   1.520  1.4255  0.4771 -0.0291
  280MOL0     H36908   5.434   3.573   1.391 -0.9170 -1.7382  1.7850
  280MOL0     H36909   5.236   3.791   1.408  2.5287  0.2326  2.4435
  280MOL0     H36910   5.234   3.654   1.296 -0.5420  1.2340 -0.5821
  280MOL0     H36911   5.151   3.664   1.586 -0.4805  0.6078  0.0937
  280MOL0     H36912   5.171   3.505   1.510 -0.2006  0.3074  2.8166
  280MOL0     H36913   5.003   3.444   1.319  0.4836 -0.1509  0.7248
  280MOL0     H36914   4.816   3.473   1.148  1.5881  0.4807  0.6670
  280MOL0     H36915   4.766   3.634   1.092  0.5330 -1.2750  0.0116
  280MOL0     H36916   4.557   3.537   1.138 -1.6751 -0.1053  2.4532
  280MOL0     H36917   4.589   3.640   1.269  1.8900  0.2198  1.1353
  280MOL0     H36918   4.641   3.445   1.420 -2.4980 -0.1607  1.3300
  280MOL0     H36919   4.489   3.432   1.338 -0.1526 -1.2395 -1.3685
  280MOL0     H36920   4.614   3.232   1.375 -1.3635  0.1754  0.5916
  280MOL0     H36921   4.736   3.284   1.257  1.1087 -0.8713  2.1784
  280MOL0     H36922   4.369   3.280   1.009 -0.3001  2.1271  0.7079
  280MOL0     H36923   4.128   3.231   1.021  2.8264  2.5025 -1.7685
  280MOL0     H36924   3.722   3.340   1.138 -0.4345  0.5142  0.1964
  280MOL0     H36925   3.487   3.299   1.171  0.2467  0.9819 -1.5160
  280MOL0     H36926   3.336   3.220   1.035 -1.0611  1.0323  0.9471
  280MOL0     H36927   3.213   3.196   1.166 -1.5551  1.1680 -2.8558
  280MOL0     H36928   3.131   2.998   1.063  0.1925  0.4655 -0.1651
  280MOL0     H36929   3.264   3.012   0.939  1.0939  2.7158 -1.0804
  280MOL0     H36930   3.168   3.192   0.844 -0.8793 -1.2994 -2.0653
  280MOL0     H36931   3.080   3.241   0.986  0.6630  1.0310 -1.1337
  280MOL0     H36932   3.013   2.975   0.830  3.5381  1.3523  0.9976
  280MOL0     H36933   2.919   3.055   0.959 -0.4038 -1.0485  0.0459
  280MOL0     H36934   2.953   3.162   0.670  2.3078 -1.0795  1.8870
  280MOL0     H36935   2.887   3.251   0.804 -0.9589 -0.5576  1.2869
  280MOL0     H36936   2.713   3.157   0.698  1.1148 -0.8656 -1.7667
  280MOL0     H36937   2.725   3.081   0.853 -0.8587  0.6958  0.5537
  280MOL0     H36938   2.795   2.858   0.739  1.5118  0.0333 -1.4913
  280MOL0     H36939   2.665   2.932   0.647 -0.7965  3.2745  1.7467
  280MOL0     H36940   2.960   2.977   0.578 -0.6796  2.0876 -0.2307
  280MOL0     H36941   2.806   3.004   0.488  0.5681 -0.3001 -1.5255
  280MOL0     H36942   3.548   2.878   1.138  0.3619  0.2591 -2.7117
  280MOL0     H36943   3.792   2.915   1.126 -0.0848 -0.3796 -1.7872
  280MOL0     H36944   4.165   3.123   1.434 -4.4776 -0.8843 -1.7371
  280MOL0     H36945   4.420   3.149   1.411  2.2681  0.8914 -1.4748
  280MOL0     H36946   5.911   4.291   1.135 -0.2894 -0.8091 -0.0589
  280MOL0     H36947   6.046   4.448   0.984  0.2271 -1.8360  1.0779
  280MOL0     H36948   6.010   4.940   0.875  0.1958  1.2580 -2.5355
  280MOL0     H36949   6.147   5.122   0.830 -3.5558 -0.5060  1.2590
  280MOL0     H36950   6.477   5.144   0.522  1.4169 -0.0551 -1.1701
  280MOL0     H36951   6.541   5.107   0.685  0.3975  1.9674  1.1088
  280MOL0     H36952   6.566   5.308   0.748 -2.9611 -1.4218  1.7962
  280MOL0     H36953   6.605   5.318   0.571  1.1713  0.8470  1.5438
  280MOL0     H36954   6.334   5.386   0.672 -0.0751 -1.5924 -1.6219
  280MOL0     H36955   6.392   5.413   0.502 -2.1411 -2.0687 -0.4748
  280MOL0     H36956   6.387   5.621   0.641  0.5837 -0.2900  0.4431
  280MOL0     H36957   6.513   5.545   0.743 -0.8559 -5.5923 -0.1158
  280MOL0     H36958   6.736   5.675   0.407 -1.5905  1.4874 -0.3275
  280MOL0     H36959   6.404   4.899   0.577  2.1572  0.4717  1.1907
  280MOL0     H36960   6.280   4.687   0.651  0.0272  0.2400 -3.0839
  281MOL0     O36961   8.942   1.449  10.265  0.0718 -0.0463  0.0624
  281MOL0     C36962   9.007   1.554  10.284  0.4129  0.1650 -0.0938
  281MOL0     O36963   8.959   1.678  10.276  0.7145  0.1622  0.4747
  281MOL0     C36964   8.831   1.684  10.219  0.4248  0.2238 -0.3789
  281MOL0     C36965   8.795   1.660  10.084 -0.5442 -0.1094  0.6874
  281MOL0     C36966   8.662   1.657  10.049 -0.4780  0.6727  0.0290
  281MOL0     C36967   8.569   1.712  10.130 -0.2529 -0.4900 -1.0985
  281MOL0     O36968   8.441   1.725  10.076 -0.2361  0.3365  0.0335
  281MOL0     C36969   8.334   1.724  10.166  0.3406  0.0325 -0.5742
  281MOL0     C36970   8.202   1.720  10.081  0.0486 -0.6284 -0.3270
  281MOL0     C36971   8.176   1.843   9.988  0.6079 -0.0214  0.3061
  281MOL0     C36972   8.085   1.801   9.872 -0.3620  0.8003 -0.6763
  281MOL0     C36973   8.137   1.847   9.731  0.3943  0.4526 -0.0484
  281MOL0     C36974   8.065   1.775   9.613 -0.7117  1.2492 -0.2199
  281MOL0     C36975   7.933   1.842   9.571 -1.1249 -0.2613 -0.2777
  281MOL0     C36976   7.838   1.772   9.468 -0.5512 -0.3392  0.7233
  281MOL0     N36977   7.759   1.665   9.535 -0.8000  0.0194  0.3664
  281MOL0     C36978   7.782   1.533   9.515  0.1922 -0.7597  0.1842
  281MOL0     C36979   7.689   1.472   9.583  0.2778  0.2643  0.4985
  281MOL0     C36980   7.666   1.322   9.593 -0.3190 -0.3726  0.5702
  281MOL0     C36981   7.565   1.265   9.493 -1.0113 -0.8000 -1.0000
  281MOL0     C36982   7.529   1.119   9.516 -0.7146  0.7580 -0.3533
  281MOL0     C36983   7.396   1.098   9.462  0.3684  0.1068 -0.3054
  281MOL0     O36984   7.394   1.106   9.321  0.1824 -0.0086  1.2790
  281MOL0     C36985   7.278   1.113   9.235  0.0595 -0.5664 -1.1609
  281MOL0     C36986   7.151   1.092   9.275 -0.4571 -1.6613 -0.3903
  281MOL0     C36987   7.044   1.085   9.185  0.3217  0.0398 -0.3907
  281MOL0     C36988   7.071   1.086   9.050 -0.8150  0.3979  0.0747
  281MOL0     C36989   6.961   1.065   8.958 -0.2135 -0.3164  0.6843
  281MOL0     O36990   6.833   1.033   8.994  0.1429  0.2829 -0.3390
  281MOL0     C36991   6.739   0.994   8.909 -0.2776  0.0598  1.0711
  281MOL0     C36992   6.609   1.049   8.923  0.9737  0.0621  0.5846
  281MOL0     C36993   6.518   1.007   8.832 -0.1733 -0.0659  0.1215
  281MOL0     C36994   6.543   0.911   8.732  0.6749  0.2346  0.1376
  281MOL0     O36995   6.444   0.883   8.636 -0.7853 -0.6378  0.0802
  281MOL0     C36996   6.310   0.882   8.672  0.1741 -0.0117 -0.4687
  281MOL0     C36997   6.223   0.999   8.631  0.1006 -0.0172 -0.2939
  281MOL0     C36998   6.081   0.978   8.694  0.0043  0.8921 -0.1786
  281MOL0     C36999   6.002   1.107   8.725  0.3558  0.2166 -0.1092
  281MOL0     C37000   5.920   1.165   8.602 -0.1870  0.4663 -0.4152
  281MOL0     C37001   5.825   1.272   8.658  0.8958  0.0616 -0.2815
  281MOL0     C37002   5.767   1.348   8.542  0.7780  0.1559  0.4964
  281MOL0     C37003   5.654   1.274   8.466  0.6241  0.2515 -0.8094
  281MOL0    Cl37004   5.574   1.379   8.346  0.2083  0.3410 -0.2219
  281MOL0     C37005   6.674   0.864   8.713 -0.0022 -0.5979  0.3172
  281MOL0     C37006   6.771   0.902   8.801  0.3493 -0.6454 -0.3002
  281MOL0     O37007   7.001   1.070   8.843  0.1659 -0.1823 -0.0461
  281MOL0     C37008   7.198   1.128   9.004 -0.1662  0.4266 -0.1457
  281MOL0     C37009   7.305   1.135   9.107 -0.2256 -0.7425  0.6995
  281MOL0     N37010   7.606   1.569   9.636  0.4893  0.2695 -0.9592
  281MOL0     N37011   7.641   1.687   9.594 -0.4261 -0.2321  0.0060
  281MOL0     C37012   8.605   1.737  10.265  0.2470  0.2535 -0.7744
  281MOL0     C37013   8.733   1.726  10.306 -0.0958  0.1289 -0.2002
  281MOL0     C37014   9.138   1.540  10.349  0.0722 -0.6127 -0.3134
  281MOL0     C37015   9.228   1.649  10.386  0.3324 -0.5727 -0.1194
  281MOL0     C37016   9.348   1.617  10.442  0.4292 -0.5825  0.2177
  281MOL0     C37017   9.396   1.492  10.466 -0.2502  0.1470 -0.4592
  281MOL0     O37018   9.520   1.492  10.527 -0.1365  0.4058  0.5851
  281MOL0     C37019   9.560   1.375  10.589  0.0149 -0.0262 -0.1908
  281MOL0     C37020   9.676   1.420  10.679 -0.1507 -0.5721 -0.4179
  281MOL0     C37021   9.799   1.446  10.604 -0.0664  0.8421  0.2868
  281MOL0     C37022   9.924   1.472  10.692 -0.2298  0.4381 -0.0704
  281MOL0     C37023  10.051   1.510  10.619 -0.3795  1.4593  0.1088
  281MOL0     C37024  10.155   1.550  10.560  0.2934 -0.6179 -0.4885
  281MOL0     C37025   9.317   1.383  10.430  0.2182  0.8110 -0.6435
  281MOL0     C37026   9.191   1.417  10.378 -0.1131 -0.0169 -0.5956
  281MOL0     H37027   8.873   1.624  10.018 -0.7657  0.8625 -0.1207
  281MOL0     H37028   8.641   1.629   9.946  1.0879 -1.8873  0.3088
  281MOL0     H37029   8.328   1.819  10.220  1.2774  0.3029 -0.9221
  281MOL0     H37030   8.338   1.643  10.239  0.9171 -0.2168 -0.8682
  281MOL0     H37031   8.128   1.730  10.160  0.0041  0.9676 -0.5324
  281MOL0     H37032   8.189   1.620  10.039 -0.8991 -1.2331  1.3334
  281MOL0     H37033   8.267   1.887   9.945 -0.3441  0.3232 -1.4695
  281MOL0     H37034   8.135   1.928  10.043 -2.1071 -1.3697  0.5092
  281MOL0     H37035   8.078   1.693   9.857  2.8927  0.7200 -2.5029
  281MOL0     H37036   7.987   1.844   9.895 -0.3963  0.4059 -0.0580
  281MOL0     H37037   8.243   1.830   9.715  0.8060  1.5294  1.3242
  281MOL0     H37038   8.117   1.953   9.715 -0.0016  0.0125 -2.9598
  281MOL0     H37039   8.034   1.674   9.643  0.2424  1.7335  2.7026
  281MOL0     H37040   8.133   1.767   9.528  0.3331 -2.8915  0.7677
  281MOL0     H37041   7.881   1.864   9.665  0.6724 -0.0019  0.6933
  281MOL0     H37042   7.957   1.933   9.515 -3.7387  0.1173 -0.9240
  281MOL0     H37043   7.905   1.735   9.390 -0.6426  1.8799 -0.4708
  281MOL0     H37044   7.767   1.847   9.433 -1.7731 -0.3166  3.0236
  281MOL0     H37045   7.864   1.487   9.461 -1.1272 -2.4204 -0.4880
  281MOL0     H37046   7.640   1.301   9.697  1.0183  1.5913  1.3551
  281MOL0     H37047   7.761   1.278   9.563  0.7505  1.5248  1.0125
  281MOL0     H37048   7.604   1.282   9.392 -3.1312 -0.0206 -1.7567
  281MOL0     H37049   7.481   1.335   9.497  0.7026  1.3028  0.8680
  281MOL0     H37050   7.606   1.047   9.485 -1.2006 -1.0989  2.4192
  281MOL0     H37051   7.522   1.094   9.623 -3.0780 -0.2126 -0.6766
  281MOL0     H37052   7.332   1.177   9.503 -0.0786  0.0145 -0.8057
  281MOL0     H37053   7.357   0.999   9.487  1.7325  0.0039  1.5661
  281MOL0     H37054   7.135   1.079   9.381  0.3110 -0.9021 -0.1700
  281MOL0     H37055   6.948   1.051   9.222 -0.1120 -1.9788 -3.0428
  281MOL0     H37056   6.586   1.107   9.011 -0.0389 -0.0559  0.4153
  281MOL0     H37057   6.423   1.059   8.836 -2.0937 -2.7496 -4.0158
  281MOL0     H37058   6.300   0.881   8.781 -1.3945 -0.1363 -0.5810
  281MOL0     H37059   6.262   0.796   8.623 -1.6328  1.8635 -2.2000
  281MOL0     H37060   6.214   1.019   8.524  1.2646  0.6999 -0.2809
  281MOL0     H37061   6.254   1.099   8.666  0.9569  0.2787 -1.8036
  281MOL0     H37062   6.096   0.926   8.790  1.7989  1.3857 -0.1502
  281MOL0     H37063   6.033   0.902   8.633  2.6689  0.1739 -1.5271
  281MOL0     H37064   5.925   1.082   8.799 -1.6151 -2.2320 -2.7468
  281MOL0     H37065   6.070   1.183   8.764  1.7183 -1.0541  0.0678
  281MOL0     H37066   5.869   1.086   8.545  0.0872 -0.0705  0.0734
  281MOL0     H37067   5.995   1.199   8.531  0.6325  0.8987  0.6293
  281MOL0     H37068   5.878   1.337   8.728 -0.4982 -1.3240  2.2158
  281MOL0     H37069   5.752   1.219   8.720  2.3789 -0.4694  1.0890
  281MOL0     H37070   5.732   1.443   8.584  3.4164  0.4803  2.1824
  281MOL0     H37071   5.849   1.349   8.470 -0.3553 -3.8488 -1.1347
  281MOL0     H37072   5.566   1.245   8.525  0.2208  0.3102 -1.3771
  281MOL0     H37073   5.688   1.188   8.407 -2.2886 -0.3996 -1.6841
  281MOL0     H37074   6.691   0.795   8.631  0.0256 -0.3660  0.1291
  281MOL0     H37075   6.865   0.849   8.788 -1.0546 -3.9935  1.7545
  281MOL0     H37076   7.222   1.144   8.900 -0.0752  2.2041  0.1276
  281MOL0     H37077   7.404   1.154   9.068 -0.6740 -1.4812 -0.8886
  281MOL0     H37078   8.543   1.771  10.348  1.8518 -3.8370  2.5133
  281MOL0     H37079   8.771   1.743  10.406  0.5209  1.6045 -0.6661
  281MOL0     H37080   9.195   1.750  10.362 -3.2988 -1.3245  0.9975
  281MOL0     H37081   9.410   1.700  10.473  0.5786 -0.8430  0.6243
  281MOL0     H37082   9.601   1.306  10.513 -1.4223 -0.6434 -0.4307
  281MOL0     H37083   9.482   1.330  10.651 -0.1896  0.6070  0.0183
  281MOL0     H37084   9.648   1.513  10.730 -0.3348  0.4494 -2.2868
  281MOL0     H37085   9.698   1.343  10.753 -2.7729 -2.2922 -1.3012
  281MOL0     H37086   9.785   1.532  10.537  1.9890  0.0263 -1.3039
  281MOL0     H37087   9.825   1.353  10.553  1.5092  0.7928  1.1287
  281MOL0     H37088   9.904   1.544  10.773 -1.1867  2.4088 -1.9430
  281MOL0     H37089   9.935   1.370  10.730  0.4944  0.0218 -1.3588
  281MOL0     H37090  10.247   1.570  10.510  1.8519 -2.0281  1.6034
  281MOL0     H37091   9.343   1.278  10.442 -1.2383  0.1533 -2.6880
  281MOL0     H37092   9.128   1.329  10.371 -0.0440 -0.2921  1.6062
  282MOL0     O37093   0.660   9.549   8.229  0.1163  0.0508  0.2605
  282MOL0     C37094   0.633   9.531   8.350  0.2856 -0.1001  0.8161
  282MOL0     O37095   0.518   9.537   8.413 -0.1333 -0.4193 -0.6093
  282MOL0     C37096   0.404   9.501   8.343 -0.1775  0.7616 -0.3569
  282MOL0     C37097   0.295   9.581   8.351 -0.1750 -0.3247  0.4626
  282MOL0     C37098   0.184   9.551   8.279 -1.6338 -0.0448  0.5555
  282MOL0     C37099   0.181   9.451   8.184  0.8884 -0.3967  0.4360
  282MOL0     O37100   0.069   9.450   8.101 -0.1056 -0.9030 -0.3578
  282MOL0     C37101   0.068   9.352   7.997 -1.0911  0.9316  0.6349
  282MOL0     C37102  -0.061   9.350   7.905  0.0243  0.3619 -0.1576
  282MOL0     C37103  -0.080   9.472   7.817 -0.6280 -0.1164 -0.4272
  282MOL0     C37104  -0.155   9.441   7.693  0.2828  0.2348  0.5459
  282MOL0     C37105  -0.168   9.576   7.607 -0.4443  0.3286  0.1034
  282MOL0     C37106  -0.033   9.626   7.564 -0.9810  0.0350 -0.6598
  282MOL0     C37107  -0.069   9.741   7.465 -0.3658  0.6977 -0.2103
  282MOL0     C37108  -0.141   9.855   7.536  0.1939  0.8803  0.1485
  282MOL0     N37109  -0.106   9.984   7.485  0.0189  0.0541 -0.5714
  282MOL0     C37110  -0.164  10.034   7.370  0.0079  0.0675 -0.3405
  282MOL0     C37111  -0.120  10.159   7.368  0.1160  1.3877 -0.1508
  282MOL0     C37112  -0.172  10.269   7.269 -0.0025  0.6630 -0.2498
  282MOL0     C37113  -0.286  10.351   7.330 -1.0041  0.4618  0.5659
  282MOL0     C37114  -0.406  10.264   7.379  0.6019  0.6717 -1.4600
  282MOL0     C37115  -0.519  10.362   7.396 -0.0003  0.1892 -0.2971
  282MOL0     O37116  -0.640  10.300   7.460  0.5562 -0.0029 -0.2395
  282MOL0     C37117  -0.756  10.375   7.467  0.0837  0.1158 -0.0250
  282MOL0     C37118  -0.777  10.508   7.421 -0.1573 -1.0278  0.2300
  282MOL0     C37119  -0.910  10.553   7.421  0.1558  1.1169  0.5845
  282MOL0     C37120  -1.020  10.491   7.479 -0.9055  0.6953 -0.1230
  282MOL0     C37121  -1.155  10.536   7.483 -0.0328  0.4912 -1.0131
  282MOL0     O37122  -1.178  10.668   7.481  0.0900 -0.2656  0.0539
  282MOL0     C37123  -1.301  10.720   7.513  0.7482  0.3116  0.4898
  282MOL0     C37124  -1.325  10.853   7.469  0.0090 -0.0373  0.8972
  282MOL0     C37125  -1.450  10.921   7.495 -0.2263 -0.3428 -0.0720
  282MOL0     C37126  -1.553  10.852   7.558 -0.0490 -0.9175  1.0549
  282MOL0     O37127  -1.681  10.894   7.588  0.2405  0.0670 -0.9003
  282MOL0     C37128  -1.727  11.026   7.553  0.5959 -0.3161  0.1215
  282MOL0     C37129  -1.813  11.087   7.664  0.7081 -0.9256  0.1344
  282MOL0     C37130  -1.857  11.238   7.639  0.3945 -0.4557  0.0330
  282MOL0     C37131  -1.985  11.271   7.716  0.5898  0.5021 -0.0618
  282MOL0     C37132  -2.029  11.420   7.704 -0.3778 -0.2161 -0.5855
  282MOL0     C37133  -2.151  11.461   7.791 -0.3741  0.1205 -0.2997
  282MOL0     C37134  -2.159  11.618   7.775 -0.5747 -0.3061  0.0147
  282MOL0     C37135  -2.294  11.668   7.825 -0.5874 -0.1917 -0.9291
  282MOL0    Cl37136  -2.265  11.811   7.926 -0.0181 -0.3461 -0.0893
  282MOL0     C37137  -1.522  10.726   7.605  0.1657  0.8148  0.5724
  282MOL0     C37138  -1.401  10.655   7.585  0.4781 -0.9703 -0.0105
  282MOL0     O37139  -1.240  10.448   7.480 -0.6598  0.6302  0.4720
  282MOL0     C37140  -0.991  10.363   7.535 -0.4651 -0.0966 -0.0028
  282MOL0     C37141  -0.864  10.309   7.523  1.2782 -0.1182 -0.0878
  282MOL0     N37142  -0.039  10.187   7.475 -0.7783 -1.4896  0.2731
  282MOL0     N37143  -0.035  10.084   7.550  0.2194  0.0621 -0.1931
  282MOL0     C37144   0.285   9.369   8.172 -0.4553 -0.0850  0.9547
  282MOL0     C37145   0.401   9.392   8.248 -0.1858 -0.2582 -0.9452
  282MOL0     C37146   0.749   9.505   8.436  0.5033 -0.0059  0.1362
  282MOL0     C37147   0.881   9.516   8.392  0.1061  0.1380  0.2135
  282MOL0     C37148   0.994   9.467   8.474  0.0491 -0.5573 -0.6146
  282MOL0     C37149   0.981   9.423   8.602 -0.4316 -0.0258 -0.0005
  282MOL0     O37150   1.085   9.381   8.682 -0.1878  1.1900  1.1010
  282MOL0     C37151   1.220   9.378   8.625  0.0225  0.0819  0.3946
  282MOL0     C37152   1.305   9.295   8.718  0.2339 -0.7073  0.1006
  282MOL0     C37153   1.446   9.259   8.655  0.0349  0.0950 -0.2632
  282MOL0     C37154   1.440   9.189   8.509 -0.1394  0.1035 -0.2545
  282MOL0     C37155   1.354   9.070   8.526 -0.2681 -0.7128 -0.7014
  282MOL0     C37156   1.292   8.969   8.554  0.9653  0.7346 -0.5276
  282MOL0     C37157   0.852   9.408   8.640 -0.2263 -0.2940 -0.2099
  282MOL0     C37158   0.736   9.444   8.566  0.0911 -0.2220  0.6093
  282MOL0     H37159   0.294   9.668   8.416 -0.8075  0.1450 -0.1673
  282MOL0     H37160   0.097   9.616   8.283 -0.4146  1.6089  1.7641
  282MOL0     H37161   0.092   9.251   8.033  1.3938  1.0181 -0.5896
  282MOL0     H37162   0.152   9.363   7.928 -1.6361  2.2236  0.1562
  282MOL0     H37163  -0.153   9.344   7.964 -1.8218 -1.0079 -2.9327
  282MOL0     H37164  -0.058   9.256   7.849  0.7594 -0.9424  1.9222
  282MOL0     H37165   0.022   9.497   7.784 -0.8552 -3.3674 -4.3861
  282MOL0     H37166  -0.121   9.562   7.864  1.0007 -0.3401  1.5788
  282MOL0     H37167  -0.102   9.363   7.637  3.0530  1.1954  1.6323
  282MOL0     H37168  -0.254   9.399   7.712  0.2756 -1.1895 -2.1752
  282MOL0     H37169  -0.223   9.643   7.673  0.2681 -1.5195  2.7109
  282MOL0     H37170  -0.237   9.554   7.525  1.6315 -2.5242 -1.0511
  282MOL0     H37171   0.027   9.554   7.509 -0.0322  0.2125  0.1100
  282MOL0     H37172   0.020   9.662   7.653 -0.7876 -1.7954  0.0115
  282MOL0     H37173   0.028   9.767   7.422  0.9225 -2.6535  0.3117
  282MOL0     H37174  -0.122   9.700   7.378  0.3439  2.4911 -1.5503
  282MOL0     H37175  -0.111   9.855   7.641 -0.3357  1.2627  0.3040
  282MOL0     H37176  -0.249   9.853   7.518 -0.0643 -1.0910  1.6515
  282MOL0     H37177  -0.226   9.986   7.295 -1.1296  1.5146 -0.3810
  282MOL0     H37178  -0.198  10.230   7.170 -1.9792 -1.2318  0.9044
  282MOL0     H37179  -0.084  10.333   7.268  1.2400 -0.9329  0.8066
  282MOL0     H37180  -0.317  10.415   7.247 -0.5464 -2.0407 -1.6527
  282MOL0     H37181  -0.244  10.400   7.419 -1.8267  0.2673  1.0740
  282MOL0     H37182  -0.437  10.187   7.308  2.1175 -0.1788 -1.2546
  282MOL0     H37183  -0.378  10.220   7.475  2.3952  1.4991 -1.5487
  282MOL0     H37184  -0.528  10.409   7.298  2.2130  3.2042  0.7762
  282MOL0     H37185  -0.499  10.446   7.464 -4.5625 -0.1149  1.7965
  282MOL0     H37186  -0.699  10.577   7.392  1.5447 -1.4855  3.2493
  282MOL0     H37187  -0.932  10.641   7.360  0.9767  1.8629  1.3316
  282MOL0     H37188  -1.238  10.894   7.418 -1.4652 -0.3640 -2.1075
  282MOL0     H37189  -1.453  11.027   7.472 -1.2929 -0.0311  1.3659
  282MOL0     H37190  -1.788  11.027   7.462  0.8341 -0.8997 -0.0454
  282MOL0     H37191  -1.642  11.092   7.536  1.0392 -0.8788  0.1253
  282MOL0     H37192  -1.767  11.079   7.763 -0.0753 -2.6684  0.3900
  282MOL0     H37193  -1.905  11.030   7.673  0.2591 -0.2747 -0.2748
  282MOL0     H37194  -1.863  11.263   7.533 -3.1370  1.2325  0.5088
  282MOL0     H37195  -1.777  11.299   7.683  0.5367 -0.2731 -0.4721
  282MOL0     H37196  -2.071  11.219   7.672  2.1537  0.2522 -3.0754
  282MOL0     H37197  -1.970  11.247   7.822 -1.3145  2.3733  0.7209
  282MOL0     H37198  -2.054  11.444   7.601 -4.6097 -1.4176 -0.0376
  282MOL0     H37199  -1.949  11.481   7.746 -1.3351 -0.0876  1.1813
  282MOL0     H37200  -2.130  11.440   7.896 -0.1067 -2.0797 -0.7533
  282MOL0     H37201  -2.246  11.409   7.773 -0.8511  0.7692  0.2780
  282MOL0     H37202  -2.077  11.671   7.825  0.0857 -0.4141 -0.9347
  282MOL0     H37203  -2.142  11.641   7.669  1.3871 -1.1931  0.0935
  282MOL0     H37204  -2.339  11.590   7.888 -1.0973  0.2058 -0.7969
  282MOL0     H37205  -2.366  11.699   7.748 -1.4148 -3.0134 -1.4009
  282MOL0     H37206  -1.589  10.658   7.657  1.8121  0.9846  3.1385
  282MOL0     H37207  -1.395  10.558   7.632  0.9792 -1.3517 -0.8514
  282MOL0     H37208  -1.073  10.297   7.560  0.1128 -1.3936 -1.3497
  282MOL0     H37209  -0.854  10.205   7.552 -1.9405 -0.2974  0.7186
  282MOL0     H37210   0.285   9.291   8.096 -0.7904 -0.2048  1.0743
  282MOL0     H37211   0.485   9.323   8.244  1.1692  0.9856  2.4576
  282MOL0     H37212   0.899   9.550   8.291  1.5589 -0.0526  0.3930
  282MOL0     H37213   1.095   9.481   8.437  0.6409 -3.3044 -0.3018
  282MOL0     H37214   1.252   9.480   8.603 -0.2972 -0.2067 -1.6944
  282MOL0     H37215   1.206   9.326   8.530 -1.3690  0.5949  0.2965
  282MOL0     H37216   1.319   9.331   8.820  1.6416 -1.2858  0.1418
  282MOL0     H37217   1.249   9.203   8.735 -2.3404  0.7812  0.2236
  282MOL0     H37218   1.506   9.209   8.731 -0.5477  1.5995  1.2510
  282MOL0     H37219   1.495   9.357   8.649 -0.8406  0.5896  0.3362
  282MOL0     H37220   1.395   9.260   8.439  1.8385  0.8889 -0.7874
  282MOL0     H37221   1.541   9.170   8.472 -0.8922 -2.3455 -1.2383
  282MOL0     H37222   1.255   8.871   8.579  0.1247  0.8449 -1.3034
  282MOL0     H37223   0.848   9.364   8.740  1.0541 -2.5331 -1.0814
  282MOL0     H37224   0.645   9.416   8.618  0.6714 -1.7049  0.8638
  283MOL0     O37225  10.695   1.731   1.640  0.1070  0.4309 -0.4484
  283MOL0     C37226  10.656   1.618   1.648 -0.3251  0.5815  0.3379
  283MOL0     O37227  10.538   1.577   1.671  0.8288 -0.2062  0.2809
  283MOL0     C37228  10.422   1.637   1.722  0.3806 -0.1160 -0.5425
  283MOL0     C37229  10.322   1.563   1.778  0.5041  0.4888  0.1795
  283MOL0     C37230  10.202   1.615   1.827  0.2324 -0.0118 -0.0024
  283MOL0     C37231  10.185   1.752   1.818  0.0451  0.4404 -0.5734
  283MOL0     O37232  10.078   1.805   1.874 -0.2112 -0.4852  0.2406
  283MOL0     C37233  10.083   1.794   2.015  0.3580  0.5175 -0.5444
  283MOL0     C37234   9.962   1.879   2.059  0.2489  0.2372  0.4856
  283MOL0     C37235   9.923   1.862   2.209  0.1114 -0.3791  0.0808
  283MOL0     C37236   9.784   1.914   2.222 -0.0198 -0.9823  0.0695
  283MOL0     C37237   9.731   1.890   2.360  0.2977 -0.4189  1.0135
  283MOL0     C37238   9.701   1.743   2.399 -0.1390 -0.7847 -0.5800
  283MOL0     C37239   9.667   1.729   2.542  0.2843  0.0272 -0.4292
  283MOL0     C37240   9.630   1.582   2.572  0.1431  0.1698  0.2742
  283MOL0     N37241   9.516   1.534   2.485 -0.4672  0.4307  0.8508
  283MOL0     C37242   9.386   1.587   2.482 -0.2889  0.1395  0.3286
  283MOL0     C37243   9.332   1.509   2.388 -0.2720 -0.3199  0.3821
  283MOL0     C37244   9.189   1.512   2.355  0.5233 -0.7550  0.7101
  283MOL0     C37245   9.095   1.553   2.471 -0.3085  0.5455 -0.8529
  283MOL0     C37246   8.947   1.549   2.431  0.1603  0.9119 -0.3259
  283MOL0     C37247   8.862   1.573   2.559 -0.2445  0.3019  0.0974
  283MOL0     O37248   8.738   1.627   2.510 -0.0186 -0.6680  0.0471
  283MOL0     C37249   8.617   1.580   2.566  0.4701  0.0038  0.1899
  283MOL0     C37250   8.499   1.622   2.507  0.8390 -0.3911  0.3133
  283MOL0     C37251   8.369   1.606   2.560 -0.2528 -0.3928  0.4838
  283MOL0     C37252   8.362   1.546   2.697  0.0542 -0.3711  0.6198
  283MOL0     C37253   8.235   1.520   2.770 -0.3124 -0.5299 -0.9572
  283MOL0     O37254   8.125   1.554   2.691  0.6439  0.5149  0.2048
  283MOL0     C37255   8.014   1.581   2.759  0.1303 -0.1928 -0.4120
  283MOL0     C37256   7.907   1.491   2.755  0.2082  0.1904 -0.2952
  283MOL0     C37257   7.783   1.528   2.814  0.7013 -0.6493 -0.4624
  283MOL0     C37258   7.765   1.659   2.872 -0.3834  0.3033 -0.8302
  283MOL0     O37259   7.654   1.700   2.926  0.2278 -0.3429  0.8157
  283MOL0     C37260   7.534   1.696   2.844 -0.6203  1.0094  0.1943
  283MOL0     C37261   7.421   1.735   2.939  0.2308 -0.3263 -0.7579
  283MOL0     C37262   7.290   1.668   2.897 -0.8515 -0.5296  0.4848
  283MOL0     C37263   7.170   1.730   2.964  0.2450 -0.1085  0.6812
  283MOL0     C37264   7.050   1.649   2.930 -0.3966 -0.4948  0.2602
  283MOL0     C37265   6.931   1.673   3.023  1.2898  0.2065  0.3568
  283MOL0     C37266   6.866   1.813   3.011 -0.4505 -0.4385  0.3847
  283MOL0     C37267   6.746   1.834   3.099 -1.0663  0.0897  0.5330
  283MOL0    Cl37268   6.650   1.976   3.048 -0.1146 -0.7777 -0.4158
  283MOL0     C37269   7.871   1.750   2.867  0.3541 -0.1939  0.2418
  283MOL0     C37270   8.005   1.714   2.814  0.2235  0.3680 -0.2664
  283MOL0     O37271   8.231   1.478   2.891  1.0216  0.1701  0.5151
  283MOL0     C37272   8.477   1.488   2.750 -0.3287  1.1073  0.3907
  283MOL0     C37273   8.607   1.507   2.692 -0.0716 -0.4278 -0.1961
  283MOL0     N37274   9.416   1.411   2.339 -0.8335 -0.1583 -0.3441
  283MOL0     N37275   9.525   1.429   2.401  0.4313  0.4961 -0.2335
  283MOL0     C37276  10.284   1.832   1.758  0.7678  0.5250  0.3442
  283MOL0     C37277  10.397   1.774   1.712  0.7063  0.7391 -0.1921
  283MOL0     C37278  10.756   1.514   1.615 -0.0193 -0.9115 -0.0487
  283MOL0     C37279  10.894   1.549   1.630  0.0906 -0.1744  0.5380
  283MOL0     C37280  10.996   1.468   1.578 -0.5822 -1.3586 -0.3931
  283MOL0     C37281  10.973   1.336   1.540 -0.4535  0.8256 -0.0152
  283MOL0     O37282  11.084   1.255   1.526  0.1271 -0.0994 -0.2652
  283MOL0     C37283  11.078   1.119   1.517 -0.6786  0.9513  0.2654
  283MOL0     C37284  11.210   1.047   1.572 -0.1315  0.0546 -0.5811
  283MOL0     C37285  11.218   0.892   1.548 -0.5393 -0.2992  0.4852
  283MOL0     C37286  11.355   0.827   1.579  0.5662  0.2294 -0.2490
  283MOL0     C37287  11.417   0.871   1.708  0.8082 -0.1773 -1.0910
  283MOL0     C37288  11.453   0.926   1.812 -0.5746 -0.6802  0.3316
  283MOL0     C37289  10.841   1.295   1.531  0.4716 -0.3071 -0.0089
  283MOL0     C37290  10.729   1.380   1.560  0.3446  0.0656  0.5074
  283MOL0     H37291  10.329   1.455   1.779 -0.0095  0.1971 -4.6790
  283MOL0     H37292  10.119   1.551   1.856 -1.5628  0.4090 -3.7135
  283MOL0     H37293  10.174   1.833   2.061 -0.1954  0.6699  0.4379
  283MOL0     H37294  10.069   1.693   2.056 -0.0920  1.4994  1.8819
  283MOL0     H37295   9.875   1.851   1.999 -0.2079  0.2218  1.1474
  283MOL0     H37296   9.981   1.984   2.035  0.8415 -0.2255 -1.2532
  283MOL0     H37297   9.984   1.927   2.272  0.6777 -1.1459  0.3407
  283MOL0     H37298   9.938   1.759   2.243  0.5381 -0.7361 -1.1325
  283MOL0     H37299   9.785   2.022   2.209 -3.0083 -0.5389  2.3599
  283MOL0     H37300   9.719   1.859   2.153  0.2802 -3.4692  1.6566
  283MOL0     H37301   9.635   1.943   2.364  1.2996  1.6195 -0.1030
  283MOL0     H37302   9.799   1.941   2.429  1.1821 -1.5344  0.9988
  283MOL0     H37303   9.777   1.669   2.372 -1.4898 -1.8430 -1.6038
  283MOL0     H37304   9.613   1.716   2.340 -0.5841 -2.2363  0.6722
  283MOL0     H37305   9.748   1.758   2.608  1.1210 -1.1479 -0.9109
  283MOL0     H37306   9.582   1.792   2.570  1.5544  1.2773  0.7077
  283MOL0     H37307   9.596   1.581   2.676  2.3421 -0.7807  1.0517
  283MOL0     H37308   9.717   1.515   2.569  1.2874  1.2787  3.6844
  283MOL0     H37309   9.345   1.670   2.538  1.8037  2.1621 -0.9427
  283MOL0     H37310   9.165   1.409   2.326  1.9923 -1.0826  0.6050
  283MOL0     H37311   9.170   1.577   2.269  2.7135 -2.5000 -1.2180
  283MOL0     H37312   9.108   1.658   2.499  1.8875  0.3226 -0.8189
  283MOL0     H37313   9.122   1.478   2.546 -0.1346  1.0327 -0.4241
  283MOL0     H37314   8.923   1.627   2.358  0.3607 -0.0760 -1.4860
  283MOL0     H37315   8.924   1.449   2.392 -1.3487  0.3722  1.7408
  283MOL0     H37316   8.922   1.643   2.616 -0.2001  0.8657 -0.6320
  283MOL0     H37317   8.863   1.478   2.614  1.1971 -0.4425 -1.1491
  283MOL0     H37318   8.499   1.671   2.409 -0.2753 -1.1886 -0.1100
  283MOL0     H37319   8.281   1.652   2.516  0.2145  1.5750  1.4815
  283MOL0     H37320   7.914   1.393   2.709 -0.3060 -0.2836  0.6186
  283MOL0     H37321   7.702   1.456   2.822  0.4389 -0.2869  0.3282
  283MOL0     H37322   7.515   1.593   2.811 -0.5361  0.8407  0.6530
  283MOL0     H37323   7.551   1.760   2.757  2.6131  0.9015  0.6055
  283MOL0     H37324   7.407   1.843   2.953  1.2833 -0.2759  0.0210
  283MOL0     H37325   7.448   1.701   3.039 -0.6715  3.6091  0.9956
  283MOL0     H37326   7.305   1.562   2.922  3.8894  0.2323  1.7825
  283MOL0     H37327   7.288   1.673   2.788  0.2362 -0.9579  0.4367
  283MOL0     H37328   7.190   1.745   3.070  4.6407  0.4069 -0.0271
  283MOL0     H37329   7.164   1.834   2.929 -1.1098 -1.1130 -2.4395
  283MOL0     H37330   7.074   1.542   2.930  1.7448 -0.0795 -0.3552
  283MOL0     H37331   7.016   1.671   2.828 -0.7703 -0.0150  0.4853
  283MOL0     H37332   6.946   1.650   3.129 -1.1549 -1.4247  0.4269
  283MOL0     H37333   6.862   1.596   2.988 -1.3865  2.4977  0.2642
  283MOL0     H37334   6.941   1.888   3.036 -1.3789 -0.6067  4.2955
  283MOL0     H37335   6.841   1.837   2.907  1.4554 -1.1475 -0.2968
  283MOL0     H37336   6.768   1.849   3.205  0.3613 -2.1469  0.6202
  283MOL0     H37337   6.680   1.747   3.102 -1.7714  0.5779 -0.3449
  283MOL0     H37338   7.851   1.855   2.885 -1.7113 -0.3983 -0.6198
  283MOL0     H37339   8.096   1.772   2.807  0.8971 -0.3322  1.9575
  283MOL0     H37340   8.478   1.426   2.839 -1.1138 -0.1610 -0.4365
  283MOL0     H37341   8.682   1.461   2.756  0.4573 -0.3335 -0.7387
  283MOL0     H37342  10.275   1.940   1.743 -1.3636 -0.0545 -4.1389
  283MOL0     H37343  10.473   1.836   1.664 -0.7907  0.4785 -3.1254
  283MOL0     H37344  10.919   1.645   1.673 -2.8095 -0.3096  2.8577
  283MOL0     H37345  11.093   1.516   1.588  0.2402 -2.8519 -0.7389
  283MOL0     H37346  11.053   1.079   1.419  0.4706 -2.4478  1.2065
  283MOL0     H37347  10.994   1.087   1.580 -1.0957 -1.5955 -1.4617
  283MOL0     H37348  11.299   1.095   1.531 -0.0632  1.3630  1.0043
  283MOL0     H37349  11.201   1.053   1.681  1.6491 -0.2090 -0.3977
  283MOL0     H37350  11.195   0.861   1.446  0.6450 -1.2795  0.4964
  283MOL0     H37351  11.145   0.841   1.611  2.1484 -1.0562  3.2115
  283MOL0     H37352  11.337   0.719   1.584 -0.2394  0.0481 -4.1766
  283MOL0     H37353  11.417   0.849   1.492 -0.2035  0.4366 -0.7495
  283MOL0     H37354  11.489   0.970   1.903 -0.9675  1.4877 -0.5049
  283MOL0     H37355  10.812   1.196   1.498 -2.4980  0.6006 -0.3653
  283MOL0     H37356  10.624   1.356   1.552 -0.1580  1.7281  1.5890
  284MOL0     O37357   4.178   0.721  10.841  0.3007 -0.4476 -0.0407
  284MOL0     C37358   4.230   0.705  10.954 -0.7566  0.2252  0.3468
  284MOL0     O37359   4.167   0.684  11.074  0.8228 -0.4714  0.4506
  284MOL0     C37360   4.049   0.615  11.057 -0.1380  0.3061  0.0034
  284MOL0     C37361   4.030   0.486  11.096  0.1241 -0.1277  0.0953
  284MOL0     C37362   3.911   0.417  11.087  0.6278 -0.3020  0.1121
  284MOL0     C37363   3.797   0.483  11.036  0.0051  0.7680 -0.3843
  284MOL0     O37364   3.679   0.414  11.021  0.1450  1.3247  0.0643
  284MOL0     C37365   3.619   0.367  11.145 -0.6084  0.8997  0.0832
  284MOL0     C37366   3.468   0.321  11.129  0.2955 -0.1133  0.1135
  284MOL0     C37367   3.448   0.184  11.076  0.1092  0.9088 -0.7586
  284MOL0     C37368   3.303   0.158  11.087  0.6645 -0.9061 -0.3958
  284MOL0     C37369   3.268   0.022  11.032 -0.1620 -0.0881  0.2350
  284MOL0     C37370   3.124  -0.019  11.065  1.1110  0.2330  0.3518
  284MOL0     C37371   3.097  -0.161  11.025  0.6783  0.5468  0.5357
  284MOL0     C37372   2.941  -0.201  11.033  0.0427  0.3070  0.1443
  284MOL0     N37373   2.868  -0.169  10.910  0.1625 -0.1787  1.0171
  284MOL0     C37374   2.753  -0.093  10.914 -0.8995  0.5301 -0.1994
  284MOL0     C37375   2.687  -0.127  10.807 -0.8623  0.2780  0.2135
  284MOL0     C37376   2.556  -0.063  10.779  0.2242  0.4070 -0.2055
  284MOL0     C37377   2.440  -0.091  10.879  0.5607  0.4095  0.1522
  284MOL0     C37378   2.328  -0.005  10.845  0.9869  0.5691  0.5450
  284MOL0     C37379   2.195  -0.072  10.880  0.0064  0.9018 -0.4301
  284MOL0     O37380   2.168  -0.050  11.015  0.5975 -0.1134  0.3453
  284MOL0     C37381   2.091  -0.141  11.078  0.0781  0.3724 -0.0611
  284MOL0     C37382   1.972  -0.189  11.011  0.7695 -0.0292 -0.4758
  284MOL0     C37383   1.879  -0.257  11.083 -0.0124  0.1478  0.1859
  284MOL0     C37384   1.900  -0.299  11.215  0.3761  0.9418 -0.1515
  284MOL0     C37385   1.791  -0.372  11.299  0.7647 -0.8103  0.4435
  284MOL0     O37386   1.836  -0.462  11.395  0.2700 -0.2648 -0.0888
  284MOL0     C37387   1.739  -0.507  11.479 -0.6770  0.6453  0.5634
  284MOL0     C37388   1.708  -0.643  11.483  0.1161  0.8852  0.2267
  284MOL0     C37389   1.603  -0.696  11.558 -1.5774 -0.8641 -0.3845
  284MOL0     C37390   1.539  -0.611  11.655  0.8131  0.0614  0.9599
  284MOL0     O37391   1.440  -0.654  11.740 -0.7951  0.0198 -0.6472
  284MOL0     C37392   1.399  -0.789  11.721  0.1761  0.1114  0.3629
  284MOL0     C37393   1.316  -0.835  11.838 -0.1104  0.2270 -0.4106
  284MOL0     C37394   1.206  -0.736  11.881 -0.6403 -0.8308  0.6434
  284MOL0     C37395   1.105  -0.809  11.959 -0.9508 -0.7551  0.2445
  284MOL0     C37396   0.978  -0.720  11.992  0.4122 -0.6208 -0.0082
  284MOL0     C37397   1.006  -0.603  12.090 -0.6865  0.2825 -0.7349
  284MOL0     C37398   1.038  -0.645  12.241  1.7853  0.4053 -0.0946
  284MOL0     C37399   0.920  -0.718  12.301 -0.7556  0.2671  0.6482
  284MOL0    Cl37400   0.760  -0.631  12.315  0.0616  0.2742  0.1540
  284MOL0     C37401   1.569  -0.474  11.648 -0.3428  0.8319 -0.6273
  284MOL0     C37402   1.670  -0.424  11.576 -0.1372  0.3615 -0.3938
  284MOL0     O37403   1.675  -0.347  11.278  0.1755 -0.5822 -0.5507
  284MOL0     C37404   2.014  -0.256  11.284  0.2581 -0.4492  0.4158
  284MOL0     C37405   2.110  -0.181  11.209  0.6334  0.5098 -0.2244
  284MOL0     N37406   2.761  -0.221  10.733 -0.1047 -0.8947  0.3612
  284MOL0     N37407   2.872  -0.249  10.800  0.3911 -0.1658 -0.1202
  284MOL0     C37408   3.816   0.614  10.986 -0.2903  0.3865 -0.1936
  284MOL0     C37409   3.942   0.683  11.003  0.3912  0.0428  0.4094
  284MOL0     C37410   4.381   0.703  10.943 -1.0011  0.5299 -0.3817
  284MOL0     C37411   4.454   0.746  10.834 -0.4716 -0.1585 -0.8003
  284MOL0     C37412   4.589   0.757  10.823 -0.4599 -0.2799 -0.4522
  284MOL0     C37413   4.671   0.721  10.933  0.2731  0.4622  0.8307
  284MOL0     O37414   4.803   0.739  10.933 -0.2014 -0.3189  0.3877
  284MOL0     C37415   4.836   0.860  11.004  0.2999 -0.1466  0.3605
  284MOL0     C37416   4.979   0.913  10.966  0.3529  0.1082 -0.1527
  284MOL0     C37417   5.084   0.830  11.027 -0.6075 -0.8350 -0.0408
  284MOL0     C37418   5.213   0.913  10.997 -0.0460  0.5359 -0.3932
  284MOL0     C37419   5.336   0.840  11.013 -0.4461 -0.3712  0.0322
  284MOL0     C37420   5.430   0.770  11.007 -0.3667 -0.4667  0.3874
  284MOL0     C37421   4.600   0.667  11.043  0.5170 -0.0010  0.5125
  284MOL0     C37422   4.458   0.666  11.052  0.3255 -0.3753 -0.1609
  284MOL0     H37423   4.117   0.434  11.134  0.7081  1.4466  1.0429
  284MOL0     H37424   3.885   0.316  11.116  1.8653 -0.6618  0.0282
  284MOL0     H37425   3.624   0.444  11.223  2.2585 -1.5381  2.5672
  284MOL0     H37426   3.671   0.283  11.192  0.4125  1.0119 -0.8118
  284MOL0     H37427   3.412   0.394  11.071  1.3483 -0.3155 -1.1854
  284MOL0     H37428   3.427   0.337  11.229  1.8775  2.1133  0.4848
  284MOL0     H37429   3.500   0.102  11.127 -1.1096 -0.4083 -1.5486
  284MOL0     H37430   3.480   0.179  10.972 -0.7916  0.4400 -1.0329
  284MOL0     H37431   3.271   0.167  11.191 -1.2390  0.4766 -1.0263
  284MOL0     H37432   3.246   0.238  11.038  0.2879 -0.9690 -0.0625
  284MOL0     H37433   3.335  -0.059  11.063 -0.8605 -0.6808  0.2283
  284MOL0     H37434   3.280   0.020  10.923  0.4662 -2.4656  0.2874
  284MOL0     H37435   3.062   0.053  11.011  2.2837 -0.8089 -2.6069
  284MOL0     H37436   3.114  -0.011  11.173 -1.0472 -5.6861  0.9448
  284MOL0     H37437   3.134  -0.176  10.923  1.2358 -1.7582  1.0323
  284MOL0     H37438   3.149  -0.232  11.089  1.5775  0.4762 -0.2505
  284MOL0     H37439   2.890  -0.168  11.124 -1.9948  2.5472 -1.6781
  284MOL0     H37440   2.940  -0.308  11.056 -0.7738  0.5818  1.5075
  284MOL0     H37441   2.741  -0.020  10.994  1.6436 -1.3184  2.0735
  284MOL0     H37442   2.521  -0.099  10.682  1.0129 -2.4081  0.4534
  284MOL0     H37443   2.585   0.042  10.786  2.0168 -0.0568 -0.1672
  284MOL0     H37444   2.482  -0.069  10.978  1.7294 -2.9795  0.5175
  284MOL0     H37445   2.417  -0.197  10.873  2.2441  0.0407 -0.2245
  284MOL0     H37446   2.339   0.085  10.906  0.0848  0.5985  0.6698
  284MOL0     H37447   2.328   0.014  10.738 -2.0398  1.3698  0.5951
  284MOL0     H37448   2.207  -0.179  10.860  1.7693  1.0768 -0.4663
  284MOL0     H37449   2.115  -0.035  10.815 -0.9480 -2.1003 -1.1225
  284MOL0     H37450   1.950  -0.168  10.907 -2.7770 -2.9159 -0.4872
  284MOL0     H37451   1.779  -0.279  11.046 -0.1217  2.9609 -1.4310
  284MOL0     H37452   1.761  -0.711  11.417 -0.9116  0.9292 -0.6804
  284MOL0     H37453   1.595  -0.804  11.555  1.2561 -1.2216  1.2043
  284MOL0     H37454   1.481  -0.861  11.736 -1.0317 -0.7408  3.7990
  284MOL0     H37455   1.351  -0.801  11.624 -1.0305 -1.6499  1.1379
  284MOL0     H37456   1.379  -0.847  11.926 -0.8008  0.3888  0.1213
  284MOL0     H37457   1.271  -0.930  11.808 -0.1879  0.3600 -0.7129
  284MOL0     H37458   1.158  -0.687  11.796  1.0266 -3.3055 -1.9553
  284MOL0     H37459   1.234  -0.651  11.943 -0.5355 -0.4313  0.0559
  284MOL0     H37460   1.069  -0.901  11.913 -0.6545  0.1447 -1.8977
  284MOL0     H37461   1.161  -0.838  12.048  2.4464 -0.0382 -1.4675
  284MOL0     H37462   0.893  -0.784  12.017  1.0588 -0.2494  3.6372
  284MOL0     H37463   0.947  -0.671  11.899 -1.0830  2.1189  1.8015
  284MOL0     H37464   0.918  -0.538  12.096  0.5947  2.0357 -0.2716
  284MOL0     H37465   1.078  -0.528  12.057  2.0113 -1.5750  0.5500
  284MOL0     H37466   1.135  -0.693  12.257  2.2515  2.0226  2.5532
  284MOL0     H37467   1.050  -0.547  12.288  0.5470  0.9618 -0.8833
  284MOL0     H37468   0.953  -0.758  12.398  0.6974  4.2500  1.9933
  284MOL0     H37469   0.908  -0.808  12.239  3.2049  0.2611 -0.4044
  284MOL0     H37470   1.509  -0.411  11.713  1.3758  1.4691  0.4241
  284MOL0     H37471   1.689  -0.318  11.568 -1.3009  0.5300 -1.1424
  284MOL0     H37472   2.038  -0.269  11.389  0.6192  0.0691  0.4018
  284MOL0     H37473   2.204  -0.170  11.262  0.5332 -3.1616  0.9882
  284MOL0     H37474   3.736   0.672  10.942  0.3514  0.9784 -0.6112
  284MOL0     H37475   3.951   0.782  10.959  0.0573 -1.0161 -2.2517
  284MOL0     H37476   4.400   0.775  10.745  1.6836 -1.7783 -2.7666
  284MOL0     H37477   4.642   0.789  10.734 -1.4448 -0.4446 -1.1068
  284MOL0     H37478   4.818   0.856  11.112 -3.1978  0.5258 -0.0681
  284MOL0     H37479   4.768   0.941  10.975 -0.3309 -0.8898 -0.2535
  284MOL0     H37480   5.001   0.909  10.859 -1.5016 -4.1417 -0.5634
  284MOL0     H37481   4.988   1.019  10.991  1.2531  0.2578 -1.0251
  284MOL0     H37482   5.081   0.732  10.979 -0.4949 -0.2814 -1.2035
  284MOL0     H37483   5.073   0.824  11.136  1.1450  0.1043  0.2211
  284MOL0     H37484   5.202   0.942  10.893  1.4010  2.6452 -0.0231
  284MOL0     H37485   5.215   1.003  11.059 -2.4716 -1.0652  2.2992
  284MOL0     H37486   5.507   0.696  11.011 -0.5778 -0.7210 -0.1754
  284MOL0     H37487   4.656   0.653  11.135  1.4977 -0.5864 -0.1517
  284MOL0     H37488   4.414   0.632  11.145  0.8800 -0.4419  0.0815
  285MOL0     O37489   1.009   5.268   2.262 -0.0025  0.8763 -0.3151
  285MOL0     C37490   1.112   5.283   2.329  0.4545  0.6617 -0.7570
  285MOL0     O37491   1.113   5.295   2.470 -0.2140 -0.7860  0.3782
  285MOL0     C37492   1.005   5.309   2.554 -1.0021  0.7821 -0.0815
  285MOL0     C37493   1.032   5.305   2.689 -0.5021 -0.2157  0.1521
  285MOL0     C37494   0.931   5.312   2.787 -0.1035  0.0512 -0.1709
  285MOL0     C37495   0.794   5.317   2.748  0.0834 -0.2798 -0.7364
  285MOL0     O37496   0.702   5.314   2.854 -0.3883  0.6088 -0.8466
  285MOL0     C37497   0.570   5.360   2.856 -0.1728 -0.0189 -0.9878
  285MOL0     C37498   0.464   5.249   2.879 -0.1260  0.1872  0.6205
  285MOL0     C37499   0.328   5.309   2.910  0.1944  0.2530  0.0305
  285MOL0     C37500   0.239   5.199   2.944  0.7245 -0.9803  0.2693
  285MOL0     C37501   0.089   5.245   2.939 -0.0542 -0.3267 -0.0374
  285MOL0     C37502  -0.003   5.131   3.001 -1.0821 -0.5352 -0.2626
  285MOL0     C37503  -0.150   5.160   3.009  1.4227 -0.0294  0.2686
  285MOL0     C37504  -0.216   5.071   3.114  0.5342 -0.1511 -0.2701
  285MOL0     N37505  -0.359   5.110   3.127 -0.1379 -0.2322 -1.0580
  285MOL0     C37506  -0.410   5.205   3.216 -0.1875  0.0130  0.5702
  285MOL0     C37507  -0.528   5.238   3.172  0.1679  0.3535 -0.2003
  285MOL0     C37508  -0.615   5.341   3.244  0.3950 -0.8600  0.6496
  285MOL0     C37509  -0.759   5.340   3.202  0.2371 -0.6189  0.6462
  285MOL0     C37510  -0.844   5.431   3.287  0.3258  0.7220 -0.3004
  285MOL0     C37511  -0.992   5.443   3.246 -0.4499 -0.8364 -0.0478
  285MOL0     O37512  -1.054   5.317   3.211 -0.3631 -0.5170  0.7218
  285MOL0     C37513  -1.173   5.335   3.141 -0.4908  1.1226 -0.9625
  285MOL0     C37514  -1.251   5.449   3.134 -0.0721 -0.0860 -0.5579
  285MOL0     C37515  -1.365   5.451   3.050  0.3713 -0.0405  0.1460
  285MOL0     C37516  -1.392   5.347   2.966  0.0118  0.0209 -0.5647
  285MOL0     C37517  -1.514   5.348   2.874  0.3399  0.5321 -0.0885
  285MOL0     O37518  -1.515   5.264   2.764  0.2702 -0.1122 -0.2846
  285MOL0     C37519  -1.628   5.264   2.688  0.3168 -1.3625  0.2708
  285MOL0     C37520  -1.625   5.266   2.550 -0.1610  0.4752 -0.3848
  285MOL0     C37521  -1.743   5.260   2.474 -0.1093 -0.7572  0.0872
  285MOL0     C37522  -1.868   5.249   2.535  0.2470  0.1017 -0.9417
  285MOL0     O37523  -1.984   5.264   2.459  0.1998 -1.0992 -0.3058
  285MOL0     C37524  -2.103   5.201   2.513  0.7137  0.7488  0.2211
  285MOL0     C37525  -2.209   5.171   2.408  0.4891 -0.7028  0.1319
  285MOL0     C37526  -2.285   5.301   2.364  0.1850 -0.3705  0.0040
  285MOL0     C37527  -2.421   5.259   2.307 -0.4421 -0.0931 -0.0069
  285MOL0     C37528  -2.509   5.377   2.263  0.5067  0.3719 -0.7941
  285MOL0     C37529  -2.538   5.357   2.121 -0.1003 -0.5935 -0.0536
  285MOL0     C37530  -2.668   5.425   2.076  0.3528 -0.0351 -0.1926
  285MOL0     C37531  -2.682   5.580   2.104 -0.1198 -0.1060 -0.4704
  285MOL0    Cl37532  -2.828   5.648   2.036 -0.5698  0.4735 -0.1287
  285MOL0     C37533  -1.872   5.239   2.675 -0.2765 -0.4490 -0.0705
  285MOL0     C37534  -1.754   5.248   2.753  0.9216  0.2798  0.2916
  285MOL0     O37535  -1.605   5.418   2.915  0.7402 -0.0730 -0.0056
  285MOL0     C37536  -1.316   5.236   2.971 -0.3742 -1.5124  0.7933
  285MOL0     C37537  -1.214   5.224   3.064  0.0261 -0.3019 -0.6702
  285MOL0     N37538  -0.563   5.141   3.074 -0.0783 -0.7589  0.2581
  285MOL0     N37539  -0.454   5.078   3.035  0.5405  0.4554 -0.7381
  285MOL0     C37540   0.768   5.324   2.610 -0.0627 -0.7235 -0.2322
  285MOL0     C37541   0.871   5.326   2.511 -0.5581  0.3392  0.0529
  285MOL0     C37542   1.244   5.288   2.268 -0.1074 -0.3251  0.5490
  285MOL0     C37543   1.358   5.293   2.348 -1.0459  0.4871 -0.3277
  285MOL0     C37544   1.486   5.271   2.298  0.2218 -0.1204 -0.1832
  285MOL0     C37545   1.505   5.260   2.160 -0.0063 -0.1836  0.7853
  285MOL0     O37546   1.640   5.248   2.110 -0.2256 -0.3887  0.0797
  285MOL0     C37547   1.666   5.259   1.970 -0.5894 -0.1959 -0.4691
  285MOL0     C37548   1.821   5.260   1.971 -0.1744  0.4665  0.3026
  285MOL0     C37549   1.869   5.105   1.966  0.4748 -0.7875 -0.4727
  285MOL0     C37550   1.999   5.095   1.877  0.7024 -0.1217 -1.0548
  285MOL0     C37551   2.118   5.120   1.958  0.3997  0.1155 -0.3007
  285MOL0     C37552   2.223   5.149   2.001 -0.4997 -0.2892  0.5980
  285MOL0     C37553   1.394   5.267   2.074 -0.6720  0.4054 -0.9971
  285MOL0     C37554   1.263   5.280   2.130  0.5285 -0.2178 -0.3163
  285MOL0     H37555   1.132   5.296   2.730  0.4201 -2.7729 -2.2970
  285MOL0     H37556   0.964   5.303   2.890 -1.9669  0.1621  0.4743
  285MOL0     H37557   0.543   5.417   2.766 -1.1997  0.5894 -0.3141
  285MOL0     H37558   0.560   5.423   2.945 -3.3139 -0.2511 -1.0782
  285MOL0     H37559   0.504   5.182   2.956  3.0243  2.3692  1.1004
  285MOL0     H37560   0.452   5.194   2.785  0.7526 -1.9067  1.6680
  285MOL0     H37561   0.291   5.362   2.822  1.3587 -2.4497 -2.2450
  285MOL0     H37562   0.324   5.375   2.997 -1.4427 -2.5040  2.2662
  285MOL0     H37563   0.253   5.116   2.874  2.2569  0.7832 -1.6392
  285MOL0     H37564   0.272   5.166   3.043  1.3707 -2.4799 -0.4142
  285MOL0     H37565   0.055   5.263   2.836 -0.5135  0.3542  0.2266
  285MOL0     H37566   0.077   5.341   2.990 -1.4774 -0.9386  0.8505
  285MOL0     H37567   0.036   5.110   3.101  1.8150  0.9845 -0.9702
  285MOL0     H37568   0.013   5.041   2.940  1.4055  0.7677 -1.6752
  285MOL0     H37569  -0.165   5.263   3.044 -0.4626 -0.2299  0.1468
  285MOL0     H37570  -0.207   5.151   2.916 -1.9133  0.5327  2.0797
  285MOL0     H37571  -0.169   5.081   3.213 -0.0800  3.0704 -0.1874
  285MOL0     H37572  -0.214   4.970   3.072  0.4410  0.9226 -3.0661
  285MOL0     H37573  -0.365   5.254   3.303  0.8255 -1.8267  1.1428
  285MOL0     H37574  -0.584   5.442   3.218  0.4129 -0.8744  0.6153
  285MOL0     H37575  -0.614   5.332   3.353 -0.5346  2.0814  0.9858
  285MOL0     H37576  -0.787   5.235   3.199  1.9205 -1.1120  0.9372
  285MOL0     H37577  -0.770   5.365   3.096 -1.7504 -0.9366  0.7541
  285MOL0     H37578  -0.840   5.403   3.392  2.6272 -0.5153 -0.6472
  285MOL0     H37579  -0.802   5.531   3.270  1.1074  0.1597 -1.9359
  285MOL0     H37580  -0.990   5.503   3.155  3.6515  0.2379  0.5637
  285MOL0     H37581  -1.043   5.488   3.332  0.0362  3.2000 -1.6681
  285MOL0     H37582  -1.216   5.540   3.183 -0.3217 -0.5775  0.5531
  285MOL0     H37583  -1.423   5.543   3.054 -2.0696 -1.3375 -2.4007
  285MOL0     H37584  -1.532   5.277   2.495 -0.4676  1.0710 -0.7955
  285MOL0     H37585  -1.737   5.275   2.367  2.3985  0.0003  0.2794
  285MOL0     H37586  -2.152   5.269   2.584  0.4140  0.4601  0.2955
  285MOL0     H37587  -2.067   5.110   2.562  1.3587 -1.5267 -3.9724
  285MOL0     H37588  -2.285   5.110   2.458  1.1661 -1.7191 -0.0395
  285MOL0     H37589  -2.167   5.109   2.328  0.9046  1.7401 -1.6403
  285MOL0     H37590  -2.235   5.354   2.282 -0.1731 -1.2512 -0.7973
  285MOL0     H37591  -2.301   5.363   2.453  1.0322 -0.3101  0.1237
  285MOL0     H37592  -2.398   5.201   2.217 -1.0308  2.0545 -1.6292
  285MOL0     H37593  -2.478   5.194   2.373 -0.6891  2.0063  1.9533
  285MOL0     H37594  -2.464   5.476   2.275 -0.5320  1.1848 -3.0403
  285MOL0     H37595  -2.601   5.376   2.322  1.4468 -0.2521  0.7331
  285MOL0     H37596  -2.548   5.250   2.101 -1.9326 -0.6622  1.0295
  285MOL0     H37597  -2.455   5.400   2.064  0.2289 -2.1276 -0.7876
  285MOL0     H37598  -2.668   5.420   1.967 -2.2261 -1.5416 -0.1959
  285MOL0     H37599  -2.762   5.390   2.118 -1.5368  2.4076 -2.0903
  285MOL0     H37600  -2.586   5.623   2.072  1.2190 -1.1354  1.9057
  285MOL0     H37601  -2.677   5.584   2.213  2.3815  0.2728 -0.5324
  285MOL0     H37602  -1.962   5.225   2.734 -0.8518 -1.5967 -1.1567
  285MOL0     H37603  -1.764   5.240   2.861 -2.0009 -0.4861  0.0496
  285MOL0     H37604  -1.327   5.162   2.893 -1.5624  0.0446 -0.5762
  285MOL0     H37605  -1.154   5.135   3.080 -0.2890 -0.0151  2.6945
  285MOL0     H37606   0.666   5.318   2.575 -0.1940 -0.4846  0.1162
  285MOL0     H37607   0.841   5.334   2.407 -2.6453  2.9933  0.7376
  285MOL0     H37608   1.348   5.313   2.455 -1.9870  1.6375 -0.6130
  285MOL0     H37609   1.575   5.268   2.360 -1.5714  1.7168  2.7337
  285MOL0     H37610   1.627   5.360   1.952  1.1082  1.0251  2.1605
  285MOL0     H37611   1.607   5.191   1.908 -2.5991 -0.8232  1.9779
  285MOL0     H37612   1.854   5.310   1.879  2.2125  0.0899  0.8798
  285MOL0     H37613   1.862   5.327   2.046 -1.7630  1.9612 -0.1071
  285MOL0     H37614   1.787   5.048   1.920 -1.5344 -1.4694  3.4961
  285MOL0     H37615   1.885   5.056   2.062 -0.4594  0.8589  0.5741
  285MOL0     H37616   1.995   4.996   1.829  2.6481 -1.2915  0.9971
  285MOL0     H37617   1.995   5.163   1.792 -1.1843  0.5760 -0.4606
  285MOL0     H37618   2.313   5.188   2.045 -2.1590 -1.1889  5.3199
  285MOL0     H37619   1.407   5.254   1.967 -1.5199  1.4967 -1.2445
  285MOL0     H37620   1.178   5.299   2.065  0.0526  0.0809  0.3851
  286MOL0     O37621   5.399   6.018  10.952 -0.4034  0.7214  0.5081
  286MOL0     C37622   5.408   6.079  11.058  0.2659 -1.0801  0.4177
  286MOL0     O37623   5.304   6.088  11.153 -0.0376 -0.0316  0.2861
  286MOL0     C37624   5.181   6.034  11.135  0.6591 -0.5892 -0.5006
  286MOL0     C37625   5.139   5.945  11.030  0.8468 -0.5822  1.0685
  286MOL0     C37626   5.000   5.901  11.037  0.0499 -0.7659  0.4134
  286MOL0     C37627   4.909   5.912  11.142  0.4175 -0.6583 -0.7694
  286MOL0     O37628   4.789   5.848  11.134  0.4913 -0.8709  0.5578
  286MOL0     C37629   4.697   5.843  11.238 -1.3434  0.6309  0.2529
  286MOL0     C37630   4.581   5.781  11.169  0.4943  0.0198  0.2775
  286MOL0     C37631   4.590   5.637  11.124 -0.1697 -0.3698  0.0270
  286MOL0     C37632   4.454   5.583  11.066 -0.6139  0.0172 -0.4329
  286MOL0     C37633   4.438   5.427  11.045  0.9382  0.2522 -0.0976
  286MOL0     C37634   4.421   5.356  11.177  0.6457 -0.3833  0.6202
  286MOL0     C37635   4.439   5.206  11.170 -0.4111 -0.5169  1.0041
  286MOL0     C37636   4.332   5.136  11.090 -0.3716 -0.2825  0.5348
  286MOL0     N37637   4.348   4.993  11.072  0.0121 -0.0954  0.4607
  286MOL0     C37638   4.374   4.939  10.949  0.2647 -1.1359 -0.4787
  286MOL0     C37639   4.430   4.817  10.977 -0.3998 -0.7733 -0.7028
  286MOL0     C37640   4.515   4.722  10.886  0.4879 -0.2505 -0.7197
  286MOL0     C37641   4.432   4.631  10.800 -0.2115 -1.5378  0.0438
  286MOL0     C37642   4.393   4.503  10.866 -0.5797  0.1743  0.9526
  286MOL0     C37643   4.317   4.425  10.766 -0.4953 -0.6126 -0.3870
  286MOL0     O37644   4.402   4.354  10.676  0.4619 -0.2149 -0.0406
  286MOL0     C37645   4.334   4.291  10.574 -0.0494 -0.1824 -0.0585
  286MOL0     C37646   4.194   4.273  10.556  0.5142  0.3126  0.2807
  286MOL0     C37647   4.144   4.184  10.461 -0.4465 -0.2255 -0.0281
  286MOL0     C37648   4.231   4.136  10.366 -0.3190  0.3073  0.0628
  286MOL0     C37649   4.181   4.059  10.248  0.3482 -0.5019  0.0494
  286MOL0     O37650   4.254   4.083  10.135 -0.9842  0.5353 -0.0503
  286MOL0     C37651   4.212   4.032  10.006  0.0107  0.0306 -0.0175
  286MOL0     C37652   4.075   4.018   9.968 -0.5392  0.2130  0.2415
  286MOL0     C37653   4.042   3.975   9.845  0.2002 -0.6132 -0.4522
  286MOL0     C37654   4.143   3.945   9.756  0.2502  0.0525 -0.0567
  286MOL0     O37655   4.102   3.910   9.629  0.4483 -0.1141  0.3453
  286MOL0     C37656   4.183   3.942   9.515  0.4242 -0.3856 -0.8461
  286MOL0     C37657   4.251   3.816   9.465 -0.0557  0.0414  0.6219
  286MOL0     C37658   4.368   3.843   9.378 -0.2098  0.2023  0.0916
  286MOL0     C37659   4.425   3.714   9.308 -1.3098 -0.2112 -0.1020
  286MOL0     C37660   4.491   3.615   9.404 -0.2539 -0.4681 -0.2517
  286MOL0     C37661   4.557   3.501   9.330 -0.0664  0.1324  0.2276
  286MOL0     C37662   4.691   3.528   9.258  0.0862 -0.6008  0.6172
  286MOL0     C37663   4.780   3.397   9.255 -0.1463 -0.1002  0.1825
  286MOL0    Cl37664   4.930   3.457   9.189  0.2654  0.0002 -0.0210
  286MOL0     C37665   4.277   3.941   9.801 -0.6112  1.5009  0.0128
  286MOL0     C37666   4.312   3.998   9.927 -0.1212  0.0249  0.9443
  286MOL0     O37667   4.081   3.985  10.256  0.4329  0.2287  0.0918
  286MOL0     C37668   4.373   4.159  10.369  1.0873 -0.5730 -0.3914
  286MOL0     C37669   4.416   4.234  10.476 -0.5584 -0.0876  1.5307
  286MOL0     N37670   4.439   4.810  11.112 -0.2787  0.0254 -0.0875
  286MOL0     N37671   4.391   4.915  11.170 -0.3726  0.2565  0.1628
  286MOL0     C37672   4.961   5.987  11.249 -0.0928 -0.2687  0.4567
  286MOL0     C37673   5.086   6.045  11.245 -0.6619 -0.7672 -1.0970
  286MOL0     C37674   5.523   6.163  11.085 -0.4030  0.4242  0.6994
  286MOL0     C37675   5.624   6.174  10.986 -0.0096 -0.3193  1.2944
  286MOL0     C37676   5.723   6.274  10.988 -0.0752 -0.3341  0.4746
  286MOL0     C37677   5.738   6.358  11.098  0.0081  0.1797 -0.2262
  286MOL0     O37678   5.828   6.467  11.120 -0.3183  0.5785  0.3118
  286MOL0     C37679   5.926   6.489  11.014  0.0134  0.0842 -0.2206
  286MOL0     C37680   6.027   6.590  11.054  0.2581  0.0087 -0.9589
  286MOL0     C37681   6.084   6.565  11.195  0.3719  0.9627 -0.2627
  286MOL0     C37682   6.183   6.674  11.228 -0.0132 -0.4843  0.0523
  286MOL0     C37683   6.208   6.685  11.370 -0.3721  0.5817  0.5450
  286MOL0     C37684   6.201   6.693  11.490  0.4201  0.2811 -0.5661
  286MOL0     C37685   5.645   6.334  11.203  0.7015  0.3987 -0.2199
  286MOL0     C37686   5.541   6.235  11.202  0.6912 -1.2018  0.0543
  286MOL0     H37687   5.200   5.919  10.944 -0.3866 -0.5050  0.1384
  286MOL0     H37688   4.966   5.837  10.956 -3.5775 -1.9405  2.6495
  286MOL0     H37689   4.674   5.941  11.283 -1.6035  0.9719 -0.6073
  286MOL0     H37690   4.739   5.771  11.309  1.6981  0.5154 -1.5044
  286MOL0     H37691   4.558   5.835  11.077 -0.3825 -2.4741 -1.0593
  286MOL0     H37692   4.500   5.797  11.240 -0.4166 -2.1546 -0.1884
  286MOL0     H37693   4.608   5.574  11.212  1.5460 -1.9826 -1.3768
  286MOL0     H37694   4.674   5.629  11.053 -0.5500  1.1408 -0.6323
  286MOL0     H37695   4.370   5.618  11.126  0.7429 -0.3897  1.8158
  286MOL0     H37696   4.449   5.614  10.961 -2.1794  2.6593  0.3561
  286MOL0     H37697   4.524   5.386  10.991 -0.5610  1.6843 -3.9123
  286MOL0     H37698   4.343   5.409  10.992 -0.4194  0.4777  2.1326
  286MOL0     H37699   4.320   5.379  11.212  0.8059  0.3285  0.6112
  286MOL0     H37700   4.488   5.395  11.254 -1.4061 -1.1585  2.9327
  286MOL0     H37701   4.542   5.186  11.139 -1.3560  0.2626 -3.2411
  286MOL0     H37702   4.428   5.163  11.270  1.4419 -1.1429  0.9907
  286MOL0     H37703   4.328   5.182  10.991 -0.9989  0.0161  0.6955
  286MOL0     H37704   4.235   5.151  11.138  0.3296 -0.0724  1.9449
  286MOL0     H37705   4.376   4.990  10.853  4.2224 -2.7001 -1.4042
  286MOL0     H37706   4.573   4.663  10.958  0.3532  0.2556 -0.1806
  286MOL0     H37707   4.577   4.792  10.830  2.4417  1.2438  2.9250
  286MOL0     H37708   4.484   4.612  10.705 -1.0675  0.0975 -0.7875
  286MOL0     H37709   4.347   4.691  10.767  1.3071  0.6186 -0.1391
  286MOL0     H37710   4.491   4.461  10.890 -0.6344  0.2858  1.3823
  286MOL0     H37711   4.337   4.505  10.960 -2.6623 -0.7103 -0.2044
  286MOL0     H37712   4.242   4.488  10.717 -0.7567 -1.3121 -0.8994
  286MOL0     H37713   4.261   4.351  10.824  2.1825 -1.5323  1.2359
  286MOL0     H37714   4.123   4.320  10.624 -1.9783 -2.3152 -0.2848
  286MOL0     H37715   4.041   4.159  10.439 -0.6675  0.7470 -0.1438
  286MOL0     H37716   3.998   4.037  10.042 -3.1845 -3.8772 -1.1335
  286MOL0     H37717   3.936   3.961   9.825  0.2192 -0.9558 -0.3179
  286MOL0     H37718   4.254   4.016   9.552  0.3675 -0.2684 -0.9703
  286MOL0     H37719   4.114   3.988   9.443 -2.2129 -1.8842  0.5342
  286MOL0     H37720   4.172   3.765   9.409  1.1454 -0.7301 -0.4277
  286MOL0     H37721   4.278   3.752   9.549 -2.3506 -0.0504  1.3734
  286MOL0     H37722   4.452   3.886   9.433  1.5831 -0.6874 -1.7935
  286MOL0     H37723   4.343   3.907   9.293 -0.4034  0.1543  0.1112
  286MOL0     H37724   4.340   3.667   9.257 -1.9118 -2.3065  2.6357
  286MOL0     H37725   4.501   3.744   9.236 -1.5367 -1.4077 -0.8748
  286MOL0     H37726   4.414   3.578   9.472 -0.5137  0.4737 -0.0119
  286MOL0     H37727   4.560   3.666   9.472 -2.4243 -0.6928  2.2854
  286MOL0     H37728   4.500   3.455   9.248  2.4321  2.4311 -3.0902
  286MOL0     H37729   4.587   3.435   9.412  0.1953 -1.6570 -1.2443
  286MOL0     H37730   4.682   3.552   9.152  0.7112 -1.1098  0.4395
  286MOL0     H37731   4.747   3.600   9.319  2.0464 -4.0015  3.2671
  286MOL0     H37732   4.722   3.333   9.188 -0.6476 -0.7709  1.2289
  286MOL0     H37733   4.780   3.344   9.351 -3.3063  0.8603  0.8340
  286MOL0     H37734   4.357   3.912   9.734  0.7210  0.5633  1.9259
  286MOL0     H37735   4.414   4.014   9.961  0.5463 -1.5882 -0.1530
  286MOL0     H37736   4.445   4.117  10.301  1.8463 -0.8277  0.5421
  286MOL0     H37737   4.522   4.250  10.492  0.3953 -2.9541 -1.0924
  286MOL0     H37738   4.904   5.990  11.341 -0.0068  0.3692  0.4930
  286MOL0     H37739   5.110   6.100  11.336  0.5718 -0.7043 -1.4430
  286MOL0     H37740   5.616   6.120  10.891 -3.6852  0.5684  0.9630
  286MOL0     H37741   5.794   6.278  10.906 -0.5156 -2.0572 -0.0312
  286MOL0     H37742   5.860   6.530  10.937  0.0834 -2.8892 -2.0298
  286MOL0     H37743   5.984   6.400  10.990 -1.1177 -1.5149  2.5273
  286MOL0     H37744   6.104   6.578  10.978  0.5424  1.0954 -0.8598
  286MOL0     H37745   5.984   6.691  11.059  0.1717 -0.0685  1.9366
  286MOL0     H37746   6.130   6.467  11.201 -0.6716  0.4805  0.2047
  286MOL0     H37747   6.003   6.570  11.269 -3.3741  1.4327 -3.9532
  286MOL0     H37748   6.272   6.644  11.173  1.1525  1.2905  0.8858
  286MOL0     H37749   6.146   6.767  11.184  0.0333 -1.5095 -2.2896
  286MOL0     H37750   6.202   6.737  11.588  1.9606  1.1141 -0.9134
  286MOL0     H37751   5.643   6.404  11.286 -0.7602  0.9368 -0.6817
  286MOL0     H37752   5.471   6.237  11.285 -1.2065  0.9000 -1.4665
  287MOL0     O37753   2.421  10.421   0.006 -0.0756  0.1988  0.4291
  287MOL0     C37754   2.534  10.370   0.014  1.2876 -0.5510 -0.7491
  287MOL0     O37755   2.579  10.257  -0.046  0.0246 -0.0485  0.4322
  287MOL0     C37756   2.500  10.170  -0.134  0.6312 -0.6474 -0.0454
  287MOL0     C37757   2.567  10.058  -0.179  0.5983  0.0103  1.3272
  287MOL0     C37758   2.497   9.948  -0.227 -0.6860  0.2088 -0.2864
  287MOL0     C37759   2.359   9.966  -0.265 -0.2583  0.2222 -0.8059
  287MOL0     O37760   2.287   9.867  -0.334  0.0367 -0.0478  0.0599
  287MOL0     C37761   2.344   9.735  -0.329  0.2200 -0.1665  0.4887
  287MOL0     C37762   2.241   9.639  -0.381  0.2954  0.5751  0.0656
  287MOL0     C37763   2.129   9.589  -0.276 -0.0511 -0.4720  0.2966
  287MOL0     C37764   2.013   9.518  -0.353 -0.2641  0.1339 -0.6404
  287MOL0     C37765   1.908   9.471  -0.260  0.4823  0.7255 -0.5758
  287MOL0     C37766   1.808   9.376  -0.342 -0.7142  0.8822 -0.4317
  287MOL0     C37767   1.700   9.329  -0.244  0.5347  1.0624  0.1020
  287MOL0     C37768   1.607   9.230  -0.316  0.2759 -1.5610  0.3327
  287MOL0     N37769   1.505   9.200  -0.222  0.4202  0.3372 -0.6257
  287MOL0     C37770   1.512   9.104  -0.126 -0.5243  0.2962 -0.8658
  287MOL0     C37771   1.382   9.079  -0.085 -0.2647  0.0465  0.0046
  287MOL0     C37772   1.340   8.998   0.032  0.8907  0.5412 -0.3913
  287MOL0     C37773   1.251   8.879   0.007 -0.1410 -0.1246 -0.7951
  287MOL0     C37774   1.116   8.907  -0.057  0.5457  0.0030  0.3990
  287MOL0     C37775   1.022   9.006   0.007  0.5480 -0.2530  0.9477
  287MOL0     O37776   0.941   8.952   0.112  0.2659  0.1760 -0.4897
  287MOL0     C37777   0.846   9.032   0.173  0.7383  0.1367  0.0456
  287MOL0     C37778   0.768   8.968   0.262  0.7660  0.3804 -0.3857
  287MOL0     C37779   0.653   9.018   0.324  0.2295 -0.3786 -0.2126
  287MOL0     C37780   0.627   9.150   0.303 -0.5591 -0.6623 -0.6738
  287MOL0     C37781   0.514   9.213   0.383  0.0417  0.0836  0.9405
  287MOL0     O37782   0.480   9.154   0.500  0.2808 -0.4577 -0.1824
  287MOL0     C37783   0.359   9.185   0.567 -1.3560  0.3338  0.7918
  287MOL0     C37784   0.255   9.262   0.516 -0.6502 -0.2378 -0.3399
  287MOL0     C37785   0.136   9.266   0.585  0.6302 -0.6944  0.2331
  287MOL0     C37786   0.115   9.210   0.705 -0.0840  0.2953 -0.2624
  287MOL0     O37787  -0.003   9.237   0.774  0.2532 -0.0160 -0.2584
  287MOL0     C37788  -0.024   9.167   0.895 -0.0132  0.3600  0.1746
  287MOL0     C37789  -0.144   9.212   0.988  1.2792  0.7485 -0.0562
  287MOL0     C37790  -0.274   9.180   0.915 -0.3557 -0.0419 -0.0717
  287MOL0     C37791  -0.402   9.211   0.998 -0.4732  0.2359  0.2681
  287MOL0     C37792  -0.527   9.208   0.906 -0.1181 -0.0184 -0.5049
  287MOL0     C37793  -0.647   9.282   0.971 -1.0240  0.0401  1.0042
  287MOL0     C37794  -0.719   9.359   0.860  0.4234  0.2791 -0.8522
  287MOL0     C37795  -0.848   9.431   0.917  0.4236  0.4923  0.0760
  287MOL0    Cl37796  -0.942   9.503   0.784  0.0788  0.1851 -0.1134
  287MOL0     C37797   0.216   9.128   0.756 -0.0656  0.5363 -0.1936
  287MOL0     C37798   0.340   9.122   0.690 -0.6690  0.4777  0.4839
  287MOL0     O37799   0.488   9.325   0.360 -0.2195 -0.5239 -0.2930
  287MOL0     C37800   0.704   9.227   0.209 -0.2916  0.1974 -0.1825
  287MOL0     C37801   0.810   9.163   0.140 -0.2297 -0.3659  0.5302
  287MOL0     N37802   1.297   9.162  -0.162  0.5598 -0.0196  0.0806
  287MOL0     N37803   1.373   9.231  -0.240  0.5401  0.5571 -0.1140
  287MOL0     C37804   2.299  10.094  -0.238  0.7005  0.0085  0.3817
  287MOL0     C37805   2.369  10.195  -0.174 -0.0730  1.0883  0.3673
  287MOL0     C37806   2.637  10.444   0.097  1.1572 -0.0468  0.1587
  287MOL0     C37807   2.775  10.443   0.069  0.2842 -0.9692 -0.1450
  287MOL0     C37808   2.861  10.486   0.175  0.2031  0.2389  0.1168
  287MOL0     C37809   2.820  10.540   0.290  0.1212  0.1182 -0.5447
  287MOL0     O37810   2.917  10.588   0.377 -0.2229  0.1200 -1.1084
  287MOL0     C37811   2.873  10.675   0.480 -0.5589 -0.4244 -0.1616
  287MOL0     C37812   2.988  10.687   0.573 -0.7046 -0.3163 -0.2551
  287MOL0     C37813   3.045  10.563   0.641 -0.2948 -0.6161  1.4684
  287MOL0     C37814   3.151  10.605   0.739 -0.0612 -0.5376 -0.3786
  287MOL0     C37815   3.288  10.631   0.683 -0.8212  0.1340  0.2717
  287MOL0     C37816   3.400  10.645   0.652 -0.0646  0.7878 -0.3134
  287MOL0     C37817   2.681  10.555   0.315  1.3904  0.2946 -0.1225
  287MOL0     C37818   2.591  10.505   0.221  0.5494  0.2834  0.0391
  287MOL0     H37819   2.675  10.060  -0.167  0.6819 -2.9688  1.7357
  287MOL0     H37820   2.539   9.852  -0.252  1.9044  0.5093  2.3373
  287MOL0     H37821   2.362   9.703  -0.226  3.2671 -1.2126 -0.2371
  287MOL0     H37822   2.431   9.726  -0.396  1.6093  0.6144  2.1221
  287MOL0     H37823   2.304   9.566  -0.431  0.4404 -0.0876  1.1731
  287MOL0     H37824   2.186   9.693  -0.459  2.7897  1.3570 -1.2523
  287MOL0     H37825   2.096   9.681  -0.227 -1.1351 -1.1292  0.8478
  287MOL0     H37826   2.171   9.532  -0.192 -1.5550  0.5487  1.8066
  287MOL0     H37827   1.962   9.575  -0.432  0.0238  0.4058 -0.6301
  287MOL0     H37828   2.057   9.425  -0.391 -2.5731 -0.9408 -0.8875
  287MOL0     H37829   1.846   9.549  -0.215  1.5834  1.2338  0.0942
  287MOL0     H37830   1.953   9.409  -0.182 -1.8631  2.3680  2.2751
  287MOL0     H37831   1.861   9.292  -0.387  1.6561  1.8186  0.4739
  287MOL0     H37832   1.763   9.439  -0.419 -0.1252  1.6916 -0.1278
  287MOL0     H37833   1.757   9.281  -0.164  0.4251  1.3379  0.3430
  287MOL0     H37834   1.638   9.410  -0.205  1.5257  2.1323 -0.4765
  287MOL0     H37835   1.666   9.141  -0.340  1.7979 -1.4579  3.1572
  287MOL0     H37836   1.564   9.273  -0.406 -0.1245 -1.7432  0.4317
  287MOL0     H37837   1.600   9.051  -0.091 -0.9838  0.8629  1.2784
  287MOL0     H37838   1.279   9.051   0.105 -1.3712 -1.4252 -0.7178
  287MOL0     H37839   1.430   8.966   0.086 -0.1052  3.7839  3.6842
  287MOL0     H37840   1.234   8.816   0.095 -2.1991  0.2561 -0.8601
  287MOL0     H37841   1.302   8.818  -0.068  2.1871  2.0265 -1.1026
  287MOL0     H37842   1.146   8.964  -0.146  1.6243 -2.0867 -0.6537
  287MOL0     H37843   1.053   8.828  -0.099 -1.2355  2.2266 -1.3721
  287MOL0     H37844   0.949   9.039  -0.068  2.5191  0.8480 -0.6096
  287MOL0     H37845   1.082   9.092   0.038 -0.7736  0.7740  0.7483
  287MOL0     H37846   0.792   8.865   0.284  1.3728  0.3053 -1.3396
  287MOL0     H37847   0.601   8.950   0.390  2.5066 -0.7975  1.2691
  287MOL0     H37848   0.263   9.319   0.423  3.3949 -1.5547 -0.9858
  287MOL0     H37849   0.058   9.336   0.557  0.8874  0.1143  1.4395
  287MOL0     H37850   0.063   9.177   0.961 -0.8471  1.8202  1.1067
  287MOL0     H37851  -0.030   9.060   0.872  0.1590  0.8586 -2.4846
  287MOL0     H37852  -0.148   9.319   1.007 -0.5846  0.8136 -0.6509
  287MOL0     H37853  -0.141   9.155   1.081 -3.2315  0.1727 -0.0752
  287MOL0     H37854  -0.271   9.074   0.890  1.3160 -0.4667  1.7148
  287MOL0     H37855  -0.280   9.238   0.821  0.0302 -1.2843 -0.8828
  287MOL0     H37856  -0.417   9.134   1.074 -2.1435 -0.3661 -0.6194
  287MOL0     H37857  -0.382   9.305   1.051  0.2259 -0.7001  1.7197
  287MOL0     H37858  -0.544   9.105   0.875 -0.1130 -0.7135  1.6465
  287MOL0     H37859  -0.494   9.252   0.811  2.9332 -2.4302 -0.7190
  287MOL0     H37860  -0.616   9.349   1.052 -1.0555  1.6125 -0.2470
  287MOL0     H37861  -0.724   9.214   1.008 -3.2532  1.4726 -0.7607
  287MOL0     H37862  -0.655   9.436   0.815  0.1315 -0.3807 -2.4341
  287MOL0     H37863  -0.758   9.295   0.780  1.5325 -2.4077  0.6173
  287MOL0     H37864  -0.814   9.514   0.980  1.1015  2.3528 -2.5719
  287MOL0     H37865  -0.908   9.363   0.979  1.5704  0.4919  1.2068
  287MOL0     H37866   0.212   9.073   0.849 -1.6042 -1.8765 -1.5797
  287MOL0     H37867   0.429   9.070   0.724 -1.2817 -1.0257 -0.1451
  287MOL0     H37868   0.678   9.332   0.204  0.9676  0.5093 -0.4085
  287MOL0     H37869   0.873   9.206   0.064 -1.3798 -1.5956 -1.2037
  287MOL0     H37870   2.197  10.097  -0.275 -0.1288 -0.2265  2.5302
  287MOL0     H37871   2.319  10.291  -0.158 -1.2270  0.7478 -0.9865
  287MOL0     H37872   2.806  10.398  -0.025 -0.1434 -0.5071 -0.5143
  287MOL0     H37873   2.967  10.483   0.154 -0.0581 -1.2267 -1.1962
  287MOL0     H37874   2.788  10.631   0.534 -2.4769  2.0841 -0.9129
  287MOL0     H37875   2.842  10.775   0.448  1.7865  0.5172  0.3242
  287MOL0     H37876   3.071  10.723   0.511 -2.0318 -1.6081 -2.9000
  287MOL0     H37877   2.952  10.759   0.647  1.8765  2.2358 -1.2804
  287MOL0     H37878   3.075  10.490   0.566 -3.0417 -3.0563  2.5622
  287MOL0     H37879   2.960  10.515   0.691 -0.8360 -0.9534  0.2694
  287MOL0     H37880   3.117  10.693   0.795 -1.2116 -1.6684  0.7698
  287MOL0     H37881   3.157  10.527   0.816  3.2890  0.7488  0.8594
  287MOL0     H37882   3.501  10.665   0.623 -0.4629  0.2419 -2.2324
  287MOL0     H37883   2.640  10.595   0.407  2.5805  2.1009 -0.3272
  287MOL0     H37884   2.485  10.494   0.245  0.2529  2.1780 -0.2474
  288MOL0     O37885   7.500   1.260   2.125 -0.5432  0.0801 -0.1929
  288MOL0     C37886   7.550   1.197   2.031 -0.6337 -0.1836  0.6229
  288MOL0     O37887   7.480   1.122   1.943 -0.1087  0.0489  0.4711
  288MOL0     C37888   7.346   1.139   1.938 -0.6712  0.6646 -0.4224
  288MOL0     C37889   7.252   1.057   2.005  0.6593 -0.4025  0.2516
  288MOL0     C37890   7.112   1.089   2.012 -0.5277  0.3241  0.4481
  288MOL0     C37891   7.067   1.191   1.927 -0.2001 -0.1309  0.2706
  288MOL0     O37892   6.935   1.226   1.893 -0.7924  0.1865  0.7198
  288MOL0     C37893   6.828   1.162   1.960 -0.3064  0.2345 -0.8261
  288MOL0     C37894   6.698   1.245   1.950 -0.6420 -0.0917 -0.3521
  288MOL0     C37895   6.576   1.157   2.009 -0.5379  0.0314  0.3278
  288MOL0     C37896   6.452   1.254   2.018 -0.5582  0.3827  0.5631
  288MOL0     C37897   6.342   1.208   2.113 -0.7577 -0.3097 -0.3320
  288MOL0     C37898   6.236   1.323   2.144 -1.0419  0.2469 -0.1037
  288MOL0     C37899   6.176   1.292   2.289 -0.1047 -0.1317  0.3731
  288MOL0     C37900   6.103   1.408   2.356 -0.9097 -0.7745 -0.7345
  288MOL0     N37901   5.993   1.463   2.276 -0.3349  0.1251  0.0569
  288MOL0     C37902   5.868   1.459   2.331 -0.5008 -0.0553  0.6901
  288MOL0     C37903   5.792   1.552   2.270  0.3320  0.0688 -0.0322
  288MOL0     C37904   5.650   1.574   2.302 -0.4901 -0.2871 -1.0042
  288MOL0     C37905   5.576   1.631   2.179 -0.1481 -0.0029  0.0389
  288MOL0     C37906   5.444   1.678   2.227 -0.0496 -0.2134 -0.2505
  288MOL0     C37907   5.344   1.571   2.257  0.8537 -0.0100 -0.2044
  288MOL0     O37908   5.216   1.634   2.283  0.1779 -0.3513 -0.0621
  288MOL0     C37909   5.100   1.555   2.299 -0.6372  0.1893 -0.0202
  288MOL0     C37910   5.106   1.409   2.298 -0.6949  0.2555  0.1833
  288MOL0     C37911   4.985   1.335   2.315 -0.0691 -0.5630  0.5693
  288MOL0     C37912   4.858   1.396   2.329 -0.2187 -0.5201 -0.1112
  288MOL0     C37913   4.740   1.313   2.344  0.3995  0.1092  0.3538
  288MOL0     O37914   4.624   1.370   2.365 -0.5060  0.3235 -0.6033
  288MOL0     C37915   4.503   1.302   2.382 -0.2258  0.3122 -0.1266
  288MOL0     C37916   4.411   1.342   2.478 -0.2947 -0.5074 -0.7522
  288MOL0     C37917   4.274   1.290   2.489  0.0282  0.0354 -0.6957
  288MOL0     C37918   4.246   1.183   2.396  0.0572  0.0517 -0.0733
  288MOL0     O37919   4.118   1.134   2.394  0.0729  0.5214  0.3257
  288MOL0     C37920   4.102   1.000   2.350  0.9125 -0.0546  0.6889
  288MOL0     C37921   3.957   0.965   2.308 -0.0576  0.3367  0.1355
  288MOL0     C37922   3.870   0.972   2.436  0.3724 -1.0727  0.0483
  288MOL0     C37923   3.726   0.985   2.404 -1.3264 -0.1002 -0.4530
  288MOL0     C37924   3.625   0.997   2.519 -0.6293  0.5193 -0.6902
  288MOL0     C37925   3.552   1.118   2.506 -0.2286 -0.0963 -0.0436
  288MOL0     C37926   3.424   1.120   2.593 -0.4028  0.2335  0.0836
  288MOL0     C37927   3.457   1.118   2.733 -1.1575  0.5003 -0.8365
  288MOL0    Cl37928   3.321   1.097   2.842  0.2116 -0.3644 -0.0886
  288MOL0     C37929   4.335   1.157   2.293  0.1998  0.0089  0.9778
  288MOL0     C37930   4.466   1.211   2.286  0.1346 -0.3266  0.1081
  288MOL0     O37931   4.756   1.193   2.332  0.1764 -0.3833  0.0133
  288MOL0     C37932   4.853   1.531   2.305  0.1708  0.5866 -0.8716
  288MOL0     C37933   4.969   1.608   2.297 -0.1288  0.1468  0.3016
  288MOL0     N37934   5.872   1.610   2.172  0.2540  0.7550 -0.4220
  288MOL0     N37935   5.995   1.569   2.193 -0.7403  0.2637 -0.1566
  288MOL0     C37936   7.160   1.272   1.859  0.2735  0.0645  0.1949
  288MOL0     C37937   7.299   1.244   1.870  0.7119 -0.3160 -0.1931
  288MOL0     C37938   7.700   1.201   2.015 -0.2370  0.5470  0.6195
  288MOL0     C37939   7.786   1.201   2.126  0.3536 -1.1647  0.2790
  288MOL0     C37940   7.921   1.202   2.120 -0.9443 -0.7736  0.3337
  288MOL0     C37941   7.984   1.216   1.995  0.5088 -0.2495 -0.6967
  288MOL0     O37942   8.116   1.230   2.000 -1.2496 -0.4490  0.0294
  288MOL0     C37943   8.179   1.271   1.874 -0.6824 -0.6161 -0.6349
  288MOL0     C37944   8.333   1.250   1.879  0.5414  0.3158 -0.0576
  288MOL0     C37945   8.387   1.310   1.752 -0.0294  1.1489  0.1684
  288MOL0     C37946   8.535   1.274   1.736 -0.4096  0.1451  0.4770
  288MOL0     C37947   8.622   1.379   1.796  0.3658  0.0264 -0.6860
  288MOL0     C37948   8.696   1.446   1.845 -1.0809  0.1389  0.0819
  288MOL0     C37949   7.899   1.218   1.882 -0.6371 -0.4133 -0.2534
  288MOL0     C37950   7.760   1.203   1.890  1.1432 -0.8220 -0.1473
  288MOL0     H37951   7.282   0.966   2.056 -1.4745 -0.3337  1.8087
  288MOL0     H37952   7.046   1.026   2.071 -1.8228 -2.0356 -3.1556
  288MOL0     H37953   6.851   1.154   2.067  0.3100 -0.3147 -0.9938
  288MOL0     H37954   6.823   1.063   1.914 -0.9065  0.0975 -0.4759
  288MOL0     H37955   6.684   1.275   1.846 -0.3730  0.6263 -0.1865
  288MOL0     H37956   6.715   1.339   2.003  3.4323 -0.4788 -0.6148
  288MOL0     H37957   6.616   1.120   2.103 -1.4761 -0.8124  0.4068
  288MOL0     H37958   6.553   1.069   1.948  2.9130 -0.2784 -0.7570
  288MOL0     H37959   6.488   1.354   2.046  0.0017  0.1317  0.7631
  288MOL0     H37960   6.406   1.263   1.919 -6.0818 -2.3342  2.4664
  288MOL0     H37961   6.382   1.181   2.212  1.2678  0.6307 -0.8556
  288MOL0     H37962   6.291   1.121   2.070  1.4044 -1.9659  0.2742
  288MOL0     H37963   6.155   1.327   2.070 -0.5331 -0.1701 -0.6971
  288MOL0     H37964   6.283   1.421   2.143  0.7730 -0.4731  2.7611
  288MOL0     H37965   6.100   1.219   2.261 -0.0053  0.3395 -1.1842
  288MOL0     H37966   6.251   1.253   2.359  2.8354  2.2655 -1.2397
  288MOL0     H37967   6.164   1.496   2.377 -0.1158 -1.1317 -1.4573
  288MOL0     H37968   6.062   1.366   2.449 -0.8695 -0.8445 -0.7478
  288MOL0     H37969   5.842   1.385   2.407  1.6177 -1.7097 -0.0837
  288MOL0     H37970   5.651   1.645   2.386 -0.4672  0.6767 -1.8028
  288MOL0     H37971   5.611   1.477   2.333  0.6249  0.4369  3.4254
  288MOL0     H37972   5.557   1.565   2.094  2.5444  2.6877 -2.9269
  288MOL0     H37973   5.638   1.710   2.137  0.7286 -0.4169  0.5373
  288MOL0     H37974   5.463   1.735   2.319 -0.1687  0.3112 -0.5527
  288MOL0     H37975   5.391   1.734   2.150 -0.2384 -1.3733 -0.9897
  288MOL0     H37976   5.365   1.512   2.347 -0.3985 -0.0812  0.0595
  288MOL0     H37977   5.345   1.501   2.173 -0.2455 -0.5596  0.2102
  288MOL0     H37978   5.197   1.349   2.294 -0.7065  0.2814 -0.7144
  288MOL0     H37979   4.998   1.227   2.308  1.4893 -0.3270 -0.6482
  288MOL0     H37980   4.442   1.415   2.552 -0.9980 -0.6721 -0.2842
  288MOL0     H37981   4.206   1.317   2.569 -1.5402  2.0463 -2.5717
  288MOL0     H37982   4.136   0.925   2.423  1.2359  0.7372  1.3718
  288MOL0     H37983   4.156   0.978   2.258  0.2720 -0.1452  0.3283
  288MOL0     H37984   3.962   0.863   2.268  1.1446  0.0688  0.9318
  288MOL0     H37985   3.924   1.043   2.239 -0.1957  2.2234  2.1954
  288MOL0     H37986   3.905   1.057   2.494 -3.7917  1.2601 -0.4539
  288MOL0     H37987   3.881   0.883   2.498 -0.5989  0.4485  2.5314
  288MOL0     H37988   3.708   1.062   2.328 -0.6727 -1.5918 -2.2093
  288MOL0     H37989   3.709   0.889   2.353  0.3784  0.3902 -2.0632
  288MOL0     H37990   3.679   0.991   2.614  1.7616 -0.7537 -2.0413
  288MOL0     H37991   3.559   0.911   2.514  0.0245  0.0834 -2.4924
  288MOL0     H37992   3.529   1.134   2.400  3.4071  3.7081 -0.4614
  288MOL0     H37993   3.625   1.197   2.522  0.8155 -0.9457 -0.5390
  288MOL0     H37994   3.371   1.213   2.573  1.5730  1.1434 -1.3266
  288MOL0     H37995   3.360   1.034   2.571 -0.1332 -1.0200  3.5594
  288MOL0     H37996   3.510   1.212   2.755  0.1940  0.2257 -2.6812
  288MOL0     H37997   3.519   1.031   2.756 -0.3616  0.9797 -1.1184
  288MOL0     H37998   4.304   1.097   2.208  0.0971  0.7399  0.4857
  288MOL0     H37999   4.538   1.203   2.205  3.9054 -1.7304  3.2731
  288MOL0     H38000   4.758   1.583   2.302 -0.3005  0.1741  2.5743
  288MOL0     H38001   4.962   1.715   2.281  0.0962  0.3362  1.4088
  288MOL0     H38002   7.146   1.359   1.795  4.3331  2.8104  2.5789
  288MOL0     H38003   7.370   1.302   1.812  1.1919  3.3119  3.5240
  288MOL0     H38004   7.740   1.197   2.225  1.3264 -0.7264  0.7543
  288MOL0     H38005   7.985   1.179   2.204  1.2726  0.7245 -0.8715
  288MOL0     H38006   8.147   1.370   1.840  1.4248 -0.5392 -2.6247
  288MOL0     H38007   8.144   1.207   1.793 -2.0122 -2.4815  1.3120
  288MOL0     H38008   8.359   1.317   1.961 -0.2473  2.5946 -1.5559
  288MOL0     H38009   8.367   1.147   1.892  2.0626  0.9971  1.7813
  288MOL0     H38010   8.377   1.419   1.759 -0.5815  1.0390  1.1582
  288MOL0     H38011   8.336   1.278   1.661  2.3488  0.2498 -0.9302
  288MOL0     H38012   8.560   1.175   1.776 -0.5257  0.9596  2.6812
  288MOL0     H38013   8.563   1.281   1.631 -1.2749 -0.9646  0.1501
  288MOL0     H38014   8.773   1.503   1.893  0.9863 -1.4302 -1.2247
  288MOL0     H38015   7.930   1.209   1.778  0.0299  0.1362 -0.1073
  288MOL0     H38016   7.682   1.209   1.815  0.4646 -0.6494  0.5546
  289MOL0     O38017  11.051   7.527   8.820  0.9394  0.4568 -0.0759
  289MOL0     C38018  11.068   7.467   8.718 -0.7428  0.7402  0.7503
  289MOL0     O38019  10.970   7.445   8.622 -0.4229  0.3004  1.0178
  289MOL0     C38020  10.846   7.493   8.640 -0.5480  0.7667  0.8190
  289MOL0     C38021  10.800   7.611   8.580  0.4660  0.0754  0.2591
  289MOL0     C38022  10.668   7.652   8.593  0.0030 -0.5485 -0.7701
  289MOL0     C38023  10.572   7.567   8.654  0.3046 -0.5273  0.5674
  289MOL0     O38024  10.441   7.620   8.668 -0.2947 -0.1641  0.0502
  289MOL0     C38025  10.381   7.594   8.792  0.9926 -0.5992 -0.5714
  289MOL0     C38026  10.230   7.632   8.791 -0.6447 -0.4957 -0.0924
  289MOL0     C38027  10.148   7.577   8.681 -0.1927 -0.4675  0.4966
  289MOL0     C38028  10.002   7.602   8.722 -0.4042  1.1972  0.1356
  289MOL0     C38029   9.916   7.565   8.609  0.1753 -0.6320 -0.4297
  289MOL0     C38030   9.772   7.554   8.660  0.5662 -0.8783 -0.2817
  289MOL0     C38031   9.694   7.491   8.542 -0.2785  0.7998 -0.1291
  289MOL0     C38032   9.669   7.590   8.425  0.3801  0.1214 -0.2598
  289MOL0     N38033   9.592   7.515   8.321  0.3844  0.0795  0.1083
  289MOL0     C38034   9.458   7.461   8.337 -0.5572 -0.9430 -0.5198
  289MOL0     C38035   9.436   7.401   8.217 -0.2802  0.2643 -0.2894
  289MOL0     C38036   9.318   7.320   8.181 -0.3250 -0.1922  0.5436
  289MOL0     C38037   9.218   7.402   8.086 -0.6687  0.4372  0.9317
  289MOL0     C38038   9.134   7.509   8.155  0.5135 -0.0172 -0.8102
  289MOL0     C38039   9.021   7.552   8.061  0.6859 -0.3601 -1.0558
  289MOL0     O38040   8.975   7.680   8.105  0.4710 -0.2390 -0.1220
  289MOL0     C38041   8.852   7.717   8.050  0.4855 -0.1816 -0.0682
  289MOL0     C38042   8.787   7.652   7.943 -0.4489  0.4186 -0.9633
  289MOL0     C38043   8.658   7.683   7.907 -0.5304  0.5984  0.1991
  289MOL0     C38044   8.595   7.791   7.966  0.5151 -0.9653 -0.9345
  289MOL0     C38045   8.453   7.818   7.943  0.7285 -0.5411  0.4333
  289MOL0     O38046   8.403   7.802   7.816  0.1611 -0.5480  0.4140
  289MOL0     C38047   8.282   7.828   7.764  0.0120  0.0730  0.2919
  289MOL0     C38048   8.277   7.854   7.626  0.1317  0.8182 -0.0650
  289MOL0     C38049   8.166   7.909   7.561 -1.2249  0.3772  0.1566
  289MOL0     C38050   8.047   7.934   7.636  0.0764  0.9679 -1.1135
  289MOL0     O38051   7.938   7.975   7.564  0.6181 -0.7436 -0.7039
  289MOL0     C38052   7.816   8.002   7.640  0.0779 -0.0040  0.2404
  289MOL0     C38053   7.705   8.014   7.551  0.4236  0.6739  1.0405
  289MOL0     C38054   7.574   8.043   7.619 -0.3477  1.0342 -0.1989
  289MOL0     C38055   7.470   8.083   7.523  0.3087  0.6540  0.6173
  289MOL0     C38056   7.431   7.970   7.430  0.3943  0.0726  0.2717
  289MOL0     C38057   7.302   8.019   7.337 -0.3308  0.1238  0.0230
  289MOL0     C38058   7.237   7.904   7.259 -0.5539  0.7708 -0.0979
  289MOL0     C38059   7.104   7.939   7.193  0.5784  1.0569 -0.1825
  289MOL0    Cl38060   7.033   7.795   7.132  0.3054 -0.1442  0.1523
  289MOL0     C38061   8.057   7.910   7.777 -0.1091 -0.1580  0.0497
  289MOL0     C38062   8.169   7.857   7.839 -0.1989  0.4366  0.1167
  289MOL0     O38063   8.392   7.878   8.032  0.4721 -0.4246  0.0725
  289MOL0     C38064   8.671   7.873   8.057 -1.1928 -0.6184  0.8083
  289MOL0     C38065   8.794   7.842   8.091 -0.1904  0.5799 -0.4993
  289MOL0     N38066   9.557   7.408   8.142  0.3100  0.3982 -0.1304
  289MOL0     N38067   9.645   7.476   8.208 -0.8089  0.7899 -0.9727
  289MOL0     C38068  10.611   7.445   8.707 -0.8340  0.1537  0.9343
  289MOL0     C38069  10.751   7.414   8.707 -0.0253 -0.3113  0.2485
  289MOL0     C38070  11.207   7.406   8.707 -0.2173 -0.4386  0.9810
  289MOL0     C38071  11.291   7.400   8.811  0.9067 -0.5690 -0.1980
  289MOL0     C38072  11.422   7.359   8.803 -0.6499 -0.7779 -0.3486
  289MOL0     C38073  11.469   7.303   8.686  0.7291  0.5850  0.1847
  289MOL0     O38074  11.592   7.242   8.677 -0.1945  0.1257  0.5822
  289MOL0     C38075  11.700   7.280   8.765  0.3370 -0.3854 -0.0238
  289MOL0     C38076  11.750   7.147   8.829 -0.1647  0.0801  0.1406
  289MOL0     C38077  11.837   7.063   8.736 -0.1846 -0.5417 -0.5616
  289MOL0     C38078  11.971   7.133   8.711  0.4041 -0.6711  0.1077
  289MOL0     C38079  12.064   7.048   8.646 -0.3195  0.3494  0.0144
  289MOL0     C38080  12.143   6.974   8.595  0.0078  0.2499  0.5785
  289MOL0     C38081  11.380   7.297   8.576 -0.0256 -0.6140  1.8472
  289MOL0     C38082  11.250   7.355   8.583  0.2455  0.0608 -0.9744
  289MOL0     H38083  10.877   7.671   8.531 -0.6106  1.2490 -0.0562
  289MOL0     H38084  10.636   7.749   8.557 -1.8252 -0.3217  1.2693
  289MOL0     H38085  10.431   7.665   8.859 -0.6088  0.8653 -0.8732
  289MOL0     H38086  10.398   7.492   8.828  0.0232 -0.9051 -0.9658
  289MOL0     H38087  10.222   7.741   8.791 -1.1991 -0.4258  3.7249
  289MOL0     H38088  10.191   7.607   8.889  1.4999 -0.6179  0.7907
  289MOL0     H38089  10.171   7.471   8.668 -0.8006 -0.4670 -0.8509
  289MOL0     H38090  10.170   7.625   8.585 -1.1160  0.5421  0.7658
  289MOL0     H38091   9.981   7.523   8.795  0.2247 -0.0848 -1.0167
  289MOL0     H38092   9.986   7.707   8.749 -0.0703  1.2100  0.2810
  289MOL0     H38093   9.952   7.472   8.565  4.5081  0.1931  0.9181
  289MOL0     H38094   9.925   7.643   8.532  1.5589 -1.6922 -1.3947
  289MOL0     H38095   9.740   7.654   8.688 -0.0218 -0.3949 -2.4921
  289MOL0     H38096   9.765   7.496   8.753  2.2148  1.0099  1.0936
  289MOL0     H38097   9.751   7.414   8.490 -0.3894  2.0645 -2.2418
  289MOL0     H38098   9.597   7.457   8.580 -0.5767  1.7565 -0.0060
  289MOL0     H38099   9.754   7.638   8.376  0.7310  0.2074  0.4194
  289MOL0     H38100   9.608   7.668   8.470 -1.1900 -2.0203  1.5569
  289MOL0     H38101   9.390   7.469   8.421  1.4577 -1.7802  1.2803
  289MOL0     H38102   9.256   7.294   8.267 -2.0056  1.4107 -0.1127
  289MOL0     H38103   9.354   7.228   8.134  1.8728  0.8696  0.0211
  289MOL0     H38104   9.155   7.324   8.043  0.8621 -0.2932 -0.0732
  289MOL0     H38105   9.281   7.444   8.007 -2.1312  1.8235  0.4279
  289MOL0     H38106   9.081   7.466   8.240 -1.9861  2.2405 -1.0651
  289MOL0     H38107   9.208   7.583   8.187  0.1570  0.6721 -1.5363
  289MOL0     H38108   8.937   7.482   8.073  1.0019 -0.7049 -0.8165
  289MOL0     H38109   9.051   7.560   7.956  2.7584 -0.4962 -0.5230
  289MOL0     H38110   8.838   7.569   7.896  0.5647 -2.4090  4.4035
  289MOL0     H38111   8.606   7.624   7.831  0.9545  1.0977 -1.2572
  289MOL0     H38112   8.374   7.838   7.579  0.8972  1.0502  1.3579
  289MOL0     H38113   8.168   7.924   7.454  2.7694 -0.6794 -0.0942
  289MOL0     H38114   7.828   8.094   7.699  1.2231  0.2030 -0.2875
  289MOL0     H38115   7.797   7.922   7.711 -1.6665 -0.5880 -0.8254
  289MOL0     H38116   7.702   7.919   7.496 -1.2252  2.5492 -2.4720
  289MOL0     H38117   7.731   8.083   7.470  0.1236  0.2896  0.6062
  289MOL0     H38118   7.588   8.118   7.698  0.8208 -0.4696  1.0891
  289MOL0     H38119   7.542   7.955   7.677 -0.2575 -0.3946 -2.2208
  289MOL0     H38120   7.391   8.122   7.588  1.2962 -0.0091  2.2887
  289MOL0     H38121   7.501   8.164   7.456 -3.0116  2.2419  0.8280
  289MOL0     H38122   7.398   7.883   7.488 -1.0121 -0.1022 -0.7341
  289MOL0     H38123   7.513   7.945   7.362 -0.8065 -0.0376 -1.1937
  289MOL0     H38124   7.336   8.099   7.272 -0.6165  0.9718  0.8933
  289MOL0     H38125   7.223   8.063   7.398 -0.2349  1.1617 -0.5866
  289MOL0     H38126   7.303   7.870   7.179 -0.7615  0.4360 -0.1259
  289MOL0     H38127   7.222   7.819   7.325  0.8756 -1.4981 -2.5178
  289MOL0     H38128   7.104   8.008   7.108 -0.7448 -1.5979 -2.4762
  289MOL0     H38129   7.032   7.974   7.268  0.5373  1.4423 -0.3985
  289MOL0     H38130   7.978   7.912   7.850  1.4807  0.0622  1.8518
  289MOL0     H38131   8.162   7.843   7.947  0.9364 -0.1733  0.1296
  289MOL0     H38132   8.615   7.959   8.092 -2.0732 -0.4936 -0.8131
  289MOL0     H38133   8.853   7.889   8.170  0.8757 -3.5977  1.5144
  289MOL0     H38134  10.549   7.366   8.749  2.7712 -3.4897  0.1210
  289MOL0     H38135  10.784   7.317   8.743  0.7483 -0.2707 -0.3186
  289MOL0     H38136  11.276   7.427   8.915 -0.8251 -0.2942 -0.4966
  289MOL0     H38137  11.478   7.350   8.895 -1.3391  1.0656  0.2915
  289MOL0     H38138  11.669   7.353   8.839  0.1071  1.9632 -2.3027
  289MOL0     H38139  11.774   7.336   8.707  0.3101 -0.4300 -0.1015
  289MOL0     H38140  11.817   7.159   8.914  0.3503  2.8272 -0.5685
  289MOL0     H38141  11.665   7.087   8.863  0.3491  0.1384  1.5827
  289MOL0     H38142  11.786   7.061   8.639 -0.9065  0.8699 -0.2358
  289MOL0     H38143  11.850   6.963   8.778  0.5827  0.4468  1.7226
  289MOL0     H38144  11.967   7.228   8.656 -0.5048 -0.8781 -0.2030
  289MOL0     H38145  12.014   7.156   8.810 -1.0988  2.0464  0.2455
  289MOL0     H38146  12.215   6.902   8.562  1.1028  2.5417 -2.5513
  289MOL0     H38147  11.422   7.259   8.483  4.2598 -0.9450  3.6915
  289MOL0     H38148  11.181   7.354   8.500 -0.6609 -2.1958 -0.2694
  290MOL0     O38149   9.147   9.345   2.515 -0.2562  0.3324 -0.4310
  290MOL0     C38150   9.173   9.225   2.502 -0.4164 -0.1157 -0.5976
  290MOL0     O38151   9.081   9.124   2.474 -0.9089 -0.1938 -0.6402
  290MOL0     C38152   8.945   9.137   2.507 -0.7843 -0.5219  0.2377
  290MOL0     C38153   8.891   9.044   2.592  0.4019 -0.0657 -0.3709
  290MOL0     C38154   8.750   9.054   2.634  0.2324  0.0159  0.6495
  290MOL0     C38155   8.665   9.150   2.575 -0.8111  0.1678 -0.1239
  290MOL0     O38156   8.524   9.157   2.582  0.8366  0.3208  0.0895
  290MOL0     C38157   8.474   9.106   2.703  0.7399  0.4430  0.0451
  290MOL0     C38158   8.329   9.146   2.711  0.1241  0.6289 -0.0643
  290MOL0     C38159   8.269   9.145   2.861  0.2487  0.1290 -0.4654
  290MOL0     C38160   8.122   9.178   2.861  1.1543  0.8113 -0.4431
  290MOL0     C38161   8.032   9.045   2.897 -0.3162  0.2637 -0.0317
  290MOL0     C38162   8.036   8.931   2.795 -0.3618 -0.7729  0.6298
  290MOL0     C38163   7.963   8.798   2.819  0.1300  0.3110 -0.8478
  290MOL0     C38164   8.013   8.722   2.946  0.1021 -1.1401  0.0109
  290MOL0     N38165   8.161   8.702   2.938 -0.3717  0.2790 -0.1285
  290MOL0     C38166   8.228   8.621   2.846  0.8570 -0.3663  0.4174
  290MOL0     C38167   8.362   8.658   2.852  0.6935 -0.4558  0.6818
  290MOL0     C38168   8.468   8.625   2.753 -0.5949  0.4748  0.2992
  290MOL0     C38169   8.601   8.607   2.828  0.1986 -0.2687  0.4062
  290MOL0     C38170   8.719   8.619   2.718  0.1339  0.1061  0.9464
  290MOL0     C38171   8.853   8.596   2.789 -0.2413  0.0398  0.4875
  290MOL0     O38172   8.949   8.613   2.689  0.2661 -0.0464 -0.2006
  290MOL0     C38173   9.075   8.621   2.733 -0.0728 -0.0809  0.4367
  290MOL0     C38174   9.117   8.617   2.874 -0.5797 -0.8688 -0.3894
  290MOL0     C38175   9.250   8.616   2.904 -0.1709  0.3964  0.2996
  290MOL0     C38176   9.354   8.631   2.803  0.3913  0.7178  0.5056
  290MOL0     C38177   9.497   8.616   2.824  0.1940  0.7452 -0.9829
  290MOL0     O38178   9.583   8.628   2.724  0.4276  0.5816  0.4329
  290MOL0     C38179   9.715   8.629   2.727 -0.3794 -0.0418 -0.4912
  290MOL0     C38180   9.770   8.732   2.642 -0.5192  0.6462 -0.5362
  290MOL0     C38181   9.912   8.746   2.626 -0.8968 -0.6986  0.0218
  290MOL0     C38182  10.000   8.645   2.681  0.6012  0.6540 -0.6331
  290MOL0     O38183  10.126   8.651   2.643  0.0413 -0.1867 -0.4551
  290MOL0     C38184  10.194   8.523   2.630  0.1272 -0.0182  0.2534
  290MOL0     C38185  10.325   8.578   2.563 -0.4979  0.3847  0.3776
  290MOL0     C38186  10.419   8.463   2.511 -0.2882 -0.0804 -0.5225
  290MOL0     C38187  10.514   8.395   2.608 -0.1082 -0.3394 -0.2034
  290MOL0     C38188  10.658   8.390   2.575 -0.7669 -0.1098 -0.8726
  290MOL0     C38189  10.682   8.281   2.472 -0.0863  0.1134  0.4731
  290MOL0     C38190  10.827   8.257   2.421 -0.8664 -0.1578 -0.0513
  290MOL0     C38191  10.894   8.371   2.359  1.2363  0.4483  0.8448
  290MOL0    Cl38192  10.982   8.469   2.480 -0.1535  0.1699  0.1872
  290MOL0     C38193   9.946   8.546   2.759  0.1523  0.5476 -0.7077
  290MOL0     C38194   9.804   8.541   2.798 -0.3980 -0.3816 -0.3598
  290MOL0     O38195   9.535   8.604   2.942 -1.0712 -0.1182  0.3659
  290MOL0     C38196   9.304   8.647   2.667  0.4038 -0.1411 -0.2725
  290MOL0     C38197   9.171   8.644   2.634 -0.4240  0.3246  0.4715
  290MOL0     N38198   8.375   8.752   2.959 -0.0696  0.8375  0.4874
  290MOL0     N38199   8.254   8.774   3.007 -0.0423 -0.2266 -0.1033
  290MOL0     C38200   8.727   9.242   2.499  0.1912 -0.6768 -1.5179
  290MOL0     C38201   8.865   9.242   2.471 -0.0735 -0.7294 -0.1760
  290MOL0     C38202   9.317   9.182   2.525  0.2215 -0.9605 -0.4664
  290MOL0     C38203   9.417   9.282   2.551 -0.7151  0.0149  0.7805
  290MOL0     C38204   9.554   9.236   2.578 -0.0109 -0.0074 -0.4936
  290MOL0     C38205   9.590   9.095   2.568  0.0399  0.7381 -0.4036
  290MOL0     O38206   9.717   9.046   2.586 -0.4819 -0.4327 -0.1314
  290MOL0     C38207   9.833   9.129   2.549  0.4059  0.0095  0.5916
  290MOL0     C38208   9.918   9.175   2.662  0.0309  0.2058 -0.3334
  290MOL0     C38209   9.984   9.069   2.755  0.4172 -0.3328 -0.0374
  290MOL0     C38210  10.063   9.151   2.861 -0.2476 -0.5628  0.1847
  290MOL0     C38211  10.185   9.203   2.799  0.0136 -0.1516  0.0446
  290MOL0     C38212  10.284   9.253   2.759 -1.0458  0.4954  0.5956
  290MOL0     C38213   9.482   9.010   2.533 -1.1168  0.2646 -1.1311
  290MOL0     C38214   9.351   9.045   2.513  0.5343  0.0765 -0.9222
  290MOL0     H38215   8.955   8.961   2.618  0.4672  0.4245  1.1517
  290MOL0     H38216   8.707   8.975   2.695 -3.5127  1.2936 -0.0107
  290MOL0     H38217   8.514   9.148   2.796 -0.7757 -0.7311  1.2709
  290MOL0     H38218   8.473   8.997   2.700 -1.1378  0.3243  1.9480
  290MOL0     H38219   8.281   9.079   2.639  0.8550  1.2342 -1.1468
  290MOL0     H38220   8.318   9.248   2.674  3.3795  0.7309 -1.1233
  290MOL0     H38221   8.329   9.215   2.920  2.2321 -0.2282 -1.9414
  290MOL0     H38222   8.286   9.045   2.902  1.0686  1.3093  2.2630
  290MOL0     H38223   8.103   9.263   2.926 -2.1460  1.4538 -2.0695
  290MOL0     H38224   8.095   9.216   2.762  1.9308  1.6174 -0.3537
  290MOL0     H38225   7.929   9.079   2.915 -0.3041  0.5604 -0.4752
  290MOL0     H38226   8.070   9.010   2.993 -1.0539  1.2416  0.6425
  290MOL0     H38227   8.140   8.905   2.773 -0.2359 -0.9121  1.3709
  290MOL0     H38228   7.992   8.967   2.702 -0.7028  2.6301  1.9776
  290MOL0     H38229   7.854   8.810   2.821  0.0943  0.2587 -1.8813
  290MOL0     H38230   7.979   8.743   2.725 -0.2677  0.1514 -0.8258
  290MOL0     H38231   7.969   8.622   2.951 -2.4101 -0.1246 -0.2202
  290MOL0     H38232   7.993   8.779   3.038  0.6771  3.9245 -2.6424
  290MOL0     H38233   8.187   8.549   2.776 -0.4042  3.1603 -2.8359
  290MOL0     H38234   8.466   8.712   2.687  0.5396  1.0718  1.0055
  290MOL0     H38235   8.447   8.540   2.688 -1.6752  0.8128  0.1811
  290MOL0     H38236   8.615   8.508   2.872  1.8378 -0.5761 -0.7227
  290MOL0     H38237   8.614   8.676   2.912  0.6106  0.1736 -0.0202
  290MOL0     H38238   8.708   8.556   2.629  3.1722  0.2326  0.3626
  290MOL0     H38239   8.725   8.720   2.677  3.2132  1.1525  3.5819
  290MOL0     H38240   8.853   8.494   2.829 -0.1150 -1.0598 -2.1514
  290MOL0     H38241   8.863   8.677   2.862 -0.5702 -1.3286  2.1109
  290MOL0     H38242   9.051   8.586   2.955 -0.9969  0.8955 -0.0042
  290MOL0     H38243   9.279   8.625   3.008  0.4345 -0.3875  0.2086
  290MOL0     H38244   9.700   8.803   2.599 -1.4976 -0.4196 -0.7544
  290MOL0     H38245   9.944   8.829   2.563 -1.6995 -1.0865 -0.9111
  290MOL0     H38246  10.147   8.461   2.553 -0.5973  0.5514  0.2226
  290MOL0     H38247  10.216   8.469   2.723  2.1432  0.5723  0.1625
  290MOL0     H38248  10.385   8.634   2.635 -1.7069  0.4559  1.3593
  290MOL0     H38249  10.299   8.641   2.478 -1.3343 -0.3323  0.0838
  290MOL0     H38250  10.481   8.492   2.426 -1.0734 -3.9535 -2.6313
  290MOL0     H38251  10.358   8.381   2.472  0.4457 -1.8284  1.7927
  290MOL0     H38252  10.500   8.442   2.706  2.2187 -1.0323  0.5078
  290MOL0     H38253  10.482   8.291   2.623 -0.8781 -0.4093 -2.0506
  290MOL0     H38254  10.719   8.366   2.663  0.4974  1.9598 -1.1287
  290MOL0     H38255  10.697   8.490   2.555 -1.3122 -0.2673 -2.8409
  290MOL0     H38256  10.616   8.281   2.384 -1.2183 -0.5637  1.2809
  290MOL0     H38257  10.658   8.187   2.523  0.3558 -0.3348 -0.1387
  290MOL0     H38258  10.895   8.242   2.505  0.9019 -0.3333 -1.4389
  290MOL0     H38259  10.824   8.170   2.354 -2.8122  1.6652 -2.5182
  290MOL0     H38260  10.837   8.430   2.288  2.2946  0.3193 -0.1419
  290MOL0     H38261  10.971   8.333   2.291 -1.0375 -1.6388 -0.7159
  290MOL0     H38262  10.015   8.480   2.811 -1.4078 -1.7905 -1.4001
  290MOL0     H38263   9.775   8.471   2.876  1.7237 -0.7734  0.1549
  290MOL0     H38264   9.370   8.666   2.583  1.9116 -1.3177  0.6046
  290MOL0     H38265   9.130   8.671   2.537 -0.8652  0.7235  0.7638
  290MOL0     H38266   8.668   9.324   2.459 -1.1308 -0.1683  1.2939
  290MOL0     H38267   8.909   9.320   2.409 -1.2641 -1.1843 -1.6717
  290MOL0     H38268   9.391   9.387   2.568 -1.0541  0.2035 -0.7843
  290MOL0     H38269   9.624   9.309   2.616  0.9032 -2.6943  3.4909
  290MOL0     H38270   9.813   9.221   2.493 -1.8924 -1.3381 -0.9698
  290MOL0     H38271   9.896   9.072   2.480 -1.9365 -0.3090 -1.3994
  290MOL0     H38272  10.001   9.237   2.628  1.2647 -0.7315  0.8536
  290MOL0     H38273   9.847   9.230   2.724  1.0523 -1.7562  2.8056
  290MOL0     H38274  10.045   8.994   2.702 -1.4290 -2.1836  0.3092
  290MOL0     H38275   9.900   9.011   2.794  0.3760  1.4826  2.8904
  290MOL0     H38276   9.984   9.222   2.888 -1.1004 -0.7491 -1.6429
  290MOL0     H38277  10.086   9.087   2.947 -1.7131 -4.0288 -1.7933
  290MOL0     H38278  10.375   9.302   2.730 -1.2689  1.2621  1.1595
  290MOL0     H38279   9.515   8.906   2.534  0.2881  0.6604  1.1374
  290MOL0     H38280   9.275   8.971   2.491 -1.8702  1.9699  0.6535
  291MOL0     O38281   0.115   0.673   7.320 -0.3721 -0.3883  0.6866
  291MOL0     C38282   0.165   0.786   7.312 -0.6513  0.0879 -0.7187
  291MOL0     O38283   0.095   0.898   7.270  0.2471  0.2321 -0.5609
  291MOL0     C38284  -0.029   0.880   7.233  0.1748 -0.6939 -0.3500
  291MOL0     C38285  -0.133   0.869   7.324  0.2060  0.3443  0.0052
  291MOL0     C38286  -0.259   0.826   7.293 -0.0289 -0.2854  0.6158
  291MOL0     C38287  -0.296   0.818   7.162 -0.8624 -0.5501 -0.2470
  291MOL0     O38288  -0.423   0.775   7.131  0.2069 -0.2988 -0.5718
  291MOL0     C38289  -0.475   0.792   7.003  1.2668  0.0807 -0.3614
  291MOL0     C38290  -0.621   0.743   6.999 -0.4329  0.1122  0.3942
  291MOL0     C38291  -0.691   0.766   6.863 -0.0491 -0.0054 -1.3201
  291MOL0     C38292  -0.825   0.689   6.873  0.2226  1.1582 -0.4289
  291MOL0     C38293  -0.905   0.690   6.740 -0.3479  0.2843 -0.3362
  291MOL0     C38294  -1.007   0.579   6.741  0.1693  0.0943 -0.6140
  291MOL0     C38295  -1.107   0.586   6.632  0.1352  0.4638 -0.3368
  291MOL0     C38296  -1.064   0.501   6.513 -0.4582 -0.2498  1.3086
  291MOL0     N38297  -1.165   0.489   6.411 -0.0193  0.1812  0.4173
  291MOL0     C38298  -1.229   0.608   6.364  0.5050  1.2112  0.2971
  291MOL0     C38299  -1.283   0.565   6.243  0.0668  0.4729  1.0520
  291MOL0     C38300  -1.362   0.653   6.152 -0.0599 -0.5271  0.4921
  291MOL0     C38301  -1.492   0.694   6.213  0.0363  0.8040 -0.1314
  291MOL0     C38302  -1.566   0.796   6.124  0.0722  0.2730  0.0953
  291MOL0     C38303  -1.684   0.867   6.194 -0.2224  0.0290  0.4708
  291MOL0     O38304  -1.629   0.984   6.258 -0.3158 -0.4786 -0.2580
  291MOL0     C38305  -1.713   1.064   6.329 -0.5299 -0.3545  0.1704
  291MOL0     C38306  -1.657   1.190   6.365  0.3962  1.2471 -0.1773
  291MOL0     C38307  -1.720   1.279   6.447 -0.4211  0.2617 -0.2036
  291MOL0     C38308  -1.853   1.242   6.482 -0.6124  0.2263 -0.4179
  291MOL0     C38309  -1.927   1.327   6.575 -0.2873  0.1959  0.7233
  291MOL0     O38310  -2.038   1.273   6.633  0.5679 -0.2223 -0.2258
  291MOL0     C38311  -2.113   1.361   6.707 -0.4865 -0.1751 -0.6874
  291MOL0     C38312  -2.116   1.349   6.846  0.2916  0.0958 -0.1142
  291MOL0     C38313  -2.192   1.440   6.919 -0.5819  0.5719  0.3819
  291MOL0     C38314  -2.254   1.550   6.862  0.2429 -0.2859  0.7441
  291MOL0     O38315  -2.322   1.633   6.958 -0.2467  0.1859  0.3195
  291MOL0     C38316  -2.414   1.736   6.910  0.0774 -0.4867 -0.4400
  291MOL0     C38317  -2.462   1.820   7.020  0.6244  0.1430  1.0890
  291MOL0     C38318  -2.347   1.895   7.073 -0.0928 -0.0336  0.0295
  291MOL0     C38319  -2.392   1.960   7.205 -0.8497  0.5403  1.1876
  291MOL0     C38320  -2.272   2.020   7.266 -0.4551 -0.4219 -0.7350
  291MOL0     C38321  -2.314   2.114   7.381  0.1138  0.2115  0.3715
  291MOL0     C38322  -2.188   2.192   7.432  0.0482 -0.2097  0.0913
  291MOL0     C38323  -2.212   2.309   7.540  0.1412  0.9943 -0.5402
  291MOL0    Cl38324  -2.312   2.240   7.679  0.0370 -0.1594 -0.3444
  291MOL0     C38325  -2.243   1.567   6.723  0.2962 -0.3981  0.5626
  291MOL0     C38326  -2.172   1.475   6.646  0.6356  0.2098 -0.7439
  291MOL0     O38327  -1.880   1.438   6.601  0.1110  0.3218 -0.2068
  291MOL0     C38328  -1.908   1.118   6.452  0.6946  0.3595  0.0243
  291MOL0     C38329  -1.839   1.026   6.370  0.1238 -0.4488 -0.0124
  291MOL0     N38330  -1.264   0.427   6.222 -0.0414 -0.4731  0.3335
  291MOL0     N38331  -1.193   0.386   6.328 -0.2044  0.1988 -0.3531
  291MOL0     C38332  -0.198   0.849   7.063  0.0428  0.5650  0.4324
  291MOL0     C38333  -0.065   0.879   7.099  0.3706 -0.9551 -0.5040
  291MOL0     C38334   0.311   0.787   7.318  0.0660 -0.5128  0.1005
  291MOL0     C38335   0.380   0.887   7.258  0.5497 -0.2444 -0.0331
  291MOL0     C38336   0.521   0.904   7.263 -0.1147 -0.2938  0.7949
  291MOL0     C38337   0.597   0.810   7.332 -0.8792  0.7414  0.1474
  291MOL0     O38338   0.737   0.800   7.324  0.2924 -0.5338 -0.7569
  291MOL0     C38339   0.798   0.872   7.218  0.8800 -0.2086  0.9645
  291MOL0     C38340   0.947   0.856   7.215 -0.2450  0.2070  0.0136
  291MOL0     C38341   1.024   0.968   7.141  0.0587  0.8801 -0.4583
  291MOL0     C38342   1.165   0.961   7.188 -1.1679  0.6581  0.2609
  291MOL0     C38343   1.231   0.844   7.133 -0.4416  1.3733  0.1811
  291MOL0     C38344   1.289   0.761   7.067 -0.2514  0.6261  0.6575
  291MOL0     C38345   0.533   0.709   7.398  1.1224  0.3194 -0.0595
  291MOL0     C38346   0.392   0.697   7.393 -0.0746 -0.5013  0.1957
  291MOL0     H38347  -0.103   0.878   7.428  0.7695  2.8754 -0.3142
  291MOL0     H38348  -0.321   0.802   7.378  3.4936 -1.7810  2.9815
  291MOL0     H38349  -0.424   0.749   6.916  0.7268  1.3027 -1.3141
  291MOL0     H38350  -0.469   0.896   6.969  1.9613  0.9199  2.0807
  291MOL0     H38351  -0.674   0.790   7.083 -0.5671 -0.1423  0.4548
  291MOL0     H38352  -0.613   0.636   7.022 -2.0831  0.0463  0.7715
  291MOL0     H38353  -0.627   0.729   6.782  0.9547  3.8113 -2.4690
  291MOL0     H38354  -0.705   0.871   6.838  0.9098  0.2352 -0.9260
  291MOL0     H38355  -0.807   0.588   6.911 -3.5089 -0.1204 -1.6489
  291MOL0     H38356  -0.892   0.733   6.946 -0.2834 -0.0629 -0.1242
  291MOL0     H38357  -0.840   0.680   6.653 -0.4967 -3.9230 -0.1979
  291MOL0     H38358  -0.963   0.781   6.727  1.6635  1.6703  0.0441
  291MOL0     H38359  -1.063   0.576   6.835  0.5041 -3.4820 -0.3587
  291MOL0     H38360  -0.959   0.480   6.735  0.5942  0.3230 -0.9979
  291MOL0     H38361  -1.210   0.559   6.655  0.2534  0.5636  0.3171
  291MOL0     H38362  -1.113   0.692   6.604  2.3625  1.2495  1.8423
  291MOL0     H38363  -1.038   0.405   6.558  2.4960 -0.5417 -0.7070
  291MOL0     H38364  -0.972   0.541   6.470 -1.1183 -1.1000 -1.0707
  291MOL0     H38365  -1.236   0.708   6.404 -0.1808  1.5438 -0.6208
  291MOL0     H38366  -1.382   0.605   6.056  2.5439 -1.0030  0.0931
  291MOL0     H38367  -1.297   0.738   6.129 -0.1204 -0.5713  0.1601
  291MOL0     H38368  -1.478   0.736   6.313  0.3235  0.1806  0.0921
  291MOL0     H38369  -1.547   0.600   6.220  2.0360 -0.5167 -1.1716
  291MOL0     H38370  -1.510   0.882   6.087 -2.3798  2.0128  0.1505
  291MOL0     H38371  -1.600   0.749   6.032  0.8774  1.4299 -0.8197
  291MOL0     H38372  -1.733   0.801   6.266 -1.2191 -0.1218 -0.3267
  291MOL0     H38373  -1.752   0.891   6.112  0.1298 -0.0627  0.1471
  291MOL0     H38374  -1.554   1.209   6.337 -0.4175  3.4099 -1.9739
  291MOL0     H38375  -1.672   1.370   6.480  0.3900 -0.0423 -0.5204
  291MOL0     H38376  -2.051   1.280   6.899  1.1052 -0.3942 -1.6839
  291MOL0     H38377  -2.204   1.418   7.024  0.6419 -1.5538  0.1458
  291MOL0     H38378  -2.500   1.689   6.860 -1.2143  2.1423 -0.8708
  291MOL0     H38379  -2.369   1.796   6.830  0.8528  0.8217  0.9418
  291MOL0     H38380  -2.505   1.744   7.086 -0.7396 -0.9858 -1.0018
  291MOL0     H38381  -2.543   1.883   6.982  0.7776 -0.5367 -0.4501
  291MOL0     H38382  -2.329   1.962   6.989 -3.0283  0.3516 -0.3924
  291MOL0     H38383  -2.262   1.828   7.090 -0.4360 -0.1934  1.2249
  291MOL0     H38384  -2.478   2.026   7.199  0.4814  2.4480  2.1592
  291MOL0     H38385  -2.423   1.880   7.274  2.0522  0.7164  2.8498
  291MOL0     H38386  -2.210   2.084   7.202  1.8310  0.9398  2.5476
  291MOL0     H38387  -2.206   1.937   7.292 -1.3960 -2.1451 -3.4834
  291MOL0     H38388  -2.358   2.060   7.465 -1.5143  0.3234 -0.3724
  291MOL0     H38389  -2.399   2.177   7.353 -1.5545 -0.8490  2.7708
  291MOL0     H38390  -2.118   2.120   7.476  1.2966 -0.0992 -1.6261
  291MOL0     H38391  -2.134   2.231   7.345  0.6464 -1.6537 -0.2156
  291MOL0     H38392  -2.261   2.397   7.498  0.0987  0.9940 -0.4919
  291MOL0     H38393  -2.116   2.344   7.580  0.6786 -1.4361  0.4825
  291MOL0     H38394  -2.288   1.656   6.682 -0.6391 -2.1837 -2.5789
  291MOL0     H38395  -2.140   1.498   6.545  3.4923  0.9423  0.2333
  291MOL0     H38396  -2.013   1.101   6.476  1.0163 -0.5397  0.8755
  291MOL0     H38397  -1.880   0.933   6.333  3.7363 -1.2779 -2.4572
  291MOL0     H38398  -0.217   0.849   6.956  1.9541  0.2778  0.0448
  291MOL0     H38399   0.010   0.912   7.028 -1.9735  5.1062 -0.7503
  291MOL0     H38400   0.320   0.952   7.194  0.9091 -0.6800 -0.8129
  291MOL0     H38401   0.561   0.982   7.199 -1.6924  0.2066  0.3872
  291MOL0     H38402   0.771   0.977   7.225  3.6761  0.5755  1.2313
  291MOL0     H38403   0.759   0.830   7.125  0.9001 -0.1895  0.9476
  291MOL0     H38404   0.983   0.857   7.318 -2.7130 -0.7070  0.9411
  291MOL0     H38405   0.974   0.761   7.167 -0.9162 -0.0739  0.1901
  291MOL0     H38406   0.981   1.062   7.177 -2.1263 -0.3453  0.3493
  291MOL0     H38407   1.005   0.959   7.034  1.5237  1.1731 -0.7559
  291MOL0     H38408   1.215   1.050   7.150 -1.4708  0.6731 -0.1124
  291MOL0     H38409   1.178   0.966   7.296  0.2818  1.4854  0.0821
  291MOL0     H38410   1.342   0.692   7.005  0.1264  2.0910 -0.6849
  291MOL0     H38411   0.590   0.629   7.444  2.0723 -0.8090 -2.9656
  291MOL0     H38412   0.349   0.607   7.436 -1.6775  0.2419  0.2240
  292MOL0     O38413   4.048   2.469   8.271 -0.4851  0.0004  0.3030
  292MOL0     C38414   4.025   2.477   8.389  0.1704  0.4263 -0.7078
  292MOL0     O38415   4.122   2.504   8.486  0.0722 -0.3712 -0.8649
  292MOL0     C38416   4.247   2.535   8.452 -0.4154 -0.7448  0.2161
  292MOL0     C38417   4.326   2.465   8.360 -0.1177 -0.2401 -0.4940
  292MOL0     C38418   4.465   2.497   8.355 -0.4066 -0.4136 -0.3372
  292MOL0     C38419   4.527   2.603   8.432 -0.0954 -0.8148  0.0526
  292MOL0     O38420   4.663   2.639   8.445  0.7558  0.1459 -0.1777
  292MOL0     C38421   4.745   2.544   8.378 -0.0522 -0.2847  0.2602
  292MOL0     C38422   4.882   2.559   8.424 -0.3568  0.3553 -0.1748
  292MOL0     C38423   4.887   2.521   8.581 -0.1055  0.1897  0.3256
  292MOL0     C38424   5.039   2.500   8.606  0.5510 -0.6493  0.7013
  292MOL0     C38425   5.125   2.614   8.553 -0.3155  0.3533 -0.6061
  292MOL0     C38426   5.267   2.627   8.611 -0.0352 -0.7412 -0.1647
  292MOL0     C38427   5.333   2.740   8.532 -0.3481 -0.1674 -0.1614
  292MOL0     C38428   5.467   2.774   8.598  0.8113  0.6691 -0.4300
  292MOL0     N38429   5.554   2.660   8.620 -0.8341 -0.2301 -0.1045
  292MOL0     C38430   5.553   2.577   8.724  0.9001  0.4669  0.0042
  292MOL0     C38431   5.654   2.493   8.694  0.4143  0.6845 -0.3117
  292MOL0     C38432   5.689   2.372   8.769  0.1739  0.6755  0.2516
  292MOL0     C38433   5.708   2.398   8.921  0.3675 -0.5934 -0.2327
  292MOL0     C38434   5.724   2.253   8.989 -0.9073  0.2682 -0.5205
  292MOL0     C38435   5.769   2.275   9.135 -0.9472  0.2118  0.3036
  292MOL0     O38436   5.665   2.300   9.231  0.2649  0.1824  0.2080
  292MOL0     C38437   5.582   2.197   9.264  0.1735  0.2596 -0.5977
  292MOL0     C38438   5.625   2.071   9.299 -0.5951  0.3568 -0.2197
  292MOL0     C38439   5.543   1.970   9.345  0.8883 -0.0727  0.1021
  292MOL0     C38440   5.401   1.992   9.361  0.5023  0.6121 -0.3154
  292MOL0     C38441   5.307   1.882   9.399  0.0278  0.1233 -0.5250
  292MOL0     O38442   5.178   1.916   9.432 -0.7972 -0.5188 -0.1290
  292MOL0     C38443   5.091   1.838   9.497 -0.2416  0.5320 -0.3509
  292MOL0     C38444   5.139   1.776   9.621  1.0210 -0.2075 -0.2100
  292MOL0     C38445   5.059   1.697   9.703  0.3162 -0.1717  0.9454
  292MOL0     C38446   4.929   1.672   9.654  0.4674 -0.1228 -0.1909
  292MOL0     O38447   4.838   1.584   9.712 -0.3328  0.2920  0.1080
  292MOL0     C38448   4.887   1.480   9.802  0.4672  0.0607 -0.0001
  292MOL0     C38449   4.805   1.352   9.783  0.8181  0.1185  0.3440
  292MOL0     C38450   4.657   1.379   9.830  0.3296  0.4428  0.5382
  292MOL0     C38451   4.570   1.255   9.795 -0.0379  0.3767  0.0245
  292MOL0     C38452   4.436   1.263   9.868 -0.4872  0.0076  0.7113
  292MOL0     C38453   4.332   1.186   9.786 -0.0658  0.1865  0.2339
  292MOL0     C38454   4.194   1.238   9.823 -0.4235 -0.3717  1.4016
  292MOL0     C38455   4.083   1.139   9.779 -0.1757 -0.3382 -0.6211
  292MOL0    Cl38456   3.920   1.201   9.763 -0.1541  0.0832  0.0998
  292MOL0     C38457   4.872   1.726   9.540  0.2755 -0.1514 -0.7981
  292MOL0     C38458   4.956   1.811   9.467 -0.4440 -0.1701  0.3366
  292MOL0     O38459   5.348   1.765   9.383 -0.6074 -0.9997 -0.2730
  292MOL0     C38460   5.361   2.121   9.329  0.7627  0.4014  0.8606
  292MOL0     C38461   5.444   2.218   9.279  0.3918 -0.0866 -0.7578
  292MOL0     N38462   5.717   2.529   8.576  0.3832 -0.1600 -0.2098
  292MOL0     N38463   5.649   2.631   8.526 -0.5130 -0.4764 -1.8369
  292MOL0     C38464   4.441   2.679   8.512 -0.4078 -0.1968 -0.0700
  292MOL0     C38465   4.310   2.638   8.519  0.6648 -0.6361 -0.1181
  292MOL0     C38466   3.900   2.423   8.448 -0.6209  0.2850 -0.0666
  292MOL0     C38467   3.847   2.497   8.552  0.1471  0.7459  0.2101
  292MOL0     C38468   3.728   2.457   8.614 -0.0729  0.7972  0.2960
  292MOL0     C38469   3.661   2.341   8.584  0.3222 -0.0226  0.1005
  292MOL0     O38470   3.560   2.305   8.667  0.0800  0.1406 -0.0671
  292MOL0     C38471   3.476   2.195   8.625 -0.1367  0.4626  0.2751
  292MOL0     C38472   3.352   2.206   8.718  0.4666 -0.1407  0.6699
  292MOL0     C38473   3.376   2.142   8.854 -0.7690  0.0387  0.9436
  292MOL0     C38474   3.238   2.137   8.920  0.2757  0.5025 -1.1655
  292MOL0     C38475   3.247   2.102   9.070  0.0290  0.2665  0.4488
  292MOL0     C38476   3.238   2.057   9.183 -0.6058  0.5919  0.8507
  292MOL0     C38477   3.716   2.266   8.480  0.1302 -1.1794  0.1975
  292MOL0     C38478   3.823   2.309   8.396 -0.4660  0.2691  0.0246
  292MOL0     H38479   4.286   2.382   8.303  0.7562  0.0850 -1.6212
  292MOL0     H38480   4.518   2.446   8.275 -0.1716 -2.7242  1.1817
  292MOL0     H38481   4.738   2.543   8.269 -0.0129  0.0018  0.2536
  292MOL0     H38482   4.722   2.439   8.397  3.3958 -1.7099 -2.4121
  292MOL0     H38483   4.930   2.654   8.401 -0.1243  0.4002  0.4984
  292MOL0     H38484   4.942   2.480   8.378 -1.2074  0.2059 -1.0663
  292MOL0     H38485   4.823   2.434   8.600 -0.1425  0.2875  0.6516
  292MOL0     H38486   4.850   2.590   8.657  1.8615 -0.8939  2.3890
  292MOL0     H38487   5.064   2.483   8.711 -1.8494 -1.0008  1.2882
  292MOL0     H38488   5.066   2.403   8.564  0.3837 -0.7638  0.8573
  292MOL0     H38489   5.078   2.711   8.570  0.4250  0.7423 -0.7471
  292MOL0     H38490   5.132   2.589   8.446 -2.6623 -3.0447 -0.1330
  292MOL0     H38491   5.330   2.539   8.595  1.6096  0.5738 -1.3000
  292MOL0     H38492   5.256   2.651   8.717 -0.7083  1.4825 -0.6791
  292MOL0     H38493   5.358   2.722   8.427  2.2160 -0.1382  0.3795
  292MOL0     H38494   5.273   2.832   8.530  1.3913  1.0723  1.4187
  292MOL0     H38495   5.448   2.819   8.695 -0.9271 -0.8646  0.0048
  292MOL0     H38496   5.502   2.858   8.538 -3.9932  3.5124  0.2072
  292MOL0     H38497   5.484   2.559   8.806  0.6437 -0.0685 -0.3261
  292MOL0     H38498   5.783   2.343   8.722 -0.5150 -0.9302 -0.1711
  292MOL0     H38499   5.607   2.301   8.755 -0.4814  1.6719 -1.3140
  292MOL0     H38500   5.622   2.444   8.972  1.3251  0.2367  0.6707
  292MOL0     H38501   5.786   2.470   8.946 -0.7951  1.0237 -1.0252
  292MOL0     H38502   5.636   2.195   8.961 -0.4801  0.8087 -3.1991
  292MOL0     H38503   5.812   2.210   8.941  0.7644  0.5410  2.0547
  292MOL0     H38504   5.838   2.357   9.159 -1.9472  1.1571  0.0038
  292MOL0     H38505   5.815   2.181   9.168  1.5897  0.4563 -2.1599
  292MOL0     H38506   5.732   2.055   9.295 -0.3316  2.0049 -0.3149
  292MOL0     H38507   5.589   1.874   9.368  1.3613 -0.6561 -2.9171
  292MOL0     H38508   5.241   1.794   9.653  0.8975  3.0567 -1.2565
  292MOL0     H38509   5.094   1.664   9.800 -1.7879  0.4448  1.9840
  292MOL0     H38510   4.892   1.511   9.907  1.3841  0.8130 -0.2498
  292MOL0     H38511   4.989   1.461   9.768  1.0627  0.4300  1.4966
  292MOL0     H38512   4.844   1.273   9.849 -1.5527  0.2519  2.0344
  292MOL0     H38513   4.803   1.318   9.679 -1.0298  1.1998 -0.0158
  292MOL0     H38514   4.624   1.470   9.780 -2.0486 -0.5104  0.2419
  292MOL0     H38515   4.654   1.388   9.939 -0.2685  3.2542  0.3671
  292MOL0     H38516   4.557   1.248   9.687 -1.5406  1.0441  0.1371
  292MOL0     H38517   4.629   1.166   9.820 -0.5047  0.3557  1.1275
  292MOL0     H38518   4.397   1.365   9.878 -0.6044  0.6305 -3.8904
  292MOL0     H38519   4.450   1.222   9.969  0.0509 -3.2141 -0.5288
  292MOL0     H38520   4.336   1.078   9.802 -0.2219 -0.5372 -3.6098
  292MOL0     H38521   4.343   1.200   9.678 -0.2056 -1.2726  0.0128
  292MOL0     H38522   4.185   1.266   9.929  3.1743 -1.9594  2.2746
  292MOL0     H38523   4.174   1.328   9.764 -2.8877 -2.1494 -0.7114
  292MOL0     H38524   4.078   1.058   9.851 -1.7046 -0.7990 -1.2142
  292MOL0     H38525   4.106   1.108   9.676  0.3532  2.3579 -1.4011
  292MOL0     H38526   4.769   1.706   9.512 -0.9376 -1.6314  3.8260
  292MOL0     H38527   4.918   1.863   9.379  1.0300  2.4028  1.1173
  292MOL0     H38528   5.254   2.135   9.346 -0.1717 -1.1953 -2.7083
  292MOL0     H38529   5.404   2.308   9.234 -1.2490  0.7367  2.0962
  292MOL0     H38530   4.487   2.757   8.573  0.2682  0.3593 -1.2495
  292MOL0     H38531   4.244   2.680   8.595  0.0709 -3.0371  0.7919
  292MOL0     H38532   3.906   2.584   8.581  5.3048 -2.1477 -0.3498
  292MOL0     H38533   3.675   2.522   8.683 -2.8649 -1.4012  0.3645
  292MOL0     H38534   3.519   2.095   8.627  1.0257  0.9542  0.7972
  292MOL0     H38535   3.445   2.227   8.525 -1.5400  0.8867  0.8233
  292MOL0     H38536   3.324   2.311   8.730  1.9761 -0.0215  4.6549
  292MOL0     H38537   3.271   2.143   8.678  0.0049  0.3857  0.7771
  292MOL0     H38538   3.454   2.189   8.915 -3.2154 -1.9651  6.3081
  292MOL0     H38539   3.422   2.045   8.837 -0.8764  0.5433 -3.3247
  292MOL0     H38540   3.188   2.234   8.921  3.2565  2.1583 -1.1646
  292MOL0     H38541   3.171   2.073   8.862  1.0085 -0.4086 -1.0420
  292MOL0     H38542   3.219   2.025   9.283 -0.4625  0.9488  0.9935
  292MOL0     H38543   3.670   2.171   8.454  1.4423 -1.8286  0.1720
  292MOL0     H38544   3.852   2.254   8.307 -0.3966 -2.4239  1.5966
  293MOL0     O38545   5.564   5.942   7.595  0.0571 -1.0927 -0.4676
  293MOL0     C38546   5.658   5.876   7.572  0.4774 -0.3169  0.7860
  293MOL0     O38547   5.650   5.752   7.513  0.0967 -0.9447  0.2560
  293MOL0     C38548   5.539   5.692   7.453  0.9937  0.9363 -0.1827
  293MOL0     C38549   5.577   5.585   7.369 -1.0899 -0.0927 -0.7519
  293MOL0     C38550   5.477   5.497   7.329 -0.1759 -0.1257 -0.9264
  293MOL0     C38551   5.344   5.515   7.358  0.6420 -0.1178 -0.1218
  293MOL0     O38552   5.261   5.417   7.315 -0.2670  0.1066  0.3787
  293MOL0     C38553   5.122   5.448   7.303 -0.1963 -0.4633  0.8239
  293MOL0     C38554   5.057   5.325   7.247  0.7672 -0.1572  0.3182
  293MOL0     C38555   4.902   5.346   7.233  0.8830  0.9255 -0.4352
  293MOL0     C38556   4.840   5.458   7.139 -0.3088 -0.4362  0.1861
  293MOL0     C38557   4.685   5.472   7.173  0.8663  0.3813 -0.1289
  293MOL0     C38558   4.632   5.587   7.088  0.4165 -0.0329  0.0342
  293MOL0     C38559   4.511   5.657   7.141 -0.0706  0.1432 -0.3822
  293MOL0     C38560   4.384   5.575   7.129 -0.3098 -0.4739 -1.2543
  293MOL0     N38561   4.278   5.634   7.218  0.7512 -0.0801 -0.9959
  293MOL0     C38562   4.153   5.678   7.174 -0.3170  0.4715  0.3069
  293MOL0     C38563   4.096   5.724   7.290  0.2417 -0.2933 -0.0941
  293MOL0     C38564   3.955   5.785   7.295 -0.0315 -0.2053 -0.6388
  293MOL0     C38565   3.876   5.760   7.427  0.4396  0.1576  0.6056
  293MOL0     C38566   3.795   5.626   7.413  0.1126  0.2712 -0.7011
  293MOL0     C38567   3.710   5.590   7.533  0.2576 -0.0545  0.4301
  293MOL0     O38568   3.807   5.588   7.637 -0.1216  0.4179 -0.3383
  293MOL0     C38569   3.787   5.560   7.770  0.5009  0.3832  0.1523
  293MOL0     C38570   3.660   5.544   7.827  0.3575  1.2953  0.3488
  293MOL0     C38571   3.647   5.481   7.961 -0.5924 -0.5511 -0.5979
  293MOL0     C38572   3.768   5.430   8.027 -0.2138 -0.6883  0.2141
  293MOL0     C38573   3.752   5.375   8.159  1.1989 -1.1371 -0.0026
  293MOL0     O38574   3.627   5.364   8.211  0.1400  0.3705 -0.3106
  293MOL0     C38575   3.620   5.313   8.338 -0.5148 -0.2414  0.8533
  293MOL0     C38576   3.602   5.179   8.362  0.1811  0.4396  0.1403
  293MOL0     C38577   3.624   5.126   8.486  1.0815 -0.3277  0.0209
  293MOL0     C38578   3.651   5.215   8.592 -0.0966  0.5405  0.4525
  293MOL0     O38579   3.678   5.145   8.708 -0.0066  0.4228  0.1996
  293MOL0     C38580   3.662   5.213   8.834  0.9320 -0.0789 -0.5089
  293MOL0     C38581   3.690   5.101   8.936 -0.1173 -0.5495 -0.5463
  293MOL0     C38582   3.573   4.997   8.942  0.4542 -0.6384  0.2964
  293MOL0     C38583   3.589   4.871   9.033 -0.8477 -0.5872 -0.2743
  293MOL0     C38584   3.590   4.919   9.178 -0.2591  0.6910 -0.7293
  293MOL0     C38585   3.599   4.795   9.269 -0.1772  0.6694  0.6558
  293MOL0     C38586   3.444   4.746   9.276 -0.1217  0.3141 -0.6330
  293MOL0     C38587   3.431   4.596   9.256  0.3261 -0.7421  0.3414
  293MOL0    Cl38588   3.503   4.507   9.391  0.0064  0.5377 -0.2439
  293MOL0     C38589   3.657   5.351   8.572  0.2741 -0.2365 -0.5959
  293MOL0     C38590   3.644   5.398   8.443  0.6629 -0.2106 -0.5482
  293MOL0     O38591   3.854   5.342   8.216  0.2948 -0.1403  0.4708
  293MOL0     C38592   3.894   5.447   7.960 -0.4692  0.1986 -0.2129
  293MOL0     C38593   3.903   5.518   7.842  0.3141  0.1133 -0.0558
  293MOL0     N38594   4.185   5.722   7.390 -0.2733  0.6937 -0.1302
  293MOL0     N38595   4.293   5.664   7.348 -0.1981  0.5717  0.5288
  293MOL0     C38596   5.309   5.627   7.429  0.4728 -0.3675  0.1715
  293MOL0     C38597   5.405   5.722   7.460  0.8444  0.0531 -0.1937
  293MOL0     C38598   5.799   5.906   7.627 -0.8402  0.0095  0.0922
  293MOL0     C38599   5.908   5.821   7.600 -0.6092  0.2994  1.0281
  293MOL0     C38600   6.033   5.836   7.666  0.1480 -0.3899  1.0673
  293MOL0     C38601   6.057   5.948   7.747  0.5890  0.2478 -0.3243
  293MOL0     O38602   6.170   5.974   7.815  0.4317  0.3350  0.2535
  293MOL0     C38603   6.272   5.884   7.798  0.8853  0.1221 -0.6521
  293MOL0     C38604   6.390   5.929   7.895  0.1171  0.2291 -1.7754
  293MOL0     C38605   6.490   5.818   7.915 -0.3477 -0.3121  0.2988
  293MOL0     C38606   6.577   5.804   7.794 -0.7025  0.1615 -0.4709
  293MOL0     C38607   6.655   5.932   7.769  0.4965  0.5671 -0.3103
  293MOL0     C38608   6.733   6.020   7.748 -0.1293  0.0066 -0.1132
  293MOL0     C38609   5.947   6.036   7.770 -1.0051  0.0996 -0.1231
  293MOL0     C38610   5.824   6.018   7.718 -0.1250 -0.0416  0.6455
  293MOL0     H38611   5.683   5.569   7.351 -1.0534  1.1201 -1.7282
  293MOL0     H38612   5.507   5.405   7.279  0.7460 -0.0849 -0.4658
  293MOL0     H38613   5.113   5.533   7.234 -1.0785  0.1704  1.6917
  293MOL0     H38614   5.084   5.469   7.403  0.6699  0.9544  0.8910
  293MOL0     H38615   5.047   5.253   7.329 -2.0543  1.2611  1.3703
  293MOL0     H38616   5.093   5.275   7.156 -4.3160 -1.5034 -1.3361
  293MOL0     H38617   4.859   5.376   7.329 -1.3865 -4.2080  0.4636
  293MOL0     H38618   4.851   5.254   7.204  0.9990  1.1805 -1.4769
  293MOL0     H38619   4.898   5.551   7.137 -2.9267  1.2963  0.2493
  293MOL0     H38620   4.852   5.421   7.037  1.2681  0.2165  0.1071
  293MOL0     H38621   4.672   5.482   7.281  0.3527  2.3735 -0.3456
  293MOL0     H38622   4.635   5.380   7.139  0.3020 -0.0535  1.7633
  293MOL0     H38623   4.612   5.551   6.987 -0.3080  0.7117 -0.0961
  293MOL0     H38624   4.707   5.667   7.085  0.4807 -0.0802  0.3293
  293MOL0     H38625   4.528   5.672   7.248 -1.8839 -1.8869  0.2881
  293MOL0     H38626   4.488   5.755   7.098 -1.0947  0.5793  1.0801
  293MOL0     H38627   4.413   5.479   7.173  2.8772  0.7191 -0.4595
  293MOL0     H38628   4.352   5.566   7.025  1.7126  0.0810 -1.9822
  293MOL0     H38629   4.110   5.662   7.075  1.7806 -1.2073 -0.4050
  293MOL0     H38630   3.892   5.751   7.213 -0.8216 -2.8282  0.9186
  293MOL0     H38631   3.969   5.891   7.273 -1.9612  0.0379 -0.8691
  293MOL0     H38632   3.813   5.847   7.445  1.0856  0.8793 -0.5122
  293MOL0     H38633   3.937   5.752   7.517  0.6253  2.0580  0.6768
  293MOL0     H38634   3.720   5.635   7.333 -0.1104  1.8750 -0.3431
  293MOL0     H38635   3.862   5.545   7.385  0.1073 -0.0238  0.1189
  293MOL0     H38636   3.673   5.489   7.514 -0.1759  0.6991 -3.3912
  293MOL0     H38637   3.634   5.666   7.549 -0.2545 -0.6671  0.9592
  293MOL0     H38638   3.571   5.561   7.767  1.2024 -2.2816 -2.2050
  293MOL0     H38639   3.552   5.480   8.012 -0.1929  0.8709  0.2157
  293MOL0     H38640   3.581   5.104   8.286 -0.1386 -0.4330  1.0792
  293MOL0     H38641   3.596   5.023   8.507 -1.4169 -0.0062 -1.3744
  293MOL0     H38642   3.562   5.255   8.849  0.4288 -0.2571 -3.0097
  293MOL0     H38643   3.737   5.289   8.856  2.6887 -1.5983 -1.0295
  293MOL0     H38644   3.704   5.154   9.031  0.1787 -1.4156 -0.0917
  293MOL0     H38645   3.781   5.043   8.918  0.6850  0.8393 -1.0596
  293MOL0     H38646   3.553   4.951   8.845  0.7126  0.0965 -0.1054
  293MOL0     H38647   3.483   5.046   8.980  1.0250  0.6845 -0.0322
  293MOL0     H38648   3.499   4.811   9.021 -3.1760  2.2493  1.6669
  293MOL0     H38649   3.686   4.823   9.015 -0.4820  0.0888 -0.1508
  293MOL0     H38650   3.504   4.983   9.202 -1.4071 -0.9239 -0.3387
  293MOL0     H38651   3.683   4.975   9.191  0.6449 -0.8195 -0.5528
  293MOL0     H38652   3.632   4.821   9.370 -3.2604 -0.7647  2.1847
  293MOL0     H38653   3.658   4.726   9.209 -0.6013 -0.6756  1.7579
  293MOL0     H38654   3.387   4.780   9.363  1.8807  1.1119  0.4292
  293MOL0     H38655   3.398   4.795   9.189  3.9886  2.3208 -1.9461
  293MOL0     H38656   3.476   4.572   9.160 -2.4171 -1.7946 -0.7557
  293MOL0     H38657   3.325   4.570   9.265  0.1890 -0.6369 -0.8343
  293MOL0     H38658   3.652   5.421   8.655 -1.5162  0.4807 -1.2440
  293MOL0     H38659   3.653   5.504   8.422 -1.1143  0.1521  0.3585
  293MOL0     H38660   3.984   5.407   8.006 -0.9860  1.0545  1.6537
  293MOL0     H38661   4.002   5.540   7.805  1.3868  1.4344  3.2493
  293MOL0     H38662   5.203   5.650   7.439  0.4035 -0.7857  0.4046
  293MOL0     H38663   5.368   5.804   7.519 -2.7740 -1.2935 -0.3720
  293MOL0     H38664   5.887   5.719   7.570  0.1700 -1.6060  5.9783
  293MOL0     H38665   6.112   5.764   7.647  0.4305 -0.3223  1.9287
  293MOL0     H38666   6.313   5.891   7.696 -0.2137  0.0112 -1.1136
  293MOL0     H38667   6.248   5.780   7.821  0.1888  0.5957  0.8331
  293MOL0     H38668   6.446   6.020   7.873  2.4370 -0.5298  0.5335
  293MOL0     H38669   6.339   5.944   7.990  1.0463  0.6666 -1.3305
  293MOL0     H38670   6.433   5.727   7.935 -1.5453  0.4952  0.6737
  293MOL0     H38671   6.545   5.838   8.007 -1.1749  0.1182  0.7145
  293MOL0     H38672   6.651   5.726   7.815  0.0300  0.4831 -1.7109
  293MOL0     H38673   6.519   5.764   7.710 -0.0873  0.4019 -1.0157
  293MOL0     H38674   6.807   6.094   7.725  0.4340  0.0288  1.5915
  293MOL0     H38675   5.966   6.115   7.842  2.4525  0.7001 -1.4925
  293MOL0     H38676   5.741   6.083   7.746  0.7613  2.6732 -2.3855
  294MOL0     O38677   5.763   8.103   8.442  0.3828 -0.4424  0.1472
  294MOL0     C38678   5.747   8.092   8.568 -0.7161  0.1202 -0.6649
  294MOL0     O38679   5.629   8.124   8.634 -0.1631  0.0888  0.5520
  294MOL0     C38680   5.532   8.188   8.562  1.2698 -0.5135  0.2615
  294MOL0     C38681   5.561   8.316   8.520 -0.6929  0.2210 -0.9492
  294MOL0     C38682   5.469   8.396   8.446 -0.0008 -0.2425 -0.4521
  294MOL0     C38683   5.340   8.341   8.428  0.6956 -0.2504  0.2374
  294MOL0     O38684   5.243   8.420   8.378  0.1368  0.1298 -0.0510
  294MOL0     C38685   5.133   8.437   8.460  0.4282 -0.0449 -0.3557
  294MOL0     C38686   5.006   8.394   8.380  0.4244  0.4868  0.3446
  294MOL0     C38687   4.874   8.389   8.454 -0.5936 -0.8688  0.5504
  294MOL0     C38688   4.755   8.355   8.368 -0.5431 -0.2277 -0.4312
  294MOL0     C38689   4.633   8.348   8.456 -0.3179 -0.4867  0.0933
  294MOL0     C38690   4.505   8.338   8.383  0.8325  0.0815 -0.2186
  294MOL0     C38691   4.388   8.334   8.476 -0.0586 -0.5541 -0.1677
  294MOL0     C38692   4.343   8.473   8.516  0.5303 -0.3646  0.1145
  294MOL0     N38693   4.251   8.523   8.409  0.1165  0.5033  0.5193
  294MOL0     C38694   4.121   8.491   8.381 -0.6483 -0.0510  0.1856
  294MOL0     C38695   4.092   8.566   8.271  0.0649 -0.7824 -0.4760
  294MOL0     C38696   3.949   8.574   8.215  0.1212  0.0956  0.1842
  294MOL0     C38697   3.951   8.531   8.070 -0.4646 -0.4380  0.8827
  294MOL0     C38698   3.822   8.547   8.000  0.1373 -0.6164  0.3390
  294MOL0     C38699   3.829   8.475   7.875  0.3995  0.1952 -0.2570
  294MOL0     O38700   3.712   8.527   7.802  0.4754 -0.2902  0.7336
  294MOL0     C38701   3.607   8.429   7.785 -0.3319 -0.5715 -0.0515
  294MOL0     C38702   3.629   8.291   7.757  0.2017  0.0061 -0.7594
  294MOL0     C38703   3.527   8.206   7.739  0.3770 -0.4573  0.0349
  294MOL0     C38704   3.393   8.240   7.746 -1.0163 -0.1994 -0.4284
  294MOL0     C38705   3.285   8.144   7.712  0.4008  1.1131 -0.0769
  294MOL0     O38706   3.183   8.177   7.629 -0.9816 -1.0511 -0.3934
  294MOL0     C38707   3.063   8.110   7.618  0.4917  0.0788  0.0896
  294MOL0     C38708   2.976   8.158   7.526 -0.1927  0.4672 -0.3244
  294MOL0     C38709   2.849   8.096   7.513  0.6685  0.0222  0.5510
  294MOL0     C38710   2.810   7.989   7.589 -0.7780 -0.2960  0.6441
  294MOL0     O38711   2.687   7.933   7.557  0.0181 -0.0511 -0.7264
  294MOL0     C38712   2.662   7.807   7.620 -0.2438 -0.0420  0.2283
  294MOL0     C38713   2.591   7.716   7.529  0.4424  0.5073 -0.5646
  294MOL0     C38714   2.457   7.775   7.477 -0.7750  0.1497  0.2883
  294MOL0     C38715   2.382   7.685   7.380  0.0121  0.6790  0.2688
  294MOL0     C38716   2.355   7.543   7.411  0.4208 -0.0228  0.2944
  294MOL0     C38717   2.243   7.473   7.329  0.4075  0.5394 -0.8606
  294MOL0     C38718   2.223   7.321   7.355 -0.5725  0.5378 -0.0703
  294MOL0     C38719   2.103   7.284   7.271 -0.4172  1.3052  0.3367
  294MOL0    Cl38720   2.053   7.105   7.286  0.0420  0.0678 -0.3292
  294MOL0     C38721   2.897   7.952   7.697 -0.0784 -0.0281 -0.4075
  294MOL0     C38722   3.014   8.017   7.710 -0.9659 -0.0004 -0.2667
  294MOL0     O38723   3.303   8.029   7.755  0.0231 -0.5112  0.0288
  294MOL0     C38724   3.370   8.371   7.781 -0.2925 -0.4387  0.0955
  294MOL0     C38725   3.473   8.463   7.812  0.1747  0.2819  0.3533
  294MOL0     N38726   4.203   8.644   8.246 -0.4338  0.0317 -0.8050
  294MOL0     N38727   4.288   8.630   8.331 -0.0306  0.3314  0.8584
  294MOL0     C38728   5.313   8.206   8.458 -0.3445 -0.1954 -1.0523
  294MOL0     C38729   5.412   8.133   8.527  2.0981  0.0133 -0.5814
  294MOL0     C38730   5.866   8.050   8.644  0.3273  0.9226  0.4415
  294MOL0     C38731   5.977   7.986   8.584  0.5946  0.2526  0.7046
  294MOL0     C38732   6.094   7.954   8.658  0.4972  0.0772 -0.5450
  294MOL0     C38733   6.085   7.954   8.797 -0.1663  0.9509 -0.6442
  294MOL0     O38734   6.185   7.886   8.864 -0.4878 -0.5367  0.5476
  294MOL0     C38735   6.213   7.897   9.007 -0.4322 -0.2266 -0.9069
  294MOL0     C38736   6.364   7.877   9.013  0.1467 -0.2130  0.1297
  294MOL0     C38737   6.413   7.860   9.158 -0.3822  0.2159  0.7904
  294MOL0     C38738   6.407   7.997   9.231 -0.0094 -0.7471  0.4150
  294MOL0     C38739   6.465   7.979   9.364 -0.6120 -0.0966  0.9358
  294MOL0     C38740   6.515   7.968   9.478 -0.0146 -0.3008 -0.3478
  294MOL0     C38741   5.978   8.026   8.866 -0.5526  0.3414 -0.0840
  294MOL0     C38742   5.876   8.078   8.782 -0.4039 -0.2875  0.2157
  294MOL0     H38743   5.658   8.351   8.554 -1.3107  0.1943  0.9424
  294MOL0     H38744   5.483   8.500   8.419 -1.2410  0.3081  0.8964
  294MOL0     H38745   5.125   8.538   8.502  0.5671 -0.1541 -0.0629
  294MOL0     H38746   5.142   8.374   8.549 -2.1869  1.6931  1.2803
  294MOL0     H38747   5.021   8.304   8.321 -1.5235 -0.9547  1.8943
  294MOL0     H38748   4.981   8.468   8.303  0.9492 -0.8587 -1.1567
  294MOL0     H38749   4.846   8.489   8.486  2.4710 -0.3477  1.9555
  294MOL0     H38750   4.888   8.329   8.544 -1.8413 -2.0334  0.0080
  294MOL0     H38751   4.736   8.437   8.297 -0.2133 -2.6571 -3.5374
  294MOL0     H38752   4.780   8.271   8.303  2.7414  0.5609 -0.3507
  294MOL0     H38753   4.624   8.438   8.517 -1.6152 -0.0551 -0.6904
  294MOL0     H38754   4.652   8.261   8.520  0.9276 -1.8640 -2.0355
  294MOL0     H38755   4.505   8.247   8.322 -1.2262  0.6237 -1.1113
  294MOL0     H38756   4.502   8.427   8.320 -2.6749  0.5667  0.4296
  294MOL0     H38757   4.305   8.277   8.434 -0.6622 -0.0898  0.3862
  294MOL0     H38758   4.415   8.289   8.572 -2.6620  1.6592  1.7536
  294MOL0     H38759   4.434   8.531   8.535 -0.1492  0.6164  0.4633
  294MOL0     H38760   4.289   8.489   8.610  0.1333  2.8108 -0.5662
  294MOL0     H38761   4.060   8.415   8.429 -0.1338 -1.5044 -1.3569
  294MOL0     H38762   3.922   8.679   8.225 -0.6344 -0.2662  2.4871
  294MOL0     H38763   3.873   8.516   8.269  1.3145 -1.5857  0.1499
  294MOL0     H38764   3.973   8.424   8.064 -1.8669 -0.8915  2.6547
  294MOL0     H38765   4.022   8.596   8.019 -0.6798 -1.9623 -1.4998
  294MOL0     H38766   3.744   8.508   8.065  1.6655  0.2906  2.8621
  294MOL0     H38767   3.819   8.655   7.984  1.4571 -0.5373  0.4918
  294MOL0     H38768   3.836   8.367   7.893  3.7188  0.7118  2.4564
  294MOL0     H38769   3.916   8.508   7.818  1.4320 -1.7035  0.1295
  294MOL0     H38770   3.730   8.254   7.739 -0.3432 -3.6607  2.4246
  294MOL0     H38771   3.537   8.102   7.709  1.8685 -0.2778 -0.1534
  294MOL0     H38772   3.004   8.245   7.467  2.6525 -0.2603 -0.2084
  294MOL0     H38773   2.788   8.134   7.432  3.4671  1.3553 -1.0935
  294MOL0     H38774   2.605   7.833   7.709 -2.5426  2.0132 -1.6966
  294MOL0     H38775   2.751   7.752   7.650  0.3517 -0.3979 -1.9664
  294MOL0     H38776   2.562   7.635   7.596 -4.6766  4.1225  2.3365
  294MOL0     H38777   2.658   7.696   7.445  2.5776 -1.3752  1.4447
  294MOL0     H38778   2.470   7.869   7.422 -0.2547 -0.0689  0.0284
  294MOL0     H38779   2.400   7.787   7.569  1.2816 -0.2946  1.6851
  294MOL0     H38780   2.292   7.745   7.366 -0.7914 -0.6968 -0.7136
  294MOL0     H38781   2.440   7.686   7.287 -0.1702 -1.7786  0.0657
  294MOL0     H38782   2.330   7.535   7.517 -1.2356  3.5337  0.2891
  294MOL0     H38783   2.452   7.492   7.405 -0.0167 -1.4533  3.4287
  294MOL0     H38784   2.275   7.485   7.225 -0.3905  2.2893 -0.9436
  294MOL0     H38785   2.146   7.523   7.336  0.7978  1.1421  0.5310
  294MOL0     H38786   2.316   7.270   7.331  1.3859  2.1522  3.4021
  294MOL0     H38787   2.211   7.289   7.459  0.8618  1.8319  0.5315
  294MOL0     H38788   2.136   7.298   7.167  1.2122 -4.0256 -0.1643
  294MOL0     H38789   2.026   7.358   7.296  1.0885  2.8218  0.6302
  294MOL0     H38790   2.886   7.878   7.775  1.4757  0.5336  0.4053
  294MOL0     H38791   3.087   7.985   7.784  0.2736  4.1927  0.6057
  294MOL0     H38792   3.268   8.407   7.793 -0.5831 -1.5804  1.1912
  294MOL0     H38793   3.444   8.565   7.836 -1.1163  0.1566 -0.5677
  294MOL0     H38794   5.216   8.163   8.441 -0.4210  0.1043 -1.3877
  294MOL0     H38795   5.395   8.028   8.549  3.6476  0.4184  3.3651
  294MOL0     H38796   5.969   7.960   8.479  2.4108 -1.6016  0.9792
  294MOL0     H38797   6.177   7.901   8.613 -0.5811 -1.1294 -1.1880
  294MOL0     H38798   6.163   7.819   9.065 -0.2570  1.1036  1.1806
  294MOL0     H38799   6.187   7.990   9.060  1.4105 -1.5936  2.7960
  294MOL0     H38800   6.381   7.786   8.955 -2.4197 -1.3443  0.9763
  294MOL0     H38801   6.423   7.960   8.972  0.2361 -0.9437 -1.2835
  294MOL0     H38802   6.511   7.812   9.157 -0.4946 -0.0482 -0.9818
  294MOL0     H38803   6.348   7.794   9.216  0.6371 -1.8127 -0.2727
  294MOL0     H38804   6.464   8.068   9.169  1.6883 -2.0405  0.4210
  294MOL0     H38805   6.305   8.034   9.249  1.3420  2.9517  1.4975
  294MOL0     H38806   6.545   7.957   9.580  0.0572  2.1169 -0.0546
  294MOL0     H38807   5.970   8.036   8.974 -2.3226  1.3340 -0.2620
  294MOL0     H38808   5.800   8.139   8.831  2.6475  3.0459  1.2539
  295MOL0     O38809   9.619   9.631   5.667  0.1715 -0.3196  0.0100
  295MOL0     C38810   9.697   9.658   5.572 -0.3107 -0.3309 -0.9226
  295MOL0     O38811   9.698   9.770   5.498 -0.1480  0.2170  0.6362
  295MOL0     C38812   9.600   9.861   5.528  0.6475  0.4590 -0.0690
  295MOL0     C38813   9.477   9.853   5.463  0.0129 -0.1780 -0.1483
  295MOL0     C38814   9.381   9.945   5.501  0.2196  1.6793  0.4647
  295MOL0     C38815   9.404  10.057   5.582 -0.0669 -0.0545 -0.0209
  295MOL0     O38816   9.303  10.148   5.598 -0.1282 -0.7803 -0.4875
  295MOL0     C38817   9.336  10.286   5.627  0.2609 -0.2690 -1.2041
  295MOL0     C38818   9.209  10.364   5.606  0.7346  0.1039 -0.1584
  295MOL0     C38819   9.240  10.514   5.611 -1.0210 -0.1725  0.6360
  295MOL0     C38820   9.102  10.590   5.602  0.4680  0.5726  0.6241
  295MOL0     C38821   9.121  10.730   5.656  0.4644  0.1416 -0.4958
  295MOL0     C38822   9.001  10.820   5.653 -0.5458  0.6441  0.1147
  295MOL0     C38823   8.891  10.765   5.744  0.4892  0.9412  0.3275
  295MOL0     C38824   8.809  10.881   5.817  0.0354 -0.4907  0.7399
  295MOL0     N38825   8.890  10.980   5.886  0.7337 -0.4576 -0.0083
  295MOL0     C38826   8.969  10.963   5.994  0.5052 -0.3139  0.9942
  295MOL0     C38827   9.025  11.082   6.019  0.3719 -1.3129 -0.0235
  295MOL0     C38828   9.134  11.100   6.118 -0.1167 -0.3611 -0.0463
  295MOL0     C38829   9.082  11.113   6.268 -0.4864  0.5213  0.0156
  295MOL0     C38830   9.015  11.254   6.291 -0.3105  0.0825  0.0366
  295MOL0     C38831   9.012  11.310   6.434 -0.2597  0.8361 -0.6498
  295MOL0     O38832   8.920  11.233   6.514  0.1239 -0.1216 -0.1101
  295MOL0     C38833   8.869  11.301   6.620  1.0095  0.2486  0.1932
  295MOL0     C38834   8.735  11.271   6.654  0.1979 -0.6859  1.0867
  295MOL0     C38835   8.675  11.339   6.766  0.3646 -0.6735 -0.0347
  295MOL0     C38836   8.743  11.428   6.845 -0.1753 -0.2846 -0.2282
  295MOL0     C38837   8.688  11.502   6.965  0.4919  0.4779 -0.1432
  295MOL0     O38838   8.556  11.470   6.990  0.5333  0.0769 -0.0135
  295MOL0     C38839   8.509  11.546   7.095 -0.4467 -0.3859  0.5372
  295MOL0     C38840   8.549  11.551   7.230  0.3738 -0.2269  0.1809
  295MOL0     C38841   8.470  11.617   7.316  0.2027  0.2905 -0.7228
  295MOL0     C38842   8.347  11.676   7.284 -0.7257 -0.0933  0.3917
  295MOL0     O38843   8.266  11.734   7.379 -0.1247 -0.3555  0.1436
  295MOL0     C38844   8.160  11.817   7.336  0.6886 -0.0717 -0.1333
  295MOL0     C38845   8.102  11.867   7.466  0.0770 -0.3681  0.3189
  295MOL0     C38846   7.961  11.912   7.445  0.4487 -0.3501 -0.0746
  295MOL0     C38847   7.918  11.995   7.569  0.5333 -0.3019 -0.2249
  295MOL0     C38848   7.769  12.028   7.580 -0.3458 -0.5713 -0.4680
  295MOL0     C38849   7.749  12.179   7.610  0.1004  0.6248  0.5124
  295MOL0     C38850   7.600  12.210   7.645 -0.1385 -0.1144  0.7440
  295MOL0     C38851   7.576  12.354   7.699  0.4658 -0.0069  0.4317
  295MOL0    Cl38852   7.665  12.380   7.843  0.0837 -0.0131  0.0455
  295MOL0     C38853   8.314  11.668   7.150  0.7448  0.2685 -0.9454
  295MOL0     C38854   8.392  11.611   7.062 -0.1834 -0.3487  0.3454
  295MOL0     O38855   8.760  11.584   7.019  0.5759  0.6930 -0.2363
  295MOL0     C38856   8.877  11.450   6.810 -0.0948 -0.1323  1.0733
  295MOL0     C38857   8.942  11.388   6.708 -0.0413 -0.1016  0.1740
  295MOL0     N38858   8.971  11.173   5.924  0.0488  0.6396  0.0087
  295MOL0     N38859   8.886  11.109   5.850 -0.1742  1.0170 -0.1487
  295MOL0     C38860   9.522  10.065   5.649  0.4052  0.1674 -0.1543
  295MOL0     C38861   9.621   9.967   5.618  0.7169  0.1557 -0.6770
  295MOL0     C38862   9.816   9.573   5.552 -0.2964 -0.5962 -0.8290
  295MOL0     C38863   9.917   9.612   5.468  0.1574  0.4406 -0.6102
  295MOL0     C38864  10.034   9.530   5.451 -0.2211  0.1250 -1.4134
  295MOL0     C38865  10.055   9.416   5.527 -0.7237  1.1978  0.1079
  295MOL0     O38866  10.162   9.337   5.491  0.1879 -0.0712 -0.1599
  295MOL0     C38867  10.166   9.194   5.519 -0.7822 -0.0772 -0.3161
  295MOL0     C38868  10.267   9.123   5.425  0.2254  0.4344  0.3448
  295MOL0     C38869  10.415   9.144   5.475 -0.5645 -0.4599 -0.9363
  295MOL0     C38870  10.500   9.042   5.394 -0.1765  0.4660 -0.2183
  295MOL0     C38871  10.636   9.086   5.368 -0.0097  0.2045  0.5508
  295MOL0     C38872  10.742   9.142   5.353 -0.1042  0.1980  0.4489
  295MOL0     C38873   9.953   9.384   5.622 -0.1572 -0.2225  0.0294
  295MOL0     C38874   9.835   9.455   5.629 -0.0050 -0.2968  0.9703
  295MOL0     H38875   9.461   9.772   5.393  1.9022 -0.0430 -0.7854
  295MOL0     H38876   9.285   9.931   5.453  1.9751 -0.9084 -2.7433
  295MOL0     H38877   9.416  10.321   5.562  1.6989 -0.7274  0.2480
  295MOL0     H38878   9.377  10.306   5.727 -1.1263  2.1861 -1.0352
  295MOL0     H38879   9.144  10.328   5.685  1.3818 -2.0475 -0.5386
  295MOL0     H38880   9.172  10.339   5.506  1.5375  0.6493 -0.6052
  295MOL0     H38881   9.300  10.539   5.523 -0.3986 -1.1881  0.7613
  295MOL0     H38882   9.303  10.547   5.695 -0.4666  3.6945 -1.0702
  295MOL0     H38883   9.065  10.599   5.500  0.7836  3.6692  0.6885
  295MOL0     H38884   9.024  10.543   5.663 -1.1856  1.8914 -0.4058
  295MOL0     H38885   9.195  10.800   5.614  1.1856  0.3652  1.0705
  295MOL0     H38886   9.152  10.710   5.759 -0.5274 -2.4568 -0.6360
  295MOL0     H38887   8.969  10.836   5.550  1.2273  0.9757 -0.4299
  295MOL0     H38888   9.024  10.917   5.699  2.3531  0.1967 -0.2195
  295MOL0     H38889   8.827  10.690   5.696  0.8469  0.0370  1.2258
  295MOL0     H38890   8.931  10.700   5.822 -1.3808 -0.4408  0.2022
  295MOL0     H38891   8.736  10.834   5.884 -0.1143 -0.0665  0.8757
  295MOL0     H38892   8.754  10.934   5.738 -1.6052 -2.8867  0.1527
  295MOL0     H38893   8.999  10.865   6.028  3.9671  0.5788  0.9227
  295MOL0     H38894   9.181  11.194   6.087  0.7617 -0.9913 -0.6716
  295MOL0     H38895   9.201  11.015   6.106 -0.3452 -0.2834 -2.2441
  295MOL0     H38896   9.168  11.117   6.335 -1.6281 -0.9703  1.6584
  295MOL0     H38897   9.016  11.030   6.294 -1.6532  0.8908 -1.6211
  295MOL0     H38898   9.065  11.333   6.234  0.4576  0.7070  1.5239
  295MOL0     H38899   8.915  11.253   6.247  0.2510  4.7452 -1.9761
  295MOL0     H38900   8.985  11.416   6.441  1.2582  1.1572  1.3128
  295MOL0     H38901   9.109  11.309   6.484 -1.1054  1.9359  1.1472
  295MOL0     H38902   8.688  11.199   6.587  0.6701 -0.4557  0.4980
  295MOL0     H38903   8.573  11.320   6.796 -1.0122  2.6720 -1.9902
  295MOL0     H38904   8.642  11.505   7.262 -0.1782 -1.1468  0.5221
  295MOL0     H38905   8.506  11.630   7.417 -0.6386  2.2348 -0.6304
  295MOL0     H38906   8.079  11.753   7.298 -0.3378  0.7912  0.5519
  295MOL0     H38907   8.193  11.897   7.269  0.6232  2.0424  2.1948
  295MOL0     H38908   8.163  11.953   7.497 -0.0831 -0.3479  0.5868
  295MOL0     H38909   8.100  11.797   7.550  2.6496  0.5492  1.2626
  295MOL0     H38910   7.894  11.825   7.441  1.8630 -1.5180  0.8183
  295MOL0     H38911   7.956  11.987   7.366  1.3543  0.3503  0.5156
  295MOL0     H38912   7.953  11.936   7.654  2.9807  2.7786  1.1133
  295MOL0     H38913   7.973  12.090   7.569 -1.9729  1.3086 -2.5511
  295MOL0     H38914   7.730  11.972   7.665  3.6204 -2.0549  0.6007
  295MOL0     H38915   7.724  12.009   7.483  2.5868  2.1301 -2.6006
  295MOL0     H38916   7.787  12.227   7.520 -1.5932 -0.2170 -0.7035
  295MOL0     H38917   7.807  12.211   7.697 -1.0089 -0.1525  1.5706
  295MOL0     H38918   7.536  12.192   7.558  1.2348 -4.5402  0.4005
  295MOL0     H38919   7.570  12.133   7.717 -2.2708 -0.4156 -0.3849
  295MOL0     H38920   7.470  12.366   7.720  0.1739 -1.9211  0.2009
  295MOL0     H38921   7.615  12.419   7.620  3.1973 -2.5952 -0.5383
  295MOL0     H38922   8.216  11.692   7.110  0.5657 -1.0101 -1.3255
  295MOL0     H38923   8.361  11.598   6.959 -0.5748 -0.6417  0.4968
  295MOL0     H38924   8.937  11.518   6.871 -1.9630  1.7507  0.9320
  295MOL0     H38925   9.047  11.403   6.684  0.0555  0.2301  0.7710
  295MOL0     H38926   9.545  10.134   5.730  3.7704 -3.6307  2.5365
  295MOL0     H38927   9.713   9.983   5.674 -0.2193 -1.2121  1.3628
  295MOL0     H38928   9.916   9.704   5.410  0.3423  1.4688  0.9303
  295MOL0     H38929  10.113   9.548   5.378  2.5308  1.1233  1.5450
  295MOL0     H38930  10.062   9.164   5.504 -1.2309  0.9055  0.7187
  295MOL0     H38931  10.178   9.170   5.625  0.1688  1.1442 -0.1232
  295MOL0     H38932  10.239   9.017   5.421  1.4129  0.1633 -1.7546
  295MOL0     H38933  10.257   9.167   5.326 -1.8832 -0.6851  0.0001
  295MOL0     H38934  10.422   9.131   5.583  2.4350  2.1819 -0.6689
  295MOL0     H38935  10.446   9.248   5.463 -0.2419 -0.3401  0.7193
  295MOL0     H38936  10.491   8.946   5.446 -1.1365 -0.2665 -1.6433
  295MOL0     H38937  10.449   9.020   5.299 -0.9175  0.0030  0.2784
  295MOL0     H38938  10.836   9.186   5.329 -1.2501  2.5361 -0.0322
  295MOL0     H38939   9.979   9.305   5.692  0.2728  1.0366  1.3458
  295MOL0     H38940   9.769   9.422   5.708  1.4983 -0.8946  2.0248
  296MOL0     O38941   6.410   7.121  10.994 -0.4278 -0.4322 -0.3242
  296MOL0     C38942   6.409   7.243  10.983 -0.4946 -0.2622  0.4947
  296MOL0     O38943   6.329   7.315  10.900 -0.2017 -0.1845 -0.1039
  296MOL0     C38944   6.261   7.259  10.795  0.1202 -0.0319 -0.2203
  296MOL0     C38945   6.152   7.334  10.751 -0.3039 -0.2007 -0.4011
  296MOL0     C38946   6.071   7.299  10.641  0.3580  0.1715 -0.0730
  296MOL0     C38947   6.100   7.188  10.564 -0.3089 -0.2039  0.1740
  296MOL0     O38948   6.028   7.155  10.458 -0.0908  0.4488 -0.0972
  296MOL0     C38949   6.049   7.042  10.371  0.1824  0.9638 -0.1966
  296MOL0     C38950   5.951   7.064  10.251 -0.3689  0.6549 -0.1318
  296MOL0     C38951   5.930   6.940  10.162 -0.6004 -0.0017  0.0607
  296MOL0     C38952   5.827   6.979  10.053 -0.4172 -0.7270 -0.2260
  296MOL0     C38953   5.800   6.859   9.967  0.7749 -0.5920 -1.0065
  296MOL0     C38954   5.661   6.878   9.894 -0.4545  0.7149 -0.7213
  296MOL0     C38955   5.640   6.777   9.787  0.0654  0.9385  0.3279
  296MOL0     C38956   5.609   6.636   9.851 -0.5222 -0.0947  0.1927
  296MOL0     N38957   5.493   6.577   9.785 -0.1200 -0.1804 -0.2571
  296MOL0     C38958   5.361   6.603   9.820  1.0225 -0.1240 -0.2151
  296MOL0     C38959   5.288   6.556   9.707 -0.2276 -0.4022  0.1065
  296MOL0     C38960   5.139   6.562   9.692 -0.6776  1.0732 -0.1042
  296MOL0     C38961   5.087   6.419   9.689 -0.6138  0.1874  0.0966
  296MOL0     C38962   4.938   6.425   9.734 -0.6765 -0.0957 -0.0563
  296MOL0     C38963   4.865   6.290   9.745 -1.4283  0.6347 -0.2205
  296MOL0     O38964   4.828   6.234   9.615  0.4544 -0.4775 -0.0096
  296MOL0     C38965   4.757   6.123   9.628  0.0424 -1.1583  0.4242
  296MOL0     C38966   4.667   6.111   9.521  0.5298 -0.4207  0.0573
  296MOL0     C38967   4.563   6.017   9.526  0.3489  0.5444 -0.1208
  296MOL0     C38968   4.565   5.911   9.632  0.0802 -0.3640  0.0412
  296MOL0     C38969   4.460   5.795   9.640  1.6606 -0.5192 -0.4378
  296MOL0     O38970   4.342   5.816   9.558 -0.0556 -0.2902  0.5971
  296MOL0     C38971   4.220   5.757   9.590 -0.6959 -1.0377 -0.6503
  296MOL0     C38972   4.137   5.738   9.485  0.7796  0.6021  0.3878
  296MOL0     C38973   4.015   5.666   9.501 -0.3151  0.0703  0.1668
  296MOL0     C38974   3.970   5.614   9.626 -0.5999 -0.4170  0.6796
  296MOL0     O38975   3.848   5.557   9.627 -0.5037  0.4274  0.2496
  296MOL0     C38976   3.795   5.497   9.746  0.1202  0.3492 -0.4916
  296MOL0     C38977   3.658   5.432   9.707  0.8087  0.5038  0.9858
  296MOL0     C38978   3.588   5.376   9.833  0.7326  0.0289 -0.1767
  296MOL0     C38979   3.671   5.285   9.924  0.0709  0.6127  0.1604
  296MOL0     C38980   3.583   5.222  10.033 -0.2832  0.8366  0.1902
  296MOL0     C38981   3.678   5.137  10.115  0.4604  0.4110  0.4067
  296MOL0     C38982   3.609   5.047  10.221 -0.0583 -0.0694 -0.4490
  296MOL0     C38983   3.708   5.001  10.332  0.2856  0.4586 -0.7384
  296MOL0    Cl38984   3.780   4.842  10.271  0.0022 -0.4151 -0.3070
  296MOL0     C38985   4.071   5.630   9.727  0.6258  0.2229  0.1413
  296MOL0     C38986   4.186   5.707   9.711  0.0736 -0.8781 -0.2090
  296MOL0     O38987   4.479   5.711   9.728 -0.1400 -0.2623 -0.3874
  296MOL0     C38988   4.666   5.925   9.731 -0.0343  0.0590  0.1740
  296MOL0     C38989   4.766   6.026   9.722 -0.3515  0.1335  0.0083
  296MOL0     N38990   5.381   6.497   9.631 -0.2289 -0.1730 -0.9066
  296MOL0     N38991   5.499   6.506   9.675 -0.4145  0.4161 -0.0004
  296MOL0     C38992   6.214   7.111  10.603  0.0584 -0.1412 -0.2655
  296MOL0     C38993   6.290   7.146  10.717  0.2701  1.1015  0.9777
  296MOL0     C38994   6.487   7.322  11.071 -1.1432  0.2727 -0.2761
  296MOL0     C38995   6.572   7.257  11.162  0.6227  0.1175 -0.0426
  296MOL0     C38996   6.656   7.333  11.245  0.4097 -0.0394  0.0390
  296MOL0     C38997   6.649   7.472  11.245  0.2323  0.1154  0.2379
  296MOL0     O38998   6.726   7.554  11.317 -0.0066 -0.1611  0.5299
  296MOL0     C38999   6.809   7.501  11.423 -0.8829  0.3561 -0.6789
  296MOL0     C39000   6.953   7.475  11.366  0.9336 -0.4126  0.4125
  296MOL0     C39001   7.000   7.608  11.297 -0.7698  0.4980 -0.3955
  296MOL0     C39002   7.146   7.605  11.251 -0.7131  0.0701  0.4017
  296MOL0     C39003   7.246   7.635  11.361  0.0712  0.0770  0.8752
  296MOL0     C39004   7.327   7.664  11.447  0.0744  0.8594  0.2410
  296MOL0     C39005   6.567   7.536  11.155 -0.4720 -0.3800  0.8043
  296MOL0     C39006   6.491   7.464  11.052  0.0150  0.4978 -0.6209
  296MOL0     H39007   6.125   7.417  10.816 -0.3989 -1.2669  0.9435
  296MOL0     H39008   5.983   7.361  10.626  0.4994  0.0989 -1.2326
  296MOL0     H39009   6.023   6.948  10.421 -0.1352  1.5937  0.8513
  296MOL0     H39010   6.139   7.035  10.310 -0.6377 -1.3158 -1.2419
  296MOL0     H39011   5.998   7.140  10.188  2.0955 -2.1237 -1.9375
  296MOL0     H39012   5.858   7.110  10.286  0.1528  2.6808 -1.2707
  296MOL0     H39013   5.882   6.862  10.222  0.4033  0.0087  0.8994
  296MOL0     H39014   6.019   6.897  10.116  0.8132 -0.1689  2.7390
  296MOL0     H39015   5.741   7.024  10.103 -0.3465 -0.1648 -0.6007
  296MOL0     H39016   5.867   7.057   9.988 -0.4770 -2.3718 -2.3383
  296MOL0     H39017   5.806   6.768  10.028  0.2574 -1.9442 -2.8783
  296MOL0     H39018   5.873   6.855   9.886  2.1582  0.8390  0.1022
  296MOL0     H39019   5.644   6.974   9.843  1.2772  0.2331 -2.2905
  296MOL0     H39020   5.584   6.872   9.972  1.4911 -1.9137  1.1854
  296MOL0     H39021   5.547   6.821   9.749 -0.0778  1.5385  1.3488
  296MOL0     H39022   5.716   6.773   9.709 -2.5619  1.1851 -2.4428
  296MOL0     H39023   5.586   6.653   9.956  1.7023 -1.2208  0.9161
  296MOL0     H39024   5.691   6.563   9.845 -2.1875 -2.1432  1.2532
  296MOL0     H39025   5.330   6.664   9.905  2.2374  0.9923 -0.5410
  296MOL0     H39026   5.115   6.607   9.595  0.0920  1.1864 -0.2512
  296MOL0     H39027   5.095   6.634   9.762  1.4684  0.0678  2.4518
  296MOL0     H39028   5.144   6.361   9.763  0.8345  0.6072 -0.6574
  296MOL0     H39029   5.113   6.392   9.586  0.6238 -0.4155  0.5418
  296MOL0     H39030   4.943   6.458   9.838  1.9395 -1.4959  0.3307
  296MOL0     H39031   4.888   6.495   9.666  0.5206  1.0495  0.2100
  296MOL0     H39032   4.780   6.301   9.814 -2.3636  0.5479 -1.3336
  296MOL0     H39033   4.931   6.222   9.799 -3.7681 -0.9641  0.7935
  296MOL0     H39034   4.661   6.187   9.444 -2.1648 -1.1573 -0.5632
  296MOL0     H39035   4.485   6.021   9.450  1.1636 -0.6241 -1.0644
  296MOL0     H39036   4.164   5.775   9.387 -1.8466  0.4585 -0.4630
  296MOL0     H39037   3.959   5.653   9.409 -0.0060 -1.3637  0.1592
  296MOL0     H39038   3.787   5.579   9.818 -0.2998 -1.4883  1.6482
  296MOL0     H39039   3.870   5.429   9.787 -1.1168 -0.5518  0.3502
  296MOL0     H39040   3.667   5.348   9.638 -2.0751  1.6065 -0.9037
  296MOL0     H39041   3.593   5.501   9.653  0.9331 -0.2296 -0.1242
  296MOL0     H39042   3.501   5.322   9.794  1.5313 -0.8714 -0.7485
  296MOL0     H39043   3.543   5.458   9.890 -2.1723 -1.4384 -0.1255
  296MOL0     H39044   3.717   5.204   9.867 -1.4347 -0.5516  0.5519
  296MOL0     H39045   3.742   5.351   9.975 -0.0076  0.0257  1.0439
  296MOL0     H39046   3.514   5.159   9.977  1.5931 -0.7409 -0.4466
  296MOL0     H39047   3.536   5.301  10.092  0.3585  2.0548 -0.8615
  296MOL0     H39048   3.760   5.201  10.148  0.7301  2.2424 -3.2411
  296MOL0     H39049   3.734   5.067  10.052  1.9238  1.1936  0.7891
  296MOL0     H39050   3.526   5.102  10.267  0.5429  0.1448  0.3941
  296MOL0     H39051   3.560   4.957  10.181  0.5653 -1.2437  1.3264
  296MOL0     H39052   3.654   4.987  10.426 -0.8949 -0.2355 -1.5029
  296MOL0     H39053   3.790   5.069  10.359  0.6557 -0.7365  1.3870
  296MOL0     H39054   4.049   5.581   9.821 -2.6420  1.0615 -0.0708
  296MOL0     H39055   4.242   5.713   9.804 -0.7798 -2.5948  0.4673
  296MOL0     H39056   4.678   5.858   9.815  2.8652  1.7296  1.2067
  296MOL0     H39057   4.851   6.029   9.789  1.8261 -0.9550 -2.5325
  296MOL0     H39058   6.240   7.021  10.548  2.4207 -1.4730  2.7462
  296MOL0     H39059   6.373   7.081  10.743  1.0734  1.6535 -0.1043
  296MOL0     H39060   6.562   7.150  11.177 -1.6403  0.3649  0.5338
  296MOL0     H39061   6.731   7.285  11.306  0.4635  1.6521  1.3674
  296MOL0     H39062   6.766   7.413  11.472  1.7631  0.4115  2.0458
  296MOL0     H39063   6.817   7.583  11.495  0.7596 -0.5691  0.2537
  296MOL0     H39064   7.028   7.456  11.444 -1.0295 -0.1735  2.4539
  296MOL0     H39065   6.947   7.397  11.289  1.6543  0.0959 -0.1732
  296MOL0     H39066   6.991   7.696  11.362  1.2959  0.4508  0.0244
  296MOL0     H39067   6.934   7.624  11.212 -0.0879  0.2801 -0.9723
  296MOL0     H39068   7.170   7.505  11.214 -0.4952  0.4969 -0.6473
  296MOL0     H39069   7.169   7.669  11.165  0.3479 -2.2612 -1.1445
  296MOL0     H39070   7.397   7.695  11.522  0.2220  0.2036  0.3812
  296MOL0     H39071   6.575   7.644  11.161 -0.9819 -0.0002 -2.9324
  296MOL0     H39072   6.442   7.518  10.972 -1.0547  0.5774  0.0739
  297MOL0     O39073   0.298   1.286   9.032  0.3067  0.8376 -0.0410
  297MOL0     C39074   0.304   1.209   9.131  0.2206  0.1941 -0.2251
  297MOL0     O39075   0.196   1.163   9.202  0.5043 -0.4192 -0.1144
  297MOL0     C39076   0.071   1.181   9.146  0.8473  0.1124  0.7608
  297MOL0     C39077  -0.020   1.280   9.204 -0.7704  0.8034  0.7367
  297MOL0     C39078  -0.143   1.296   9.151 -0.3249 -0.3608  0.1031
  297MOL0     C39079  -0.186   1.233   9.038 -0.7076  0.0477 -0.2949
  297MOL0     O39080  -0.305   1.279   8.993 -0.2912  0.6970  0.3117
  297MOL0     C39081  -0.409   1.189   8.950  0.2403 -0.2243  0.0749
  297MOL0     C39082  -0.535   1.271   8.926  0.1339  0.8383  1.2930
  297MOL0     C39083  -0.659   1.210   8.990 -0.5529 -0.8574 -0.2644
  297MOL0     C39084  -0.798   1.281   8.970 -0.2888 -0.4298 -0.8592
  297MOL0     C39085  -0.900   1.255   9.079 -0.2237  0.0360  0.3739
  297MOL0     C39086  -0.931   1.104   9.109 -0.5152 -0.4668  0.7959
  297MOL0     C39087  -1.051   1.105   9.204 -0.1291 -0.2630  0.0743
  297MOL0     C39088  -1.019   1.167   9.346 -0.1718 -0.2541  0.3491
  297MOL0     N39089  -1.136   1.166   9.437  0.5830  0.1847 -0.1484
  297MOL0     C39090  -1.215   1.059   9.488  0.4349 -1.0168  1.2973
  297MOL0     C39091  -1.302   1.122   9.564 -0.3354  0.1904  0.2611
  297MOL0     C39092  -1.417   1.057   9.638  0.8972 -0.7429  1.5131
  297MOL0     C39093  -1.549   1.061   9.561 -0.4556  0.1746 -0.2802
  297MOL0     C39094  -1.543   1.003   9.421 -0.1509 -0.5354 -0.5474
  297MOL0     C39095  -1.686   0.996   9.359 -0.1460 -0.9392  0.5799
  297MOL0     O39096  -1.745   1.132   9.370  0.4522  1.2034 -0.4445
  297MOL0     C39097  -1.882   1.127   9.394 -0.3134 -0.2855 -0.6075
  297MOL0     C39098  -1.979   1.047   9.321 -0.5396 -0.9268 -0.3014
  297MOL0     C39099  -2.109   1.045   9.357  0.1983 -0.2760  0.0529
  297MOL0     C39100  -2.152   1.128   9.466  0.0399  0.2605  0.7265
  297MOL0     C39101  -2.298   1.124   9.497 -0.0301 -0.2514 -0.1207
  297MOL0     O39102  -2.391   1.072   9.402 -0.6074  0.1228 -0.4090
  297MOL0     C39103  -2.522   1.090   9.423 -0.7387 -0.2302  0.5650
  297MOL0     C39104  -2.596   1.155   9.325 -0.0257  0.0715 -0.3389
  297MOL0     C39105  -2.732   1.169   9.337  0.7843  0.4645 -0.4299
  297MOL0     C39106  -2.798   1.123   9.453  0.8642 -0.5723 -0.0566
  297MOL0     O39107  -2.931   1.125   9.446  0.0271 -0.4606 -0.4962
  297MOL0     C39108  -3.001   1.001   9.456 -0.0054 -0.0751  0.8388
  297MOL0     C39109  -3.146   1.042   9.461 -0.0930  0.3235  0.2983
  297MOL0     C39110  -3.243   0.921   9.445  0.3847 -1.1392 -0.5865
  297MOL0     C39111  -3.392   0.951   9.479 -0.5164 -0.4581  0.1268
  297MOL0     C39112  -3.465   0.820   9.514 -0.6596  0.1307  0.8866
  297MOL0     C39113  -3.545   0.825   9.640 -0.1164  0.3652  0.1476
  297MOL0     C39114  -3.466   0.856   9.771  0.3356 -0.1523  0.4615
  297MOL0     C39115  -3.340   0.773   9.788  0.7032  0.4257  0.5173
  297MOL0    Cl39116  -3.412   0.627   9.841 -0.2950 -0.3398  0.1105
  297MOL0     C39117  -2.726   1.075   9.559  0.2817 -0.8617  0.0785
  297MOL0     C39118  -2.588   1.050   9.539 -0.4098 -1.0878 -0.2162
  297MOL0     O39119  -2.330   1.154   9.611  0.1270  0.4224 -0.1725
  297MOL0     C39120  -2.066   1.218   9.521 -0.0041 -0.3179 -0.1048
  297MOL0     C39121  -1.934   1.212   9.488  0.0115  0.0629  1.0373
  297MOL0     N39122  -1.297   1.255   9.551 -0.4005 -0.2466  1.0779
  297MOL0     N39123  -1.198   1.281   9.473  0.6466  0.5136  0.1446
  297MOL0     C39124  -0.111   1.118   9.001  0.4882 -0.0852 -0.3170
  297MOL0     C39125   0.020   1.096   9.053 -0.0285 -0.4209 -0.1115
  297MOL0     C39126   0.444   1.180   9.186  0.2962  0.3713  0.0864
  297MOL0     C39127   0.460   1.120   9.313 -0.5577  0.0646  0.1333
  297MOL0     C39128   0.591   1.074   9.356 -0.0702 -0.0655  0.4444
  297MOL0     C39129   0.701   1.098   9.274  0.4295 -0.0131 -0.0238
  297MOL0     O39130   0.825   1.049   9.297  0.0861 -0.2615  0.2263
  297MOL0     C39131   0.838   0.916   9.354 -0.0262 -0.7523 -1.3546
  297MOL0     C39132   0.985   0.899   9.397  0.4849  0.4476 -0.7511
  297MOL0     C39133   1.056   1.010   9.487 -0.2523 -0.8932 -0.7873
  297MOL0     C39134   1.208   0.994   9.478  0.4875  0.8784 -0.2209
  297MOL0     C39135   1.244   0.873   9.548 -0.1064 -0.0748  0.2527
  297MOL0     C39136   1.271   0.760   9.598  0.0003 -0.2775  1.1310
  297MOL0     C39137   0.685   1.178   9.156 -0.3740  0.2454  0.0539
  297MOL0     C39138   0.560   1.219   9.113 -0.2750  0.6412  1.0342
  297MOL0     H39139   0.020   1.343   9.282  0.0561 -1.1820  2.0116
  297MOL0     H39140  -0.214   1.372   9.182  1.4774  1.9257 -1.0266
  297MOL0     H39141  -0.430   1.110   9.022  2.4497  1.6854  3.0270
  297MOL0     H39142  -0.382   1.148   8.852 -1.2083 -2.3868  0.5039
  297MOL0     H39143  -0.555   1.269   8.819  1.8989  0.6153  0.9390
  297MOL0     H39144  -0.512   1.374   8.955 -1.2301  1.2874  0.8663
  297MOL0     H39145  -0.637   1.223   9.096 -2.2565  1.2329 -0.1162
  297MOL0     H39146  -0.664   1.104   8.961 -0.3464 -1.4906  1.8308
  297MOL0     H39147  -0.788   1.389   8.958 -1.3751  0.0863  2.0730
  297MOL0     H39148  -0.837   1.256   8.871  0.4248  1.3033 -1.6213
  297MOL0     H39149  -0.987   1.306   9.038  0.4075  1.1853  0.4477
  297MOL0     H39150  -0.857   1.300   9.169  2.7059  0.4178 -1.1192
  297MOL0     H39151  -0.845   1.053   9.155  0.0567 -3.9329 -3.3787
  297MOL0     H39152  -0.954   1.054   9.014 -1.5164  0.3761  0.5772
  297MOL0     H39153  -1.120   1.171   9.150  1.9987  1.9215 -0.1539
  297MOL0     H39154  -1.094   1.004   9.211  0.0653 -0.4028 -0.6589
  297MOL0     H39155  -0.981   1.270   9.345  1.0070 -0.6687  0.3761
  297MOL0     H39156  -0.938   1.111   9.394  2.5912  2.6497 -0.5418
  297MOL0     H39157  -1.206   0.955   9.456 -0.0792 -0.2201 -1.7678
  297MOL0     H39158  -1.453   1.103   9.730 -3.0548  0.4365 -0.3831
  297MOL0     H39159  -1.389   0.955   9.666  1.5230 -0.9125  0.3360
  297MOL0     H39160  -1.565   1.169   9.548  1.6799  0.8693  2.0791
  297MOL0     H39161  -1.633   1.026   9.622 -1.8564  3.1161 -0.3478
  297MOL0     H39162  -1.476   1.062   9.356 -0.5441 -0.1592 -0.6184
  297MOL0     H39163  -1.506   0.901   9.430  0.6001 -0.1737  0.7073
  297MOL0     H39164  -1.738   0.921   9.420 -1.7801 -0.5801 -0.3152
  297MOL0     H39165  -1.684   0.961   9.256 -1.1205  0.7766 -0.0627
  297MOL0     H39166  -1.931   1.004   9.233 -1.1758 -2.0876 -0.0943
  297MOL0     H39167  -2.192   0.992   9.311 -0.9035  0.1403  1.4923
  297MOL0     H39168  -2.548   1.185   9.232 -1.4117 -1.7121 -1.7177
  297MOL0     H39169  -2.789   1.204   9.252 -0.6792  0.0334  0.3402
  297MOL0     H39170  -2.970   0.936   9.538  0.7891 -1.6689 -0.6638
  297MOL0     H39171  -2.996   0.936   9.369  0.1048 -1.5522  1.9136
  297MOL0     H39172  -3.170   1.121   9.389 -0.3542  1.3137  1.4194
  297MOL0     H39173  -3.160   1.089   9.559 -0.1013  0.9025  0.0255
  297MOL0     H39174  -3.204   0.843   9.510  1.7317  0.9440  1.2367
  297MOL0     H39175  -3.245   0.884   9.342 -0.7785 -1.2212 -0.5469
  297MOL0     H39176  -3.375   1.014   9.567 -1.2506 -1.1831  0.8029
  297MOL0     H39177  -3.440   1.016   9.404 -0.9806  0.1649  0.9398
  297MOL0     H39178  -3.396   0.735   9.519 -2.7039 -1.8621 -1.6454
  297MOL0     H39179  -3.527   0.801   9.426  0.5887 -1.5313  0.3231
  297MOL0     H39180  -3.584   0.723   9.652 -3.1002  1.4037 -0.0779
  297MOL0     H39181  -3.636   0.881   9.617 -0.0648  0.0330 -0.9426
  297MOL0     H39182  -3.436   0.961   9.763  0.5209 -0.3060 -1.3752
  297MOL0     H39183  -3.537   0.840   9.852  0.0933 -1.7437 -0.0312
  297MOL0     H39184  -3.286   0.819   9.871  0.4887  3.0715 -0.7308
  297MOL0     H39185  -3.288   0.748   9.695 -0.6921  0.0146 -0.1840
  297MOL0     H39186  -2.772   1.043   9.652 -2.6822 -1.9425 -1.6142
  297MOL0     H39187  -2.525   1.003   9.614  2.0422  2.0116 -0.1091
  297MOL0     H39188  -2.099   1.287   9.598  2.1001 -3.0101  3.4531
  297MOL0     H39189  -1.855   1.273   9.531 -1.5624  2.8119  0.2273
  297MOL0     H39190  -0.150   1.058   8.920 -0.8731  1.1370 -0.6326
  297MOL0     H39191   0.082   1.012   9.025 -0.8586 -0.9766 -0.3299
  297MOL0     H39192   0.371   1.109   9.373 -0.5456 -0.5025  0.0510
  297MOL0     H39193   0.594   1.017   9.449 -0.5738 -2.9660 -1.2087
  297MOL0     H39194   0.815   0.838   9.282  1.8773 -0.5802 -2.1924
  297MOL0     H39195   0.777   0.913   9.445  1.8874  1.5564  0.1236
  297MOL0     H39196   0.984   0.802   9.449 -1.0904  1.0214  0.3715
  297MOL0     H39197   1.049   0.875   9.312  0.1054  1.1057 -1.2277
  297MOL0     H39198   1.019   0.999   9.589  1.8084 -0.3211  0.0711
  297MOL0     H39199   1.036   1.111   9.450  0.8524 -0.3563  0.0420
  297MOL0     H39200   1.239   0.988   9.373  0.4653  1.8976 -0.2959
  297MOL0     H39201   1.264   1.077   9.522  1.2441  0.9329 -1.2544
  297MOL0     H39202   1.281   0.662   9.639  1.8921 -1.0822 -1.0395
  297MOL0     H39203   0.774   1.186   9.096  0.5423 -1.3255  1.1174
  297MOL0     H39204   0.548   1.282   9.025 -1.1825  0.3630  0.9453
  298MOL0     O39205   9.930   9.059   1.876 -0.0902  0.0473 -0.3530
  298MOL0     C39206   9.938   8.976   1.786  0.2235 -0.1094 -0.2392
  298MOL0     O39207  10.054   8.928   1.723  0.3294  0.4958  0.3104
  298MOL0     C39208  10.174   8.990   1.747 -0.1095 -0.2366 -0.2384
  298MOL0     C39209  10.188   9.131   1.721 -0.0409  0.0298 -1.4190
  298MOL0     C39210  10.314   9.193   1.735  0.7049 -0.6555 -0.1914
  298MOL0     C39211  10.426   9.126   1.777 -1.0460  0.3474  0.1083
  298MOL0     O39212  10.542   9.200   1.808  0.3693 -0.2373 -0.1008
  298MOL0     C39213  10.622   9.157   1.911  0.3091  0.3612 -0.2559
  298MOL0     C39214  10.721   9.261   1.960  0.1578  0.6022  0.2173
  298MOL0     C39215  10.812   9.295   1.842 -0.5044  0.0016 -0.8423
  298MOL0     C39216  10.934   9.366   1.897 -0.1797  0.7742  0.8873
  298MOL0     C39217  11.015   9.429   1.782  1.0535 -0.1954  0.5413
  298MOL0     C39218  11.132   9.500   1.840 -0.6329  0.3642 -1.3453
  298MOL0     C39219  11.206   9.581   1.739 -0.2479  0.7048  1.2428
  298MOL0     C39220  11.333   9.635   1.811  0.1863  0.1395 -0.1814
  298MOL0     N39221  11.428   9.696   1.720  0.2432 -0.3846  0.1090
  298MOL0     C39222  11.495   9.624   1.621 -0.5735 -0.4222  0.6492
  298MOL0     C39223  11.557   9.722   1.555 -0.5907  0.5791  1.1746
  298MOL0     C39224  11.625   9.707   1.419 -0.0356 -0.1296 -0.1083
  298MOL0     C39225  11.565   9.818   1.328  0.8947 -0.3345 -0.4587
  298MOL0     C39226  11.619   9.809   1.182 -0.2386  0.4942 -0.1481
  298MOL0     C39227  11.559   9.907   1.089  0.0352 -0.9920  0.8310
  298MOL0     O39228  11.416   9.900   1.086 -0.2589  0.5718 -0.4920
  298MOL0     C39229  11.335   9.984   1.161 -0.0351  1.0102 -0.1370
  298MOL0     C39230  11.379  10.082   1.255 -0.5659  0.5520 -0.0597
  298MOL0     C39231  11.287  10.158   1.312  0.1025  0.0453 -0.2258
  298MOL0     C39232  11.149  10.144   1.287  0.4500 -0.0814 -0.6834
  298MOL0     C39233  11.054  10.217   1.366  0.0139  0.1682  0.5809
  298MOL0     O39234  10.930  10.207   1.316  0.3003 -0.0264  0.6356
  298MOL0     C39235  10.838  10.294   1.370  0.0145 -0.1876  0.7307
  298MOL0     C39236  10.791  10.282   1.498 -0.2586 -0.4682 -0.5471
  298MOL0     C39237  10.689  10.376   1.540  0.8570  0.4132  0.7494
  298MOL0     C39238  10.633  10.480   1.456  0.5731  0.6716  0.9222
  298MOL0     O39239  10.529  10.560   1.495 -0.5138 -0.6220 -0.2843
  298MOL0     C39240  10.468  10.652   1.403 -0.6845  0.5909 -0.1983
  298MOL0     C39241  10.371  10.737   1.479 -0.3341  0.2996  0.1356
  298MOL0     C39242  10.247  10.648   1.523  0.0429 -0.1175  0.2796
  298MOL0     C39243  10.149  10.744   1.599  0.6530 -0.4123 -0.1421
  298MOL0     C39244  10.014  10.680   1.631  0.1949 -0.7733 -0.4796
  298MOL0     C39245   9.910  10.797   1.655 -0.1152 -0.7279  1.0372
  298MOL0     C39246   9.783  10.739   1.701  0.5764  0.6503  0.1984
  298MOL0     C39247   9.659  10.833   1.669  0.1758  0.8383  0.9858
  298MOL0    Cl39248   9.671  10.974   1.769  0.5136  0.1491 -0.2359
  298MOL0     C39249  10.690  10.482   1.328 -0.1510 -0.6385  0.2531
  298MOL0     C39250  10.782  10.387   1.285  0.4053  0.9553  0.0874
  298MOL0     O39251  11.087  10.294   1.457  0.1582 -0.3578  0.4530
  298MOL0     C39252  11.108  10.052   1.186 -0.2879  0.5675  0.4908
  298MOL0     C39253  11.202   9.970   1.129 -0.5049  0.1610  0.4307
  298MOL0     N39254  11.535   9.849   1.610  0.4715 -0.1010  0.3221
  298MOL0     N39255  11.453   9.828   1.710  0.3799  0.0199  0.1096
  298MOL0     C39256  10.418   8.984   1.803  0.2007 -0.1294 -0.1673
  298MOL0     C39257  10.295   8.919   1.786 -0.3399  0.0763  0.2880
  298MOL0     C39258   9.812   8.932   1.728 -0.5382 -0.0981 -0.3087
  298MOL0     C39259   9.801   8.844   1.622  0.1212  0.4741  0.9656
  298MOL0     C39260   9.687   8.790   1.568 -1.2391 -0.8602 -0.3016
  298MOL0     C39261   9.565   8.819   1.630  0.1370 -0.1529  0.4549
  298MOL0     O39262   9.445   8.758   1.614 -0.3264  0.5120  0.2974
  298MOL0     C39263   9.442   8.630   1.548  0.5901  0.4376  0.3003
  298MOL0     C39264   9.295   8.596   1.497 -0.4274  0.6242 -0.6340
  298MOL0     C39265   9.245   8.677   1.384  0.0748 -0.5372 -0.4207
  298MOL0     C39266   9.110   8.639   1.319 -0.1982  0.9084 -0.5067
  298MOL0     C39267   8.997   8.702   1.395  0.0623 -0.0881  1.1924
  298MOL0     C39268   8.894   8.741   1.438 -0.1348  0.6876  0.4436
  298MOL0     C39269   9.569   8.913   1.735  0.3368  0.1918  0.6290
  298MOL0     C39270   9.690   8.958   1.783  0.4226  0.0607 -0.0200
  298MOL0     H39271  10.097   9.183   1.694  0.8651  0.9825 -2.7426
  298MOL0     H39272  10.335   9.298   1.715 -1.8084 -0.0853 -0.2513
  298MOL0     H39273  10.669   9.064   1.880  0.6882  0.7740 -0.9370
  298MOL0     H39274  10.556   9.140   1.997  0.3734  1.8983  0.1363
  298MOL0     H39275  10.775   9.218   2.045  0.7792  0.6936 -0.1288
  298MOL0     H39276  10.678   9.356   1.993 -2.6176 -0.4889  0.0959
  298MOL0     H39277  10.763   9.368   1.778 -3.2583 -1.2393 -0.3165
  298MOL0     H39278  10.840   9.206   1.785 -2.6234  0.2730 -2.3857
  298MOL0     H39279  10.905   9.442   1.969  0.1309 -0.9875  2.9765
  298MOL0     H39280  10.987   9.287   1.951  1.2810 -0.3703 -1.9659
  298MOL0     H39281  10.946   9.502   1.738 -0.7472 -1.6695  0.8065
  298MOL0     H39282  11.040   9.358   1.702  0.4273  0.1944 -0.0205
  298MOL0     H39283  11.196   9.416   1.868  0.3703  0.5771 -2.8310
  298MOL0     H39284  11.094   9.565   1.918  2.3898  1.1221 -0.3789
  298MOL0     H39285  11.229   9.524   1.648  0.3359  1.6968  0.7493
  298MOL0     H39286  11.147   9.663   1.695 -1.2253 -0.4251  0.3886
  298MOL0     H39287  11.378   9.546   1.855 -4.8394 -3.0655 -0.7358
  298MOL0     H39288  11.292   9.699   1.890 -1.5595 -1.1018 -0.0168
  298MOL0     H39289  11.504   9.516   1.621  2.1349 -0.2608  1.4198
  298MOL0     H39290  11.621   9.611   1.367 -1.1629 -0.5441  0.7221
  298MOL0     H39291  11.734   9.716   1.431  0.4373 -2.9740 -1.4815
  298MOL0     H39292  11.570   9.921   1.365 -0.0900 -0.6383  0.5776
  298MOL0     H39293  11.458   9.801   1.316  0.7856  0.9982 -1.5285
  298MOL0     H39294  11.726   9.827   1.191  0.2514 -2.2197  0.3843
  298MOL0     H39295  11.610   9.707   1.145 -0.4761  0.9274 -1.3238
  298MOL0     H39296  11.604   9.894   0.990  0.9618 -2.8315  1.4628
  298MOL0     H39297  11.594  10.008   1.113 -1.5959  0.2910 -1.7040
  298MOL0     H39298  11.484  10.096   1.278  0.1588 -2.7183 -0.9557
  298MOL0     H39299  11.334  10.232   1.376  0.8156 -0.0846 -0.5931
  298MOL0     H39300  10.833  10.206   1.563  1.8791 -0.9970 -2.4000
  298MOL0     H39301  10.659  10.368   1.644  0.5041 -0.0920  0.6163
  298MOL0     H39302  10.422  10.585   1.329 -0.2634 -0.5437  0.5390
  298MOL0     H39303  10.541  10.724   1.366 -1.1605  0.8850 -0.5772
  298MOL0     H39304  10.334  10.818   1.415 -1.4336 -1.4717 -1.6031
  298MOL0     H39305  10.415  10.771   1.573 -1.8313 -1.8174  1.7056
  298MOL0     H39306  10.290  10.570   1.586  0.0640  0.7787  1.4066
  298MOL0     H39307  10.201  10.601   1.436  1.1609  2.5678 -1.9194
  298MOL0     H39308  10.198  10.780   1.690  1.8519 -4.1235  0.8480
  298MOL0     H39309  10.131  10.833   1.538  1.0578 -0.7770 -0.8208
  298MOL0     H39310  10.026  10.616   1.718  1.0191 -0.8499 -0.6378
  298MOL0     H39311   9.976  10.618   1.549 -4.1737 -0.4447  1.0821
  298MOL0     H39312   9.891  10.857   1.565  1.1758 -1.2491  0.3820
  298MOL0     H39313   9.948  10.864   1.733  1.3488  0.5074 -0.6461
  298MOL0     H39314   9.780  10.639   1.657  1.7621  0.1126  1.2585
  298MOL0     H39315   9.787  10.717   1.808  0.0394 -5.2755 -0.6696
  298MOL0     H39316   9.562  10.786   1.686  1.2182 -1.4515  0.9772
  298MOL0     H39317   9.662  10.858   1.562  1.6305 -0.4946  0.6749
  298MOL0     H39318  10.667  10.561   1.257 -0.4381 -0.9744 -0.0304
  298MOL0     H39319  10.819  10.396   1.184 -2.8251 -0.6564 -1.3541
  298MOL0     H39320  11.005  10.041   1.155  0.3186  1.6761 -2.2750
  298MOL0     H39321  11.178   9.910   1.042 -0.7759  0.3156  0.3957
  298MOL0     H39322  10.501   8.924   1.839 -2.0625 -1.6369  3.0171
  298MOL0     H39323  10.278   8.815   1.812 -0.9983 -0.5245 -2.2753
  298MOL0     H39324   9.896   8.811   1.581  1.2028  2.8936  1.3634
  298MOL0     H39325   9.686   8.710   1.494 -2.9367  0.3164 -1.6144
  298MOL0     H39326   9.489   8.555   1.612  0.2265  1.4131  1.7608
  298MOL0     H39327   9.506   8.638   1.459 -2.2167  0.8427 -1.8388
  298MOL0     H39328   9.284   8.490   1.474  1.4557  0.7239 -2.2646
  298MOL0     H39329   9.228   8.613   1.582 -0.3102  3.8878 -1.0469
  298MOL0     H39330   9.322   8.691   1.308 -0.8190  1.6804 -0.9924
  298MOL0     H39331   9.229   8.776   1.429 -1.3810 -1.0246  0.2078
  298MOL0     H39332   9.101   8.653   1.211  2.6445 -0.6392 -1.0334
  298MOL0     H39333   9.105   8.529   1.324  0.6886  0.8478 -0.7658
  298MOL0     H39334   8.798   8.781   1.462 -1.7226 -0.1245 -3.6882
  298MOL0     H39335   9.479   8.944   1.786 -0.8673  0.1942 -1.4013
  298MOL0     H39336   9.681   9.019   1.872 -0.7869 -2.7058  1.9235
  299MOL0     O39337   6.635   3.855   9.011  0.1251 -0.3524 -0.4438
  299MOL0     C39338   6.561   3.902   9.097  0.4604 -0.9856 -0.5781
  299MOL0     O39339   6.501   4.031   9.090 -0.0303  0.4735 -1.1596
  299MOL0     C39340   6.526   4.123   8.993  0.0817 -0.5954 -0.5311
  299MOL0     C39341   6.494   4.253   9.027 -0.1049 -0.2336  0.2013
  299MOL0     C39342   6.515   4.360   8.945 -1.0193 -0.2410 -0.0437
  299MOL0     C39343   6.570   4.346   8.815 -0.2437  0.3035 -0.1308
  299MOL0     O39344   6.611   4.460   8.751  0.6334 -0.4733  0.2461
  299MOL0     C39345   6.602   4.449   8.612  0.2073  0.2174  0.1644
  299MOL0     C39346   6.621   4.579   8.537  0.0043 -0.1435 -0.3665
  299MOL0     C39347   6.514   4.677   8.582 -0.3938 -0.0337 -0.4069
  299MOL0     C39348   6.521   4.801   8.489 -0.0884  0.6392 -0.9778
  299MOL0     C39349   6.437   4.918   8.545  0.1622 -0.1311 -0.1060
  299MOL0     C39350   6.285   4.889   8.555 -0.5034  0.0233 -0.0764
  299MOL0     C39351   6.199   5.008   8.590  0.4392 -0.3004  0.5890
  299MOL0     C39352   6.202   5.129   8.488 -0.8062  0.2031  0.2574
  299MOL0     N39353   6.134   5.101   8.361 -0.1695  0.1571 -0.0679
  299MOL0     C39354   6.001   5.078   8.351 -0.1147 -0.5458  0.4310
  299MOL0     C39355   5.970   5.084   8.224  0.8437 -0.3174 -0.3148
  299MOL0     C39356   5.830   5.086   8.174 -0.3724 -0.0206 -0.4719
  299MOL0     C39357   5.824   5.098   8.021  1.0378 -0.4121  0.0937
  299MOL0     C39358   5.678   5.080   7.968  0.3778 -0.2670  0.0628
  299MOL0     C39359   5.600   4.965   8.030 -0.9858  0.4105  0.6375
  299MOL0     O39360   5.672   4.842   7.995  0.1794 -1.0938  0.2145
  299MOL0     C39361   5.651   4.797   7.866  1.1643  0.6704  0.4122
  299MOL0     C39362   5.524   4.752   7.819  0.3558 -0.3280  0.7518
  299MOL0     C39363   5.509   4.676   7.703  0.1219 -0.1407 -0.2289
  299MOL0     C39364   5.612   4.636   7.623 -0.1731 -0.9816 -0.1002
  299MOL0     C39365   5.601   4.561   7.491 -0.6624 -0.0045  0.2120
  299MOL0     O39366   5.709   4.570   7.404  0.1947 -0.2490  0.2633
  299MOL0     C39367   5.683   4.517   7.283 -1.5948  0.3101 -0.2169
  299MOL0     C39368   5.578   4.565   7.203  0.0853 -0.4469 -0.5002
  299MOL0     C39369   5.572   4.518   7.074 -0.6162  1.1074  0.1711
  299MOL0     C39370   5.657   4.423   7.017 -0.1480 -0.5911 -0.3573
  299MOL0     O39371   5.654   4.381   6.887 -0.2631 -0.3661  0.2645
  299MOL0     C39372   5.537   4.375   6.812  0.2391  0.2622  0.2153
  299MOL0     C39373   5.564   4.300   6.676  1.3803  0.6292 -0.2273
  299MOL0     C39374   5.430   4.270   6.603  0.5143  0.9575 -0.4346
  299MOL0     C39375   5.367   4.388   6.527 -0.5837  0.2111 -0.2251
  299MOL0     C39376   5.249   4.341   6.445  0.9370 -0.0290  0.0475
  299MOL0     C39377   5.180   4.466   6.383 -0.4269  0.0193 -0.5287
  299MOL0     C39378   5.058   4.428   6.303 -0.0654  0.5658  0.1650
  299MOL0     C39379   4.948   4.527   6.293 -0.6186  0.5460 -0.7922
  299MOL0    Cl39380   5.015   4.682   6.231  0.4767 -0.5013 -0.1036
  299MOL0     C39381   5.754   4.367   7.107  0.4157  0.6397 -0.5260
  299MOL0     C39382   5.769   4.416   7.238 -0.2274 -0.2507  0.2272
  299MOL0     O39383   5.494   4.510   7.463 -0.4317 -0.7299 -0.2899
  299MOL0     C39384   5.741   4.681   7.671 -0.1754  0.5387 -0.4074
  299MOL0     C39385   5.760   4.765   7.782  0.2797 -0.2174  0.1431
  299MOL0     N39386   6.088   5.108   8.152 -0.2418 -0.0846  0.4411
  299MOL0     N39387   6.187   5.119   8.234  0.7486 -0.1156 -0.4229
  299MOL0     C39388   6.597   4.215   8.775 -0.2582 -0.3756  0.1190
  299MOL0     C39389   6.579   4.105   8.864  0.3379  0.7292  0.4149
  299MOL0     C39390   6.551   3.830   9.229 -0.9963  0.3843 -0.1410
  299MOL0     C39391   6.463   3.876   9.323 -0.7292 -0.6445 -0.1106
  299MOL0     C39392   6.440   3.804   9.433 -0.0605  0.4179  0.6336
  299MOL0     C39393   6.495   3.676   9.456 -0.3644  0.6183 -0.0601
  299MOL0     O39394   6.476   3.596   9.566  0.2307 -0.3882 -0.1741
  299MOL0     C39395   6.379   3.627   9.661  0.4119  0.0967  0.6319
  299MOL0     C39396   6.247   3.583   9.605  0.4062 -0.0152 -0.3776
  299MOL0     C39397   6.141   3.602   9.717  0.0914 -0.5317 -0.4398
  299MOL0     C39398   6.097   3.754   9.741 -0.5342  1.2651 -0.3598
  299MOL0     C39399   6.028   3.808   9.623 -0.7652 -0.2046  0.0272
  299MOL0     C39400   5.964   3.854   9.532 -0.0725  1.5239  0.4208
  299MOL0     C39401   6.577   3.620   9.354  0.4271 -0.9597 -0.1853
  299MOL0     C39402   6.600   3.703   9.240  0.3326 -0.0728  0.3194
  299MOL0     H39403   6.453   4.271   9.126  3.3161 -0.0046  1.7396
  299MOL0     H39404   6.493   4.465   8.962 -0.4802  0.2288 -1.9643
  299MOL0     H39405   6.515   4.398   8.571  0.8078 -0.3137 -0.4778
  299MOL0     H39406   6.691   4.393   8.582  1.4764  2.7843 -1.1982
  299MOL0     H39407   6.620   4.549   8.432  0.2858 -0.1226 -0.3749
  299MOL0     H39408   6.722   4.616   8.553 -0.1824 -0.2304  1.2026
  299MOL0     H39409   6.538   4.706   8.684  0.6099  0.5938 -0.8073
  299MOL0     H39410   6.416   4.629   8.571 -1.0610  0.8306  1.4427
  299MOL0     H39411   6.624   4.835   8.474 -0.2843  1.8129  0.1764
  299MOL0     H39412   6.498   4.776   8.385 -1.1213 -0.8389 -0.4177
  299MOL0     H39413   6.441   5.008   8.484 -5.2916 -0.5363 -1.5794
  299MOL0     H39414   6.471   4.932   8.648  1.0394 -0.7444 -0.2996
  299MOL0     H39415   6.272   4.813   8.633 -1.3520  1.3998  1.1915
  299MOL0     H39416   6.246   4.843   8.464  1.1694  1.6575 -1.6753
  299MOL0     H39417   6.097   4.977   8.612  0.9424 -1.9051  0.7441
  299MOL0     H39418   6.241   5.042   8.685  0.9079  0.0061  0.2792
  299MOL0     H39419   6.307   5.147   8.460 -0.3466 -0.1282  1.6793
  299MOL0     H39420   6.157   5.216   8.536 -0.9806 -0.4795  1.3730
  299MOL0     H39421   5.933   5.067   8.435 -0.0705 -0.7565  0.4415
  299MOL0     H39422   5.775   5.175   8.205  2.9803  2.6097 -1.5350
  299MOL0     H39423   5.788   4.992   8.211  2.9056 -0.9627  1.2312
  299MOL0     H39424   5.883   5.023   7.968  0.8836 -0.2585 -0.3037
  299MOL0     H39425   5.869   5.195   7.997 -0.5971  0.5376  0.6806
  299MOL0     H39426   5.632   5.174   7.999  2.3001  1.9409 -3.2015
  299MOL0     H39427   5.683   5.074   7.859 -1.8557 -0.0182 -0.1150
  299MOL0     H39428   5.499   4.964   7.989  0.0721 -1.6623 -2.2721
  299MOL0     H39429   5.588   4.977   8.138 -2.5195 -0.0854  0.5469
  299MOL0     H39430   5.428   4.749   7.871 -1.5914  4.2867 -1.9030
  299MOL0     H39431   5.411   4.644   7.670  0.6528  1.0660 -3.3134
  299MOL0     H39432   5.514   4.651   7.221  1.3974  0.7053 -1.1141
  299MOL0     H39433   5.484   4.553   7.021 -2.1347 -0.6032  1.4406
  299MOL0     H39434   5.482   4.468   6.804 -1.3975 -0.7138 -0.3501
  299MOL0     H39435   5.469   4.320   6.879 -2.5206  2.8406 -0.2947
  299MOL0     H39436   5.617   4.207   6.699 -0.9450  0.1213  4.1395
  299MOL0     H39437   5.623   4.359   6.605  1.0490  3.5902  1.7929
  299MOL0     H39438   5.361   4.231   6.679  1.5716 -0.1104 -0.0028
  299MOL0     H39439   5.455   4.194   6.528  0.6121  1.4931 -0.9559
  299MOL0     H39440   5.340   4.470   6.595 -2.5022 -0.1635 -0.4672
  299MOL0     H39441   5.440   4.426   6.456 -2.1313 -1.1231 -2.6555
  299MOL0     H39442   5.176   4.285   6.504  1.0415  0.0182  0.2232
  299MOL0     H39443   5.287   4.270   6.371  1.5377 -1.3622  1.5643
  299MOL0     H39444   5.251   4.508   6.311  2.1989 -1.0217  1.2701
  299MOL0     H39445   5.152   4.537   6.461 -1.0064 -1.1701  0.3798
  299MOL0     H39446   5.094   4.407   6.202 -0.3895 -0.7778  0.3039
  299MOL0     H39447   5.025   4.333   6.346  2.6883 -0.7035 -0.2466
  299MOL0     H39448   4.910   4.531   6.396  0.0479 -0.5896 -0.4826
  299MOL0     H39449   4.864   4.490   6.233 -2.3171  0.1919  1.6333
  299MOL0     H39450   5.823   4.296   7.061  0.1101  0.7923 -1.2320
  299MOL0     H39451   5.843   4.368   7.302  1.1247  0.9517 -0.3964
  299MOL0     H39452   5.832   4.645   7.625  0.5759 -1.7223  2.5516
  299MOL0     H39453   5.862   4.778   7.818 -0.0435 -3.3122  2.5532
  299MOL0     H39454   6.637   4.198   8.675 -2.5164  0.6158 -1.0502
  299MOL0     H39455   6.598   4.004   8.829  5.5632 -0.0882  4.3187
  299MOL0     H39456   6.408   3.970   9.319 -1.5825 -1.0868  0.8478
  299MOL0     H39457   6.375   3.843   9.510 -0.6698 -0.2505  0.4657
  299MOL0     H39458   6.383   3.735   9.676 -0.1677  0.5745 -2.1527
  299MOL0     H39459   6.397   3.568   9.751  0.8875 -4.4021 -2.0593
  299MOL0     H39460   6.220   3.649   9.522 -1.6568  0.1638  0.3698
  299MOL0     H39461   6.255   3.479   9.571  0.0098 -0.5654  1.1381
  299MOL0     H39462   6.176   3.561   9.812 -0.4268 -0.6585 -0.3033
  299MOL0     H39463   6.053   3.541   9.694  0.0216 -0.1729 -1.1482
  299MOL0     H39464   6.032   3.753   9.829  1.8792  1.1500  1.5211
  299MOL0     H39465   6.171   3.826   9.777 -1.6135  2.6107 -0.7710
  299MOL0     H39466   5.914   3.891   9.445 -2.8060 -2.2989  0.1233
  299MOL0     H39467   6.607   3.516   9.356  0.6384 -0.9240 -1.1542
  299MOL0     H39468   6.656   3.653   9.162  0.0499  0.3444 -0.1556
  300MOL0     O39469   2.469   8.807  10.892 -1.2348 -0.1694 -0.5109
  300MOL0     C39470   2.416   8.919  10.908  0.7892 -0.1444 -0.4087
  300MOL0     O39471   2.485   9.044  10.898  0.4922  0.3215 -1.2011
  300MOL0     C39472   2.617   9.065  10.863  0.3671  0.7218 -0.2790
  300MOL0     C39473   2.647   9.191  10.810  0.8714  0.7725 -0.1423
  300MOL0     C39474   2.779   9.234  10.786 -0.0250  0.4918  1.1389
  300MOL0     C39475   2.886   9.142  10.816  0.1093  0.2263 -0.1634
  300MOL0     O39476   3.018   9.174  10.800 -0.7033  0.1485 -0.3929
  300MOL0     C39477   3.072   9.305  10.807  0.5469 -0.5392  0.6096
  300MOL0     C39478   3.216   9.312  10.859 -0.1740  0.2370 -0.9127
  300MOL0     C39479   3.284   9.452  10.842 -0.2884  0.2094  0.2639
  300MOL0     C39480   3.415   9.469  10.923 -0.4760  0.4015 -0.8134
  300MOL0     C39481   3.525   9.352  10.891  0.6184 -0.2939  0.5659
  300MOL0     C39482   3.668   9.404  10.917  0.0085  0.6259  0.8347
  300MOL0     C39483   3.706   9.423  11.061 -1.0779 -0.4529  0.0672
  300MOL0     C39484   3.673   9.570  11.094 -0.6207  0.1954 -1.0690
  300MOL0     N39485   3.759   9.610  11.210  0.1989 -0.3409  0.3923
  300MOL0     C39486   3.880   9.669  11.216  1.0625 -0.3149 -0.4943
  300MOL0     C39487   3.904   9.697  11.349  0.6725  0.3207 -0.4764
  300MOL0     C39488   4.021   9.777  11.394 -0.8626 -0.4307  0.9094
  300MOL0     C39489   4.002   9.923  11.381 -0.1163  0.2803 -0.0716
  300MOL0     C39490   4.095  10.001  11.468 -0.7795 -0.4785  0.6847
  300MOL0     C39491   4.245   9.977  11.441  0.1176  0.4959  0.1373
  300MOL0     O39492   4.318  10.083  11.512 -0.0652 -0.0204 -0.3516
  300MOL0     C39493   4.458  10.064  11.527  0.0490 -0.1794 -0.5632
  300MOL0     C39494   4.528  10.160  11.595 -0.2373 -0.3717 -0.2017
  300MOL0     C39495   4.668  10.152  11.611 -0.4558  0.5247 -0.0418
  300MOL0     C39496   4.743  10.053  11.545  0.5794  0.1292  0.5176
  300MOL0     C39497   4.889  10.044  11.533 -0.3984  0.5789 -0.0646
  300MOL0     O39498   4.957   9.934  11.481 -0.1043  0.3792 -0.0371
  300MOL0     C39499   5.087   9.948  11.451  0.1524  0.8614  0.3737
  300MOL0     C39500   5.175   9.834  11.461 -0.3059  0.5671 -1.0099
  300MOL0     C39501   5.302   9.842  11.419 -0.4633  0.2980 -0.4411
  300MOL0     C39502   5.359   9.959  11.370 -0.4632  0.4973  0.4523
  300MOL0     O39503   5.490   9.976  11.324  0.4218  0.3650  0.0359
  300MOL0     C39504   5.584   9.865  11.318  0.1681 -0.0930 -0.5604
  300MOL0     C39505   5.724   9.910  11.280 -0.8273  0.3584 -0.4818
  300MOL0     C39506   5.808   9.984  11.389  0.3129 -0.4200 -0.0981
  300MOL0     C39507   5.913  10.078  11.326  0.0225  0.3878 -0.2665
  300MOL0     C39508   6.059  10.033  11.309 -0.9098  0.0262 -0.3159
  300MOL0     C39509   6.137  10.164  11.289 -0.9678  0.4061  0.0796
  300MOL0     C39510   6.281  10.126  11.251 -0.3719  0.1275  0.9717
  300MOL0     C39511   6.342  10.256  11.193  0.3729 -0.2111  0.0644
  300MOL0    Cl39512   6.367  10.373  11.323  0.2480 -0.1370 -0.2258
  300MOL0     C39513   5.278  10.064  11.342  0.2297  0.2941  0.1141
  300MOL0     C39514   5.146  10.065  11.383  1.2641  0.3821 -0.3863
  300MOL0     O39515   4.944  10.145  11.575  0.2085 -0.7200  0.5409
  300MOL0     C39516   4.669   9.972  11.468 -0.6062  0.2138 -0.2008
  300MOL0     C39517   4.530   9.970  11.460  0.1272  0.2384  0.1207
  300MOL0     N39518   3.781   9.665  11.419 -0.0255 -0.6922 -0.4327
  300MOL0     N39519   3.701   9.613  11.329 -0.8099  0.6954  0.2525
  300MOL0     C39520   2.847   9.011  10.861 -0.1867 -0.8914 -0.1392
  300MOL0     C39521   2.719   8.972  10.878 -0.9082 -0.1067 -0.4694
  300MOL0     C39522   2.267   8.918  10.939  0.2368 -0.6994  0.2806
  300MOL0     C39523   2.200   8.798  10.939 -0.0507  0.1034 -0.5129
  300MOL0     C39524   2.054   8.807  10.958 -1.0178  0.4476 -0.0604
  300MOL0     C39525   1.990   8.923  10.969 -0.7778 -0.3674  0.3689
  300MOL0     O39526   1.853   8.923  10.988 -0.8177  0.0834 -0.4427
  300MOL0     C39527   1.787   8.823  11.077 -0.9657 -0.1751 -0.1722
  300MOL0     C39528   1.706   8.718  11.007 -0.5345  0.8994  0.4669
  300MOL0     C39529   1.571   8.760  10.952  0.2122 -0.4967 -0.4985
  300MOL0     C39530   1.573   8.842  10.825  0.5661 -1.1331  0.2737
  300MOL0     C39531   1.441   8.907  10.823  1.0506 -0.2171  0.0509
  300MOL0     C39532   1.331   8.959  10.805 -0.2369  0.6915  0.1431
  300MOL0     C39533   2.059   9.043  10.961 -0.1593  0.3043  0.5150
  300MOL0     C39534   2.197   9.039  10.944  0.2581 -0.4193 -0.6248
  300MOL0     H39535   2.571   9.266  10.791 -0.6932 -0.8894 -0.7191
  300MOL0     H39536   2.803   9.335  10.754  0.8793  0.2242  0.9411
  300MOL0     H39537   3.019   9.382  10.863  1.4443  2.1614 -1.9644
  300MOL0     H39538   3.082   9.342  10.704  0.2287 -2.4326 -0.1438
  300MOL0     H39539   3.268   9.233  10.805  2.7744  1.5689 -0.2099
  300MOL0     H39540   3.215   9.291  10.966 -0.6779  3.6186 -0.1448
  300MOL0     H39541   3.218   9.529  10.883  2.5711  3.0258  0.0068
  300MOL0     H39542   3.318   9.457  10.738 -3.1021  0.1092 -0.7404
  300MOL0     H39543   3.445   9.572  10.901 -1.7382  0.2853 -3.4573
  300MOL0     H39544   3.383   9.464  11.028  0.9082  3.4979 -0.1323
  300MOL0     H39545   3.514   9.331  10.785  1.2203 -0.5365  0.5453
  300MOL0     H39546   3.514   9.263  10.954  0.5094  0.8379  2.2283
  300MOL0     H39547   3.693   9.492  10.857  0.0998  1.3337  1.8929
  300MOL0     H39548   3.735   9.327  10.878  0.5451  2.4295 -2.1066
  300MOL0     H39549   3.664   9.355  11.136  2.2650 -1.1612  1.4486
  300MOL0     H39550   3.814   9.414  11.052 -1.0036 -2.3812  2.0205
  300MOL0     H39551   3.569   9.590  11.122  0.0334 -0.5748  2.4491
  300MOL0     H39552   3.704   9.632  11.009 -0.1489 -2.0393 -2.5895
  300MOL0     H39553   3.950   9.699  11.139  2.3421  3.7364  1.9683
  300MOL0     H39554   4.107   9.752  11.333 -1.5662  0.0669 -0.3235
  300MOL0     H39555   4.037   9.743  11.497 -0.6581 -0.6962  0.7885
  300MOL0     H39556   3.898   9.951  11.400  0.0468  0.0110  1.3873
  300MOL0     H39557   4.031   9.943  11.278 -0.5923 -1.4806 -0.5888
  300MOL0     H39558   4.075  10.104  11.438 -0.2595 -0.5719 -0.0352
  300MOL0     H39559   4.068   9.991  11.573  1.2988  1.1242  1.4509
  300MOL0     H39560   4.257   9.975  11.332  0.4134  0.5571  0.1672
  300MOL0     H39561   4.279   9.880  11.476 -1.1748  0.1640  0.4844
  300MOL0     H39562   4.480  10.244  11.644 -1.0679 -0.5314 -0.7354
  300MOL0     H39563   4.723  10.226  11.668 -0.6345 -0.2060  1.1134
  300MOL0     H39564   5.148   9.737  11.500  1.9818 -0.8132 -2.6142
  300MOL0     H39565   5.363   9.753  11.432 -0.1452  0.4529 -0.8093
  300MOL0     H39566   5.553   9.803  11.233  0.0517  1.3713 -1.6194
  300MOL0     H39567   5.597   9.803  11.407 -1.7339 -0.1162 -0.2683
  300MOL0     H39568   5.725   9.962  11.183  0.2197 -1.3932 -1.4576
  300MOL0     H39569   5.774   9.818  11.251 -0.5154  0.0749  0.9103
  300MOL0     H39570   5.848   9.898  11.443  1.1335  0.3646  0.5830
  300MOL0     H39571   5.746  10.039  11.461 -1.6130 -1.6391 -0.7445
  300MOL0     H39572   5.886  10.102  11.223  1.4085  0.0709 -0.7232
  300MOL0     H39573   5.911  10.176  11.375 -1.5277 -0.7514  2.1455
  300MOL0     H39574   6.069   9.972  11.218  1.5136  0.1884 -0.2124
  300MOL0     H39575   6.097   9.980  11.396  0.3203 -0.1993 -0.9676
  300MOL0     H39576   6.132  10.222  11.382  0.7567  0.0825  0.4012
  300MOL0     H39577   6.099  10.225  11.206  0.5411  3.9670  1.7732
  300MOL0     H39578   6.345  10.081  11.328  0.1208  0.8357  0.9850
  300MOL0     H39579   6.277  10.055  11.168  2.6092  0.9101  0.0652
  300MOL0     H39580   6.286  10.306  11.113  2.4782  2.4727  0.1630
  300MOL0     H39581   6.442  10.234  11.157  0.0029  0.4822 -1.4769
  300MOL0     H39582   5.318  10.140  11.276  0.7030 -0.8422 -0.9390
  300MOL0     H39583   5.077  10.140  11.347  0.6040  0.4391  0.9266
  300MOL0     H39584   4.731   9.906  11.409  0.3807  0.6610  0.3063
  300MOL0     H39585   4.484   9.902  11.390  2.1993 -0.5093 -0.5719
  300MOL0     H39586   2.930   8.950  10.895  2.5373  1.9784 -1.1620
  300MOL0     H39587   2.715   8.877  10.929  3.0580  0.7917  1.9293
  300MOL0     H39588   2.248   8.705  10.913  0.9175  1.1946 -2.9471
  300MOL0     H39589   2.006   8.710  10.948  0.2399 -0.1699 -0.2311
  300MOL0     H39590   1.721   8.875  11.148  1.3871  3.3628 -0.3185
  300MOL0     H39591   1.866   8.775  11.135 -0.5923  1.8816  1.1208
  300MOL0     H39592   1.767   8.677  10.926 -1.5406  1.1220 -0.4251
  300MOL0     H39593   1.686   8.633  11.072  0.1764 -0.8004 -1.4491
  300MOL0     H39594   1.526   8.803  11.042  0.3304 -0.6411 -0.3717
  300MOL0     H39595   1.511   8.670  10.940 -1.1021  0.1485  0.9588
  300MOL0     H39596   1.651   8.918  10.820 -1.0528  0.5683 -0.1284
  300MOL0     H39597   1.585   8.781  10.736 -1.9080  1.2106 -1.8386
  300MOL0     H39598   1.240   9.011  10.780  1.0105  2.2614 -1.3561
  300MOL0     H39599   2.010   9.139  10.970 -1.3559 -0.2005 -0.2601
  300MOL0     H39600   2.249   9.134  10.950 -0.2580 -0.2264  2.5504
  301MOL0     O39601   0.567   6.774   2.051 -0.0487  0.1085  0.0051
  301MOL0     C39602   0.523   6.715   2.157 -0.3962  0.2535  0.4811
  301MOL0     O39603   0.402   6.730   2.207  0.2303 -0.5234  0.1569
  301MOL0     C39604   0.299   6.798   2.142  0.1370 -0.2437 -0.3556
  301MOL0     C39605   0.168   6.744   2.154  0.0022 -0.5932 -0.5303
  301MOL0     C39606   0.059   6.823   2.106  0.7066 -0.2583 -0.6575
  301MOL0     C39607   0.081   6.946   2.039  0.1555 -0.0831 -1.0204
  301MOL0     O39608  -0.016   7.023   1.988 -0.5654 -0.6965  0.6415
  301MOL0     C39609  -0.130   6.963   1.923  0.5762  0.4687  0.9493
  301MOL0     C39610  -0.258   6.981   2.009 -0.3337  0.1132 -0.2927
  301MOL0     C39611  -0.299   7.126   2.043  0.3579  0.0363  0.3079
  301MOL0     C39612  -0.201   7.179   2.145  0.6015  0.2317  0.8137
  301MOL0     C39613  -0.266   7.301   2.224 -0.3313 -0.1817  1.1975
  301MOL0     C39614  -0.380   7.257   2.320  0.2559 -0.2719  0.7857
  301MOL0     C39615  -0.425   7.378   2.406  0.6868 -0.5842 -0.8278
  301MOL0     C39616  -0.526   7.335   2.518  0.0255 -0.0505  0.3414
  301MOL0     N39617  -0.651   7.278   2.468 -0.5816 -0.1011 -0.0195
  301MOL0     C39618  -0.737   7.332   2.372 -0.1978 -0.0070 -0.6029
  301MOL0     C39619  -0.824   7.235   2.347  0.5212 -0.0626  0.5482
  301MOL0     C39620  -0.910   7.220   2.227  0.3119 -0.2083 -0.4438
  301MOL0     C39621  -1.031   7.328   2.223  1.3016 -0.0454 -0.1679
  301MOL0     C39622  -1.152   7.268   2.306  0.3773 -0.1150  0.2202
  301MOL0     C39623  -1.265   7.366   2.341  0.1148 -0.4827 -0.3887
  301MOL0     O39624  -1.375   7.284   2.389  0.0770  0.0128 -0.1208
  301MOL0     C39625  -1.474   7.352   2.455 -1.5469 -0.3030  0.4538
  301MOL0     C39626  -1.517   7.282   2.566  0.6837  0.5467 -0.3315
  301MOL0     C39627  -1.604   7.345   2.654 -0.3244 -0.3103  0.3804
  301MOL0     C39628  -1.635   7.487   2.640  0.2288 -1.1466 -0.6749
  301MOL0     C39629  -1.718   7.553   2.746  0.0264  0.7331  0.1045
  301MOL0     O39630  -1.806   7.466   2.801  0.0490  0.1081  0.3241
  301MOL0     C39631  -1.917   7.502   2.874 -0.1772 -0.2739 -0.7943
  301MOL0     C39632  -1.966   7.405   2.958 -0.8027 -0.1148 -0.2124
  301MOL0     C39633  -2.079   7.419   3.034 -0.1171 -0.2559 -0.7171
  301MOL0     C39634  -2.142   7.546   3.041  0.0049 -0.3876  0.5390
  301MOL0     O39635  -2.251   7.590   3.116  0.2216  1.2655 -0.1760
  301MOL0     C39636  -2.291   7.508   3.227 -0.5999 -0.5291  1.3218
  301MOL0     C39637  -2.414   7.572   3.290  0.4362  0.4581 -0.6637
  301MOL0     C39638  -2.476   7.475   3.398 -0.4456 -0.3686  0.5858
  301MOL0     C39639  -2.619   7.515   3.428  0.9654  0.4688  0.5584
  301MOL0     C39640  -2.691   7.420   3.527 -0.2885 -0.2384  0.3435
  301MOL0     C39641  -2.839   7.456   3.531 -0.2008  0.2657 -0.0052
  301MOL0     C39642  -2.910   7.350   3.615 -0.7624  0.8911 -0.9615
  301MOL0     C39643  -3.063   7.328   3.585 -0.5912  0.2404  0.7294
  301MOL0    Cl39644  -3.144   7.484   3.631  0.1613  0.4995  0.2051
  301MOL0     C39645  -2.090   7.649   2.953  0.0838  0.6449  0.2649
  301MOL0     C39646  -1.978   7.630   2.877 -0.0251 -0.0666  0.7524
  301MOL0     O39647  -1.715   7.674   2.761 -0.3245 -0.0025  0.3427
  301MOL0     C39648  -1.581   7.551   2.534 -0.6329  0.6982 -0.6129
  301MOL0     C39649  -1.499   7.489   2.443 -0.0849 -0.9875 -0.1324
  301MOL0     N39650  -0.802   7.125   2.431  0.8445 -0.4474 -0.2468
  301MOL0     N39651  -0.700   7.157   2.505  0.2610  0.3726  0.6462
  301MOL0     C39652   0.214   6.996   2.026 -0.7017 -0.0258 -0.8804
  301MOL0     C39653   0.324   6.922   2.079 -0.4046  0.1072 -0.2515
  301MOL0     C39654   0.616   6.618   2.220  0.7780  0.2564 -0.8600
  301MOL0     C39655   0.585   6.552   2.341 -0.2113 -0.6387  0.5130
  301MOL0     C39656   0.671   6.464   2.400  0.1915 -0.2703 -0.9083
  301MOL0     C39657   0.800   6.452   2.348 -0.4128 -0.4183  0.3363
  301MOL0     O39658   0.884   6.358   2.400  0.3612 -0.1344  0.1022
  301MOL0     C39659   0.978   6.291   2.317 -0.5084  0.1942 -0.2874
  301MOL0     C39660   1.115   6.331   2.376 -0.1202  0.3517 -0.7367
  301MOL0     C39661   1.133   6.248   2.514 -0.3488 -0.4650  0.7092
  301MOL0     C39662   1.280   6.251   2.546  0.5562 -1.2324 -0.2353
  301MOL0     C39663   1.314   6.174   2.668 -0.0064  0.0487 -0.2921
  301MOL0     C39664   1.332   6.102   2.764 -0.1838 -1.3093  0.1546
  301MOL0     C39665   0.833   6.536   2.244  0.3057 -0.1406  0.7167
  301MOL0     C39666   0.744   6.622   2.181 -0.1351  1.2476 -0.4071
  301MOL0     H39667   0.137   6.651   2.198  0.0382  1.0096  3.2225
  301MOL0     H39668  -0.043   6.787   2.113  1.2584 -1.6979  0.4047
  301MOL0     H39669  -0.110   6.857   1.906 -0.7141  0.3655 -0.0640
  301MOL0     H39670  -0.156   7.004   1.825 -4.0213 -2.0634  0.8215
  301MOL0     H39671  -0.253   6.918   2.099  0.8494 -0.0726 -0.4652
  301MOL0     H39672  -0.343   6.938   1.956 -0.5765 -0.6042  0.6573
  301MOL0     H39673  -0.403   7.123   2.078  0.4259  0.2920  0.5296
  301MOL0     H39674  -0.287   7.196   1.960  2.7898  2.6407  2.6862
  301MOL0     H39675  -0.175   7.109   2.225  1.7446 -2.7243 -1.9486
  301MOL0     H39676  -0.114   7.214   2.089  0.2060  3.8182  2.1506
  301MOL0     H39677  -0.308   7.375   2.154  1.2022 -0.4296 -0.0413
  301MOL0     H39678  -0.183   7.347   2.278  1.9159 -1.3120 -1.0784
  301MOL0     H39679  -0.336   7.176   2.379 -0.7120 -2.4948 -1.3947
  301MOL0     H39680  -0.467   7.216   2.268  1.2331 -0.4048 -0.8237
  301MOL0     H39681  -0.341   7.428   2.455 -0.4127  0.1352  0.3845
  301MOL0     H39682  -0.474   7.451   2.342  1.4025  2.5790  1.9567
  301MOL0     H39683  -0.556   7.431   2.560 -1.3558 -0.5987  0.6967
  301MOL0     H39684  -0.478   7.262   2.584 -0.7489 -1.5882 -0.7430
  301MOL0     H39685  -0.717   7.418   2.310  2.5790  0.1631  0.3548
  301MOL0     H39686  -0.965   7.126   2.231  1.7084 -1.0081  0.9283
  301MOL0     H39687  -0.845   7.214   2.139  3.2093 -2.4308  1.6865
  301MOL0     H39688  -1.053   7.340   2.117  0.0463  1.3556  0.2233
  301MOL0     H39689  -1.006   7.430   2.254  1.8930 -1.0306  3.0078
  301MOL0     H39690  -1.192   7.185   2.247  0.4154  0.1223 -0.1368
  301MOL0     H39691  -1.110   7.230   2.400 -0.4723 -2.3311 -0.2312
  301MOL0     H39692  -1.286   7.429   2.253 -0.1759 -1.6743 -1.1907
  301MOL0     H39693  -1.224   7.424   2.424 -0.6442 -0.0005 -0.3481
  301MOL0     H39694  -1.500   7.176   2.579 -2.7026  0.1552  2.3908
  301MOL0     H39695  -1.639   7.292   2.742  2.0895 -0.3877  1.3554
  301MOL0     H39696  -1.906   7.314   2.963 -0.0237  0.3130 -1.3288
  301MOL0     H39697  -2.123   7.335   3.087  0.9550 -1.3561 -1.5305
  301MOL0     H39698  -2.200   7.498   3.287  2.6548  0.1182 -3.0342
  301MOL0     H39699  -2.319   7.411   3.185  2.3310  0.1571 -2.7322
  301MOL0     H39700  -2.494   7.592   3.218 -1.5165 -1.3265  0.8573
  301MOL0     H39701  -2.385   7.669   3.333  1.3559  0.9266 -2.2688
  301MOL0     H39702  -2.415   7.465   3.489  1.0957  1.7013 -0.1573
  301MOL0     H39703  -2.473   7.371   3.366  0.1976 -0.2606  0.2870
  301MOL0     H39704  -2.610   7.616   3.469 -0.5422  1.8318 -2.1902
  301MOL0     H39705  -2.674   7.529   3.334  1.4828 -2.0677 -0.1975
  301MOL0     H39706  -2.646   7.433   3.626 -0.9950  2.7180  0.3644
  301MOL0     H39707  -2.677   7.317   3.493 -2.0082 -0.3411 -0.1601
  301MOL0     H39708  -2.878   7.458   3.429 -2.4459 -0.5444  0.7837
  301MOL0     H39709  -2.849   7.556   3.572  1.7075  1.9269 -3.1857
  301MOL0     H39710  -2.865   7.251   3.603 -2.5330 -0.2286  0.9217
  301MOL0     H39711  -2.916   7.376   3.721 -1.2186  1.7691 -1.1973
  301MOL0     H39712  -3.108   7.251   3.649  0.1628 -0.4908  0.3889
  301MOL0     H39713  -3.073   7.300   3.480 -0.5358 -2.3654  1.3429
  301MOL0     H39714  -2.139   7.746   2.957 -0.2822  0.4985 -0.5661
  301MOL0     H39715  -1.943   7.725   2.838  2.0905  0.1157  2.8301
  301MOL0     H39716  -1.602   7.656   2.517 -2.8998  0.2502 -0.8065
  301MOL0     H39717  -1.461   7.545   2.358  0.7301 -2.7324 -0.9759
  301MOL0     H39718   0.237   7.088   1.972  0.3679 -0.4323 -1.1423
  301MOL0     H39719   0.429   6.945   2.065 -0.4161  1.8071  1.8571
  301MOL0     H39720   0.484   6.571   2.377 -0.4412  2.9920 -1.5648
  301MOL0     H39721   0.635   6.410   2.487 -1.7748  1.8428 -0.3250
  301MOL0     H39722   0.968   6.296   2.208 -1.5828 -0.2206 -0.2178
  301MOL0     H39723   0.959   6.184   2.335  0.3428  0.2028  0.7574
  301MOL0     H39724   1.193   6.296   2.308  1.5388 -0.2158  1.3455
  301MOL0     H39725   1.116   6.440   2.387  1.5991  0.3268 -0.2755
  301MOL0     H39726   1.100   6.144   2.505  0.7260 -0.6335 -2.6616
  301MOL0     H39727   1.073   6.284   2.598  0.6054 -0.0256  1.2166
  301MOL0     H39728   1.328   6.221   2.453  1.9493  1.7561 -0.5966
  301MOL0     H39729   1.313   6.355   2.547 -0.9620 -0.7218  0.2391
  301MOL0     H39730   1.357   6.035   2.843 -1.9081 -0.3521  1.5690
  301MOL0     H39731   0.925   6.547   2.187 -0.8943  1.8440 -0.9937
  301MOL0     H39732   0.768   6.674   2.089 -3.6510  1.3805 -1.3671
  302MOL0     O39733   6.951   6.354  10.187 -0.3706 -0.4323 -0.0232
  302MOL0     C39734   6.993   6.465  10.189 -0.0905  0.1516  0.1666
  302MOL0     O39735   7.124   6.498  10.210  0.7813 -0.1790 -0.2549
  302MOL0     C39736   7.215   6.415  10.277  0.0965  0.9144  0.4621
  302MOL0     C39737   7.351   6.429  10.241  0.2251  0.3479  0.5525
  302MOL0     C39738   7.447   6.342  10.293  1.0215 -0.4200  0.2541
  302MOL0     C39739   7.408   6.240  10.378 -0.8055  0.0128  0.5132
  302MOL0     O39740   7.511   6.171  10.440  0.2923  0.2540  0.6508
  302MOL0     C39741   7.494   6.071  10.544  0.2354  0.2189  0.2752
  302MOL0     C39742   7.642   6.018  10.550 -0.2920  0.0889  0.4871
  302MOL0     C39743   7.689   5.951  10.420  0.3305  1.1114  0.0589
  302MOL0     C39744   7.825   5.890  10.443  0.0069  0.5544 -0.2464
  302MOL0     C39745   7.892   5.843  10.316  0.8443  0.3716  0.0093
  302MOL0     C39746   8.041   5.826  10.350  0.1080 -0.0044  0.0831
  302MOL0     C39747   8.116   5.800  10.225 -1.2685 -0.4194  0.4102
  302MOL0     C39748   8.264   5.787  10.262 -0.2074 -0.4435  0.0372
  302MOL0     N39749   8.335   5.757  10.136 -0.0765  0.2779 -0.2042
  302MOL0     C39750   8.349   5.636  10.082  0.6992  0.4748  0.1247
  302MOL0     C39751   8.430   5.654   9.975 -0.3549  0.6518 -0.1980
  302MOL0     C39752   8.484   5.549   9.870  0.0791 -0.1602 -0.5626
  302MOL0     C39753   8.413   5.567   9.738 -0.0134 -0.2104  0.3440
  302MOL0     C39754   8.288   5.473   9.720  0.7931 -0.5130 -0.3909
  302MOL0     C39755   8.152   5.524   9.793 -0.5016 -0.6611 -0.1346
  302MOL0     O39756   8.051   5.428   9.768  0.3019 -0.5604 -0.6005
  302MOL0     C39757   7.924   5.447   9.819  0.6729  0.3560  0.1306
  302MOL0     C39758   7.828   5.344   9.803 -1.2537 -0.4899  0.3322
  302MOL0     C39759   7.697   5.357   9.847  0.6359 -0.6385  0.3603
  302MOL0     C39760   7.649   5.467   9.922 -0.9963 -0.1800  0.1499
  302MOL0     C39761   7.519   5.470   9.981  1.2808 -0.7981  0.6558
  302MOL0     O39762   7.459   5.347   9.982  0.6505 -0.5888  0.8811
  302MOL0     C39763   7.318   5.352   9.994 -0.2913 -0.5507 -0.1640
  302MOL0     C39764   7.258   5.372  10.119 -0.2184 -0.3189 -0.1950
  302MOL0     C39765   7.121   5.388  10.122  0.6808  0.2206 -0.4721
  302MOL0     C39766   7.038   5.385  10.005 -0.0367  0.7997  0.8432
  302MOL0     O39767   6.898   5.386  10.000  0.4899  0.0777  0.0898
  302MOL0     C39768   6.826   5.338  10.110  0.1785  0.5889 -0.6088
  302MOL0     C39769   6.678   5.317  10.077 -0.4797 -0.1750 -0.5998
  302MOL0     C39770   6.643   5.217   9.964  0.8606 -0.8530  0.3140
  302MOL0     C39771   6.496   5.159   9.979 -0.6524 -0.1455 -0.0214
  302MOL0     C39772   6.461   5.071   9.857  0.3505 -0.2089  0.4379
  302MOL0     C39773   6.313   5.099   9.820 -0.2918 -0.1423  0.2577
  302MOL0     C39774   6.261   5.035   9.685 -0.0250 -0.7036 -1.2667
  302MOL0     C39775   6.177   5.131   9.611  1.1379 -0.3294  0.5332
  302MOL0    Cl39776   6.192   5.130   9.439 -0.0296  0.1749  0.1026
  302MOL0     C39777   7.107   5.375   9.882  0.5177 -0.1899 -0.2582
  302MOL0     C39778   7.246   5.348   9.873 -0.6385 -0.0029 -0.7586
  302MOL0     O39779   7.468   5.573  10.027  0.0491 -0.4978  0.3065
  302MOL0     C39780   7.744   5.570   9.935 -0.0071  0.1316  0.4282
  302MOL0     C39781   7.880   5.554   9.894 -0.0500 -0.7052  0.1234
  302MOL0     N39782   8.459   5.788   9.966 -0.7254 -0.6449  0.4227
  302MOL0     N39783   8.399   5.853  10.058  0.2442  1.0171  0.5946
  302MOL0     C39784   7.276   6.229  10.418  0.4566 -0.0686 -0.8551
  302MOL0     C39785   7.180   6.322  10.369  0.4183  0.5553 -0.7245
  302MOL0     C39786   6.908   6.577  10.150 -1.1391 -0.2570 -0.2641
  302MOL0     C39787   6.961   6.691  10.084  0.0814  0.1177  0.2276
  302MOL0     C39788   6.876   6.785  10.039  0.6642  0.0540  1.0425
  302MOL0     C39789   6.739   6.775  10.031 -0.1425 -0.4539  0.1821
  302MOL0     O39790   6.675   6.872   9.961  0.2521 -0.4848  0.7788
  302MOL0     C39791   6.555   6.838   9.894 -0.2798 -1.1997  0.7357
  302MOL0     C39792   6.465   6.962   9.872 -0.5606 -0.3084 -0.4643
  302MOL0     C39793   6.321   6.916   9.836  0.3361 -0.2677  0.9155
  302MOL0     C39794   6.235   7.028   9.803  0.5071  0.4219  0.2915
  302MOL0     C39795   6.107   6.988   9.735  0.0913  0.0140 -0.5225
  302MOL0     C39796   6.006   6.950   9.676 -0.6473 -1.1262 -1.0980
  302MOL0     C39797   6.684   6.660  10.096  0.0875 -0.0060  0.3735
  302MOL0     C39798   6.768   6.560  10.155 -0.0525 -0.0616  0.5062
  302MOL0     H39799   7.379   6.510  10.174  4.3715 -2.0000 -0.9598
  302MOL0     H39800   7.552   6.359  10.272  0.5059  2.3314 -0.5424
  302MOL0     H39801   7.426   5.988  10.522 -0.4880  1.6041 -3.3492
  302MOL0     H39802   7.473   6.110  10.644 -2.2198 -1.2622  0.4349
  302MOL0     H39803   7.640   5.938  10.625 -3.8830  0.0904  0.5761
  302MOL0     H39804   7.706   6.098  10.586  0.8307 -1.0042  0.9945
  302MOL0     H39805   7.676   6.027  10.343 -1.2609 -0.3112 -1.1536
  302MOL0     H39806   7.621   5.872  10.389 -1.2299  1.4726  2.3154
  302MOL0     H39807   7.883   5.962  10.502 -2.5501  0.3362  2.8244
  302MOL0     H39808   7.832   5.805  10.512  1.6723  0.4081 -0.5564
  302MOL0     H39809   7.891   5.919  10.237  2.5680 -0.1230 -0.5217
  302MOL0     H39810   7.852   5.748  10.280 -0.2292  0.9610 -0.4047
  302MOL0     H39811   8.056   5.740  10.416  1.8507  0.6715  0.6189
  302MOL0     H39812   8.080   5.915  10.399  0.0056 -0.3670  0.8360
  302MOL0     H39813   8.063   5.716  10.178 -2.6072 -0.5432  2.0400
  302MOL0     H39814   8.097   5.892  10.169  2.5661  1.6690  2.2005
  302MOL0     H39815   8.273   5.700  10.327  1.2096  0.9445  1.7924
  302MOL0     H39816   8.297   5.881  10.305  2.9438 -0.0465 -2.8133
  302MOL0     H39817   8.297   5.550  10.122  1.3672 -0.3989 -0.8346
  302MOL0     H39818   8.479   5.445   9.905  2.2018 -0.7952 -1.9562
  302MOL0     H39819   8.591   5.568   9.860  0.5635 -0.0143  3.2648
  302MOL0     H39820   8.487   5.541   9.663  2.6946  0.0720  2.7515
  302MOL0     H39821   8.401   5.673   9.711  2.8844  0.0555 -0.1299
  302MOL0     H39822   8.265   5.464   9.613  1.0677  0.4882 -0.5500
  302MOL0     H39823   8.308   5.370   9.752  2.9797  0.3149  1.1769
  302MOL0     H39824   8.127   5.624   9.755  2.4688 -0.7969 -2.8799
  302MOL0     H39825   8.170   5.528   9.901 -2.3571 -1.0256  0.2169
  302MOL0     H39826   7.853   5.257   9.744 -3.6258 -0.6332 -0.5814
  302MOL0     H39827   7.640   5.267   9.828  1.2970 -0.5918 -2.2204
  302MOL0     H39828   7.305   5.385  10.216 -0.7181  2.0354 -0.2079
  302MOL0     H39829   7.087   5.411  10.223  4.5767  1.8914  0.6408
  302MOL0     H39830   6.844   5.407  10.193 -1.0806 -0.0612  0.2322
  302MOL0     H39831   6.864   5.242  10.144  0.3774 -0.1849 -2.8400
  302MOL0     H39832   6.637   5.417  10.056  1.5257  1.7844  3.6858
  302MOL0     H39833   6.614   5.289  10.161 -0.4598  2.0316  0.2089
  302MOL0     H39834   6.714   5.133   9.968  1.3208 -0.4671  0.3901
  302MOL0     H39835   6.649   5.279   9.874  0.5835  0.9576  1.4874
  302MOL0     H39836   6.497   5.099  10.070 -1.1002 -0.5171 -0.2547
  302MOL0     H39837   6.428   5.242   9.996  1.0074  1.2042  0.2610
  302MOL0     H39838   6.476   4.967   9.886  3.0687  0.1704  0.7064
  302MOL0     H39839   6.529   5.074   9.771 -1.2989  0.1306 -0.8975
  302MOL0     H39840   6.313   5.208   9.810  3.0944 -0.0503 -0.2151
  302MOL0     H39841   6.254   5.056   9.902  0.4229 -0.1833  0.7642
  302MOL0     H39842   6.348   5.016   9.621  1.2545 -1.2394  0.5171
  302MOL0     H39843   6.210   4.941   9.708 -1.8541  0.1010 -1.8966
  302MOL0     H39844   6.191   5.232   9.651  1.3334  0.3499 -1.1363
  302MOL0     H39845   6.073   5.115   9.641  0.5273  0.4164 -1.0513
  302MOL0     H39846   7.049   5.374   9.791  1.1035 -0.7224 -0.6346
  302MOL0     H39847   7.300   5.331   9.780  0.3753 -0.1383 -0.1647
  302MOL0     H39848   7.709   5.656   9.992 -1.2465 -0.9042  1.2792
  302MOL0     H39849   7.955   5.628   9.922  0.0327 -0.6822 -0.1609
  302MOL0     H39850   7.235   6.154  10.484  0.4923  1.6352  1.2011
  302MOL0     H39851   7.078   6.321  10.405  0.5901 -0.3208 -0.2496
  302MOL0     H39852   7.069   6.696  10.073  0.1252 -0.0516  0.5793
  302MOL0     H39853   6.915   6.871   9.985 -0.3794 -0.5361 -0.7551
  302MOL0     H39854   6.500   6.762   9.950  0.1869 -1.9441  0.2037
  302MOL0     H39855   6.575   6.803   9.792 -0.8023 -2.5344  1.0765
  302MOL0     H39856   6.464   7.022   9.964 -0.7167 -1.1880  0.1175
  302MOL0     H39857   6.509   7.025   9.794  1.6284 -1.6769 -0.4313
  302MOL0     H39858   6.269   6.851   9.906 -0.7266 -2.5660 -1.8081
  302MOL0     H39859   6.337   6.850   9.750 -0.1217 -0.3419  0.8848
  302MOL0     H39860   6.214   7.090   9.891 -1.2402  0.2692  0.0163
  302MOL0     H39861   6.283   7.097   9.733 -1.1207  1.8168  0.4906
  302MOL0     H39862   5.916   6.939   9.620  1.2074 -2.3681 -4.0713
  302MOL0     H39863   6.577   6.642  10.088  0.0911  0.2870 -0.4170
  302MOL0     H39864   6.724   6.465  10.183  3.5201 -1.2210  2.9018
  303MOL0     O39865   9.125   5.342   4.347  0.0908 -0.3472  0.4595
  303MOL0     C39866   9.206   5.411   4.290 -0.3511 -0.2477 -0.0798
  303MOL0     O39867   9.185   5.502   4.188 -0.2400 -0.1850  0.3696
  303MOL0     C39868   9.060   5.540   4.156  0.6691 -1.4001 -0.1456
  303MOL0     C39869   9.009   5.672   4.173 -1.0788 -0.1210 -0.9476
  303MOL0     C39870   8.884   5.701   4.133 -0.0671  0.7934  0.1443
  303MOL0     C39871   8.800   5.602   4.075  0.0016 -0.2370 -0.1002
  303MOL0     O39872   8.683   5.653   4.024  1.3277  0.8868 -0.6355
  303MOL0     C39873   8.604   5.556   3.956  0.4703 -0.3501 -0.0510
  303MOL0     C39874   8.458   5.615   3.931  0.2236 -0.6336 -0.4745
  303MOL0     C39875   8.363   5.614   4.052 -0.0908  1.0268  0.6899
  303MOL0     C39876   8.244   5.698   4.015 -0.3121 -0.5813 -0.1164
  303MOL0     C39877   8.118   5.666   4.090  0.3713  1.3399  0.4670
  303MOL0     C39878   8.007   5.765   4.058  0.8026 -0.6312 -0.1359
  303MOL0     C39879   7.883   5.763   4.153  0.1738 -0.2387  0.7542
  303MOL0     C39880   7.828   5.627   4.186  0.8857 -0.2302 -0.0901
  303MOL0     N39881   7.694   5.644   4.245  0.1377 -0.2008 -0.1693
  303MOL0     C39882   7.566   5.665   4.174 -0.6512 -0.3495 -0.4927
  303MOL0     C39883   7.475   5.666   4.279 -0.1224 -0.2430  0.4668
  303MOL0     C39884   7.325   5.684   4.268  1.3624 -0.0946  0.4873
  303MOL0     C39885   7.245   5.559   4.316  0.1923 -0.2102  0.0529
  303MOL0     C39886   7.222   5.566   4.470 -0.2989  0.5534  0.2884
  303MOL0     C39887   7.133   5.453   4.524  0.1525  0.6296  0.3059
  303MOL0     O39888   7.009   5.449   4.470  0.0416  0.1011  0.2238
  303MOL0     C39889   6.923   5.349   4.509 -0.0793  0.5504 -1.1670
  303MOL0     C39890   6.788   5.376   4.493  0.6575  0.4417  0.1346
  303MOL0     C39891   6.685   5.287   4.537 -0.7234  0.1038  0.5136
  303MOL0     C39892   6.711   5.169   4.609  1.1779 -0.7646 -1.2856
  303MOL0     C39893   6.608   5.079   4.669  0.3204 -0.0246  0.1356
  303MOL0     O39894   6.474   5.097   4.633  0.5044  0.3596  0.0700
  303MOL0     C39895   6.382   5.049   4.718  0.8658 -0.5519 -0.4909
  303MOL0     C39896   6.337   5.129   4.822  0.0580 -0.0259  1.0709
  303MOL0     C39897   6.222   5.092   4.899 -0.9443 -0.6497 -0.1282
  303MOL0     C39898   6.158   4.978   4.863 -0.3268  0.0577 -1.0168
  303MOL0     O39899   6.059   4.936   4.943 -0.1372  0.0625 -0.6325
  303MOL0     C39900   5.923   4.922   4.899  0.2981 -0.2368 -1.2698
  303MOL0     C39901   5.837   4.847   5.004  0.7916 -1.3883  0.5933
  303MOL0     C39902   5.829   4.926   5.127  0.1271 -0.2424  0.3833
  303MOL0     C39903   5.757   4.847   5.237 -0.8525  0.3071 -0.3312
  303MOL0     C39904   5.603   4.860   5.226 -0.5864 -0.1940  0.1153
  303MOL0     C39905   5.534   4.800   5.347 -0.2783  1.1496 -0.1639
  303MOL0     C39906   5.386   4.832   5.351 -0.4053  0.3266 -0.8316
  303MOL0     C39907   5.316   4.753   5.469 -0.9023 -0.0021  1.0507
  303MOL0    Cl39908   5.145   4.806   5.493 -0.1362 -0.0323  0.3301
  303MOL0     C39909   6.206   4.898   4.765  0.5951 -0.0221  0.0213
  303MOL0     C39910   6.325   4.926   4.694 -0.3571  0.0323  1.5773
  303MOL0     O39911   6.643   5.007   4.759 -0.2168  0.2905 -0.4696
  303MOL0     C39912   6.850   5.143   4.627  0.7508  0.4672 -0.5815
  303MOL0     C39913   6.950   5.238   4.582 -0.4445 -0.1776  0.5618
  303MOL0     N39914   7.542   5.642   4.394 -0.1591  0.2512 -0.3639
  303MOL0     N39915   7.663   5.619   4.374  0.1755 -0.8786  0.1109
  303MOL0     C39916   8.845   5.471   4.062  0.0801 -0.4498 -0.3161
  303MOL0     C39917   8.975   5.441   4.097  0.5980  0.0217  0.7157
  303MOL0     C39918   9.343   5.410   4.336 -0.4527 -0.6599  0.3295
  303MOL0     C39919   9.450   5.426   4.242  0.0667  0.2097  0.2924
  303MOL0     C39920   9.586   5.424   4.295 -0.2091  0.6681 -0.5532
  303MOL0     C39921   9.612   5.406   4.429 -0.0806 -0.2866 -0.2906
  303MOL0     O39922   9.731   5.401   4.486 -0.0319 -0.3689  0.1497
  303MOL0     C39923   9.843   5.351   4.408 -0.3293  0.3920  0.7096
  303MOL0     C39924   9.949   5.304   4.507  0.9140  0.3525 -0.2189
  303MOL0     C39925  10.062   5.230   4.429 -0.6082  0.9190  0.2119
  303MOL0     C39926  10.170   5.182   4.531 -0.1833 -0.2543  0.2516
  303MOL0     C39927  10.286   5.124   4.460 -0.1445 -0.2613  0.5432
  303MOL0     C39928  10.372   5.077   4.389 -0.1459  0.0590 -0.6767
  303MOL0     C39929   9.508   5.394   4.521  0.1612 -0.0439  0.0272
  303MOL0     C39930   9.379   5.389   4.471  0.3517  0.1089  0.3890
  303MOL0     H39931   9.081   5.744   4.213 -1.2135  0.2356 -1.3389
  303MOL0     H39932   8.842   5.800   4.151 -0.1826  0.6236  0.8163
  303MOL0     H39933   8.591   5.468   4.020  0.4370 -1.6431 -1.7534
  303MOL0     H39934   8.643   5.523   3.859  2.0258 -3.1534  1.3948
  303MOL0     H39935   8.413   5.548   3.857 -0.5049 -0.2309 -0.4056
  303MOL0     H39936   8.455   5.716   3.889 -2.3692 -0.8022 -0.8495
  303MOL0     H39937   8.408   5.658   4.142 -1.2817  3.2782  0.2535
  303MOL0     H39938   8.329   5.513   4.077  3.0491 -0.3323 -0.0527
  303MOL0     H39939   8.264   5.805   4.026  1.3481 -1.0144  1.3577
  303MOL0     H39940   8.225   5.680   3.908  1.3099 -1.1864 -0.3160
  303MOL0     H39941   8.137   5.673   4.197  0.4372  0.3738  0.5294
  303MOL0     H39942   8.093   5.565   4.055 -1.5820  1.0008  2.6281
  303MOL0     H39943   7.970   5.746   3.956  2.3327  1.8454 -1.2615
  303MOL0     H39944   8.040   5.869   4.049 -1.1508 -0.0031 -0.6119
  303MOL0     H39945   7.904   5.808   4.250 -4.0728  0.3780  1.5554
  303MOL0     H39946   7.809   5.824   4.101  1.9089 -1.1103 -3.1102
  303MOL0     H39947   7.897   5.566   4.245 -0.8829 -0.6984  1.6269
  303MOL0     H39948   7.799   5.578   4.093 -2.0705  0.5033  0.3234
  303MOL0     H39949   7.544   5.673   4.069 -1.4643  2.1297 -0.1975
  303MOL0     H39950   7.292   5.692   4.164 -0.9130 -1.7150  1.0175
  303MOL0     H39951   7.294   5.775   4.321  0.6338 -0.5657  0.8859
  303MOL0     H39952   7.288   5.466   4.276 -1.5548 -0.6364 -0.9314
  303MOL0     H39953   7.146   5.573   4.272  0.3379  0.8614  0.0553
  303MOL0     H39954   7.320   5.557   4.518  0.4746  2.8249 -0.6882
  303MOL0     H39955   7.190   5.663   4.508  0.6827  1.2691 -0.6384
  303MOL0     H39956   7.136   5.445   4.633  1.3987 -3.3130  0.1451
  303MOL0     H39957   7.185   5.362   4.492  1.9484  0.6433  2.8600
  303MOL0     H39958   6.758   5.467   4.443  0.8445  1.3477  1.6266
  303MOL0     H39959   6.582   5.310   4.513  0.0802  1.9749 -1.4568
  303MOL0     H39960   6.381   5.223   4.854 -1.0776  0.1627  2.1719
  303MOL0     H39961   6.202   5.149   4.990  1.3561  0.1729 -0.0746
  303MOL0     H39962   5.925   4.870   4.802  0.8139 -2.2740 -0.2235
  303MOL0     H39963   5.892   5.026   4.889 -0.8894 -0.0889  2.6072
  303MOL0     H39964   5.871   4.743   5.009  1.5562 -1.3197 -1.8263
  303MOL0     H39965   5.736   4.832   4.965  1.7430 -2.4365 -1.6810
  303MOL0     H39966   5.774   5.019   5.113 -1.2913 -0.7857  1.9132
  303MOL0     H39967   5.930   4.952   5.159 -1.0176  0.9039  3.5162
  303MOL0     H39968   5.777   4.740   5.242 -2.0075  0.0367  5.4453
  303MOL0     H39969   5.786   4.880   5.337 -0.6831  1.4389 -0.7375
  303MOL0     H39970   5.557   4.812   5.139  0.8497  2.6825 -2.4314
  303MOL0     H39971   5.572   4.964   5.211  2.8799  1.1404  1.1790
  303MOL0     H39972   5.574   4.822   5.446  0.3161 -4.4523  1.1794
  303MOL0     H39973   5.540   4.691   5.335 -2.9142  0.8094  0.9930
  303MOL0     H39974   5.393   4.936   5.382  1.7800 -0.3471  1.2665
  303MOL0     H39975   5.334   4.814   5.256 -1.7949  1.0825 -0.2377
  303MOL0     H39976   5.373   4.793   5.553 -0.8915 -1.1400  1.6040
  303MOL0     H39977   5.323   4.644   5.468 -3.2727 -0.2316 -0.9356
  303MOL0     H39978   6.153   4.807   4.738 -0.8439  1.5866 -3.0385
  303MOL0     H39979   6.359   4.860   4.615 -0.6943  1.4677  0.1794
  303MOL0     H39980   6.880   5.050   4.674 -0.2624 -0.0424 -0.9157
  303MOL0     H39981   7.053   5.206   4.595  0.3000  1.9769  0.4181
  303MOL0     H39982   8.801   5.382   4.017  0.7080 -1.1326  0.3827
  303MOL0     H39983   9.008   5.341   4.070 -2.2308 -1.1275  1.2584
  303MOL0     H39984   9.430   5.425   4.135 -1.0996 -1.1484  0.5047
  303MOL0     H39985   9.662   5.431   4.219 -3.3614 -1.5542 -4.3305
  303MOL0     H39986   9.889   5.423   4.340  0.3785  0.6862  1.4782
  303MOL0     H39987   9.818   5.264   4.347  3.3375 -1.0600  1.0799
  303MOL0     H39988   9.991   5.395   4.552 -0.0213  0.5160  0.3578
  303MOL0     H39989   9.891   5.241   4.574  0.2667 -0.8933 -1.8845
  303MOL0     H39990  10.118   5.291   4.357  1.2202 -4.5542 -3.6470
  303MOL0     H39991  10.020   5.143   4.378 -0.2930  1.2423 -0.6065
  303MOL0     H39992  10.208   5.267   4.589  2.0191 -1.6068  0.9050
  303MOL0     H39993  10.141   5.103   4.600  0.9803 -0.4555  0.5304
  303MOL0     H39994  10.446   5.033   4.325  1.0581  0.0705  0.6635
  303MOL0     H39995   9.518   5.378   4.628  0.4579 -1.1642 -0.1546
  303MOL0     H39996   9.306   5.389   4.551 -1.1819  0.6350 -0.9698
  304MOL0     O39997   8.075   3.690   3.048  0.3820 -0.2031 -0.4973
  304MOL0     C39998   8.131   3.779   3.119  0.5339  0.3110  0.0753
  304MOL0     O39999   8.070   3.893   3.166 -0.0386  0.3015  0.0862
  304MOL0     C40000   7.931   3.885   3.188 -0.7913 -0.0003 -0.2769
  304MOL0     C40001   7.874   3.857   3.315  0.0094  0.5318  0.2777
  304MOL0     C40002   7.741   3.813   3.319  0.4479 -0.3355  0.2413
  304MOL0     C40003   7.656   3.816   3.208  1.2956  0.3821 -0.2367
  304MOL0     O40004   7.521   3.793   3.220  0.9030  0.3187 -0.2330
  304MOL0     C40005   7.466   3.752   3.344  0.3605  0.8503 -0.5944
  304MOL0     C40006   7.319   3.701   3.322  0.0308 -0.2524  0.3223
  304MOL0     C40007   7.235   3.814   3.275  0.3806 -0.1024 -0.4764
  304MOL0     C40008   7.089   3.769   3.286  1.2807  0.3201  0.0943
  304MOL0     C40009   6.988   3.882   3.228 -0.2147  0.7188  0.2194
  304MOL0     C40010   6.873   3.808   3.157  0.3070 -0.0775 -0.0590
  304MOL0     C40011   6.783   3.723   3.252  0.3272 -0.5158 -1.0449
  304MOL0     C40012   6.702   3.610   3.175 -0.3003 -0.0344 -0.4474
  304MOL0     N40013   6.581   3.655   3.109  0.5178 -0.7411 -0.0961
  304MOL0     C40014   6.564   3.735   2.994 -0.5512  0.0286 -0.6390
  304MOL0     C40015   6.441   3.726   2.953  0.1109  1.5063  0.8956
  304MOL0     C40016   6.391   3.776   2.825 -0.7447  0.3641 -0.4144
  304MOL0     C40017   6.314   3.909   2.827 -0.4838 -0.6949  0.1558
  304MOL0     C40018   6.392   4.020   2.894  0.5589  0.8805 -0.2183
  304MOL0     C40019   6.493   4.083   2.797 -0.3020 -0.0797 -0.0652
  304MOL0     O40020   6.618   4.006   2.790 -0.1290 -0.0868  0.3574
  304MOL0     C40021   6.723   4.067   2.847  0.2379  1.2106  1.0888
  304MOL0     C40022   6.734   4.103   2.979  0.9926  0.4215  0.2471
  304MOL0     C40023   6.851   4.153   3.026  0.2475 -0.5908 -0.6969
  304MOL0     C40024   6.970   4.167   2.950 -0.0016  0.0720  0.0358
  304MOL0     C40025   7.101   4.197   3.000 -0.1341 -0.7388  0.0007
  304MOL0     O40026   7.207   4.183   2.917  0.7062  0.0449  0.3153
  304MOL0     C40027   7.332   4.237   2.958  0.3278  0.3934  0.8314
  304MOL0     C40028   7.431   4.154   3.011 -0.5065 -0.0027 -0.0947
  304MOL0     C40029   7.560   4.186   3.042  0.1386  0.4177 -0.1633
  304MOL0     C40030   7.603   4.313   3.000  0.2210  0.3062  0.8547
  304MOL0     O40031   7.737   4.357   3.017 -0.4054  0.8570  0.1914
  304MOL0     C40032   7.837   4.252   3.026 -0.3719  0.4688 -0.3367
  304MOL0     C40033   7.977   4.302   3.000  0.5301  0.1838 -0.5684
  304MOL0     C40034   8.013   4.421   3.088 -0.7160  0.1211 -1.5608
  304MOL0     C40035   8.147   4.485   3.038  1.1669 -0.2839 -0.2838
  304MOL0     C40036   8.255   4.392   3.000 -0.3331 -0.9767 -0.6981
  304MOL0     C40037   8.368   4.467   2.942 -0.6335  0.3452 -1.3089
  304MOL0     C40038   8.501   4.403   2.912 -0.4446  0.1128 -0.0338
  304MOL0     C40039   8.610   4.489   2.859  0.1707  0.1226  0.8278
  304MOL0    Cl40040   8.549   4.544   2.692 -0.2869  0.4183 -0.1690
  304MOL0     C40041   7.514   4.397   2.934 -0.6072  0.3701 -0.1747
  304MOL0     C40042   7.380   4.361   2.907  0.5308  0.0675 -0.5715
  304MOL0     O40043   7.107   4.259   3.113  0.0044  0.1174  0.2733
  304MOL0     C40044   6.956   4.137   2.811  0.5873 -0.6266 -0.1573
  304MOL0     C40045   6.833   4.084   2.758  0.7247  0.2789 -0.1369
  304MOL0     N40046   6.377   3.635   3.038 -0.0064  0.4028  0.7938
  304MOL0     N40047   6.460   3.592   3.126 -0.1306  0.1268  0.6598
  304MOL0     C40048   7.705   3.857   3.089  0.0407  0.1193  0.6299
  304MOL0     C40049   7.844   3.899   3.085  0.4625  0.4340 -0.1907
  304MOL0     C40050   8.284   3.771   3.148  0.2547  0.4103  0.2415
  304MOL0     C40051   8.348   3.863   3.224 -0.8546  0.4891  0.2044
  304MOL0     C40052   8.492   3.864   3.237  0.5730 -0.0394 -0.2006
  304MOL0     C40053   8.568   3.760   3.185  0.0207  0.1953  0.1429
  304MOL0     O40054   8.697   3.741   3.196 -0.3543 -0.3786  0.9837
  304MOL0     C40055   8.778   3.852   3.221  0.6380 -0.4709  0.5642
  304MOL0     C40056   8.900   3.799   3.144 -0.4193 -0.3098  0.2463
  304MOL0     C40057   9.018   3.886   3.176  0.4650 -0.3421 -0.2971
  304MOL0     C40058   9.138   3.864   3.085  0.9377  0.3821  0.1613
  304MOL0     C40059   9.112   3.888   2.943 -0.0742  0.2986  0.6166
  304MOL0     C40060   9.093   3.891   2.819 -0.3969 -0.6617 -0.3773
  304MOL0     C40061   8.502   3.655   3.124 -0.1263 -0.0658 -0.0590
  304MOL0     C40062   8.364   3.665   3.095 -0.7195 -0.5720 -0.0903
  304MOL0     H40063   7.939   3.841   3.400  0.8837  2.6771  0.0912
  304MOL0     H40064   7.720   3.771   3.417  1.8120 -4.1272 -0.8956
  304MOL0     H40065   7.472   3.818   3.431  0.8563 -3.8918  3.3508
  304MOL0     H40066   7.518   3.663   3.378 -0.1236  1.0538  0.7217
  304MOL0     H40067   7.278   3.677   3.421 -2.5790  0.1305 -0.5834
  304MOL0     H40068   7.308   3.618   3.252 -1.0963  0.7945 -0.7958
  304MOL0     H40069   7.263   3.849   3.175 -0.9696 -0.0655 -0.8597
  304MOL0     H40070   7.251   3.898   3.344 -0.7421  1.5162 -2.1039
  304MOL0     H40071   7.086   3.673   3.233  2.7603  0.3819 -0.1391
  304MOL0     H40072   7.058   3.743   3.388  1.9408 -0.1919  0.1644
  304MOL0     H40073   7.042   3.950   3.161  1.2224 -1.9000 -1.5023
  304MOL0     H40074   6.941   3.938   3.309 -1.4095 -1.5055  1.1392
  304MOL0     H40075   6.919   3.742   3.083 -0.9964 -1.2777  0.1365
  304MOL0     H40076   6.819   3.885   3.101 -0.2107 -0.6374 -0.3409
  304MOL0     H40077   6.835   3.684   3.340 -0.7158 -1.3662 -0.7801
  304MOL0     H40078   6.720   3.802   3.296  1.9236 -0.6867  1.7117
  304MOL0     H40079   6.671   3.536   3.249 -0.8033 -1.6650 -2.2118
  304MOL0     H40080   6.777   3.561   3.114 -0.6226 -1.3491  0.1735
  304MOL0     H40081   6.633   3.797   2.937 -0.7925  1.1815  0.3016
  304MOL0     H40082   6.318   3.709   2.779 -0.5819  0.3328 -0.6299
  304MOL0     H40083   6.473   3.767   2.753  0.4294 -2.2822  1.0804
  304MOL0     H40084   6.227   3.900   2.892 -0.0833  0.1732  0.8356
  304MOL0     H40085   6.286   3.936   2.725 -0.7961 -2.7776 -0.3703
  304MOL0     H40086   6.324   4.098   2.931  0.5211 -0.5431  3.0404
  304MOL0     H40087   6.440   3.980   2.984 -3.5142 -1.9841  0.9700
  304MOL0     H40088   6.518   4.187   2.821  0.8596 -0.4938  0.6020
  304MOL0     H40089   6.444   4.087   2.699 -0.8651  1.1278  0.2548
  304MOL0     H40090   6.644   4.101   3.038 -0.5237  1.8358 -1.8489
  304MOL0     H40091   6.857   4.176   3.131 -1.8256 -2.5057 -0.0820
  304MOL0     H40092   7.384   4.057   3.026 -1.7675  0.5636 -0.3006
  304MOL0     H40093   7.627   4.120   3.095 -2.0038  0.3939  2.8055
  304MOL0     H40094   7.808   4.168   2.962 -0.7001  0.4734 -0.1974
  304MOL0     H40095   7.838   4.219   3.131  2.1222  1.9150  0.1716
  304MOL0     H40096   7.991   4.333   2.896  0.0222 -0.1017 -0.7283
  304MOL0     H40097   8.035   4.211   3.015 -0.8150 -0.9283 -1.6856
  304MOL0     H40098   8.020   4.397   3.195 -3.5210 -0.5226 -1.4334
  304MOL0     H40099   7.939   4.502   3.089  0.5504  1.5998  3.7061
  304MOL0     H40100   8.133   4.555   2.956  0.6573  1.1985  1.0208
  304MOL0     H40101   8.186   4.541   3.124  0.1952 -0.2394  0.1344
  304MOL0     H40102   8.217   4.321   2.926 -2.8032  1.5216 -1.9802
  304MOL0     H40103   8.277   4.335   3.091  1.4629  1.6336  0.6047
  304MOL0     H40104   8.404   4.542   3.012 -0.4282  0.5049 -1.5815
  304MOL0     H40105   8.338   4.507   2.844  2.5972 -0.5895 -2.8122
  304MOL0     H40106   8.542   4.364   3.006 -1.5378 -2.3416 -0.4967
  304MOL0     H40107   8.481   4.312   2.855  2.6543 -2.3743  2.4158
  304MOL0     H40108   8.711   4.446   2.859  0.0259 -0.2867  2.6478
  304MOL0     H40109   8.621   4.571   2.930 -0.8255  0.4859  0.5829
  304MOL0     H40110   7.543   4.498   2.910 -1.2557  0.0565 -2.5728
  304MOL0     H40111   7.308   4.419   2.852 -1.4118 -1.1557  0.5667
  304MOL0     H40112   7.041   4.157   2.746 -0.9477  1.9916 -1.4783
  304MOL0     H40113   6.829   4.032   2.663 -0.0323 -0.3808  0.2409
  304MOL0     H40114   7.641   3.865   3.001 -0.1538 -1.3352  0.6196
  304MOL0     H40115   7.887   3.927   2.989  1.1619  1.2310  0.3372
  304MOL0     H40116   8.291   3.949   3.256  2.8175  2.4770  2.1073
  304MOL0     H40117   8.541   3.956   3.269  3.0821  1.1641 -6.1745
  304MOL0     H40118   8.790   3.862   3.329 -0.9303  0.3886  0.6797
  304MOL0     H40119   8.734   3.942   3.179 -1.0700 -1.7224 -0.4570
  304MOL0     H40120   8.909   3.691   3.161 -1.4647 -0.8853 -2.4191
  304MOL0     H40121   8.881   3.813   3.037  1.3896  1.0931  0.0637
  304MOL0     H40122   9.051   3.861   3.278 -0.2457 -2.5527 -0.5439
  304MOL0     H40123   9.000   3.993   3.186  1.3821 -0.2813  0.9660
  304MOL0     H40124   9.218   3.927   3.124 -0.3528  0.8554  2.1897
  304MOL0     H40125   9.163   3.759   3.097  1.5507  0.4399 -0.5769
  304MOL0     H40126   9.072   3.907   2.715 -2.1579  2.9898  0.4055
  304MOL0     H40127   8.559   3.572   3.085 -0.0249 -1.5059  2.8497
  304MOL0     H40128   8.311   3.595   3.032  0.3171 -0.8868 -0.6299
  305MOL0     O40129   1.156  10.411  10.395  0.7246  0.1366 -0.2032
  305MOL0     C40130   1.156  10.458  10.509 -0.0753  0.0058 -0.2620
  305MOL0     O40131   1.266  10.516  10.561  0.6539  0.6382  0.5440
  305MOL0     C40132   1.391  10.520  10.502 -0.2498  0.8266  0.3405
  305MOL0     C40133   1.481  10.620  10.546 -0.6844  0.2342 -0.4432
  305MOL0     C40134   1.614  10.628  10.512  0.1813 -0.5765  0.6440
  305MOL0     C40135   1.660  10.542  10.409  0.0151 -0.3539  0.2806
  305MOL0     O40136   1.784  10.549  10.351  0.4492 -0.8182  0.2044
  305MOL0     C40137   1.875  10.641  10.405 -0.6170  0.2936  1.0809
  305MOL0     C40138   1.994  10.673  10.298 -0.6554 -0.1151  0.2847
  305MOL0     C40139   2.072  10.544  10.249 -0.6662 -0.7035 -0.9658
  305MOL0     C40140   2.153  10.574  10.126  0.1673 -0.6128  0.3032
  305MOL0     C40141   2.205  10.438  10.073  0.4457 -0.1731 -0.0518
  305MOL0     C40142   2.280  10.458   9.929 -0.0352 -0.4751 -0.0411
  305MOL0     C40143   2.178  10.479   9.815  0.2410 -0.3146 -0.3201
  305MOL0     C40144   2.246  10.475   9.678  0.0669 -0.4057 -0.5755
  305MOL0     N40145   2.152  10.529   9.584 -0.0085  0.3525 -0.2530
  305MOL0     C40146   2.063  10.450   9.510  0.7478  0.2161 -0.1081
  305MOL0     C40147   2.018  10.542   9.416  0.1272  0.9236 -0.1740
  305MOL0     C40148   1.918  10.519   9.313 -0.3538  0.6906 -0.0318
  305MOL0     C40149   1.778  10.566   9.368 -0.1612  0.5702 -0.3848
  305MOL0     C40150   1.652  10.519   9.296 -0.6369  0.8028 -0.4679
  305MOL0     C40151   1.515  10.571   9.360  0.8492  0.5980  0.1742
  305MOL0     O40152   1.443  10.449   9.419  0.0567 -0.6596 -0.1241
  305MOL0     C40153   1.307  10.436   9.400 -0.3766 -0.0680  0.4996
  305MOL0     C40154   1.252  10.305   9.381 -0.4461 -0.1354  1.0251
  305MOL0     C40155   1.111  10.292   9.358  0.2472 -0.1614  1.1457
  305MOL0     C40156   1.027  10.403   9.355 -0.3421 -1.0365 -0.1859
  305MOL0     C40157   0.878  10.391   9.341  0.4279  0.1668  1.0814
  305MOL0     O40158   0.801  10.502   9.347 -0.3449 -0.6538  0.7580
  305MOL0     C40159   0.681  10.506   9.296  0.1935 -0.0456 -0.8509
  305MOL0     C40160   0.643  10.617   9.214 -0.3405 -0.0468 -0.4364
  305MOL0     C40161   0.520  10.623   9.146  0.1523 -0.7454  0.6149
  305MOL0     C40162   0.424  10.526   9.173  0.4611  0.9073  0.7683
  305MOL0     O40163   0.313  10.510   9.105 -0.2909  0.5363  0.0988
  305MOL0     C40164   0.223  10.624   9.097  0.3295 -0.6047 -0.2502
  305MOL0     C40165   0.090  10.590   9.040  0.0668 -0.2296  0.3336
  305MOL0     C40166   0.014  10.707   8.981  0.0152  0.1496 -0.2443
  305MOL0     C40167  -0.123  10.662   8.919 -0.1368 -0.3023  0.0625
  305MOL0     C40168  -0.223  10.601   9.014  0.0123 -0.3454 -0.3066
  305MOL0     C40169  -0.275  10.682   9.139 -0.6618 -0.1706 -0.1949
  305MOL0     C40170  -0.320  10.822   9.108  1.1262 -0.4666 -0.1576
  305MOL0     C40171  -0.435  10.829   9.003  0.2895  0.3929 -0.9027
  305MOL0    Cl40172  -0.413  10.990   8.933  0.4413  0.4314  0.0852
  305MOL0     C40173   0.455  10.422   9.260  0.1609 -0.1973 -0.1784
  305MOL0     C40174   0.577  10.410   9.324  0.7155 -0.0649 -0.2861
  305MOL0     O40175   0.830  10.280   9.321  0.0299 -0.0612  0.1850
  305MOL0     C40176   1.086  10.525   9.379 -0.3563 -0.2481  0.5858
  305MOL0     C40177   1.223  10.542   9.391 -0.0114  0.0196  0.0002
  305MOL0     N40178   2.063  10.665   9.435 -0.1351 -0.2232  0.1505
  305MOL0     N40179   2.142  10.656   9.541 -0.4426  0.0505  0.0123
  305MOL0     C40180   1.570  10.439  10.360 -0.2427 -0.0812 -0.3765
  305MOL0     C40181   1.442  10.425  10.407  0.7290 -0.1761 -0.2707
  305MOL0     C40182   1.030  10.456  10.579 -0.1722  0.1785 -0.3493
  305MOL0     C40183   0.917  10.391  10.528 -1.5461 -0.5338  0.1249
  305MOL0     C40184   0.802  10.389  10.599 -0.1012  0.4020 -0.0287
  305MOL0     C40185   0.782  10.454  10.723 -0.4510 -0.2746 -0.4995
  305MOL0     O40186   0.660  10.471  10.784 -0.1008  0.8124 -0.0599
  305MOL0     C40187   0.641  10.593  10.853 -0.2096  0.7147 -0.0596
  305MOL0     C40188   0.498  10.629  10.887  0.6631  0.6494 -0.4658
  305MOL0     C40189   0.460  10.565  11.019 -0.1559 -0.4438  0.7415
  305MOL0     C40190   0.319  10.612  11.047 -0.0075  0.4158 -0.6645
  305MOL0     C40191   0.264  10.508  11.142 -0.2889  0.7588 -0.1114
  305MOL0     C40192   0.216  10.428  11.223  0.5224  0.1397 -1.3769
  305MOL0     C40193   0.901  10.505  10.785 -0.2914  0.4016  0.5931
  305MOL0     C40194   1.026  10.510  10.712 -0.1649  0.4154 -0.0359
  305MOL0     H40195   1.449  10.693  10.620  3.0403  1.4824  0.1722
  305MOL0     H40196   1.672  10.705  10.563 -1.1552 -0.1002  1.5133
  305MOL0     H40197   1.919  10.612  10.501  0.9600 -0.6541  0.1210
  305MOL0     H40198   1.821  10.735  10.417  1.8954  2.1784 -1.2136
  305MOL0     H40199   2.071  10.740  10.336 -1.8512  1.8633 -0.6357
  305MOL0     H40200   1.948  10.732  10.218  0.0479  1.6630  1.1356
  305MOL0     H40201   2.004  10.460  10.230  0.4280 -1.2252 -2.8418
  305MOL0     H40202   2.139  10.509  10.328 -1.6838 -1.3460 -0.3625
  305MOL0     H40203   2.091  10.632  10.057  1.7448 -0.0152 -0.6637
  305MOL0     H40204   2.240  10.638  10.143 -0.8419  0.7486  0.5655
  305MOL0     H40205   2.122  10.373  10.043  0.8050  0.1951 -2.0278
  305MOL0     H40206   2.270  10.386  10.144 -1.3410 -1.2791  0.8346
  305MOL0     H40207   2.337  10.365   9.913  1.7083  0.3817  0.8274
  305MOL0     H40208   2.351  10.542   9.926  2.0341 -2.1470 -1.0496
  305MOL0     H40209   2.100  10.404   9.830  0.5333 -0.2088  2.3154
  305MOL0     H40210   2.130  10.576   9.836 -1.7488 -1.6689  1.9804
  305MOL0     H40211   2.287  10.378   9.648  5.1538  1.5928 -1.1100
  305MOL0     H40212   2.338  10.535   9.681  1.5343 -2.5502 -0.7328
  305MOL0     H40213   2.044  10.344   9.519 -1.2201  0.6761  1.7152
  305MOL0     H40214   1.925  10.416   9.278 -0.8330  0.7339 -0.2704
  305MOL0     H40215   1.944  10.578   9.225  4.4217  0.2044  0.8066
  305MOL0     H40216   1.784  10.674   9.359 -0.1300  0.4581 -1.8338
  305MOL0     H40217   1.770  10.543   9.475  2.1689  0.6660 -0.1343
  305MOL0     H40218   1.660  10.567   9.198 -1.1199 -0.5369 -1.1963
  305MOL0     H40219   1.645  10.411   9.284 -0.1981  0.7849 -0.5740
  305MOL0     H40220   1.459  10.612   9.276  0.0680 -1.4483 -0.3762
  305MOL0     H40221   1.520  10.644   9.441 -3.6795  0.1603  1.1013
  305MOL0     H40222   1.321  10.222   9.378  0.6963  0.6575  3.1080
  305MOL0     H40223   1.077  10.190   9.343 -1.0012  0.6734 -2.6374
  305MOL0     H40224   0.719  10.692   9.195 -0.6864 -0.0030 -1.8069
  305MOL0     H40225   0.492  10.707   9.082  2.4870  0.7076  1.3670
  305MOL0     H40226   0.271  10.704   9.041  2.9934  1.9280  4.9415
  305MOL0     H40227   0.215  10.656   9.201  2.6507 -2.9405  0.7618
  305MOL0     H40228   0.026  10.533   9.109 -0.4040 -1.5410 -1.1020
  305MOL0     H40229   0.117  10.522   8.958  0.0768  2.1887 -1.7705
  305MOL0     H40230   0.078  10.764   8.913  1.4369  0.3188  1.1550
  305MOL0     H40231  -0.012  10.774   9.063  1.2522 -2.7233  2.7188
  305MOL0     H40232  -0.171  10.746   8.868  3.6420  1.7363 -0.5060
  305MOL0     H40233  -0.103  10.585   8.844  0.6208 -0.6198  0.5725
  305MOL0     H40234  -0.169  10.520   9.062 -0.7334  1.2531  3.6442
  305MOL0     H40235  -0.307  10.568   8.952  1.4471 -2.8982 -1.0006
  305MOL0     H40236  -0.189  10.696   9.206  0.2553  1.4603 -1.6562
  305MOL0     H40237  -0.346  10.618   9.192 -0.6292 -0.4939 -0.5372
  305MOL0     H40238  -0.359  10.860   9.203  0.8450  0.6266 -0.6846
  305MOL0     H40239  -0.238  10.885   9.069  0.7948  0.4134  0.5229
  305MOL0     H40240  -0.533  10.833   9.051  0.3366  1.7073 -0.8915
  305MOL0     H40241  -0.433  10.752   8.925  1.0632 -0.9587  0.3887
  305MOL0     H40242   0.364  10.363   9.270  0.9836 -1.7342 -1.3363
  305MOL0     H40243   0.585  10.320   9.384 -1.2463 -0.4564 -0.5552
  305MOL0     H40244   1.036  10.622   9.377 -3.2025 -1.5804 -2.5766
  305MOL0     H40245   1.257  10.645   9.388  0.3047 -0.0939 -0.2744
  305MOL0     H40246   1.594  10.370  10.280  0.3926 -1.3620  0.8531
  305MOL0     H40247   1.373  10.347  10.377 -1.1863  1.7514 -1.1483
  305MOL0     H40248   0.920  10.357  10.425 -0.4381  0.7634 -0.2924
  305MOL0     H40249   0.714  10.348  10.550  0.9951 -2.2876  0.0673
  305MOL0     H40250   0.679  10.668  10.782  5.4765 -2.8871 -1.5268
  305MOL0     H40251   0.694  10.590  10.948 -1.5471 -0.9989  0.6809
  305MOL0     H40252   0.497  10.737  10.906 -1.3006  0.5370  0.2241
  305MOL0     H40253   0.437  10.607  10.799  1.4833 -2.1463 -0.4297
  305MOL0     H40254   0.518  10.593  11.108 -0.1090  0.4225  0.4464
  305MOL0     H40255   0.469  10.456  11.008  3.2140 -0.0824 -1.3668
  305MOL0     H40256   0.322  10.712  11.092  0.3309  0.6671 -1.2333
  305MOL0     H40257   0.257  10.602  10.958 -0.1584 -0.6691 -0.4565
  305MOL0     H40258   0.153  10.377  11.293  1.4947 -0.1483 -0.6928
  305MOL0     H40259   0.896  10.532  10.890 -0.3889 -0.3936  0.7955
  305MOL0     H40260   1.117  10.552  10.754 -0.4317 -1.5411  2.8057
  306MOL0     O40261   2.428   9.018   1.181  0.6719 -0.4044  0.3276
  306MOL0     C40262   2.322   9.078   1.211 -0.2086 -0.1076 -0.5885
  306MOL0     O40263   2.197   9.048   1.165  0.0467  0.0706 -0.5292
  306MOL0     C40264   2.156   8.922   1.125 -0.2058 -0.3535 -0.2976
  306MOL0     C40265   2.207   8.806   1.195 -0.1645 -0.1972  0.8150
  306MOL0     C40266   2.137   8.690   1.169  0.0528 -0.0135 -0.2473
  306MOL0     C40267   2.021   8.677   1.101 -0.2486  0.1116 -0.5816
  306MOL0     O40268   1.954   8.561   1.124 -0.3419 -0.1962  0.8443
  306MOL0     C40269   1.950   8.475   1.014 -0.6302  0.0137  0.9124
  306MOL0     C40270   1.814   8.421   0.999 -0.5472  0.4447 -0.3651
  306MOL0     C40271   1.760   8.340   1.119 -0.0395 -0.1081  0.7896
  306MOL0     C40272   1.616   8.304   1.084  0.5176 -0.5216  0.1783
  306MOL0     C40273   1.511   8.426   1.064 -0.6771  0.3070 -0.1852
  306MOL0     C40274   1.372   8.379   1.097  0.6272 -1.1716 -0.2075
  306MOL0     C40275   1.294   8.498   1.147  0.1132 -0.6679 -0.1541
  306MOL0     C40276   1.149   8.473   1.143  0.2403 -0.0729  0.3172
  306MOL0     N40277   1.059   8.557   1.221  0.8951 -0.0013 -0.1548
  306MOL0     C40278   1.090   8.689   1.250  0.1276 -0.2486 -0.6024
  306MOL0     C40279   0.998   8.722   1.338  0.0195 -0.3067 -0.2268
  306MOL0     C40280   0.998   8.856   1.416 -0.1421 -0.3333  0.4927
  306MOL0     C40281   0.909   8.962   1.345 -0.4579  0.4862 -0.3469
  306MOL0     C40282   0.916   9.102   1.413  0.7867  0.5206  0.1273
  306MOL0     C40283   0.847   9.214   1.325  0.1022  0.0854 -0.5123
  306MOL0     O40284   0.729   9.168   1.264 -0.1203 -0.8834 -0.2505
  306MOL0     C40285   0.623   9.169   1.354 -0.5840 -1.0018 -0.4363
  306MOL0     C40286   0.554   9.055   1.385  0.0349  0.1560  0.0160
  306MOL0     C40287   0.447   9.058   1.479 -1.1295  0.5436 -0.2016
  306MOL0     C40288   0.398   9.178   1.526  0.5200  0.4486 -0.0324
  306MOL0     C40289   0.289   9.174   1.628 -0.9608 -1.2367 -0.5689
  306MOL0     O40290   0.241   9.050   1.681 -0.3240  0.2010 -0.4828
  306MOL0     C40291   0.129   9.049   1.761 -0.0683  0.0041 -0.1153
  306MOL0     C40292   0.118   8.968   1.869 -0.3134  0.5964 -0.7371
  306MOL0     C40293  -0.005   8.942   1.936 -0.4068 -0.1270  0.3728
  306MOL0     C40294  -0.129   9.003   1.896  0.0109  0.2553  0.0705
  306MOL0     O40295  -0.243   8.990   1.966 -0.1364  0.4951  0.2916
  306MOL0     C40296  -0.236   8.917   2.094  1.0568  0.0201  0.1368
  306MOL0     C40297  -0.383   8.897   2.127  0.9866 -0.5237 -0.4918
  306MOL0     C40298  -0.449   8.769   2.086 -0.7395  0.5004  0.4597
  306MOL0     C40299  -0.419   8.725   1.937  0.1960 -0.3364 -0.2248
  306MOL0     C40300  -0.507   8.606   1.902  0.2506 -1.2723 -0.6268
  306MOL0     C40301  -0.648   8.644   1.881 -0.0608 -0.0528  0.4278
  306MOL0     C40302  -0.716   8.505   1.860 -0.2439 -0.1558  0.7681
  306MOL0     C40303  -0.866   8.521   1.852  0.5791  0.9110 -0.1821
  306MOL0    Cl40304  -0.914   8.360   1.803  0.2035  0.3722 -0.1023
  306MOL0     C40305  -0.120   9.087   1.785  0.4644 -0.0467 -0.2535
  306MOL0     C40306   0.004   9.102   1.719 -0.4452  0.8965  0.2911
  306MOL0     O40307   0.248   9.284   1.667 -0.8087 -0.2698 -0.2184
  306MOL0     C40308   0.467   9.292   1.486  0.6553  1.3859 -0.0008
  306MOL0     C40309   0.582   9.287   1.412  1.0211  0.6205  0.1191
  306MOL0     N40310   0.893   8.626   1.338  0.2717  0.1675 -0.4156
  306MOL0     N40311   0.936   8.519   1.272  0.3933  0.4498 -0.0747
  306MOL0     C40312   1.976   8.790   1.033  0.6477  0.0367  0.4367
  306MOL0     C40313   2.051   8.908   1.043  0.4024 -0.1425  0.4827
  306MOL0     C40314   2.328   9.212   1.268  0.1389 -0.9047  0.1457
  306MOL0     C40315   2.442   9.287   1.259 -0.4019  0.3146 -0.9035
  306MOL0     C40316   2.440   9.415   1.315  0.4884  0.2470 -0.1173
  306MOL0     C40317   2.344   9.457   1.404 -0.4741 -0.9329 -0.0487
  306MOL0     O40318   2.371   9.580   1.454  0.4407 -0.0402  0.0871
  306MOL0     C40319   2.257   9.654   1.507  0.3337 -1.0635 -0.0468
  306MOL0     C40320   2.275   9.806   1.501  0.4467 -0.6156  0.9450
  306MOL0     C40321   2.389   9.861   1.582 -0.2166  0.3161 -0.2776
  306MOL0     C40322   2.398  10.011   1.567 -0.6749  0.1263 -0.9850
  306MOL0     C40323   2.425  10.085   1.692 -0.1765  0.0162 -0.5091
  306MOL0     C40324   2.470  10.161   1.784  0.7859 -0.0362 -0.2844
  306MOL0     C40325   2.242   9.375   1.434  0.3768 -0.4459 -0.2732
  306MOL0     C40326   2.225   9.251   1.360 -0.1019 -0.2576 -0.3390
  306MOL0     H40327   2.289   8.798   1.265 -0.6903  0.3198  1.5035
  306MOL0     H40328   2.181   8.599   1.211 -0.4019 -3.1663 -5.5869
  306MOL0     H40329   2.010   8.384   1.018 -3.7773 -2.2641  0.3722
  306MOL0     H40330   1.966   8.515   0.914  1.6327 -1.3589  0.6574
  306MOL0     H40331   1.807   8.365   0.905 -1.0630 -1.5722  0.8128
  306MOL0     H40332   1.747   8.507   1.001 -3.2506 -1.4742  2.6031
  306MOL0     H40333   1.779   8.407   1.203  0.7884  1.3102 -0.4756
  306MOL0     H40334   1.814   8.249   1.145  2.0020  1.8048  3.7749
  306MOL0     H40335   1.604   8.231   1.003  0.2636 -0.9258  0.5750
  306MOL0     H40336   1.580   8.246   1.170  1.9643  0.2356  1.3266
  306MOL0     H40337   1.519   8.461   0.961 -2.5524 -1.3475 -0.9768
  306MOL0     H40338   1.535   8.502   1.138 -0.6985  0.6389 -0.5206
  306MOL0     H40339   1.377   8.306   1.178  2.4908 -2.2329 -1.1934
  306MOL0     H40340   1.333   8.346   1.000 -0.2608  0.1782 -0.3312
  306MOL0     H40341   1.321   8.505   1.253  0.8760 -1.1778 -0.3048
  306MOL0     H40342   1.309   8.589   1.088 -3.8505  0.9104  0.9098
  306MOL0     H40343   1.138   8.371   1.180  0.9596  0.1034  1.0374
  306MOL0     H40344   1.129   8.492   1.037  1.4606 -0.9017 -0.0883
  306MOL0     H40345   1.165   8.749   1.200 -1.2836  1.5939 -0.6003
  306MOL0     H40346   1.101   8.889   1.435 -0.5140  0.7162  0.7717
  306MOL0     H40347   0.951   8.839   1.514  2.4681 -0.1760  1.8532
  306MOL0     H40348   0.808   8.919   1.337  0.7115 -2.8890  1.2647
  306MOL0     H40349   0.939   8.975   1.240 -2.2430 -4.3586 -1.7471
  306MOL0     H40350   0.874   9.111   1.514 -0.2727  0.6681 -0.3187
  306MOL0     H40351   1.025   9.117   1.413  1.0764 -1.1501 -1.6124
  306MOL0     H40352   0.906   9.258   1.243 -1.4350  2.8500 -0.2588
  306MOL0     H40353   0.819   9.299   1.388 -0.5701 -0.2319 -0.3796
  306MOL0     H40354   0.578   8.962   1.335  0.3042 -0.7152  1.7128
  306MOL0     H40355   0.402   8.964   1.509 -0.6146 -0.0235 -1.1529
  306MOL0     H40356   0.201   8.913   1.911 -2.0607 -0.3882  1.6826
  306MOL0     H40357  -0.004   8.877   2.023 -1.2221 -0.5007  0.1107
  306MOL0     H40358  -0.195   8.986   2.168  2.5200  2.2861 -2.5575
  306MOL0     H40359  -0.196   8.815   2.093 -0.9864 -0.8278 -0.1449
  306MOL0     H40360  -0.433   8.985   2.085 -0.1407 -1.3285 -0.8503
  306MOL0     H40361  -0.411   8.903   2.232 -2.8317 -0.2179 -1.3827
  306MOL0     H40362  -0.557   8.769   2.101 -0.5702 -1.5227  2.1027
  306MOL0     H40363  -0.415   8.693   2.156 -0.6557  0.5597  0.4848
  306MOL0     H40364  -0.446   8.812   1.876 -1.1124 -2.9807 -3.7395
  306MOL0     H40365  -0.316   8.696   1.912  0.0034 -0.2199 -1.2134
  306MOL0     H40366  -0.498   8.540   1.989 -0.5515 -2.1871 -1.2145
  306MOL0     H40367  -0.474   8.555   1.811 -0.9002 -1.4859 -0.9417
  306MOL0     H40368  -0.664   8.718   1.802 -2.2213  0.9857  1.7491
  306MOL0     H40369  -0.690   8.688   1.972 -1.9776  0.1534 -0.4994
  306MOL0     H40370  -0.682   8.462   1.765  1.1422 -0.0548  1.1935
  306MOL0     H40371  -0.677   8.434   1.932  0.5571 -0.4541  0.0571
  306MOL0     H40372  -0.891   8.594   1.775  0.7304 -1.9132 -3.0882
  306MOL0     H40373  -0.912   8.542   1.950  0.4214  2.0663 -0.4929
  306MOL0     H40374  -0.212   9.133   1.751  0.1643 -1.1646 -0.9754
  306MOL0     H40375   0.008   9.153   1.623 -2.6166 -0.1965 -0.4715
  306MOL0     H40376   0.431   9.392   1.509  3.1456  2.3616 -0.0787
  306MOL0     H40377   0.631   9.380   1.382 -1.3941  1.2295 -2.4494
  306MOL0     H40378   1.889   8.779   0.970  0.6003 -1.5873  0.7559
  306MOL0     H40379   2.018   9.002   1.001  1.7953 -0.4263 -1.3581
  306MOL0     H40380   2.528   9.258   1.199 -2.0995 -4.2980 -1.5037
  306MOL0     H40381   2.524   9.482   1.298 -0.1850  0.6016 -2.5131
  306MOL0     H40382   2.233   9.638   1.612 -0.4942  2.6444  0.4564
  306MOL0     H40383   2.167   9.633   1.448 -0.5658  2.7997 -0.3026
  306MOL0     H40384   2.275   9.828   1.394 -1.6560 -1.7758  0.6321
  306MOL0     H40385   2.189   9.847   1.555  0.4748 -1.6833  1.8502
  306MOL0     H40386   2.488   9.822   1.554  0.6244  1.7598  0.5737
  306MOL0     H40387   2.374   9.837   1.688  0.3807  0.8819 -0.0559
  306MOL0     H40388   2.475  10.035   1.493 -0.4228  3.5810  0.2370
  306MOL0     H40389   2.303  10.045   1.524 -1.6598  0.5895  1.4194
  306MOL0     H40390   2.506  10.227   1.859 -2.8092  0.8375  0.8409
  306MOL0     H40391   2.164   9.394   1.506  2.0911  0.7467  1.3702
  306MOL0     H40392   2.143   9.187   1.391 -0.3022 -0.9254 -2.1533
  307MOL0     O40393   2.738   1.563   3.672 -0.2502  0.0987  0.1064
  307MOL0     C40394   2.770   1.634   3.766 -0.3143  0.4014  0.1860
  307MOL0     O40395   2.689   1.712   3.842 -0.2501  0.4931 -0.6144
  307MOL0     C40396   2.553   1.692   3.829 -0.2755 -0.6705 -0.4602
  307MOL0     C40397   2.467   1.801   3.834  0.2772 -0.0690 -0.5594
  307MOL0     C40398   2.321   1.783   3.824  0.1482 -0.0990  0.1728
  307MOL0     C40399   2.260   1.656   3.814 -0.7338 -0.5721 -0.5559
  307MOL0     O40400   2.123   1.648   3.812 -0.2267 -0.4660 -0.4551
  307MOL0     C40401   2.052   1.550   3.885 -0.4592 -0.1801  0.6050
  307MOL0     C40402   1.908   1.543   3.844  1.2673 -0.2171  0.0644
  307MOL0     C40403   1.833   1.677   3.830  0.6301 -0.0149 -0.3270
  307MOL0     C40404   1.698   1.643   3.758  0.0029  0.2010 -0.9032
  307MOL0     C40405   1.601   1.759   3.734 -0.8954 -0.0025  0.1521
  307MOL0     C40406   1.498   1.741   3.627 -0.1440 -0.2701  0.4424
  307MOL0     C40407   1.550   1.768   3.480 -0.2427 -0.0491 -0.2664
  307MOL0     C40408   1.440   1.719   3.384 -0.3638 -0.9836 -0.5268
  307MOL0     N40409   1.318   1.806   3.393  0.2884 -0.1852  0.5990
  307MOL0     C40410   1.312   1.941   3.378  0.0007 -0.3015 -0.2181
  307MOL0     C40411   1.183   1.966   3.346 -0.1518 -0.0623 -0.1419
  307MOL0     C40412   1.126   2.102   3.331 -0.1430  0.0458 -0.0883
  307MOL0     C40413   0.987   2.127   3.382  0.2812 -0.0154 -0.1375
  307MOL0     C40414   0.944   2.262   3.326 -0.2348 -0.4235 -0.4737
  307MOL0     C40415   0.803   2.311   3.376 -0.7867 -0.1179 -0.2876
  307MOL0     O40416   0.690   2.237   3.317  0.1690 -0.7745  0.1471
  307MOL0     C40417   0.559   2.269   3.362 -0.8627 -0.4983  0.8770
  307MOL0     C40418   0.462   2.215   3.291 -0.1010  0.1979  0.6826
  307MOL0     C40419   0.328   2.237   3.325 -0.2681 -0.1191  0.5165
  307MOL0     C40420   0.299   2.322   3.427  0.5412 -0.5745  0.2173
  307MOL0     C40421   0.150   2.362   3.444  0.1276  0.0726  0.0964
  307MOL0     O40422   0.062   2.288   3.378  0.0542  0.2408  0.2004
  307MOL0     C40423  -0.073   2.307   3.363 -0.5178 -0.7934  0.7269
  307MOL0     C40424  -0.155   2.403   3.428 -0.1253  0.8058  0.5283
  307MOL0     C40425  -0.293   2.392   3.419 -0.0655  0.5458 -0.4632
  307MOL0     C40426  -0.352   2.293   3.341 -1.0472  0.9642  0.6039
  307MOL0     O40427  -0.486   2.286   3.337  0.3507 -0.1217 -0.2231
  307MOL0     C40428  -0.566   2.165   3.343  0.6415  0.0070 -0.3430
  307MOL0     C40429  -0.716   2.182   3.366  0.6001 -0.4023  0.4554
  307MOL0     C40430  -0.775   2.041   3.355 -0.5443  0.7112 -0.4075
  307MOL0     C40431  -0.924   2.024   3.348 -0.1957  0.2776  1.1598
  307MOL0     C40432  -0.990   1.912   3.420  0.0731  0.1841 -0.0720
  307MOL0     C40433  -1.142   1.937   3.414  0.6658 -0.2878  0.0139
  307MOL0     C40434  -1.223   1.806   3.439 -0.8231 -0.4679  0.5642
  307MOL0     C40435  -1.242   1.774   3.588 -0.1727  1.2864 -1.6409
  307MOL0    Cl40436  -1.340   1.898   3.656 -0.2120 -0.2645  0.1654
  307MOL0     C40437  -0.276   2.199   3.285 -0.7425  0.5187 -0.5811
  307MOL0     C40438  -0.134   2.210   3.282 -1.2745  0.3709 -0.5974
  307MOL0     O40439   0.137   2.473   3.495 -0.2791  0.5016 -0.0770
  307MOL0     C40440   0.400   2.388   3.503  0.4513 -0.3461 -0.0407
  307MOL0     C40441   0.530   2.361   3.466  0.5699 -0.6128  0.4214
  307MOL0     N40442   1.116   1.851   3.331 -0.2073  0.1689 -0.4310
  307MOL0     N40443   1.201   1.754   3.345 -0.2873  0.3723 -0.1838
  307MOL0     C40444   2.350   1.547   3.803  0.0418 -0.4900 -0.1492
  307MOL0     C40445   2.490   1.563   3.815 -0.1082 -0.4081 -0.3271
  307MOL0     C40446   2.917   1.664   3.785 -0.4339  0.1858  0.0985
  307MOL0     C40447   3.009   1.576   3.733 -0.5979  0.3076  0.2953
  307MOL0     C40448   3.148   1.597   3.740 -0.1666 -1.8070  0.0734
  307MOL0     C40449   3.195   1.720   3.799 -0.3179 -0.3647 -0.1888
  307MOL0     O40450   3.324   1.765   3.802 -0.3871  0.3140  0.4844
  307MOL0     C40451   3.427   1.671   3.752  0.3253  0.1648  0.3095
  307MOL0     C40452   3.570   1.722   3.742  0.4652 -0.5159 -0.1626
  307MOL0     C40453   3.641   1.672   3.867 -0.3171 -0.9922  0.0183
  307MOL0     C40454   3.789   1.703   3.864 -0.2768 -0.2545 -0.7201
  307MOL0     C40455   3.866   1.665   3.976  0.3998 -0.0325  0.0620
  307MOL0     C40456   3.942   1.638   4.066  0.3534  0.3761  0.4258
  307MOL0     C40457   3.096   1.806   3.852  0.2277 -0.8099 -0.1299
  307MOL0     C40458   2.955   1.777   3.851 -0.1659  0.2409 -0.0890
  307MOL0     H40459   2.513   1.899   3.836  0.8466 -0.3413  0.6644
  307MOL0     H40460   2.256   1.869   3.822 -0.2145 -0.3863 -0.7615
  307MOL0     H40461   2.062   1.576   3.991  0.8932 -0.8018  0.6529
  307MOL0     H40462   2.092   1.451   3.861  3.2881  1.0667  1.0470
  307MOL0     H40463   1.856   1.478   3.915  1.0348 -0.9802 -0.7756
  307MOL0     H40464   1.910   1.497   3.744  2.8765  1.7901 -0.9046
  307MOL0     H40465   1.882   1.754   3.769  2.2227  0.9965  2.0789
  307MOL0     H40466   1.808   1.710   3.931 -0.1196  0.3076 -0.6090
  307MOL0     H40467   1.708   1.589   3.664 -2.4993 -0.1051 -1.0686
  307MOL0     H40468   1.632   1.578   3.817 -1.8535  2.5880 -0.1667
  307MOL0     H40469   1.664   1.842   3.704  0.6760 -1.7067 -1.5537
  307MOL0     H40470   1.547   1.781   3.827 -2.8980 -1.5221 -0.5774
  307MOL0     H40471   1.419   1.817   3.637  0.5863  1.1404 -3.0150
  307MOL0     H40472   1.453   1.643   3.647  1.1911 -0.5052  2.6044
  307MOL0     H40473   1.577   1.872   3.457 -0.1467 -0.0616 -0.2116
  307MOL0     H40474   1.644   1.716   3.458 -0.5824 -1.0958  0.6441
  307MOL0     H40475   1.421   1.613   3.402  1.6625 -1.0193  2.1308
  307MOL0     H40476   1.473   1.719   3.280 -1.8505 -0.1973 -1.0266
  307MOL0     H40477   1.398   2.003   3.402 -2.3508  1.6171  4.4223
  307MOL0     H40478   1.124   2.117   3.222 -0.5452 -2.2970 -0.4652
  307MOL0     H40479   1.201   2.169   3.373 -1.0427  0.6427  0.6290
  307MOL0     H40480   1.001   2.135   3.491 -0.1491  2.6767 -0.2046
  307MOL0     H40481   0.922   2.040   3.367  0.9337 -1.0055  2.2969
  307MOL0     H40482   1.027   2.333   3.331  1.0910 -1.8078 -1.6868
  307MOL0     H40483   0.933   2.249   3.218 -1.7739 -1.6157 -0.2071
  307MOL0     H40484   0.781   2.417   3.362  0.1810  0.5418  2.5246
  307MOL0     H40485   0.801   2.300   3.485 -0.1330  0.9844 -0.1571
  307MOL0     H40486   0.486   2.157   3.202  0.0326  1.5685 -0.2154
  307MOL0     H40487   0.249   2.197   3.262 -1.1432  3.3683 -0.8200
  307MOL0     H40488  -0.106   2.490   3.470 -1.3476  1.2524  1.0813
  307MOL0     H40489  -0.352   2.465   3.473 -2.9076 -1.9024 -0.0274
  307MOL0     H40490  -0.540   2.103   3.429 -0.9895 -0.6717 -0.3093
  307MOL0     H40491  -0.544   2.119   3.246  2.1031 -4.1165  1.7003
  307MOL0     H40492  -0.756   2.244   3.285 -2.1209 -1.7066  0.7049
  307MOL0     H40493  -0.737   2.227   3.464  1.0071  0.0004  0.3624
  307MOL0     H40494  -0.757   1.985   3.448 -0.3808 -1.4861 -1.6887
  307MOL0     H40495  -0.732   1.983   3.273 -0.7925  2.3363 -1.7272
  307MOL0     H40496  -0.973   2.117   3.381 -0.5807  0.2165  0.7678
  307MOL0     H40497  -0.946   2.024   3.241  0.5990  0.3934  0.9856
  307MOL0     H40498  -0.973   1.897   3.527 -0.3722 -0.0668 -0.0322
  307MOL0     H40499  -0.959   1.816   3.376 -0.5042 -0.2040  0.3470
  307MOL0     H40500  -1.169   1.968   3.313 -3.4460 -1.4380  0.5983
  307MOL0     H40501  -1.161   2.017   3.486  4.0485  0.1788  0.5852
  307MOL0     H40502  -1.318   1.821   3.388 -1.3200 -0.6654  1.4147
  307MOL0     H40503  -1.163   1.726   3.395 -0.6530 -0.3009  0.4853
  307MOL0     H40504  -1.143   1.769   3.636 -2.0138  3.1459  2.9425
  307MOL0     H40505  -1.293   1.678   3.600 -1.2637  1.6552 -3.1018
  307MOL0     H40506  -0.322   2.124   3.221 -0.9571  2.6651 -3.0982
  307MOL0     H40507  -0.086   2.133   3.223 -1.7064  0.6965 -1.4000
  307MOL0     H40508   0.380   2.453   3.587  1.9843 -0.9697  0.8551
  307MOL0     H40509   0.607   2.410   3.524  1.1763  1.7675 -2.1946
  307MOL0     H40510   2.300   1.452   3.787 -1.6803 -0.1493  2.4958
  307MOL0     H40511   2.551   1.477   3.792  3.6975  1.4411  1.7948
  307MOL0     H40512   2.981   1.478   3.696  0.5914  0.0114  0.1117
  307MOL0     H40513   3.225   1.528   3.707  2.1269 -0.0939  1.5367
  307MOL0     H40514   3.415   1.640   3.648 -0.1100 -0.3190  0.5003
  307MOL0     H40515   3.411   1.586   3.820 -0.7964  1.8582  2.3132
  307MOL0     H40516   3.611   1.675   3.653  4.1563 -1.5539  1.8675
  307MOL0     H40517   3.579   1.831   3.748  2.9356 -0.6988  0.7143
  307MOL0     H40518   3.631   1.563   3.875 -0.5940 -1.0320 -0.7691
  307MOL0     H40519   3.602   1.712   3.961 -0.0676  0.1783 -0.3581
  307MOL0     H40520   3.831   1.661   3.772  0.8009 -1.3683  0.2499
  307MOL0     H40521   3.797   1.812   3.857 -1.3742 -0.2207 -1.6331
  307MOL0     H40522   4.005   1.599   4.143  0.4368  1.1201  0.7468
  307MOL0     H40523   3.110   1.906   3.894  1.4042 -0.8842 -0.3093
  307MOL0     H40524   2.883   1.850   3.889  2.4578  2.2772  1.4004
  308MOL0     O40525   7.813   5.591   0.939  0.1116  0.2169 -0.6458
  308MOL0     C40526   7.832   5.566   1.060  0.2341  0.8234 -1.2805
  308MOL0     O40527   7.735   5.549   1.150  0.6986  0.3869  0.1492
  308MOL0     C40528   7.604   5.584   1.117  0.1754 -0.4026 -0.6929
  308MOL0     C40529   7.565   5.697   1.042 -1.2998  0.6834 -0.1399
  308MOL0     C40530   7.432   5.720   1.016  0.6422 -0.1472 -0.7212
  308MOL0     C40531   7.328   5.632   1.060  1.1451 -0.4826  1.2199
  308MOL0     O40532   7.193   5.660   1.051  0.4820  0.1747  0.6019
  308MOL0     C40533   7.138   5.784   0.995 -0.0434 -0.2723 -0.6564
  308MOL0     C40534   6.996   5.785   1.058 -0.4973 -0.0560 -0.6854
  308MOL0     C40535   6.914   5.911   1.040  0.5181 -0.1696 -0.5507
  308MOL0     C40536   6.765   5.881   1.075 -0.2993 -0.4648 -0.1768
  308MOL0     C40537   6.658   5.986   1.057  0.2352 -0.1843 -0.1449
  308MOL0     C40538   6.658   6.042   0.912 -0.2433  0.1765 -0.7648
  308MOL0     C40539   6.633   5.928   0.807 -0.1114 -0.4136  0.0154
  308MOL0     C40540   6.636   5.992   0.664  0.6524  0.0857 -0.0697
  308MOL0     N40541   6.767   6.046   0.624  0.1223 -0.5414  0.6811
  308MOL0     C40542   6.789   6.186   0.633 -0.4632 -0.3478  0.4267
  308MOL0     C40543   6.894   6.195   0.542 -0.3502 -0.1550  0.7572
  308MOL0     C40544   6.961   6.322   0.513  0.3978 -0.3897 -0.1016
  308MOL0     C40545   6.902   6.364   0.379  0.4759 -0.3536  0.2547
  308MOL0     C40546   6.981   6.478   0.323 -0.2066 -0.8466  0.6841
  308MOL0     C40547   6.946   6.506   0.176 -0.0567 -0.4195  0.5046
  308MOL0     O40548   6.805   6.531   0.160 -0.5761  0.5569  0.1189
  308MOL0     C40549   6.711   6.443   0.110  0.3343 -0.4780 -0.0718
  308MOL0     C40550   6.741   6.317   0.061  0.2525  0.1173  0.1726
  308MOL0     C40551   6.636   6.237   0.013 -1.4002  0.4833 -0.2997
  308MOL0     C40552   6.497   6.282   0.007 -0.0117 -0.2865 -0.4517
  308MOL0     C40553   6.393   6.188  -0.032  0.7472 -0.1673  1.0341
  308MOL0     O40554   6.270   6.252  -0.060  0.4893  0.0384 -0.1490
  308MOL0     C40555   6.179   6.165  -0.109 -0.4169  0.0122 -0.4131
  308MOL0     C40556   6.068   6.122  -0.030 -0.8530 -1.0386 -0.3217
  308MOL0     C40557   5.960   6.051  -0.094  0.1469  0.4778  1.1242
  308MOL0     C40558   5.966   6.026  -0.234 -0.3079 -0.1433  0.0908
  308MOL0     O40559   5.861   5.961  -0.298  0.5809 -0.1278  0.0752
  308MOL0     C40560   5.789   5.870  -0.219 -0.0147  0.0069  0.1124
  308MOL0     C40561   5.733   5.776  -0.325 -0.6572 -0.6675 -0.0108
  308MOL0     C40562   5.634   5.679  -0.258 -0.4691  0.0434  0.9787
  308MOL0     C40563   5.615   5.555  -0.352 -0.1555  0.3738 -0.0581
  308MOL0     C40564   5.495   5.470  -0.294 -0.2116  0.9317  0.4126
  308MOL0     C40565   5.485   5.342  -0.377 -0.1292 -1.2861  0.2270
  308MOL0     C40566   5.388   5.255  -0.304  0.2790 -0.0219  0.6656
  308MOL0     C40567   5.317   5.164  -0.409  0.0454  0.1256  0.5716
  308MOL0    Cl40568   5.247   5.028  -0.319 -0.1980  0.2289  0.3023
  308MOL0     C40569   6.075   6.066  -0.311  0.3406 -0.0175  0.6103
  308MOL0     C40570   6.181   6.133  -0.246 -0.7953 -0.1259 -0.0151
  308MOL0     O40571   6.421   6.067  -0.040  0.5674  0.0834 -0.2541
  308MOL0     C40572   6.466   6.408   0.072 -0.2794 -0.1191  0.3209
  308MOL0     C40573   6.571   6.482   0.119  0.3079  0.2543  0.1407
  308MOL0     N40574   6.944   6.078   0.493  0.3713 -0.0459  0.2424
  308MOL0     N40575   6.859   5.990   0.548 -0.0287  0.1318 -0.8345
  308MOL0     C40576   7.372   5.513   1.116  0.5037 -0.3059 -0.1242
  308MOL0     C40577   7.508   5.482   1.143  0.7804 -0.1073  0.3260
  308MOL0     C40578   7.973   5.575   1.112  0.6434  0.7420 -0.3134
  308MOL0     C40579   8.002   5.537   1.239  0.3885  0.2483 -0.0329
  308MOL0     C40580   8.132   5.562   1.291  0.7804 -0.1910 -0.4562
  308MOL0     C40581   8.234   5.616   1.209  0.9808  0.1862 -0.3508
  308MOL0     O40582   8.351   5.650   1.273 -0.0340  0.1994 -0.6144
  308MOL0     C40583   8.461   5.569   1.235 -1.1410 -0.8712 -0.0129
  308MOL0     C40584   8.595   5.617   1.285 -0.0298  0.3050 -0.3273
  308MOL0     C40585   8.616   5.750   1.207 -0.3386  0.7978 -0.2706
  308MOL0     C40586   8.679   5.713   1.070 -0.0305 -0.8692  0.1155
  308MOL0     C40587   8.611   5.781   0.954  0.2693  0.3079 -0.9652
  308MOL0     C40588   8.534   5.846   0.886  0.7394  0.2600 -0.4901
  308MOL0     C40589   8.201   5.665   1.078  0.6760 -0.6074 -0.4050
  308MOL0     C40590   8.069   5.637   1.028  0.4507  0.8762 -0.5177
  308MOL0     H40591   7.639   5.759   0.992  1.9698 -2.0132  0.9421
  308MOL0     H40592   7.407   5.812   0.966  1.1637  0.9093  0.8809
  308MOL0     H40593   7.130   5.776   0.886 -1.0881  0.4117 -0.6420
  308MOL0     H40594   7.200   5.872   1.013  0.7110 -0.6970 -1.0944
  308MOL0     H40595   7.001   5.757   1.164 -1.6525  1.6658 -0.1145
  308MOL0     H40596   6.958   5.696   1.009  2.3970 -0.4548 -2.4273
  308MOL0     H40597   6.921   5.923   0.931  4.7876 -2.1323 -0.6666
  308MOL0     H40598   6.948   5.991   1.106  2.7721 -1.0808 -0.5259
  308MOL0     H40599   6.747   5.787   1.021  0.9347 -0.5602 -0.4643
  308MOL0     H40600   6.762   5.848   1.180  0.1453  0.1732  0.0413
  308MOL0     H40601   6.674   6.077   1.116  1.4391  2.1223 -3.6850
  308MOL0     H40602   6.562   5.946   1.091  0.2282  0.8239  1.0798
  308MOL0     H40603   6.749   6.098   0.889  1.5569 -2.6175 -0.8131
  308MOL0     H40604   6.577   6.116   0.907 -0.1886  0.1681 -2.1666
  308MOL0     H40605   6.708   5.849   0.802  0.7475  0.3803 -0.0939
  308MOL0     H40606   6.537   5.876   0.815 -0.5553 -0.1401 -2.5361
  308MOL0     H40607   6.556   6.064   0.648  0.1221 -0.7511 -1.3438
  308MOL0     H40608   6.614   5.917   0.587 -0.2864  1.7905 -1.5199
  308MOL0     H40609   6.730   6.264   0.679 -0.1825 -1.4300  2.7727
  308MOL0     H40610   7.065   6.310   0.482 -0.3543 -3.5510 -1.7928
  308MOL0     H40611   6.934   6.405   0.580 -1.5775 -0.6608 -0.5181
  308MOL0     H40612   6.802   6.405   0.395 -0.6732 -2.6412 -0.5393
  308MOL0     H40613   6.890   6.286   0.304 -0.0537  0.7284 -0.8248
  308MOL0     H40614   6.955   6.564   0.385  0.4673 -0.8782  1.0248
  308MOL0     H40615   7.088   6.463   0.338  0.0940  3.1099  4.4285
  308MOL0     H40616   6.974   6.416   0.120  0.1614 -1.3685  2.0763
  308MOL0     H40617   7.000   6.593   0.137  0.5870 -0.7917  0.5365
  308MOL0     H40618   6.845   6.285   0.059  0.3935  0.5397 -2.4558
  308MOL0     H40619   6.672   6.138  -0.012  2.4576  1.2992  1.2471
  308MOL0     H40620   6.056   6.151   0.074 -1.3466 -0.6481 -0.4823
  308MOL0     H40621   5.868   6.018  -0.047  0.2448 -2.6219 -0.6205
  308MOL0     H40622   5.710   5.923  -0.165  1.0515  1.0617  0.6980
  308MOL0     H40623   5.855   5.814  -0.152 -1.9547  0.2863  2.4082
  308MOL0     H40624   5.818   5.720  -0.363  1.4414  1.2249  1.6260
  308MOL0     H40625   5.679   5.839  -0.397  1.5286  2.7679  1.1364
  308MOL0     H40626   5.540   5.731  -0.239 -0.2319  1.2433 -0.8424
  308MOL0     H40627   5.670   5.657  -0.157  1.7569  0.9079  0.4329
  308MOL0     H40628   5.601   5.590  -0.454 -1.0891 -2.5905 -1.0612
  308MOL0     H40629   5.707   5.496  -0.351 -1.3567 -1.6923 -1.8181
  308MOL0     H40630   5.406   5.534  -0.297 -0.4076  0.6389 -1.1791
  308MOL0     H40631   5.521   5.449  -0.190 -2.4475 -1.6280  0.5459
  308MOL0     H40632   5.579   5.289  -0.391  0.1773 -0.4515 -1.0879
  308MOL0     H40633   5.436   5.361  -0.473 -2.2629  2.7776  1.8579
  308MOL0     H40634   5.430   5.195  -0.223  3.3343  0.8988 -0.1031
  308MOL0     H40635   5.313   5.320  -0.258  1.9703  1.0571  2.0637
  308MOL0     H40636   5.396   5.126  -0.475 -0.2878 -0.2431  0.3839
  308MOL0     H40637   5.246   5.216  -0.474 -2.7927 -2.1820  1.5953
  308MOL0     H40638   6.072   6.031  -0.414 -2.3359 -2.1423  1.2929
  308MOL0     H40639   6.263   6.161  -0.312  0.2608 -2.9820 -0.0577
  308MOL0     H40640   6.364   6.440   0.091 -0.4103 -1.4248  2.0214
  308MOL0     H40641   6.544   6.583   0.148 -0.0461  1.6628 -4.3492
  308MOL0     H40642   7.300   5.445   1.160  0.0391  1.2668  1.6392
  308MOL0     H40643   7.547   5.394   1.193  3.3377 -0.8201 -2.5941
  308MOL0     H40644   7.927   5.501   1.308  0.0284 -0.3933 -0.7439
  308MOL0     H40645   8.151   5.547   1.397  2.8636 -0.3515 -0.8051
  308MOL0     H40646   8.472   5.567   1.126  4.4402  3.1830  0.0627
  308MOL0     H40647   8.452   5.470   1.281  1.9067 -1.0672  0.3121
  308MOL0     H40648   8.602   5.636   1.393 -0.0691  0.9960 -0.4402
  308MOL0     H40649   8.667   5.536   1.276  1.0991  0.6878  3.4499
  308MOL0     H40650   8.693   5.809   1.257  1.1236 -2.3738  1.5322
  308MOL0     H40651   8.521   5.803   1.194 -1.0525 -0.4208 -0.1085
  308MOL0     H40652   8.786   5.738   1.075 -0.2826  0.3406 -0.2815
  308MOL0     H40653   8.668   5.605   1.057  0.3105 -0.8642 -0.2149
  308MOL0     H40654   8.458   5.911   0.848 -0.9506 -0.6422  1.1918
  308MOL0     H40655   8.276   5.714   1.016  0.3002  0.1858 -0.2377
  308MOL0     H40656   8.041   5.682   0.933 -1.9395 -3.0674 -1.9534
  309MOL0     O40657   7.535   1.838   5.932 -1.3253 -0.2898  0.7542
  309MOL0     C40658   7.613   1.743   5.926  0.4103  1.1366  0.5426
  309MOL0     O40659   7.584   1.617   5.883  0.2821 -0.1663  0.1503
  309MOL0     C40660   7.455   1.575   5.852  0.3633  1.1418  0.6317
  309MOL0     C40661   7.331   1.632   5.857 -0.2047  0.3750  0.5945
  309MOL0     C40662   7.213   1.571   5.835  0.6104  0.8357 -0.2685
  309MOL0     C40663   7.212   1.432   5.816 -0.7941 -1.1353  0.7140
  309MOL0     O40664   7.103   1.358   5.785 -0.1915  0.0808  0.1403
  309MOL0     C40665   6.981   1.389   5.856 -0.0304  0.9231  0.0828
  309MOL0     C40666   6.881   1.285   5.819  0.1617  0.0996  0.7888
  309MOL0     C40667   6.775   1.251   5.925 -0.1609 -0.1837  0.4925
  309MOL0     C40668   6.686   1.137   5.864  0.1594 -0.6781 -0.2477
  309MOL0     C40669   6.575   1.084   5.961 -0.1066  0.1141 -0.1761
  309MOL0     C40670   6.468   1.012   5.874 -0.5492 -0.7157 -0.0237
  309MOL0     C40671   6.367   0.933   5.956  0.0611 -0.5306 -0.0052
  309MOL0     C40672   6.314   0.997   6.084  0.7538  0.2064  0.5092
  309MOL0     N40673   6.211   0.911   6.155  0.3607  0.2399 -0.6234
  309MOL0     C40674   6.085   0.870   6.123 -0.5276  0.2739 -0.4661
  309MOL0     C40675   6.039   0.801   6.232 -0.3657 -0.2218 -0.3017
  309MOL0     C40676   5.904   0.732   6.244 -0.6512  0.6470 -0.0688
  309MOL0     C40677   5.902   0.602   6.164 -0.1927 -0.5630  0.8404
  309MOL0     C40678   5.764   0.540   6.148  0.3179 -0.6951 -0.6933
  309MOL0     C40679   5.787   0.400   6.105  0.1295  0.3901  0.2172
  309MOL0     O40680   5.673   0.359   6.036  0.4455  0.3357 -0.0980
  309MOL0     C40681   5.619   0.240   6.064 -0.0384 -0.0966  0.0011
  309MOL0     C40682   5.674   0.122   6.118 -0.3029  0.1979  0.1700
  309MOL0     C40683   5.596   0.010   6.134 -0.0008  0.0239  0.3694
  309MOL0     C40684   5.461   0.012   6.092 -0.5469 -0.7383 -0.1591
  309MOL0     C40685   5.369  -0.110   6.097  0.4530 -0.0604  0.5640
  309MOL0     O40686   5.245  -0.099   6.042  0.0028 -0.3047 -0.0719
  309MOL0     C40687   5.150  -0.197   6.049 -0.6737 -0.3533  0.8169
  309MOL0     C40688   5.045  -0.182   5.967  0.0607  0.4069 -0.2919
  309MOL0     C40689   4.932  -0.260   5.972  0.8307  1.1204 -0.8023
  309MOL0     C40690   4.921  -0.364   6.067  0.3714  0.2337  1.1923
  309MOL0     O40691   4.807  -0.437   6.086  0.0995  0.0603 -0.0673
  309MOL0     C40692   4.675  -0.405   6.020  0.4106 -0.1963  0.4056
  309MOL0     C40693   4.564  -0.466   6.094 -0.8065 -0.0251  0.3308
  309MOL0     C40694   4.432  -0.440   6.018 -0.1363  0.5062  0.4947
  309MOL0     C40695   4.324  -0.542   6.058  0.3310 -1.3581 -0.1755
  309MOL0     C40696   4.201  -0.522   5.969  0.1501  0.2303 -0.3590
  309MOL0     C40697   4.096  -0.437   6.026 -0.2216 -0.6363 -0.3196
  309MOL0     C40698   3.973  -0.429   5.930 -0.1461 -1.7312  0.3248
  309MOL0     C40699   3.852  -0.370   6.016 -0.2051 -0.2285  0.2167
  309MOL0    Cl40700   3.720  -0.334   5.892  0.3919 -0.1503 -0.1249
  309MOL0     C40701   5.031  -0.378   6.148 -0.2847  0.8282 -0.6801
  309MOL0     C40702   5.145  -0.297   6.145 -0.1768 -0.5275  0.2126
  309MOL0     O40703   5.408  -0.201   6.160 -0.2289 -0.0785  0.1877
  309MOL0     C40704   5.403   0.139   6.072  0.3245 -0.0657 -0.1672
  309MOL0     C40705   5.484   0.252   6.055 -0.7152 -0.0768  0.3580
  309MOL0     N40706   6.147   0.784   6.319  0.1027  0.1229 -0.2515
  309MOL0     N40707   6.241   0.858   6.273  0.3125  0.2333 -0.5046
  309MOL0     C40708   7.337   1.366   5.801 -0.1738  0.7230 -0.0361
  309MOL0     C40709   7.451   1.443   5.820 -1.3215 -0.1224  0.1365
  309MOL0     C40710   7.757   1.763   5.968  0.6075  0.1824 -0.1246
  309MOL0     C40711   7.857   1.658   5.950 -0.3876 -0.9368  0.5447
  309MOL0     C40712   7.992   1.671   5.991  0.2907  1.0526  0.1098
  309MOL0     C40713   8.036   1.787   6.048  0.8397 -0.2889  0.5521
  309MOL0     O40714   8.166   1.800   6.081  1.2756 -0.7675  0.3745
  309MOL0     C40715   8.222   1.929   6.104  0.0851  0.8328 -0.2033
  309MOL0     C40716   8.367   1.927   6.055 -0.8716  0.6373 -0.1329
  309MOL0     C40717   8.381   1.876   5.915 -0.8739 -0.6629 -0.2398
  309MOL0     C40718   8.292   1.961   5.827 -0.1002  0.2550  1.3097
  309MOL0     C40719   8.342   1.951   5.684 -0.9358 -1.6755  0.7391
  309MOL0     C40720   8.400   1.952   5.569  1.2442 -0.1561 -0.3947
  309MOL0     C40721   7.938   1.894   6.074  0.7060  0.9023  0.9033
  309MOL0     C40722   7.800   1.878   6.035  0.6587  0.7241  0.0824
  309MOL0     H40723   7.315   1.736   5.885 -1.4394  0.5396 -0.6139
  309MOL0     H40724   7.118   1.623   5.840 -0.2041 -0.7480  2.3222
  309MOL0     H40725   6.931   1.482   5.827 -2.6380  0.7307  3.2662
  309MOL0     H40726   6.995   1.391   5.965 -0.4658  0.6023  0.1467
  309MOL0     H40727   6.920   1.187   5.790 -1.1020 -0.3146  0.4515
  309MOL0     H40728   6.818   1.320   5.737 -2.4410 -1.2283  2.0890
  309MOL0     H40729   6.728   1.347   5.945  3.2429  2.5036 -2.8217
  309MOL0     H40730   6.834   1.212   6.008  0.5244  2.6779  1.4684
  309MOL0     H40731   6.637   1.166   5.771  0.6039 -0.8763 -0.5473
  309MOL0     H40732   6.741   1.052   5.821 -0.7935 -0.0386 -2.8987
  309MOL0     H40733   6.531   1.164   6.022 -1.7448 -0.6633 -0.2682
  309MOL0     H40734   6.626   1.014   6.028  1.0539 -2.9391 -3.9482
  309MOL0     H40735   6.516   0.948   5.800  2.2590  0.7405  0.3962
  309MOL0     H40736   6.409   1.086   5.818  0.4890  0.5840  0.5444
  309MOL0     H40737   6.279   0.915   5.892  0.5205  0.8070 -1.0527
  309MOL0     H40738   6.414   0.838   5.983  1.0164  0.2316  1.1038
  309MOL0     H40739   6.269   1.094   6.060 -1.1339 -0.5447  0.8354
  309MOL0     H40740   6.388   1.027   6.159 -2.5795  3.5272  2.8774
  309MOL0     H40741   6.031   0.889   6.031 -0.5340 -0.4273 -0.6116
  309MOL0     H40742   5.824   0.797   6.208  0.3882  2.0916  0.1306
  309MOL0     H40743   5.877   0.704   6.346 -0.8541 -0.9991 -0.5508
  309MOL0     H40744   5.963   0.531   6.220  0.5815 -0.9176 -0.4193
  309MOL0     H40745   5.946   0.632   6.068 -3.1205  0.3946 -0.3204
  309MOL0     H40746   5.710   0.548   6.243  2.2086  0.2637  0.3776
  309MOL0     H40747   5.713   0.581   6.061  1.6311 -1.0636 -1.6747
  309MOL0     H40748   5.797   0.341   6.197 -1.7256 -1.0591 -0.4501
  309MOL0     H40749   5.863   0.380   6.029  0.1514 -0.2993  0.4149
  309MOL0     H40750   5.777   0.125   6.152 -0.9463  0.2365  2.2563
  309MOL0     H40751   5.641  -0.085   6.163 -1.0528 -0.2266  1.2880
  309MOL0     H40752   5.042  -0.106   5.889 -0.8008  0.7864  0.0957
  309MOL0     H40753   4.852  -0.238   5.902  0.7046  0.6398 -0.8155
  309MOL0     H40754   4.685  -0.451   5.921  1.0819 -1.9949  1.2511
  309MOL0     H40755   4.654  -0.298   6.015 -2.5954 -0.6854  0.5985
  309MOL0     H40756   4.569  -0.430   6.197  2.2686  0.4230  0.1002
  309MOL0     H40757   4.581  -0.574   6.105  2.0851  0.2227 -0.8972
  309MOL0     H40758   4.460  -0.463   5.915 -1.9508  1.9075 -0.3641
  309MOL0     H40759   4.396  -0.337   6.009  3.4940  1.9533  0.7734
  309MOL0     H40760   4.367  -0.642   6.060 -0.6954 -1.8416  2.8883
  309MOL0     H40761   4.300  -0.532   6.164  1.7624 -1.9038  0.2147
  309MOL0     H40762   4.150  -0.618   5.967 -0.7720  0.7075 -1.3980
  309MOL0     H40763   4.229  -0.480   5.871 -0.0497  2.9568  0.6667
  309MOL0     H40764   4.143  -0.340   6.044  0.5178 -0.6431 -2.0370
  309MOL0     H40765   4.059  -0.477   6.121  0.1117  1.9872  1.0048
  309MOL0     H40766   3.997  -0.361   5.848 -2.3333 -0.6757  0.4728
  309MOL0     H40767   3.952  -0.524   5.881 -0.0541 -1.7910  0.4013
  309MOL0     H40768   3.879  -0.273   6.058 -1.4155  2.1879 -3.9991
  309MOL0     H40769   3.830  -0.444   6.093 -1.0460  0.4776  0.6843
  309MOL0     H40770   5.018  -0.453   6.226  0.0019  0.9687 -0.4952
  309MOL0     H40771   5.217  -0.312   6.225  1.0812  0.0085 -0.7913
  309MOL0     H40772   5.296   0.152   6.063  0.1716 -0.8601  0.4761
  309MOL0     H40773   5.436   0.345   6.027 -0.5619 -0.2243 -0.4402
  309MOL0     H40774   7.347   1.259   5.790  2.8013  1.0254 -1.3018
  309MOL0     H40775   7.546   1.392   5.804 -1.9742 -1.1579 -0.5799
  309MOL0     H40776   7.820   1.573   5.893  0.1393  1.1698 -3.2505
  309MOL0     H40777   8.064   1.592   5.971  0.5400  1.3277 -0.0804
  309MOL0     H40778   8.208   1.937   6.212 -1.3209 -1.1293 -0.1846
  309MOL0     H40779   8.161   1.992   6.039 -1.6504 -0.8755 -0.3136
  309MOL0     H40780   8.406   2.029   6.065 -1.2710  0.7103  0.8482
  309MOL0     H40781   8.437   1.865   6.112 -0.8309  1.0337  0.2550
  309MOL0     H40782   8.356   1.770   5.908  4.6238 -2.5549  2.8418
  309MOL0     H40783   8.485   1.891   5.885 -0.6649 -1.9456 -0.2160
  309MOL0     H40784   8.192   1.917   5.825  1.2967 -3.1727  0.8287
  309MOL0     H40785   8.282   2.065   5.861 -1.8733  0.6847 -0.3546
  309MOL0     H40786   8.445   1.950   5.471 -0.6618  3.5533 -1.5069
  309MOL0     H40787   7.979   1.973   6.136  2.1756 -0.0094  1.1484
  309MOL0     H40788   7.733   1.961   6.053 -1.5675 -1.0537  0.5019
  310MOL0     O40789   1.267   9.853   5.343 -1.0562  0.1158  0.4082
  310MOL0     C40790   1.326   9.744   5.349  0.3505 -0.1962 -0.3701
  310MOL0     O40791   1.255   9.633   5.354 -0.0654  0.5398 -0.5376
  310MOL0     C40792   1.110   9.640   5.371 -0.1822  0.0015  0.0087
  310MOL0     C40793   1.056   9.608   5.498 -0.4027  0.0921 -0.0183
  310MOL0     C40794   0.916   9.618   5.511 -0.7650 -0.0167 -0.9189
  310MOL0     C40795   0.828   9.644   5.407  0.1786 -0.6141 -0.1128
  310MOL0     O40796   0.688   9.657   5.423 -0.1553 -0.7460 -0.3473
  310MOL0     C40797   0.639   9.529   5.460  0.1949 -0.1788  0.9638
  310MOL0     C40798   0.482   9.544   5.470 -0.6219  0.6789  0.3624
  310MOL0     C40799   0.401   9.414   5.506 -0.0822 -0.3506 -0.4083
  310MOL0     C40800   0.253   9.439   5.541  0.1936 -0.6858 -0.1302
  310MOL0     C40801   0.186   9.309   5.591  0.3314 -0.3957 -0.3239
  310MOL0     C40802   0.231   9.282   5.733 -0.0790 -0.0898 -0.7394
  310MOL0     C40803   0.272   9.138   5.757 -0.8885 -0.1292 -0.1761
  310MOL0     C40804   0.365   9.137   5.872 -0.3415 -0.0908 -0.0587
  310MOL0     N40805   0.384   9.004   5.916  1.0043  0.1700 -0.1897
  310MOL0     C40806   0.459   8.902   5.854  0.3442  0.6526 -0.0185
  310MOL0     C40807   0.460   8.798   5.947  0.1677  0.6621 -0.6651
  310MOL0     C40808   0.521   8.663   5.936  0.4197 -0.7731 -0.1961
  310MOL0     C40809   0.667   8.664   5.985 -0.1143 -0.5051 -0.2058
  310MOL0     C40810   0.749   8.537   5.936 -0.5273 -0.0066 -1.3198
  310MOL0     C40811   0.895   8.546   5.982 -0.7458 -0.0543  0.6174
  310MOL0     O40812   0.976   8.428   5.964  0.0873 -0.2167 -1.1893
  310MOL0     C40813   1.089   8.422   6.042 -0.7346  0.3128  0.0881
  310MOL0     C40814   1.077   8.410   6.177  0.5368  0.1556 -1.4414
  310MOL0     C40815   1.190   8.391   6.250  0.9090  0.6203 -0.8985
  310MOL0     C40816   1.317   8.382   6.191 -0.1639 -0.2056 -0.3727
  310MOL0     C40817   1.438   8.362   6.283  0.5897 -0.2109 -0.7942
  310MOL0     O40818   1.411   8.322   6.416 -0.0965 -0.8532  0.0805
  310MOL0     C40819   1.527   8.311   6.493  0.2829  0.2499 -0.0874
  310MOL0     C40820   1.567   8.421   6.569  0.3151 -0.1880  0.1326
  310MOL0     C40821   1.676   8.416   6.660 -0.4612  0.2971 -0.3883
  310MOL0     C40822   1.757   8.300   6.675  0.5366  0.0563 -0.2776
  310MOL0     O40823   1.869   8.306   6.755 -1.0539  0.6003 -0.3950
  310MOL0     C40824   1.944   8.186   6.773  0.1731 -1.2064  0.1875
  310MOL0     C40825   2.064   8.197   6.874  0.0645 -0.5293  0.1578
  310MOL0     C40826   2.019   8.185   7.021  0.0863  0.1850 -0.1287
  310MOL0     C40827   2.142   8.205   7.120 -0.0542 -0.5730  0.4225
  310MOL0     C40828   2.101   8.159   7.260 -0.1971  1.2422 -0.1484
  310MOL0     C40829   2.207   8.207   7.359 -0.5961  0.1084 -0.3991
  310MOL0     C40830   2.351   8.152   7.345 -0.4233 -0.6738  0.5244
  310MOL0     C40831   2.440   8.169   7.471 -0.3266  0.4190 -0.1058
  310MOL0    Cl40832   2.446   8.341   7.508 -0.3756 -0.2204  0.1032
  310MOL0     C40833   1.720   8.194   6.582  0.1865  0.2395  0.1611
  310MOL0     C40834   1.611   8.197   6.497 -0.3385 -0.2347  0.7144
  310MOL0     O40835   1.548   8.385   6.235 -0.6925 -0.6052 -0.5428
  310MOL0     C40836   1.331   8.397   6.055  0.2197 -0.2467 -0.7516
  310MOL0     C40837   1.217   8.404   5.982 -0.9842 -0.5997  0.7440
  310MOL0     N40838   0.388   8.838   6.059  0.2967  0.0472  1.3409
  310MOL0     N40839   0.346   8.956   6.036  0.1249 -0.7592 -0.1139
  310MOL0     C40840   0.894   9.669   5.285  0.3047 -0.2547  0.4111
  310MOL0     C40841   1.027   9.661   5.265 -0.1953 -0.2530 -0.7975
  310MOL0     C40842   1.477   9.747   5.358 -0.1385 -0.3180 -0.5382
  310MOL0     C40843   1.557   9.844   5.291  0.0445 -0.1420 -0.6091
  310MOL0     C40844   1.698   9.846   5.292 -0.4401  0.5833  0.3455
  310MOL0     C40845   1.755   9.753   5.375 -0.3475  0.1545 -0.4391
  310MOL0     O40846   1.891   9.751   5.383  0.9806  0.2613  0.1590
  310MOL0     C40847   1.934   9.763   5.515 -0.1187 -0.4746 -0.9259
  310MOL0     C40848   2.079   9.814   5.502  0.3319  0.1107 -0.3790
  310MOL0     C40849   2.164   9.696   5.435  0.7775 -0.8760 -0.4804
  310MOL0     C40850   2.312   9.726   5.449 -0.0809 -0.1877  0.5493
  310MOL0     C40851   2.395   9.640   5.361 -0.8476  1.0178 -0.0154
  310MOL0     C40852   2.469   9.591   5.281 -0.5630 -0.1071 -0.1603
  310MOL0     C40853   1.687   9.649   5.437 -0.0714 -0.7180  0.5114
  310MOL0     C40854   1.546   9.642   5.428  0.2012 -0.4206 -0.2125
  310MOL0     H40855   1.124   9.581   5.578  1.3353  1.8505 -0.8065
  310MOL0     H40856   0.878   9.589   5.609  3.4329  1.1852  1.3288
  310MOL0     H40857   0.681   9.496   5.555 -3.4258 -0.9409  2.4726
  310MOL0     H40858   0.670   9.452   5.388  0.3145  2.4302 -2.0111
  310MOL0     H40859   0.459   9.575   5.368  1.3895  0.4114 -0.2098
  310MOL0     H40860   0.439   9.623   5.533  0.1336  1.1401  0.3034
  310MOL0     H40861   0.451   9.361   5.588 -2.3962 -1.7054  0.2138
  310MOL0     H40862   0.429   9.354   5.419  2.3342 -0.6017  0.4648
  310MOL0     H40863   0.239   9.511   5.622 -0.1388 -0.2877 -0.5416
  310MOL0     H40864   0.204   9.456   5.445 -0.1223 -0.0344  0.1404
  310MOL0     H40865   0.214   9.218   5.537 -2.9709 -1.8149  0.1362
  310MOL0     H40866   0.078   9.319   5.581  0.2096 -1.2312  0.1561
  310MOL0     H40867   0.146   9.312   5.795 -1.7914 -2.3936 -1.8121
  310MOL0     H40868   0.316   9.346   5.757  0.2061  0.2869 -2.6512
  310MOL0     H40869   0.189   9.072   5.785 -0.3119 -0.6219  0.3972
  310MOL0     H40870   0.328   9.093   5.674  0.1089  0.1229  0.3399
  310MOL0     H40871   0.323   9.197   5.953 -1.5964  2.5673 -2.4760
  310MOL0     H40872   0.463   9.183   5.854 -0.7516  0.6599 -0.4269
  310MOL0     H40873   0.504   8.911   5.756 -1.3623 -1.9919 -1.1425
  310MOL0     H40874   0.505   8.635   5.832  0.3570  1.8792 -0.9691
  310MOL0     H40875   0.463   8.603   6.006  0.3454 -1.0186 -0.4670
  310MOL0     H40876   0.668   8.670   6.094 -2.5067 -2.2489 -0.0075
  310MOL0     H40877   0.718   8.751   5.941  1.3144 -1.4770 -0.5752
  310MOL0     H40878   0.712   8.446   5.983  1.3140  0.1105  0.4868
  310MOL0     H40879   0.742   8.524   5.827  0.6449  1.0886 -1.5459
  310MOL0     H40880   0.908   8.586   6.083 -0.2718  0.3681  0.3950
  310MOL0     H40881   0.947   8.622   5.923  0.7720 -0.4608  1.3717
  310MOL0     H40882   0.982   8.402   6.230  1.8617 -0.5994  0.9454
  310MOL0     H40883   1.188   8.363   6.355  0.3993 -2.8764 -1.6998
  310MOL0     H40884   1.510   8.513   6.561 -1.4523 -1.0783  1.5878
  310MOL0     H40885   1.706   8.505   6.713  2.8326 -0.5270 -0.6854
  310MOL0     H40886   1.990   8.172   6.675 -0.5901  1.7563 -0.6703
  310MOL0     H40887   1.880   8.097   6.783  1.5646 -2.3157 -0.5010
  310MOL0     H40888   2.108   8.295   6.853 -2.2795  0.5138 -0.1109
  310MOL0     H40889   2.136   8.118   6.853  0.3381 -0.3507  0.4041
  310MOL0     H40890   1.976   8.085   7.031  0.4557  0.2346  2.5231
  310MOL0     H40891   1.940   8.256   7.048 -1.0647 -1.4463  0.9658
  310MOL0     H40892   2.235   8.160   7.083  0.7695  1.9111 -0.7631
  310MOL0     H40893   2.157   8.314   7.120 -0.6853 -0.4003 -2.5275
  310MOL0     H40894   2.098   8.050   7.259 -0.1253  1.2352 -1.2107
  310MOL0     H40895   2.001   8.198   7.284 -0.8863  0.1866 -1.1820
  310MOL0     H40896   2.162   8.174   7.453 -0.1846 -1.5222 -0.7447
  310MOL0     H40897   2.218   8.315   7.359  0.2456  0.0731  1.6849
  310MOL0     H40898   2.345   8.047   7.317 -1.1638 -0.5190  0.0706
  310MOL0     H40899   2.402   8.191   7.256 -0.5962 -3.4574 -0.9183
  310MOL0     H40900   2.537   8.122   7.453  0.0639  1.0923  0.2178
  310MOL0     H40901   2.403   8.124   7.563  1.9347  1.1147  1.2112
  310MOL0     H40902   1.760   8.093   6.579 -1.2765 -0.3362 -0.3651
  310MOL0     H40903   1.591   8.110   6.434 -1.1770  1.7261 -1.9113
  310MOL0     H40904   1.427   8.404   6.003  0.6664  0.8489  0.1770
  310MOL0     H40905   1.216   8.422   5.874 -4.5437  0.6203  0.8486
  310MOL0     H40906   0.834   9.682   5.196 -2.5343 -2.1669  1.8886
  310MOL0     H40907   1.088   9.680   5.178  3.8317  0.3514  1.9000
  310MOL0     H40908   1.506   9.919   5.230  0.7307  1.8287  1.1070
  310MOL0     H40909   1.753   9.928   5.246  1.8523  0.3184  2.3814
  310MOL0     H40910   1.935   9.663   5.561  3.6146 -0.5494 -0.9150
  310MOL0     H40911   1.876   9.826   5.584 -1.9561 -1.8299 -1.1387
  310MOL0     H40912   2.091   9.910   5.450  3.2099  0.0788  0.0655
  310MOL0     H40913   2.106   9.835   5.606 -4.2103 -0.4658  1.1375
  310MOL0     H40914   2.136   9.692   5.330 -0.1345 -1.9717 -0.2025
  310MOL0     H40915   2.132   9.604   5.485 -1.1598  0.0911  0.1728
  310MOL0     H40916   2.327   9.831   5.423 -3.1000 -0.2487 -1.9147
  310MOL0     H40917   2.329   9.697   5.553 -0.5558  0.4200  0.8001
  310MOL0     H40918   2.531   9.552   5.203 -1.0937  0.9780 -1.1821
  310MOL0     H40919   1.740   9.567   5.483 -0.7444 -0.7348  1.2890
  310MOL0     H40920   1.490   9.568   5.486  1.6075  0.9635  3.1716
  311MOL0     O40921   6.704   3.483   0.219 -0.6779 -0.7079 -0.1437
  311MOL0     C40922   6.804   3.460   0.294  0.7247 -0.4411  0.2440
  311MOL0     O40923   6.798   3.457   0.426  0.0660 -0.2589 -0.1937
  311MOL0     C40924   6.676   3.492   0.479  0.0868 -0.1633 -0.3633
  311MOL0     C40925   6.655   3.611   0.545  0.4314 -0.7649 -0.6846
  311MOL0     C40926   6.521   3.640   0.579  0.8267 -0.1194 -0.6700
  311MOL0     C40927   6.403   3.556   0.553 -0.3482  0.6754 -0.2878
  311MOL0     O40928   6.269   3.594   0.584 -0.2864  0.7411 -0.2792
  311MOL0     C40929   6.246   3.717   0.640 -1.1726 -0.4404  0.5238
  311MOL0     C40930   6.105   3.750   0.645 -0.5316 -0.5154  0.9007
  311MOL0     C40931   6.017   3.654   0.736 -1.1347  0.1033 -0.2976
  311MOL0     C40932   5.870   3.700   0.726  0.3106  0.6302  0.1539
  311MOL0     C40933   5.773   3.588   0.730  1.1593 -0.0095 -0.5533
  311MOL0     C40934   5.640   3.651   0.769  0.6358 -0.2519  0.1415
  311MOL0     C40935   5.510   3.566   0.774 -0.4094 -0.1748 -0.1035
  311MOL0     C40936   5.400   3.649   0.855  0.4534  0.2214 -0.0908
  311MOL0     N40937   5.282   3.560   0.891 -0.3173  0.6791  0.0501
  311MOL0     C40938   5.210   3.476   0.802  0.2447  0.0272  1.3916
  311MOL0     C40939   5.122   3.409   0.879 -0.4720 -0.3836  0.2935
  311MOL0     C40940   5.043   3.299   0.812  0.8890 -0.2573 -0.9308
  311MOL0     C40941   4.906   3.269   0.879  0.2598 -1.2114 -0.4400
  311MOL0     C40942   4.845   3.146   0.813  0.2169  1.0552 -1.0066
  311MOL0     C40943   4.729   3.077   0.886 -0.4809 -0.7627 -0.4886
  311MOL0     O40944   4.684   2.973   0.813 -1.0885 -0.3533  0.2517
  311MOL0     C40945   4.560   2.915   0.835 -0.9111 -0.0916 -0.7563
  311MOL0     C40946   4.492   2.939   0.952  0.3516  1.1487 -0.7156
  311MOL0     C40947   4.362   2.895   0.965  0.0383  0.4209  0.4709
  311MOL0     C40948   4.304   2.814   0.867  0.4378  0.4407 -0.7404
  311MOL0     C40949   4.179   2.743   0.899 -1.2152 -0.3532  0.1361
  311MOL0     O40950   4.116   2.782   1.016  0.5775  0.3350  0.1912
  311MOL0     C40951   3.994   2.721   1.045  0.6155 -0.3268 -0.0931
  311MOL0     C40952   3.967   2.693   1.176 -0.2598 -0.5937 -0.5809
  311MOL0     C40953   3.840   2.647   1.221  0.4920  0.7249  0.4789
  311MOL0     C40954   3.735   2.629   1.120  0.1241 -0.1536 -0.0875
  311MOL0     O40955   3.614   2.600   1.164 -1.1705  0.2716  0.0558
  311MOL0     C40956   3.512   2.557   1.073  0.0635  0.0619  0.0775
  311MOL0     C40957   3.395   2.498   1.154 -0.2381 -0.3772 -0.5932
  311MOL0     C40958   3.341   2.605   1.252  0.4910 -0.0078  1.0559
  311MOL0     C40959   3.225   2.564   1.332  0.9487 -0.7521  0.2192
  311MOL0     C40960   3.210   2.626   1.475 -0.0708  0.1139  0.2081
  311MOL0     C40961   3.072   2.610   1.526  0.8328  0.2913 -0.9360
  311MOL0     C40962   3.048   2.669   1.672  0.1682 -0.2039 -0.7749
  311MOL0     C40963   3.103   2.580   1.784 -0.7789  0.5241 -0.3553
  311MOL0    Cl40964   3.042   2.640   1.939 -0.1206 -0.1833 -0.1205
  311MOL0     C40965   3.761   2.660   0.984  0.3549 -0.0056 -0.0085
  311MOL0     C40966   3.887   2.699   0.948  0.6055 -0.4971 -1.0726
  311MOL0     O40967   4.151   2.647   0.827  0.4625 -0.3660 -0.5043
  311MOL0     C40968   4.370   2.790   0.751  0.6032 -0.3170  0.9317
  311MOL0     C40969   4.497   2.834   0.734 -0.4198  0.1233 -0.0091
  311MOL0     N40970   5.142   3.459   1.011  0.2929  0.2060 -0.0236
  311MOL0     N40971   5.237   3.543   1.018 -0.7108 -0.2705  0.1228
  311MOL0     C40972   6.438   3.435   0.494 -0.1076  0.2544 -0.8372
  311MOL0     C40973   6.571   3.398   0.460  0.3286 -1.0552  0.6005
  311MOL0     C40974   6.941   3.423   0.236 -0.7570  0.2452  0.1407
  311MOL0     C40975   6.957   3.403   0.091  0.2239  0.5690 -0.1164
  311MOL0     C40976   7.082   3.383   0.034 -0.0104  0.2895  0.6696
  311MOL0     C40977   7.193   3.374   0.116  0.7810  0.1941 -0.5018
  311MOL0     O40978   7.332   3.359   0.075 -0.7335 -0.3018 -0.2516
  311MOL0     C40979   7.354   3.338  -0.062  0.4935 -0.3461  0.4500
  311MOL0     C40980   7.506   3.343  -0.068  0.1182  0.4377  1.8369
  311MOL0     C40981   7.584   3.249   0.020 -1.3803  0.0835 -0.2029
  311MOL0     C40982   7.705   3.193  -0.045 -0.3061  0.8276  0.1494
  311MOL0     C40983   7.808   3.297  -0.079 -0.2657  0.4948 -0.2609
  311MOL0     C40984   7.888   3.383  -0.106  0.0387 -0.7852 -0.8233
  311MOL0     C40985   7.185   3.382   0.256  0.2450 -0.4244 -0.0831
  311MOL0     C40986   7.064   3.406   0.314  0.5258 -1.3595 -0.6015
  311MOL0     H40987   6.743   3.674   0.551  0.4218 -0.7850 -0.3085
  311MOL0     H40988   6.507   3.734   0.631  1.6497 -0.8033  0.8631
  311MOL0     H40989   6.297   3.796   0.585  1.3119 -2.3905 -0.1251
  311MOL0     H40990   6.275   3.707   0.745  0.3650  0.1406  0.1847
  311MOL0     H40991   6.062   3.762   0.545  1.8472 -1.8319 -0.3441
  311MOL0     H40992   6.102   3.852   0.686 -0.7171 -1.4830  3.4550
  311MOL0     H40993   6.049   3.654   0.840  1.5692 -1.0942 -1.0163
  311MOL0     H40994   6.021   3.553   0.693 -3.5537 -0.5268  0.7591
  311MOL0     H40995   5.846   3.763   0.812  0.2890 -1.8778  2.1064
  311MOL0     H40996   5.861   3.753   0.631  2.1158 -1.9352 -1.5912
  311MOL0     H40997   5.792   3.525   0.817 -1.3138  3.1406  2.5302
  311MOL0     H40998   5.763   3.528   0.639  0.7673 -0.0603 -0.4780
  311MOL0     H40999   5.613   3.719   0.688  1.8671  0.8029  0.5761
  311MOL0     H41000   5.647   3.712   0.860  1.2382  2.7568 -1.7898
  311MOL0     H41001   5.478   3.533   0.675  0.3987 -1.9074  0.1745
  311MOL0     H41002   5.530   3.472   0.826  2.0599  0.4248  0.1450
  311MOL0     H41003   5.352   3.727   0.796  1.2441  0.0390 -1.0003
  311MOL0     H41004   5.455   3.692   0.940  0.2984 -2.0425  1.2557
  311MOL0     H41005   5.208   3.471   0.694 -0.7816  1.9376  1.2890
  311MOL0     H41006   5.107   3.210   0.816 -0.9521 -1.6158 -0.2519
  311MOL0     H41007   5.036   3.319   0.704  0.0001 -4.7110 -1.8985
  311MOL0     H41008   4.841   3.357   0.871  0.7002 -0.7556  0.6869
  311MOL0     H41009   4.913   3.260   0.988 -1.8782  0.5905 -0.0775
  311MOL0     H41010   4.805   3.178   0.717  1.4102  0.4954 -1.7139
  311MOL0     H41011   4.922   3.070   0.798  0.6471  1.3619 -0.4166
  311MOL0     H41012   4.650   3.152   0.898  3.3742  3.3619  2.8689
  311MOL0     H41013   4.769   3.049   0.983  1.5086  1.1866 -0.6550
  311MOL0     H41014   4.536   3.002   1.029 -1.5825  2.9533 -0.9630
  311MOL0     H41015   4.308   2.914   1.057  0.2560  1.2118  0.4412
  311MOL0     H41016   4.054   2.695   1.242 -0.5616 -1.1305 -0.1673
  311MOL0     H41017   3.829   2.627   1.327  0.3899 -1.8817  0.0411
  311MOL0     H41018   3.547   2.487   0.996  1.5391  0.5175  0.3082
  311MOL0     H41019   3.463   2.646   1.033  3.1279  3.5007  3.1775
  311MOL0     H41020   3.427   2.413   1.215  2.2671  0.5396 -0.5441
  311MOL0     H41021   3.311   2.476   1.088 -3.0409 -2.4016  3.1920
  311MOL0     H41022   3.321   2.696   1.196 -1.2064  1.2026  3.4532
  311MOL0     H41023   3.421   2.623   1.326 -1.9067  1.2179  3.5143
  311MOL0     H41024   3.133   2.586   1.276  1.1723  2.1373  0.8250
  311MOL0     H41025   3.231   2.458   1.357  3.2206 -0.2054  2.3537
  311MOL0     H41026   3.226   2.734   1.472  3.3351 -0.1881  2.1042
  311MOL0     H41027   3.294   2.594   1.538  2.0793  1.6993 -1.6848
  311MOL0     H41028   3.039   2.506   1.522  1.2977  0.1479 -1.1207
  311MOL0     H41029   3.006   2.664   1.458  0.7730  2.7989  0.9510
  311MOL0     H41030   3.092   2.769   1.673 -0.3853  0.0456 -0.9487
  311MOL0     H41031   2.943   2.670   1.699  0.1125 -0.3266 -0.9859
  311MOL0     H41032   3.212   2.580   1.790 -0.7438 -1.7883 -0.0763
  311MOL0     H41033   3.075   2.475   1.772  2.1279 -0.5904  1.4745
  311MOL0     H41034   3.680   2.671   0.912 -2.2269 -0.9510  2.5804
  311MOL0     H41035   3.904   2.719   0.843  0.4891 -1.1053 -1.2083
  311MOL0     H41036   4.321   2.726   0.678 -1.5945  1.5376  0.6353
  311MOL0     H41037   4.540   2.804   0.638  0.4754  1.8724 -0.1843
  311MOL0     H41038   6.348   3.377   0.479  0.4463 -1.8269  2.7595
  311MOL0     H41039   6.589   3.299   0.420 -2.2418 -1.4772  0.2815
  311MOL0     H41040   6.872   3.406   0.023  1.5567  0.5299 -1.8482
  311MOL0     H41041   7.077   3.370  -0.074  0.2322  4.6818 -0.0415
  311MOL0     H41042   7.302   3.418  -0.115 -3.6197 -2.9992  0.0753
  311MOL0     H41043   7.319   3.243  -0.103 -1.2704  0.9972 -1.3213
  311MOL0     H41044   7.538   3.317  -0.169 -0.0317 -1.0005  2.1322
  311MOL0     H41045   7.536   3.447  -0.052  3.7023  0.5441 -3.1378
  311MOL0     H41046   7.526   3.163   0.055  0.4475 -1.5406 -0.9959
  311MOL0     H41047   7.612   3.309   0.107  0.3883  0.6555 -1.1146
  311MOL0     H41048   7.751   3.117   0.018  0.5655  1.6627  0.5450
  311MOL0     H41049   7.673   3.152  -0.141 -2.7597  0.4836  1.0260
  311MOL0     H41050   7.958   3.463  -0.119 -0.0421 -0.4324  0.7464
  311MOL0     H41051   7.275   3.366   0.315 -0.6545  3.1641  2.6368
  311MOL0     H41052   7.067   3.425   0.421  3.2735 -0.9607 -0.6722
  312MOL0     O41053   5.943   1.707   3.390 -1.3837 -0.5148  0.5718
  312MOL0     C41054   5.969   1.591   3.424  0.9781  0.4932 -1.3472
  312MOL0     O41055   5.880   1.486   3.423 -0.4649  0.8105 -0.0430
  312MOL0     C41056   5.746   1.486   3.386  0.9460  0.0164 -0.2206
  312MOL0     C41057   5.663   1.596   3.396 -0.4878  0.4689 -0.0519
  312MOL0     C41058   5.528   1.600   3.365  0.4956  0.6660 -0.7616
  312MOL0     C41059   5.467   1.482   3.314  0.6240 -0.3422  0.6550
  312MOL0     O41060   5.340   1.477   3.268 -0.4835  0.4225  0.3447
  312MOL0     C41061   5.280   1.348   3.244 -0.1464  0.3049  0.8180
  312MOL0     C41062   5.144   1.383   3.174 -0.1266 -0.1610  0.1448
  312MOL0     C41063   5.051   1.263   3.183  0.0313  0.1150 -0.1127
  312MOL0     C41064   4.991   1.234   3.328  0.2462 -0.3288 -0.0378
  312MOL0     C41065   4.868   1.146   3.341  0.3924  0.2655  0.1013
  312MOL0     C41066   4.772   1.146   3.216  1.1994  0.2971 -0.5963
  312MOL0     C41067   4.665   1.043   3.224  0.0358 -1.1285  0.0071
  312MOL0     C41068   4.580   1.071   3.356 -1.0079 -0.0918 -0.3451
  312MOL0     N41069   4.467   0.989   3.370  0.6234  0.2944 -0.3297
  312MOL0     C41070   4.448   0.896   3.471 -0.0939  0.2470  0.0614
  312MOL0     C41071   4.336   0.828   3.427 -0.1433 -0.3180 -0.0353
  312MOL0     C41072   4.272   0.715   3.505 -0.9597  0.5288  0.6590
  312MOL0     C41073   4.217   0.770   3.625  0.2243  0.4083  0.1328
  312MOL0     C41074   4.092   0.864   3.591  0.1998  0.2332  0.1246
  312MOL0     C41075   3.984   0.868   3.697  0.5968 -0.1515 -0.1392
  312MOL0     O41076   3.928   0.731   3.721 -0.7210 -0.4054 -0.3185
  312MOL0     C41077   3.822   0.725   3.801 -0.1637 -0.3041 -0.1803
  312MOL0     C41078   3.757   0.606   3.807 -0.5881  0.0816  0.2907
  312MOL0     C41079   3.650   0.583   3.883  0.1172  0.5022 -0.5535
  312MOL0     C41080   3.594   0.683   3.960 -0.1311  0.1168  0.4445
  312MOL0     C41081   3.458   0.653   4.018  0.7815 -0.2855  0.4488
  312MOL0     O41082   3.414   0.729   4.122  0.1835 -0.5216 -0.0691
  312MOL0     C41083   3.279   0.756   4.116 -0.2212 -0.0114  0.3723
  312MOL0     C41084   3.192   0.650   4.165  0.9320  0.2579  0.6819
  312MOL0     C41085   3.057   0.678   4.165 -0.2529  0.5927 -0.2587
  312MOL0     C41086   3.004   0.794   4.120  0.1865 -1.1478  0.4547
  312MOL0     O41087   2.868   0.804   4.145  0.1114 -0.2108 -0.7476
  312MOL0     C41088   2.790   0.855   4.034  0.3527  0.1323 -0.1588
  312MOL0     C41089   2.668   0.756   4.005 -0.2166 -0.2739 -0.0769
  312MOL0     C41090   2.537   0.778   4.075 -0.1411  1.0998  0.9017
  312MOL0     C41091   2.436   0.666   4.030 -0.7182 -0.0399 -0.1756
  312MOL0     C41092   2.335   0.637   4.143 -0.4091  0.8340  0.2396
  312MOL0     C41093   2.196   0.608   4.108  0.2050  0.5696  0.0318
  312MOL0     C41094   2.123   0.565   4.234 -0.4094 -0.4882 -0.5132
  312MOL0     C41095   1.980   0.549   4.219  0.4779  0.0237  0.3721
  312MOL0    Cl41096   1.956   0.388   4.153  0.3309 -0.1833  0.0140
  312MOL0     C41097   3.084   0.899   4.077 -0.2504 -0.1067 -0.2920
  312MOL0     C41098   3.221   0.879   4.082 -1.0073 -0.2331 -0.0583
  312MOL0     O41099   3.376   0.575   3.957 -0.3700  0.8115  0.0952
  312MOL0     C41100   3.655   0.808   3.963  0.0482  0.1407 -0.0505
  312MOL0     C41101   3.771   0.827   3.885 -0.4260 -0.3552 -0.4424
  312MOL0     N41102   4.285   0.886   3.313  0.5400  0.4442 -0.1531
  312MOL0     N41103   4.360   0.987   3.285 -0.6873  0.7883  0.2666
  312MOL0     C41104   5.554   1.366   3.311  0.4140  0.0501 -0.0480
  312MOL0     C41105   5.689   1.365   3.344 -0.5900 -0.5452  0.6868
  312MOL0     C41106   6.107   1.548   3.454 -1.6055 -0.8617 -0.2611
  312MOL0     C41107   6.223   1.632   3.433  0.4019  0.2045 -0.5412
  312MOL0     C41108   6.358   1.590   3.450 -0.3422  0.0416 -0.2285
  312MOL0     C41109   6.381   1.462   3.505  0.4880  0.4324  0.7391
  312MOL0     O41110   6.502   1.408   3.532 -0.1461  0.5210  0.5837
  312MOL0     C41111   6.630   1.483   3.509  0.4777  0.5623  1.2000
  312MOL0     C41112   6.659   1.590   3.604 -0.0202  0.4872 -1.2441
  312MOL0     C41113   6.790   1.652   3.564 -0.1406 -0.7419  0.1827
  312MOL0     C41114   6.841   1.775   3.644 -0.0366  0.1964 -0.8761
  312MOL0     C41115   6.957   1.844   3.573 -0.4377  0.6643 -0.5185
  312MOL0     C41116   7.049   1.903   3.514  0.0601 -0.1635 -0.7344
  312MOL0     C41117   6.270   1.377   3.528  0.5883  0.3736 -0.8669
  312MOL0     C41118   6.134   1.420   3.509 -0.1785 -0.1405 -0.1140
  312MOL0     H41119   5.699   1.693   3.430 -2.1592  1.1690 -0.1678
  312MOL0     H41120   5.472   1.692   3.378 -0.7939 -0.4971  3.5515
  312MOL0     H41121   5.264   1.287   3.333 -2.2592 -0.7025 -0.1780
  312MOL0     H41122   5.332   1.282   3.173  0.2067  2.0988 -0.6749
  312MOL0     H41123   5.165   1.399   3.068 -1.5167 -1.3689 -0.3493
  312MOL0     H41124   5.106   1.476   3.216 -0.1655  0.4105 -1.1071
  312MOL0     H41125   5.101   1.172   3.149  1.2617  0.3552  0.9603
  312MOL0     H41126   4.966   1.286   3.118 -0.8842  2.1529  1.6698
  312MOL0     H41127   5.073   1.190   3.386  0.8246  2.0999  1.1142
  312MOL0     H41128   4.961   1.327   3.376 -1.7984 -0.3845 -1.1073
  312MOL0     H41129   4.815   1.172   3.434  1.3106 -0.0656  0.7316
  312MOL0     H41130   4.916   1.049   3.354  1.9177  0.8347 -1.0024
  312MOL0     H41131   4.831   1.119   3.127 -2.4135 -2.5717 -2.3817
  312MOL0     H41132   4.726   1.245   3.207  2.3726  1.0161  0.9963
  312MOL0     H41133   4.608   1.052   3.132  1.7085  1.8638 -0.8723
  312MOL0     H41134   4.711   0.943   3.225  0.9158 -0.7586  1.6684
  312MOL0     H41135   4.558   1.178   3.352  2.0611  0.5934 -1.5573
  312MOL0     H41136   4.643   1.059   3.445  0.0926 -0.7335 -1.1812
  312MOL0     H41137   4.519   0.870   3.549 -0.0620 -0.0181 -0.0566
  312MOL0     H41138   4.350   0.644   3.533 -1.4651  0.1482  1.1187
  312MOL0     H41139   4.202   0.655   3.447  1.1767 -0.5964 -0.9262
  312MOL0     H41140   4.284   0.833   3.685  0.6135 -0.9982  1.2346
  312MOL0     H41141   4.175   0.689   3.685  0.3699  0.1738 -0.0769
  312MOL0     H41142   4.116   0.962   3.550 -0.8648  0.0867 -0.9066
  312MOL0     H41143   4.045   0.828   3.499 -3.0642 -1.0169  2.1239
  312MOL0     H41144   3.907   0.939   3.666  0.7010 -0.6457 -1.6436
  312MOL0     H41145   4.020   0.915   3.789 -2.5834  3.2140 -0.4172
  312MOL0     H41146   3.796   0.523   3.748 -0.9775 -0.7025  1.1123
  312MOL0     H41147   3.597   0.490   3.863 -0.8250  1.0784 -0.8171
  312MOL0     H41148   3.242   0.558   4.191 -2.5731 -0.8099  4.9138
  312MOL0     H41149   2.987   0.600   4.193  1.2153  0.3094  3.1852
  312MOL0     H41150   2.847   0.851   3.941 -1.4369 -1.7661 -1.2555
  312MOL0     H41151   2.770   0.961   4.055  0.6667  0.3160 -0.7781
  312MOL0     H41152   2.701   0.653   4.025  0.7026  0.3047  1.5734
  312MOL0     H41153   2.636   0.759   3.901 -1.7470  0.7729  0.3950
  312MOL0     H41154   2.486   0.872   4.050  1.3834  1.5663 -0.6867
  312MOL0     H41155   2.550   0.773   4.183 -0.0453 -0.1514  0.8438
  312MOL0     H41156   2.366   0.696   3.952 -1.1822 -2.1471 -0.6414
  312MOL0     H41157   2.496   0.582   3.993  2.3717  1.7814  0.3444
  312MOL0     H41158   2.342   0.712   4.222  0.7527 -2.5978  3.7767
  312MOL0     H41159   2.365   0.541   4.188 -2.3452  0.3643  0.6140
  312MOL0     H41160   2.196   0.530   4.032  2.4717  1.5132 -1.0241
  312MOL0     H41161   2.144   0.686   4.051 -0.8522  0.4367  0.7701
  312MOL0     H41162   2.165   0.474   4.278 -0.6815 -0.8668 -1.0288
  312MOL0     H41163   2.145   0.645   4.305 -1.2783  0.0324 -0.8223
  312MOL0     H41164   1.947   0.626   4.148  0.3274 -1.7233 -1.5236
  312MOL0     H41165   1.925   0.567   4.312  1.4088  3.6113  0.3907
  312MOL0     H41166   3.039   0.992   4.044 -2.8120 -1.4828 -0.9413
  312MOL0     H41167   3.281   0.952   4.030 -1.4691 -1.5446 -2.5801
  312MOL0     H41168   3.612   0.895   4.011 -1.0149  0.1301 -0.9541
  312MOL0     H41169   3.809   0.929   3.886 -3.4805  0.8907  0.5396
  312MOL0     H41170   5.511   1.270   3.287 -2.4630  0.6876  1.8836
  312MOL0     H41171   5.753   1.278   3.343 -0.9867 -1.2730  5.9140
  312MOL0     H41172   6.207   1.737   3.408 -1.7043 -0.1708 -0.9890
  312MOL0     H41173   6.434   1.667   3.434  0.6166 -0.5543  1.2622
  312MOL0     H41174   6.636   1.527   3.409  0.4111  1.5354  1.6152
  312MOL0     H41175   6.708   1.407   3.515  1.7881  1.6716 -0.6254
  312MOL0     H41176   6.580   1.666   3.604  1.8954  2.9473  3.9622
  312MOL0     H41177   6.662   1.542   3.703 -0.7503  1.8830 -0.5078
  312MOL0     H41178   6.793   1.661   3.455  1.1075  0.3039  0.2754
  312MOL0     H41179   6.880   1.592   3.579  1.2865  0.9626 -1.0819
  312MOL0     H41180   6.757   1.843   3.658  1.5263  2.4212 -1.7806
  312MOL0     H41181   6.872   1.742   3.743 -1.1070  1.4497 -0.1081
  312MOL0     H41182   7.120   1.961   3.459 -0.3645 -0.3588 -1.4984
  312MOL0     H41183   6.294   1.286   3.581 -0.6109  0.6836  0.2448
  312MOL0     H41184   6.049   1.360   3.541 -0.9166 -0.4940 -2.4982
  313MOL0     O41185   3.329   7.314   8.507 -0.2277  0.0032  0.4278
  313MOL0     C41186   3.304   7.411   8.434 -0.4748  0.0459  0.2553
  313MOL0     O41187   3.200   7.418   8.339  0.4646 -0.4316 -0.4352
  313MOL0     C41188   3.106   7.326   8.354 -0.4991 -0.0061  0.7584
  313MOL0     C41189   3.011   7.369   8.442  0.4954  0.7272  0.4099
  313MOL0     C41190   2.897   7.283   8.463 -0.6276 -0.3707  0.4723
  313MOL0     C41191   2.879   7.174   8.374  0.0498 -0.5914 -0.3665
  313MOL0     O41192   2.767   7.099   8.364 -0.1723 -0.1028  0.4966
  313MOL0     C41193   2.680   7.108   8.475  0.3134  0.1349 -0.2784
  313MOL0     C41194   2.574   6.996   8.454 -0.0045 -0.5643  0.3949
  313MOL0     C41195   2.455   7.022   8.543  0.0838 -0.2140  0.5407
  313MOL0     C41196   2.353   6.911   8.532  0.3226  0.1011  0.4473
  313MOL0     C41197   2.219   6.939   8.588  0.8165 -0.5965  0.5949
  313MOL0     C41198   2.115   6.841   8.540  0.3989 -0.3039 -0.4215
  313MOL0     C41199   1.994   6.850   8.647 -0.2670  0.4512  0.6784
  313MOL0     C41200   1.875   6.765   8.619 -0.0378 -0.3506 -0.9695
  313MOL0     N41201   1.892   6.624   8.674  0.3691  0.4564  0.0155
  313MOL0     C41202   1.995   6.525   8.653  1.0069  0.0833  1.1856
  313MOL0     C41203   1.935   6.413   8.707  0.4076 -0.5401  1.0471
  313MOL0     C41204   1.988   6.268   8.715  0.8905 -0.4738  0.6026
  313MOL0     C41205   2.137   6.254   8.697  0.2051  0.3803  0.3611
  313MOL0     C41206   2.172   6.118   8.759 -0.2912 -0.4079  0.9318
  313MOL0     C41207   2.323   6.083   8.741  0.0948  1.2899  0.0749
  313MOL0     O41208   2.393   6.177   8.659  0.7896  0.0974  0.1541
  313MOL0     C41209   2.522   6.161   8.624 -0.0004  0.0522  0.2049
  313MOL0     C41210   2.562   6.241   8.525  0.4912  0.3806 -0.0086
  313MOL0     C41211   2.689   6.231   8.465 -0.4130 -1.1463  0.2811
  313MOL0     C41212   2.778   6.128   8.507 -0.1781  0.0873  0.1310
  313MOL0     C41213   2.921   6.126   8.457  0.9674  0.3725  0.0777
  313MOL0     O41214   2.969   6.226   8.376 -0.6547 -0.2885 -0.4846
  313MOL0     C41215   3.105   6.232   8.334 -0.6858 -0.0885  0.7260
  313MOL0     C41216   3.146   6.347   8.263  0.2900 -0.1288  0.3985
  313MOL0     C41217   3.280   6.392   8.251 -0.7943 -0.2065  0.1377
  313MOL0     C41218   3.387   6.298   8.283 -0.1974 -0.7413  0.6905
  313MOL0     O41219   3.513   6.326   8.243  0.6610 -0.6631  0.0117
  313MOL0     C41220   3.622   6.289   8.335  1.3042  0.2490 -0.5646
  313MOL0     C41221   3.757   6.352   8.301  0.5538  0.1409  0.9226
  313MOL0     C41222   3.806   6.330   8.168 -0.2609  0.2263 -0.0907
  313MOL0     C41223   3.945   6.397   8.146  0.1194 -0.3110 -0.2452
  313MOL0     C41224   4.005   6.390   8.013  0.3143  0.2443 -0.5246
  313MOL0     C41225   4.110   6.504   7.991  0.3035  0.5591  0.0470
  313MOL0     C41226   4.183   6.472   7.853 -0.0699 -0.0364  0.3604
  313MOL0     C41227   4.277   6.595   7.813 -0.4361  0.1308 -0.5809
  313MOL0    Cl41228   4.410   6.609   7.937 -0.2589 -0.0801  0.3540
  313MOL0     C41229   3.345   6.188   8.348 -0.7336  0.1711 -0.1866
  313MOL0     C41230   3.213   6.155   8.375  0.1856 -0.7024 -0.4723
  313MOL0     O41231   2.985   6.042   8.510  0.2714  0.1156  0.4886
  313MOL0     C41232   2.736   6.044   8.605 -0.0486  1.2199 -0.3413
  313MOL0     C41233   2.604   6.052   8.656 -0.3461  0.1686  0.0825
  313MOL0     N41234   1.810   6.453   8.748 -0.3441 -0.1815 -0.2131
  313MOL0     N41235   1.787   6.575   8.742  0.1877 -0.2172  0.5789
  313MOL0     C41236   2.981   7.139   8.286 -0.0558  0.1006  0.1503
  313MOL0     C41237   3.098   7.212   8.277  0.0421 -0.0472  0.7667
  313MOL0     C41238   3.368   7.538   8.456 -0.2860  0.4735 -1.0958
  313MOL0     C41239   3.385   7.629   8.346  0.7389  0.2763  0.1059
  313MOL0     C41240   3.452   7.750   8.356 -0.1148  0.4036  0.1317
  313MOL0     C41241   3.516   7.772   8.477  0.2602 -0.8501  0.3416
  313MOL0     O41242   3.596   7.884   8.508 -0.0913 -0.5845  0.0940
  313MOL0     C41243   3.621   7.982   8.406  0.7334  0.0663  0.2075
  313MOL0     C41244   3.707   8.093   8.452 -0.0551 -0.0897  0.1069
  313MOL0     C41245   3.697   8.115   8.602 -0.4186  0.2477  0.3548
  313MOL0     C41246   3.563   8.148   8.652  0.6844 -0.6469  0.0479
  313MOL0     C41247   3.565   8.154   8.800 -0.4781  0.6352 -0.2791
  313MOL0     C41248   3.570   8.176   8.917  0.0070  0.8025  0.5181
  313MOL0     C41249   3.502   7.682   8.583  0.5621  0.3663 -0.4452
  313MOL0     C41250   3.434   7.565   8.570 -0.7788 -0.0906  0.0533
  313MOL0     H41251   3.025   7.460   8.500 -1.6485  1.3007  0.1297
  313MOL0     H41252   2.817   7.316   8.528 -0.7365  1.1685 -0.3876
  313MOL0     H41253   2.635   7.207   8.484 -1.7927 -0.6098 -1.7398
  313MOL0     H41254   2.731   7.083   8.569 -0.0038  0.2172 -0.0850
  313MOL0     H41255   2.620   6.901   8.483  1.2409 -0.2953 -0.6025
  313MOL0     H41256   2.551   6.994   8.347  0.0574  1.5494  0.2910
  313MOL0     H41257   2.420   7.122   8.516  0.7812 -0.2046 -0.3793
  313MOL0     H41258   2.494   7.028   8.645  1.9948  0.5903 -0.1870
  313MOL0     H41259   2.331   6.896   8.426 -2.3451  0.2641  0.9165
  313MOL0     H41260   2.405   6.829   8.583 -0.0704  1.4017  3.0781
  313MOL0     H41261   2.177   7.037   8.560 -3.4030 -2.0185  1.2199
  313MOL0     H41262   2.217   6.943   8.697 -0.0278 -1.0239  0.6025
  313MOL0     H41263   2.150   6.738   8.556 -1.7605 -1.0445 -0.0147
  313MOL0     H41264   2.089   6.853   8.434  0.2999 -1.4354 -0.5452
  313MOL0     H41265   2.040   6.838   8.746 -3.3190 -1.1595  2.0390
  313MOL0     H41266   1.972   6.957   8.642  5.0589  1.7847 -0.9277
  313MOL0     H41267   1.859   6.750   8.511 -0.9149  0.3311 -0.9486
  313MOL0     H41268   1.788   6.803   8.673 -0.2455 -1.4558 -0.5042
  313MOL0     H41269   2.089   6.530   8.599  1.6746  0.3501  2.3570
  313MOL0     H41270   1.928   6.210   8.644 -0.6299  1.3370  0.3439
  313MOL0     H41271   1.965   6.221   8.811  0.6889  0.7912  1.1918
  313MOL0     H41272   2.191   6.340   8.737  0.5417 -0.0229  0.7817
  313MOL0     H41273   2.157   6.248   8.589  4.4823  0.9215  0.9430
  313MOL0     H41274   2.139   6.117   8.863  2.5190  0.9314  1.9105
  313MOL0     H41275   2.115   6.037   8.713  0.3438 -1.1768  1.4795
  313MOL0     H41276   2.330   5.983   8.699 -1.3932  1.6498 -1.1233
  313MOL0     H41277   2.368   6.093   8.841  0.0741 -0.5239  0.2935
  313MOL0     H41278   2.482   6.307   8.495 -0.8020 -0.7172  0.9075
  313MOL0     H41279   2.718   6.306   8.393 -2.3670  0.3125  0.9200
  313MOL0     H41280   3.067   6.408   8.221  0.0105 -1.1249 -0.5601
  313MOL0     H41281   3.301   6.492   8.215  0.0513  0.1672  1.5792
  313MOL0     H41282   3.624   6.179   8.331  0.6135  0.2494 -3.6372
  313MOL0     H41283   3.597   6.323   8.436  0.9445  3.5578 -1.6661
  313MOL0     H41284   3.839   6.333   8.370  1.9473  2.2013 -0.0816
  313MOL0     H41285   3.742   6.460   8.305 -2.3086  0.0676 -2.5893
  313MOL0     H41286   3.732   6.357   8.092 -2.4736 -0.3056  1.7821
  313MOL0     H41287   3.825   6.223   8.160  1.5377  0.2232  2.9405
  313MOL0     H41288   3.926   6.503   8.166  0.9242  0.3310 -2.6078
  313MOL0     H41289   4.009   6.360   8.227 -1.5468  0.8539  1.6993
  313MOL0     H41290   3.928   6.403   7.938  1.3521 -0.9211 -1.8554
  313MOL0     H41291   4.045   6.289   7.995 -1.2300 -0.1264 -2.1279
  313MOL0     H41292   4.178   6.510   8.077  1.0406  0.8232 -0.5422
  313MOL0     H41293   4.055   6.599   7.987  2.9962  2.3383  1.6980
  313MOL0     H41294   4.234   6.375   7.850  3.3924  1.6430 -1.8659
  313MOL0     H41295   4.107   6.454   7.777 -1.9397  0.1613  2.1106
  313MOL0     H41296   4.209   6.680   7.821 -0.4797  0.1226 -0.8456
  313MOL0     H41297   4.317   6.580   7.712  0.5202  1.9868 -0.5168
  313MOL0     H41298   3.421   6.113   8.371 -1.8188 -0.4253  1.6462
  313MOL0     H41299   3.199   6.066   8.436 -1.6804 -0.8324 -1.0322
  313MOL0     H41300   2.798   5.963   8.644 -2.1470  0.4609  1.6584
  313MOL0     H41301   2.568   5.971   8.719  0.7903 -1.8430 -1.7159
  313MOL0     H41302   2.968   7.045   8.233  1.4669  0.1771 -0.4149
  313MOL0     H41303   3.163   7.179   8.197 -0.0972 -0.6924  0.9071
  313MOL0     H41304   3.345   7.620   8.246  0.8593  2.2743 -0.1599
  313MOL0     H41305   3.473   7.819   8.276  2.5897  1.1703  1.4072
  313MOL0     H41306   3.522   8.024   8.384  2.1013  2.6332 -1.4807
  313MOL0     H41307   3.667   7.927   8.324  1.9784 -0.3489  1.1565
  313MOL0     H41308   3.806   8.058   8.420 -1.2806 -2.1603 -1.7054
  313MOL0     H41309   3.690   8.187   8.398  0.0097  0.9673  1.8436
  313MOL0     H41310   3.759   8.203   8.623 -1.0690  1.4119 -2.2670
  313MOL0     H41311   3.736   8.040   8.671 -4.4674  0.8531  3.6676
  313MOL0     H41312   3.528   8.240   8.603  1.8359 -0.6136 -0.7629
  313MOL0     H41313   3.499   8.064   8.626  1.4758 -1.3854  0.4495
  313MOL0     H41314   3.568   8.210   9.019 -1.0199  0.2095  0.7060
  313MOL0     H41315   3.544   7.702   8.680  0.1809 -1.1774  0.0769
  313MOL0     H41316   3.436   7.488   8.646 -1.1339 -1.3773 -1.1937
  314MOL0     O41317   6.848   4.097   8.573  0.3197 -0.5573 -0.0186
  314MOL0     C41318   6.876   3.981   8.552 -0.4690 -0.5227 -0.9565
  314MOL0     O41319   6.796   3.894   8.499  0.2440 -0.6009 -0.1540
  314MOL0     C41320   6.669   3.930   8.462  0.0606  0.5264  0.3720
  314MOL0     C41321   6.559   3.942   8.546 -0.2845  0.1137  0.0702
  314MOL0     C41322   6.430   3.960   8.492 -0.8475  0.1540  0.3255
  314MOL0     C41323   6.412   4.001   8.363  0.5245  0.0501  0.3054
  314MOL0     O41324   6.281   4.035   8.324 -0.6338 -0.2968  0.7625
  314MOL0     C41325   6.258   4.167   8.306 -0.1615  0.1710  0.2209
  314MOL0     C41326   6.270   4.249   8.434 -0.3860  0.2479 -0.5405
  314MOL0     C41327   6.165   4.206   8.537  0.7903 -1.3140  0.2091
  314MOL0     C41328   6.179   4.282   8.666  0.1206  0.4528 -0.8847
  314MOL0     C41329   6.132   4.431   8.654 -0.3222  0.0273  0.2207
  314MOL0     C41330   6.199   4.525   8.759  0.0439 -0.0948  0.5506
  314MOL0     C41331   6.187   4.463   8.905  0.8443 -0.1833 -0.2313
  314MOL0     C41332   6.046   4.439   8.944  1.0839 -0.4102  0.2079
  314MOL0     N41333   6.052   4.350   9.064  0.2210  0.0896 -0.4410
  314MOL0     C41334   6.140   4.355   9.169  0.3319 -0.0099 -0.1479
  314MOL0     C41335   6.120   4.232   9.224  0.6471 -0.3234 -0.5890
  314MOL0     C41336   6.202   4.166   9.324  0.1250 -0.2615 -1.1709
  314MOL0     C41337   6.196   4.235   9.448  0.1839  0.4958  0.0747
  314MOL0     C41338   6.244   4.128   9.552  0.8895 -0.7039  0.6838
  314MOL0     C41339   6.254   4.191   9.688  0.1635 -0.0657 -0.5784
  314MOL0     O41340   6.319   4.090   9.760 -0.7434 -1.0115  1.0601
  314MOL0     C41341   6.355   4.138   9.888  0.5773  1.2019 -0.3278
  314MOL0     C41342   6.454   4.237   9.889 -0.2270  0.0544  0.6439
  314MOL0     C41343   6.502   4.292  10.007  1.0876  0.4471 -0.3553
  314MOL0     C41344   6.452   4.241  10.127 -0.4296 -0.6907 -0.6180
  314MOL0     C41345   6.495   4.308  10.255  0.3713  0.3103  0.6285
  314MOL0     O41346   6.572   4.422  10.231 -0.5386  0.0641  0.1158
  314MOL0     C41347   6.614   4.494  10.337  0.2025 -0.1271 -0.4369
  314MOL0     C41348   6.524   4.545  10.437 -0.0388 -0.7733  0.1706
  314MOL0     C41349   6.581   4.620  10.539 -0.9667  0.2473  0.2790
  314MOL0     C41350   6.720   4.630  10.563 -0.8833  0.7751 -0.1694
  314MOL0     O41351   6.741   4.698  10.682 -0.1502  0.1922  0.0324
  314MOL0     C41352   6.869   4.677  10.743  0.4885  0.1093  0.0408
  314MOL0     C41353   6.851   4.610  10.876 -0.1814 -0.0328  0.2865
  314MOL0     C41354   6.986   4.553  10.915 -0.3043  0.4904 -0.2686
  314MOL0     C41355   6.983   4.511  11.058 -0.1594  0.0387 -0.7135
  314MOL0     C41356   7.091   4.417  11.094  0.0081  0.9159 -0.1645
  314MOL0     C41357   7.220   4.487  11.115 -0.5351 -0.3515 -0.1987
  314MOL0     C41358   7.312   4.403  11.202  0.1408 -0.7926 -1.1957
  314MOL0     C41359   7.337   4.264  11.134  0.5713  0.3943 -0.0381
  314MOL0    Cl41360   7.396   4.280  10.966  0.1303 -0.1441  0.1147
  314MOL0     C41361   6.804   4.566  10.469  0.0662  0.6309 -0.3532
  314MOL0     C41362   6.744   4.510  10.353 -0.3877  0.4295  0.3537
  314MOL0     O41363   6.468   4.255  10.367 -0.2118  0.2277 -0.0650
  314MOL0     C41364   6.358   4.127  10.125 -0.0185  0.5539  0.3692
  314MOL0     C41365   6.304   4.083  10.004  0.0267 -0.3054  0.4124
  314MOL0     N41366   6.025   4.167   9.152  1.1234  0.7657 -0.0403
  314MOL0     N41367   5.976   4.244   9.066 -0.2006  0.8160 -0.5583
  314MOL0     C41368   6.518   4.005   8.281  0.4565  0.6788 -0.4089
  314MOL0     C41369   6.640   3.955   8.328  0.0989  0.4046 -0.4002
  314MOL0     C41370   7.008   3.938   8.602 -0.4014 -0.0629  0.5290
  314MOL0     C41371   7.031   3.797   8.593 -0.3600  0.8796 -0.1794
  314MOL0     C41372   7.156   3.740   8.645  0.3886  0.4803  0.1490
  314MOL0     C41373   7.252   3.823   8.708 -0.3675 -0.4550 -0.4602
  314MOL0     O41374   7.362   3.786   8.780 -0.1069 -0.4904 -0.3460
  314MOL0     C41375   7.405   3.654   8.785 -0.0954  0.5368  0.9272
  314MOL0     C41376   7.495   3.639   8.904  0.4003  1.0792  0.4212
  314MOL0     C41377   7.621   3.722   8.910 -0.5024  0.2118  0.1626
  314MOL0     C41378   7.680   3.716   9.050  0.1941 -0.7705 -0.9888
  314MOL0     C41379   7.811   3.789   9.046  1.1004 -0.5808 -0.3408
  314MOL0     C41380   7.921   3.851   9.052  0.4825 -0.1542 -0.2985
  314MOL0     C41381   7.223   3.963   8.709  0.6690 -0.3686 -0.3422
  314MOL0     C41382   7.111   4.015   8.656  0.6802 -0.2169  0.0516
  314MOL0     H41383   6.572   3.910   8.649  0.0905  0.5907  0.1741
  314MOL0     H41384   6.343   3.948   8.556 -0.8676 -4.4235 -0.2092
  314MOL0     H41385   6.158   4.179   8.264  0.5733  2.9584 -0.9704
  314MOL0     H41386   6.326   4.218   8.236 -1.3379 -0.0142 -1.0839
  314MOL0     H41387   6.256   4.355   8.412 -1.6962  1.2195  3.8872
  314MOL0     H41388   6.373   4.236   8.469 -0.4703  0.0859 -0.3542
  314MOL0     H41389   6.181   4.102   8.567  0.5379 -1.7540 -1.1291
  314MOL0     H41390   6.065   4.224   8.496  2.2328  1.6344 -2.4236
  314MOL0     H41391   6.111   4.236   8.739  0.6305  0.1428 -0.5963
  314MOL0     H41392   6.282   4.279   8.704 -1.4663  2.6123  4.7118
  314MOL0     H41393   6.022   4.434   8.649 -0.2875 -0.3898 -3.0267
  314MOL0     H41394   6.169   4.474   8.561 -3.8636 -0.2690 -1.5252
  314MOL0     H41395   6.162   4.628   8.760  0.5164  0.0662  1.2484
  314MOL0     H41396   6.306   4.532   8.737  0.5438 -0.1593  2.7480
  314MOL0     H41397   6.231   4.363   8.899 -1.5654 -1.2318 -2.0887
  314MOL0     H41398   6.233   4.525   8.982 -4.6034  2.9873  1.0043
  314MOL0     H41399   5.983   4.397   8.865  2.3071 -1.9891  0.0423
  314MOL0     H41400   6.005   4.533   8.984  1.3343  0.1656 -0.8477
  314MOL0     H41401   6.210   4.436   9.189 -0.3877  0.7931 -0.8570
  314MOL0     H41402   6.308   4.159   9.295  1.3467  0.8853  2.5361
  314MOL0     H41403   6.166   4.063   9.335  3.0761 -1.3915 -0.9822
  314MOL0     H41404   6.094   4.272   9.459  0.5129  1.1775  1.0500
  314MOL0     H41405   6.251   4.330   9.454  0.9206  0.0056  2.1509
  314MOL0     H41406   6.175   4.044   9.564 -0.7395  0.3579 -0.6616
  314MOL0     H41407   6.341   4.091   9.519  1.1805  2.0395 -2.0540
  314MOL0     H41408   6.159   4.213   9.737  0.4683 -0.6222  0.2946
  314MOL0     H41409   6.311   4.281   9.664 -0.9572  0.5164 -1.0756
  314MOL0     H41410   6.502   4.260   9.794 -1.2724 -1.6476 -0.3581
  314MOL0     H41411   6.568   4.377   9.998  0.4000  0.8857 -1.5072
  314MOL0     H41412   6.416   4.532  10.439 -0.1809 -0.0314 -1.4962
  314MOL0     H41413   6.526   4.667  10.619  1.5258 -0.6782  2.6734
  314MOL0     H41414   6.910   4.777  10.762  0.1488  0.2311  0.1361
  314MOL0     H41415   6.935   4.610  10.687 -2.2330 -1.1852 -1.8157
  314MOL0     H41416   6.768   4.539  10.877  0.3634 -0.6825 -0.3545
  314MOL0     H41417   6.810   4.694  10.934  0.2792  0.1218  0.3884
  314MOL0     H41418   7.062   4.627  10.891 -0.7349  0.5026 -1.6499
  314MOL0     H41419   6.999   4.469  10.845  0.7339  0.6809 -0.3223
  314MOL0     H41420   6.981   4.598  11.124 -3.1214 -1.2416  1.0846
  314MOL0     H41421   6.888   4.458  11.070 -0.0656 -0.8279 -3.2176
  314MOL0     H41422   7.113   4.343  11.016  0.0704  0.8032 -0.0408
  314MOL0     H41423   7.062   4.358  11.182  1.8953 -2.6877 -1.7110
  314MOL0     H41424   7.209   4.585  11.163  3.2508  0.0670  0.0936
  314MOL0     H41425   7.247   4.509  11.011 -2.5094  1.1727 -0.4634
  314MOL0     H41426   7.401   4.465  11.203 -1.2089  1.2526  0.5452
  314MOL0     H41427   7.292   4.384  11.307  2.7978 -1.3905 -0.7264
  314MOL0     H41428   7.251   4.196  11.131  1.5893 -0.9236  0.0115
  314MOL0     H41429   7.414   4.212  11.191 -0.3857 -0.6751  0.3143
  314MOL0     H41430   6.911   4.582  10.467  0.4221 -1.2114  1.0685
  314MOL0     H41431   6.809   4.456  10.286  0.2544  1.6731 -0.0641
  314MOL0     H41432   6.317   4.089  10.218  2.0804 -1.0812  0.6770
  314MOL0     H41433   6.242   3.994   9.995  2.3884 -2.0276  0.0716
  314MOL0     H41434   6.495   4.032   8.179 -2.6379  1.6292  0.4315
  314MOL0     H41435   6.721   3.934   8.259  0.5566  0.6282  0.0651
  314MOL0     H41436   6.957   3.725   8.558  1.4450 -2.3705  2.1546
  314MOL0     H41437   7.162   3.632   8.644  1.4835  0.5281 -1.0384
  314MOL0     H41438   7.448   3.622   8.690 -0.1102 -0.1823  1.1582
  314MOL0     H41439   7.323   3.584   8.803  2.0404 -2.8802 -1.5536
  314MOL0     H41440   7.428   3.645   8.990  1.4802 -0.9182  1.4907
  314MOL0     H41441   7.533   3.536   8.906 -0.2062  0.7843 -1.4363
  314MOL0     H41442   7.587   3.825   8.891 -0.5216  0.0142 -1.0039
  314MOL0     H41443   7.694   3.709   8.829  3.0175  1.0951  2.9312
  314MOL0     H41444   7.615   3.763   9.123 -1.6356 -1.0671 -2.3551
  314MOL0     H41445   7.691   3.614   9.088 -1.2304 -0.6314 -0.1328
  314MOL0     H41446   7.989   3.934   9.049 -1.6196  1.6329 -0.3002
  314MOL0     H41447   7.286   4.036   8.759  0.5708 -0.4588 -0.0850
  314MOL0     H41448   7.108   4.123   8.650  1.2819 -0.1886  0.1675
  315MOL0     O41449   6.345   0.979   1.508  0.4112 -0.3030  0.2302
  315MOL0     C41450   6.417   0.937   1.602  0.3782 -0.1464  0.1754
  315MOL0     O41451   6.370   0.909   1.727 -0.6908  0.3032  0.5802
  315MOL0     C41452   6.237   0.895   1.752  0.3220  0.1383  0.1592
  315MOL0     C41453   6.159   1.010   1.775 -0.0371  0.0558  0.0483
  315MOL0     C41454   6.022   0.995   1.795 -0.2907 -1.0188 -0.4614
  315MOL0     C41455   5.966   0.866   1.807 -0.4019  0.5104  0.0867
  315MOL0     O41456   5.833   0.841   1.836  0.4050 -0.3702 -0.5637
  315MOL0     C41457   5.797   0.880   1.964 -0.2068 -0.1254 -0.1733
  315MOL0     C41458   5.658   0.816   1.990  0.3692 -0.1217 -0.6874
  315MOL0     C41459   5.670   0.660   1.982  0.4098  0.3243 -0.2785
  315MOL0     C41460   5.545   0.581   2.035 -0.4670  0.0475 -1.0613
  315MOL0     C41461   5.427   0.594   1.944 -0.3098 -0.1781  1.0069
  315MOL0     C41462   5.302   0.520   1.999  0.6696  1.0191  0.4145
  315MOL0     C41463   5.225   0.607   2.110 -0.1920  0.7403 -0.2989
  315MOL0     C41464   5.108   0.684   2.057  0.7763  0.2298  0.1236
  315MOL0     N41465   4.993   0.596   2.017  0.4606 -0.2650 -0.0754
  315MOL0     C41466   4.887   0.568   2.107 -0.0040 -0.2312  0.6215
  315MOL0     C41467   4.796   0.498   2.022 -0.3508 -0.0680 -0.3104
  315MOL0     C41468   4.665   0.434   2.068  0.0330 -0.3114 -1.2218
  315MOL0     C41469   4.682   0.288   2.127  0.2549  0.1291 -0.2502
  315MOL0     C41470   4.584   0.194   2.066 -0.0365  0.1477 -0.7596
  315MOL0     C41471   4.455   0.187   2.136  0.5112 -0.1517  0.3897
  315MOL0     O41472   4.471   0.131   2.263 -0.3878  0.0708  0.3797
  315MOL0     C41473   4.374   0.042   2.314 -0.4752  0.2955 -0.0084
  315MOL0     C41474   4.237   0.068   2.304  0.2495 -0.0696  0.1749
  315MOL0     C41475   4.149  -0.013   2.384  0.0595  0.6221  0.8505
  315MOL0     C41476   4.199  -0.124   2.444  0.2301  0.5824 -0.2449
  315MOL0     C41477   4.101  -0.218   2.511  0.9860 -0.0612  0.9242
  315MOL0     O41478   3.971  -0.176   2.511 -0.2191 -1.0250  0.0126
  315MOL0     C41479   3.868  -0.232   2.581  0.5281 -0.6432 -0.5321
  315MOL0     C41480   3.865  -0.324   2.686  0.4244 -0.5653  0.3137
  315MOL0     C41481   3.745  -0.386   2.731 -0.0594  0.6671  0.3789
  315MOL0     C41482   3.627  -0.365   2.667  0.7396  0.2585 -0.2038
  315MOL0     O41483   3.505  -0.426   2.698  0.1769 -0.5382 -0.3024
  315MOL0     C41484   3.507  -0.561   2.736 -0.0759  0.2361 -0.4380
  315MOL0     C41485   3.369  -0.611   2.767 -0.5700  0.5220 -0.7358
  315MOL0     C41486   3.273  -0.605   2.645 -1.0118 -0.1149  0.5756
  315MOL0     C41487   3.133  -0.655   2.694 -0.2811 -0.7900  0.3489
  315MOL0     C41488   3.045  -0.691   2.572  0.5059 -0.3792 -0.5527
  315MOL0     C41489   2.902  -0.728   2.632 -0.0822  0.0135  0.0441
  315MOL0     C41490   2.804  -0.751   2.521 -0.4941 -0.9050  0.1317
  315MOL0     C41491   2.683  -0.822   2.572  0.2407  0.4875 -0.3007
  315MOL0    Cl41492   2.607  -0.883   2.425 -0.3184  0.0848 -0.1561
  315MOL0     C41493   3.625  -0.270   2.575 -0.3749 -0.2523  0.6022
  315MOL0     C41494   3.746  -0.205   2.522  0.7099  0.6191 -0.4829
  315MOL0     O41495   4.140  -0.326   2.561  0.2944 -0.6000  0.2780
  315MOL0     C41496   4.333  -0.157   2.441 -0.5764  0.2209 -0.6850
  315MOL0     C41497   4.428  -0.065   2.384 -0.1440  0.1713 -0.5625
  315MOL0     N41498   4.858   0.490   1.896  0.4235  0.5388 -0.1167
  315MOL0     N41499   4.973   0.537   1.897 -0.2290 -0.1168  0.0045
  315MOL0     C41500   6.047   0.754   1.804 -0.2311  0.7817  0.6745
  315MOL0     C41501   6.174   0.772   1.749  0.4041 -0.0273 -0.8014
  315MOL0     C41502   6.557   0.940   1.580  0.3822 -0.2548 -0.6919
  315MOL0     C41503   6.615   0.994   1.462  0.4543  0.1831  0.0755
  315MOL0     C41504   6.742   0.965   1.434  0.4965 -0.1457 -0.5592
  315MOL0     C41505   6.830   0.902   1.518 -0.4344 -1.1610  0.1086
  315MOL0     O41506   6.964   0.873   1.485 -0.3725 -0.4437 -0.2994
  315MOL0     C41507   6.994   0.836   1.350  0.1904 -0.5614  1.6137
  315MOL0     C41508   7.142   0.805   1.339 -0.0296  0.1527  0.7651
  315MOL0     C41509   7.171   0.732   1.213 -0.0353 -0.2996  0.4937
  315MOL0     C41510   7.292   0.630   1.230  0.5237  0.4775  1.0410
  315MOL0     C41511   7.416   0.704   1.225  0.2298  0.1263  0.0224
  315MOL0     C41512   7.524   0.761   1.213 -0.4487 -0.1352 -1.6328
  315MOL0     C41513   6.783   0.863   1.639  0.0637  0.6769 -0.1738
  315MOL0     C41514   6.644   0.876   1.667  0.3097 -0.2222  0.2388
  315MOL0     H41515   6.219   1.098   1.796  1.2023 -1.4225  3.2667
  315MOL0     H41516   5.965   1.082   1.825  4.0874  1.9035  0.3597
  315MOL0     H41517   5.806   0.989   1.957 -0.9182 -0.0914 -0.6223
  315MOL0     H41518   5.881   0.855   2.029 -0.5213  0.6345  0.5520
  315MOL0     H41519   5.587   0.868   1.925 -1.3258  0.9109  1.8333
  315MOL0     H41520   5.624   0.833   2.093 -1.2596 -1.3828 -0.9710
  315MOL0     H41521   5.752   0.630   2.048  0.0150 -1.4544 -0.5525
  315MOL0     H41522   5.701   0.623   1.885  0.5545  1.0505 -0.5169
  315MOL0     H41523   5.569   0.477   2.057 -2.0361 -0.1245  0.0006
  315MOL0     H41524   5.522   0.624   2.133  0.8230  1.6039 -1.3847
  315MOL0     H41525   5.450   0.553   1.845 -2.1100 -0.1218  0.5451
  315MOL0     H41526   5.411   0.700   1.925  2.2318 -0.1410 -1.5688
  315MOL0     H41527   5.328   0.423   2.041 -3.0246  0.3809  1.5883
  315MOL0     H41528   5.222   0.496   1.928  1.1185  0.2209  0.1698
  315MOL0     H41529   5.208   0.535   2.191 -0.6312  1.5187  0.3201
  315MOL0     H41530   5.292   0.680   2.158  0.4101  0.5457 -0.8233
  315MOL0     H41531   5.142   0.740   1.970 -1.9616  1.0920 -0.4935
  315MOL0     H41532   5.069   0.757   2.128  0.7382 -0.3908  0.7508
  315MOL0     H41533   4.878   0.590   2.213 -2.0855  2.6191 -0.0176
  315MOL0     H41534   4.602   0.429   1.979 -1.1680  1.0412 -0.4778
  315MOL0     H41535   4.609   0.492   2.142  0.8462 -3.2566  1.9582
  315MOL0     H41536   4.682   0.276   2.236  0.0852 -0.4429 -0.3074
  315MOL0     H41537   4.775   0.246   2.086  1.9254  0.5950  2.7239
  315MOL0     H41538   4.564   0.228   1.964  0.3334  2.2800 -0.1718
  315MOL0     H41539   4.611   0.088   2.065 -2.3116 -0.4958 -1.1721
  315MOL0     H41540   4.382   0.127   2.080  0.4550  1.0747 -0.9085
  315MOL0     H41541   4.408   0.285   2.143 -0.6431 -0.5801 -0.9101
  315MOL0     H41542   4.196   0.150   2.245 -0.3013 -0.2910  0.2381
  315MOL0     H41543   4.042  -0.006   2.364  0.3326 -2.0098 -2.5829
  315MOL0     H41544   3.964  -0.339   2.728  0.5241 -2.8331 -0.6013
  315MOL0     H41545   3.748  -0.467   2.804  1.7089 -1.2668 -1.6887
  315MOL0     H41546   3.568  -0.574   2.826 -0.8637 -3.6080 -0.2933
  315MOL0     H41547   3.552  -0.627   2.662 -0.4602 -1.0582  0.4412
  315MOL0     H41548   3.329  -0.552   2.851 -0.4759 -3.6461  2.6181
  315MOL0     H41549   3.380  -0.714   2.804 -0.2884  0.5972 -0.6054
  315MOL0     H41550   3.322  -0.675   2.577 -0.8254 -0.4394  1.0380
  315MOL0     H41551   3.280  -0.510   2.591 -0.2650 -0.5066 -0.0321
  315MOL0     H41552   3.150  -0.741   2.760 -1.3830  0.2546  2.0380
  315MOL0     H41553   3.081  -0.576   2.748 -1.4966 -2.4568  1.7081
  315MOL0     H41554   3.082  -0.772   2.508  0.1117  0.6010 -2.0634
  315MOL0     H41555   3.025  -0.601   2.513 -1.7142 -0.4035  0.0572
  315MOL0     H41556   2.874  -0.648   2.702  1.9255 -0.6142  1.6543
  315MOL0     H41557   2.906  -0.821   2.689 -1.9403 -0.3897 -0.4194
  315MOL0     H41558   2.778  -0.650   2.488 -0.8637 -1.5836 -1.7872
  315MOL0     H41559   2.859  -0.810   2.447 -0.6662 -1.4718  0.4482
  315MOL0     H41560   2.616  -0.756   2.628  1.4332  1.6479 -0.1856
  315MOL0     H41561   2.706  -0.901   2.644 -1.6245  0.5997  0.4854
  315MOL0     H41562   3.532  -0.244   2.525  1.0111 -0.1754 -2.1489
  315MOL0     H41563   3.739  -0.139   2.436  4.2215  0.3332 -1.1335
  315MOL0     H41564   4.363  -0.246   2.495  1.9030  1.2900 -0.1920
  315MOL0     H41565   4.534  -0.083   2.399 -0.3139 -0.7288 -0.3682
  315MOL0     H41566   6.010   0.653   1.815  1.7765 -0.3475 -1.8836
  315MOL0     H41567   6.222   0.675   1.737  0.9280  0.1498 -0.2080
  315MOL0     H41568   6.551   1.052   1.396  0.2741 -0.1537 -0.0489
  315MOL0     H41569   6.778   1.008   1.341 -1.6175  1.4375 -0.7246
  315MOL0     H41570   6.981   0.922   1.284 -0.2744 -0.8738  1.2950
  315MOL0     H41571   6.934   0.750   1.318  2.0495 -0.9829 -1.0878
  315MOL0     H41572   7.189   0.904   1.348 -1.5105  1.1608 -1.5533
  315MOL0     H41573   7.166   0.743   1.426  1.2786  0.6985  0.8233
  315MOL0     H41574   7.184   0.808   1.135 -0.3649 -1.0296 -0.2923
  315MOL0     H41575   7.087   0.668   1.184  0.2801 -0.9722  1.0518
  315MOL0     H41576   7.284   0.581   1.328 -1.0119 -3.1702 -0.7684
  315MOL0     H41577   7.281   0.557   1.150 -1.4535  1.2878  0.5300
  315MOL0     H41578   7.618   0.813   1.213 -1.6834  2.7445  3.2008
  315MOL0     H41579   6.841   0.811   1.715 -2.2519  0.9114  1.8745
  315MOL0     H41580   6.616   0.820   1.756 -1.5512  0.6226  0.2472
  316MOL0     O41581   1.301   4.124   4.826  0.4669 -0.3438  0.2078
  316MOL0     C41582   1.359   4.208   4.761  0.7460 -0.3761  0.7093
  316MOL0     O41583   1.335   4.341   4.765  0.0494  0.0306 -0.1364
  316MOL0     C41584   1.238   4.391   4.850 -0.2858  0.1898  0.3250
  316MOL0     C41585   1.268   4.414   4.984 -0.0199 -0.7102 -0.6151
  316MOL0     C41586   1.167   4.440   5.083 -0.1848  0.1589 -0.2150
  316MOL0     C41587   1.042   4.463   5.039  0.2053  0.0281  0.5325
  316MOL0     O41588   0.954   4.516   5.126 -0.6116  0.6259  0.4359
  316MOL0     C41589   0.824   4.451   5.131  0.1526 -0.0679  0.4107
  316MOL0     C41590   0.713   4.529   5.064  0.3351  0.3535 -0.5214
  316MOL0     C41591   0.581   4.452   5.076 -0.0816  0.1528  0.6481
  316MOL0     C41592   0.487   4.516   4.968 -0.1639 -0.5873 -0.2194
  316MOL0     C41593   0.347   4.474   4.993 -0.1519  0.1321 -0.1790
  316MOL0     C41594   0.263   4.539   4.886  0.1927 -1.0514  0.1869
  316MOL0     C41595   0.120   4.523   4.921  0.4928 -0.2914 -0.1674
  316MOL0     C41596   0.027   4.545   4.800  0.5049 -0.2107 -0.1772
  316MOL0     N41597  -0.117   4.540   4.836 -0.2235  0.6724 -0.5106
  316MOL0     C41598  -0.221   4.475   4.774  0.6465  0.0253 -0.3501
  316MOL0     C41599  -0.336   4.522   4.845  0.2154  0.4169  0.0506
  316MOL0     C41600  -0.481   4.491   4.825  0.4979 -0.0508 -0.4897
  316MOL0     C41601  -0.573   4.541   4.926 -0.1090  0.0181  0.4286
  316MOL0     C41602  -0.712   4.526   4.864 -0.1378 -0.6125  0.1347
  316MOL0     C41603  -0.823   4.549   4.970 -0.8107 -0.0327  0.0353
  316MOL0     O41604  -0.944   4.557   4.885 -0.3643 -0.3879  0.2007
  316MOL0     C41605  -1.062   4.587   4.944  0.0155 -0.9603 -0.8875
  316MOL0     C41606  -1.092   4.583   5.080  0.2927  0.1587 -0.3051
  316MOL0     C41607  -1.217   4.604   5.121  0.5231  0.0300  0.2053
  316MOL0     C41608  -1.321   4.635   5.036 -0.4353 -0.2120 -0.1558
  316MOL0     C41609  -1.458   4.641   5.085  0.1283 -0.2656 -0.6121
  316MOL0     O41610  -1.475   4.648   5.220  0.0003  0.2596 -0.0998
  316MOL0     C41611  -1.605   4.679   5.269 -0.7612  0.9365 -0.1567
  316MOL0     C41612  -1.655   4.808   5.258 -0.0749 -0.1890 -0.6544
  316MOL0     C41613  -1.788   4.825   5.305  0.5839 -0.5286  0.7327
  316MOL0     C41614  -1.868   4.716   5.339 -0.0745  0.5708  0.9022
  316MOL0     O41615  -1.997   4.750   5.364 -0.1868 -0.5730 -0.1968
  316MOL0     C41616  -2.069   4.662   5.458 -0.8828 -0.0082  0.4629
  316MOL0     C41617  -2.215   4.710   5.459 -0.6358  0.5973 -0.0723
  316MOL0     C41618  -2.231   4.856   5.516 -0.8432  0.0623  0.2317
  316MOL0     C41619  -2.374   4.902   5.503 -0.9891  0.1929  0.8442
  316MOL0     C41620  -2.393   5.013   5.595  0.1995 -0.0516  0.4129
  316MOL0     C41621  -2.539   5.071   5.604 -0.2339  0.0752  0.4868
  316MOL0     C41622  -2.566   5.134   5.464  0.0735  0.5322 -0.1614
  316MOL0     C41623  -2.704   5.208   5.472  0.2391 -0.8049 -0.4832
  316MOL0    Cl41624  -2.689   5.354   5.583  0.3320 -0.1028  0.4165
  316MOL0     C41625  -1.815   4.587   5.344  0.2566  0.6116  0.0906
  316MOL0     C41626  -1.684   4.572   5.304 -0.9768  1.0396 -0.3175
  316MOL0     O41627  -1.542   4.651   4.994  0.9728  0.1340  0.3032
  316MOL0     C41628  -1.282   4.658   4.902 -0.1367  0.4390 -0.3397
  316MOL0     C41629  -1.154   4.636   4.851  0.0181 -0.8144  0.1582
  316MOL0     N41630  -0.291   4.588   4.954 -0.8449  0.2745 -0.7449
  316MOL0     N41631  -0.159   4.594   4.952 -0.0894 -0.2916  0.0456
  316MOL0     C41632   1.011   4.435   4.907  1.0358  0.2216 -0.1480
  316MOL0     C41633   1.108   4.394   4.816  0.5116 -0.4120  0.0111
  316MOL0     C41634   1.470   4.165   4.670  0.4175  0.1990  0.0044
  316MOL0     C41635   1.494   4.032   4.646  0.8230  0.8809  0.7708
  316MOL0     C41636   1.593   3.989   4.561  0.3160  0.2049  0.1672
  316MOL0     C41637   1.656   4.082   4.474  0.0091  1.2641 -0.2520
  316MOL0     O41638   1.750   4.034   4.389 -0.1246  1.0588  0.4176
  316MOL0     C41639   1.841   4.123   4.322  0.1058  1.0588  0.6009
  316MOL0     C41640   1.953   4.050   4.258  0.0831  0.7144  0.3539
  316MOL0     C41641   1.905   3.993   4.125  0.1375 -0.1303  0.0363
  316MOL0     C41642   2.012   3.916   4.044 -0.3044 -0.8295  0.0390
  316MOL0     C41643   1.943   3.855   3.931  0.0011 -0.6548  0.2242
  316MOL0     C41644   1.873   3.814   3.843  0.4062 -0.1228  0.3856
  316MOL0     C41645   1.627   4.221   4.488 -0.5520 -0.3418  0.2932
  316MOL0     C41646   1.534   4.258   4.590  0.9885  0.9398 -0.1677
  316MOL0     H41647   1.367   4.401   5.026  0.5221  5.1236  0.7023
  316MOL0     H41648   1.205   4.467   5.182  0.0879 -1.7343  0.2235
  316MOL0     H41649   0.813   4.451   5.240  1.6602 -0.5622  0.5919
  316MOL0     H41650   0.826   4.348   5.094 -0.6135 -1.3327  3.5442
  316MOL0     H41651   0.733   4.545   4.958 -3.3001  2.9676 -1.0010
  316MOL0     H41652   0.694   4.625   5.114 -2.9659  0.6798 -2.1390
  316MOL0     H41653   0.536   4.464   5.175 -1.2369  1.3879  0.0036
  316MOL0     H41654   0.584   4.348   5.042 -0.0437  0.8966 -1.8181
  316MOL0     H41655   0.494   4.619   5.004  3.0065 -1.2900  1.6263
  316MOL0     H41656   0.524   4.503   4.866  1.6277  0.3303  0.2554
  316MOL0     H41657   0.311   4.503   5.092 -1.9480  0.2107 -0.8167
  316MOL0     H41658   0.341   4.365   4.986  1.6363 -0.0522  0.6603
  316MOL0     H41659   0.289   4.494   4.790 -1.7761  1.4996 -1.6564
  316MOL0     H41660   0.282   4.647   4.887 -3.1798 -0.3690  0.7235
  316MOL0     H41661   0.094   4.423   4.959  0.4716 -0.2527 -0.0786
  316MOL0     H41662   0.096   4.601   4.994  0.2298 -0.3812 -0.1545
  316MOL0     H41663   0.040   4.469   4.722 -1.8165 -1.1040  0.2165
  316MOL0     H41664   0.033   4.647   4.759 -3.3806 -0.1121 -0.9505
  316MOL0     H41665  -0.217   4.431   4.675  0.7529 -0.6999 -0.0307
  316MOL0     H41666  -0.496   4.384   4.813  0.2757 -0.5522  3.2092
  316MOL0     H41667  -0.511   4.548   4.736 -3.3308  2.8812  2.3380
  316MOL0     H41668  -0.544   4.640   4.960 -1.2179  0.1249  1.1208
  316MOL0     H41669  -0.567   4.472   5.011 -1.5079  1.3704  1.6912
  316MOL0     H41670  -0.734   4.602   4.788  0.1217 -2.2218 -1.6151
  316MOL0     H41671  -0.709   4.425   4.821  2.6631 -0.1758 -0.9567
  316MOL0     H41672  -0.820   4.639   5.032 -2.5876 -0.2522  0.4915
  316MOL0     H41673  -0.837   4.466   5.040  0.5405  0.3635  0.8374
  316MOL0     H41674  -1.018   4.534   5.144 -0.2862  0.3335  0.5215
  316MOL0     H41675  -1.246   4.566   5.218 -3.3858  1.5580 -0.1756
  316MOL0     H41676  -1.609   4.894   5.210  2.8501 -1.3586 -0.1455
  316MOL0     H41677  -1.827   4.926   5.309 -3.9841 -1.8949 -1.8864
  316MOL0     H41678  -2.014   4.671   5.553  1.6140  1.1755 -0.9908
  316MOL0     H41679  -2.072   4.559   5.422 -1.6044 -0.4839  1.7924
  316MOL0     H41680  -2.269   4.634   5.517 -0.7280 -0.2440 -1.2394
  316MOL0     H41681  -2.258   4.691   5.361  0.4762 -1.0891 -0.2922
  316MOL0     H41682  -2.165   4.918   5.454 -2.5003  0.9982 -0.6979
  316MOL0     H41683  -2.189   4.864   5.616  0.2225  0.3748 -0.2185
  316MOL0     H41684  -2.387   4.948   5.405  3.6089 -1.2011 -0.6497
  316MOL0     H41685  -2.448   4.824   5.520 -0.8062 -0.3684 -0.7723
  316MOL0     H41686  -2.326   5.095   5.568  0.3318 -0.9731 -2.4225
  316MOL0     H41687  -2.362   4.979   5.694 -0.7198 -2.2336  0.0215
  316MOL0     H41688  -2.536   5.152   5.677 -0.4426  0.3108  0.2378
  316MOL0     H41689  -2.620   5.003   5.634 -2.1485  2.1830  0.3678
  316MOL0     H41690  -2.481   5.179   5.413  1.7115 -1.7143  0.4625
  316MOL0     H41691  -2.598   5.049   5.402 -2.7945  1.4184 -0.0498
  316MOL0     H41692  -2.783   5.137   5.499  1.3129 -1.3049  1.6062
  316MOL0     H41693  -2.728   5.238   5.370  1.4507 -1.8522 -1.1127
  316MOL0     H41694  -1.877   4.501   5.365  0.5170  0.1986 -0.7923
  316MOL0     H41695  -1.645   4.471   5.304 -0.3963  1.1818 -3.0897
  316MOL0     H41696  -1.363   4.670   4.831  0.2111 -0.1836 -0.8510
  316MOL0     H41697  -1.126   4.643   4.747  3.2039 -0.7517  0.9205
  316MOL0     H41698   0.907   4.449   4.878 -0.0549 -2.0068  2.2223
  316MOL0     H41699   1.086   4.373   4.712  1.7888 -1.0030 -0.1719
  316MOL0     H41700   1.436   3.958   4.701 -0.1815  1.1148  0.0429
  316MOL0     H41701   1.619   3.886   4.542 -0.8437  0.2329 -1.8731
  316MOL0     H41702   1.887   4.192   4.393  0.2301  1.8455 -0.2322
  316MOL0     H41703   1.793   4.184   4.245  1.3701  2.7244  1.0680
  316MOL0     H41704   2.033   4.122   4.236  0.4975 -0.6468 -3.1326
  316MOL0     H41705   1.982   3.957   4.308  2.7144  1.6761  0.8182
  316MOL0     H41706   1.869   4.072   4.058  0.0136  1.1090  1.5033
  316MOL0     H41707   1.807   3.946   4.128 -0.0509  0.2320 -0.3147
  316MOL0     H41708   2.097   3.975   4.009  1.4920 -3.3128  0.0220
  316MOL0     H41709   2.050   3.837   4.108 -0.5106 -0.4457  0.6474
  316MOL0     H41710   1.809   3.796   3.759 -2.4907 -1.0951  2.6188
  316MOL0     H41711   1.666   4.304   4.430 -3.1732  1.2192  0.6074
  316MOL0     H41712   1.502   4.361   4.597 -1.0490  0.3446 -0.0688
  317MOL0     O41713  10.190   9.321  10.222  0.3255  0.1479  1.1450
  317MOL0     C41714  10.199   9.206  10.273 -0.0219 -0.2164  0.6241
  317MOL0     O41715  10.105   9.136  10.343 -0.4156 -0.9612  0.7576
  317MOL0     C41716   9.990   9.198  10.362  0.5459 -0.8022 -0.1356
  317MOL0     C41717   9.979   9.287  10.470  0.1943  0.0766  0.6536
  317MOL0     C41718   9.871   9.377  10.484 -0.1794  0.6758 -0.0686
  317MOL0     C41719   9.751   9.344  10.415  0.4011 -0.6117 -0.3190
  317MOL0     O41720   9.644   9.422  10.452 -0.1645 -0.1288  0.6039
  317MOL0     C41721   9.517   9.358  10.436 -0.0546 -0.4026 -0.7096
  317MOL0     C41722   9.445   9.429  10.316  0.7081  0.9184  0.0360
  317MOL0     C41723   9.311   9.364  10.287  0.3889 -0.3591 -0.7415
  317MOL0     C41724   9.259   9.384  10.144  0.3090  0.5589  0.3838
  317MOL0     C41725   9.114   9.328  10.113 -0.3233  0.4774 -1.1533
  317MOL0     C41726   9.006   9.397  10.199  0.2581  0.2724 -0.1721
  317MOL0     C41727   8.861   9.354  10.158 -0.1677  0.4095 -0.1560
  317MOL0     C41728   8.834   9.202  10.118  0.5243 -0.2605  0.5091
  317MOL0     N41729   8.680   9.182  10.110 -0.7626 -0.6910 -0.1961
  317MOL0     C41730   8.587   9.276  10.072  0.0809 -0.7189  0.1477
  317MOL0     C41731   8.471   9.218  10.107 -0.5243 -0.5148  0.7487
  317MOL0     C41732   8.334   9.280  10.103  0.1037  0.1678  0.7686
  317MOL0     C41733   8.304   9.345  10.236  0.8680 -0.1526  0.1541
  317MOL0     C41734   8.248   9.252  10.344 -0.0402  0.4917 -0.3978
  317MOL0     C41735   8.216   9.351  10.464  0.0009  0.5417  0.8029
  317MOL0     O41736   8.090   9.420  10.444  0.3945  0.3850  0.2803
  317MOL0     C41737   7.971   9.360  10.468  0.0448 -0.2082  0.0698
  317MOL0     C41738   7.850   9.423  10.423 -1.0738  0.3131 -0.2773
  317MOL0     C41739   7.725   9.369  10.448  0.4113  0.9919 -0.6800
  317MOL0     C41740   7.712   9.241  10.496 -0.4037  0.2174 -0.3817
  317MOL0     C41741   7.585   9.180  10.523  0.8167 -0.2863 -0.8845
  317MOL0     O41742   7.596   9.052  10.566 -0.2262  0.0743  0.5315
  317MOL0     C41743   7.479   8.979  10.581 -0.2554  0.8354 -0.0401
  317MOL0     C41744   7.361   8.981  10.494 -0.0400 -0.0568 -0.0693
  317MOL0     C41745   7.251   8.893  10.512 -0.5945 -1.1961  0.2905
  317MOL0     C41746   7.248   8.810  10.624 -0.4729 -0.0673  0.5558
  317MOL0     O41747   7.152   8.712  10.623  0.6463 -0.0211 -0.7177
  317MOL0     C41748   7.019   8.749  10.660  0.6397 -0.1933 -0.8809
  317MOL0     C41749   6.913   8.645  10.613 -0.1992 -0.5331 -0.0589
  317MOL0     C41750   6.767   8.718  10.595 -0.3691  0.8217 -0.6640
  317MOL0     C41751   6.664   8.603  10.586  0.0991 -0.1345  0.1089
  317MOL0     C41752   6.525   8.673  10.550  0.8927  0.6142 -0.9995
  317MOL0     C41753   6.402   8.568  10.544 -0.1086 -0.5124 -0.0675
  317MOL0     C41754   6.378   8.508  10.405 -0.5384  0.1277  0.0828
  317MOL0     C41755   6.320   8.371  10.420  0.0911 -0.2065 -0.1379
  317MOL0    Cl41756   6.175   8.379  10.516 -0.0362 -0.0019  0.4730
  317MOL0     C41757   7.362   8.796  10.705 -0.4514 -1.0086 -0.4003
  317MOL0     C41758   7.471   8.881  10.684 -0.0348 -0.2591 -0.8750
  317MOL0     O41759   7.486   9.250  10.528 -0.0520  0.5323  0.4634
  317MOL0     C41760   7.831   9.167  10.526  0.1520 -0.5952  0.5017
  317MOL0     C41761   7.957   9.233  10.523 -0.1039 -0.5450 -0.0494
  317MOL0     N41762   8.494   9.089  10.140  0.6330  0.0047  0.0003
  317MOL0     N41763   8.622   9.065  10.142  0.0159 -0.4171  0.2969
  317MOL0     C41764   9.754   9.250  10.308 -1.1154 -0.3917  0.1887
  317MOL0     C41765   9.881   9.185  10.281 -0.0664 -0.1179  0.2629
  317MOL0     C41766  10.327   9.136  10.251  0.7024 -0.0349  0.4453
  317MOL0     C41767  10.330   8.996  10.258 -0.5785  0.7289  0.4046
  317MOL0     C41768  10.450   8.929  10.222  0.5997 -0.8974  0.1450
  317MOL0     C41769  10.566   8.994  10.191  0.0231  0.2727  0.6337
  317MOL0     O41770  10.682   8.918  10.185  0.2992 -1.0740  0.5990
  317MOL0     C41771  10.721   8.858  10.302  0.4354  0.3490  0.8780
  317MOL0     C41772  10.854   8.792  10.262  1.2019  0.3221  0.0421
  317MOL0     C41773  10.897   8.702  10.373  0.2887 -0.5690 -0.2096
  317MOL0     C41774  11.008   8.613  10.342  0.8132  0.2588  0.3471
  317MOL0     C41775  11.065   8.541  10.465  0.6014 -0.4733  0.5749
  317MOL0     C41776  11.123   8.466  10.536 -0.5941 -0.8729 -0.0422
  317MOL0     C41777  10.567   9.131  10.194 -1.0072 -0.1052 -0.0657
  317MOL0     C41778  10.450   9.206  10.222  0.2505 -0.2632  0.2463
  317MOL0     H41779  10.067   9.295  10.534  0.2120 -1.0807  0.7828
  317MOL0     H41780   9.872   9.460  10.553  0.2079 -1.0522  2.1055
  317MOL0     H41781   9.457   9.380  10.524  0.4690  0.2945 -0.5211
  317MOL0     H41782   9.530   9.249  10.433  0.4093 -0.3316 -1.8682
  317MOL0     H41783   9.505   9.421  10.225 -1.7180  1.7417 -1.7395
  317MOL0     H41784   9.433   9.537  10.331  0.3961  1.0297 -0.9493
  317MOL0     H41785   9.240   9.403  10.360 -0.6741  0.2708 -2.0789
  317MOL0     H41786   9.317   9.256  10.303 -0.2105 -0.3896 -0.7104
  317MOL0     H41787   9.258   9.492  10.125 -1.7876  0.3510 -1.0684
  317MOL0     H41788   9.333   9.341  10.076  1.0844 -0.4928  1.8414
  317MOL0     H41789   9.114   9.220  10.133 -1.9008  0.7050  0.2923
  317MOL0     H41790   9.090   9.351  10.009 -0.3238  0.3659 -1.1778
  317MOL0     H41791   9.009   9.505  10.180  0.9151  0.2853  0.0008
  317MOL0     H41792   9.032   9.372  10.302  1.3002  1.0829 -0.2220
  317MOL0     H41793   8.787   9.375  10.236 -1.0175  1.9242 -1.2925
  317MOL0     H41794   8.833   9.422  10.076 -0.4225  0.4003 -0.0766
  317MOL0     H41795   8.883   9.133  10.187  1.8817  2.4952  2.5105
  317MOL0     H41796   8.884   9.185  10.022  0.5855 -1.2802  0.7094
  317MOL0     H41797   8.592   9.376  10.031 -0.7091 -0.9027 -0.4209
  317MOL0     H41798   8.257   9.204  10.089  1.3223 -1.1722  1.2138
  317MOL0     H41799   8.332   9.352  10.020 -2.1342 -1.5012 -0.7219
  317MOL0     H41800   8.229   9.421  10.211  1.4218  1.2811  2.5380
  317MOL0     H41801   8.393   9.394  10.276 -0.3978  2.2352  0.2163
  317MOL0     H41802   8.157   9.201  10.312 -1.4965  2.1665  0.9081
  317MOL0     H41803   8.321   9.178  10.377 -2.7005 -2.5947 -0.9595
  317MOL0     H41804   8.300   9.420  10.476 -0.9278  1.9546 -0.4795
  317MOL0     H41805   8.222   9.279  10.546  3.5289 -1.4146 -0.9261
  317MOL0     H41806   7.840   9.524  10.387 -0.9401  1.0544  1.6580
  317MOL0     H41807   7.645   9.438  10.424 -1.0160  0.5667  2.4086
  317MOL0     H41808   7.360   9.044  10.405 -1.0844 -0.4860 -0.3653
  317MOL0     H41809   7.162   8.901  10.451  0.4732  0.6086 -1.1664
  317MOL0     H41810   6.996   8.851  10.627 -0.9268 -0.5489 -0.9273
  317MOL0     H41811   7.015   8.758  10.769 -0.0262  0.6846 -0.9664
  317MOL0     H41812   6.919   8.555  10.674  2.8920 -0.7421 -0.4920
  317MOL0     H41813   6.945   8.609  10.515  0.0158 -1.7056  0.4248
  317MOL0     H41814   6.778   8.761  10.495  2.6208  0.4520 -0.6099
  317MOL0     H41815   6.752   8.786  10.679 -1.0913  1.3974 -1.2436
  317MOL0     H41816   6.689   8.520  10.520  0.5304 -0.3358  0.5254
  317MOL0     H41817   6.646   8.554  10.682 -0.2391 -0.7797 -0.2811
  317MOL0     H41818   6.531   8.727  10.455 -0.8774  2.1037 -0.3292
  317MOL0     H41819   6.515   8.755  10.622  1.5713  1.1195 -1.4663
  317MOL0     H41820   6.310   8.624  10.567 -0.0343 -0.9414  1.3439
  317MOL0     H41821   6.414   8.496  10.625  0.7174 -0.2419  0.0562
  317MOL0     H41822   6.309   8.565  10.344  2.1537  1.7482 -1.6614
  317MOL0     H41823   6.466   8.506  10.340 -0.1232  3.6019  0.3485
  317MOL0     H41824   6.384   8.296  10.467 -0.6691 -1.8558 -1.6423
  317MOL0     H41825   6.299   8.336  10.319  1.5980  1.0827 -0.9379
  317MOL0     H41826   7.363   8.720  10.782 -1.3155 -0.0813  0.5663
  317MOL0     H41827   7.558   8.855  10.743 -0.5050 -1.0437 -0.5151
  317MOL0     H41828   7.834   9.061  10.549 -1.0481 -0.6012  0.7123
  317MOL0     H41829   8.043   9.180  10.563  1.2235  2.1475  0.8838
  317MOL0     H41830   9.662   9.226  10.255 -0.8148 -0.9224 -0.1037
  317MOL0     H41831   9.890   9.120  10.194  1.9516 -1.4022  1.3532
  317MOL0     H41832  10.235   8.951  10.283 -1.9102  3.1799 -0.0436
  317MOL0     H41833  10.447   8.822  10.205  0.0892 -1.0486  1.1692
  317MOL0     H41834  10.645   8.785  10.332 -0.3782  1.5985  1.9511
  317MOL0     H41835  10.757   8.917  10.386  1.6189  0.0993  0.5746
  317MOL0     H41836  10.853   8.734  10.169  2.5761 -0.6121  0.5945
  317MOL0     H41837  10.931   8.869  10.249  1.5961 -0.0109  0.4043
  317MOL0     H41838  10.809   8.651  10.414 -2.0091 -0.0341 -3.9700
  317MOL0     H41839  10.938   8.766  10.451 -1.3697  1.0551 -0.5929
  317MOL0     H41840  10.981   8.538  10.268  3.2812 -1.0748  0.6999
  317MOL0     H41841  11.092   8.667  10.298 -1.2756  1.8956 -1.8857
  317MOL0     H41842  11.183   8.390  10.581  3.2769  0.4184 -2.5455
  317MOL0     H41843  10.655   9.188  10.165 -3.0910  3.3847 -0.1920
  317MOL0     H41844  10.452   9.314  10.217  0.4968 -0.2571  0.4957
  318MOL0     O41845   8.159   7.437  10.377  0.5056 -0.0455  0.2683
  318MOL0     C41846   8.182   7.400  10.259  0.4880  0.1512  0.0289
  318MOL0     O41847   8.090   7.380  10.162 -0.9847  0.0006 -0.1687
  318MOL0     C41848   7.962   7.354  10.198  0.2445  0.8022 -0.0656
  318MOL0     C41849   7.920   7.229  10.152 -0.2474 -1.2365  0.0242
  318MOL0     C41850   7.791   7.179  10.187  0.2553 -0.0856 -0.8339
  318MOL0     C41851   7.704   7.255  10.267 -0.3467 -0.0499  0.2212
  318MOL0     O41852   7.581   7.198  10.307 -0.1134 -0.7143  0.0472
  318MOL0     C41853   7.475   7.288  10.348 -0.0370  0.3870 -0.4405
  318MOL0     C41854   7.348   7.223  10.390 -0.4216 -0.1233 -0.2497
  318MOL0     C41855   7.276   7.179  10.260  0.1359 -0.0489  0.0519
  318MOL0     C41856   7.145   7.108  10.302  0.3517  0.2305 -0.5282
  318MOL0     C41857   7.050   7.105  10.188  0.9981 -0.9480 -0.4077
  318MOL0     C41858   7.013   7.240  10.122  0.5017 -0.7669  0.0144
  318MOL0     C41859   6.880   7.233  10.052 -0.5325  0.9213 -0.3991
  318MOL0     C41860   6.881   7.329   9.942  0.3950 -0.1823 -0.6146
  318MOL0     N41861   6.847   7.468   9.987 -0.6322  0.1213 -0.4301
  318MOL0     C41862   6.828   7.583   9.907 -0.5590 -0.3711  0.2149
  318MOL0     C41863   6.785   7.684   9.991 -0.0798  0.0540  0.8772
  318MOL0     C41864   6.734   7.819   9.961 -0.6389  0.2282  0.7188
  318MOL0     C41865   6.833   7.903   9.875 -0.0936 -0.8635 -0.9118
  318MOL0     C41866   6.958   7.955   9.962  0.4444  0.0505 -0.0558
  318MOL0     C41867   7.047   8.054   9.882 -1.2314 -0.1020  0.2376
  318MOL0     O41868   7.116   7.972   9.787  0.1626  0.0823  0.2378
  318MOL0     C41869   7.238   7.921   9.826  0.4337  0.6870  0.9192
  318MOL0     C41870   7.299   7.836   9.736  0.4754 -0.1200 -0.2118
  318MOL0     C41871   7.409   7.755   9.758  0.0253 -0.2857 -0.2673
  318MOL0     C41872   7.479   7.776   9.875 -0.8566  0.0639  0.7222
  318MOL0     C41873   7.595   7.686   9.911  0.1485 -0.7106  0.5825
  318MOL0     O41874   7.660   7.643   9.800  0.2458  0.3395 -0.4581
  318MOL0     C41875   7.712   7.513   9.796  0.6837 -0.4572  0.0739
  318MOL0     C41876   7.670   7.406   9.876  0.8900  0.3532 -0.3784
  318MOL0     C41877   7.735   7.283   9.886 -1.4565 -0.3231  0.5511
  318MOL0     C41878   7.824   7.255   9.796 -0.1114  0.4832  0.9959
  318MOL0     O41879   7.875   7.125   9.796 -0.4436  0.2468  0.0894
  318MOL0     C41880   8.015   7.119   9.827  0.1969  0.3813 -0.1434
  318MOL0     C41881   8.091   7.089   9.702  0.1265  0.5115  0.6590
  318MOL0     C41882   8.238   7.077   9.726  0.4883 -0.5752 -0.5148
  318MOL0     C41883   8.305   7.014   9.611 -0.2298 -0.2846  0.2001
  318MOL0     C41884   8.452   6.972   9.658  0.3842  0.0549  0.7122
  318MOL0     C41885   8.518   7.091   9.718  0.2452 -0.1607 -0.3280
  318MOL0     C41886   8.663   7.062   9.716 -0.5502 -0.2569  0.7151
  318MOL0     C41887   8.753   7.174   9.771 -0.9029  0.6446  0.0826
  318MOL0    Cl41888   8.915   7.104   9.757 -0.4741  0.1865  0.3987
  318MOL0     C41889   7.866   7.349   9.696 -0.1542 -0.7082  0.1746
  318MOL0     C41890   7.815   7.480   9.706  0.9677 -0.2212  0.7730
  318MOL0     O41891   7.626   7.664  10.026  0.7420  0.4442  0.5579
  318MOL0     C41892   7.428   7.865   9.972  0.5335 -0.1379  0.6644
  318MOL0     C41893   7.308   7.928   9.949  0.0934 -0.4289  0.5637
  318MOL0     N41894   6.792   7.633  10.122  0.6829  0.0978  0.1076
  318MOL0     N41895   6.828   7.508  10.115  0.5751 -0.1151  0.5907
  318MOL0     C41896   7.750   7.384  10.317 -0.0223  0.1913  0.6568
  318MOL0     C41897   7.879   7.427  10.281  1.2725  0.2968  0.3562
  318MOL0     C41898   8.326   7.366  10.228 -0.5964  0.4696  0.3491
  318MOL0     C41899   8.352   7.311  10.106 -0.2234 -0.3753  0.3051
  318MOL0     C41900   8.483   7.273  10.072  0.3465 -0.0270  0.5868
  318MOL0     C41901   8.592   7.301  10.155  0.4714  0.0428 -0.1249
  318MOL0     O41902   8.718   7.280  10.105  0.2707  0.1596  0.2824
  318MOL0     C41903   8.837   7.305  10.186  0.3379  0.4991 -0.1840
  318MOL0     C41904   8.943   7.198  10.145  0.2378 -0.3345  0.1959
  318MOL0     C41905   9.067   7.228  10.229  0.1137  0.0254  0.4172
  318MOL0     C41906   9.182   7.129  10.210  0.3547  0.1721 -0.2902
  318MOL0     C41907   9.301   7.158  10.285  0.0355  0.3890  0.1568
  318MOL0     C41908   9.405   7.177  10.354 -0.0282 -0.4328 -0.3744
  318MOL0     C41909   8.569   7.369  10.272  0.1535 -0.2653 -0.4824
  318MOL0     C41910   8.437   7.395  10.314 -0.3723 -0.5448 -0.4218
  318MOL0     H41911   7.989   7.159  10.107 -0.8730 -0.3200 -2.5182
  318MOL0     H41912   7.766   7.075  10.170  0.7018 -0.2022 -0.7934
  318MOL0     H41913   7.457   7.350  10.260 -0.2600 -2.4254 -2.4849
  318MOL0     H41914   7.502   7.350  10.434 -0.4832 -0.5587  0.4094
  318MOL0     H41915   7.289   7.299  10.442  0.3865  0.7014 -0.5119
  318MOL0     H41916   7.355   7.136  10.455  1.4970  0.1353 -0.0760
  318MOL0     H41917   7.340   7.123  10.192 -1.6487  0.2550 -1.9979
  318MOL0     H41918   7.247   7.274  10.213  1.5780 -0.0686 -0.9454
  318MOL0     H41919   7.161   7.010  10.349  0.1532  0.5817  0.2878
  318MOL0     H41920   7.092   7.166  10.379  0.6610  0.6470 -0.6263
  318MOL0     H41921   6.960   7.060  10.231 -3.0507  2.6531 -4.1166
  318MOL0     H41922   7.084   7.038  10.108  1.1269  0.2097 -1.3518
  318MOL0     H41923   7.094   7.254  10.050  0.8950  1.6784  0.8681
  318MOL0     H41924   7.012   7.326  10.189  0.2715  0.2793 -1.2964
  318MOL0     H41925   6.873   7.131  10.013 -2.6411  0.2263  1.5317
  318MOL0     H41926   6.800   7.252  10.125  0.7798  2.9023  0.5949
  318MOL0     H41927   6.814   7.288   9.866  0.7387 -1.5641 -0.2021
  318MOL0     H41928   6.978   7.318   9.893  1.8231 -0.9757  2.1557
  318MOL0     H41929   6.829   7.587   9.799 -6.1591 -0.6846 -0.1591
  318MOL0     H41930   6.712   7.864  10.058  0.8554  0.4744  0.9762
  318MOL0     H41931   6.639   7.813   9.908 -0.2451 -4.1521  0.2097
  318MOL0     H41932   6.788   7.991   9.828  1.0767 -0.0419 -0.5429
  318MOL0     H41933   6.884   7.841   9.801  1.9145 -0.1603 -0.1763
  318MOL0     H41934   6.932   7.998  10.059  0.8310 -0.9027  0.4939
  318MOL0     H41935   7.009   7.863   9.992 -0.3946 -0.5000 -0.2964
  318MOL0     H41936   7.124   8.107   9.938 -0.6845 -0.7126  0.0745
  318MOL0     H41937   6.975   8.117   9.829  0.1825  0.5026 -1.0239
  318MOL0     H41938   7.254   7.826   9.638 -0.6512 -1.4061  0.4001
  318MOL0     H41939   7.442   7.680   9.687 -1.3080 -1.8426  0.6651
  318MOL0     H41940   7.608   7.423   9.963 -1.6315 -1.9830 -1.5674
  318MOL0     H41941   7.706   7.209   9.959  1.5850 -0.1571  2.0667
  318MOL0     H41942   8.031   7.051   9.910 -0.0084  0.3789 -0.1048
  318MOL0     H41943   8.048   7.217   9.861  2.3191 -1.0191  2.1774
  318MOL0     H41944   8.058   7.150   9.617 -2.6580 -2.6710 -0.7869
  318MOL0     H41945   8.056   6.989   9.678 -1.7581  1.2307  0.2699
  318MOL0     H41946   8.272   7.037   9.822  3.7987  2.5554 -0.1433
  318MOL0     H41947   8.265   7.183   9.737 -1.0207 -0.1174 -0.9167
  318MOL0     H41948   8.248   6.930   9.571 -1.3014  0.8949 -0.8528
  318MOL0     H41949   8.318   7.081   9.525  0.0364  0.1680  0.5858
  318MOL0     H41950   8.508   6.940   9.569 -1.9992 -2.8406  0.0977
  318MOL0     H41951   8.446   6.888   9.727  1.4617 -1.8227 -1.3147
  318MOL0     H41952   8.496   7.089   9.825 -0.9390 -2.0192 -0.5592
  318MOL0     H41953   8.491   7.185   9.670 -1.4054 -0.8324 -0.7943
  318MOL0     H41954   8.673   6.969   9.774  0.1881 -2.0650 -2.1235
  318MOL0     H41955   8.693   7.038   9.614 -2.3946 -1.4625  0.4103
  318MOL0     H41956   8.722   7.195   9.874 -2.9247 -2.0696  0.1538
  318MOL0     H41957   8.731   7.267   9.718 -4.3867 -0.0486  0.0694
  318MOL0     H41958   7.936   7.326   9.616 -0.2040  1.6344 -0.6198
  318MOL0     H41959   7.840   7.556   9.633  2.5759 -0.0098  1.4990
  318MOL0     H41960   7.479   7.874  10.067 -0.0012 -1.2979  1.0862
  318MOL0     H41961   7.268   7.989  10.029 -0.3362 -0.7749  0.6177
  318MOL0     H41962   7.690   7.452  10.376  2.1266  1.1269  1.8690
  318MOL0     H41963   7.910   7.526  10.313  3.0904 -0.1454  0.0782
  318MOL0     H41964   8.272   7.303  10.034 -0.2930  2.2444 -0.0152
  318MOL0     H41965   8.500   7.220   9.979 -0.1525  1.7621 -0.5851
  318MOL0     H41966   8.816   7.294  10.293  3.0607  1.5463  0.5446
  318MOL0     H41967   8.878   7.406  10.180  1.5600  0.0162 -0.4624
  318MOL0     H41968   8.900   7.098  10.154  1.7688 -1.2725 -2.0569
  318MOL0     H41969   8.961   7.218  10.039 -0.0403 -3.8985 -0.6414
  318MOL0     H41970   9.044   7.225  10.336 -0.6353 -1.1300  0.2377
  318MOL0     H41971   9.104   7.328  10.204  1.5933 -0.1361  1.7882
  318MOL0     H41972   9.144   7.032  10.243 -2.4205  2.0750  2.7792
  318MOL0     H41973   9.208   7.135  10.104  0.6617  2.4488 -0.1367
  318MOL0     H41974   9.500   7.183  10.402  0.0528  3.4342 -0.7330
  318MOL0     H41975   8.646   7.408  10.338  0.2889 -1.6784  0.2496
  318MOL0     H41976   8.428   7.437  10.414  0.7291 -3.5205  1.0598
  319MOL0     O41977   0.715   9.069   7.565  0.1079  0.1795 -0.3875
  319MOL0     C41978   0.637   9.077   7.474 -0.0512  0.1762  0.3501
  319MOL0     O41979   0.647   9.139   7.357  0.0609  0.2846  0.8413
  319MOL0     C41980   0.761   9.206   7.317  0.1983  0.8405  0.4835
  319MOL0     C41981   0.819   9.303   7.396 -0.1600  0.1642 -0.7283
  319MOL0     C41982   0.936   9.366   7.356 -0.3946 -0.4347 -0.1123
  319MOL0     C41983   0.983   9.341   7.223 -0.4639  0.6838 -0.7351
  319MOL0     O41984   1.097   9.407   7.182  0.0231  0.1130 -1.1315
  319MOL0     C41985   1.079   9.486   7.065 -0.0873 -0.2143 -0.1394
  319MOL0     C41986   1.208   9.472   6.983  0.5249  0.9959  0.0991
  319MOL0     C41987   1.206   9.577   6.870 -0.2767 -0.2516 -0.4996
  319MOL0     C41988   1.325   9.536   6.785 -0.3808  0.2626  0.0726
  319MOL0     C41989   1.333   9.619   6.659 -1.3440 -0.4865 -0.9732
  319MOL0     C41990   1.397   9.755   6.690 -0.0696  0.7469  0.3746
  319MOL0     C41991   1.417   9.855   6.575 -0.0355  0.0869  0.5846
  319MOL0     C41992   1.291   9.891   6.495  0.6255 -0.3982  0.5952
  319MOL0     N41993   1.191   9.969   6.581  0.2864 -0.4297 -0.0296
  319MOL0     C41994   1.121   9.928   6.687  0.3846 -0.0834 -0.1742
  319MOL0     C41995   1.078  10.047   6.743  0.0022 -0.0477 -0.1794
  319MOL0     C41996   0.980  10.046   6.854  0.0677  0.2592  0.9547
  319MOL0     C41997   0.834  10.022   6.811 -0.2131  0.2124  0.3006
  319MOL0     C41998   0.765   9.954   6.927  0.0439  0.3519  0.0350
  319MOL0     C41999   0.621   9.935   6.881 -0.3943 -0.7445 -0.2913
  319MOL0     O42000   0.553   9.883   6.995  0.5803 -0.1549  0.2829
  319MOL0     C42001   0.413   9.880   6.993 -0.8570 -0.0410 -0.3904
  319MOL0     C42002   0.360   9.864   7.119  0.1456 -0.4109 -0.1338
  319MOL0     C42003   0.222   9.870   7.138 -0.2742  0.2350 -0.5855
  319MOL0     C42004   0.136   9.892   7.031 -0.4817  0.6198 -0.1328
  319MOL0     C42005  -0.012   9.888   7.049  0.7820  0.8546  0.5779
  319MOL0     O42006  -0.082   9.967   6.958 -0.9410 -0.4624 -0.2193
  319MOL0     C42007  -0.216   9.974   6.967  0.8655 -0.3794  0.3424
  319MOL0     C42008  -0.285  10.095   6.954  1.0353 -0.8267  0.0955
  319MOL0     C42009  -0.416  10.113   6.980 -0.3910 -0.0131 -0.8325
  319MOL0     C42010  -0.498  10.007   7.017  0.8133 -0.2746 -0.1530
  319MOL0     O42011  -0.635  10.006   7.033  0.8046 -0.1335  0.2165
  319MOL0     C42012  -0.698  10.107   7.113 -0.8312  0.1592  0.1406
  319MOL0     C42013  -0.837  10.124   7.061  0.4062  0.7814 -0.3868
  319MOL0     C42014  -0.920  10.230   7.138 -0.8772  0.3090 -0.3222
  319MOL0     C42015  -1.052  10.248   7.067 -0.2993  0.3712 -0.0972
  319MOL0     C42016  -1.144  10.346   7.129  0.1201 -0.1278 -0.1824
  319MOL0     C42017  -1.282  10.343   7.062 -0.2593 -0.2226  0.1782
  319MOL0     C42018  -1.386  10.405   7.152 -0.5366  0.5257  0.5171
  319MOL0     C42019  -1.368  10.558   7.140  0.1759  0.7464  0.3943
  319MOL0    Cl42020  -1.502  10.646   7.224 -0.3659  0.1205 -0.1921
  319MOL0     C42021  -0.442   9.876   7.023  0.6919 -0.2258  0.7506
  319MOL0     C42022  -0.304   9.867   6.998  0.1951  0.3149 -0.6361
  319MOL0     O42023  -0.059   9.825   7.140 -0.1111  0.4672 -0.4517
  319MOL0     C42024   0.192   9.911   6.903 -0.1300 -0.6698 -0.1406
  319MOL0     C42025   0.326   9.898   6.887 -0.2924  0.6060 -0.0355
  319MOL0     N42026   1.134  10.152   6.677 -0.5478 -0.0274 -0.6981
  319MOL0     N42027   1.195  10.105   6.576  0.9448  0.1064 -0.7299
  319MOL0     C42028   0.925   9.251   7.138  0.6221 -0.0376 -0.4919
  319MOL0     C42029   0.812   9.182   7.193 -1.3938  0.4546 -0.8292
  319MOL0     C42030   0.497   9.030   7.503  0.2200  0.2100  0.0449
  319MOL0     C42031   0.442   9.049   7.633  0.0278 -0.0638 -0.0744
  319MOL0     C42032   0.308   9.025   7.666 -0.1844 -0.1459  0.9996
  319MOL0     C42033   0.233   8.959   7.567 -0.5834  0.1352 -0.1678
  319MOL0     O42034   0.101   8.918   7.591  0.0323  0.2556  0.3131
  319MOL0     C42035   0.039   8.955   7.712  0.2274 -0.1570 -0.1068
  319MOL0     C42036  -0.105   8.893   7.707  0.1293 -0.5975 -0.5177
  319MOL0     C42037  -0.178   8.902   7.851  0.1743 -1.0468 -0.0709
  319MOL0     C42038  -0.321   8.887   7.862 -0.1205 -0.1738 -0.1094
  319MOL0     C42039  -0.391   9.014   7.830 -0.1336  0.3586 -0.4753
  319MOL0     C42040  -0.449   9.118   7.805  0.3820 -0.0351  0.1581
  319MOL0     C42041   0.284   8.937   7.441 -0.6794  0.1329  0.3073
  319MOL0     C42042   0.417   8.974   7.406 -0.0304  0.8658  0.0053
  319MOL0     H42043   0.798   9.315   7.502  1.6027  0.8463 -0.4255
  319MOL0     H42044   0.990   9.436   7.419  2.7210  0.0237 -2.9756
  319MOL0     H42045   1.079   9.590   7.100  0.6428 -0.2577  0.0136
  319MOL0     H42046   0.989   9.463   7.008  0.5386  0.2683 -1.3560
  319MOL0     H42047   1.216   9.369   6.948 -1.0277  0.7291  0.4551
  319MOL0     H42048   1.291   9.495   7.051  0.6654 -1.4260  0.8339
  319MOL0     H42049   1.208   9.678   6.910  1.0472 -0.1458 -0.7946
  319MOL0     H42050   1.114   9.555   6.815 -0.5185 -0.4353 -0.0308
  319MOL0     H42051   1.417   9.550   6.844 -1.1915 -0.4989  1.5716
  319MOL0     H42052   1.311   9.432   6.754 -1.9304  0.4762 -0.0070
  319MOL0     H42053   1.233   9.641   6.620 -0.6320  0.8335 -2.1554
  319MOL0     H42054   1.383   9.559   6.582 -3.6920 -4.9708  0.6114
  319MOL0     H42055   1.493   9.750   6.742 -0.0487  0.8397  0.3455
  319MOL0     H42056   1.336   9.808   6.764 -2.1092 -0.7094 -0.1836
  319MOL0     H42057   1.458   9.947   6.619  0.5708 -0.3089  0.8668
  319MOL0     H42058   1.497   9.818   6.511 -2.8928 -2.6075 -1.7093
  319MOL0     H42059   1.239   9.804   6.453  0.0017 -1.4273  3.2617
  319MOL0     H42060   1.321   9.962   6.419 -0.0586  1.2842  1.8394
  319MOL0     H42061   1.093   9.826   6.714 -0.6386  0.6024  1.5319
  319MOL0     H42062   0.974  10.134   6.918 -3.1208  1.2352 -0.4621
  319MOL0     H42063   1.016   9.966   6.919  0.3941  0.6279  1.2326
  319MOL0     H42064   0.814   9.962   6.721 -0.9797  0.8992 -0.0034
  319MOL0     H42065   0.805  10.126   6.792  2.4119  1.3375  1.9408
  319MOL0     H42066   0.796   9.852   6.949 -1.8164 -0.0553  0.9414
  319MOL0     H42067   0.774  10.014   7.019 -0.6688 -1.2756  1.2222
  319MOL0     H42068   0.603   9.882   6.787  1.2594 -0.6487 -0.6817
  319MOL0     H42069   0.587  10.038   6.869  2.4116  0.6727  2.6344
  319MOL0     H42070   0.419   9.862   7.211  2.2083  1.2609 -1.3397
  319MOL0     H42071   0.170   9.856   7.232 -1.9579 -1.4368 -1.6987
  319MOL0     H42072  -0.238  10.188   6.923  1.2022 -1.1210 -0.5588
  319MOL0     H42073  -0.459  10.212   6.967  1.3069  1.1886  1.8441
  319MOL0     H42074  -0.638  10.199   7.118 -1.1306  0.3141  1.1456
  319MOL0     H42075  -0.712  10.061   7.211  0.1808 -3.1845 -1.1316
  319MOL0     H42076  -0.887  10.027   7.071 -2.3230  2.1584  0.3803
  319MOL0     H42077  -0.848  10.149   6.955 -2.1194  0.0518 -0.3561
  319MOL0     H42078  -0.872  10.329   7.141 -1.7152  0.7246 -0.2799
  319MOL0     H42079  -0.934  10.192   7.240  0.4188 -1.3230 -0.7071
  319MOL0     H42080  -1.044  10.272   6.961 -0.6524 -0.5010 -0.3297
  319MOL0     H42081  -1.110  10.155   7.068 -3.4925  2.1292 -2.6759
  319MOL0     H42082  -1.110  10.448   7.110 -1.4426 -0.1729 -4.3264
  319MOL0     H42083  -1.159  10.332   7.237  1.2176  1.0262  0.1547
  319MOL0     H42084  -1.314  10.239   7.060 -0.8833 -0.0239 -0.3511
  319MOL0     H42085  -1.286  10.387   6.962 -0.1894 -0.1474  0.2082
  319MOL0     H42086  -1.491  10.384   7.130 -0.3561  0.8827 -0.7537
  319MOL0     H42087  -1.368  10.367   7.253  0.4013 -1.2879 -0.2866
  319MOL0     H42088  -1.384  10.584   7.035 -0.8603 -1.4059 -0.0288
  319MOL0     H42089  -1.268  10.588   7.174 -0.5495  2.4624  1.1254
  319MOL0     H42090  -0.500   9.788   7.047 -1.1989  0.7230 -0.1151
  319MOL0     H42091  -0.269   9.764   7.002  1.4277  0.6969 -0.9375
  319MOL0     H42092   0.132   9.929   6.814 -1.7502 -3.8314  0.1348
  319MOL0     H42093   0.374   9.902   6.789 -1.2081  1.7074 -0.4674
  319MOL0     H42094   0.966   9.219   7.043  0.0858  1.5467 -1.3051
  319MOL0     H42095   0.768   9.108   7.127  0.6282 -0.8037 -0.8361
  319MOL0     H42096   0.512   9.094   7.703  2.3149 -1.2766 -1.4631
  319MOL0     H42097   0.255   9.045   7.759 -3.4604  0.4373 -0.8272
  319MOL0     H42098   0.032   9.064   7.711 -4.0262 -0.2867 -0.3460
  319MOL0     H42099   0.095   8.919   7.799 -2.6910 -0.9190  1.5826
  319MOL0     H42100  -0.161   8.939   7.624  0.1647  0.4475  0.0176
  319MOL0     H42101  -0.094   8.786   7.693  1.4937 -0.5247 -0.1683
  319MOL0     H42102  -0.149   8.998   7.895  0.9489 -1.1049 -0.4423
  319MOL0     H42103  -0.132   8.831   7.920 -0.0460  0.0170  1.2134
  319MOL0     H42104  -0.344   8.803   7.796  1.6531 -0.8264  0.0583
  319MOL0     H42105  -0.347   8.865   7.966  0.9655 -1.7124 -0.1256
  319MOL0     H42106  -0.483   9.209   7.758  1.1424 -0.2968 -0.9308
  319MOL0     H42107   0.221   8.892   7.365 -0.9025 -1.6122  1.4665
  319MOL0     H42108   0.457   8.949   7.308 -2.8226  0.0841 -1.0431
  320MOL0     O42109   1.383  10.065   4.424 -0.4155  0.2759 -0.1863
  320MOL0     C42110   1.461  10.093   4.331 -0.0312  0.5413  0.6825
  320MOL0     O42111   1.448  10.201   4.248  0.3769 -0.4482 -0.2200
  320MOL0     C42112   1.362  10.308   4.272  0.2451  0.3701 -1.0076
  320MOL0     C42113   1.373  10.411   4.181  0.5021 -0.2154 -0.2000
  320MOL0     C42114   1.286  10.519   4.187  0.0783 -0.9875  0.0095
  320MOL0     C42115   1.196  10.531   4.292 -0.6305  0.8149 -1.1469
  320MOL0     O42116   1.117  10.643   4.303 -0.4199  0.4325 -0.4998
  320MOL0     C42117   1.148  10.762   4.227  0.1187  0.5566 -0.5466
  320MOL0     C42118   1.063  10.872   4.284 -0.6188 -0.0449  0.5686
  320MOL0     C42119   0.919  10.839   4.304  0.1713 -0.2396  0.2027
  320MOL0     C42120   0.838  10.961   4.335  0.0954 -0.2197 -0.2825
  320MOL0     C42121   0.691  10.950   4.308  0.2477  0.8890 -0.3669
  320MOL0     C42122   0.621  10.817   4.340 -0.2712 -0.2171  0.4998
  320MOL0     C42123   0.476  10.798   4.301  0.0555  0.3387 -0.4935
  320MOL0     C42124   0.386  10.855   4.401 -0.3057 -1.3436  0.3159
  320MOL0     N42125   0.267  10.773   4.393 -0.4765 -0.1794 -0.0118
  320MOL0     C42126   0.259  10.642   4.434  0.3694 -0.2722  0.2268
  320MOL0     C42127   0.127  10.622   4.456 -0.0686 -0.3428  0.6113
  320MOL0     C42128   0.091  10.483   4.486 -0.5758 -0.0624  0.0428
  320MOL0     C42129  -0.044  10.485   4.558  0.0847 -0.0857 -0.3211
  320MOL0     C42130  -0.118  10.348   4.559 -0.2378 -0.0852  0.0867
  320MOL0     C42131  -0.229  10.345   4.661 -0.1794 -0.1156 -0.5660
  320MOL0     O42132  -0.306  10.223   4.659  0.2476  0.7475  0.2019
  320MOL0     C42133  -0.423  10.230   4.739 -0.5305  0.8023 -0.3765
  320MOL0     C42134  -0.528  10.151   4.694 -0.2518  0.1556  0.2481
  320MOL0     C42135  -0.644  10.139   4.768  0.5753  0.2420  0.1361
  320MOL0     C42136  -0.663  10.213   4.887 -0.0777  0.7490  0.0007
  320MOL0     C42137  -0.787  10.203   4.961 -0.9742  0.5310 -0.2359
  320MOL0     O42138  -0.893  10.154   4.893  0.0860 -0.4793  0.1437
  320MOL0     C42139  -1.011  10.166   4.961  1.2291  0.7472 -0.0790
  320MOL0     C42140  -1.036  10.101   5.075  0.5935 -0.1810 -0.4396
  320MOL0     C42141  -1.159  10.118   5.147 -0.4501 -0.1999 -0.1857
  320MOL0     C42142  -1.264  10.198   5.089  0.5405 -0.3638 -1.0992
  320MOL0     O42143  -1.393  10.216   5.145 -0.2271  0.6496 -0.1735
  320MOL0     C42144  -1.402  10.179   5.283  0.1391  0.6387 -0.8318
  320MOL0     C42145  -1.537  10.204   5.345  0.1272  0.6224  0.0247
  320MOL0     C42146  -1.584  10.350   5.341 -0.2955 -0.5540  0.5377
  320MOL0     C42147  -1.672  10.384   5.218 -0.5778 -0.2144 -0.6676
  320MOL0     C42148  -1.723  10.524   5.247 -0.4636  0.8343  0.6342
  320MOL0     C42149  -1.806  10.582   5.130  0.8352  0.1704  0.1899
  320MOL0     C42150  -1.858  10.723   5.165  0.2697  0.0767  1.1845
  320MOL0     C42151  -1.960  10.734   5.287  0.0992 -0.2729 -0.2078
  320MOL0    Cl42152  -2.040  10.898   5.299 -0.1121 -0.1098 -0.1089
  320MOL0     C42153  -1.235  10.265   4.971 -0.3252 -0.6750  1.4385
  320MOL0     C42154  -1.109  10.256   4.913  0.1490 -0.0418  0.6580
  320MOL0     O42155  -0.791  10.225   5.083  0.6835 -0.2327  0.1756
  320MOL0     C42156  -0.561  10.301   4.934  0.2478  0.5267 -0.8189
  320MOL0     C42157  -0.441  10.307   4.863 -0.1263  0.1531 -0.8296
  320MOL0     N42158   0.053  10.738   4.421 -0.0236  0.2676  0.1083
  320MOL0     N42159   0.145  10.824   4.391  0.2016 -0.8804  1.0352
  320MOL0     C42160   1.172  10.425   4.379  0.0685  0.7007 -0.1798
  320MOL0     C42161   1.254  10.308   4.367  1.0737  0.3575  0.3344
  320MOL0     C42162   1.556   9.999   4.284 -0.3278  0.4741 -0.9435
  320MOL0     C42163   1.557   9.864   4.331  0.1257 -0.0986 -1.0893
  320MOL0     C42164   1.642   9.766   4.276 -0.1281 -0.5028  0.7344
  320MOL0     C42165   1.734   9.801   4.177  0.7664 -0.7339  0.4286
  320MOL0     O42166   1.814   9.704   4.126  0.0921  0.1805 -0.3057
  320MOL0     C42167   1.897   9.741   4.014 -0.8871 -0.1196 -0.4983
  320MOL0     C42168   1.993   9.624   4.002  0.0856  0.0649 -0.4321
  320MOL0     C42169   2.126   9.656   4.064 -0.1335  0.0086  0.1512
  320MOL0     C42170   2.215   9.544   4.073  0.0858  0.1259 -0.1797
  320MOL0     C42171   2.349   9.590   4.117  0.3090  0.0370 -0.0635
  320MOL0     C42172   2.462   9.599   4.166  0.4404 -0.1571 -0.0812
  320MOL0     C42173   1.720   9.927   4.120  0.3696  0.4985 -0.0429
  320MOL0     C42174   1.640  10.021   4.172  1.1042  0.1827 -0.1081
  320MOL0     H42175   1.441  10.399   4.097  0.4084  0.2653 -0.3432
  320MOL0     H42176   1.304  10.595   4.111  3.5334 -2.1291 -0.5222
  320MOL0     H42177   1.118  10.743   4.124  3.2032 -0.1690 -1.4108
  320MOL0     H42178   1.255  10.786   4.225  0.5299 -1.1767 -2.3393
  320MOL0     H42179   1.075  10.952   4.210 -2.8241  1.2134  1.4786
  320MOL0     H42180   1.110  10.910   4.375  2.5843 -2.4975  0.1512
  320MOL0     H42181   0.905  10.765   4.384  4.1467 -1.0685  0.2978
  320MOL0     H42182   0.880  10.798   4.210  0.5994 -0.1436 -0.0172
  320MOL0     H42183   0.846  11.010   4.433 -1.7081  0.7929 -0.6057
  320MOL0     H42184   0.876  11.028   4.258  1.9559 -1.8369 -0.8687
  320MOL0     H42185   0.671  10.964   4.201 -0.9534 -1.4516 -0.5206
  320MOL0     H42186   0.626  11.015   4.367 -3.7457 -2.0837 -1.0620
  320MOL0     H42187   0.629  10.801   4.448 -0.1916  2.1179  0.9055
  320MOL0     H42188   0.667  10.727   4.299 -3.2561 -2.1629  1.0573
  320MOL0     H42189   0.452  10.834   4.201 -3.4022  2.3134  0.8962
  320MOL0     H42190   0.461  10.690   4.300 -2.1483  0.4839  2.5594
  320MOL0     H42191   0.363  10.959   4.374 -0.7688 -1.3994  0.4801
  320MOL0     H42192   0.434  10.857   4.499  3.8534 -3.1183 -1.4658
  320MOL0     H42193   0.334  10.568   4.461 -0.4451 -0.9312  0.7222
  320MOL0     H42194   0.165  10.434   4.549  0.3835  1.2913  0.0314
  320MOL0     H42195   0.084  10.430   4.390 -1.2353  0.5034 -0.2339
  320MOL0     H42196  -0.105  10.559   4.506  0.3626  2.0699  2.1660
  320MOL0     H42197  -0.027  10.513   4.663 -0.1474 -2.5754  0.4485
  320MOL0     H42198  -0.163  10.337   4.460  0.6716  2.1770 -0.6247
  320MOL0     H42199  -0.062  10.257   4.587 -0.2008  0.3122  1.3833
  320MOL0     H42200  -0.300  10.427   4.650  0.3695  0.2643 -1.3791
  320MOL0     H42201  -0.186  10.368   4.758 -1.2000  1.7456 -0.5258
  320MOL0     H42202  -0.521  10.111   4.594 -0.3837  0.6206  0.0482
  320MOL0     H42203  -0.726  10.077   4.732  0.1439  0.0235  1.4409
  320MOL0     H42204  -0.954  10.042   5.114  1.4453 -0.4879 -2.5457
  320MOL0     H42205  -1.171  10.065   5.241 -3.0934 -0.6478 -0.7148
  320MOL0     H42206  -1.334  10.240   5.344 -0.2235 -1.4916  1.8837
  320MOL0     H42207  -1.370  10.075   5.292  0.7899  0.7759 -1.3753
  320MOL0     H42208  -1.528  10.172   5.450 -3.5153  0.7611  0.5045
  320MOL0     H42209  -1.622  10.147   5.306 -1.7957  3.0385  0.4413
  320MOL0     H42210  -1.494  10.412   5.351 -0.8472  0.3371  0.1283
  320MOL0     H42211  -1.632  10.376   5.436  3.3960  1.6878  1.9908
  320MOL0     H42212  -1.613  10.388   5.126 -0.1367  0.4571 -0.3606
  320MOL0     H42213  -1.751  10.308   5.217 -1.5110  0.6898  0.9600
  320MOL0     H42214  -1.633  10.585   5.259 -0.0005  0.0175  1.4451
  320MOL0     H42215  -1.784  10.505   5.336  1.0938 -2.9522  1.0631
  320MOL0     H42216  -1.890  10.512   5.115  0.5253  0.7583 -0.9264
  320MOL0     H42217  -1.748  10.592   5.039 -0.5542  4.4675 -0.4409
  320MOL0     H42218  -1.775  10.793   5.174 -1.0576  1.5188  3.0735
  320MOL0     H42219  -1.895  10.768   5.073  3.0902  0.9657  0.3727
  320MOL0     H42220  -1.912  10.710   5.383 -2.6329 -2.5806  0.7113
  320MOL0     H42221  -2.040  10.660   5.281  0.1203 -0.4236  0.9896
  320MOL0     H42222  -1.309  10.326   4.919  0.6422  0.2879  1.1582
  320MOL0     H42223  -1.077  10.309   4.824  1.7499 -1.3304  0.4105
  320MOL0     H42224  -0.575  10.366   5.020  2.2382 -1.7616  1.4006
  320MOL0     H42225  -0.362  10.366   4.908  0.8160 -1.2197 -0.6209
  320MOL0     H42226   1.098  10.447   4.454  1.3195  0.9152  1.0364
  320MOL0     H42227   1.234  10.223   4.431  2.9372 -3.3894 -3.5095
  320MOL0     H42228   1.494   9.827   4.411 -0.2964  0.3329 -1.2102
  320MOL0     H42229   1.660   9.666   4.315  0.3648 -0.6317  0.1974
  320MOL0     H42230   1.960   9.829   4.028  1.3825 -1.8966  1.4929
  320MOL0     H42231   1.840   9.760   3.923 -2.2143  1.4843  0.6067
  320MOL0     H42232   1.946   9.533   4.040  0.1122  0.5167  0.7051
  320MOL0     H42233   2.013   9.600   3.897  1.0773 -1.3513  0.0400
  320MOL0     H42234   2.111   9.688   4.167  3.5543 -0.4679  0.9566
  320MOL0     H42235   2.176   9.732   4.003 -1.2035  1.5750  1.1494
  320MOL0     H42236   2.184   9.463   4.139 -1.7162 -0.4730 -1.6989
  320MOL0     H42237   2.220   9.509   3.970  0.3910 -0.6770  0.0971
  320MOL0     H42238   2.556   9.607   4.217  1.7085 -1.6367 -2.0299
  320MOL0     H42239   1.788   9.965   4.044 -0.6868 -0.8944 -1.7612
  320MOL0     H42240   1.644  10.123   4.135  0.3773  0.3964  0.3911
  321MOL0     O42241   7.130   9.211   7.484  0.6150  0.0709  0.5609
  321MOL0     C42242   7.159   9.121   7.558 -0.5762 -0.0232 -0.0028
  321MOL0     O42243   7.077   9.019   7.599  0.8124  0.1220  0.3528
  321MOL0     C42244   6.957   9.010   7.539 -0.1261  0.3654  0.9271
  321MOL0     C42245   6.850   9.091   7.570 -1.1545  0.2631  0.4049
  321MOL0     C42246   6.726   9.063   7.524 -0.8983 -0.0962 -0.1177
  321MOL0     C42247   6.699   8.953   7.440 -0.2498  0.1471 -0.2778
  321MOL0     O42248   6.568   8.931   7.409 -0.5432  0.4804  0.1661
  321MOL0     C42249   6.534   8.843   7.307  0.9421 -0.1289 -0.3821
  321MOL0     C42250   6.384   8.868   7.269 -0.0918  0.3755 -0.1321
  321MOL0     C42251   6.290   8.798   7.373 -0.4429  0.3773  0.7056
  321MOL0     C42252   6.145   8.823   7.328  0.2189  0.1070  0.2313
  321MOL0     C42253   6.036   8.787   7.427  0.0253  0.1075 -0.6910
  321MOL0     C42254   6.051   8.633   7.454 -0.2135 -1.3608  0.1163
  321MOL0     C42255   5.945   8.578   7.549  0.0171 -0.3237 -0.7390
  321MOL0     C42256   5.954   8.635   7.694 -0.3168  0.2922  0.0677
  321MOL0     N42257   6.090   8.645   7.751  0.1533  0.2865  0.4155
  321MOL0     C42258   6.170   8.754   7.744  0.3543 -0.7220 -0.6667
  321MOL0     C42259   6.293   8.717   7.785 -0.0985  0.7006 -0.7044
  321MOL0     C42260   6.425   8.793   7.804  0.4148  0.0867  0.3696
  321MOL0     C42261   6.492   8.731   7.924  0.9921  0.0720  1.1034
  321MOL0     C42262   6.637   8.781   7.920 -0.1613 -0.3079  0.2159
  321MOL0     C42263   6.705   8.750   8.048 -0.3489  0.9940  0.1858
  321MOL0     O42264   6.820   8.833   8.059  0.3658 -0.1418  1.1158
  321MOL0     C42265   6.950   8.791   8.047 -0.1293  0.5367 -0.6299
  321MOL0     C42266   6.982   8.677   7.964  0.9019  0.5867  0.3750
  321MOL0     C42267   7.116   8.649   7.957 -0.1613  0.2353  0.2123
  321MOL0     C42268   7.218   8.721   8.020 -1.0811  0.0525  0.5956
  321MOL0     C42269   7.359   8.687   7.996 -0.1120  0.5656 -0.2501
  321MOL0     O42270   7.449   8.784   8.028  0.0859 -0.3147 -0.7052
  321MOL0     C42271   7.579   8.748   8.061  0.6601  1.2675  0.0239
  321MOL0     C42272   7.610   8.627   8.133  0.4125  0.3106 -0.0261
  321MOL0     C42273   7.739   8.601   8.172 -0.1436 -0.1216  0.1830
  321MOL0     C42274   7.850   8.679   8.133 -0.0338 -0.2137 -0.1356
  321MOL0     O42275   7.984   8.658   8.151 -0.1728 -0.5337  0.4297
  321MOL0     C42276   8.030   8.562   8.256 -0.1406  0.9501  0.1703
  321MOL0     C42277   8.184   8.553   8.262 -0.2485 -0.4368 -0.6043
  321MOL0     C42278   8.244   8.680   8.293  0.1659  0.3894 -0.1106
  321MOL0     C42279   8.199   8.748   8.423  0.2400 -0.5384  0.4031
  321MOL0     C42280   8.303   8.861   8.442 -0.0076 -1.0182 -0.0539
  321MOL0     C42281   8.284   8.916   8.586  0.1209  0.5825 -0.6521
  321MOL0     C42282   8.392   9.007   8.639 -0.0135  0.3600  0.2732
  321MOL0     C42283   8.516   8.928   8.679 -0.3691  0.0130 -0.2169
  321MOL0    Cl42284   8.630   9.041   8.779 -0.1457 -0.1877  0.0401
  321MOL0     C42285   7.823   8.791   8.053  0.5120  0.0377  0.5427
  321MOL0     C42286   7.691   8.825   8.033 -0.9818 -0.9686  0.4260
  321MOL0     O42287   7.385   8.576   7.948 -0.4223  0.7230  0.5714
  321MOL0     C42288   7.186   8.831   8.092 -0.2193 -0.8268 -0.5881
  321MOL0     C42289   7.046   8.876   8.093  0.3658 -0.5258  0.2555
  321MOL0     N42290   6.281   8.577   7.790 -0.9863  0.4098 -0.8326
  321MOL0     N42291   6.160   8.537   7.775 -0.6978 -0.0493  0.2068
  321MOL0     C42292   6.804   8.870   7.403 -0.9769 -0.4779  0.8625
  321MOL0     C42293   6.938   8.907   7.444  0.4866  0.4774  0.0185
  321MOL0     C42294   7.304   9.102   7.605 -0.3012 -0.5691  0.9313
  321MOL0     C42295   7.408   9.185   7.573 -0.2245 -0.0526  0.2308
  321MOL0     C42296   7.542   9.164   7.621  0.9525 -0.1648  0.3601
  321MOL0     C42297   7.566   9.051   7.702  0.6304  0.0281 -0.0368
  321MOL0     O42298   7.683   9.021   7.750 -0.6444  0.0745  0.3368
  321MOL0     C42299   7.798   9.019   7.662  0.6646  0.4226  0.2450
  321MOL0     C42300   7.924   9.022   7.747 -0.2816 -0.9960  0.5415
  321MOL0     C42301   8.050   9.011   7.661 -0.4509 -0.3900  0.1556
  321MOL0     C42302   8.067   9.120   7.546 -0.0896  0.8305 -0.6298
  321MOL0     C42303   8.039   9.253   7.590 -0.0101 -0.4200 -0.4457
  321MOL0     C42304   8.004   9.361   7.624  0.0896 -0.1172  0.0815
  321MOL0     C42305   7.468   8.966   7.732  0.0027  0.8280 -0.6723
  321MOL0     C42306   7.332   8.992   7.695 -0.5091 -0.1624  0.1260
  321MOL0     H42307   6.856   9.168   7.646 -1.2964 -0.3131  1.0162
  321MOL0     H42308   6.641   9.119   7.562 -0.5113 -0.0408  0.6844
  321MOL0     H42309   6.553   8.744   7.348 -1.9407 -1.2749 -1.5735
  321MOL0     H42310   6.596   8.847   7.218 -0.3890  0.1239 -1.3319
  321MOL0     H42311   6.353   8.834   7.170 -1.7581 -4.6502  1.7810
  321MOL0     H42312   6.366   8.976   7.276 -2.4363  0.1395 -1.5803
  321MOL0     H42313   6.310   8.843   7.470 -2.5159  2.4844  0.2455
  321MOL0     H42314   6.334   8.698   7.376  1.6033  1.2404  1.2067
  321MOL0     H42315   6.130   8.930   7.308  2.0573  0.2171 -0.8457
  321MOL0     H42316   6.138   8.776   7.230  2.9287  1.7803 -0.8969
  321MOL0     H42317   5.938   8.817   7.389 -0.2702 -1.8279 -1.6166
  321MOL0     H42318   6.053   8.852   7.513  4.7542  0.9086 -1.9180
  321MOL0     H42319   6.146   8.613   7.505 -0.8718  0.0919  2.0489
  321MOL0     H42320   6.037   8.572   7.365 -0.6580 -3.7789  1.7461
  321MOL0     H42321   5.846   8.599   7.508 -0.2344 -1.9233 -1.0536
  321MOL0     H42322   5.967   8.470   7.554  2.1833  0.0881 -0.4390
  321MOL0     H42323   5.893   8.565   7.752 -1.5448 -0.4950 -2.0729
  321MOL0     H42324   5.902   8.730   7.709 -0.7469  0.1193 -0.3181
  321MOL0     H42325   6.145   8.853   7.707  3.0159  0.2358 -0.1417
  321MOL0     H42326   6.415   8.900   7.822 -0.8942 -0.1560  1.2068
  321MOL0     H42327   6.484   8.774   7.714  1.1681 -2.0481  1.2504
  321MOL0     H42328   6.512   8.625   7.909  0.5899  0.0423  0.7737
  321MOL0     H42329   6.432   8.750   8.014  2.1918  2.1361  1.5442
  321MOL0     H42330   6.690   8.720   7.847  0.1989 -0.9806  1.0254
  321MOL0     H42331   6.630   8.885   7.886  0.0100 -0.2782  0.2663
  321MOL0     H42332   6.735   8.644   8.043 -1.1945  0.7832 -0.6222
  321MOL0     H42333   6.643   8.765   8.137  0.4983 -1.8351  1.3654
  321MOL0     H42334   6.902   8.623   7.914  0.6724  2.1800 -1.0991
  321MOL0     H42335   7.144   8.560   7.901 -0.1495 -0.4092  1.2156
  321MOL0     H42336   7.534   8.551   8.152  0.9029 -0.0902  0.3485
  321MOL0     H42337   7.756   8.507   8.224  2.8662  0.7637  0.9823
  321MOL0     H42338   7.992   8.463   8.226  2.2760  0.2846 -0.9800
  321MOL0     H42339   7.989   8.595   8.352 -0.3642 -2.1805  1.2868
  321MOL0     H42340   8.226   8.525   8.165  1.6829  1.6800 -0.4639
  321MOL0     H42341   8.219   8.485   8.341  0.7426  3.0905  2.3163
  321MOL0     H42342   8.221   8.744   8.208 -0.9897 -0.0451 -0.1337
  321MOL0     H42343   8.353   8.664   8.291  0.3542  1.6466 -0.6137
  321MOL0     H42344   8.097   8.788   8.422  0.7528  0.9518 -2.3296
  321MOL0     H42345   8.207   8.677   8.506 -2.3774  0.1992  1.3664
  321MOL0     H42346   8.274   8.940   8.373 -1.9372  0.1437  1.9421
  321MOL0     H42347   8.409   8.836   8.426  0.0781 -1.5999  1.2432
  321MOL0     H42348   8.273   8.837   8.661  1.3754  2.2081  1.3910
  321MOL0     H42349   8.190   8.971   8.594 -0.6801 -0.7815 -0.3894
  321MOL0     H42350   8.417   9.079   8.560 -0.5036  3.5418  2.7712
  321MOL0     H42351   8.360   9.054   8.733  0.2217 -2.3723  1.8168
  321MOL0     H42352   8.567   8.898   8.587 -2.9665 -2.3636 -1.0446
  321MOL0     H42353   8.501   8.829   8.723  0.8248 -0.9493 -1.8901
  321MOL0     H42354   7.897   8.862   8.018 -0.4177  1.1796  0.8141
  321MOL0     H42355   7.680   8.905   7.960  1.5621  0.2768  1.2912
  321MOL0     H42356   7.263   8.903   8.118 -0.2222  0.3802 -3.5996
  321MOL0     H42357   7.027   8.975   8.132  0.9772 -0.2209 -0.2119
  321MOL0     H42358   6.808   8.784   7.337 -0.4474 -0.8965  1.4373
  321MOL0     H42359   7.027   8.860   7.403  0.7539  2.4899 -1.9025
  321MOL0     H42360   7.389   9.274   7.514 -3.4616 -1.2903 -0.8213
  321MOL0     H42361   7.623   9.229   7.591  0.9356 -0.2079  0.2152
  321MOL0     H42362   7.796   9.104   7.594 -1.1316 -1.2289 -1.9258
  321MOL0     H42363   7.812   8.923   7.612  0.8607 -0.3304  1.6867
  321MOL0     H42364   7.929   9.105   7.818  2.1836  0.1162 -0.8119
  321MOL0     H42365   7.923   8.934   7.811  1.4856 -1.3754  0.0969
  321MOL0     H42366   8.060   8.917   7.606 -1.6657  0.8628 -2.3280
  321MOL0     H42367   8.131   9.012   7.735  0.6986 -0.7753 -1.0515
  321MOL0     H42368   8.173   9.119   7.520  0.7373 -0.9018  2.2821
  321MOL0     H42369   7.999   9.103   7.462  0.5901  2.2005 -1.4904
  321MOL0     H42370   7.966   9.456   7.654  2.1825  1.1244 -0.9792
  321MOL0     H42371   7.483   8.877   7.793 -2.7816 -0.1241 -1.2258
  321MOL0     H42372   7.253   8.932   7.737  1.2333 -1.8310  1.1748
  322MOL0     O42373   0.526   3.218   6.427  0.1620 -0.4118 -0.3224
  322MOL0     C42374   0.572   3.327   6.377  0.6086  0.0654  0.9704
  322MOL0     O42375   0.493   3.431   6.322  0.0867 -0.1810  0.1459
  322MOL0     C42376   0.369   3.462   6.373  1.0430 -0.5323 -0.7179
  322MOL0     C42377   0.352   3.576   6.467  0.8211 -0.6079  0.0516
  322MOL0     C42378   0.222   3.588   6.517  0.5166 -0.1445  0.2742
  322MOL0     C42379   0.115   3.501   6.494 -0.2970  0.2287  0.3646
  322MOL0     O42380  -0.015   3.476   6.548  0.4222  0.0699  0.2616
  322MOL0     C42381  -0.085   3.576   6.617  0.2788 -0.4620 -0.0082
  322MOL0     C42382  -0.234   3.536   6.631 -0.2303 -0.0871 -0.3989
  322MOL0     C42383  -0.305   3.638   6.718  0.1284 -0.4048 -0.3892
  322MOL0     C42384  -0.447   3.594   6.742  0.2703  0.0163 -0.3181
  322MOL0     C42385  -0.537   3.708   6.795 -0.0477  0.3022 -0.4939
  322MOL0     C42386  -0.686   3.656   6.813 -0.0266 -0.6581 -0.3923
  322MOL0     C42387  -0.782   3.768   6.850  0.0130 -0.8535 -0.1891
  322MOL0     C42388  -0.923   3.709   6.875  0.1847 -0.3923 -0.2215
  322MOL0     N42389  -0.998   3.679   6.752 -0.5406 -0.1225  0.4720
  322MOL0     C42390  -1.122   3.619   6.751  0.0117  0.2840  0.5707
  322MOL0     C42391  -1.171   3.639   6.627 -1.1140 -0.4128  0.2359
  322MOL0     C42392  -1.308   3.587   6.583 -0.4318  0.6594 -0.1811
  322MOL0     C42393  -1.299   3.532   6.445  0.1814 -0.1128  0.7189
  322MOL0     C42394  -1.427   3.471   6.386 -0.1241 -0.2193  0.2220
  322MOL0     C42395  -1.413   3.420   6.237  0.2155  0.2517  0.5076
  322MOL0     O42396  -1.403   3.549   6.161  0.3620  0.3219  0.6695
  322MOL0     C42397  -1.521   3.583   6.093  0.0145 -0.2736 -0.4179
  322MOL0     C42398  -1.601   3.684   6.147  0.2176 -0.4663  0.4806
  322MOL0     C42399  -1.721   3.713   6.079  0.3220  0.2125 -0.0120
  322MOL0     C42400  -1.739   3.682   5.937 -0.2524 -0.1785 -0.2561
  322MOL0     C42401  -1.847   3.739   5.861  0.1464 -0.2168 -0.4899
  322MOL0     O42402  -1.863   3.685   5.739  0.9611 -0.6654  0.4138
  322MOL0     C42403  -1.973   3.730   5.659 -0.3944 -0.4217  0.7408
  322MOL0     C42404  -2.100   3.691   5.685 -0.2380  0.8098  0.3228
  322MOL0     C42405  -2.208   3.727   5.605 -1.6696  0.4793 -0.7630
  322MOL0     C42406  -2.188   3.812   5.502  0.0117 -0.6864  0.0103
  322MOL0     O42407  -2.293   3.858   5.429 -0.1892  0.3987  0.1536
  322MOL0     C42408  -2.346   3.980   5.485  0.1284  0.5082 -0.7196
  322MOL0     C42409  -2.444   4.032   5.384  0.0338  0.3729 -0.0179
  322MOL0     C42410  -2.484   4.176   5.402  0.1226 -0.6842 -0.0270
  322MOL0     C42411  -2.563   4.210   5.533  0.1786  0.3918  0.6190
  322MOL0     C42412  -2.581   4.355   5.555 -0.3260 -0.1771  0.0128
  322MOL0     C42413  -2.659   4.439   5.444 -0.0766 -0.1957 -0.3485
  322MOL0     C42414  -2.714   4.573   5.493 -0.3540 -1.4906  0.0032
  322MOL0     C42415  -2.729   4.672   5.380  0.1728  0.2015  0.1257
  322MOL0    Cl42416  -2.784   4.829   5.452 -0.1332  0.1772 -0.3326
  322MOL0     C42417  -2.057   3.854   5.476 -0.8829 -0.4621  0.0485
  322MOL0     C42418  -1.949   3.798   5.549  0.2575 -0.2363 -0.3289
  322MOL0     O42419  -1.909   3.836   5.909 -0.1865 -0.1381  0.4194
  322MOL0     C42420  -1.638   3.602   5.883 -0.4353  0.7069  0.6546
  322MOL0     C42421  -1.531   3.550   5.961  0.9635  0.4262 -0.4587
  322MOL0     N42422  -1.084   3.718   6.558 -0.2976  1.0828  0.0286
  322MOL0     N42423  -0.978   3.743   6.629  0.1682  0.6988  0.0449
  322MOL0     C42424   0.142   3.396   6.400  0.5037 -0.2283 -0.2243
  322MOL0     C42425   0.263   3.382   6.338 -0.0370 -0.2092 -0.3735
  322MOL0     C42426   0.717   3.340   6.356  0.1777 -0.2023  0.7181
  322MOL0     C42427   0.802   3.247   6.408 -0.6839  0.5505  0.2911
  322MOL0     C42428   0.940   3.255   6.404 -0.3050 -0.5921 -0.2925
  322MOL0     C42429   0.997   3.368   6.340 -0.4968  0.2110  0.5879
  322MOL0     O42430   1.131   3.383   6.333  0.7114 -0.2857 -0.4006
  322MOL0     C42431   1.178   3.493   6.407  0.4434 -0.6735  0.3903
  322MOL0     C42432   1.327   3.499   6.380 -0.1130  1.0740  0.4750
  322MOL0     C42433   1.397   3.357   6.414  0.5205 -0.7807 -0.1722
  322MOL0     C42434   1.407   3.269   6.289 -0.3142  0.5139  0.0791
  322MOL0     C42435   1.534   3.283   6.209 -0.6672  0.7351 -0.1590
  322MOL0     C42436   1.635   3.288   6.142  0.0649  0.0793  0.8733
  322MOL0     C42437   0.912   3.457   6.267 -0.0170 -0.5645 -0.1593
  322MOL0     C42438   0.775   3.442   6.279  0.5496  0.4465  0.3203
  322MOL0     H42439   0.433   3.632   6.512  0.5196 -0.3929  0.3267
  322MOL0     H42440   0.214   3.658   6.600  2.2874  1.1144 -0.5680
  322MOL0     H42441  -0.085   3.675   6.572 -0.6432 -1.5385 -2.5367
  322MOL0     H42442  -0.044   3.585   6.718 -2.3962  1.3307  1.0352
  322MOL0     H42443  -0.220   3.444   6.688  4.3506  2.2410  2.8875
  322MOL0     H42444  -0.280   3.516   6.534 -0.9645 -2.6702  0.4133
  322MOL0     H42445  -0.305   3.738   6.675 -0.1980  0.4576  1.5068
  322MOL0     H42446  -0.253   3.655   6.813 -0.0783 -1.7422 -0.0192
  322MOL0     H42447  -0.486   3.540   6.656 -2.4092 -2.4268  2.2320
  322MOL0     H42448  -0.436   3.517   6.818  2.8613 -0.9867 -1.5696
  322MOL0     H42449  -0.535   3.788   6.721 -0.1461  1.8883  1.1533
  322MOL0     H42450  -0.509   3.741   6.896  2.9527  1.1539 -1.5095
  322MOL0     H42451  -0.675   3.590   6.899  0.6425 -1.3121 -0.9566
  322MOL0     H42452  -0.710   3.589   6.729  0.9191 -1.4189 -0.0696
  322MOL0     H42453  -0.759   3.819   6.943 -0.3728 -2.4005  0.7913
  322MOL0     H42454  -0.779   3.847   6.774 -0.4598  2.4215  2.9279
  322MOL0     H42455  -0.978   3.760   6.954  1.5749 -3.0501  2.6653
  322MOL0     H42456  -0.905   3.608   6.913  2.1972  0.8686  2.4805
  322MOL0     H42457  -1.176   3.562   6.826  1.1016 -0.3981  0.8715
  322MOL0     H42458  -1.371   3.676   6.589 -1.7881 -0.3689  1.9347
  322MOL0     H42459  -1.345   3.510   6.652  1.4499 -0.4123 -0.2913
  322MOL0     H42460  -1.232   3.445   6.448 -2.1976 -2.0968 -0.1782
  322MOL0     H42461  -1.260   3.610   6.378 -0.7180 -0.9535 -0.8529
  322MOL0     H42462  -1.471   3.387   6.440  0.0972  0.1804  1.0371
  322MOL0     H42463  -1.497   3.554   6.391  3.4224  3.0314  0.8696
  322MOL0     H42464  -1.501   3.360   6.214  1.7865 -0.7243 -3.8028
  322MOL0     H42465  -1.332   3.347   6.229  0.0858  0.2081 -0.6249
  322MOL0     H42466  -1.577   3.726   6.245  0.7515 -0.4993  0.3631
  322MOL0     H42467  -1.800   3.766   6.129  1.5051  2.0221  0.0297
  322MOL0     H42468  -2.115   3.629   5.773 -0.1990  0.3245 -0.0023
  322MOL0     H42469  -2.305   3.686   5.634 -0.4058 -0.6990  2.2411
  322MOL0     H42470  -2.272   4.059   5.501 -0.0623  0.5445  0.0166
  322MOL0     H42471  -2.392   3.961   5.583  2.5137  0.8003  0.5434
  322MOL0     H42472  -2.537   3.975   5.384 -0.0889  0.4567 -2.7452
  322MOL0     H42473  -2.408   4.012   5.283  1.1368  0.6872  0.2909
  322MOL0     H42474  -2.546   4.194   5.314 -0.7005  0.9759  0.8655
  322MOL0     H42475  -2.393   4.237   5.394 -0.1602  0.0695  1.9724
  322MOL0     H42476  -2.661   4.165   5.519  0.2191  0.2698  0.7288
  322MOL0     H42477  -2.507   4.166   5.616  4.1247  1.6114 -1.1628
  322MOL0     H42478  -2.481   4.389   5.585  0.6040 -3.3752  0.9703
  322MOL0     H42479  -2.642   4.362   5.646 -0.9834 -0.0177 -0.4359
  322MOL0     H42480  -2.737   4.379   5.397 -1.9189 -1.3650  3.7354
  322MOL0     H42481  -2.582   4.458   5.368 -1.4841 -2.2153 -2.4274
  322MOL0     H42482  -2.812   4.550   5.536 -0.0806 -0.6697  1.1132
  322MOL0     H42483  -2.650   4.604   5.576  1.5551 -0.9504 -1.6012
  322MOL0     H42484  -2.805   4.630   5.314  0.8310 -1.2788  0.2613
  322MOL0     H42485  -2.633   4.681   5.328 -0.1716  0.6277 -0.4546
  322MOL0     H42486  -2.043   3.928   5.398 -0.3749 -0.8665 -0.2492
  322MOL0     H42487  -1.852   3.835   5.515 -1.5373  2.3736 -3.1447
  322MOL0     H42488  -1.651   3.564   5.782 -0.0554  4.3917 -0.9317
  322MOL0     H42489  -1.459   3.492   5.904 -0.0468 -0.7140 -0.6237
  322MOL0     H42490   0.063   3.323   6.382 -0.5268  0.2763  1.9937
  322MOL0     H42491   0.279   3.307   6.261 -0.2718  2.4979 -3.2816
  322MOL0     H42492   0.768   3.162   6.466  1.7142  0.4032  1.6526
  322MOL0     H42493   1.018   3.208   6.463  1.7161  1.7283 -0.9868
  322MOL0     H42494   1.146   3.490   6.512 -0.8405  2.1404  0.1885
  322MOL0     H42495   1.135   3.588   6.374  2.9260  0.0334 -1.0765
  322MOL0     H42496   1.351   3.514   6.275  1.3880 -2.8026  0.0782
  322MOL0     H42497   1.378   3.585   6.423  3.7043  0.6196 -2.5689
  322MOL0     H42498   1.341   3.308   6.494 -2.5160  0.7351 -1.1960
  322MOL0     H42499   1.497   3.368   6.455 -0.0176 -0.8492  1.2006
  322MOL0     H42500   1.398   3.166   6.324 -1.7847  0.2102 -1.0848
  322MOL0     H42501   1.317   3.280   6.228 -1.4897  3.1437  2.0791
  322MOL0     H42502   1.718   3.291   6.075  0.2007 -2.2148  0.8532
  322MOL0     H42503   0.943   3.543   6.209  0.1212  0.5484  1.4668
  322MOL0     H42504   0.705   3.499   6.219 -0.6759 -1.8113 -0.5265
  323MOL0     O42505   7.738   9.025   5.484  0.5035  0.6085  0.6518
  323MOL0     C42506   7.710   9.131   5.532  0.1276 -0.5253  0.3333
  323MOL0     O42507   7.589   9.166   5.585  1.2900 -0.2773 -0.1434
  323MOL0     C42508   7.485   9.075   5.592  0.0286  0.0292 -0.0898
  323MOL0     C42509   7.359   9.140   5.610  0.8272 -0.1754  0.1457
  323MOL0     C42510   7.234   9.063   5.612  0.6539  0.4086  0.3373
  323MOL0     C42511   7.246   8.926   5.611 -0.2961 -0.0057 -0.3627
  323MOL0     O42512   7.140   8.838   5.598 -0.0208 -0.0235 -0.4957
  323MOL0     C42513   7.011   8.884   5.632  0.7485  1.1646  0.0259
  323MOL0     C42514   6.912   8.771   5.643 -0.0958 -0.2232 -0.1868
  323MOL0     C42515   6.767   8.818   5.668  0.6066 -1.4161 -0.0466
  323MOL0     C42516   6.666   8.706   5.665 -0.7693 -0.2989  0.2838
  323MOL0     C42517   6.514   8.730   5.685  0.0235 -0.1844  0.5161
  323MOL0     C42518   6.483   8.813   5.813  0.3688  0.5430 -0.4641
  323MOL0     C42519   6.353   8.893   5.823  0.0452  0.7373  0.3055
  323MOL0     C42520   6.225   8.808   5.810  0.1783 -0.7299 -0.6351
  323MOL0     N42521   6.195   8.758   5.670 -0.7438 -0.4976  0.0203
  323MOL0     C42522   6.164   8.631   5.637 -0.5873 -0.8897  0.5914
  323MOL0     C42523   6.148   8.628   5.504 -0.3767  0.3874 -0.1292
  323MOL0     C42524   6.130   8.493   5.432 -0.2781 -0.3050 -0.9648
  323MOL0     C42525   5.984   8.455   5.430  0.2293 -0.0617 -0.5647
  323MOL0     C42526   5.894   8.533   5.339 -0.1926  0.8365 -0.3003
  323MOL0     C42527   5.749   8.534   5.380 -0.2103  0.2652 -0.0389
  323MOL0     O42528   5.679   8.624   5.299  0.7355 -0.2779 -0.1439
  323MOL0     C42529   5.546   8.608   5.269 -0.1548 -0.6682 -0.4594
  323MOL0     C42530   5.490   8.687   5.170 -0.5394 -0.9899  0.5346
  323MOL0     C42531   5.351   8.686   5.140 -0.3535 -0.3227 -0.6013
  323MOL0     C42532   5.261   8.605   5.220 -0.3540 -0.8005  0.1383
  323MOL0     C42533   5.123   8.579   5.179 -0.2989  0.1190  0.7142
  323MOL0     O42534   5.038   8.513   5.263 -0.4908  0.8457  0.0957
  323MOL0     C42535   4.906   8.498   5.226  0.2080 -0.5062 -0.4680
  323MOL0     C42536   4.793   8.581   5.217 -1.9768 -0.3254 -0.0590
  323MOL0     C42537   4.670   8.537   5.196  0.0732 -0.0498 -0.3830
  323MOL0     C42538   4.631   8.408   5.191 -1.1724 -0.0945  0.7853
  323MOL0     O42539   4.510   8.363   5.155  0.0061  0.5111  0.1986
  323MOL0     C42540   4.407   8.458   5.125  0.4233 -0.3116 -0.0459
  323MOL0     C42541   4.272   8.388   5.117  0.6285  0.7799 -0.6542
  323MOL0     C42542   4.217   8.355   5.260 -0.2335  0.2752 -0.0782
  323MOL0     C42543   4.090   8.277   5.251 -0.2624 -0.0234  0.1078
  323MOL0     C42544   4.042   8.240   5.396  1.1681 -0.3940  0.0134
  323MOL0     C42545   3.907   8.159   5.377 -0.0163 -0.8257  0.0654
  323MOL0     C42546   3.786   8.252   5.351  0.4054 -0.2162  1.0605
  323MOL0     C42547   3.658   8.169   5.355  0.1377  0.0696  0.3899
  323MOL0    Cl42548   3.636   8.067   5.201 -0.4661  0.4798 -0.4335
  323MOL0     C42549   4.741   8.316   5.195  0.5770  0.4995  0.3491
  323MOL0     C42550   4.871   8.362   5.207 -0.7809 -0.4519  0.0526
  323MOL0     O42551   5.094   8.636   5.074  0.0773  0.2957  0.2248
  323MOL0     C42552   5.319   8.523   5.317 -0.6108  0.0911 -1.0837
  323MOL0     C42553   5.453   8.523   5.352 -0.1331 -0.2034  0.7223
  323MOL0     N42554   6.153   8.759   5.451  0.7854 -0.7716 -0.1560
  323MOL0     N42555   6.186   8.834   5.559  0.6716 -0.5179  0.1849
  323MOL0     C42556   7.368   8.865   5.621  0.2407 -0.0231  0.5173
  323MOL0     C42557   7.485   8.931   5.605  0.5535 -1.0122  0.3354
  323MOL0     C42558   7.814   9.237   5.529  0.0568  0.1627  0.1536
  323MOL0     C42559   7.925   9.206   5.458 -0.5370  0.1007  0.3071
  323MOL0     C42560   8.037   9.283   5.461 -0.1606  0.7480  0.2606
  323MOL0     C42561   8.039   9.406   5.522 -0.0532 -0.8483 -0.1546
  323MOL0     O42562   8.151   9.491   5.520 -0.1302  1.4526 -0.2678
  323MOL0     C42563   8.279   9.431   5.508  0.2127 -0.4710  1.1099
  323MOL0     C42564   8.336   9.356   5.636  0.9989 -0.2359 -0.0732
  323MOL0     C42565   8.479   9.301   5.633  0.5312 -0.0919  0.0329
  323MOL0     C42566   8.591   9.405   5.583  0.3071 -0.2434  0.2707
  323MOL0     C42567   8.591   9.509   5.690 -0.4728 -0.4409  0.1046
  323MOL0     C42568   8.619   9.603   5.769  0.1178 -0.3817 -0.7133
  323MOL0     C42569   7.923   9.445   5.591  0.3748  0.1547 -0.2444
  323MOL0     C42570   7.813   9.354   5.599  0.5447  0.9908 -0.3648
  323MOL0     H42571   7.357   9.248   5.600 -1.8165 -0.3449 -3.0137
  323MOL0     H42572   7.139   9.115   5.625  1.8457  2.6807  0.5380
  323MOL0     H42573   6.975   8.957   5.559 -2.0657  1.6842  1.7466
  323MOL0     H42574   7.023   8.921   5.735  2.3333  0.0903  0.2547
  323MOL0     H42575   6.952   8.695   5.712  0.1899  0.9733  0.9988
  323MOL0     H42576   6.921   8.722   5.546  1.0526 -0.1340 -0.1330
  323MOL0     H42577   6.737   8.881   5.584 -0.7526 -4.3742 -1.9304
  323MOL0     H42578   6.763   8.878   5.759  2.2642 -1.8832  0.3650
  323MOL0     H42579   6.668   8.661   5.565 -2.6995  1.7163 -0.7390
  323MOL0     H42580   6.707   8.630   5.733  1.9773  0.1146 -0.7727
  323MOL0     H42581   6.454   8.639   5.692 -0.3322  0.1425  2.6513
  323MOL0     H42582   6.479   8.779   5.594 -1.2930 -3.0952 -0.6508
  323MOL0     H42583   6.547   8.901   5.810 -0.1351  1.0053  1.3100
  323MOL0     H42584   6.497   8.750   5.901 -1.9301  0.5520 -0.0188
  323MOL0     H42585   6.349   8.946   5.919 -1.4147  0.2628  0.5289
  323MOL0     H42586   6.346   8.967   5.742 -0.1631 -0.4423 -0.7838
  323MOL0     H42587   6.141   8.869   5.841  0.6565  0.6466 -1.9230
  323MOL0     H42588   6.228   8.721   5.876 -0.3928 -0.4427 -0.2334
  323MOL0     H42589   6.158   8.553   5.712 -0.2267 -2.1222 -0.6237
  323MOL0     H42590   6.176   8.414   5.493  2.9980  0.6058 -2.0373
  323MOL0     H42591   6.175   8.498   5.333 -3.5413 -2.8352 -2.7738
  323MOL0     H42592   5.932   8.442   5.526 -0.0854 -1.8584 -0.9330
  323MOL0     H42593   5.974   8.350   5.398 -1.9874 -0.6718  1.7442
  323MOL0     H42594   5.932   8.636   5.335  0.7554  0.4697 -1.3049
  323MOL0     H42595   5.907   8.498   5.237  1.3340 -0.5897  0.3301
  323MOL0     H42596   5.752   8.559   5.486  1.6221 -2.8176  0.7590
  323MOL0     H42597   5.704   8.436   5.366  1.1861 -0.6734  1.6918
  323MOL0     H42598   5.556   8.750   5.112  0.1483 -1.8494  0.3621
  323MOL0     H42599   5.329   8.741   5.049  2.5360  2.4305  0.1805
  323MOL0     H42600   4.811   8.687   5.232  0.8358 -0.7000 -0.2534
  323MOL0     H42601   4.604   8.622   5.182 -1.3908 -0.8578  1.2644
  323MOL0     H42602   4.423   8.504   5.027  0.7449 -0.2044  0.0547
  323MOL0     H42603   4.394   8.539   5.198  0.8453 -0.4609  0.2049
  323MOL0     H42604   4.280   8.301   5.051  0.0153 -1.6117  2.1974
  323MOL0     H42605   4.206   8.464   5.074  2.1227  2.0665 -0.7087
  323MOL0     H42606   4.201   8.441   5.325  1.4724 -0.0746  0.8796
  323MOL0     H42607   4.295   8.294   5.305 -0.1199  0.4514 -0.0327
  323MOL0     H42608   4.015   8.334   5.195  2.1339  3.4752  0.1550
  323MOL0     H42609   4.113   8.188   5.192  0.1456 -0.3910  0.8088
  323MOL0     H42610   4.030   8.325   5.463  1.3159 -0.3979  0.0455
  323MOL0     H42611   4.117   8.178   5.445  2.5447  1.2795  0.1115
  323MOL0     H42612   3.883   8.107   5.470 -1.8429  2.0177  1.2951
  323MOL0     H42613   3.924   8.078   5.305  2.2644 -0.2719 -0.1098
  323MOL0     H42614   3.759   8.321   5.431  1.3295  4.5376 -2.2844
  323MOL0     H42615   3.788   8.303   5.254 -2.6421 -0.4000  0.8019
  323MOL0     H42616   3.571   8.229   5.383  0.6794  1.3678 -0.6127
  323MOL0     H42617   3.663   8.099   5.439  2.0750  0.5187  0.6899
  323MOL0     H42618   4.723   8.209   5.192  0.2711  0.5556  0.1447
  323MOL0     H42619   4.944   8.283   5.193  0.4002  0.3718  1.3865
  323MOL0     H42620   5.253   8.458   5.374 -0.1341 -1.1118 -1.8427
  323MOL0     H42621   5.493   8.461   5.432 -2.3913 -2.0085  0.5512
  323MOL0     H42622   7.357   8.759   5.638 -2.4459 -0.4568 -2.8510
  323MOL0     H42623   7.577   8.874   5.600  0.6574 -0.7667 -1.2252
  323MOL0     H42624   7.949   9.123   5.392  1.1030  2.3096 -2.1073
  323MOL0     H42625   8.113   9.237   5.398 -0.6240  1.0158 -0.5073
  323MOL0     H42626   8.349   9.508   5.476  2.2486 -2.5880  0.1855
  323MOL0     H42627   8.282   9.367   5.419  0.4385 -3.0623  2.8727
  323MOL0     H42628   8.341   9.421   5.724  1.0019 -2.4754  1.6632
  323MOL0     H42629   8.269   9.277   5.670  1.3413  0.5180  2.5911
  323MOL0     H42630   8.478   9.208   5.575 -1.1840 -2.5624  3.6194
  323MOL0     H42631   8.504   9.263   5.733 -0.1822 -0.5448  0.0512
  323MOL0     H42632   8.695   9.372   5.572  1.5964  2.4315  3.1842
  323MOL0     H42633   8.560   9.455   5.491 -0.1752  0.8222  0.9955
  323MOL0     H42634   8.630   9.676   5.847 -0.1845 -1.2546  0.1782
  323MOL0     H42635   7.919   9.545   5.633 -0.7284 -0.0948  0.2944
  323MOL0     H42636   7.721   9.395   5.640 -0.2487  4.1635 -4.6668
  324MOL0     O42637   2.943   3.499   4.438  0.4491  0.2488  0.1742
  324MOL0     C42638   3.003   3.439   4.529 -0.0275  0.4917  0.2322
  324MOL0     O42639   2.961   3.415   4.654  0.4372  0.7076 -0.0648
  324MOL0     C42640   2.847   3.469   4.706  0.2067 -0.3687  0.3720
  324MOL0     C42641   2.733   3.402   4.748  0.5513 -0.2130  0.4797
  324MOL0     C42642   2.623   3.464   4.805 -0.1893 -0.8282  0.4478
  324MOL0     C42643   2.613   3.602   4.804  0.5274  0.0058  0.7192
  324MOL0     O42644   2.508   3.673   4.854 -0.4599  0.4607 -0.4117
  324MOL0     C42645   2.379   3.608   4.905 -0.2634 -0.0256  0.1363
  324MOL0     C42646   2.260   3.701   4.892 -0.9721 -0.5866  0.6891
  324MOL0     C42647   2.125   3.627   4.894  0.3570  0.9082 -0.1739
  324MOL0     C42648   2.007   3.723   4.891  0.7937 -0.0020 -0.1996
  324MOL0     C42649   1.876   3.650   4.920 -0.3664  0.3773  0.3195
  324MOL0     C42650   1.753   3.734   4.886 -0.4075  0.2138 -0.5295
  324MOL0     C42651   1.621   3.661   4.911 -0.7112  0.3881 -0.4062
  324MOL0     C42652   1.576   3.699   5.057 -0.5853 -0.2506  0.3948
  324MOL0     N42653   1.454   3.632   5.103  0.1625 -0.6051  0.3572
  324MOL0     C42654   1.331   3.690   5.087 -0.3744 -0.0100 -0.7046
  324MOL0     C42655   1.243   3.613   5.160 -0.4565  0.2200  0.4451
  324MOL0     C42656   1.103   3.630   5.140 -0.1251 -0.1329 -0.3020
  324MOL0     C42657   1.034   3.696   5.271 -0.0681  0.1969  0.9934
  324MOL0     C42658   0.888   3.650   5.278  0.0502  0.0973  0.0289
  324MOL0     C42659   0.823   3.729   5.389 -0.7916  1.0750  0.2898
  324MOL0     O42660   0.683   3.679   5.376  0.3901  0.4827  0.3028
  324MOL0     C42661   0.585   3.743   5.447  0.5517  0.5097 -0.3572
  324MOL0     C42662   0.457   3.687   5.449 -0.4403 -0.1517  0.7495
  324MOL0     C42663   0.350   3.732   5.526 -0.7426  0.1759 -0.9404
  324MOL0     C42664   0.374   3.840   5.613 -0.1306  1.1566  0.5556
  324MOL0     C42665   0.274   3.877   5.711  0.7057  0.4355  0.5922
  324MOL0     O42666   0.176   3.780   5.727  0.1648 -0.3608  0.0992
  324MOL0     C42667   0.060   3.827   5.786  0.4263 -0.1452 -1.2675
  324MOL0     C42668  -0.019   3.944   5.759 -0.3428  0.5851  0.2072
  324MOL0     C42669  -0.147   3.948   5.811 -0.5288 -0.5268  0.0843
  324MOL0     C42670  -0.201   3.849   5.905 -0.2668 -0.1107  0.1693
  324MOL0     O42671  -0.326   3.850   5.958 -0.1135 -0.5147 -0.3106
  324MOL0     C42672  -0.414   3.956   5.910 -0.6670 -1.1770 -0.0468
  324MOL0     C42673  -0.543   3.970   5.979  0.2468 -0.0193  0.6368
  324MOL0     C42674  -0.635   4.061   5.904 -0.9408  0.4777 -0.4016
  324MOL0     C42675  -0.774   4.051   5.962 -0.6011  0.0348 -0.8849
  324MOL0     C42676  -0.862   4.167   5.902 -0.6465  0.0739 -0.2627
  324MOL0     C42677  -1.004   4.168   5.964  0.2340  0.0420  0.4927
  324MOL0     C42678  -1.071   4.303   5.913 -0.4641  0.8490 -0.8859
  324MOL0     C42679  -1.215   4.324   5.964  0.1829  0.5457 -0.2288
  324MOL0    Cl42680  -1.268   4.487   5.913  0.0723  0.1363  0.0289
  324MOL0     C42681  -0.121   3.744   5.933  0.0030 -0.3601 -0.4444
  324MOL0     C42682   0.004   3.735   5.874  0.4316  0.4155 -0.8837
  324MOL0     O42683   0.282   3.978   5.781  0.2231  0.2305  0.5590
  324MOL0     C42684   0.503   3.902   5.617 -0.2329 -0.1050 -0.4230
  324MOL0     C42685   0.607   3.853   5.538 -0.8182  0.0877 -0.0258
  324MOL0     N42686   1.316   3.511   5.210  0.4421 -0.2481 -0.2384
  324MOL0     N42687   1.439   3.523   5.185 -0.3497  0.0641  0.0278
  324MOL0     C42688   2.722   3.678   4.751  0.4168 -0.3569  0.4510
  324MOL0     C42689   2.842   3.610   4.711 -0.4409  0.1424 -0.2903
  324MOL0     C42690   3.128   3.370   4.505  0.1018 -0.6375 -0.0301
  324MOL0     C42691   3.183   3.283   4.600  0.1415  0.8150  0.0296
  324MOL0     C42692   3.306   3.213   4.582 -0.7618  0.3468  0.0341
  324MOL0     C42693   3.376   3.246   4.462 -0.0113  0.4138  1.0649
  324MOL0     O42694   3.506   3.212   4.434  0.1794 -0.8885 -0.7422
  324MOL0     C42695   3.595   3.188   4.538  0.0367 -0.1499 -0.5194
  324MOL0     C42696   3.731   3.147   4.491  0.2422 -1.0584 -0.5254
  324MOL0     C42697   3.848   3.187   4.584  0.2312 -0.2983  0.4441
  324MOL0     C42698   3.993   3.137   4.553 -0.6486 -0.3632  0.3048
  324MOL0     C42699   4.106   3.190   4.643 -0.1914  0.6806 -0.5348
  324MOL0     C42700   4.198   3.243   4.702 -0.4149  0.1783  0.3300
  324MOL0     C42701   3.325   3.338   4.366  0.6150 -0.1017  0.4655
  324MOL0     C42702   3.200   3.393   4.388  0.5586  0.6121 -0.3467
  324MOL0     H42703   2.738   3.297   4.719  1.1874 -0.0266 -0.1213
  324MOL0     H42704   2.551   3.404   4.860  0.6460  0.2617  2.8876
  324MOL0     H42705   2.390   3.574   5.008  0.3622  0.9296  0.3978
  324MOL0     H42706   2.349   3.527   4.839  1.8522 -1.5505  0.9458
  324MOL0     H42707   2.273   3.761   4.802  1.4677 -0.0849  1.3180
  324MOL0     H42708   2.264   3.785   4.963  1.9988  0.7610 -0.8878
  324MOL0     H42709   2.109   3.568   4.985  0.1120 -0.2080 -0.9253
  324MOL0     H42710   2.109   3.561   4.808  0.8193 -2.4140  2.1088
  324MOL0     H42711   2.018   3.800   4.968  1.6932 -0.0367 -0.2762
  324MOL0     H42712   1.993   3.772   4.794  0.2832  2.6056  1.1072
  324MOL0     H42713   1.882   3.623   5.026  0.4680 -0.3835  0.0985
  324MOL0     H42714   1.861   3.564   4.854 -1.5053  1.2215 -0.5637
  324MOL0     H42715   1.764   3.764   4.782  0.7261  0.7091 -0.2795
  324MOL0     H42716   1.751   3.831   4.936 -1.8086 -0.6687  1.2578
  324MOL0     H42717   1.549   3.696   4.837 -0.9604  0.1673 -0.2718
  324MOL0     H42718   1.635   3.553   4.901 -3.7370 -0.0349 -0.8067
  324MOL0     H42719   1.554   3.806   5.061 -2.4639 -0.5282 -1.1297
  324MOL0     H42720   1.655   3.666   5.126 -1.6861 -3.3327  0.3647
  324MOL0     H42721   1.314   3.777   5.024  1.6818 -0.4858 -2.0073
  324MOL0     H42722   1.063   3.529   5.150  3.5524 -1.4884  2.8156
  324MOL0     H42723   1.084   3.674   5.042  1.2731 -2.8179 -1.8820
  324MOL0     H42724   1.042   3.805   5.262  3.0692  0.1121  1.5582
  324MOL0     H42725   1.084   3.675   5.367 -2.0552  0.5494  2.1590
  324MOL0     H42726   0.833   3.657   5.184 -1.1497 -0.5465  0.6485
  324MOL0     H42727   0.890   3.541   5.295  0.3409 -0.1779 -1.5977
  324MOL0     H42728   0.820   3.839   5.381 -1.8463  1.0144 -0.5426
  324MOL0     H42729   0.868   3.714   5.487  3.1850  4.3226 -0.7841
  324MOL0     H42730   0.434   3.610   5.377  2.0414 -0.6740  0.4141
  324MOL0     H42731   0.254   3.682   5.516 -0.1701 -0.9657 -0.9852
  324MOL0     H42732   0.009   4.024   5.691  0.7042 -2.0968 -2.7844
  324MOL0     H42733  -0.208   4.026   5.766  0.2685 -1.4985 -2.9499
  324MOL0     H42734  -0.428   3.946   5.802  1.8995  2.6066 -0.9227
  324MOL0     H42735  -0.362   4.051   5.923  0.5394 -1.7979 -0.2096
  324MOL0     H42736  -0.528   4.007   6.081 -3.4179  2.3095  0.5059
  324MOL0     H42737  -0.595   3.873   5.983  2.7251 -1.4301  0.7981
  324MOL0     H42738  -0.634   4.034   5.798  2.1282 -1.9667  0.1225
  324MOL0     H42739  -0.602   4.166   5.905 -0.5939  0.4748 -3.3447
  324MOL0     H42740  -0.813   3.953   5.933 -1.3634 -0.4661  1.5869
  324MOL0     H42741  -0.774   4.050   6.071 -0.3135 -2.2624 -0.8539
  324MOL0     H42742  -0.857   4.172   5.793  1.5370  2.7525 -0.1622
  324MOL0     H42743  -0.815   4.259   5.939  1.1695  1.0698 -4.4420
  324MOL0     H42744  -0.987   4.174   6.072  1.2836 -2.0576  0.4914
  324MOL0     H42745  -1.061   4.083   5.925 -0.7746  0.5923  0.7257
  324MOL0     H42746  -1.028   4.399   5.942 -3.8043  2.3643 -0.5219
  324MOL0     H42747  -1.064   4.288   5.804 -1.8722  1.0452 -1.0203
  324MOL0     H42748  -1.213   4.317   6.073  0.8037  0.6168 -0.2272
  324MOL0     H42749  -1.286   4.252   5.923 -0.1609  0.3896  0.6213
  324MOL0     H42750  -0.149   3.672   6.009 -3.4242  2.1533  0.9381
  324MOL0     H42751   0.060   3.644   5.899 -2.1431 -1.4520 -1.4889
  324MOL0     H42752   0.530   3.976   5.691  1.5642 -0.9449 -0.1984
  324MOL0     H42753   0.708   3.892   5.548 -0.4836 -0.6673 -0.3741
  324MOL0     H42754   2.714   3.787   4.751  0.9859 -0.3022 -0.1681
  324MOL0     H42755   2.931   3.662   4.677 -0.5926  0.4948 -0.1554
  324MOL0     H42756   3.128   3.250   4.687 -3.0770  0.9324 -1.8165
  324MOL0     H42757   3.348   3.158   4.667 -0.4438  1.4858  0.6283
  324MOL0     H42758   3.550   3.109   4.599 -0.3710  1.4323  1.3226
  324MOL0     H42759   3.614   3.276   4.600 -0.6414  0.2892 -0.9216
  324MOL0     H42760   3.728   3.040   4.470 -0.0355 -0.8373 -1.6706
  324MOL0     H42761   3.763   3.202   4.402  2.8310 -1.0073  0.3606
  324MOL0     H42762   3.816   3.159   4.685  0.3252 -1.6748  0.1134
  324MOL0     H42763   3.856   3.296   4.576  2.3881 -0.4969 -0.8780
  324MOL0     H42764   3.990   3.028   4.564 -2.5141 -0.4491 -0.5725
  324MOL0     H42765   4.024   3.154   4.449  0.5140  0.6733  0.8015
  324MOL0     H42766   4.275   3.299   4.750  1.5547  0.2066 -2.6307
  324MOL0     H42767   3.373   3.354   4.271  0.0823  0.4373  0.2833
  324MOL0     H42768   3.160   3.455   4.308  0.5097  0.7371 -0.2251
  325MOL0     O42769   0.484   6.798   3.055 -0.7945 -0.2846 -0.2566
  325MOL0     C42770   0.553   6.800   3.155 -0.8379  0.5804  0.1400
  325MOL0     O42771   0.506   6.782   3.280 -0.7050 -0.8570 -0.8823
  325MOL0     C42772   0.374   6.758   3.301 -0.3722  1.0554  0.6392
  325MOL0     C42773   0.304   6.828   3.401 -0.7181 -0.7069  0.0774
  325MOL0     C42774   0.168   6.795   3.431  0.6036 -0.2382  0.2349
  325MOL0     C42775   0.099   6.699   3.362 -0.6403 -1.0428 -0.2351
  325MOL0     O42776  -0.024   6.656   3.384 -0.3728  0.3410  0.1056
  325MOL0     C42777  -0.109   6.768   3.369 -0.0041  1.0094 -0.7872
  325MOL0     C42778  -0.253   6.726   3.404 -0.0861  0.3190  0.1783
  325MOL0     C42779  -0.365   6.820   3.376  1.1465  0.1276 -0.0435
  325MOL0     C42780  -0.383   6.854   3.225  0.0855 -0.3820  0.2831
  325MOL0     C42781  -0.491   6.959   3.190 -0.3092 -0.4472 -0.1574
  325MOL0     C42782  -0.629   6.907   3.205 -0.4238  0.0760  0.2091
  325MOL0     C42783  -0.718   7.023   3.197 -0.5440  0.1633  0.3954
  325MOL0     C42784  -0.867   6.988   3.224 -1.2180 -0.4119 -0.2007
  325MOL0     N42785  -0.956   7.103   3.215  0.9228 -0.6381  0.0256
  325MOL0     C42786  -1.035   7.142   3.103 -0.0229  0.1025 -0.3189
  325MOL0     C42787  -1.119   7.240   3.155 -1.0553  0.8343 -0.1921
  325MOL0     C42788  -1.245   7.282   3.085  0.4530  0.5154  0.7480
  325MOL0     C42789  -1.381   7.237   3.157 -0.4775  0.6339  1.0447
  325MOL0     C42790  -1.505   7.233   3.062  0.5113 -0.0021  1.0836
  325MOL0     C42791  -1.614   7.128   3.104  0.6574 -0.7245 -0.3573
  325MOL0     O42792  -1.726   7.122   3.008 -0.6652 -0.7056 -0.4691
  325MOL0     C42793  -1.841   7.049   3.051  0.4344 -0.4857 -0.5500
  325MOL0     C42794  -1.946   7.041   2.964  0.1055  0.4041 -0.1362
  325MOL0     C42795  -2.068   6.986   3.001 -0.6335  0.2773  0.0295
  325MOL0     C42796  -2.085   6.936   3.134  0.1251 -0.1704  0.3775
  325MOL0     C42797  -2.218   6.887   3.173 -0.0469  1.1833  0.0436
  325MOL0     O42798  -2.315   6.901   3.074 -0.2588  0.2399  0.0396
  325MOL0     C42799  -2.429   6.826   3.092 -0.0156 -0.6101  0.3741
  325MOL0     C42800  -2.442   6.701   3.030 -0.5076 -0.4926  0.8447
  325MOL0     C42801  -2.565   6.627   3.039 -0.4807  1.2016 -0.6234
  325MOL0     C42802  -2.670   6.671   3.128 -0.3249 -0.1051  0.1524
  325MOL0     O42803  -2.790   6.611   3.140  0.2171 -0.1800  0.4654
  325MOL0     C42804  -2.802   6.481   3.073  0.4544 -0.5530  0.2729
  325MOL0     C42805  -2.946   6.439   3.103  0.5908  0.0981 -0.6963
  325MOL0     C42806  -3.047   6.500   3.005 -0.2210  0.2823 -0.5785
  325MOL0     C42807  -3.184   6.432   2.999 -0.0831  0.1937  0.3673
  325MOL0     C42808  -3.291   6.509   2.917  0.0690  0.3287 -0.1562
  325MOL0     C42809  -3.268   6.530   2.773  0.8915 -0.5626  0.9229
  325MOL0     C42810  -3.183   6.423   2.694  1.4431 -0.0233  0.0014
  325MOL0     C42811  -3.255   6.299   2.662  0.9101 -0.4769  0.5274
  325MOL0    Cl42812  -3.378   6.330   2.544 -0.0315  0.1413  0.1703
  325MOL0     C42813  -2.653   6.799   3.186  0.7925  0.3040  0.6636
  325MOL0     C42814  -2.532   6.870   3.173 -0.0658  0.2108  0.3416
  325MOL0     O42815  -2.240   6.842   3.279 -0.1990  0.3734  0.0220
  325MOL0     C42816  -1.974   6.933   3.219 -0.5594  0.4285  0.1910
  325MOL0     C42817  -1.852   6.986   3.177 -0.7079 -1.0413  0.7909
  325MOL0     N42818  -1.080   7.268   3.284  0.5385 -0.1390  0.4099
  325MOL0     N42819  -0.985   7.194   3.316 -1.4833  0.1338  0.1855
  325MOL0     C42820   0.172   6.622   3.269  0.9076 -0.1140 -0.3201
  325MOL0     C42821   0.303   6.652   3.233 -0.4327  0.2327 -0.7945
  325MOL0     C42822   0.696   6.824   3.132  0.2400 -0.2148  0.0824
  325MOL0     C42823   0.742   6.905   3.026 -0.1862  0.4612  0.2306
  325MOL0     C42824   0.879   6.924   3.006  0.0823 -0.2226 -0.0214
  325MOL0     C42825   0.972   6.870   3.097 -0.0181  0.1249 -0.0130
  325MOL0     O42826   1.109   6.877   3.078 -0.2728  0.5445  0.2637
  325MOL0     C42827   1.153   6.935   2.945 -0.1406  0.0628  0.1175
  325MOL0     C42828   1.307   6.897   2.942 -0.3041  0.1279 -1.0333
  325MOL0     C42829   1.390   6.974   3.045  0.5220 -0.0971  0.2442
  325MOL0     C42830   1.432   6.892   3.162  0.6698  0.4296  0.4816
  325MOL0     C42831   1.524   6.781   3.129 -0.1815  0.1272  0.3742
  325MOL0     C42832   1.595   6.692   3.082  0.1784  0.1730 -0.6894
  325MOL0     C42833   0.922   6.799   3.208  0.3601  0.3119 -0.0831
  325MOL0     C42834   0.783   6.778   3.225 -0.9084  0.0329  0.3673
  325MOL0     H42835   0.349   6.906   3.461  2.6226 -2.6129  0.2943
  325MOL0     H42836   0.112   6.855   3.502 -1.8380  0.8212 -2.3691
  325MOL0     H42837  -0.102   6.805   3.266 -0.3677  0.1317 -1.1400
  325MOL0     H42838  -0.081   6.849   3.437  1.5520 -0.5604  0.5380
  325MOL0     H42839  -0.248   6.707   3.511 -0.8184 -1.3227 -0.0562
  325MOL0     H42840  -0.273   6.634   3.349  0.3429  1.2989 -1.7381
  325MOL0     H42841  -0.338   6.912   3.427 -0.9825  1.3940 -1.0646
  325MOL0     H42842  -0.456   6.785   3.426  0.0330 -0.5186 -2.3844
  325MOL0     H42843  -0.289   6.898   3.188 -0.6306  0.1128 -1.0219
  325MOL0     H42844  -0.400   6.762   3.167 -0.1182  0.0583 -0.3684
  325MOL0     H42845  -0.482   6.999   3.089  0.9077 -2.6148 -0.9710
  325MOL0     H42846  -0.481   7.042   3.261  0.6424  0.5196 -1.3786
  325MOL0     H42847  -0.639   6.853   3.300  1.6128  1.4024  1.2641
  325MOL0     H42848  -0.650   6.834   3.127 -3.7881 -0.3147  1.3229
  325MOL0     H42849  -0.696   7.101   3.270 -2.1173  1.2162 -0.1860
  325MOL0     H42850  -0.699   7.065   3.098  2.3647 -0.6284  0.5454
  325MOL0     H42851  -0.870   6.945   3.325  0.3413  0.5686  0.2915
  325MOL0     H42852  -0.908   6.927   3.143  0.6234  0.7037 -2.0642
  325MOL0     H42853  -1.048   7.105   3.001  0.6177 -0.6416 -0.1385
  325MOL0     H42854  -1.245   7.230   2.988  0.6516  0.9234  0.5281
  325MOL0     H42855  -1.242   7.390   3.070  0.9077  0.0873 -3.4122
  325MOL0     H42856  -1.403   7.301   3.243 -1.6193 -1.3220  2.2810
  325MOL0     H42857  -1.375   7.132   3.187 -0.3925  0.6218  0.9860
  325MOL0     H42858  -1.551   7.332   3.059 -1.5319 -0.9258 -1.3640
  325MOL0     H42859  -1.464   7.202   2.965  0.4557 -0.9137  1.3407
  325MOL0     H42860  -1.657   7.164   3.198 -0.9294  0.6587 -1.5602
  325MOL0     H42861  -1.571   7.028   3.121  2.6466  0.2044  0.4165
  325MOL0     H42862  -1.944   7.099   2.872 -1.2396  0.1707 -0.3323
  325MOL0     H42863  -2.148   6.980   2.928 -0.5333 -1.1038 -0.0062
  325MOL0     H42864  -2.357   6.663   2.975 -0.1395 -1.7620  2.2347
  325MOL0     H42865  -2.576   6.534   2.984 -0.0957  1.7490 -1.6653
  325MOL0     H42866  -2.737   6.414   3.130 -1.0249 -0.0597  2.7076
  325MOL0     H42867  -2.790   6.488   2.965 -0.2266  2.5352  0.2963
  325MOL0     H42868  -2.961   6.477   3.205  1.7092  0.5606 -0.6793
  325MOL0     H42869  -2.957   6.331   3.115  1.1110  0.1388  0.2359
  325MOL0     H42870  -3.007   6.524   2.906 -0.8803  0.8000 -0.7314
  325MOL0     H42871  -3.075   6.595   3.052  0.9169  1.0869 -1.4422
  325MOL0     H42872  -3.168   6.335   2.950 -1.3111  0.7190 -1.1466
  325MOL0     H42873  -3.227   6.401   3.094 -0.8557 -3.6522 -1.0410
  325MOL0     H42874  -3.305   6.604   2.969  1.4171 -0.0738  1.0013
  325MOL0     H42875  -3.383   6.450   2.923 -0.6657  1.4443 -0.2114
  325MOL0     H42876  -3.203   6.617   2.758  0.8027 -0.4811  1.0133
  325MOL0     H42877  -3.364   6.551   2.726  0.6063 -0.5783  1.4961
  325MOL0     H42878  -3.143   6.463   2.600  1.2875 -2.0301 -0.9750
  325MOL0     H42879  -3.098   6.383   2.750  0.3696 -2.1330  0.2245
  325MOL0     H42880  -3.287   6.245   2.751  1.2140 -2.2391 -0.3974
  325MOL0     H42881  -3.185   6.235   2.608  0.6741  0.7281 -1.2755
  325MOL0     H42882  -2.727   6.836   3.257 -1.5291  1.6271 -2.2675
  325MOL0     H42883  -2.516   6.960   3.232  1.1577  0.1954  0.0501
  325MOL0     H42884  -1.989   6.890   3.318 -2.8022 -1.3842 -0.8251
  325MOL0     H42885  -1.772   7.003   3.248 -0.6945  1.5945  0.2622
  325MOL0     H42886   0.124   6.535   3.224  1.1714 -0.7512  0.6038
  325MOL0     H42887   0.365   6.597   3.162  0.3699 -0.1810  0.2026
  325MOL0     H42888   0.669   6.939   2.953 -0.1332 -0.8786 -0.4773
  325MOL0     H42889   0.910   6.984   2.921 -0.7485 -0.1039 -0.2532
  325MOL0     H42890   1.139   7.043   2.933  1.6246  0.3520  0.3572
  325MOL0     H42891   1.107   6.876   2.865  1.7451 -3.1669  1.2240
  325MOL0     H42892   1.319   6.788   2.947  1.4583  0.3611  2.4486
  325MOL0     H42893   1.341   6.916   2.840 -0.8629  0.1454 -1.2196
  325MOL0     H42894   1.331   7.056   3.086  2.5256  0.6073  1.9155
  325MOL0     H42895   1.483   7.017   3.006  0.6146  0.6909  1.2732
  325MOL0     H42896   1.481   6.954   3.237  0.5733 -0.1522  1.0265
  325MOL0     H42897   1.339   6.857   3.208  1.0206  0.2728  1.0770
  325MOL0     H42898   1.677   6.636   3.041  2.0735  2.0027  0.4031
  325MOL0     H42899   0.992   6.763   3.284  1.9198 -1.7665 -2.3319
  325MOL0     H42900   0.745   6.718   3.308 -0.0401  3.9951  4.0091
  326MOL0     O42901   2.956  10.672   1.847 -0.4897 -0.1148  0.4250
  326MOL0     C42902   2.907  10.766   1.788  0.3371  0.1239 -0.0166
  326MOL0     O42903   2.780  10.810   1.818 -0.5304 -0.5185 -0.1493
  326MOL0     C42904   2.692  10.718   1.889 -0.0483  0.1469  0.1284
  326MOL0     C42905   2.638  10.736   2.016 -0.0478 -0.0188  0.7479
  326MOL0     C42906   2.558  10.628   2.067  0.4860  0.5166 -0.1115
  326MOL0     C42907   2.517  10.518   1.994 -0.4533  0.8311  0.4578
  326MOL0     O42908   2.446  10.409   2.043 -0.2160 -0.0741 -0.4981
  326MOL0     C42909   2.308  10.396   1.986 -0.1329  0.6406 -0.3580
  326MOL0     C42910   2.230  10.284   2.047  0.6676  0.0955 -0.5530
  326MOL0     C42911   2.085  10.306   1.998  0.1776  0.4870  0.1093
  326MOL0     C42912   2.056  10.252   1.850 -0.4224  0.1334  0.5380
  326MOL0     C42913   2.015  10.107   1.848  0.2499  0.2404  1.1285
  326MOL0     C42914   1.973  10.062   1.701 -0.8269  0.0699 -0.4469
  326MOL0     C42915   1.906   9.920   1.688 -0.1644  0.1661  0.0155
  326MOL0     C42916   1.859   9.901   1.539 -0.0567 -0.4909 -0.0133
  326MOL0     N42917   1.827   9.760   1.510 -0.9290 -0.4437  0.1161
  326MOL0     C42918   1.730   9.686   1.572  0.0523  0.3481 -0.6032
  326MOL0     C42919   1.752   9.555   1.531 -0.6256 -0.0339  0.6989
  326MOL0     C42920   1.666   9.440   1.574  0.2128 -0.4479  0.0552
  326MOL0     C42921   1.648   9.337   1.461 -0.6999 -0.4010 -0.0558
  326MOL0     C42922   1.547   9.234   1.492  0.5361  0.5203 -0.6514
  326MOL0     C42923   1.603   9.126   1.592  0.0336  0.4644 -0.3041
  326MOL0     O42924   1.593   9.164   1.732  0.2376 -0.2154  0.1422
  326MOL0     C42925   1.495   9.130   1.822  0.9139 -0.3753  0.2213
  326MOL0     C42926   1.427   9.006   1.819 -0.2347 -0.2074  0.5760
  326MOL0     C42927   1.334   8.971   1.913  0.8202  0.0152  0.3611
  326MOL0     C42928   1.312   9.061   2.027 -0.1895 -0.3919  0.7225
  326MOL0     C42929   1.211   9.027   2.129 -0.1356  0.0840 -0.7218
  326MOL0     O42930   1.148   8.905   2.120 -0.6044  0.8400 -0.4328
  326MOL0     C42931   1.044   8.898   2.207 -0.9397  0.1886  0.3460
  326MOL0     C42932   1.056   8.805   2.305  0.1550 -0.2104 -0.7565
  326MOL0     C42933   0.962   8.805   2.406 -0.9253 -0.1599  0.0054
  326MOL0     C42934   0.845   8.885   2.400  0.3390  0.9053  0.0325
  326MOL0     O42935   0.746   8.915   2.495 -0.6365 -0.7844  0.3597
  326MOL0     C42936   0.773   8.877   2.636 -0.2046  1.0415  0.1998
  326MOL0     C42937   0.661   8.937   2.726 -0.0550 -1.2794  0.1658
  326MOL0     C42938   0.686   8.904   2.865 -0.3520 -0.4286 -0.9069
  326MOL0     C42939   0.567   8.926   2.960  0.5898  0.3379  0.0397
  326MOL0     C42940   0.597   8.859   3.098 -0.1123  0.0138 -0.1677
  326MOL0     C42941   0.483   8.877   3.203 -0.0347  0.0410  0.9092
  326MOL0     C42942   0.455   9.024   3.244 -0.0018  0.0184  0.2839
  326MOL0     C42943   0.564   9.071   3.340  0.1897  0.6845 -0.1207
  326MOL0    Cl42944   0.519   9.241   3.380 -0.0739 -0.0595 -0.1548
  326MOL0     C42945   0.821   8.963   2.279 -0.0264 -0.0345  0.0976
  326MOL0     C42946   0.926   8.977   2.182  0.3346 -0.1378  0.0277
  326MOL0     O42947   1.194   9.106   2.226  0.1940  0.1990  0.7567
  326MOL0     C42948   1.374   9.185   2.019  0.6334 -0.4645 -0.2398
  326MOL0     C42949   1.468   9.217   1.926  0.4985  0.1950 -0.0259
  326MOL0     N42950   1.879   9.555   1.466 -0.1062  0.5264 -0.2003
  326MOL0     N42951   1.915   9.676   1.450  0.4253 -0.5250  0.1432
  326MOL0     C42952   2.569  10.508   1.863 -0.3533 -0.4733 -0.4372
  326MOL0     C42953   2.655  10.604   1.811 -0.0881  0.4753  0.0333
  326MOL0     C42954   2.985  10.842   1.684 -0.3964  0.7792 -0.8272
  326MOL0     C42955   2.923  10.924   1.584 -1.0386 -0.3552  0.6164
  326MOL0     C42956   2.992  11.005   1.494  0.2841  0.5082  0.0609
  326MOL0     C42957   3.135  10.990   1.483  0.2227  0.8192 -0.1630
  326MOL0     O42958   3.209  11.047   1.381 -0.2160 -0.7921  0.1948
  326MOL0     C42959   3.158  11.165   1.303 -0.3538  0.7294 -0.9902
  326MOL0     C42960   3.264  11.232   1.218 -0.7370 -0.6370  0.0221
  326MOL0     C42961   3.401  11.223   1.275  0.3701 -0.1687 -0.7988
  326MOL0     C42962   3.504  11.314   1.197 -0.4235  0.2875  0.4903
  326MOL0     C42963   3.641  11.288   1.247  0.6450 -0.1420 -0.2142
  326MOL0     C42964   3.751  11.250   1.273  0.3375 -0.0749 -0.0476
  326MOL0     C42965   3.193  10.893   1.576  0.2250  0.0292  0.2265
  326MOL0     C42966   3.119  10.826   1.675 -0.2266  0.5318  0.3044
  326MOL0     H42967   2.688  10.819   2.066  0.6016  0.5671 -0.8037
  326MOL0     H42968   2.531  10.617   2.172 -0.9551  1.1896 -0.3787
  326MOL0     H42969   2.308  10.376   1.878  0.6281 -3.3678  0.2133
  326MOL0     H42970   2.259  10.490   2.014  0.4701  0.9925 -0.4601
  326MOL0     H42971   2.226  10.304   2.154 -3.3083 -1.1535 -0.2987
  326MOL0     H42972   2.266  10.182   2.030  0.4436 -0.2577  0.9675
  326MOL0     H42973   2.075  10.415   1.999  1.9754  0.7336  2.6198
  326MOL0     H42974   2.004  10.261   2.057 -1.7113  1.0255 -1.9496
  326MOL0     H42975   1.974  10.313   1.811 -0.9843 -1.6842 -1.3008
  326MOL0     H42976   2.147  10.275   1.793 -1.3232  0.6783 -0.7296
  326MOL0     H42977   1.930  10.097   1.916 -1.8243  0.4781 -1.2849
  326MOL0     H42978   2.091  10.041   1.891 -0.5571 -0.4830  1.4806
  326MOL0     H42979   2.056  10.062   1.630 -0.9067 -1.3856 -0.5621
  326MOL0     H42980   1.909  10.143   1.667  0.3365  0.0979 -2.7554
  326MOL0     H42981   1.986   9.850   1.715 -2.1047 -1.2122  2.6104
  326MOL0     H42982   1.823   9.913   1.759  0.3945 -2.9826  0.4878
  326MOL0     H42983   1.934   9.938   1.468 -1.3245  0.0469 -1.1167
  326MOL0     H42984   1.773   9.963   1.515  0.8760  0.4388 -1.1067
  326MOL0     H42985   1.644   9.720   1.631  1.6229 -2.2149  3.6526
  326MOL0     H42986   1.564   9.471   1.596 -0.3801 -1.4619 -1.1678
  326MOL0     H42987   1.713   9.398   1.663  0.1459 -0.5689  0.0321
  326MOL0     H42988   1.742   9.294   1.424 -0.7406  0.1097 -0.7735
  326MOL0     H42989   1.612   9.387   1.370  1.5260  2.5889  0.5426
  326MOL0     H42990   1.453   9.279   1.524  2.2817  1.7223  3.5052
  326MOL0     H42991   1.539   9.168   1.405  1.3272  1.8666 -1.7814
  326MOL0     H42992   1.711   9.109   1.587 -0.0892 -0.9562  1.0747
  326MOL0     H42993   1.568   9.024   1.574  0.0758  0.3180  0.4186
  326MOL0     H42994   1.452   8.939   1.737 -0.0987  0.6901 -0.1425
  326MOL0     H42995   1.266   8.889   1.893 -0.4770  0.7668  1.4882
  326MOL0     H42996   1.138   8.734   2.312 -1.4642 -2.0181  1.4974
  326MOL0     H42997   0.984   8.737   2.488 -0.5305  0.3975  0.3648
  326MOL0     H42998   0.866   8.927   2.664  0.7553 -0.3165 -0.4479
  326MOL0     H42999   0.786   8.772   2.663 -0.2668  1.2197  0.9227
  326MOL0     H43000   0.563   8.903   2.693  0.7167  0.2954 -4.4902
  326MOL0     H43001   0.673   9.045   2.713  0.9490 -1.3350  0.5269
  326MOL0     H43002   0.771   8.967   2.894 -0.2381 -2.3077  3.7364
  326MOL0     H43003   0.713   8.798   2.870  0.2776 -0.2505 -0.4022
  326MOL0     H43004   0.542   9.030   2.983 -1.5037 -0.5026  1.9853
  326MOL0     H43005   0.485   8.874   2.908  0.0606  1.3983 -0.2266
  326MOL0     H43006   0.696   8.891   3.131  0.3211  0.8235 -2.0942
  326MOL0     H43007   0.608   8.752   3.074  0.9163  0.4818 -1.9323
  326MOL0     H43008   0.505   8.814   3.290 -0.9581 -2.5733 -0.6479
  326MOL0     H43009   0.398   8.834   3.150  0.7714 -1.8702  1.0665
  326MOL0     H43010   0.428   9.092   3.163 -5.0512 -2.5594 -0.6317
  326MOL0     H43011   0.361   9.013   3.300  0.3852 -1.1041  0.7390
  326MOL0     H43012   0.659   9.061   3.286 -0.3954 -2.6854 -0.7594
  326MOL0     H43013   0.576   9.013   3.432 -1.4456  1.0494  0.3567
  326MOL0     H43014   0.730   9.021   2.271 -2.0470 -2.8206  1.5962
  326MOL0     H43015   0.918   9.047   2.100 -0.1009  0.1891  0.3477
  326MOL0     H43016   1.347   9.252   2.101  0.6291  0.6958 -1.1689
  326MOL0     H43017   1.527   9.308   1.931 -1.1641  1.2748  1.1806
  326MOL0     H43018   2.536  10.427   1.798 -3.2667 -2.0121  2.6335
  326MOL0     H43019   2.686  10.594   1.707 -0.1712  1.0329 -0.0517
  326MOL0     H43020   2.816  10.910   1.574 -0.8410 -0.8245 -1.4072
  326MOL0     H43021   2.943  11.062   1.416  1.5159 -1.2679 -2.1100
  326MOL0     H43022   3.115  11.241   1.370 -1.3014 -2.2856  2.1109
  326MOL0     H43023   3.081  11.127   1.235 -1.1361  1.7831 -0.7276
  326MOL0     H43024   3.262  11.200   1.114  1.0145  0.0171 -0.2293
  326MOL0     H43025   3.227  11.335   1.218  1.9393  0.3983 -1.4207
  326MOL0     H43026   3.431  11.118   1.277 -2.6931 -1.1339  0.4574
  326MOL0     H43027   3.397  11.262   1.377  0.0941 -5.2310  1.3928
  326MOL0     H43028   3.503  11.306   1.088  0.6425 -0.3118  0.5149
  326MOL0     H43029   3.478  11.419   1.214  1.7630  1.3510 -1.9265
  326MOL0     H43030   3.851  11.225   1.301  0.5052  1.1252  0.4947
  326MOL0     H43031   3.301  10.881   1.578  0.3772  1.2875  0.1413
  326MOL0     H43032   3.180  10.773   1.746 -0.8969 -0.2561  0.3051
  327MOL0     O43033   5.844   2.186   7.681 -0.4863  0.5981 -0.1940
  327MOL0     C43034   5.864   2.126   7.788 -0.0072  0.3344 -0.3102
  327MOL0     O43035   5.771   2.080   7.873 -0.0539  0.7888  0.5319
  327MOL0     C43036   5.645   2.121   7.838  0.5258 -0.0829  0.1913
  327MOL0     C43037   5.552   2.027   7.781 -0.1128  0.3427 -0.0520
  327MOL0     C43038   5.421   2.054   7.741  0.8403 -0.3946 -1.0528
  327MOL0     C43039   5.373   2.187   7.764  0.4982  0.1217  1.2098
  327MOL0     O43040   5.239   2.231   7.737 -0.7684  0.0030  0.0296
  327MOL0     C43041   5.150   2.130   7.678 -0.4844 -0.4103 -0.0698
  327MOL0     C43042   5.105   2.025   7.780 -0.3774  0.0672 -0.1318
  327MOL0     C43043   5.072   1.895   7.707 -1.0460  0.7730  0.5754
  327MOL0     C43044   4.990   1.788   7.795  0.2761  0.2612 -0.1055
  327MOL0     C43045   4.839   1.779   7.756 -0.8693  0.6218 -0.1169
  327MOL0     C43046   4.752   1.704   7.866 -0.8857  0.0661 -0.0905
  327MOL0     C43047   4.609   1.715   7.827 -0.2497  0.8849  0.0538
  327MOL0     C43048   4.519   1.656   7.938  0.3652 -0.2266 -0.1669
  327MOL0     N43049   4.477   1.750   8.044 -0.2688 -0.7716 -0.8025
  327MOL0     C43050   4.364   1.826   8.037  0.5013 -1.0093 -1.1979
  327MOL0     C43051   4.373   1.911   8.151  0.1308  0.1103 -0.1576
  327MOL0     C43052   4.267   2.009   8.172 -0.4733  0.2089  0.2982
  327MOL0     C43053   4.139   1.933   8.225 -0.7308  0.6090 -0.2117
  327MOL0     C43054   4.007   2.013   8.211 -0.6846 -0.3441 -0.0477
  327MOL0     C43055   3.875   1.938   8.258  0.2685 -0.2100  0.2512
  327MOL0     O43056   3.760   2.002   8.195 -0.3483 -0.3329  0.2764
  327MOL0     C43057   3.641   1.979   8.251  0.1515 -0.0576  0.1143
  327MOL0     C43058   3.611   1.865   8.336 -1.0079  0.6063  0.1456
  327MOL0     C43059   3.477   1.842   8.384  0.3543 -0.8074 -0.7578
  327MOL0     C43060   3.373   1.935   8.348 -0.4603  0.6330  0.8176
  327MOL0     C43061   3.233   1.924   8.401 -0.9973 -0.3413 -0.1974
  327MOL0     O43062   3.166   2.043   8.413 -0.0315 -0.1559 -0.5020
  327MOL0     C43063   3.036   2.045   8.454  0.6037  0.2498 -0.4810
  327MOL0     C43064   2.943   1.963   8.388 -0.3675  0.5279 -0.1717
  327MOL0     C43065   2.825   1.953   8.441  0.1874 -0.3531  0.1046
  327MOL0     C43066   2.787   2.025   8.555  0.1771  0.0834  0.0747
  327MOL0     O43067   2.661   2.021   8.597  0.6509 -0.0532  0.5073
  327MOL0     C43068   2.630   2.047   8.732  0.0378  0.4134  0.9521
  327MOL0     C43069   2.488   1.995   8.754 -0.7022 -0.3596  1.1772
  327MOL0     C43070   2.462   1.846   8.729 -0.9205 -1.0550 -0.2484
  327MOL0     C43071   2.327   1.810   8.772  0.3240 -0.1133  0.4549
  327MOL0     C43072   2.317   1.661   8.760  0.6930  0.0128  0.4178
  327MOL0     C43073   2.191   1.603   8.815 -0.0365 -0.3859 -0.1853
  327MOL0     C43074   2.179   1.447   8.799 -0.8997 -0.0245 -0.2458
  327MOL0     C43075   2.069   1.397   8.890  0.1515  0.2541 -0.7527
  327MOL0    Cl43076   2.063   1.212   8.873 -0.1062 -0.2874  0.1054
  327MOL0     C43077   2.877   2.106   8.615  0.3666  0.6469 -0.3548
  327MOL0     C43078   2.998   2.125   8.558  0.7518 -0.0502 -0.1941
  327MOL0     O43079   3.202   1.812   8.442  0.3408  0.0767 -0.3157
  327MOL0     C43080   3.406   2.039   8.255  1.0161  0.4631  0.6806
  327MOL0     C43081   3.537   2.061   8.216 -0.7533  0.1924  0.4680
  327MOL0     N43082   4.479   1.878   8.222  0.3689  0.4732 -0.5146
  327MOL0     N43083   4.544   1.779   8.162 -0.4421 -0.2453  0.6929
  327MOL0     C43084   5.464   2.279   7.819  0.3256 -0.3151  1.3411
  327MOL0     C43085   5.595   2.246   7.855  0.0371  0.1232  0.4839
  327MOL0     C43086   6.005   2.119   7.847  0.2296 -0.6244  0.1343
  327MOL0     C43087   6.026   2.067   7.977  0.6037  0.5855  0.3645
  327MOL0     C43088   6.156   2.057   8.027  0.5099  0.1789 -0.2855
  327MOL0     C43089   6.263   2.117   7.959 -0.0014 -0.1150 -0.3613
  327MOL0     O43090   6.377   2.118   8.027 -0.6838  0.0408 -0.2641
  327MOL0     C43091   6.501   2.125   7.949  0.1683 -0.0997 -0.9653
  327MOL0     C43092   6.626   2.092   8.031 -0.2669 -0.1029 -0.0568
  327MOL0     C43093   6.753   2.171   7.992 -0.2596  0.4158  0.2270
  327MOL0     C43094   6.855   2.163   8.102 -0.0589 -0.5271 -0.5289
  327MOL0     C43095   6.976   2.239   8.053 -0.0036  0.1458 -0.3744
  327MOL0     C43096   7.063   2.318   8.012 -0.3007  0.9858 -0.4816
  327MOL0     C43097   6.240   2.182   7.833 -0.4007 -0.0671  0.0298
  327MOL0     C43098   6.108   2.177   7.774 -0.2082 -0.4435 -0.4775
  327MOL0     H43099   5.588   1.927   7.763 -1.5799  0.1504 -2.2847
  327MOL0     H43100   5.369   1.972   7.693 -0.9349  0.4856 -0.7080
  327MOL0     H43101   5.205   2.077   7.600  1.9111  2.9690 -0.9002
  327MOL0     H43102   5.058   2.176   7.641  2.3290  4.0799 -2.2763
  327MOL0     H43103   5.016   2.068   7.828  1.0057 -0.4509  3.2074
  327MOL0     H43104   5.175   2.015   7.863 -1.3912  1.0100  0.8739
  327MOL0     H43105   5.161   1.852   7.660 -1.6108  1.2214 -0.9736
  327MOL0     H43106   5.012   1.921   7.619 -0.8781 -1.9074 -0.4437
  327MOL0     H43107   5.042   1.692   7.786  2.2530  0.9824  2.3161
  327MOL0     H43108   5.001   1.804   7.903 -1.8326 -2.9460  0.7287
  327MOL0     H43109   4.828   1.719   7.665 -2.5845 -0.5780  0.8347
  327MOL0     H43110   4.805   1.881   7.739 -0.7986  0.9002  1.2958
  327MOL0     H43111   4.763   1.760   7.960  0.1208  1.1027 -0.8010
  327MOL0     H43112   4.789   1.602   7.875  0.6589  0.5991 -0.0859
  327MOL0     H43113   4.579   1.819   7.814  0.6372  0.9370 -1.7707
  327MOL0     H43114   4.583   1.666   7.733  0.1906  0.8516 -0.0507
  327MOL0     H43115   4.573   1.575   7.987 -2.0351 -2.5129 -1.0991
  327MOL0     H43116   4.431   1.606   7.898 -1.2991  2.6088 -0.3486
  327MOL0     H43117   4.287   1.812   7.962 -0.2817 -0.0489 -0.5924
  327MOL0     H43118   4.266   2.060   8.075  1.2226 -0.1838  0.0410
  327MOL0     H43119   4.301   2.078   8.250 -1.0890  1.4753 -0.5107
  327MOL0     H43120   4.166   1.901   8.326  1.7612  0.5267 -0.8484
  327MOL0     H43121   4.119   1.845   8.163 -1.1691  0.4430  0.1529
  327MOL0     H43122   4.011   2.101   8.275  3.2145 -0.9122  0.7294
  327MOL0     H43123   3.991   2.035   8.105 -0.6709  0.9615  0.2069
  327MOL0     H43124   3.867   1.935   8.367 -0.9007  0.6119  0.2120
  327MOL0     H43125   3.878   1.832   8.230 -1.6574 -0.8700  2.2394
  327MOL0     H43126   3.686   1.788   8.351 -1.6862 -0.3147 -1.0393
  327MOL0     H43127   3.462   1.755   8.447  1.5788  0.2190  1.0253
  327MOL0     H43128   2.957   1.888   8.310 -0.9649 -1.1388  1.2583
  327MOL0     H43129   2.749   1.891   8.395 -0.1401  1.7946 -2.4762
  327MOL0     H43130   2.634   2.154   8.753  1.4941  1.2483 -2.8036
  327MOL0     H43131   2.699   1.993   8.797  1.7122  3.9772  2.3436
  327MOL0     H43132   2.423   2.055   8.690  1.3001  0.0236 -0.6018
  327MOL0     H43133   2.463   2.027   8.856  0.0206 -0.0866  1.2726
  327MOL0     H43134   2.528   1.784   8.791 -0.3339 -0.2234 -0.0291
  327MOL0     H43135   2.491   1.833   8.624 -2.0006  2.6128 -1.1322
  327MOL0     H43136   2.310   1.832   8.877 -2.2056 -0.1587  0.1199
  327MOL0     H43137   2.246   1.843   8.705 -0.1651 -1.6906  0.2198
  327MOL0     H43138   2.396   1.604   8.811  1.4006  0.6922  0.1058
  327MOL0     H43139   2.330   1.626   8.657  1.2551 -0.4998  0.6568
  327MOL0     H43140   2.103   1.648   8.769  0.1667 -0.3857 -0.5779
  327MOL0     H43141   2.170   1.623   8.921  0.2731 -0.6696 -0.0684
  327MOL0     H43142   2.170   1.418   8.694  1.8457 -2.0856 -0.0222
  327MOL0     H43143   2.272   1.397   8.828 -0.3983  0.8847 -0.2579
  327MOL0     H43144   1.973   1.431   8.849 -1.9345 -2.1820  1.6754
  327MOL0     H43145   2.074   1.435   8.993  1.1245 -0.2830 -0.5876
  327MOL0     H43146   2.847   2.173   8.695 -0.4636  1.3882 -1.2573
  327MOL0     H43147   3.067   2.198   8.599 -0.2932 -0.2407  2.0481
  327MOL0     H43148   3.328   2.112   8.230  0.8967  0.8764  2.1649
  327MOL0     H43149   3.561   2.149   8.157  1.6728  1.7527  3.4998
  327MOL0     H43150   5.419   2.377   7.826 -2.2408 -1.3637  0.9647
  327MOL0     H43151   5.654   2.330   7.892  0.7279 -0.7573  1.4383
  327MOL0     H43152   5.944   2.036   8.041  0.6298 -1.7775 -0.6759
  327MOL0     H43153   6.165   2.015   8.127 -0.2979 -2.2203 -1.1615
  327MOL0     H43154   6.514   2.229   7.918  0.1665  0.6344  1.2887
  327MOL0     H43155   6.494   2.068   7.857  0.0509 -0.3100 -0.8266
  327MOL0     H43156   6.610   2.133   8.132  1.5084  1.0851 -0.2068
  327MOL0     H43157   6.653   1.987   8.022  0.5372  0.2667 -2.8117
  327MOL0     H43158   6.720   2.273   7.967 -1.0655  0.4224  1.2806
  327MOL0     H43159   6.798   2.136   7.899 -1.9035  1.5239 -1.0573
  327MOL0     H43160   6.817   2.223   8.186 -0.2284 -2.1871  0.6380
  327MOL0     H43161   6.878   2.059   8.128 -2.1306 -0.6299  1.2509
  327MOL0     H43162   7.145   2.359   7.956  0.6513  0.8557  0.7607
  327MOL0     H43163   6.322   2.231   7.782 -2.1308  1.7462 -1.2025
  327MOL0     H43164   6.087   2.225   7.679 -1.2222 -1.4572 -0.7827
  328MOL0     O43165   1.146   1.946   5.204  0.4710 -0.1912 -0.1858
  328MOL0     C43166   1.217   1.945   5.110  0.1511 -0.8920 -0.6100
  328MOL0     O43167   1.185   1.925   4.979 -1.2729  0.5620 -0.4941
  328MOL0     C43168   1.060   1.914   4.927  0.2581 -0.2177  0.0469
  328MOL0     C43169   0.944   1.898   5.006 -0.6506  0.1669 -0.1654
  328MOL0     C43170   0.814   1.891   4.946  0.4186  1.4029 -0.3553
  328MOL0     C43171   0.803   1.890   4.803 -0.3975 -0.4921 -0.1945
  328MOL0     O43172   0.691   1.854   4.736 -0.5952  0.3340 -0.3187
  328MOL0     C43173   0.588   1.781   4.817 -0.1852  0.2885  1.2089
  328MOL0     C43174   0.476   1.712   4.741 -0.1922 -0.0967 -0.3602
  328MOL0     C43175   0.357   1.677   4.833 -1.1474 -0.6566 -0.2928
  328MOL0     C43176   0.257   1.584   4.761  0.1830 -1.2828  0.1054
  328MOL0     C43177   0.160   1.526   4.870 -1.0701 -1.4491  0.5878
  328MOL0     C43178   0.062   1.627   4.919 -0.7270  0.3017  0.6277
  328MOL0     C43179  -0.056   1.579   5.000  0.6252  0.2273  0.4303
  328MOL0     C43180  -0.156   1.495   4.918 -0.0067  0.2017  0.3431
  328MOL0     N43181  -0.272   1.461   4.995  0.2156  0.8586 -1.2907
  328MOL0     C43182  -0.402   1.504   4.989  0.2862 -1.5114  0.2802
  328MOL0     C43183  -0.467   1.472   5.106  0.3739  0.8534 -0.0151
  328MOL0     C43184  -0.615   1.502   5.121 -0.0507  0.1975 -0.2914
  328MOL0     C43185  -0.686   1.426   5.239  0.5538  0.1752 -0.2098
  328MOL0     C43186  -0.825   1.485   5.272  0.2037  0.3940  0.2209
  328MOL0     C43187  -0.911   1.527   5.154 -0.3301  0.2062 -0.2252
  328MOL0     O43188  -1.049   1.558   5.188 -0.5514 -0.4281 -0.2661
  328MOL0     C43189  -1.122   1.596   5.077  0.9614  0.3546 -0.2465
  328MOL0     C43190  -1.255   1.609   5.117 -0.4163 -0.3594 -0.6907
  328MOL0     C43191  -1.358   1.649   5.032 -1.1945  0.6210  0.1420
  328MOL0     C43192  -1.326   1.645   4.891 -0.1803  0.0263  0.0524
  328MOL0     C43193  -1.436   1.659   4.803  0.8643  0.7644 -0.3413
  328MOL0     O43194  -1.572   1.644   4.850 -0.8311 -0.1355 -0.2899
  328MOL0     C43195  -1.685   1.681   4.777  0.6227  0.4983  0.0512
  328MOL0     C43196  -1.688   1.699   4.629 -0.6793 -0.4891  0.2107
  328MOL0     C43197  -1.809   1.726   4.569 -0.4412  0.4867  0.3184
  328MOL0     C43198  -1.927   1.756   4.641 -0.7798 -0.1564 -0.2571
  328MOL0     O43199  -2.035   1.800   4.566  0.5323  0.9701 -0.6173
  328MOL0     C43200  -2.157   1.813   4.645  0.8232  0.0553  0.1613
  328MOL0     C43201  -2.261   1.864   4.549  0.5078 -0.3213  0.9775
  328MOL0     C43202  -2.407   1.814   4.590  0.3458 -0.2985  0.7118
  328MOL0     C43203  -2.510   1.865   4.487  0.0212  0.3205 -0.4087
  328MOL0     C43204  -2.635   1.773   4.476 -1.1133  0.5732 -0.3508
  328MOL0     C43205  -2.773   1.836   4.438 -0.0866 -0.4211  0.1942
  328MOL0     C43206  -2.783   1.872   4.290  0.0405  0.0510  0.6150
  328MOL0     C43207  -2.907   1.955   4.261 -0.9114 -0.1486 -0.5372
  328MOL0    Cl43208  -3.043   1.838   4.241 -0.4959  0.1769  0.3142
  328MOL0     C43209  -1.926   1.737   4.781  0.0173 -0.4455 -0.0916
  328MOL0     C43210  -1.805   1.703   4.846 -0.9957  0.6204 -0.0636
  328MOL0     O43211  -1.405   1.692   4.689 -0.7297  0.2980 -0.3879
  328MOL0     C43212  -1.190   1.620   4.851  0.7613 -0.2243  0.5183
  328MOL0     C43213  -1.089   1.615   4.947 -0.4412  0.5913 -0.4024
  328MOL0     N43214  -0.374   1.393   5.185 -0.8450 -0.2823  0.2333
  328MOL0     N43215  -0.260   1.402   5.116 -0.1647  0.5756  0.5128
  328MOL0     C43216   0.915   1.913   4.725  0.6305 -0.1600 -0.6622
  328MOL0     C43217   1.038   1.933   4.783 -1.1869  0.2158 -0.1749
  328MOL0     C43218   1.361   1.956   5.154  0.1687 -0.3514  0.5153
  328MOL0     C43219   1.472   1.945   5.064  1.2495 -0.1664 -0.4812
  328MOL0     C43220   1.598   1.956   5.115  0.0175  0.4576 -0.5527
  328MOL0     C43221   1.629   1.980   5.254 -1.7070 -0.1042 -0.1780
  328MOL0     O43222   1.759   1.998   5.296 -0.0580 -0.3991  0.2075
  328MOL0     C43223   1.880   2.010   5.212 -0.0538 -0.1263 -0.0652
  328MOL0     C43224   1.950   1.872   5.198 -0.2716  0.3925  0.1636
  328MOL0     C43225   1.950   1.790   5.337  0.4794  0.5784 -0.2397
  328MOL0     C43226   1.991   1.642   5.324  0.5192  0.1272  0.2183
  328MOL0     C43227   2.137   1.634   5.301  0.3601  0.5070 -0.6667
  328MOL0     C43228   2.259   1.631   5.278  0.3939 -0.2402 -0.1345
  328MOL0     C43229   1.523   1.979   5.340  0.2369 -0.1415 -0.7273
  328MOL0     C43230   1.392   1.966   5.294  0.2239  0.9580 -0.8155
  328MOL0     H43231   0.955   1.895   5.114  0.6026  0.5266 -0.2631
  328MOL0     H43232   0.725   1.877   5.006  1.1190  2.1161  0.8806
  328MOL0     H43233   0.533   1.845   4.886 -2.5547 -0.8092  0.4393
  328MOL0     H43234   0.628   1.690   4.860  1.3955  1.2775  1.9155
  328MOL0     H43235   0.508   1.622   4.688 -1.5005  0.2090 -1.7460
  328MOL0     H43236   0.443   1.785   4.666 -3.1791 -1.5217 -0.5710
  328MOL0     H43237   0.312   1.768   4.873  2.0132  0.0708  1.8900
  328MOL0     H43238   0.394   1.628   4.923 -2.3578  2.2026  1.9311
  328MOL0     H43239   0.203   1.647   4.690 -0.2999 -0.1793  1.4115
  328MOL0     H43240   0.320   1.513   4.706 -0.3355 -0.3037 -1.8192
  328MOL0     H43241   0.215   1.501   4.961 -0.8820 -0.9033  0.6274
  328MOL0     H43242   0.109   1.436   4.833 -3.7055  1.1697 -2.8307
  328MOL0     H43243   0.033   1.685   4.831  1.3125  1.2414  0.5206
  328MOL0     H43244   0.126   1.690   4.981  3.1932 -1.9606 -0.7283
  328MOL0     H43245  -0.014   1.511   5.074 -0.5637 -0.9233  0.0696
  328MOL0     H43246  -0.100   1.668   5.047  2.3080  1.9165 -0.9897
  328MOL0     H43247  -0.101   1.406   4.887  1.5483  1.5464 -0.9416
  328MOL0     H43248  -0.188   1.534   4.821 -0.4224 -0.5820  0.1560
  328MOL0     H43249  -0.453   1.560   4.912  1.7024  1.4567  1.3579
  328MOL0     H43250  -0.665   1.476   5.028 -1.3997 -1.0568  0.7282
  328MOL0     H43251  -0.628   1.609   5.140  1.4581  0.9115 -2.8613
  328MOL0     H43252  -0.620   1.445   5.324 -0.4278  0.5475  0.5014
  328MOL0     H43253  -0.686   1.318   5.220  1.6641 -0.4627  2.8394
  328MOL0     H43254  -0.883   1.407   5.323 -0.6562 -0.1902 -1.5909
  328MOL0     H43255  -0.812   1.579   5.327  2.9315 -0.0039  0.4038
  328MOL0     H43256  -0.914   1.436   5.093 -0.7395 -1.1052  1.6380
  328MOL0     H43257  -0.859   1.599   5.091 -2.0571 -0.1342 -2.1515
  328MOL0     H43258  -1.274   1.589   5.222  1.2502  1.2527 -0.0307
  328MOL0     H43259  -1.460   1.645   5.068 -0.3372 -3.7138  2.9378
  328MOL0     H43260  -1.604   1.702   4.561 -1.3410  1.9598 -0.5861
  328MOL0     H43261  -1.816   1.744   4.462 -0.5082 -1.7856 -0.0977
  328MOL0     H43262  -2.154   1.889   4.723 -1.7732  1.9274 -1.3740
  328MOL0     H43263  -2.192   1.718   4.687  0.0692  0.6920  1.0156
  328MOL0     H43264  -2.238   1.845   4.444 -0.0929 -0.9702  0.9567
  328MOL0     H43265  -2.256   1.973   4.560  1.7942 -0.4484  1.9209
  328MOL0     H43266  -2.429   1.850   4.690  1.9044  4.1037 -0.2832
  328MOL0     H43267  -2.406   1.705   4.601 -0.8078 -0.1914  2.1504
  328MOL0     H43268  -2.545   1.967   4.506  0.3684  0.2968  0.3966
  328MOL0     H43269  -2.466   1.871   4.387 -0.0039 -0.6789 -0.4949
  328MOL0     H43270  -2.655   1.733   4.576 -1.3753 -2.6685 -1.5811
  328MOL0     H43271  -2.610   1.687   4.413  0.5202 -0.0552  1.0701
  328MOL0     H43272  -2.795   1.923   4.501 -1.8268 -0.6267 -0.0689
  328MOL0     H43273  -2.848   1.758   4.452  0.2757 -1.1863 -1.7333
  328MOL0     H43274  -2.695   1.925   4.254  0.4249  0.0681  1.5449
  328MOL0     H43275  -2.785   1.789   4.220  3.0828  0.4468 -0.0406
  328MOL0     H43276  -2.883   2.013   4.172  1.5912  1.5446  1.0882
  328MOL0     H43277  -2.926   2.024   4.344 -1.9030 -0.9099 -0.1090
  328MOL0     H43278  -2.012   1.764   4.841 -1.5617  1.1954 -2.8955
  328MOL0     H43279  -1.795   1.703   4.954 -2.5629 -1.7837  0.1407
  328MOL0     H43280  -1.158   1.632   4.748  2.8251 -0.0627  1.1403
  328MOL0     H43281  -0.991   1.618   4.902  0.5805 -0.0036  1.6595
  328MOL0     H43282   0.911   1.918   4.617 -0.3539 -0.0815 -0.6307
  328MOL0     H43283   1.122   1.958   4.720 -0.2363 -0.8093  0.6372
  328MOL0     H43284   1.448   1.915   4.962 -0.8349  0.5029 -0.2337
  328MOL0     H43285   1.687   1.943   5.053 -2.2029 -1.9031 -3.6045
  328MOL0     H43286   1.951   2.085   5.248  0.1828 -0.3961  0.0431
  328MOL0     H43287   1.853   2.048   5.113  0.2862 -2.0089 -0.9247
  328MOL0     H43288   1.903   1.811   5.120  1.7920 -0.5054 -0.4540
  328MOL0     H43289   2.056   1.874   5.171 -0.5027 -1.1260 -1.0454
  328MOL0     H43290   1.853   1.801   5.386 -0.9608 -0.7921 -2.6190
  328MOL0     H43291   2.027   1.836   5.400  0.8233 -0.8379  0.3937
  328MOL0     H43292   1.971   1.593   5.420  0.7792 -3.8654 -1.6069
  328MOL0     H43293   1.934   1.597   5.242 -2.7406  2.4497  1.0071
  328MOL0     H43294   2.365   1.642   5.278  0.3251  1.5953  3.3464
  328MOL0     H43295   1.527   2.002   5.446  0.6602 -2.4721 -0.1837
  328MOL0     H43296   1.315   1.964   5.371  0.7874 -0.5758 -0.2363
  329MOL0     O43297  10.987   6.737   1.548 -0.4440  0.2772  0.1833
  329MOL0     C43298  10.993   6.690   1.443 -0.1517  0.2329  0.6942
  329MOL0     O43299  10.896   6.650   1.361 -0.0553 -0.7300 -0.2665
  329MOL0     C43300  10.771   6.707   1.382  0.3011 -0.3086  0.0125
  329MOL0     C43301  10.665   6.638   1.450  0.2162  0.2097 -0.0227
  329MOL0     C43302  10.541   6.696   1.469 -0.5625  1.1050 -1.3384
  329MOL0     C43303  10.526   6.828   1.440  0.1765 -0.2576  0.2517
  329MOL0     O43304  10.420   6.904   1.462 -0.6149  0.0536 -0.6700
  329MOL0     C43305  10.331   6.868   1.567  0.6187 -0.1697 -0.3617
  329MOL0     C43306  10.208   6.965   1.545 -0.3424  0.2798  0.2084
  329MOL0     C43307  10.113   6.949   1.656 -0.1979 -0.3476 -0.3687
  329MOL0     C43308  10.013   7.070   1.681  0.1341  0.7421 -0.7219
  329MOL0     C43309  10.086   7.197   1.725  0.5789  0.4032 -0.1154
  329MOL0     C43310   9.995   7.326   1.720  0.3338 -0.8362  0.2566
  329MOL0     C43311  10.078   7.455   1.746  0.2391  0.2297  0.1889
  329MOL0     C43312  10.008   7.585   1.766  0.2657  0.6495 -1.0352
  329MOL0     N43313   9.934   7.616   1.642  0.2374  0.5559 -0.1281
  329MOL0     C43314   9.799   7.593   1.628 -0.1586  0.4401  0.8819
  329MOL0     C43315   9.774   7.652   1.512 -1.1691  0.2361  0.1939
  329MOL0     C43316   9.644   7.654   1.428 -0.7087 -0.2755  0.3442
  329MOL0     C43317   9.533   7.747   1.503  0.0297 -0.1314 -0.1851
  329MOL0     C43318   9.416   7.782   1.407  0.3195 -0.5269  0.2369
  329MOL0     C43319   9.307   7.672   1.403  0.2233 -0.2444 -0.3260
  329MOL0     O43320   9.218   7.706   1.299 -0.0171  0.2832 -0.3366
  329MOL0     C43321   9.095   7.737   1.349  0.1256  0.2664 -0.3809
  329MOL0     C43322   9.072   7.839   1.441  0.7568  0.0712 -0.9016
  329MOL0     C43323   8.936   7.871   1.483 -0.4441  0.7006 -0.1203
  329MOL0     C43324   8.833   7.792   1.433  0.5962  0.4068 -0.1346
  329MOL0     C43325   8.691   7.815   1.473  0.0259 -0.2537  0.2936
  329MOL0     O43326   8.604   7.710   1.463 -0.3592  0.3575  0.3106
  329MOL0     C43327   8.473   7.734   1.482 -0.0853 -0.5461 -0.6189
  329MOL0     C43328   8.413   7.761   1.605 -0.9007  0.4982  0.8266
  329MOL0     C43329   8.273   7.781   1.619  0.2480 -0.4499  0.5369
  329MOL0     C43330   8.188   7.775   1.506 -0.0777 -0.6598  0.0672
  329MOL0     O43331   8.055   7.814   1.507  0.0159 -0.0920 -0.3430
  329MOL0     C43332   7.966   7.759   1.613  0.0533  0.4995 -0.0585
  329MOL0     C43333   7.831   7.802   1.570  0.5213 -0.1535  0.1377
  329MOL0     C43334   7.721   7.760   1.670 -0.7035 -0.8826  0.3146
  329MOL0     C43335   7.596   7.833   1.649  0.0525  0.0096  0.6803
  329MOL0     C43336   7.484   7.761   1.719  1.1400 -0.7686  0.9197
  329MOL0     C43337   7.365   7.860   1.733 -0.8709  0.3788 -0.8910
  329MOL0     C43338   7.307   7.918   1.604 -0.8975 -0.2793 -0.9204
  329MOL0     C43339   7.236   7.810   1.521  0.0636  0.3587 -0.0896
  329MOL0    Cl43340   7.166   7.893   1.378  0.0870  0.3610 -0.2022
  329MOL0     C43341   8.249   7.739   1.387  0.7200  0.3067  0.4465
  329MOL0     C43342   8.387   7.729   1.373  0.0388  0.7490  0.4747
  329MOL0     O43343   8.663   7.928   1.518 -0.6710  1.2709  0.5186
  329MOL0     C43344   8.857   7.710   1.322 -0.4814 -0.3605  0.5470
  329MOL0     C43345   8.989   7.675   1.281  0.2792 -0.7291  0.2830
  329MOL0     N43346   9.889   7.690   1.446 -0.8179  0.4387  0.1838
  329MOL0     N43347   9.985   7.669   1.529  0.0001 -0.2126 -0.3972
  329MOL0     C43348  10.617   6.897   1.362 -0.1432 -0.1194  0.0817
  329MOL0     C43349  10.739   6.837   1.326 -0.6446 -0.5879  0.6544
  329MOL0     C43350  11.128   6.682   1.386  0.0419  0.2848 -0.0922
  329MOL0     C43351  11.222   6.778   1.431  0.8049 -0.2828 -0.1073
  329MOL0     C43352  11.354   6.771   1.393 -0.1853  0.7337  0.2651
  329MOL0     C43353  11.400   6.676   1.303  0.1067 -0.0705  0.3087
  329MOL0     O43354  11.520   6.667   1.254  0.6499  0.3024  0.4302
  329MOL0     C43355  11.624   6.743   1.304 -0.4496  0.0563 -0.2977
  329MOL0     C43356  11.763   6.679   1.259  0.3817  0.4101  0.1614
  329MOL0     C43357  11.887   6.757   1.295 -0.2789  0.7371  0.2986
  329MOL0     C43358  12.009   6.659   1.282  0.5434  0.1756  0.2867
  329MOL0     C43359  12.133   6.738   1.294  0.3043  0.0508  0.6966
  329MOL0     C43360  12.233   6.801   1.309  0.4874 -0.3529  0.1688
  329MOL0     C43361  11.306   6.595   1.233  0.1996 -0.9222 -0.3606
  329MOL0     C43362  11.169   6.597   1.282 -0.8512  0.0819  0.4383
  329MOL0     H43363  10.673   6.531   1.466 -0.3253 -0.6220 -4.0620
  329MOL0     H43364  10.468   6.642   1.529  0.4364  0.3624 -0.7578
  329MOL0     H43365  10.369   6.893   1.666  0.9265 -1.4153 -0.1527
  329MOL0     H43366  10.300   6.763   1.560  1.3131 -0.3875 -0.2298
  329MOL0     H43367  10.165   6.944   1.446 -1.4939  0.4404  0.6643
  329MOL0     H43368  10.248   7.066   1.556 -1.8172  0.6790  2.4216
  329MOL0     H43369  10.158   6.926   1.753 -0.6185 -1.2961 -0.3789
  329MOL0     H43370  10.049   6.861   1.638 -0.4247 -0.3348  0.3667
  329MOL0     H43371   9.950   7.091   1.594 -1.6208  0.5416  0.4413
  329MOL0     H43372   9.944   7.041   1.761  0.6862  1.6658  0.1213
  329MOL0     H43373  10.179   7.216   1.672 -0.2947 -2.0482 -2.7677
  329MOL0     H43374  10.126   7.187   1.827 -2.7757 -2.4176  1.1600
  329MOL0     H43375   9.911   7.329   1.790  0.3580 -1.6238  0.3319
  329MOL0     H43376   9.947   7.338   1.622  1.1465  2.0994  0.1163
  329MOL0     H43377  10.153   7.437   1.824  0.2100  0.5639  0.2965
  329MOL0     H43378  10.145   7.458   1.660  0.7867 -0.4117  0.5812
  329MOL0     H43379  10.078   7.659   1.807  0.9767 -1.3438  1.6043
  329MOL0     H43380   9.945   7.581   1.854  0.3577  2.6631 -0.8202
  329MOL0     H43381   9.728   7.549   1.698 -0.1174  1.9767  1.9351
  329MOL0     H43382   9.617   7.548   1.414  0.0657 -1.2728  4.8113
  329MOL0     H43383   9.662   7.692   1.328 -1.0666 -4.0965 -1.3640
  329MOL0     H43384   9.583   7.841   1.531  0.2270  0.1219 -1.3659
  329MOL0     H43385   9.492   7.698   1.592 -1.2006 -1.6452 -1.5185
  329MOL0     H43386   9.375   7.872   1.453  1.3103 -0.2198  0.5557
  329MOL0     H43387   9.450   7.805   1.306 -2.4849  2.8838 -0.1164
  329MOL0     H43388   9.261   7.655   1.502  1.4850  0.8878  0.4864
  329MOL0     H43389   9.359   7.580   1.378 -0.0332  0.2036 -2.6662
  329MOL0     H43390   9.151   7.899   1.485  0.8613 -0.4697 -0.3295
  329MOL0     H43391   8.930   7.948   1.559 -0.2406 -0.2827  0.9287
  329MOL0     H43392   8.472   7.762   1.696 -0.3034 -2.5827  0.5922
  329MOL0     H43393   8.244   7.814   1.719 -0.2091 -0.4100  0.3899
  329MOL0     H43394   7.990   7.803   1.710 -0.1947  1.1668 -0.2887
  329MOL0     H43395   7.977   7.651   1.614  0.9475  0.5338 -1.9000
  329MOL0     H43396   7.806   7.749   1.477 -3.4249  0.2377  0.7678
  329MOL0     H43397   7.824   7.909   1.549 -0.5146 -0.4723 -1.3692
  329MOL0     H43398   7.762   7.777   1.770 -0.6374  2.5599 -0.1532
  329MOL0     H43399   7.704   7.654   1.654 -2.6125 -0.4510 -0.9352
  329MOL0     H43400   7.592   7.939   1.675 -0.6842  0.4693 -1.1418
  329MOL0     H43401   7.566   7.835   1.544  0.3369  0.4128  0.6071
  329MOL0     H43402   7.509   7.727   1.820 -0.3203 -0.3025  1.4616
  329MOL0     H43403   7.459   7.672   1.660 -2.5085  1.1144 -0.6826
  329MOL0     H43404   7.392   7.944   1.798  1.3655 -0.5666 -0.5162
  329MOL0     H43405   7.286   7.803   1.783 -0.2231 -0.1269 -0.4205
  329MOL0     H43406   7.245   8.002   1.636  1.2031  1.4453 -1.1889
  329MOL0     H43407   7.385   7.953   1.537 -0.8007 -0.3242 -0.8314
  329MOL0     H43408   7.155   7.763   1.577  1.9875 -2.8310  0.2741
  329MOL0     H43409   7.307   7.736   1.482  2.4600  2.5760 -0.2129
  329MOL0     H43410   8.185   7.720   1.302  2.2362 -1.3319 -0.4003
  329MOL0     H43411   8.428   7.709   1.275  0.5217  1.0389  0.6157
  329MOL0     H43412   8.786   7.649   1.266  0.8126 -0.6280 -0.8624
  329MOL0     H43413   9.012   7.619   1.191  1.4940  1.5424 -0.9037
  329MOL0     H43414  10.600   7.001   1.338 -2.9820 -0.9589 -2.0090
  329MOL0     H43415  10.810   6.895   1.268 -2.6247 -0.5740 -1.9295
  329MOL0     H43416  11.207   6.858   1.502  1.5747 -0.2380  0.0087
  329MOL0     H43417  11.419   6.842   1.443  0.2455  1.4637 -1.2618
  329MOL0     H43418  11.623   6.752   1.413 -0.3960  1.0107 -0.3650
  329MOL0     H43419  11.611   6.844   1.263  1.0820  1.9262  3.3619
  329MOL0     H43420  11.771   6.577   1.296 -0.6795  0.5435  0.8345
  329MOL0     H43421  11.760   6.657   1.152  1.3810 -4.5694  0.9459
  329MOL0     H43422  11.883   6.810   1.391  0.4611 -0.7033  1.1662
  329MOL0     H43423  11.901   6.837   1.222  1.1278  0.8446  0.6475
  329MOL0     H43424  12.006   6.586   1.363  1.9313  0.5100  0.6655
  329MOL0     H43425  12.006   6.607   1.186  1.6590  1.8549 -0.7178
  329MOL0     H43426  12.325   6.856   1.315 -1.3576  3.1388 -0.8587
  329MOL0     H43427  11.325   6.515   1.163  0.0064 -1.1814 -0.1177
  329MOL0     H43428  11.097   6.533   1.233 -0.4505 -0.7347  0.8867
  330MOL0     O43429   3.296   1.106   0.954 -0.3077  0.0237 -0.2252
  330MOL0     C43430   3.319   1.180   0.859  0.2955 -0.3055  0.8092
  330MOL0     O43431   3.222   1.228   0.770  0.3358  0.8785  0.0869
  330MOL0     C43432   3.089   1.197   0.776  0.7390 -0.2589  0.2942
  330MOL0     C43433   3.039   1.075   0.804  0.0312 -0.6248 -1.4519
  330MOL0     C43434   2.906   1.049   0.815  0.0416 -0.2881 -0.1226
  330MOL0     C43435   2.814   1.151   0.800 -0.7882 -1.2005 -0.4752
  330MOL0     O43436   2.681   1.128   0.819 -0.8763 -0.4290 -0.3544
  330MOL0     C43437   2.634   1.095   0.950  0.0788 -0.1784 -0.0016
  330MOL0     C43438   2.633   1.213   1.043  0.6578  0.5865  0.0551
  330MOL0     C43439   2.496   1.295   1.064 -1.3240 -0.3011  0.2509
  330MOL0     C43440   2.384   1.215   1.114  0.1537  0.0819 -0.0993
  330MOL0     C43441   2.271   1.302   1.165  0.5681  0.3243  0.5708
  330MOL0     C43442   2.171   1.212   1.234 -0.2043  0.8792  0.1222
  330MOL0     C43443   2.037   1.287   1.240  0.0087  0.2439 -0.0963
  330MOL0     C43444   1.930   1.217   1.328 -0.1784  0.1890  0.0392
  330MOL0     N43445   1.810   1.296   1.331 -0.3822 -0.0017 -0.6696
  330MOL0     C43446   1.788   1.398   1.245 -0.2356  0.1938  0.5428
  330MOL0     C43447   1.648   1.420   1.255 -1.0077 -0.3610  0.2246
  330MOL0     C43448   1.573   1.528   1.184 -0.4883  0.1542 -0.3323
  330MOL0     C43449   1.507   1.632   1.279 -0.8831  0.4855  0.0503
  330MOL0     C43450   1.378   1.596   1.355  0.1701  0.1674  1.0261
  330MOL0     C43451   1.326   1.701   1.451  0.4697  0.5814 -0.2838
  330MOL0     O43452   1.280   1.812   1.372  0.1118  0.0174  0.6929
  330MOL0     C43453   1.290   1.940   1.428 -0.2463  0.4038 -0.5732
  330MOL0     C43454   1.272   2.047   1.339 -0.0625 -0.2928 -0.6442
  330MOL0     C43455   1.294   2.180   1.379  0.1530  0.2899  1.0311
  330MOL0     C43456   1.308   2.211   1.516  0.2906  0.2128 -0.0525
  330MOL0     C43457   1.315   2.350   1.557 -0.3181  0.3827 -0.1350
  330MOL0     O43458   1.328   2.437   1.454  0.0978 -0.6046  0.3869
  330MOL0     C43459   1.355   2.572   1.463 -0.0070  0.8223  0.0211
  330MOL0     C43460   1.432   2.628   1.561 -0.1990  1.4134  0.0251
  330MOL0     C43461   1.478   2.755   1.564  0.2067  0.4980  0.4314
  330MOL0     C43462   1.444   2.843   1.473 -0.5667 -0.8993  0.7739
  330MOL0     O43463   1.513   2.961   1.482  0.1328  0.2184  0.9341
  330MOL0     C43464   1.502   3.053   1.371  1.0670 -0.0117 -0.1004
  330MOL0     C43465   1.596   3.180   1.379 -0.0573  1.1883 -0.9932
  330MOL0     C43466   1.742   3.137   1.412  0.0887  0.1464  0.0979
  330MOL0     C43467   1.830   3.264   1.417  0.5087  0.8552 -0.6025
  330MOL0     C43468   1.970   3.235   1.481 -0.1895  0.4320  0.0654
  330MOL0     C43469   1.986   3.143   1.599 -0.4869  1.5742 -0.7990
  330MOL0     C43470   2.132   3.151   1.655  0.3026 -0.0772 -0.5962
  330MOL0     C43471   2.144   3.050   1.773  0.3215  0.6750 -0.0896
  330MOL0    Cl43472   2.306   3.069   1.852 -0.1854  0.2541  0.0978
  330MOL0     C43473   1.366   2.788   1.365 -0.7112 -0.8037  0.0084
  330MOL0     C43474   1.327   2.658   1.356  0.4370  0.4122 -0.4151
  330MOL0     O43475   1.331   2.378   1.673 -0.2599 -0.7835 -0.1238
  330MOL0     C43476   1.307   2.111   1.606  0.2141  1.8358 -0.5754
  330MOL0     C43477   1.316   1.968   1.564  0.0278 -0.2813  0.1637
  330MOL0     N43478   1.598   1.329   1.342 -0.6324 -0.1523 -0.9749
  330MOL0     N43479   1.698   1.262   1.393  0.4084 -0.5485 -0.0496
  330MOL0     C43480   2.858   1.284   0.767  0.4681  0.5253  0.6121
  330MOL0     C43481   2.999   1.309   0.756 -1.2294 -1.0977 -0.2800
  330MOL0     C43482   3.458   1.233   0.839  0.6882  1.2739 -1.1847
  330MOL0     C43483   3.545   1.259   0.952 -0.1138  0.0648 -0.7147
  330MOL0     C43484   3.667   1.317   0.926  0.7961 -0.8072 -0.1658
  330MOL0     C43485   3.715   1.339   0.797  0.0732 -1.0366 -0.3692
  330MOL0     O43486   3.832   1.409   0.767 -0.0806 -0.1195  0.2824
  330MOL0     C43487   3.908   1.472   0.868  0.8190 -0.2800  0.1485
  330MOL0     C43488   4.025   1.533   0.800 -0.2373  0.2934 -0.1012
  330MOL0     C43489   4.118   1.615   0.894  0.0024 -0.4936 -0.4929
  330MOL0     C43490   4.255   1.628   0.832 -0.2088 -1.3351  0.1832
  330MOL0     C43491   4.357   1.701   0.912 -0.8436  0.1049  0.1940
  330MOL0     C43492   4.440   1.744   0.986 -0.6154  0.1987  0.6057
  330MOL0     C43493   3.639   1.291   0.693 -0.1400 -0.4222  0.5668
  330MOL0     C43494   3.514   1.237   0.714 -0.7281  0.6514 -0.4490
  330MOL0     H43495   3.114   0.997   0.817  1.8690  0.5729 -3.9822
  330MOL0     H43496   2.866   0.948   0.820  0.4811 -0.4445  0.4656
  330MOL0     H43497   2.693   1.014   0.993 -0.1262 -2.3663 -3.4638
  330MOL0     H43498   2.531   1.058   0.949  0.5079 -1.4196 -0.1803
  330MOL0     H43499   2.714   1.278   1.009  0.7042 -0.2332 -1.4628
  330MOL0     H43500   2.658   1.172   1.142 -3.6652  3.5884  2.7542
  330MOL0     H43501   2.459   1.335   0.969 -1.7721  1.0236  0.9560
  330MOL0     H43502   2.530   1.376   1.129  1.1363 -0.5375 -0.6270
  330MOL0     H43503   2.351   1.145   1.037 -0.1011  0.5634 -0.4331
  330MOL0     H43504   2.421   1.151   1.194  1.8875  1.6768  0.4416
  330MOL0     H43505   2.227   1.350   1.077 -0.8806 -2.3165 -0.2554
  330MOL0     H43506   2.310   1.378   1.233 -0.6222  3.5566 -2.0772
  330MOL0     H43507   2.207   1.183   1.333  0.7099 -0.9756 -0.7077
  330MOL0     H43508   2.155   1.121   1.175  1.8130  1.3287 -1.2434
  330MOL0     H43509   2.055   1.387   1.281 -0.2463  1.0905 -1.9097
  330MOL0     H43510   1.999   1.298   1.138 -1.6326 -2.3054  0.1577
  330MOL0     H43511   1.975   1.209   1.428  1.9656 -1.0384 -0.9626
  330MOL0     H43512   1.891   1.120   1.297 -0.2277 -0.0535  0.8211
  330MOL0     H43513   1.857   1.443   1.174 -0.3367 -1.1150 -0.4108
  330MOL0     H43514   1.497   1.480   1.121 -1.7731  1.3578  0.2274
  330MOL0     H43515   1.637   1.579   1.113 -0.8679 -1.6634 -2.0677
  330MOL0     H43516   1.476   1.717   1.217 -0.4278  0.7596  0.1945
  330MOL0     H43517   1.583   1.671   1.347 -0.5201  2.0420 -1.1787
  330MOL0     H43518   1.295   1.571   1.289  0.2678 -2.1106  1.6625
  330MOL0     H43519   1.406   1.505   1.409 -0.6764 -1.9793 -1.9432
  330MOL0     H43520   1.406   1.746   1.512  1.8520  0.8449 -2.2082
  330MOL0     H43521   1.247   1.658   1.514  1.1408  0.9175  0.8167
  330MOL0     H43522   1.235   2.024   1.240 -2.1601 -0.0411  0.0194
  330MOL0     H43523   1.307   2.244   1.292 -0.4312  2.3814  2.4123
  330MOL0     H43524   1.475   2.558   1.632  0.0513  2.5359  1.0106
  330MOL0     H43525   1.549   2.793   1.636  2.4886 -1.9657 -0.3532
  330MOL0     H43526   1.400   3.091   1.375  1.0282 -0.2259  1.8978
  330MOL0     H43527   1.519   3.008   1.273 -0.1484 -2.6669  0.8115
  330MOL0     H43528   1.553   3.243   1.457 -0.8544 -2.3178  1.6574
  330MOL0     H43529   1.586   3.228   1.282  1.7578  0.2651 -1.6809
  330MOL0     H43530   1.774   3.066   1.335  1.6647  0.8590  0.0581
  330MOL0     H43531   1.746   3.089   1.510  2.1117  0.5537  0.2596
  330MOL0     H43532   1.835   3.306   1.316 -0.9348  1.3913 -0.4702
  330MOL0     H43533   1.791   3.353   1.468 -0.1317 -0.3742  1.1126
  330MOL0     H43534   2.015   3.328   1.517  2.5079 -1.4166  1.8277
  330MOL0     H43535   2.034   3.206   1.397 -1.9026 -1.1904 -0.7419
  330MOL0     H43536   1.964   3.039   1.574  0.4651  0.8107  1.2803
  330MOL0     H43537   1.925   3.184   1.680 -1.3275  2.0951 -1.6729
  330MOL0     H43538   2.204   3.117   1.580  2.9349  0.7537  1.4044
  330MOL0     H43539   2.150   3.257   1.675 -0.7131  0.1051 -0.5700
  330MOL0     H43540   2.119   2.947   1.748 -0.1728  0.7632  0.0219
  330MOL0     H43541   2.082   3.086   1.856  2.5389  0.8526  1.5959
  330MOL0     H43542   1.357   2.855   1.280  1.3453  2.5168  2.2057
  330MOL0     H43543   1.267   2.625   1.272  0.5374  2.3466 -1.2859
  330MOL0     H43544   1.334   2.130   1.710 -0.7892 -0.0692  0.0918
  330MOL0     H43545   1.328   1.894   1.642  1.0374 -1.6069 -1.2115
  330MOL0     H43546   2.783   1.361   0.754 -1.2457 -0.8225  1.9702
  330MOL0     H43547   3.037   1.409   0.740  0.4816 -1.0029  3.2175
  330MOL0     H43548   3.507   1.244   1.053  0.1603 -0.5828 -0.7004
  330MOL0     H43549   3.718   1.348   1.017  0.3787  0.6627 -0.4060
  330MOL0     H43550   3.950   1.411   0.948  2.4475  1.7455  0.9114
  330MOL0     H43551   3.846   1.549   0.915 -1.0776 -0.5805 -1.6890
  330MOL0     H43552   4.088   1.453   0.761  1.4434  0.8071  1.3888
  330MOL0     H43553   3.989   1.600   0.722 -0.8201 -2.1926 -2.0929
  330MOL0     H43554   4.116   1.560   0.989 -2.3497  1.3289  0.5872
  330MOL0     H43555   4.084   1.718   0.903  1.3522  0.0157 -0.9554
  330MOL0     H43556   4.292   1.527   0.816  1.1721 -0.7466 -0.5734
  330MOL0     H43557   4.254   1.663   0.729 -1.6116 -1.1481  0.2354
  330MOL0     H43558   4.505   1.791   1.058  2.5840 -2.3784 -0.3854
  330MOL0     H43559   3.670   1.305   0.589  1.0198  0.5331  1.0181
  330MOL0     H43560   3.453   1.209   0.629 -0.4829  0.5210 -0.5825
  331MOL0     O43561  10.665   9.054   0.597 -0.1052 -0.4439 -0.0248
  331MOL0     C43562  10.778   9.090   0.564 -0.0180 -0.7718  0.0425
  331MOL0     O43563  10.810   9.211   0.523 -0.0262 -0.3440 -0.6581
  331MOL0     C43564  10.726   9.316   0.520 -0.4382 -0.9253  0.0695
  331MOL0     C43565  10.584   9.331   0.511 -1.2283  0.4922 -0.0123
  331MOL0     C43566  10.523   9.456   0.504 -0.3854 -0.2539  0.0735
  331MOL0     C43567  10.598   9.578   0.506 -0.0053 -0.2300 -0.7171
  331MOL0     O43568  10.551   9.707   0.519 -0.5266 -0.3741  0.2948
  331MOL0     C43569  10.408   9.725   0.510  0.6104 -0.6122 -0.3898
  331MOL0     C43570  10.369   9.868   0.553  0.2381 -0.3837 -0.0414
  331MOL0     C43571  10.215   9.893   0.555 -0.8300 -0.6671  0.2733
  331MOL0     C43572  10.171  10.023   0.622  0.0822  0.1226  0.1115
  331MOL0     C43573  10.032  10.060   0.573  0.7581  0.0017  0.2579
  331MOL0     C43574   9.994  10.198   0.618  0.1122  0.0441  0.4324
  331MOL0     C43575   9.844  10.216   0.623 -0.4069 -0.3313  0.2536
  331MOL0     C43576   9.805  10.357   0.663  0.0194 -0.7129 -0.1603
  331MOL0     N43577   9.685  10.387   0.737  0.7532  0.5055  0.0394
  331MOL0     C43578   9.662  10.452   0.858  0.1200 -1.1054  0.5513
  331MOL0     C43579   9.529  10.431   0.875  0.0074  0.1061  0.3848
  331MOL0     C43580   9.456  10.487   0.996  0.2461 -0.1669  0.3002
  331MOL0     C43581   9.311  10.513   0.967  0.3358 -0.7835  0.8440
  331MOL0     C43582   9.251  10.573   1.089 -0.0775 -0.2384 -0.4786
  331MOL0     C43583   9.111  10.641   1.058 -0.3396 -0.1148 -0.1742
  331MOL0     O43584   9.062  10.679   1.181  0.2409  0.3057 -0.3174
  331MOL0     C43585   8.926  10.704   1.173 -0.3676  0.1093  1.1875
  331MOL0     C43586   8.844  10.724   1.056  0.5034  0.3474 -0.7492
  331MOL0     C43587   8.708  10.724   1.070  1.2796 -0.5476  0.3311
  331MOL0     C43588   8.635  10.715   1.197 -0.7948 -0.3512  0.4922
  331MOL0     C43589   8.490  10.710   1.203  1.0747 -0.2115  0.2351
  331MOL0     O43590   8.434  10.669   1.312 -0.3254  0.4532 -0.0842
  331MOL0     C43591   8.301  10.669   1.341 -0.3345 -0.2861 -0.0052
  331MOL0     C43592   8.266  10.678   1.474 -0.3849 -0.0064 -0.5989
  331MOL0     C43593   8.140  10.675   1.531  0.5834  0.1358  0.1189
  331MOL0     C43594   8.036  10.648   1.436  0.3661 -0.1553 -0.0862
  331MOL0     O43595   7.906  10.638   1.473  0.2685  0.6739 -0.2242
  331MOL0     C43596   7.860  10.649   1.608 -0.1089 -0.6332 -0.6109
  331MOL0     C43597   7.713  10.639   1.616 -0.1461  0.1104  0.6683
  331MOL0     C43598   7.654  10.501   1.594 -0.5799 -0.2927 -0.4375
  331MOL0     C43599   7.500  10.503   1.604  0.7212  0.0915 -0.2303
  331MOL0     C43600   7.433  10.368   1.580 -0.6201 -0.2227 -0.6300
  331MOL0     C43601   7.292  10.359   1.648  0.2276  0.1488  0.1895
  331MOL0     C43602   7.210  10.232   1.626 -0.0163  0.3652  0.2283
  331MOL0     C43603   7.289  10.105   1.660  0.5329 -0.2531  0.1493
  331MOL0    Cl43604   7.180   9.968   1.640 -0.1286 -0.1889 -0.1191
  331MOL0     C43605   8.067  10.642   1.303 -1.2033 -0.3967 -0.1241
  331MOL0     C43606   8.199  10.654   1.252 -0.3997  0.5200 -0.1730
  331MOL0     O43607   8.430  10.758   1.105 -0.4189  1.0927  0.0343
  331MOL0     C43608   8.719  10.703   1.314  0.2589 -0.5117  0.0583
  331MOL0     C43609   8.863  10.710   1.300  1.1174  0.2705 -0.4145
  331MOL0     N43610   9.479  10.369   0.764 -0.0726  0.2703  0.2059
  331MOL0     N43611   9.574  10.332   0.693  0.8252  0.8309  0.1880
  331MOL0     C43612  10.737   9.570   0.520  0.6828  0.1224  0.6930
  331MOL0     C43613  10.796   9.444   0.521  0.0787  0.9713 -0.2140
  331MOL0     C43614  10.887   8.993   0.581  0.1248 -0.4934  0.1175
  331MOL0     C43615  10.861   8.863   0.630  0.4183 -0.6222  0.6356
  331MOL0     C43616  10.962   8.768   0.649 -0.0693  0.1704 -0.3269
  331MOL0     C43617  11.095   8.812   0.629  0.1259  0.5309 -0.4971
  331MOL0     O43618  11.191   8.723   0.670  0.1451 -0.0303 -0.1058
  331MOL0     C43619  11.333   8.722   0.629  0.6469  0.1007  0.5557
  331MOL0     C43620  11.416   8.678   0.744  0.2405 -0.8977  0.1148
  331MOL0     C43621  11.564   8.696   0.687  0.8610  0.3180  0.0349
  331MOL0     C43622  11.661   8.648   0.792  0.2000 -0.0139  0.3618
  331MOL0     C43623  11.673   8.504   0.808  0.0271 -0.1629 -0.0672
  331MOL0     C43624  11.665   8.384   0.827 -0.6102  0.2812 -0.1333
  331MOL0     C43625  11.124   8.940   0.582 -0.4590 -0.6962  0.1828
  331MOL0     C43626  11.019   9.028   0.542  0.2662 -0.1237  0.7379
  331MOL0     H43627  10.514   9.249   0.520  0.4524 -0.7833  3.0228
  331MOL0     H43628  10.414   9.449   0.506 -0.3229 -2.9748 -1.1015
  331MOL0     H43629  10.368   9.654   0.583  1.2264 -1.0234 -0.4458
  331MOL0     H43630  10.370   9.708   0.409 -1.7774  2.3720 -0.1442
  331MOL0     H43631  10.424   9.941   0.492 -0.7043  1.1403  0.8805
  331MOL0     H43632  10.409   9.872   0.654  2.5600 -1.3060 -0.8471
  331MOL0     H43633  10.179   9.801   0.603 -3.3281  0.5672  0.9207
  331MOL0     H43634  10.189   9.892   0.449  3.9551 -1.8175 -1.1285
  331MOL0     H43635  10.175  10.018   0.732 -2.7560 -3.9543  0.2684
  331MOL0     H43636  10.237  10.103   0.587  0.7094  0.1408  1.2821
  331MOL0     H43637   9.965   9.982   0.611  2.1639 -1.9779 -1.1536
  331MOL0     H43638  10.026  10.050   0.464  2.0371 -1.2742  0.2757
  331MOL0     H43639  10.052  10.272   0.562  0.6289 -0.7720 -0.1350
  331MOL0     H43640  10.025  10.215   0.721 -1.9228  2.9887  0.6811
  331MOL0     H43641   9.796  10.188   0.529 -0.0066 -1.8972  0.4904
  331MOL0     H43642   9.797  10.166   0.708 -1.6476  2.7431  1.5341
  331MOL0     H43643   9.818  10.419   0.574  3.7169 -0.0110  0.6772
  331MOL0     H43644   9.890  10.396   0.721  0.4562  0.8587 -1.7748
  331MOL0     H43645   9.729  10.514   0.916 -0.6011 -0.4004  0.6510
  331MOL0     H43646   9.512  10.578   1.019  3.5387 -1.2325 -2.7009
  331MOL0     H43647   9.467  10.421   1.083  2.2518 -1.4971 -0.8737
  331MOL0     H43648   9.264  10.418   0.943  0.7766 -0.4972 -1.4263
  331MOL0     H43649   9.297  10.585   0.886  0.3604 -2.0702 -0.3325
  331MOL0     H43650   9.245  10.494   1.163  0.4648  0.3290  0.1918
  331MOL0     H43651   9.323  10.641   1.137  0.6931 -0.8357 -0.7633
  331MOL0     H43652   9.051  10.554   1.028 -4.3899  1.4768  2.3605
  331MOL0     H43653   9.117  10.711   0.975  2.6909 -1.3102 -1.0979
  331MOL0     H43654   8.886  10.721   0.956  2.3877 -0.2415  0.0118
  331MOL0     H43655   8.648  10.734   0.980 -1.4048 -1.3151  1.9110
  331MOL0     H43656   8.356  10.686   1.535 -0.3481 -0.9245 -0.5095
  331MOL0     H43657   8.126  10.688   1.637  0.2139  0.3401  0.0475
  331MOL0     H43658   7.889  10.748   1.646 -1.2324 -0.3064 -0.5740
  331MOL0     H43659   7.914  10.576   1.669  0.8629 -0.1414 -0.8722
  331MOL0     H43660   7.663  10.706   1.545  1.1026  1.6285  1.1746
  331MOL0     H43661   7.687  10.681   1.713  2.6812  2.3867  0.5626
  331MOL0     H43662   7.707  10.439   1.667  0.4827  0.3083 -0.6766
  331MOL0     H43663   7.673  10.456   1.497 -1.1250 -1.4584 -0.0214
  331MOL0     H43664   7.473  10.527   1.708 -1.4513 -3.3121  0.1897
  331MOL0     H43665   7.456  10.569   1.529 -0.2732  1.4179  1.4466
  331MOL0     H43666   7.500  10.287   1.612 -1.7956 -0.6834  0.7615
  331MOL0     H43667   7.431  10.362   1.471  1.5347 -2.4497 -0.6258
  331MOL0     H43668   7.237  10.450   1.623  0.2915 -0.4714 -2.4243
  331MOL0     H43669   7.308  10.352   1.756 -1.1119 -0.5498  0.3568
  331MOL0     H43670   7.120  10.243   1.687 -0.0300  2.9982 -0.1185
  331MOL0     H43671   7.170  10.239   1.524  1.2247  4.5068 -0.1866
  331MOL0     H43672   7.332  10.090   1.760  0.1291 -1.1813  0.1970
  331MOL0     H43673   7.364  10.094   1.581 -0.5655 -0.7912 -0.8434
  331MOL0     H43674   7.984  10.617   1.238 -0.1481 -0.1049 -1.6131
  331MOL0     H43675   8.212  10.633   1.146 -0.9305 -1.3313  0.0863
  331MOL0     H43676   8.677  10.698   1.414  1.0249  0.6234  0.4578
  331MOL0     H43677   8.930  10.696   1.384  0.7967  0.2706 -0.1530
  331MOL0     H43678  10.792   9.663   0.515 -0.7632  1.0302  0.9302
  331MOL0     H43679  10.904   9.446   0.532  0.2820  0.3777 -1.9116
  331MOL0     H43680  10.758   8.839   0.651  0.6288  0.4602  3.2843
  331MOL0     H43681  10.938   8.666   0.676 -4.4208 -0.2214 -4.3959
  331MOL0     H43682  11.373   8.817   0.594  0.3705 -0.2725 -0.8242
  331MOL0     H43683  11.346   8.655   0.544 -0.7090  0.5684 -0.0545
  331MOL0     H43684  11.409   8.750   0.826  1.3054 -0.8407  0.1740
  331MOL0     H43685  11.409   8.572   0.773 -1.4841 -1.7574 -2.9710
  331MOL0     H43686  11.584   8.798   0.652  1.7002  1.0306  2.3685
  331MOL0     H43687  11.576   8.636   0.596 -3.3100 -0.8355  0.0643
  331MOL0     H43688  11.758   8.670   0.745  0.2929 -1.1998 -0.0297
  331MOL0     H43689  11.650   8.707   0.884 -1.9593  1.8230 -0.9720
  331MOL0     H43690  11.650   8.278   0.826 -0.4183  0.2551 -0.3330
  331MOL0     H43691  11.219   8.976   0.544 -2.0894  1.7552 -1.8690
  331MOL0     H43692  11.033   9.120   0.488 -0.1476 -0.7234 -0.4170
  332MOL0     O43693   0.955   0.456   4.801 -0.3292 -0.1081 -0.7608
  332MOL0     C43694   0.990   0.557   4.848  0.2305  0.3350 -1.1774
  332MOL0     O43695   0.947   0.608   4.971  0.0358 -0.6575 -0.1327
  332MOL0     C43696   0.825   0.567   5.022  0.9730 -0.1949  0.4013
  332MOL0     C43697   0.833   0.485   5.126  0.4529 -0.2388  0.1545
  332MOL0     C43698   0.714   0.433   5.182 -0.3758  0.4286  0.0340
  332MOL0     C43699   0.590   0.457   5.120  0.8574  0.0566  0.0530
  332MOL0     O43700   0.471   0.408   5.164 -0.3848 -0.0803  0.1683
  332MOL0     C43701   0.460   0.306   5.262  0.2934  0.0269  0.1997
  332MOL0     C43702   0.314   0.286   5.283 -0.7391 -0.1027  0.7037
  332MOL0     C43703   0.306   0.209   5.416 -0.9734 -0.4456  0.0045
  332MOL0     C43704   0.165   0.169   5.459  0.4314  0.1879  0.1309
  332MOL0     C43705   0.087   0.280   5.529  0.4220 -1.1322  0.6184
  332MOL0     C43706   0.144   0.340   5.656  0.7786  0.5137 -1.2260
  332MOL0     C43707   0.039   0.413   5.748 -0.3752 -0.5983  0.3724
  332MOL0     C43708   0.084   0.451   5.891  0.3623  0.0462 -0.0606
  332MOL0     N43709  -0.000   0.554   5.956  0.7771  0.7450  0.6802
  332MOL0     C43710  -0.142   0.534   5.973 -0.6724  0.0553 -0.4805
  332MOL0     C43711  -0.200   0.658   5.998  0.3494 -0.1741 -0.1760
  332MOL0     C43712  -0.346   0.682   6.024 -0.6172  0.2504 -0.1931
  332MOL0     C43713  -0.363   0.837   6.012  0.0024  0.4012 -0.2216
  332MOL0     C43714  -0.501   0.864   6.076  0.1376 -0.2584 -0.1978
  332MOL0     C43715  -0.534   1.009   6.042 -0.1911 -1.0240 -0.1548
  332MOL0     O43716  -0.645   1.057   6.113 -0.3030  0.1919 -0.0728
  332MOL0     C43717  -0.766   1.027   6.051  0.5017 -0.0057 -0.1471
  332MOL0     C43718  -0.789   0.935   5.948  0.5134  0.1250  0.6283
  332MOL0     C43719  -0.915   0.915   5.891 -0.0275 -0.2357 -0.0906
  332MOL0     C43720  -1.017   1.010   5.924  0.3853 -0.1901 -0.6908
  332MOL0     C43721  -1.152   0.993   5.864  0.3040  0.4765  0.1341
  332MOL0     O43722  -1.242   1.069   5.931  0.6064 -0.5478 -0.2546
  332MOL0     C43723  -1.374   1.075   5.893  0.0375 -0.4405  0.3658
  332MOL0     C43724  -1.423   1.038   5.766  1.0547  0.1012  0.3524
  332MOL0     C43725  -1.564   1.055   5.744 -0.6293 -0.5915  0.1632
  332MOL0     C43726  -1.653   1.118   5.843  0.2523 -0.3994  0.3568
  332MOL0     O43727  -1.774   1.148   5.799 -0.6216 -0.2255  0.7412
  332MOL0     C43728  -1.880   1.165   5.898 -0.3895 -0.2139  0.9225
  332MOL0     C43729  -2.028   1.192   5.843 -0.3614 -0.1461 -0.1756
  332MOL0     C43730  -2.034   1.325   5.767  0.2974 -0.0878  0.6845
  332MOL0     C43731  -2.173   1.375   5.723  0.6212  0.3508  0.4169
  332MOL0     C43732  -2.237   1.434   5.850  0.4681 -0.2272 -0.2072
  332MOL0     C43733  -2.392   1.462   5.838 -0.0201 -0.6904 -0.6561
  332MOL0     C43734  -2.426   1.591   5.769  0.2342  0.7767  0.7599
  332MOL0     C43735  -2.576   1.593   5.725 -0.1326 -0.7840  0.0576
  332MOL0    Cl43736  -2.606   1.735   5.610  0.2105 -0.2463 -0.0842
  332MOL0     C43737  -1.591   1.176   5.953 -0.3432 -0.0783 -0.0654
  332MOL0     C43738  -1.463   1.137   5.983  0.0664  0.0968  0.3775
  332MOL0     O43739  -1.168   0.923   5.767  0.4390 -0.2490 -0.1115
  332MOL0     C43740  -0.995   1.106   6.026 -0.1220 -0.2403 -0.1127
  332MOL0     C43741  -0.868   1.115   6.083  0.4707 -0.0310  0.7883
  332MOL0     N43742  -0.097   0.748   5.997  0.0994  0.0522  0.4104
  332MOL0     N43743   0.018   0.691   5.973  0.7230 -0.0579 -0.3774
  332MOL0     C43744   0.584   0.536   5.005  0.2406  0.8367  0.1556
  332MOL0     C43745   0.698   0.599   4.955 -0.2200  1.2938 -0.2888
  332MOL0     C43746   1.102   0.627   4.776  0.4853  0.1235  0.3700
  332MOL0     C43747   1.150   0.580   4.655 -0.4097 -0.2993 -0.0128
  332MOL0     C43748   1.253   0.642   4.588 -0.2276 -0.8116  0.0202
  332MOL0     C43749   1.322   0.747   4.651  1.0293  0.1695  0.8659
  332MOL0     O43750   1.432   0.812   4.592  0.6218  0.8657  0.2203
  332MOL0     C43751   1.519   0.717   4.523  0.4651  0.2342 -0.9456
  332MOL0     C43752   1.655   0.771   4.499 -0.2980 -0.3956 -0.0040
  332MOL0     C43753   1.730   0.780   4.628 -0.4743  0.1508  0.0506
  332MOL0     C43754   1.806   0.660   4.677  0.0008  1.4140 -0.3588
  332MOL0     C43755   1.722   0.558   4.747  0.0068 -0.5511 -0.2424
  332MOL0     C43756   1.638   0.496   4.801  0.1189  0.2143  0.3016
  332MOL0     C43757   1.271   0.803   4.764 -1.0582  0.0334  0.4117
  332MOL0     C43758   1.154   0.753   4.824 -0.5265  0.0522  0.8869
  332MOL0     H43759   0.923   0.465   5.182  0.6842 -1.5980 -0.6479
  332MOL0     H43760   0.724   0.373   5.272  3.0060 -0.8910 -1.0639
  332MOL0     H43761   0.503   0.343   5.355  1.5430  2.7409 -1.3479
  332MOL0     H43762   0.511   0.211   5.242 -0.2604 -0.6154  1.6772
  332MOL0     H43763   0.270   0.227   5.202 -2.8683  0.6607  1.2424
  332MOL0     H43764   0.254   0.375   5.299 -0.7982 -0.4009  2.3567
  332MOL0     H43765   0.353   0.269   5.493 -0.9228  0.4304 -0.6930
  332MOL0     H43766   0.370   0.121   5.406 -0.4739  0.1191 -2.7127
  332MOL0     H43767   0.114   0.156   5.363  1.7344 -1.4311 -0.3954
  332MOL0     H43768   0.170   0.082   5.525  1.5499  0.1495  0.0182
  332MOL0     H43769  -0.012   0.242   5.552  0.6237 -1.6142  0.7034
  332MOL0     H43770   0.073   0.365   5.461 -0.6367 -0.4926  1.6076
  332MOL0     H43771   0.225   0.404   5.620  2.3484 -1.4162 -1.3588
  332MOL0     H43772   0.188   0.259   5.716  1.5602 -1.1073 -3.8176
  332MOL0     H43773   0.014   0.510   5.703 -1.8476 -0.8126  0.6655
  332MOL0     H43774  -0.057   0.361   5.757 -1.4081  1.4675  2.1739
  332MOL0     H43775   0.188   0.486   5.890  0.1872  0.5998  0.6841
  332MOL0     H43776   0.069   0.362   5.952 -1.1810 -0.6939 -1.4282
  332MOL0     H43777  -0.199   0.442   5.963 -2.2049  0.9972 -0.6857
  332MOL0     H43778  -0.370   0.646   6.125 -1.8117 -0.7148 -0.8048
  332MOL0     H43779  -0.405   0.620   5.957  2.9355 -4.3083  0.3785
  332MOL0     H43780  -0.356   0.863   5.906  4.3963  0.7008 -0.0229
  332MOL0     H43781  -0.298   0.893   6.079  0.3248  1.1059 -1.1021
  332MOL0     H43782  -0.581   0.800   6.038 -1.4418 -0.1024  2.6004
  332MOL0     H43783  -0.511   0.856   6.184 -2.4263 -0.6413 -0.4105
  332MOL0     H43784  -0.535   1.024   5.933  1.5575 -1.5706 -0.2664
  332MOL0     H43785  -0.456   1.077   6.075 -0.6037 -1.3258  1.5471
  332MOL0     H43786  -0.708   0.873   5.911  0.8876 -0.3914  2.2304
  332MOL0     H43787  -0.932   0.827   5.831 -0.9657 -0.9929  1.2227
  332MOL0     H43788  -1.361   1.005   5.683  1.1924  0.7763  0.1788
  332MOL0     H43789  -1.608   1.040   5.646  2.9496  0.0732 -1.7054
  332MOL0     H43790  -1.849   1.250   5.960 -1.1545  0.0414  0.9603
  332MOL0     H43791  -1.883   1.073   5.958 -0.2829 -0.9275 -0.1302
  332MOL0     H43792  -2.102   1.182   5.924 -0.5753 -0.0267 -0.3556
  332MOL0     H43793  -2.053   1.114   5.771  0.3407 -0.8528  0.3278
  332MOL0     H43794  -1.968   1.327   5.680  2.1239  3.1238  1.9954
  332MOL0     H43795  -1.993   1.406   5.827  0.5196  0.4016 -0.1239
  332MOL0     H43796  -2.162   1.460   5.656 -0.6840  1.2772  1.3298
  332MOL0     H43797  -2.234   1.289   5.692  0.0044 -0.0903  2.6382
  332MOL0     H43798  -2.185   1.522   5.887  2.0362 -1.0362 -0.3994
  332MOL0     H43799  -2.219   1.363   5.931  0.9968  1.5087  1.2657
  332MOL0     H43800  -2.435   1.473   5.937 -1.7595 -0.1072 -1.4394
  332MOL0     H43801  -2.450   1.380   5.793 -2.8715  0.4935  0.6351
  332MOL0     H43802  -2.394   1.674   5.833 -0.3174  0.5413  1.3474
  332MOL0     H43803  -2.370   1.603   5.675 -2.2590  0.3930 -0.8666
  332MOL0     H43804  -2.641   1.593   5.813  1.2160 -1.2967  1.0957
  332MOL0     H43805  -2.587   1.502   5.666  4.0137  0.3199 -2.8452
  332MOL0     H43806  -1.653   1.246   6.007 -3.0500 -1.9571 -0.5053
  332MOL0     H43807  -1.427   1.169   6.080  0.8329 -0.8950  0.4320
  332MOL0     H43808  -1.064   1.177   6.070 -0.2094  0.5064 -1.3961
  332MOL0     H43809  -0.846   1.187   6.161  2.0080 -0.6846  0.9839
  332MOL0     H43810   0.490   0.547   4.951  0.0663 -0.3583  0.1888
  332MOL0     H43811   0.699   0.664   4.868  0.6658 -0.1073 -1.3629
  332MOL0     H43812   1.126   0.479   4.624  0.3147 -0.5897  0.3511
  332MOL0     H43813   1.283   0.591   4.497  1.0705  1.1729 -0.7156
  332MOL0     H43814   1.476   0.698   4.424  1.5091 -2.6970 -0.9239
  332MOL0     H43815   1.519   0.624   4.581 -4.3620  1.2142  1.1428
  332MOL0     H43816   1.709   0.710   4.426 -1.1910 -0.4345 -0.6412
  332MOL0     H43817   1.644   0.869   4.452 -3.3820 -0.3197  0.6601
  332MOL0     H43818   1.667   0.821   4.708  4.2388  3.1776  2.6123
  332MOL0     H43819   1.796   0.865   4.614 -1.3990  0.8631 -0.0930
  332MOL0     H43820   1.841   0.614   4.585  0.2662 -0.9946  0.8502
  332MOL0     H43821   1.892   0.691   4.737 -1.3134  3.0629  0.7627
  332MOL0     H43822   1.568   0.429   4.847  2.1114 -0.5068  2.4858
  332MOL0     H43823   1.325   0.885   4.811  1.9360  0.0471 -2.6063
  332MOL0     H43824   1.116   0.796   4.917 -0.9461  1.9117 -0.1025
  333MOL0     O43825   3.366   3.282   7.414  0.3489 -0.1425  0.1982
  333MOL0     C43826   3.330   3.394   7.457 -0.6912  0.7062  0.1782
  333MOL0     O43827   3.416   3.500   7.468 -0.3979 -0.1919 -0.2126
  333MOL0     C43828   3.542   3.491   7.405  0.2308 -0.6740 -0.4018
  333MOL0     C43829   3.651   3.398   7.445 -0.0539 -0.0421 -0.2805
  333MOL0     C43830   3.773   3.399   7.388 -1.1499 -0.3605  0.6031
  333MOL0     C43831   3.800   3.491   7.285  0.3019  0.5861 -0.4533
  333MOL0     O43832   3.914   3.503   7.215  0.4223 -0.5881  0.3251
  333MOL0     C43833   4.020   3.580   7.278 -0.4264  0.2163  0.9502
  333MOL0     C43834   4.105   3.659   7.168  0.5901 -0.2072  0.1295
  333MOL0     C43835   4.180   3.566   7.082 -0.1984 -0.4538  0.0310
  333MOL0     C43836   4.284   3.646   6.986  0.0778 -0.2401 -0.4574
  333MOL0     C43837   4.341   3.555   6.883  0.3433 -0.3544 -0.7016
  333MOL0     C43838   4.453   3.609   6.800 -0.1399  0.0460  0.5202
  333MOL0     C43839   4.413   3.714   6.688 -0.7262  1.0968  0.4261
  333MOL0     C43840   4.534   3.776   6.615 -0.1970  1.2270 -0.6316
  333MOL0     N43841   4.614   3.854   6.716 -0.8253 -0.5543 -0.3718
  333MOL0     C43842   4.577   3.957   6.802  0.9806  0.1664 -0.0798
  333MOL0     C43843   4.691   3.999   6.858 -0.5026  0.5335  0.1551
  333MOL0     C43844   4.699   4.102   6.968  0.0783  0.6385  0.7241
  333MOL0     C43845   4.716   4.037   7.107  0.1481  0.3296 -0.0951
  333MOL0     C43846   4.728   4.140   7.221 -0.7097  0.1389 -0.3481
  333MOL0     C43847   4.600   4.218   7.248  0.2628  0.2667  1.0156
  333MOL0     O43848   4.479   4.145   7.224 -0.3900  0.0634  0.4776
  333MOL0     C43849   4.417   4.085   7.331 -0.0736  1.2460 -0.0915
  333MOL0     C43850   4.278   4.047   7.308  0.5667 -0.8753  0.5115
  333MOL0     C43851   4.206   3.977   7.400  0.0781 -0.4833 -0.5101
  333MOL0     C43852   4.262   3.921   7.517 -0.3494 -0.0449 -0.0905
  333MOL0     C43853   4.184   3.842   7.614  1.1740 -0.0890 -0.0789
  333MOL0     O43854   4.052   3.808   7.584  0.0841 -0.3111 -0.8402
  333MOL0     C43855   3.947   3.752   7.658 -0.9607  0.7105 -0.2541
  333MOL0     C43856   3.828   3.735   7.597  0.0692  0.4259 -0.0754
  333MOL0     C43857   3.724   3.673   7.662  0.2612 -0.2513 -0.5676
  333MOL0     C43858   3.730   3.639   7.800  0.3904 -0.3876  0.1007
  333MOL0     O43859   3.633   3.574   7.878 -0.1298  0.0974 -0.4996
  333MOL0     C43860   3.514   3.525   7.815  0.1307  0.1291  0.7247
  333MOL0     C43861   3.419   3.471   7.917 -0.0299 -0.0927 -0.4573
  333MOL0     C43862   3.304   3.402   7.851  1.1779  0.0913 -0.4889
  333MOL0     C43863   3.202   3.330   7.945  0.9608 -0.8472 -0.5337
  333MOL0     C43864   3.065   3.306   7.868  0.6165  0.2153  0.1954
  333MOL0     C43865   2.962   3.241   7.962  0.0866  0.4604  0.3138
  333MOL0     C43866   2.825   3.224   7.896 -0.1925  0.9650  0.2167
  333MOL0     C43867   2.802   3.100   7.809  0.2928 -0.2847  0.8634
  333MOL0    Cl43868   2.633   3.090   7.757 -0.2953 -0.0288 -0.0288
  333MOL0     C43869   3.859   3.639   7.858 -0.0378  0.4391  0.0052
  333MOL0     C43870   3.968   3.700   7.790  1.1917  0.9922  0.7912
  333MOL0     O43871   4.236   3.823   7.720  0.0914  1.3360  0.0844
  333MOL0     C43872   4.397   3.936   7.534 -1.2781 -0.0683 -1.0573
  333MOL0     C43873   4.469   4.021   7.445 -0.0484  0.7068  0.1190
  333MOL0     N43874   4.795   3.915   6.821  0.4084 -0.2108 -0.4150
  333MOL0     N43875   4.752   3.833   6.728  0.6784 -0.2668  0.3949
  333MOL0     C43876   3.696   3.583   7.248  0.5660 -0.0604  0.3891
  333MOL0     C43877   3.572   3.583   7.307  0.1950  0.3511 -0.4296
  333MOL0     C43878   3.189   3.407   7.498 -0.3240 -1.3695 -0.3631
  333MOL0     C43879   3.102   3.302   7.497  0.3347  1.1289 -0.0485
  333MOL0     C43880   2.968   3.317   7.535 -0.0094 -0.2970 -0.3033
  333MOL0     C43881   2.926   3.442   7.578  0.6034  0.3164  0.6491
  333MOL0     O43882   2.802   3.468   7.628 -0.2751  0.9147  0.7912
  333MOL0     C43883   2.693   3.434   7.548 -0.5085 -0.5053 -0.0792
  333MOL0     C43884   2.557   3.418   7.630  0.6420 -0.1149  0.4095
  333MOL0     C43885   2.448   3.340   7.554  0.5395  0.2466 -0.5842
  333MOL0     C43886   2.322   3.314   7.637 -0.4995  1.2804 -0.4873
  333MOL0     C43887   2.229   3.426   7.655 -0.2582 -0.5997  0.7369
  333MOL0     C43888   2.154   3.525   7.676 -0.0839 -0.2183  0.0139
  333MOL0     C43889   3.014   3.554   7.581  0.3998  0.9589  0.1620
  333MOL0     C43890   3.144   3.536   7.536 -0.2952  0.0002 -0.6700
  333MOL0     H43891   3.644   3.337   7.534  1.6307 -1.0557 -0.8012
  333MOL0     H43892   3.850   3.340   7.436 -0.6114 -0.7635 -0.7025
  333MOL0     H43893   4.091   3.510   7.322  2.3378  2.7553  0.8639
  333MOL0     H43894   3.977   3.655   7.346 -0.3797  1.8826 -0.7532
  333MOL0     H43895   4.169   3.732   7.218  1.1660 -0.1908 -0.6168
  333MOL0     H43896   4.032   3.713   7.106 -0.8907  0.5759  2.4368
  333MOL0     H43897   4.110   3.509   7.020 -0.1796  0.5766 -0.9737
  333MOL0     H43898   4.234   3.496   7.147 -2.2897 -1.8527  0.3541
  333MOL0     H43899   4.239   3.735   6.941  0.2195  1.5805  2.6886
  333MOL0     H43900   4.360   3.688   7.053  0.2207 -0.4998 -0.4570
  333MOL0     H43901   4.255   3.531   6.820  1.5810 -2.2294 -1.8115
  333MOL0     H43902   4.365   3.463   6.938 -2.0676 -0.5827  0.0766
  333MOL0     H43903   4.494   3.525   6.745  1.7256 -0.2374  2.2218
  333MOL0     H43904   4.528   3.656   6.864 -0.3281  0.8833  0.1398
  333MOL0     H43905   4.354   3.669   6.608  1.3129  1.1164 -1.1567
  333MOL0     H43906   4.350   3.791   6.734 -1.5008  0.1715  0.9620
  333MOL0     H43907   4.510   3.845   6.533 -2.3946  0.7156 -0.4678
  333MOL0     H43908   4.602   3.698   6.580 -1.2751  0.1974 -0.4925
  333MOL0     H43909   4.477   3.994   6.827 -0.0949 -2.6186  0.0813
  333MOL0     H43910   4.604   4.156   6.966  0.4351  1.3683  2.0447
  333MOL0     H43911   4.783   4.170   6.950 -0.3529  0.9864 -0.0114
  333MOL0     H43912   4.799   3.967   7.102 -0.4591 -0.3787 -0.4544
  333MOL0     H43913   4.639   3.966   7.137  2.3936 -1.6430  1.3101
  333MOL0     H43914   4.750   4.085   7.312 -0.6325  0.4596 -0.1711
  333MOL0     H43915   4.811   4.208   7.200 -2.3467  1.3411 -3.8727
  333MOL0     H43916   4.610   4.309   7.189  1.0898 -1.2662 -1.3413
  333MOL0     H43917   4.597   4.257   7.350  0.5040  3.2561 -0.0059
  333MOL0     H43918   4.235   4.082   7.214  0.7883 -1.6716  0.1000
  333MOL0     H43919   4.104   3.944   7.381 -0.5545  2.2650 -2.3607
  333MOL0     H43920   3.805   3.772   7.498 -2.1211 -1.2994 -0.2859
  333MOL0     H43921   3.637   3.649   7.602 -0.3470  0.3257  0.0726
  333MOL0     H43922   3.544   3.439   7.755  1.8179  1.3813 -0.3416
  333MOL0     H43923   3.473   3.604   7.752  0.9216 -1.5826 -2.1316
  333MOL0     H43924   3.394   3.559   7.977  0.6798 -0.6124  0.6417
  333MOL0     H43925   3.467   3.413   7.997  1.1066  1.7496  0.2569
  333MOL0     H43926   3.337   3.331   7.775  1.3523  1.1758 -1.4407
  333MOL0     H43927   3.249   3.476   7.793 -0.9188 -2.4326 -1.9626
  333MOL0     H43928   3.252   3.241   7.985  1.2313 -0.3318  0.2875
  333MOL0     H43929   3.184   3.397   8.029  0.8821 -0.4422 -0.8745
  333MOL0     H43930   3.065   3.239   7.781 -5.3513  1.5589 -1.3103
  333MOL0     H43931   3.032   3.406   7.839  2.0714  2.5087  5.2911
  333MOL0     H43932   2.953   3.315   8.042 -0.1969  2.1679 -1.2073
  333MOL0     H43933   2.997   3.149   8.008  0.1885  1.2500  1.8612
  333MOL0     H43934   2.761   3.237   7.984  1.7176 -3.1724  2.5138
  333MOL0     H43935   2.807   3.303   7.822 -5.0111 -0.4982 -0.5103
  333MOL0     H43936   2.833   3.010   7.863  0.7666 -2.4005 -2.6092
  333MOL0     H43937   2.858   3.105   7.715 -0.8637  0.9164  0.2007
  333MOL0     H43938   3.874   3.591   7.954 -1.7449  2.4501  1.3769
  333MOL0     H43939   4.072   3.692   7.822  0.9452 -0.1965  1.3434
  333MOL0     H43940   4.451   3.893   7.618 -0.5921  0.4332 -1.2313
  333MOL0     H43941   4.577   4.026   7.455  0.0237 -0.0344 -0.2318
  333MOL0     H43942   3.714   3.657   7.170  0.2247 -0.0044  0.3631
  333MOL0     H43943   3.490   3.651   7.284 -0.8794 -1.0878 -1.0601
  333MOL0     H43944   3.136   3.205   7.462 -0.1558  1.8629 -2.8089
  333MOL0     H43945   2.900   3.234   7.523 -1.7852  1.2366 -1.4521
  333MOL0     H43946   2.711   3.340   7.494  0.9729 -1.0161  1.2174
  333MOL0     H43947   2.685   3.515   7.476  2.5434  1.5737  1.7030
  333MOL0     H43948   2.580   3.363   7.721  2.0136 -2.3921 -1.2210
  333MOL0     H43949   2.529   3.517   7.667  2.4459  0.3390  0.6485
  333MOL0     H43950   2.486   3.244   7.518 -1.3290 -0.9418  0.4227
  333MOL0     H43951   2.418   3.404   7.470 -1.2571  2.8900  1.8909
  333MOL0     H43952   2.275   3.228   7.589  0.6578  0.4919 -0.2551
  333MOL0     H43953   2.361   3.280   7.733  0.4642  0.1330 -1.2493
  333MOL0     H43954   2.094   3.614   7.684  1.4299  0.6446  2.9270
  333MOL0     H43955   2.975   3.647   7.620  0.0321  0.5140  0.8801
  333MOL0     H43956   3.220   3.613   7.544  1.1120 -1.4451  0.6432
  334MOL0     O43957   4.097   8.109   6.064  0.8099 -0.1853 -0.1810
  334MOL0     C43958   4.127   8.167   6.167 -0.0616 -0.4339 -0.6726
  334MOL0     O43959   4.049   8.253   6.240 -0.1683  0.0804  0.3613
  334MOL0     C43960   3.915   8.276   6.219 -0.7438  0.3835  0.7017
  334MOL0     C43961   3.818   8.206   6.276 -0.2273  0.5779  0.2765
  334MOL0     C43962   3.679   8.231   6.254 -0.3964 -0.4695 -0.3809
  334MOL0     C43963   3.649   8.319   6.152  0.8855 -0.4790  0.4777
  334MOL0     O43964   3.515   8.322   6.112  0.4455 -0.3633  0.0883
  334MOL0     C43965   3.456   8.451   6.120  0.7509 -0.0993 -0.7206
  334MOL0     C43966   3.317   8.459   6.195  0.3846  0.2067  0.1044
  334MOL0     C43967   3.206   8.419   6.101 -0.2989 -0.0686 -0.0803
  334MOL0     C43968   3.063   8.418   6.151 -1.0154  0.2878 -0.2117
  334MOL0     C43969   2.952   8.395   6.047  0.5302  0.1461 -0.5632
  334MOL0     C43970   2.821   8.451   6.103  0.5858  0.0948 -0.7927
  334MOL0     C43971   2.696   8.441   6.010 -0.1676  0.2374 -0.1381
  334MOL0     C43972   2.565   8.464   6.089  1.1691 -0.1151 -0.3136
  334MOL0     N43973   2.453   8.400   6.020 -0.4661 -0.1416 -1.4081
  334MOL0     C43974   2.386   8.462   5.924 -0.4658 -0.7599 -0.0015
  334MOL0     C43975   2.281   8.386   5.899  0.9292 -0.8933 -0.9836
  334MOL0     C43976   2.182   8.394   5.790 -0.0531 -0.1913 -0.1187
  334MOL0     C43977   2.061   8.489   5.819  0.1904  0.6491 -0.0012
  334MOL0     C43978   1.957   8.420   5.916  0.5597 -0.2193 -0.0141
  334MOL0     C43979   1.818   8.495   5.924 -0.3824 -0.7867  0.4738
  334MOL0     O43980   1.750   8.489   5.797  0.9503 -0.6105 -0.3062
  334MOL0     C43981   1.627   8.555   5.796 -0.1512 -0.5563  0.2910
  334MOL0     C43982   1.577   8.650   5.898  0.1587  0.2772 -0.2875
  334MOL0     C43983   1.447   8.703   5.882 -0.3001  0.1975  0.5931
  334MOL0     C43984   1.366   8.665   5.779  0.5159  0.3004  0.2307
  334MOL0     C43985   1.230   8.712   5.773  0.7918  0.2330 -1.1376
  334MOL0     O43986   1.168   8.686   5.656 -0.0375 -0.5406 -0.1663
  334MOL0     C43987   1.033   8.711   5.632  0.4352  0.5776 -0.0472
  334MOL0     C43988   0.965   8.611   5.557 -0.1072  0.0650  0.7303
  334MOL0     C43989   0.826   8.628   5.530 -1.0884  0.4059  0.7149
  334MOL0     C43990   0.761   8.747   5.571  0.4405  0.3099  0.2846
  334MOL0     O43991   0.630   8.784   5.544  0.0592 -0.1143 -0.2200
  334MOL0     C43992   0.551   8.682   5.478 -0.5897 -0.5619  0.7847
  334MOL0     C43993   0.415   8.747   5.442 -0.6707  0.9683  0.9482
  334MOL0     C43994   0.427   8.875   5.371  0.4161 -0.4059  0.5471
  334MOL0     C43995   0.289   8.945   5.340 -1.0951 -0.0990 -0.3938
  334MOL0     C43996   0.294   9.077   5.261  0.4056  0.3938  0.4222
  334MOL0     C43997   0.165   9.098   5.188 -0.9028  0.7772 -0.0992
  334MOL0     C43998   0.161   9.216   5.093  0.2139  0.2922 -0.6906
  334MOL0     C43999   0.151   9.360   5.166 -0.0840 -0.7796 -0.1276
  334MOL0    Cl44000  -0.002   9.368   5.258  0.0526  0.1045 -0.7572
  334MOL0     C44001   0.836   8.846   5.636  0.4729  0.7420  1.0958
  334MOL0     C44002   0.973   8.824   5.672 -0.0266 -0.3340 -0.3761
  334MOL0     O44003   1.180   8.775   5.870  0.0792  0.0227 -0.9965
  334MOL0     C44004   1.412   8.578   5.681 -1.2519  0.2035  0.1190
  334MOL0     C44005   1.549   8.528   5.689  0.8482 -0.0628 -0.7795
  334MOL0     N44006   2.283   8.280   5.988  0.5164  0.4753 -0.2257
  334MOL0     N44007   2.390   8.287   6.062 -0.5397 -0.5869 -0.9663
  334MOL0     C44008   3.745   8.399   6.091  0.8918 -0.4912  0.2681
  334MOL0     C44009   3.876   8.372   6.129  0.6760  0.7736 -0.2575
  334MOL0     C44010   4.263   8.154   6.218 -1.0522  0.5835  0.2927
  334MOL0     C44011   4.355   8.064   6.149  0.3963 -0.7614  0.6026
  334MOL0     C44012   4.483   8.053   6.204  0.2798 -0.1668  0.7118
  334MOL0     C44013   4.533   8.133   6.306 -0.4909 -0.8057 -0.2979
  334MOL0     O44014   4.653   8.105   6.370 -0.2796 -0.7073 -0.7299
  334MOL0     C44015   4.752   8.016   6.316 -0.5368 -0.6062 -0.4318
  334MOL0     C44016   4.884   8.054   6.380  1.0398  0.2221  0.1352
  334MOL0     C44017   4.889   8.023   6.528 -0.4741 -0.6076  0.4382
  334MOL0     C44018   5.034   8.018   6.571 -0.4826 -0.4682 -0.0193
  334MOL0     C44019   5.098   8.151   6.576  1.1156 -0.0735  0.3513
  334MOL0     C44020   5.139   8.264   6.558 -0.4778  0.4444 -0.7053
  334MOL0     C44021   4.444   8.217   6.371 -0.8596  0.0482 -0.4736
  334MOL0     C44022   4.315   8.225   6.332 -0.7209  0.3712 -0.0024
  334MOL0     H44023   3.838   8.130   6.351 -1.2180 -0.6875 -0.7055
  334MOL0     H44024   3.611   8.161   6.301  0.0858 -0.9761 -0.4276
  334MOL0     H44025   3.452   8.503   6.024 -0.9015 -1.7973 -1.6290
  334MOL0     H44026   3.515   8.518   6.183 -1.7964  0.1346  1.5659
  334MOL0     H44027   3.299   8.564   6.220  2.4413  0.5382  0.3314
  334MOL0     H44028   3.306   8.403   6.288 -2.6472 -1.6027 -1.1745
  334MOL0     H44029   3.218   8.321   6.054  0.0013 -0.7344  1.3421
  334MOL0     H44030   3.213   8.497   6.025 -2.0428  0.1859 -0.0270
  334MOL0     H44031   3.049   8.340   6.227 -1.3843 -2.3280 -2.8104
  334MOL0     H44032   3.038   8.511   6.202 -3.5614 -0.2205 -0.3971
  334MOL0     H44033   2.946   8.291   6.015 -0.8551 -0.8270  2.5280
  334MOL0     H44034   2.972   8.460   5.960  1.8193  0.6131  0.0506
  334MOL0     H44035   2.834   8.550   6.146 -1.5379  0.3408 -0.5923
  334MOL0     H44036   2.812   8.375   6.181 -1.0941  0.8775 -0.1827
  334MOL0     H44037   2.703   8.499   5.918 -0.5283 -2.5710 -2.0692
  334MOL0     H44038   2.687   8.341   5.968  1.7128  0.0865 -0.2965
  334MOL0     H44039   2.538   8.569   6.104  0.2649 -0.6756  2.6553
  334MOL0     H44040   2.570   8.419   6.188 -2.0303  0.3103  0.1454
  334MOL0     H44041   2.417   8.550   5.868 -1.7734  1.0893  2.0035
  334MOL0     H44042   2.146   8.292   5.778 -0.5822 -0.0720  0.3664
  334MOL0     H44043   2.228   8.429   5.697 -2.6202  3.7050 -0.1529
  334MOL0     H44044   2.018   8.515   5.722  3.9331 -0.7566 -2.2591
  334MOL0     H44045   2.098   8.582   5.865 -0.6708  2.5617 -2.9242
  334MOL0     H44046   1.931   8.327   5.864  0.4204  0.2587 -0.8227
  334MOL0     H44047   2.003   8.397   6.012 -0.2579 -2.4267 -0.1065
  334MOL0     H44048   1.823   8.601   5.952 -0.4786  0.2795 -3.0869
  334MOL0     H44049   1.752   8.447   5.996  2.1595 -0.4191  3.2579
  334MOL0     H44050   1.640   8.684   5.980  0.6162 -0.9613 -0.1070
  334MOL0     H44051   1.405   8.783   5.942 -2.4747  0.5127 -1.2181
  334MOL0     H44052   1.018   8.524   5.520 -0.0276  0.7359 -0.7999
  334MOL0     H44053   0.776   8.544   5.484  1.0160  0.1566 -1.3281
  334MOL0     H44054   0.536   8.600   5.549  2.1028  0.0641  2.2419
  334MOL0     H44055   0.607   8.649   5.390 -0.8338  1.5838 -0.2255
  334MOL0     H44056   0.357   8.761   5.533  0.6052  1.2494  1.7393
  334MOL0     H44057   0.373   8.668   5.379  0.8621  0.7781  0.0956
  334MOL0     H44058   0.480   8.860   5.276  0.5977  1.1049  0.3874
  334MOL0     H44059   0.491   8.946   5.423  1.1503  1.6419 -2.8373
  334MOL0     H44060   0.248   8.875   5.266 -0.1281  0.3678 -1.4094
  334MOL0     H44061   0.225   8.954   5.428  0.1827  3.2067  0.3296
  334MOL0     H44062   0.372   9.073   5.185 -0.5755 -0.2959 -0.5741
  334MOL0     H44063   0.318   9.163   5.325  3.8211  0.4642 -0.7408
  334MOL0     H44064   0.094   9.102   5.271  2.2119  4.0076  2.7941
  334MOL0     H44065   0.153   9.009   5.126  1.6995 -1.2147  1.9966
  334MOL0     H44066   0.253   9.211   5.035  0.6400  2.1428 -0.2487
  334MOL0     H44067   0.077   9.205   5.024 -1.2986  0.8007  0.9799
  334MOL0     H44068   0.148   9.446   5.099  4.1894  2.2918  3.1303
  334MOL0     H44069   0.236   9.368   5.235 -0.1274  0.0776 -0.1636
  334MOL0     H44070   0.802   8.948   5.647 -1.1272  0.3825 -0.1867
  334MOL0     H44071   1.028   8.907   5.716  2.2569 -2.1425  0.4059
  334MOL0     H44072   1.358   8.547   5.592  0.8487 -1.1297 -0.7522
  334MOL0     H44073   1.586   8.449   5.625 -1.7221 -0.0694 -2.3981
  334MOL0     H44074   3.724   8.481   6.023  0.8278  0.1783  1.0830
  334MOL0     H44075   3.960   8.430   6.091  2.4552 -1.0647  0.6440
  334MOL0     H44076   4.313   8.007   6.066 -2.3677 -1.3040  2.2219
  334MOL0     H44077   4.554   7.986   6.159  1.0855 -0.3325  2.1642
  334MOL0     H44078   4.754   8.033   6.208  0.9027 -0.8532 -0.4670
  334MOL0     H44079   4.720   7.913   6.330  1.3504 -1.1519  0.1557
  334MOL0     H44080   4.961   7.995   6.329  0.7044 -0.7442  0.7170
  334MOL0     H44081   4.890   8.162   6.363  2.2339  0.6845  2.9595
  334MOL0     H44082   4.845   7.924   6.541 -1.3133 -0.3410 -0.2779
  334MOL0     H44083   4.823   8.092   6.581  0.0518  1.6811 -1.7332
  334MOL0     H44084   5.025   7.976   6.671 -1.2432 -2.4885 -0.8855
  334MOL0     H44085   5.094   7.956   6.503  0.1590  1.0988 -0.9527
  334MOL0     H44086   5.195   8.355   6.549  1.1060 -0.4779 -0.3826
  334MOL0     H44087   4.473   8.273   6.460 -2.0354 -0.3871  0.2036
  334MOL0     H44088   4.254   8.301   6.379 -1.6671  0.4327 -1.2698
  335MOL0     O44089   4.646   0.448   9.414 -0.5017  1.0445  1.2298
  335MOL0     C44090   4.664   0.462   9.537 -0.8930 -0.1698 -0.3733
  335MOL0     O44091   4.600   0.399   9.632  0.3705 -0.2417 -1.1184
  335MOL0     C44092   4.475   0.341   9.609  0.4156 -0.4100 -0.1057
  335MOL0     C44093   4.474   0.218   9.538 -0.0009 -0.1898  0.3513
  335MOL0     C44094   4.364   0.132   9.535  0.4626  0.1811 -0.2842
  335MOL0     C44095   4.250   0.176   9.606  0.1379  0.0355 -0.1317
  335MOL0     O44096   4.142   0.095   9.598  0.2708 -0.3954 -0.2363
  335MOL0     C44097   4.071   0.065   9.728  0.1888 -0.3636 -0.0322
  335MOL0     C44098   3.915   0.043   9.704  0.3541  0.1668  0.3280
  335MOL0     C44099   3.862   0.158   9.623  0.0280  0.3044  0.4610
  335MOL0     C44100   3.712   0.151   9.587 -0.2848  0.5339  0.9818
  335MOL0     C44101   3.624   0.104   9.705  0.1284  0.5386  0.5228
  335MOL0     C44102   3.475   0.117   9.674 -0.1410 -0.2922 -0.2863
  335MOL0     C44103   3.411  -0.004   9.594  0.6797  0.2614 -0.4911
  335MOL0     C44104   3.260   0.026   9.563  0.7049  0.6765 -0.4489
  335MOL0     N44105   3.171   0.015   9.685  0.3336 -0.1922 -0.3271
  335MOL0     C44106   3.127   0.118   9.765 -0.7603 -0.3232  0.2644
  335MOL0     C44107   3.073   0.055   9.867  0.5446 -1.1451 -0.7788
  335MOL0     C44108   2.995   0.117   9.978 -0.8953  0.0822  0.1264
  335MOL0     C44109   2.906   0.237   9.922 -0.2964  0.1534 -0.3003
  335MOL0     C44110   2.787   0.206   9.840 -0.2757 -0.2184  0.3158
  335MOL0     C44111   2.672   0.167   9.936 -0.2836 -0.0304 -0.1655
  335MOL0     O44112   2.563   0.098   9.870 -0.5283 -0.1882 -0.1695
  335MOL0     C44113   2.439   0.103   9.930 -0.4445 -0.0141 -0.0278
  335MOL0     C44114   2.413   0.145  10.057  0.2259 -0.0428 -0.2181
  335MOL0     C44115   2.286   0.150  10.115 -0.7297 -0.2054  0.4489
  335MOL0     C44116   2.173   0.117  10.044 -0.5984  1.6392 -0.1760
  335MOL0     C44117   2.040   0.127  10.115  0.0395 -0.2081 -0.2691
  335MOL0     O44118   2.042   0.161  10.244  0.6070  0.6526 -0.6901
  335MOL0     C44119   1.923   0.178  10.311  0.9696 -0.4562  0.0264
  335MOL0     C44120   1.896   0.301  10.370 -0.0645  0.0787 -0.0068
  335MOL0     C44121   1.772   0.325  10.441 -0.1402 -0.1716 -0.6303
  335MOL0     C44122   1.684   0.221  10.460 -0.0913 -0.8449 -0.4057
  335MOL0     O44123   1.561   0.250  10.514  0.4695  0.0342  0.2727
  335MOL0     C44124   1.490   0.379  10.492 -0.6418 -0.7920  0.5330
  335MOL0     C44125   1.340   0.372  10.499 -0.4458 -0.0942 -0.1423
  335MOL0     C44126   1.290   0.302  10.628  0.1527 -0.2275 -0.3087
  335MOL0     C44127   1.268   0.387  10.748 -0.0871 -0.0884  0.7020
  335MOL0     C44128   1.196   0.320  10.866  0.1363  0.5018  0.2700
  335MOL0     C44129   1.181   0.425  10.978 -0.2148  0.1899  0.8568
  335MOL0     C44130   1.055   0.390  11.057 -0.4940  0.7067  0.0785
  335MOL0     C44131   1.064   0.242  11.110  0.6805 -1.1590 -1.2837
  335MOL0    Cl44132   1.203   0.231  11.217 -0.0929 -0.2820 -0.0115
  335MOL0     C44133   1.706   0.099  10.407  0.7656  0.7186 -0.9477
  335MOL0     C44134   1.827   0.075  10.332  0.3873 -0.3815 -0.8463
  335MOL0     O44135   1.942   0.096  10.051 -0.5301  0.2993  0.5893
  335MOL0     C44136   2.195   0.071   9.915 -0.0941  0.1247  0.2247
  335MOL0     C44137   2.326   0.060   9.856 -0.2495 -0.4597 -0.4243
  335MOL0     N44138   3.067  -0.080   9.841 -1.0585 -0.1855 -0.0665
  335MOL0     N44139   3.122  -0.102   9.728  0.5852  0.6706 -0.2765
  335MOL0     C44140   4.245   0.307   9.667 -0.8463 -0.3473  0.2683
  335MOL0     C44141   4.356   0.391   9.671  0.4806  1.5432  0.8641
  335MOL0     C44142   4.778   0.542   9.581  0.1088  0.1064  0.1137
  335MOL0     C44143   4.814   0.566   9.713  0.6202  0.4266 -0.1645
  335MOL0     C44144   4.921   0.652   9.752  0.7366  0.5354  0.2854
  335MOL0     C44145   5.011   0.690   9.656  0.5539 -0.1452 -0.2637
  335MOL0     O44146   5.123   0.761   9.690 -0.5672 -0.8839  0.5324
  335MOL0     C44147   5.183   0.767   9.822  0.7109 -1.0402 -0.3257
  335MOL0     C44148   5.269   0.892   9.813 -0.7527  0.5009  0.0934
  335MOL0     C44149   5.410   0.864   9.768 -0.9022  0.3142  0.6646
  335MOL0     C44150   5.501   0.988   9.753 -0.6406 -0.0690 -0.1758
  335MOL0     C44151   5.491   1.056   9.888  0.2370  0.3113 -1.1124
  335MOL0     C44152   5.493   1.099  10.004 -0.1487 -1.0940  0.7509
  335MOL0     C44153   4.980   0.668   9.518  0.2580 -0.6874 -0.9059
  335MOL0     C44154   4.866   0.593   9.482  0.6208  0.1637 -0.2427
  335MOL0     H44155   4.559   0.200   9.474  2.0023  0.5772  2.6216
  335MOL0     H44156   4.363   0.050   9.463  0.9606  0.1897 -0.3100
  335MOL0     H44157   4.090   0.144   9.801 -2.3187  0.4884 -0.2271
  335MOL0     H44158   4.117  -0.025   9.769  1.0641 -0.7436 -1.7492
  335MOL0     H44159   3.865   0.042   9.801  1.6641 -0.3277  1.0132
  335MOL0     H44160   3.893  -0.046   9.645 -0.9396 -1.7266  3.4486
  335MOL0     H44161   3.914   0.172   9.527 -1.3091  1.4634 -0.1377
  335MOL0     H44162   3.880   0.242   9.690  0.3785 -0.0977  0.8737
  335MOL0     H44163   3.683   0.250   9.552  2.2571  0.6846 -0.9153
  335MOL0     H44164   3.686   0.077   9.510 -2.1248  1.7248  0.3991
  335MOL0     H44165   3.631   0.172   9.790 -0.5876  2.4204 -0.8467
  335MOL0     H44166   3.657   0.007   9.742 -0.7987  0.8688  2.3384
  335MOL0     H44167   3.461   0.214   9.624 -3.6731  0.2272  1.3982
  335MOL0     H44168   3.428   0.124   9.772 -2.0791 -0.0101 -1.1989
  335MOL0     H44169   3.468  -0.030   9.505  0.5695  2.4551 -1.2558
  335MOL0     H44170   3.418  -0.095   9.655  1.1623  1.8686  1.9507
  335MOL0     H44171   3.230  -0.055   9.495 -0.2384  1.0977 -0.5559
  335MOL0     H44172   3.240   0.120   9.511  2.0719  0.3054 -1.7400
  335MOL0     H44173   3.136   0.224   9.739 -2.6716  0.1476  1.3750
  335MOL0     H44174   3.063   0.163  10.051  1.1599 -1.8307 -0.5009
  335MOL0     H44175   2.934   0.046  10.035  1.6529  0.7944  4.1274
  335MOL0     H44176   2.975   0.294   9.859 -0.3972 -1.5775 -2.0869
  335MOL0     H44177   2.887   0.306  10.005 -0.0506 -0.1468  0.0044
  335MOL0     H44178   2.764   0.280   9.763  1.3406 -1.3157 -1.3026
  335MOL0     H44179   2.813   0.121   9.775  0.0199  0.0235  0.1123
  335MOL0     H44180   2.634   0.266   9.962  3.4717  2.8604 -4.1714
  335MOL0     H44181   2.719   0.118  10.022 -1.0441  1.2112  0.9907
  335MOL0     H44182   2.485   0.185  10.127 -2.3918  0.8707  2.1462
  335MOL0     H44183   2.276   0.177  10.220  1.0519  1.8266  0.1616
  335MOL0     H44184   1.978   0.372  10.365  0.6488 -0.7481 -0.2954
  335MOL0     H44185   1.749   0.422  10.483 -0.4539  0.1110 -1.4197
  335MOL0     H44186   1.529   0.417  10.397  1.0432 -2.1156  0.6448
  335MOL0     H44187   1.524   0.448  10.570 -0.1870 -0.4267  0.0173
  335MOL0     H44188   1.310   0.310  10.414 -0.5094 -2.4883  1.5235
  335MOL0     H44189   1.292   0.470  10.491  1.5745  1.5469  4.4324
  335MOL0     H44190   1.357   0.220  10.655 -1.6344 -2.8788 -3.3069
  335MOL0     H44191   1.200   0.243  10.608  1.5835 -3.6319  2.2711
  335MOL0     H44192   1.369   0.424  10.768 -0.0411 -0.7558  1.8123
  335MOL0     H44193   1.205   0.474  10.724 -1.2814 -1.6655 -2.4830
  335MOL0     H44194   1.251   0.230  10.893  1.9326  1.5732  0.3345
  335MOL0     H44195   1.096   0.288  10.835  1.4264  0.4510 -4.4434
  335MOL0     H44196   1.184   0.527  10.938  0.5262  1.5002  3.9952
  335MOL0     H44197   1.274   0.419  11.035  0.5613  0.7016 -0.3352
  335MOL0     H44198   1.045   0.465  11.137  2.6719  2.3027 -0.8404
  335MOL0     H44199   0.974   0.416  10.989  0.9025  1.2086 -1.4737
  335MOL0     H44200   1.062   0.164  11.033 -2.5360 -2.6692  0.1629
  335MOL0     H44201   0.971   0.230  11.166  1.7205 -0.3229  0.7276
  335MOL0     H44202   1.639   0.014  10.397 -0.5205  1.7845 -1.6358
  335MOL0     H44203   1.855  -0.022  10.293 -2.1132 -1.7021  0.3984
  335MOL0     H44204   2.111   0.039   9.854 -3.4199  0.9569  3.9074
  335MOL0     H44205   2.349   0.003   9.767  1.7958 -0.4498  0.0601
  335MOL0     H44206   4.160   0.362   9.706 -0.9223 -0.2646 -0.0069
  335MOL0     H44207   4.370   0.484   9.726  3.2898  1.9936 -0.4108
  335MOL0     H44208   4.748   0.536   9.794  0.7161 -0.2885 -0.3433
  335MOL0     H44209   4.925   0.671   9.859 -4.3518  0.4189  0.7448
  335MOL0     H44210   5.239   0.682   9.862 -0.9365 -1.2839  1.6912
  335MOL0     H44211   5.112   0.788   9.903  0.7177  1.6382 -0.9051
  335MOL0     H44212   5.227   0.960   9.738 -0.2986  0.5376 -0.1351
  335MOL0     H44213   5.267   0.945   9.908  2.0895  1.5242 -0.3306
  335MOL0     H44214   5.410   0.812   9.672  0.1170 -1.4931  1.5894
  335MOL0     H44215   5.459   0.782   9.820 -0.9952 -0.8473 -1.0112
  335MOL0     H44216   5.607   0.965   9.736 -0.7968 -1.3297  0.4697
  335MOL0     H44217   5.449   1.047   9.677  0.0119 -2.6257 -2.7864
  335MOL0     H44218   5.501   1.131  10.106 -0.9025  0.5376  0.3360
  335MOL0     H44219   5.044   0.709   9.441  1.2226 -0.4915 -0.0286
  335MOL0     H44220   4.855   0.570   9.377  1.4138  0.5985 -0.4269
  336MOL0     O44221   9.721  10.936   5.393 -0.1166  0.9259  0.1842
  336MOL0     C44222   9.738  11.024   5.311 -0.0972  1.0105  0.4776
  336MOL0     O44223   9.848  11.027   5.232 -0.7213 -0.0305 -0.0952
  336MOL0     C44224   9.939  10.920   5.245 -0.0012 -0.0017  0.4956
  336MOL0     C44225  10.059  10.930   5.311  0.1895 -0.2857 -0.5946
  336MOL0     C44226  10.136  10.813   5.337  0.7323 -0.9279  0.2762
  336MOL0     C44227  10.098  10.697   5.284  0.8330  0.5712  0.1674
  336MOL0     O44228  10.180  10.583   5.298 -0.3225  0.6490  0.2426
  336MOL0     C44229  10.220  10.520   5.177 -0.4664 -0.2303 -0.0917
  336MOL0     C44230  10.338  10.574   5.094 -0.5554  0.7560 -0.2150
  336MOL0     C44231  10.471  10.572   5.166  0.3939 -0.0041  0.1667
  336MOL0     C44232  10.584  10.643   5.091 -0.0196  0.5098  0.3629
  336MOL0     C44233  10.721  10.625   5.157  0.0997 -0.6580 -0.4416
  336MOL0     C44234  10.817  10.732   5.123 -0.5158  0.3320 -0.6958
  336MOL0     C44235  10.966  10.693   5.166  0.2876  0.5789  1.1049
  336MOL0     C44236  11.054  10.819   5.160  0.1501  0.3860 -0.0283
  336MOL0     N44237  11.093  10.861   5.025 -0.2593  0.0825 -0.2632
  336MOL0     C44238  11.207  10.805   4.961  0.9815  0.1751 -0.5462
  336MOL0     C44239  11.203  10.880   4.850  0.6505 -1.0923 -0.4486
  336MOL0     C44240  11.301  10.853   4.733  0.2827 -0.7113 -0.4185
  336MOL0     C44241  11.431  10.934   4.736  0.5562 -0.2500  0.4900
  336MOL0     C44242  11.530  10.894   4.853  0.2493 -0.2050  0.6945
  336MOL0     C44243  11.673  10.936   4.814  0.1325  0.6597  0.0857
  336MOL0     O44244  11.737  10.835   4.731  0.0961 -0.0302 -0.4937
  336MOL0     C44245  11.870  10.822   4.713 -1.0481 -0.1070 -1.0384
  336MOL0     C44246  11.958  10.923   4.744 -0.1630 -1.0550  0.3977
  336MOL0     C44247  12.101  10.905   4.736 -0.5098  0.7379 -0.4303
  336MOL0     C44248  12.151  10.781   4.701 -1.2875  0.0064  1.1270
  336MOL0     C44249  12.303  10.758   4.691 -0.0236  0.1547  0.5163
  336MOL0     O44250  12.385  10.865   4.683  0.0663 -0.1997 -0.9101
  336MOL0     C44251  12.514  10.853   4.648 -0.7649  0.5103 -0.6698
  336MOL0     C44252  12.608  10.915   4.723  0.3838  0.7326 -0.2669
  336MOL0     C44253  12.743  10.907   4.695 -1.0845  0.5076 -0.1879
  336MOL0     C44254  12.785  10.841   4.579 -0.5533  0.0301  0.1402
  336MOL0     O44255  12.920  10.834   4.546 -0.2964 -0.6566 -0.8607
  336MOL0     C44256  13.002  10.930   4.614  0.1933 -0.1560  0.3337
  336MOL0     C44257  13.144  10.933   4.561 -0.6030 -1.5000  0.0414
  336MOL0     C44258  13.201  10.791   4.541  0.3726  0.4072  0.0016
  336MOL0     C44259  13.337  10.792   4.467 -0.5130  0.3944 -0.0634
  336MOL0     C44260  13.387  10.649   4.450  0.2449 -0.6549 -0.1681
  336MOL0     C44261  13.506  10.636   4.352 -0.1850 -0.5543 -0.1510
  336MOL0     C44262  13.509  10.488   4.316 -0.1156  0.0077  0.0453
  336MOL0     C44263  13.635  10.466   4.232 -0.5520  0.1416 -0.1004
  336MOL0    Cl44264  13.641  10.313   4.147 -0.3315  0.0766 -0.2148
  336MOL0     C44265  12.688  10.777   4.493  1.2007  0.6923 -0.5606
  336MOL0     C44266  12.551  10.780   4.538 -0.3574  0.0923  0.0401
  336MOL0     O44267  12.340  10.641   4.674 -0.5897 -0.6953  0.4480
  336MOL0     C44268  12.063  10.671   4.674 -0.3769  0.1215 -0.0269
  336MOL0     C44269  11.922  10.695   4.678  1.1111  0.5718 -0.2255
  336MOL0     N44270  11.114  10.992   4.859 -0.2829 -0.1069  0.2842
  336MOL0     N44271  11.056  10.979   4.972  0.7868 -0.6986  0.3644
  336MOL0     C44272   9.976  10.687   5.216  0.3477  0.1094 -0.5832
  336MOL0     C44273   9.902  10.795   5.190  0.4120 -0.1378  0.8884
  336MOL0     C44274   9.642  11.122   5.280 -0.3674  0.1338 -0.0637
  336MOL0     C44275   9.649  11.191   5.158  0.7064  0.9863 -0.8230
  336MOL0     C44276   9.560  11.292   5.124 -0.3600 -0.7989  0.2517
  336MOL0     C44277   9.460  11.323   5.216  0.6824  0.2131 -0.2209
  336MOL0     O44278   9.354  11.402   5.201  0.2009  0.1208  0.4378
  336MOL0     C44279   9.322  11.448   5.070 -0.1739  0.5920  0.2548
  336MOL0     C44280   9.239  11.356   4.986  0.0923  0.7021  0.0355
  336MOL0     C44281   9.190  11.443   4.874  0.6755 -0.5722 -0.0720
  336MOL0     C44282   9.075  11.373   4.810  0.8215 -0.0550  0.5569
  336MOL0     C44283   8.999  11.470   4.729  0.0428 -0.0766 -0.0176
  336MOL0     C44284   8.948  11.555   4.667 -0.3058 -0.0349  0.6587
  336MOL0     C44285   9.445  11.241   5.328  0.0507 -0.0170 -0.2294
  336MOL0     C44286   9.547  11.152   5.374  0.4101 -0.0364  0.0690
  336MOL0     H44287  10.088  11.028   5.348 -0.9233 -0.8515  2.0382
  336MOL0     H44288  10.226  10.828   5.395  1.0639  1.0627 -0.6916
  336MOL0     H44289  10.137  10.500   5.108  0.7849  1.5575 -2.2625
  336MOL0     H44290  10.243  10.421   5.216 -0.1416  1.0988  3.5177
  336MOL0     H44291  10.304  10.678   5.081 -2.3219  0.0785 -1.4844
  336MOL0     H44292  10.343  10.529   4.994 -0.2069  0.6522 -0.1511
  336MOL0     H44293  10.493  10.466   5.180 -3.0059 -1.0601 -1.4282
  336MOL0     H44294  10.449  10.623   5.260 -3.8582 -0.0241 -0.6370
  336MOL0     H44295  10.580  10.609   4.987 -2.0664  1.0920  0.2055
  336MOL0     H44296  10.552  10.748   5.097 -2.9198 -0.1738 -1.0987
  336MOL0     H44297  10.765  10.530   5.125 -2.0477 -2.2662  1.0279
  336MOL0     H44298  10.693  10.613   5.262 -1.4197 -2.8930 -1.0316
  336MOL0     H44299  10.782  10.826   5.168 -0.4570  0.0394 -0.0195
  336MOL0     H44300  10.810  10.730   5.014 -1.1322 -3.4898 -0.7043
  336MOL0     H44301  10.948  10.669   5.271  0.6877 -0.1206  1.0198
  336MOL0     H44302  10.998  10.607   5.107  0.2636  2.4601 -1.8310
  336MOL0     H44303  11.135  10.810   5.233  1.3544 -1.7820 -1.5373
  336MOL0     H44304  10.983  10.895   5.196 -0.3729  0.5488 -1.3392
  336MOL0     H44305  11.268  10.719   4.986 -1.2358 -2.0215 -2.2029
  336MOL0     H44306  11.249  10.880   4.640 -1.2293 -0.5090  0.4511
  336MOL0     H44307  11.320  10.746   4.725 -0.7510 -1.1190  1.8054
  336MOL0     H44308  11.403  11.039   4.746 -0.5065 -0.6863  2.6799
  336MOL0     H44309  11.483  10.911   4.642  0.6948  1.9157 -0.0211
  336MOL0     H44310  11.497  10.945   4.944 -0.0648 -3.5346  2.6029
  336MOL0     H44311  11.539  10.786   4.870  0.9461 -0.4859 -1.1864
  336MOL0     H44312  11.736  10.964   4.899 -0.8893  2.3176  0.3533
  336MOL0     H44313  11.670  11.029   4.756  1.7169  0.2110 -0.7860
  336MOL0     H44314  11.911  11.018   4.767 -2.2148 -1.3756 -2.0178
  336MOL0     H44315  12.174  10.985   4.745  0.0951  0.1229  0.2386
  336MOL0     H44316  12.569  10.983   4.798  0.4297 -1.7529  2.1412
  336MOL0     H44317  12.804  10.964   4.764 -3.8726  1.2588  1.8619
  336MOL0     H44318  13.003  10.907   4.721 -0.4437  1.5345  0.7452
  336MOL0     H44319  12.963  11.032   4.612  2.0734  0.6800  2.1670
  336MOL0     H44320  13.203  10.985   4.637  1.0877  0.0606 -2.2036
  336MOL0     H44321  13.145  11.001   4.476 -1.9665  1.9299  2.5545
  336MOL0     H44322  13.136  10.733   4.474 -0.2555  2.0040 -0.8355
  336MOL0     H44323  13.208  10.753   4.643 -2.3628  1.1980  0.5709
  336MOL0     H44324  13.341  10.852   4.375 -2.4289  3.9184  1.9464
  336MOL0     H44325  13.400  10.846   4.538 -1.0746 -0.4598  1.1213
  336MOL0     H44326  13.306  10.591   4.406 -0.2712  0.6523 -0.9720
  336MOL0     H44327  13.407  10.616   4.552  1.4030 -0.6551 -0.3797
  336MOL0     H44328  13.600  10.678   4.390 -0.4231 -0.0073 -0.1468
  336MOL0     H44329  13.482  10.697   4.264  0.8294  1.3239  0.8091
  336MOL0     H44330  13.520  10.421   4.402  0.9961  1.0984  0.7624
  336MOL0     H44331  13.430  10.458   4.246 -0.0043  0.5407 -0.3147
  336MOL0     H44332  13.726  10.481   4.290 -0.5440  1.8394 -0.4820
  336MOL0     H44333  13.638  10.545   4.156  0.1206  0.9268  0.7212
  336MOL0     H44334  12.699  10.733   4.395  0.6688  1.6806 -1.0738
  336MOL0     H44335  12.477  10.716   4.490 -1.3255  3.4749 -3.4897
  336MOL0     H44336  12.103  10.572   4.657 -0.1846 -0.7039  4.0797
  336MOL0     H44337  11.850  10.616   4.661 -0.4141  2.4112 -3.0943
  336MOL0     H44338   9.942  10.590   5.179 -0.0588 -0.0904  0.2932
  336MOL0     H44339   9.815  10.781   5.127  2.2561 -2.3113 -1.3813
  336MOL0     H44340   9.724  11.170   5.082  0.5686  0.8454 -0.9204
  336MOL0     H44341   9.569  11.343   5.028 -0.2113  0.0841  0.7233
  336MOL0     H44342   9.414  11.473   5.015 -0.5582 -0.2485 -0.8154
  336MOL0     H44343   9.268  11.541   5.091 -1.0539  0.2027 -0.2520
  336MOL0     H44344   9.287  11.262   4.959  1.0789  0.9463  0.8829
  336MOL0     H44345   9.157  11.324   5.051  0.0195  2.4679  0.8636
  336MOL0     H44346   9.271  11.460   4.803  1.0211 -0.0196  0.4530
  336MOL0     H44347   9.158  11.537   4.920  0.1756 -1.1160  0.7318
  336MOL0     H44348   9.102  11.299   4.735  3.3179  1.9543 -0.6768
  336MOL0     H44349   9.004  11.328   4.881  2.7652 -1.9128  1.4341
  336MOL0     H44350   8.908  11.626   4.597  0.1153 -0.8007 -0.3936
  336MOL0     H44351   9.364  11.258   5.398  2.0530  0.4835  2.1044
  336MOL0     H44352   9.526  11.105   5.470 -0.4215 -1.5267 -0.8046
  337MOL0     O44353   4.346   3.327   6.168 -0.0835  0.6367  0.5578
  337MOL0     C44354   4.313   3.321   6.284 -0.6930  0.0426  0.0386
  337MOL0     O44355   4.396   3.311   6.395  0.0182  0.4960  0.3568
  337MOL0     C44356   4.532   3.307   6.367 -0.3397  1.0935  1.0844
  337MOL0     C44357   4.596   3.220   6.270  0.4555 -0.5373 -0.4958
  337MOL0     C44358   4.730   3.233   6.237  0.3071 -0.0615  0.1449
  337MOL0     C44359   4.810   3.316   6.318  0.0555  0.6013  0.5993
  337MOL0     O44360   4.942   3.341   6.297  0.4543  0.1287  1.5237
  337MOL0     C44361   4.992   3.273   6.180 -0.2830  0.3977  0.1812
  337MOL0     C44362   5.140   3.299   6.137  0.0197 -0.7055 -0.2570
  337MOL0     C44363   5.241   3.246   6.235  0.1643  0.2469  0.2441
  337MOL0     C44364   5.386   3.252   6.175  0.3506  0.1365 -0.1104
  337MOL0     C44365   5.488   3.225   6.278 -1.1556  0.3649  0.9001
  337MOL0     C44366   5.631   3.202   6.219 -0.2024 -0.1340 -0.9191
  337MOL0     C44367   5.707   3.075   6.272 -0.6661 -0.9612  0.8552
  337MOL0     C44368   5.673   2.947   6.210  0.2251  0.0723  0.1300
  337MOL0     N44369   5.747   2.906   6.084 -0.8602  0.0827 -1.3153
  337MOL0     C44370   5.870   2.840   6.077  0.1614 -0.5276  0.7120
  337MOL0     C44371   5.871   2.800   5.950  1.0695 -0.8774 -0.5844
  337MOL0     C44372   5.964   2.691   5.912 -0.6487  0.4959 -0.1041
  337MOL0     C44373   5.911   2.562   5.847 -0.3230  0.0761 -0.5564
  337MOL0     C44374   5.805   2.486   5.922 -0.4835 -0.2477 -0.5061
  337MOL0     C44375   5.765   2.363   5.838  0.5082 -0.3894  0.5455
  337MOL0     O44376   5.723   2.398   5.700 -0.3905  0.4524 -0.7394
  337MOL0     C44377   5.590   2.402   5.688  0.4838  0.0279  0.4305
  337MOL0     C44378   5.531   2.526   5.691 -0.3450 -0.5229 -0.5536
  337MOL0     C44379   5.394   2.542   5.656  0.3349  0.4186  0.5360
  337MOL0     C44380   5.314   2.429   5.620 -0.1696  0.0127  0.1237
  337MOL0     C44381   5.165   2.452   5.618 -0.3245  0.6417  1.2354
  337MOL0     O44382   5.104   2.561   5.670  0.1526 -0.3612 -0.2709
  337MOL0     C44383   4.965   2.577   5.681 -0.6082 -0.2982  0.7181
  337MOL0     C44384   4.882   2.543   5.577 -0.3492  0.4754  0.0448
  337MOL0     C44385   4.743   2.551   5.589  0.2215 -0.1599 -0.1900
  337MOL0     C44386   4.693   2.610   5.705 -0.0784 -0.6646  0.2492
  337MOL0     O44387   4.558   2.617   5.722 -0.8755 -0.5878  0.2828
  337MOL0     C44388   4.471   2.620   5.610 -0.2627  0.0968  0.4287
  337MOL0     C44389   4.331   2.662   5.663 -0.0902  0.3973  0.5292
  337MOL0     C44390   4.250   2.555   5.745 -0.0574  0.9701 -0.1657
  337MOL0     C44391   4.116   2.598   5.795  0.0122  0.8819 -0.2438
  337MOL0     C44392   4.064   2.495   5.896  0.3657 -0.1203  1.1892
  337MOL0     C44393   3.916   2.532   5.922 -0.6245 -0.4574 -0.9722
  337MOL0     C44394   3.864   2.443   6.040  0.1502 -0.0807  0.0615
  337MOL0     C44395   3.817   2.314   5.981  0.2285 -0.6923 -0.6744
  337MOL0    Cl44396   3.730   2.228   6.122  0.0445  0.2196  0.3496
  337MOL0     C44397   4.780   2.659   5.799  0.2342 -0.2993  0.1955
  337MOL0     C44398   4.913   2.632   5.791 -0.1763 -0.8098  0.6213
  337MOL0     O44399   5.101   2.361   5.569 -0.1615  0.0685  0.2128
  337MOL0     C44400   5.375   2.302   5.603  0.7068  0.7662 -0.7772
  337MOL0     C44401   5.515   2.291   5.642 -0.0490 -0.3018  0.9050
  337MOL0     N44402   5.765   2.853   5.879  0.0553 -0.2316 -0.5574
  337MOL0     N44403   5.689   2.911   5.963  0.0107  0.0652 -0.3780
  337MOL0     C44404   4.751   3.390   6.421 -0.7485  0.5619  0.5345
  337MOL0     C44405   4.616   3.380   6.443  0.2632 -1.2998  0.1423
  337MOL0     C44406   4.172   3.336   6.319  0.8080  0.2006  0.2050
  337MOL0     C44407   4.084   3.325   6.212  0.6417 -0.9523 -0.3226
  337MOL0     C44408   3.944   3.315   6.238  0.6728  0.6977 -0.2128
  337MOL0     C44409   3.896   3.328   6.368 -1.0962  0.4822 -0.7962
  337MOL0     O44410   3.761   3.320   6.386  0.0424 -0.0069 -0.0431
  337MOL0     C44411   3.698   3.336   6.512 -0.2195 -0.3009 -1.3681
  337MOL0     C44412   3.546   3.332   6.504 -0.2646 -0.1334  0.1905
  337MOL0     C44413   3.502   3.411   6.378  0.1309 -0.5207 -0.6371
  337MOL0     C44414   3.532   3.559   6.380 -0.3980 -0.0214  0.1298
  337MOL0     C44415   3.415   3.630   6.324 -0.6102  0.4439 -0.1035
  337MOL0     C44416   3.333   3.674   6.249 -0.7693 -0.2205  0.1167
  337MOL0     C44417   3.985   3.322   6.477  0.2092  0.6493  0.2438
  337MOL0     C44418   4.124   3.321   6.451  0.3542  0.3815  0.3223
  337MOL0     H44419   4.539   3.150   6.210  0.6574 -1.1584  0.0234
  337MOL0     H44420   4.757   3.177   6.147  1.0625 -1.2506  1.0780
  337MOL0     H44421   4.933   3.310   6.095 -2.1507 -0.8391  0.8669
  337MOL0     H44422   4.976   3.165   6.189 -2.3879  0.7542  1.5653
  337MOL0     H44423   5.160   3.406   6.124 -0.0339 -0.9931 -3.3988
  337MOL0     H44424   5.155   3.249   6.041 -1.0723  2.4517 -2.2274
  337MOL0     H44425   5.213   3.140   6.240  0.2361  0.1761 -0.7266
  337MOL0     H44426   5.236   3.298   6.331 -1.4474 -0.8572  0.7981
  337MOL0     H44427   5.390   3.191   6.084  0.2127 -1.1381  0.7198
  337MOL0     H44428   5.411   3.351   6.137  1.2537 -0.3560 -0.8429
  337MOL0     H44429   5.466   3.129   6.326 -1.5714 -0.7048 -1.2973
  337MOL0     H44430   5.487   3.304   6.353 -3.6495  1.5090 -0.2320
  337MOL0     H44431   5.688   3.292   6.244 -1.7773  0.1955  1.8642
  337MOL0     H44432   5.623   3.191   6.110 -2.0341 -3.2283 -0.5709
  337MOL0     H44433   5.816   3.085   6.282 -0.7442  1.1726  0.0056
  337MOL0     H44434   5.679   3.078   6.378 -0.7875 -0.5112  0.8124
  337MOL0     H44435   5.565   2.955   6.198 -0.0409  0.4042  2.2742
  337MOL0     H44436   5.689   2.873   6.289 -1.2754  1.6347  2.0102
  337MOL0     H44437   5.949   2.814   6.147  0.6032 -1.7166 -0.2067
  337MOL0     H44438   6.016   2.654   6.001  2.8678  1.9006 -1.3884
  337MOL0     H44439   6.034   2.741   5.844 -0.4933  0.2320 -0.1389
  337MOL0     H44440   5.995   2.495   5.828 -0.2619 -0.1306  0.4051
  337MOL0     H44441   5.860   2.589   5.754 -1.0120 -2.2790 -0.9163
  337MOL0     H44442   5.842   2.453   6.020  0.6275  0.3337 -0.7067
  337MOL0     H44443   5.722   2.555   5.934  0.6558  1.4345 -1.7969
  337MOL0     H44444   5.687   2.309   5.891  0.3213 -0.5245  0.1337
  337MOL0     H44445   5.849   2.293   5.829  0.5069 -0.1449 -1.7990
  337MOL0     H44446   5.582   2.619   5.713 -1.9620  0.0591  0.9441
  337MOL0     H44447   5.364   2.645   5.643  1.7363  0.7889  0.0609
  337MOL0     H44448   4.906   2.498   5.482 -1.4141  0.7864 -0.3938
  337MOL0     H44449   4.680   2.511   5.510 -0.4512  1.6170 -0.5931
  337MOL0     H44450   4.467   2.520   5.566  0.5213 -0.0159  0.6192
  337MOL0     H44451   4.510   2.690   5.535  0.1410  0.5817  1.0793
  337MOL0     H44452   4.272   2.685   5.573 -0.3295  0.7321  0.7690
  337MOL0     H44453   4.336   2.758   5.716  0.8062  0.3091  0.6032
  337MOL0     H44454   4.309   2.543   5.836  1.2561  3.0265 -0.7070
  337MOL0     H44455   4.240   2.462   5.688  1.5013  3.2529 -4.6145
  337MOL0     H44456   4.121   2.690   5.853  0.4074  0.0458  1.1081
  337MOL0     H44457   4.049   2.608   5.709  1.6820 -0.4699 -1.7837
  337MOL0     H44458   4.116   2.494   5.993  2.5100  1.7046  0.1569
  337MOL0     H44459   4.070   2.395   5.853 -3.3792  0.0023  0.0418
  337MOL0     H44460   3.859   2.530   5.829  0.7121  1.2831 -1.8850
  337MOL0     H44461   3.922   2.633   5.963 -0.4283 -0.4064 -1.1291
  337MOL0     H44462   3.948   2.417   6.106 -0.2959  0.0935  0.7071
  337MOL0     H44463   3.786   2.487   6.102 -2.0740 -0.4137 -2.3303
  337MOL0     H44464   3.899   2.249   5.947 -0.5038 -2.3767  0.6191
  337MOL0     H44465   3.745   2.347   5.905  0.7515  4.1515  0.6201
  337MOL0     H44466   4.754   2.717   5.887  1.5200 -2.2900  1.9839
  337MOL0     H44467   4.989   2.648   5.867  2.3181 -2.4714 -1.3217
  337MOL0     H44468   5.324   2.214   5.567  3.5810 -0.5912 -1.8181
  337MOL0     H44469   5.564   2.194   5.642  0.1573 -0.2084 -0.0593
  337MOL0     H44470   4.807   3.449   6.493  1.3476 -2.1083  1.2820
  337MOL0     H44471   4.579   3.430   6.532  1.2392 -2.8566  1.4832
  337MOL0     H44472   4.111   3.331   6.107 -1.2445  0.9695 -0.7767
  337MOL0     H44473   3.869   3.319   6.159 -0.3159  1.0943  0.7271
  337MOL0     H44474   3.723   3.435   6.549  0.7671 -0.8784 -0.4202
  337MOL0     H44475   3.732   3.264   6.587 -0.1173  2.9732  2.0020
  337MOL0     H44476   3.519   3.229   6.480  3.2986 -0.7930 -1.7547
  337MOL0     H44477   3.511   3.368   6.601  3.6728  3.6068  0.5613
  337MOL0     H44478   3.394   3.400   6.370  0.3384 -2.7465 -1.0846
  337MOL0     H44479   3.540   3.368   6.285  2.8707 -0.6640  0.4316
  337MOL0     H44480   3.556   3.591   6.482 -1.0317 -1.9543  0.9258
  337MOL0     H44481   3.619   3.571   6.316 -0.8089  0.2301 -0.3918
  337MOL0     H44482   3.262   3.719   6.183  0.0447 -0.4791 -0.9547
  337MOL0     H44483   3.948   3.319   6.579  1.0655  0.1498  0.5449
  337MOL0     H44484   4.202   3.313   6.527  0.8549 -1.5764 -0.3293
  338MOL0     O44485   6.663   4.518   9.791 -0.5069  0.1307 -0.3375
  338MOL0     C44486   6.655   4.610   9.710 -0.4735 -0.0642  0.4022
  338MOL0     O44487   6.541   4.681   9.686 -0.0157 -0.1260 -0.1869
  338MOL0     C44488   6.431   4.639   9.753  0.0474 -0.5802 -0.3166
  338MOL0     C44489   6.311   4.595   9.679  0.0079 -0.0019 -0.3997
  338MOL0     C44490   6.201   4.558   9.752 -0.2553 -1.2784 -0.4310
  338MOL0     C44491   6.195   4.572   9.891 -0.7863 -0.3189 -1.0285
  338MOL0     O44492   6.076   4.552   9.964 -0.7863 -0.6147 -0.4201
  338MOL0     C44493   6.049   4.417   9.978 -0.0015 -0.0074 -0.7281
  338MOL0     C44494   5.937   4.364   9.885 -0.5788 -0.3677 -1.2695
  338MOL0     C44495   5.897   4.218   9.916  0.4584 -0.7634 -0.0211
  338MOL0     C44496   5.818   4.160   9.800 -0.0985  0.0594  0.0615
  338MOL0     C44497   5.790   4.009   9.816  0.2368 -0.1945 -1.4211
  338MOL0     C44498   5.675   3.942   9.737  0.7780 -0.3910 -0.2414
  338MOL0     C44499   5.650   3.797   9.781  0.1328  0.4037  0.0423
  338MOL0     C44500   5.553   3.742   9.676  0.4991  0.1829  0.3547
  338MOL0     N44501   5.525   3.599   9.701 -0.8024 -0.8903  0.6195
  338MOL0     C44502   5.507   3.537   9.816  0.2337  0.1889 -1.2283
  338MOL0     C44503   5.487   3.404   9.789  0.6980 -0.9171  0.2705
  338MOL0     C44504   5.444   3.308   9.892 -0.2639  0.4462  0.7778
  338MOL0     C44505   5.537   3.187   9.916 -0.5238  0.3418 -0.2911
  338MOL0     C44506   5.466   3.077  10.006 -0.0903 -0.0936  0.1302
  338MOL0     C44507   5.556   2.951  10.028  0.1561 -0.1857 -0.2481
  338MOL0     O44508   5.512   2.894  10.149 -0.3171  0.4058  0.4285
  338MOL0     C44509   5.563   2.770  10.169  0.4392  0.4038  0.4103
  338MOL0     C44510   5.508   2.698  10.278  0.6877 -0.5466 -0.4935
  338MOL0     C44511   5.555   2.574  10.311 -0.1440  0.0941  0.6832
  338MOL0     C44512   5.657   2.515  10.237 -0.6940  0.0473  0.0998
  338MOL0     C44513   5.704   2.374  10.266 -0.4087 -0.5124  1.0090
  338MOL0     O44514   5.692   2.332  10.398 -0.2354  0.2673  0.4112
  338MOL0     C44515   5.761   2.222  10.445  0.4853 -0.2954  0.3401
  338MOL0     C44516   5.689   2.114  10.497  0.5572  0.1394 -0.7619
  338MOL0     C44517   5.758   1.995  10.530 -0.1503 -0.3678 -0.7676
  338MOL0     C44518   5.899   1.998  10.533 -0.2003  0.0548 -0.1205
  338MOL0     O44519   5.976   1.887  10.575  0.8599 -0.0671  0.2044
  338MOL0     C44520   6.116   1.904  10.614 -0.0422  0.3869 -0.0003
  338MOL0     C44521   6.172   1.788  10.700 -0.5722  0.0535 -0.3099
  338MOL0     C44522   6.308   1.817  10.760  0.1702 -0.2874  0.1212
  338MOL0     C44523   6.341   1.707  10.864  0.1196 -0.4425  0.6775
  338MOL0     C44524   6.473   1.738  10.923 -0.4205  0.3454  0.0542
  338MOL0     C44525   6.517   1.631  11.020 -0.9105 -0.0919 -0.1497
  338MOL0     C44526   6.639   1.683  11.104 -0.0806  0.4910  0.2906
  338MOL0     C44527   6.660   1.593  11.215 -1.5644 -0.0819  0.1222
  338MOL0    Cl44528   6.827   1.616  11.270 -0.0874 -0.1855 -0.0009
  338MOL0     C44529   5.965   2.115  10.476  0.2394  0.0078 -0.1099
  338MOL0     C44530   5.903   2.230  10.438  0.8791 -0.2219 -0.3314
  338MOL0     O44531   5.762   2.319  10.173  0.6688 -0.3085 -0.0193
  338MOL0     C44532   5.714   2.587  10.138 -0.2081 -0.9542  0.8826
  338MOL0     C44533   5.670   2.713  10.098 -0.7696  0.3547  0.8459
  338MOL0     N44534   5.509   3.390   9.651  0.0987 -0.3631 -0.1801
  338MOL0     N44535   5.519   3.510   9.601 -0.2859  0.4875 -0.0677
  338MOL0     C44536   6.309   4.611   9.966 -0.3338  0.3590 -0.1547
  338MOL0     C44537   6.427   4.639   9.898 -0.0115 -0.1154  0.7886
  338MOL0     C44538   6.766   4.618   9.613 -0.2556 -0.5707 -0.2615
  338MOL0     C44539   6.759   4.720   9.519  0.4177  0.9314 -0.3627
  338MOL0     C44540   6.862   4.741   9.428 -0.4321  0.0158  0.0116
  338MOL0     C44541   6.985   4.668   9.436  0.1837 -0.7002  0.0802
  338MOL0     O44542   7.101   4.670   9.360 -0.2489 -0.6824  0.0301
  338MOL0     C44543   7.098   4.742   9.236 -0.3027 -0.0123  0.3571
  338MOL0     C44544   7.218   4.697   9.156 -0.0701  0.0135 -0.3915
  338MOL0     C44545   7.193   4.554   9.110 -0.4398  0.4339 -0.0056
  338MOL0     C44546   7.323   4.506   9.030 -0.1128  0.2473 -0.0431
  338MOL0     C44547   7.320   4.568   8.893 -0.8296 -0.4076  0.7889
  338MOL0     C44548   7.298   4.626   8.784  0.8230  1.1457  0.3015
  338MOL0     C44549   6.991   4.572   9.541 -0.5585  0.0449  0.1594
  338MOL0     C44550   6.887   4.536   9.630  0.1978 -0.0117  0.2846
  338MOL0     H44551   6.318   4.584   9.571  0.1787 -0.7894 -0.3140
  338MOL0     H44552   6.119   4.515   9.695 -0.0548  0.5006 -2.1609
  338MOL0     H44553   6.015   4.393  10.079  2.6853  0.2300  0.3031
  338MOL0     H44554   6.140   4.357   9.970  1.1916  1.6438 -0.0629
  338MOL0     H44555   5.973   4.374   9.782  1.2715  0.6184 -0.5831
  338MOL0     H44556   5.849   4.427   9.899  0.5282  0.7528  1.3404
  338MOL0     H44557   5.841   4.227  10.009  0.3296  0.4413 -0.1984
  338MOL0     H44558   5.994   4.172   9.933  1.2023  1.0148  0.6868
  338MOL0     H44559   5.725   4.215   9.783 -1.6641 -2.8740 -1.5581
  338MOL0     H44560   5.869   4.165   9.703 -0.0331  1.8004  0.1529
  338MOL0     H44561   5.766   3.992   9.922 -0.9102 -0.7931 -1.7600
  338MOL0     H44562   5.876   3.946   9.793  0.4073 -0.9397  0.9569
  338MOL0     H44563   5.695   3.951   9.630 -2.9978  0.6201 -1.0116
  338MOL0     H44564   5.587   4.006   9.746  0.6727 -0.5107 -0.4141
  338MOL0     H44565   5.737   3.734   9.805 -0.2690  0.2726  1.2152
  338MOL0     H44566   5.598   3.799   9.877 -3.1731 -1.2817 -1.5307
  338MOL0     H44567   5.606   3.763   9.582  1.8347 -0.7366  0.8644
  338MOL0     H44568   5.462   3.800   9.661  0.4311  0.8763  3.0302
  338MOL0     H44569   5.512   3.578   9.917  1.9053  0.0865 -1.2486
  338MOL0     H44570   5.345   3.271   9.865 -0.3849  3.1161 -3.1560
  338MOL0     H44571   5.436   3.349   9.993 -0.4555  3.2593 -0.3032
  338MOL0     H44572   5.623   3.231   9.968  0.2867 -0.7597 -0.6420
  338MOL0     H44573   5.576   3.144   9.823  1.0774  1.2424 -0.0808
  338MOL0     H44574   5.451   3.120  10.105 -1.1123 -1.0001  0.3830
  338MOL0     H44575   5.371   3.052   9.959  0.3978  0.8592 -1.4559
  338MOL0     H44576   5.658   2.983  10.048 -0.6186  2.8408 -0.6484
  338MOL0     H44577   5.564   2.885   9.940  0.8945 -3.5204  2.1235
  338MOL0     H44578   5.427   2.752  10.326 -1.0004 -0.9884 -2.6590
  338MOL0     H44579   5.524   2.528  10.405 -0.9856  4.7024  2.9688
  338MOL0     H44580   5.582   2.105  10.485  0.2072  0.5517  1.6266
  338MOL0     H44581   5.692   1.914  10.562 -2.8711  1.7748 -0.6302
  338MOL0     H44582   6.118   1.993  10.677  1.5632 -0.4456  1.2051
  338MOL0     H44583   6.183   1.924  10.530  2.8282 -1.2044  1.7588
  338MOL0     H44584   6.177   1.698  10.638 -0.1019 -1.1563  1.4103
  338MOL0     H44585   6.094   1.767  10.774 -2.5514  2.5534 -1.5632
  338MOL0     H44586   6.300   1.912  10.814 -0.6937  0.1976 -0.8468
  338MOL0     H44587   6.383   1.820  10.680 -0.2196 -1.1358 -0.2879
  338MOL0     H44588   6.272   1.711  10.949  1.0852  2.0622  1.4300
  338MOL0     H44589   6.338   1.608  10.818 -0.4600  0.2585 -0.8653
  338MOL0     H44590   6.460   1.837  10.968 -0.2572  1.1282 -1.5660
  338MOL0     H44591   6.550   1.742  10.846 -0.4795 -0.4571 -0.0613
  338MOL0     H44592   6.538   1.529  10.986 -0.4879 -1.3266  3.3729
  338MOL0     H44593   6.431   1.621  11.087 -1.0867 -2.1090 -0.6296
  338MOL0     H44594   6.727   1.690  11.039 -0.7087 -3.1356 -1.2249
  338MOL0     H44595   6.612   1.781  11.144  0.3003  1.3398 -1.4118
  338MOL0     H44596   6.655   1.493  11.173 -0.0696 -0.0925 -0.0877
  338MOL0     H44597   6.594   1.605  11.301  0.4540  1.3096  1.5886
  338MOL0     H44598   6.073   2.108  10.488  0.2074 -1.0127 -0.3345
  338MOL0     H44599   5.968   2.310  10.403 -0.0396  2.1763  3.0090
  338MOL0     H44600   5.790   2.546  10.072  0.6967  0.8589  0.7368
  338MOL0     H44601   5.718   2.766  10.016  0.0483 -1.7530 -0.1156
  338MOL0     H44602   6.320   4.591  10.072  0.1670 -0.9441 -0.4356
  338MOL0     H44603   6.519   4.673   9.944  0.9404  0.2091 -1.2862
  338MOL0     H44604   6.666   4.775   9.510 -0.8182 -0.7806  1.2089
  338MOL0     H44605   6.844   4.824   9.360 -0.4774  0.7248  0.8627
  338MOL0     H44606   7.102   4.852   9.237 -0.8190  0.1126 -2.6833
  338MOL0     H44607   7.009   4.708   9.182 -1.3637  1.2106  1.2727
  338MOL0     H44608   7.246   4.761   9.071  4.7907 -0.7427  0.3662
  338MOL0     H44609   7.307   4.700   9.220 -0.3259  0.5188 -0.0477
  338MOL0     H44610   7.101   4.535   9.053 -1.7387 -0.6686  2.3225
  338MOL0     H44611   7.184   4.503   9.206 -1.4982  1.2867  0.3726
  338MOL0     H44612   7.410   4.535   9.090 -2.0498  0.6548  2.8159
  338MOL0     H44613   7.322   4.397   9.020  1.5112  0.2538 -0.6260
  338MOL0     H44614   7.299   4.658   8.682 -0.0802 -2.9302 -1.1775
  338MOL0     H44615   7.088   4.527   9.559 -0.2008  0.0871 -1.5190
  338MOL0     H44616   6.902   4.466   9.712  1.6641  0.0836  0.1115
  339MOL0     O44617   5.059   4.519   2.921 -0.2186  0.9371 -0.0515
  339MOL0     C44618   5.153   4.533   2.845  0.0328  0.7520  0.6576
  339MOL0     O44619   5.145   4.513   2.707 -0.5639 -0.5784  0.6390
  339MOL0     C44620   5.020   4.481   2.659 -0.5519 -0.5107  0.2584
  339MOL0     C44621   4.967   4.360   2.685  0.2803 -1.0353 -0.0139
  339MOL0     C44622   4.834   4.341   2.646  0.3454  0.2948 -0.4018
  339MOL0     C44623   4.763   4.430   2.571  0.0059 -0.2711  0.5549
  339MOL0     O44624   4.631   4.397   2.538 -1.0431 -0.1991  0.3923
  339MOL0     C44625   4.588   4.435   2.410 -0.2275 -0.3727 -0.4423
  339MOL0     C44626   4.461   4.351   2.387  1.0693 -0.0615  0.3259
  339MOL0     C44627   4.381   4.386   2.260  0.2660 -0.1605 -0.0128
  339MOL0     C44628   4.233   4.332   2.254  0.6996  0.4718  0.6425
  339MOL0     C44629   4.153   4.411   2.150 -0.5646 -0.1739 -0.3924
  339MOL0     C44630   4.003   4.371   2.136  0.1104 -0.2073  0.5507
  339MOL0     C44631   3.930   4.392   2.002 -0.0079 -0.5001  0.6824
  339MOL0     C44632   3.988   4.292   1.896  0.8719 -0.6364  0.5222
  339MOL0     N44633   3.917   4.330   1.766 -0.5734  0.2414 -0.4518
  339MOL0     C44634   3.809   4.267   1.710 -0.1092 -0.1753  0.3639
  339MOL0     C44635   3.763   4.361   1.629 -0.0783 -0.2080 -0.1001
  339MOL0     C44636   3.640   4.334   1.555  0.6220  0.1526 -0.6181
  339MOL0     C44637   3.528   4.368   1.650 -0.0225 -0.7244  0.4450
  339MOL0     C44638   3.398   4.311   1.590 -0.2096 -0.3498  0.0370
  339MOL0     C44639   3.280   4.341   1.672  0.5391  0.6422 -0.5569
  339MOL0     O44640   3.163   4.334   1.591  0.2560 -0.7481  0.1679
  339MOL0     C44641   3.055   4.276   1.656 -0.2728 -0.3866 -0.4334
  339MOL0     C44642   3.041   4.140   1.640  0.3852 -0.0081 -0.1846
  339MOL0     C44643   2.926   4.080   1.695 -1.0131 -0.4754  0.3202
  339MOL0     C44644   2.840   4.154   1.775 -0.4365  0.7995 -0.4000
  339MOL0     C44645   2.703   4.117   1.827  0.1692  0.6491  0.1136
  339MOL0     O44646   2.659   4.004   1.773 -0.0675  0.8760 -0.8531
  339MOL0     C44647   2.528   3.944   1.776  0.0516 -0.1399  0.6226
  339MOL0     C44648   2.423   3.988   1.847 -0.0588 -0.0667  0.3011
  339MOL0     C44649   2.302   3.918   1.847  0.2420  0.4384  0.2133
  339MOL0     C44650   2.274   3.813   1.764  0.4015 -0.8025 -0.0645
  339MOL0     O44651   2.147   3.766   1.755  0.3609  0.2786  0.0072
  339MOL0     C44652   2.120   3.660   1.660  0.6789  0.1616  0.0702
  339MOL0     C44653   1.967   3.631   1.671  0.3172 -0.1150  0.0636
  339MOL0     C44654   1.949   3.502   1.761  0.4324 -0.3692 -0.1770
  339MOL0     C44655   1.809   3.499   1.822 -0.1946  0.0133 -0.7815
  339MOL0     C44656   1.799   3.546   1.968 -0.1031 -0.5729 -0.5073
  339MOL0     C44657   1.856   3.679   2.007 -0.1127 -0.4209  0.1107
  339MOL0     C44658   1.864   3.694   2.159 -0.0798  0.1235  0.0834
  339MOL0     C44659   1.941   3.812   2.213 -0.4251  0.2204 -0.2525
  339MOL0    Cl44660   2.112   3.778   2.167 -0.4010  0.0609  0.1263
  339MOL0     C44661   2.384   3.766   1.687 -0.1195  1.0775 -0.2651
  339MOL0     C44662   2.510   3.826   1.708 -0.4434 -0.3992  0.5919
  339MOL0     O44663   2.651   4.186   1.920  0.0604  0.2489  0.7320
  339MOL0     C44664   2.869   4.291   1.796 -0.6730 -0.4408  0.6787
  339MOL0     C44665   2.972   4.355   1.734  0.5060 -0.0485 -0.0432
  339MOL0     N44666   3.837   4.480   1.627  0.3165  0.5541  0.0792
  339MOL0     N44667   3.936   4.457   1.714  0.0129 -0.2967  0.4879
  339MOL0     C44668   4.825   4.555   2.535 -0.2900 -0.0145  0.5020
  339MOL0     C44669   4.958   4.578   2.576 -0.1709  0.2104 -0.1185
  339MOL0     C44670   5.279   4.591   2.902 -1.2628 -0.3776 -0.1569
  339MOL0     C44671   5.315   4.574   3.037  0.1041 -0.5154  0.0716
  339MOL0     C44672   5.433   4.623   3.083 -0.9609 -0.2137 -0.1807
  339MOL0     C44673   5.532   4.680   3.001 -0.0807  1.0266 -0.5553
  339MOL0     O44674   5.646   4.711   3.066  0.9828 -0.5452  0.2502
  339MOL0     C44675   5.764   4.666   2.996  0.8221  0.6634  0.3716
  339MOL0     C44676   5.871   4.638   3.101 -0.8599  0.3142 -0.9027
  339MOL0     C44677   6.007   4.639   3.026  0.4204 -0.1796  0.3608
  339MOL0     C44678   6.117   4.583   3.114  0.4146 -0.9895 -0.1913
  339MOL0     C44679   6.169   4.674   3.214 -0.0725 -0.1632  0.3697
  339MOL0     C44680   6.220   4.748   3.297 -0.4224 -0.0887  0.6078
  339MOL0     C44681   5.501   4.690   2.857 -0.6496  0.3276 -1.2075
  339MOL0     C44682   5.374   4.649   2.812 -0.1081 -0.5090 -1.0836
  339MOL0     H44683   5.028   4.284   2.732  1.9242 -0.7851 -1.6060
  339MOL0     H44684   4.795   4.245   2.681  1.5686 -0.6935 -1.6736
  339MOL0     H44685   4.667   4.399   2.343  0.5707 -1.5719  1.0790
  339MOL0     H44686   4.562   4.540   2.400 -2.7723 -0.3555  3.8962
  339MOL0     H44687   4.396   4.370   2.473  3.0263  1.3352  1.5593
  339MOL0     H44688   4.484   4.244   2.385  0.4741 -0.1956 -0.9648
  339MOL0     H44689   4.441   4.349   2.176  0.1119 -1.5506  0.4642
  339MOL0     H44690   4.378   4.495   2.252  3.1718  0.0659  1.0102
  339MOL0     H44691   4.222   4.226   2.230  1.5041  0.2411  1.2195
  339MOL0     H44692   4.193   4.349   2.354  1.4437 -1.1749  1.2698
  339MOL0     H44693   4.192   4.378   2.054 -1.2454  0.4044 -0.8750
  339MOL0     H44694   4.159   4.520   2.161  0.1297 -0.3424  1.3183
  339MOL0     H44695   3.939   4.417   2.212 -0.3881 -1.6242  1.0262
  339MOL0     H44696   3.985   4.265   2.156 -3.1800  0.0657 -0.4896
  339MOL0     H44697   3.825   4.366   2.019 -0.0538  0.4908  2.1265
  339MOL0     H44698   3.943   4.495   1.969  1.3074 -0.5308  1.0430
  339MOL0     H44699   3.968   4.189   1.926 -0.5961  0.0552  2.0460
  339MOL0     H44700   4.097   4.305   1.886  0.8492  0.1465  1.2250
  339MOL0     H44701   3.774   4.166   1.727  3.8233 -2.8445 -4.6678
  339MOL0     H44702   3.640   4.228   1.529  2.5553 -0.5633  1.9326
  339MOL0     H44703   3.621   4.389   1.462 -0.3309  0.5666 -0.1983
  339MOL0     H44704   3.514   4.476   1.654 -0.4844 -0.7785  0.4379
  339MOL0     H44705   3.541   4.315   1.745 -0.4815 -2.5307 -0.4418
  339MOL0     H44706   3.386   4.355   1.490 -1.0393  0.9921  0.7056
  339MOL0     H44707   3.404   4.202   1.581 -2.3139 -0.7573  2.3740
  339MOL0     H44708   3.300   4.442   1.711 -0.3952  0.5371  0.2211
  339MOL0     H44709   3.261   4.274   1.756 -3.3800 -1.0108 -2.5158
  339MOL0     H44710   3.116   4.085   1.585  1.2626  0.9396  0.0388
  339MOL0     H44711   2.928   3.972   1.698 -1.1258 -0.6231 -2.3875
  339MOL0     H44712   2.423   4.079   1.906  0.2726  1.3833 -1.8141
  339MOL0     H44713   2.221   3.940   1.916 -0.6612 -0.6119 -0.4696
  339MOL0     H44714   2.179   3.569   1.671  3.1745  1.8469  1.6448
  339MOL0     H44715   2.149   3.694   1.560  4.5615  0.0052  0.9797
  339MOL0     H44716   1.938   3.607   1.569  2.8113 -0.1026 -0.7253
  339MOL0     H44717   1.916   3.720   1.709  1.9939  1.7575 -1.8273
  339MOL0     H44718   2.014   3.518   1.847 -2.1843 -0.6629  1.9810
  339MOL0     H44719   1.971   3.410   1.706 -1.2116 -1.9247  1.6397
  339MOL0     H44720   1.741   3.562   1.764 -1.6939 -0.8270 -0.0088
  339MOL0     H44721   1.775   3.395   1.816  1.5433 -0.5875 -1.0526
  339MOL0     H44722   1.849   3.470   2.029 -0.5982 -2.0447 -1.8894
  339MOL0     H44723   1.692   3.542   1.993  0.3605  0.4737  2.0089
  339MOL0     H44724   1.792   3.751   1.955  1.2043 -1.9742 -4.0921
  339MOL0     H44725   1.950   3.696   1.955 -0.2300 -0.0338  0.0186
  339MOL0     H44726   1.765   3.703   2.205  0.4731  0.0952  1.3100
  339MOL0     H44727   1.911   3.601   2.192 -1.0836 -1.3220 -2.2953
  339MOL0     H44728   1.921   3.841   2.317  1.1406 -2.7038  0.9886
  339MOL0     H44729   1.917   3.899   2.152 -0.9045  0.1887 -0.1139
  339MOL0     H44730   2.367   3.685   1.616 -0.7208  0.3805  0.6395
  339MOL0     H44731   2.587   3.770   1.656 -1.4053 -0.4734 -0.8053
  339MOL0     H44732   2.800   4.339   1.865  1.5446 -2.3302  4.5373
  339MOL0     H44733   2.977   4.463   1.744  1.3674 -0.2717  2.9725
  339MOL0     H44734   4.784   4.627   2.464 -0.4683 -0.6063 -0.0042
  339MOL0     H44735   5.006   4.674   2.566  0.3558 -0.0746 -0.3911
  339MOL0     H44736   5.247   4.531   3.110 -2.0912  1.9757 -0.3561
  339MOL0     H44737   5.466   4.620   3.186  0.4778  0.9264 -0.5687
  339MOL0     H44738   5.789   4.755   2.938  0.8624  1.6328  1.8310
  339MOL0     H44739   5.754   4.580   2.929  0.4163 -0.0853  1.3624
  339MOL0     H44740   5.875   4.718   3.176  0.4668 -0.9776  0.4671
  339MOL0     H44741   5.854   4.544   3.153 -0.4284  0.2392 -0.8885
  339MOL0     H44742   6.046   4.737   2.997  1.7192 -1.0857 -1.1433
  339MOL0     H44743   6.006   4.577   2.935  1.9336 -0.1485  0.3013
  339MOL0     H44744   6.087   4.489   3.162  1.0541 -0.5295  1.1816
  339MOL0     H44745   6.202   4.563   3.050  0.0713  2.1588 -1.8303
  339MOL0     H44746   6.274   4.807   3.369 -0.3134 -0.7060  1.0432
  339MOL0     H44747   5.582   4.721   2.791 -0.1556 -0.0954 -0.8124
  339MOL0     H44748   5.357   4.667   2.706 -4.6560 -0.5855 -0.5535
  340MOL0     O44749   1.614   1.501   2.171  0.0388  0.3087  0.6124
  340MOL0     C44750   1.658   1.619   2.152  0.1460  0.3897 -0.0638
  340MOL0     O44751   1.589   1.730   2.200 -0.1444  0.5220  0.1088
  340MOL0     C44752   1.454   1.726   2.221 -0.7348  0.3748 -0.1073
  340MOL0     C44753   1.355   1.627   2.181 -0.1805 -0.1401 -1.0078
  340MOL0     C44754   1.219   1.648   2.208 -0.3691  0.0094  0.4820
  340MOL0     C44755   1.176   1.757   2.280  0.7105  0.2223  0.2571
  340MOL0     O44756   1.043   1.753   2.321  0.6468  0.2921  0.3837
  340MOL0     C44757   0.972   1.877   2.327 -0.1702  0.8488  0.3308
  340MOL0     C44758   0.828   1.833   2.359 -0.7935  0.1511  0.3010
  340MOL0     C44759   0.734   1.815   2.244  0.2254  0.6106  0.0918
  340MOL0     C44760   0.701   1.949   2.174 -0.5820 -0.3930 -0.8806
  340MOL0     C44761   0.550   1.955   2.134 -0.0278 -0.0251 -0.0507
  340MOL0     C44762   0.530   2.077   2.042  0.0977 -0.1526  0.1693
  340MOL0     C44763   0.385   2.106   1.992 -0.4612  0.2118 -0.4476
  340MOL0     C44764   0.383   2.236   1.904  0.2571  0.3161  0.6130
  340MOL0     N44765   0.251   2.272   1.853  0.1535 -0.1736 -0.3090
  340MOL0     C44766   0.154   2.336   1.935 -0.0123  0.0757 -0.5540
  340MOL0     C44767   0.045   2.345   1.858 -0.5552  0.2802 -0.5716
  340MOL0     C44768  -0.091   2.405   1.903  0.0895  1.1082  0.7519
  340MOL0     C44769  -0.120   2.545   1.844  0.1956 -0.1717  0.8953
  340MOL0     C44770  -0.250   2.588   1.912 -0.4109  0.4131 -0.6131
  340MOL0     C44771  -0.287   2.735   1.881 -0.5548 -0.0694  0.1860
  340MOL0     O44772  -0.274   2.774   1.735 -1.0433 -0.6399 -0.7294
  340MOL0     C44773  -0.355   2.869   1.704 -0.9630  0.0801 -0.6887
  340MOL0     C44774  -0.400   2.971   1.787 -0.1833 -0.5589  0.4276
  340MOL0     C44775  -0.485   3.071   1.739  0.2314 -0.5619  0.0211
  340MOL0     C44776  -0.529   3.073   1.607 -0.1106 -0.7945 -0.1884
  340MOL0     C44777  -0.619   3.187   1.552 -0.0806 -0.4217 -0.3443
  340MOL0     O44778  -0.669   3.272   1.638 -0.1580 -0.5701  0.5133
  340MOL0     C44779  -0.710   3.391   1.574  0.3390  0.1358 -0.6217
  340MOL0     C44780  -0.839   3.396   1.511  0.1100  0.0126  0.3992
  340MOL0     C44781  -0.880   3.514   1.458  0.0200  0.3092 -0.4219
  340MOL0     C44782  -0.813   3.636   1.487 -0.7095  0.5478  0.4177
  340MOL0     O44783  -0.877   3.752   1.446  0.5980  0.3952 -0.6776
  340MOL0     C44784  -0.804   3.866   1.404  0.0614  0.1835 -0.3119
  340MOL0     C44785  -0.899   3.963   1.341  0.6634 -0.8092  0.5436
  340MOL0     C44786  -0.842   4.101   1.303 -0.0804 -0.2036 -0.1372
  340MOL0     C44787  -0.790   4.192   1.416  0.0415  0.2029  0.5787
  340MOL0     C44788  -0.907   4.230   1.510 -0.1895 -1.0740 -0.1932
  340MOL0     C44789  -0.842   4.278   1.641  0.9873 -0.0038 -0.8006
  340MOL0     C44790  -0.945   4.300   1.753 -0.2700  0.6801  0.6084
  340MOL0     C44791  -1.039   4.410   1.730 -0.2496 -0.4494  0.4230
  340MOL0    Cl44792  -1.167   4.420   1.851 -0.8404  0.1598 -0.2366
  340MOL0     C44793  -0.679   3.628   1.530  0.0258  0.6177  0.2377
  340MOL0     C44794  -0.626   3.507   1.576 -0.0176 -0.6399 -0.2258
  340MOL0     O44795  -0.626   3.197   1.429 -0.4218 -0.5766 -0.4299
  340MOL0     C44796  -0.476   2.980   1.521 -0.2906  0.4605  0.3887
  340MOL0     C44797  -0.393   2.874   1.570  0.1995  0.4996  0.4325
  340MOL0     N44798   0.072   2.276   1.743  0.1152  0.3127  0.8823
  340MOL0     N44799   0.194   2.231   1.741  0.4524 -0.0807 -0.4884
  340MOL0     C44800   1.265   1.863   2.308  0.1709 -0.1290 -1.0574
  340MOL0     C44801   1.399   1.837   2.278  0.4648 -1.2848 -0.5140
  340MOL0     C44802   1.796   1.640   2.100  0.1639  0.1793 -0.5667
  340MOL0     C44803   1.874   1.534   2.045 -0.1268  0.6340 -0.1529
  340MOL0     C44804   2.000   1.553   1.988 -0.0778 -0.8983  0.7488
  340MOL0     C44805   2.049   1.684   2.002 -0.0972  0.9537  0.0310
  340MOL0     O44806   2.167   1.723   1.936 -0.3996  0.2290 -0.2578
  340MOL0     C44807   2.281   1.630   1.921  0.4179  0.6709 -0.3229
  340MOL0     C44808   2.406   1.708   1.901  0.1896  1.0207 -0.0044
  340MOL0     C44809   2.523   1.632   1.833 -0.0431 -0.2276 -0.3236
  340MOL0     C44810   2.655   1.710   1.830  0.8363 -1.1838  0.3856
  340MOL0     C44811   2.760   1.627   1.777 -0.4358  0.7746  0.7803
  340MOL0     C44812   2.840   1.554   1.726  0.9116 -0.9979  0.2897
  340MOL0     C44813   1.969   1.793   2.051 -0.9546 -0.2248 -0.2955
  340MOL0     C44814   1.846   1.770   2.108  0.1714 -1.2934 -0.2055
  340MOL0     H44815   1.372   1.549   2.107 -1.1446 -1.1439 -0.2121
  340MOL0     H44816   1.161   1.573   2.155  1.2063 -1.8880  1.3707
  340MOL0     H44817   0.983   1.935   2.235  4.5020  1.1117  0.7766
  340MOL0     H44818   1.027   1.932   2.405  2.7569  0.9831 -1.6620
  340MOL0     H44819   0.781   1.905   2.426 -4.2598 -0.0569 -1.6436
  340MOL0     H44820   0.835   1.740   2.416  1.6183  1.2800  2.0256
  340MOL0     H44821   0.644   1.776   2.292  1.6942 -1.8046  1.1011
  340MOL0     H44822   0.782   1.743   2.177  0.7829  2.1783 -1.2797
  340MOL0     H44823   0.732   2.025   2.246 -0.9005 -0.1181 -1.0315
  340MOL0     H44824   0.760   1.955   2.082 -1.2259 -0.4037 -1.3029
  340MOL0     H44825   0.490   1.962   2.225 -0.7367 -3.0429 -0.1804
  340MOL0     H44826   0.523   1.862   2.084  3.8075 -0.1832 -2.2370
  340MOL0     H44827   0.592   2.060   1.953  0.5189 -1.8703  0.7609
  340MOL0     H44828   0.575   2.164   2.092 -3.4486  3.6714 -2.6276
  340MOL0     H44829   0.345   2.020   1.938 -0.3434 -1.9310  2.5905
  340MOL0     H44830   0.321   2.115   2.081 -0.3919 -2.5772 -0.0423
  340MOL0     H44831   0.447   2.220   1.816 -0.0778  2.5829 -0.1167
  340MOL0     H44832   0.427   2.317   1.962  0.8732  1.3792 -1.2544
  340MOL0     H44833   0.164   2.373   2.037  2.6990  1.2435 -1.1532
  340MOL0     H44834  -0.089   2.411   2.012  0.4881  0.4774  0.7914
  340MOL0     H44835  -0.177   2.343   1.878  0.6717  0.9102 -0.8872
  340MOL0     H44836  -0.132   2.535   1.736  1.7206 -1.4391  0.8214
  340MOL0     H44837  -0.038   2.614   1.866  0.1602  1.5941 -3.5121
  340MOL0     H44838  -0.330   2.517   1.890 -0.0319  0.0943 -0.9843
  340MOL0     H44839  -0.232   2.581   2.019 -0.1150  0.3470 -0.6656
  340MOL0     H44840  -0.224   2.807   1.934 -2.2278 -0.1379  2.4307
  340MOL0     H44841  -0.386   2.751   1.925 -0.2164  0.2265  0.8612
  340MOL0     H44842  -0.371   2.984   1.891  2.3819  1.3161 -0.4288
  340MOL0     H44843  -0.523   3.146   1.807 -1.6664 -0.2468 -1.2922
  340MOL0     H44844  -0.916   3.319   1.504  2.3355 -2.3424  0.4910
  340MOL0     H44845  -0.973   3.531   1.404 -1.3297 -0.2165  1.6281
  340MOL0     H44846  -0.726   3.835   1.334  0.5535 -0.4029  0.4775
  340MOL0     H44847  -0.758   3.906   1.495 -0.4786 -0.0733  0.0851
  340MOL0     H44848  -0.983   3.987   1.407  1.5296 -0.1974  1.4616
  340MOL0     H44849  -0.934   3.915   1.250 -2.0797  1.4707  0.2570
  340MOL0     H44850  -0.923   4.149   1.247  0.3548  0.1964 -0.4342
  340MOL0     H44851  -0.759   4.075   1.236  0.7681 -0.2548  0.9075
  340MOL0     H44852  -0.715   4.134   1.472 -0.2664 -1.5442 -0.7558
  340MOL0     H44853  -0.745   4.278   1.364  0.5759 -1.1838 -1.3632
  340MOL0     H44854  -0.961   4.140   1.541 -1.2010 -0.9359 -1.4727
  340MOL0     H44855  -0.984   4.298   1.472  0.8698  0.2227 -0.1161
  340MOL0     H44856  -0.789   4.371   1.621 -1.2618  1.0754 -2.2472
  340MOL0     H44857  -0.784   4.194   1.680  1.3072 -0.1551 -1.5801
  340MOL0     H44858  -0.994   4.203   1.767 -0.1522  0.5635  0.2343
  340MOL0     H44859  -0.897   4.330   1.847 -0.0874  0.5299  0.5632
  340MOL0     H44860  -1.095   4.392   1.638  0.8635  2.1072 -0.8615
  340MOL0     H44861  -0.987   4.506   1.728  0.0955 -0.6485 -0.2865
  340MOL0     H44862  -0.618   3.718   1.536  2.6344 -1.1123  2.7059
  340MOL0     H44863  -0.525   3.493   1.613 -0.7841 -2.8999  1.2367
  340MOL0     H44864  -0.506   2.985   1.417 -2.0749 -1.4626  0.7365
  340MOL0     H44865  -0.356   2.795   1.504 -1.6321 -0.9756  1.0917
  340MOL0     H44866   1.230   1.951   2.362 -3.8160 -1.2422 -1.5366
  340MOL0     H44867   1.458   1.918   2.320 -1.0496  0.5008 -1.6916
  340MOL0     H44868   1.827   1.436   2.044 -0.2611  0.6794 -1.8543
  340MOL0     H44869   2.051   1.471   1.939  0.7259 -2.4883  3.9836
  340MOL0     H44870   2.261   1.561   1.839 -0.3329 -1.0928  1.2667
  340MOL0     H44871   2.300   1.568   2.009 -1.8826  0.2040 -0.0899
  340MOL0     H44872   2.391   1.802   1.848  2.6170  1.6505  0.3374
  340MOL0     H44873   2.439   1.725   2.004  5.1830 -1.1808 -0.9688
  340MOL0     H44874   2.496   1.595   1.734 -0.4267 -0.5785 -0.0911
  340MOL0     H44875   2.536   1.538   1.888  0.4939  1.4358  2.5992
  340MOL0     H44876   2.639   1.807   1.781  0.3556 -0.8159  1.2393
  340MOL0     H44877   2.692   1.741   1.929 -0.9360 -1.9343  1.3233
  340MOL0     H44878   2.901   1.487   1.668  2.0136  0.3847 -0.2145
  340MOL0     H44879   2.009   1.894   2.059 -0.0622 -0.6552  0.9264
  340MOL0     H44880   1.803   1.859   2.153  1.0643  0.2881 -2.2640
  341MOL0     O44881   4.639   0.230   6.684  1.1384  0.3319 -0.5426
  341MOL0     C44882   4.626   0.351   6.702  0.2929 -0.1271 -0.0277
  341MOL0     O44883   4.515   0.422   6.676  0.2434 -0.6041 -0.0370
  341MOL0     C44884   4.399   0.363   6.637 -0.0341  0.2809  0.1917
  341MOL0     C44885   4.285   0.405   6.715 -0.0477  0.2532 -0.5448
  341MOL0     C44886   4.163   0.340   6.690 -0.2860 -0.8107  0.0841
  341MOL0     C44887   4.155   0.249   6.578  0.5354  0.6476 -0.4806
  341MOL0     O44888   4.039   0.181   6.549 -0.0084  0.3519  0.2142
  341MOL0     C44889   3.959   0.132   6.658 -1.0557 -0.1070 -0.3210
  341MOL0     C44890   3.860   0.029   6.614  0.4725  0.3620  0.1848
  341MOL0     C44891   3.787  -0.044   6.730 -0.1439 -0.2344 -0.0162
  341MOL0     C44892   3.652  -0.108   6.682  0.1774 -0.3071 -0.2988
  341MOL0     C44893   3.529  -0.012   6.686  0.3752  0.7391 -0.0131
  341MOL0     C44894   3.409  -0.084   6.619 -0.1115 -0.4513 -0.3390
  341MOL0     C44895   3.265  -0.016   6.650  0.2381 -0.6685 -0.3082
  341MOL0     C44896   3.241  -0.030   6.802 -0.2326 -0.2749 -0.5946
  341MOL0     N44897   3.112   0.029   6.836  1.1835  0.3054 -0.4091
  341MOL0     C44898   2.989  -0.029   6.803  0.3823 -0.0309  0.1023
  341MOL0     C44899   2.886   0.047   6.847 -0.6637  0.8495 -0.0284
  341MOL0     C44900   2.742   0.028   6.835  0.5112 -0.1724  0.0097
  341MOL0     C44901   2.685   0.112   6.729  0.6462 -0.2167 -0.0184
  341MOL0     C44902   2.530   0.109   6.721 -0.4020 -0.8367 -0.2173
  341MOL0     C44903   2.459   0.197   6.823 -0.5291  0.2908  0.8079
  341MOL0     O44904   2.320   0.208   6.788 -0.1261 -0.0854 -0.2084
  341MOL0     C44905   2.237   0.228   6.891  0.2019  0.0349  0.1016
  341MOL0     C44906   2.101   0.230   6.866  0.4803  0.2103 -0.9957
  341MOL0     C44907   2.002   0.262   6.954  1.3388  1.0071 -0.8791
  341MOL0     C44908   2.038   0.310   7.083  0.7086  0.4809 -0.9867
  341MOL0     C44909   1.933   0.348   7.183 -0.0473 -0.0886  0.0220
  341MOL0     O44910   1.799   0.362   7.143 -0.1517  0.3263 -0.2040
  341MOL0     C44911   1.702   0.399   7.228  0.4931 -0.2583 -0.4441
  341MOL0     C44912   1.665   0.531   7.241  0.4427  0.3803 -0.2641
  341MOL0     C44913   1.567   0.561   7.324  0.0136 -0.4380 -0.1618
  341MOL0     C44914   1.503   0.461   7.401  0.2333  0.2181  0.4753
  341MOL0     O44915   1.405   0.510   7.482  0.4079  0.8699  0.4105
  341MOL0     C44916   1.311   0.429   7.557 -0.2552  0.5390  0.4888
  341MOL0     C44917   1.189   0.518   7.583 -0.9761  0.5707  0.3453
  341MOL0     C44918   1.108   0.542   7.459  0.8900 -0.5352  0.6631
  341MOL0     C44919   0.967   0.596   7.486 -0.6500 -0.3285 -0.3490
  341MOL0     C44920   0.866   0.510   7.562  0.4840 -0.0011 -0.1302
  341MOL0     C44921   0.828   0.380   7.484  0.5509 -0.1788 -0.0892
  341MOL0     C44922   0.855   0.253   7.565 -0.4925 -0.9422 -0.6128
  341MOL0     C44923   0.780   0.248   7.692 -0.5696 -0.3982  0.4768
  341MOL0    Cl44924   0.604   0.276   7.663 -0.1518 -0.1932 -0.0979
  341MOL0     C44925   1.544   0.331   7.393  0.8286 -0.1447 -0.8078
  341MOL0     C44926   1.636   0.297   7.303 -0.1272 -0.0361  0.9431
  341MOL0     O44927   1.974   0.371   7.293 -0.0884 -0.2223 -0.7333
  341MOL0     C44928   2.178   0.313   7.113  1.5971  0.5550 -0.7229
  341MOL0     C44929   2.272   0.282   7.012  0.2560  0.8222  0.1122
  341MOL0     N44930   2.945   0.158   6.912 -0.5119 -0.6975  0.5237
  341MOL0     N44931   3.077   0.143   6.905  0.1662  0.3259 -0.8786
  341MOL0     C44932   4.269   0.222   6.499 -0.3740  0.6562 -0.2549
  341MOL0     C44933   4.395   0.275   6.536 -0.1353  0.3836  0.1824
  341MOL0     C44934   4.749   0.420   6.742  0.1117  0.5149 -0.7367
  341MOL0     C44935   4.858   0.334   6.756  0.2169 -0.1560  0.7127
  341MOL0     C44936   4.976   0.383   6.807  0.7488 -0.5172  0.3252
  341MOL0     C44937   4.997   0.520   6.832  0.0375 -0.1136 -0.3511
  341MOL0     O44938   5.122   0.573   6.867  0.5240  0.0012 -0.4791
  341MOL0     C44939   5.242   0.509   6.824  0.2904 -0.8262  0.2211
  341MOL0     C44940   5.366   0.574   6.882 -0.8214  0.2482 -0.3238
  341MOL0     C44941   5.361   0.564   7.037 -0.0912  0.9603 -0.0442
  341MOL0     C44942   5.483   0.628   7.104 -0.0914 -0.0242 -0.6448
  341MOL0     C44943   5.617   0.578   7.061 -0.0330  0.2035 -0.4590
  341MOL0     C44944   5.740   0.552   7.064  0.9572  0.6497  0.1510
  341MOL0     C44945   4.893   0.609   6.818 -0.4821  0.2447  0.2884
  341MOL0     C44946   4.765   0.553   6.769 -1.0730 -0.2000  0.8766
  341MOL0     H44947   4.289   0.482   6.792  1.4951 -1.1290  0.8359
  341MOL0     H44948   4.069   0.362   6.740 -1.0837  1.4673 -2.1843
  341MOL0     H44949   3.907   0.217   6.702  3.1027  1.6558  1.7348
  341MOL0     H44950   4.027   0.086   6.730 -1.3630  0.6164  0.4382
  341MOL0     H44951   3.906  -0.044   6.547 -1.4595 -0.4900 -0.3111
  341MOL0     H44952   3.787   0.088   6.558  0.0594  0.3119  0.6575
  341MOL0     H44953   3.775   0.021   6.817 -0.6297 -1.3287  0.7502
  341MOL0     H44954   3.850  -0.130   6.754  0.3386  0.4514  1.2393
  341MOL0     H44955   3.666  -0.136   6.577 -1.0745  1.4077 -0.9654
  341MOL0     H44956   3.627  -0.195   6.743 -0.6979 -1.1427 -1.7819
  341MOL0     H44957   3.546   0.080   6.629  2.7730  0.2077 -0.2948
  341MOL0     H44958   3.515   0.007   6.793  0.5627 -0.3922  0.2201
  341MOL0     H44959   3.407  -0.187   6.656  2.7330  0.0337  1.4616
  341MOL0     H44960   3.416  -0.100   6.511  1.4103 -1.7093 -0.0825
  341MOL0     H44961   3.267   0.089   6.617  0.1942 -0.1710  1.1859
  341MOL0     H44962   3.189  -0.075   6.599  0.5611 -2.8492  1.6138
  341MOL0     H44963   3.319   0.022   6.858  2.8214 -5.4490  0.4967
  341MOL0     H44964   3.236  -0.136   6.827 -1.1494 -0.5983 -2.0220
  341MOL0     H44965   2.978  -0.120   6.744 -0.1634  1.0431 -1.5410
  341MOL0     H44966   2.692   0.056   6.928  1.6475 -0.8897  0.8534
  341MOL0     H44967   2.718  -0.079   6.830 -1.0573  0.1800 -0.7625
  341MOL0     H44968   2.716   0.080   6.629  0.6842  0.8344 -0.3556
  341MOL0     H44969   2.720   0.215   6.728  0.6145 -0.2054 -0.7196
  341MOL0     H44970   2.501   0.139   6.620 -0.6757  3.4429  0.9350
  341MOL0     H44971   2.497   0.005   6.735  0.7140 -1.3154 -0.9711
  341MOL0     H44972   2.504   0.297   6.829  0.1428 -0.0092  0.9328
  341MOL0     H44973   2.477   0.147   6.918 -1.3419 -1.3213  0.1398
  341MOL0     H44974   2.070   0.216   6.763  1.5448  1.4751 -1.5017
  341MOL0     H44975   1.899   0.251   6.921  1.2489  1.4396 -0.7462
  341MOL0     H44976   1.722   0.609   7.192 -0.5481 -0.4222 -2.8405
  341MOL0     H44977   1.536   0.665   7.336  1.3207  0.0117 -0.6061
  341MOL0     H44978   1.356   0.414   7.656  2.2422  2.2308 -0.2884
  341MOL0     H44979   1.279   0.336   7.508  1.4595  1.4483 -2.6603
  341MOL0     H44980   1.223   0.616   7.619 -1.0353  0.8676 -0.3770
  341MOL0     H44981   1.122   0.473   7.656 -1.8729  2.6880  0.9217
  341MOL0     H44982   1.102   0.446   7.408  1.6172 -0.9425  1.3153
  341MOL0     H44983   1.153   0.616   7.393 -1.0878  0.2758  0.1487
  341MOL0     H44984   0.989   0.688   7.541  2.6981  1.1356 -3.6587
  341MOL0     H44985   0.926   0.623   7.388 -2.5153 -2.3291 -0.2013
  341MOL0     H44986   0.773   0.567   7.575 -0.6134 -1.3025 -1.7890
  341MOL0     H44987   0.915   0.484   7.656  1.2650  0.7791 -0.3133
  341MOL0     H44988   0.886   0.380   7.392  1.2287  0.2927  0.3285
  341MOL0     H44989   0.722   0.371   7.460  1.0010 -2.8987 -1.5555
  341MOL0     H44990   0.827   0.166   7.505 -0.0258 -2.5634  1.3929
  341MOL0     H44991   0.958   0.232   7.594 -0.7295 -2.9718 -1.0653
  341MOL0     H44992   0.828   0.311   7.768  0.8953 -0.0634 -0.6602
  341MOL0     H44993   0.805   0.148   7.727 -1.2016 -0.4946  0.6535
  341MOL0     H44994   1.497   0.254   7.454 -0.9748  0.0800 -1.8461
  341MOL0     H44995   1.657   0.192   7.282 -0.3081  0.0568  0.2648
  341MOL0     H44996   2.223   0.349   7.205  4.4649 -0.8866 -1.4499
  341MOL0     H44997   2.376   0.295   7.039  0.4762  0.4053 -0.5167
  341MOL0     H44998   4.267   0.160   6.410 -2.5919 -0.4637  0.4887
  341MOL0     H44999   4.487   0.249   6.484 -0.6245  2.0600 -1.6435
  341MOL0     H45000   4.859   0.226   6.746 -1.2088 -0.4110  2.9056
  341MOL0     H45001   5.057   0.317   6.836  0.9771  0.3908  1.8483
  341MOL0     H45002   5.246   0.503   6.715  1.2973 -0.2696  0.2121
  341MOL0     H45003   5.252   0.408   6.866  1.9527 -1.4195 -1.4683
  341MOL0     H45004   5.458   0.544   6.832 -0.4943  2.2724 -1.0037
  341MOL0     H45005   5.370   0.680   6.857  2.0196  0.4450  0.5656
  341MOL0     H45006   5.370   0.458   7.064  0.9534  1.3414  1.2412
  341MOL0     H45007   5.268   0.612   7.067 -0.9237 -0.3497 -0.4476
  341MOL0     H45008   5.481   0.732   7.071  1.1779  0.3324  0.3259
  341MOL0     H45009   5.469   0.621   7.213 -1.4085 -1.1477 -0.8575
  341MOL0     H45010   5.839   0.517   7.086 -0.2248 -0.7720  3.9024
  341MOL0     H45011   4.911   0.714   6.838 -2.5365  0.6060  0.5132
  341MOL0     H45012   4.672   0.607   6.782  0.1286  1.7416  2.1124
  342MOL0     O45013   9.747   2.854   9.904  0.1542  0.2120 -0.5624
  342MOL0     C45014   9.787   2.744   9.951 -0.1838  1.1142 -0.9001
  342MOL0     O45015   9.732   2.688  10.071  0.3172 -0.0477  0.1973
  342MOL0     C45016   9.609   2.749  10.110 -1.1658 -0.2080 -0.6172
  342MOL0     C45017   9.609   2.866  10.192 -0.8071 -0.1543 -0.4751
  342MOL0     C45018   9.488   2.925  10.234  0.1860 -0.0379  0.1132
  342MOL0     C45019   9.369   2.872  10.189  0.2942  0.5498 -0.4223
  342MOL0     O45020   9.247   2.942  10.198 -0.6315  0.3519 -0.0667
  342MOL0     C45021   9.229   3.017  10.322  0.5857 -0.0055 -0.2855
  342MOL0     C45022   9.083   3.016  10.334  0.1170 -0.4450 -0.4560
  342MOL0     C45023   9.027   3.060  10.471 -0.3519  0.1055 -0.1483
  342MOL0     C45024   9.088   3.197  10.514  0.5508  0.3603  0.3059
  342MOL0     C45025   9.027   3.268  10.639  0.5727  0.1858 -0.2466
  342MOL0     C45026   9.011   3.173  10.752  0.4622 -0.0579  0.4164
  342MOL0     C45027   8.932   3.236  10.868  0.3647 -0.2654 -0.6162
  342MOL0     C45028   8.925   3.141  10.993 -1.1628  0.4331  0.5359
  342MOL0     N45029   8.846   3.014  10.984 -0.4955 -0.1853  0.2717
  342MOL0     C45030   8.733   2.994  10.903  0.4749 -0.0107 -0.6947
  342MOL0     C45031   8.711   2.861  10.913 -0.1560  0.4764  0.7515
  342MOL0     C45032   8.613   2.775  10.840  0.2897 -0.2684 -0.1045
  342MOL0     C45033   8.473   2.799  10.900  1.3906 -0.4936 -0.0349
  342MOL0     C45034   8.356   2.707  10.856  0.1150  0.2351  0.3241
  342MOL0     C45035   8.396   2.562  10.875  0.2285 -0.0622 -0.5342
  342MOL0     O45036   8.302   2.477  10.814  0.3881 -0.3332  0.0529
  342MOL0     C45037   8.174   2.458  10.863 -0.5640  0.5174  0.6015
  342MOL0     C45038   8.084   2.396  10.773 -0.1982 -0.0416  0.2337
  342MOL0     C45039   7.956   2.381  10.800  0.2571  0.2082  0.7039
  342MOL0     C45040   7.904   2.425  10.926 -0.6247  0.7239  0.2645
  342MOL0     C45041   7.760   2.395  10.959  0.1711  0.5333  0.1023
  342MOL0     O45042   7.728   2.404  11.094  0.0851  0.0190  0.2410
  342MOL0     C45043   7.605   2.430  11.136 -0.0681 -0.1387  0.5811
  342MOL0     C45044   7.546   2.557  11.131 -0.2329  0.5188  0.6103
  342MOL0     C45045   7.417   2.586  11.187  0.0620 -0.2963  0.1606
  342MOL0     C45046   7.352   2.491  11.262 -0.3527  0.2055 -0.4081
  342MOL0     O45047   7.234   2.528  11.319  0.3413  0.1130 -0.1552
  342MOL0     C45048   7.151   2.426  11.377 -0.1609  0.2498 -0.1100
  342MOL0     C45049   7.031   2.502  11.433  0.2135  0.2326  0.1452
  342MOL0     C45050   6.936   2.555  11.324  0.0241 -0.1600  0.1954
  342MOL0     C45051   6.802   2.598  11.391 -0.0267 -0.8610  0.5807
  342MOL0     C45052   6.706   2.651  11.284 -0.5979 -0.3063  1.3798
  342MOL0     C45053   6.564   2.682  11.336 -1.1518  0.8653 -0.1107
  342MOL0     C45054   6.467   2.756  11.245  0.4538 -0.0308  0.4248
  342MOL0     C45055   6.321   2.732  11.290 -0.0685  0.5074 -0.0003
  342MOL0    Cl45056   6.195   2.822  11.199 -0.2097 -0.1783  0.2264
  342MOL0     C45057   7.413   2.363  11.288  0.2430  0.5618 -0.3058
  342MOL0     C45058   7.538   2.336  11.220  0.1936  0.2358  0.2315
  342MOL0     O45059   7.681   2.369  10.871 -0.0647 -0.8566  0.0530
  342MOL0     C45060   7.989   2.487  11.018 -0.3419  0.4303 -0.4593
  342MOL0     C45061   8.127   2.502  10.987  0.2196  0.2952 -0.3051
  342MOL0     N45062   8.809   2.808  10.994  0.7085  0.5715  0.1194
  342MOL0     N45063   8.879   2.900  11.043  0.1366  0.0547 -0.9517
  342MOL0     C45064   9.365   2.762  10.104  0.2709 -1.1685  0.8124
  342MOL0     C45065   9.481   2.704  10.064 -0.5040  0.0083  1.0110
  342MOL0     C45066   9.905   2.671   9.906  0.8019 -0.6075 -0.1027
  342MOL0     C45067   9.931   2.660   9.767 -0.3318 -0.1003 -1.3002
  342MOL0     C45068  10.049   2.590   9.728  0.8784 -0.3031  0.7314
  342MOL0     C45069  10.132   2.539   9.827 -0.6488  0.9790  0.1375
  342MOL0     O45070  10.236   2.454   9.803 -0.5657 -0.0213  0.0324
  342MOL0     C45071  10.343   2.527   9.729 -0.4599 -0.9214 -0.3539
  342MOL0     C45072  10.485   2.495   9.771 -0.6081  0.3663  0.4303
  342MOL0     C45073  10.597   2.597   9.758 -0.7321  0.7168 -0.3610
  342MOL0     C45074  10.597   2.664   9.620  0.1312 -0.4653 -0.7855
  342MOL0     C45075  10.735   2.700   9.578  0.1689  0.0756  0.1898
  342MOL0     C45076  10.846   2.714   9.537  0.3058 -0.8731  0.0073
  342MOL0     C45077  10.097   2.552   9.960 -0.2432  0.7507  0.1027
  342MOL0     C45078   9.982   2.612  10.000  0.6777 -0.3626  0.1292
  342MOL0     H45079   9.706   2.912  10.211 -0.2133 -0.7715 -1.8518
  342MOL0     H45080   9.479   3.019  10.289  0.0251  1.3956 -2.2365
  342MOL0     H45081   9.265   3.120  10.311 -0.0424  0.4959  1.7765
  342MOL0     H45082   9.271   2.975  10.414 -1.0626 -2.8549 -0.7217
  342MOL0     H45083   9.046   2.914  10.327 -1.0968 -0.1255  0.9420
  342MOL0     H45084   9.039   3.081  10.257 -3.4601 -1.1180  0.8479
  342MOL0     H45085   9.051   2.985  10.547 -2.6047  0.2383  0.7530
  342MOL0     H45086   8.920   3.058  10.452 -0.0735 -1.3245 -1.7997
  342MOL0     H45087   9.195   3.186  10.534  0.4120 -2.0482 -0.0261
  342MOL0     H45088   9.072   3.259  10.426 -1.7498 -3.5624 -2.3125
  342MOL0     H45089   8.922   3.290  10.614 -0.5283 -1.9804  1.9786
  342MOL0     H45090   9.086   3.356  10.664 -1.9182  0.8875  4.0958
  342MOL0     H45091   9.112   3.152  10.786  0.4234  2.6482  2.5666
  342MOL0     H45092   8.963   3.078  10.724  2.3967 -0.8028 -0.5459
  342MOL0     H45093   8.983   3.325  10.905  1.2339 -0.0907 -2.1652
  342MOL0     H45094   8.833   3.270  10.835  1.0288 -0.2680 -2.7450
  342MOL0     H45095   8.868   3.203  11.062 -1.9199 -0.0543  0.3684
  342MOL0     H45096   9.023   3.107  11.029 -1.4573 -0.4626  0.5230
  342MOL0     H45097   8.677   3.065  10.842 -0.0734 -0.6180 -0.9091
  342MOL0     H45098   8.644   2.671  10.856  5.0111  0.8852 -0.2257
  342MOL0     H45099   8.620   2.799  10.733  1.3978  0.5961  0.1434
  342MOL0     H45100   8.437   2.900  10.881  0.6411 -1.0968 -2.0762
  342MOL0     H45101   8.479   2.791  11.009 -0.9905 -1.3640  0.0932
  342MOL0     H45102   8.268   2.731  10.917  1.8521  0.5925  2.8722
  342MOL0     H45103   8.324   2.721  10.752  0.9014 -1.0290 -0.1131
  342MOL0     H45104   8.406   2.542  10.982  3.5209  2.3967 -0.2018
  342MOL0     H45105   8.488   2.538  10.821 -0.8225 -0.9240 -2.0388
  342MOL0     H45106   8.132   2.371  10.679 -1.5546  2.5059 -1.2430
  342MOL0     H45107   7.899   2.347  10.714 -0.4039  0.8311  0.8774
  342MOL0     H45108   7.603   2.636  11.082  0.5784  0.0978  0.8651
  342MOL0     H45109   7.376   2.685  11.167 -2.2245 -1.4383 -1.2454
  342MOL0     H45110   7.192   2.359  11.454 -0.3436 -1.5775 -1.5100
  342MOL0     H45111   7.129   2.362  11.291  2.1422 -2.9418  1.4635
  342MOL0     H45112   7.058   2.595  11.483 -1.3088  1.2566 -0.8310
  342MOL0     H45113   6.972   2.439  11.500  2.4110 -0.5353  1.4664
  342MOL0     H45114   6.895   2.480  11.255 -0.8827  2.8925 -2.8904
  342MOL0     H45115   6.977   2.638  11.264 -1.0508 -0.5926 -1.2035
  342MOL0     H45116   6.761   2.507  11.436 -1.8532 -0.6586 -0.5806
  342MOL0     H45117   6.809   2.678  11.465  3.8338  1.4523 -1.9371
  342MOL0     H45118   6.700   2.575  11.205 -1.2430  0.5560  0.5825
  342MOL0     H45119   6.753   2.740  11.241  0.7698 -1.1451  1.0955
  342MOL0     H45120   6.571   2.741  11.427 -0.9922  0.9751 -0.1943
  342MOL0     H45121   6.521   2.584  11.358 -0.3492  0.6909  0.7455
  342MOL0     H45122   6.485   2.863  11.260  4.5611 -0.6815  1.3924
  342MOL0     H45123   6.488   2.735  11.140 -1.3042  0.9736 -0.1791
  342MOL0     H45124   6.312   2.757  11.397 -0.0061 -1.0802  0.3946
  342MOL0     H45125   6.305   2.625  11.279 -0.0447  0.4975  0.0585
  342MOL0     H45126   7.380   2.281  11.351  0.1121 -0.4743 -1.6755
  342MOL0     H45127   7.596   2.245  11.235  0.8148 -0.2618 -4.0656
  342MOL0     H45128   7.962   2.515  11.119  3.0016  0.7912  0.4413
  342MOL0     H45129   8.188   2.560  11.055 -1.1071  3.3956 -1.5627
  342MOL0     H45130   9.267   2.737  10.064  0.7933  0.2734 -1.5932
  342MOL0     H45131   9.472   2.622   9.993 -0.4834 -0.1160  1.1528
  342MOL0     H45132   9.866   2.697   9.688 -3.3155 -2.2076 -0.0451
  342MOL0     H45133  10.087   2.573   9.628 -2.1927  1.5564 -0.9149
  342MOL0     H45134  10.316   2.633   9.741 -2.2353 -1.5347  1.8544
  342MOL0     H45135  10.335   2.509   9.622  1.3442 -1.2662 -0.4610
  342MOL0     H45136  10.467   2.470   9.876  0.7092  1.9075  1.0744
  342MOL0     H45137  10.504   2.408   9.708 -0.9231  0.6065 -0.0050
  342MOL0     H45138  10.692   2.547   9.778 -0.7752  0.0254 -1.7600
  342MOL0     H45139  10.576   2.672   9.835 -0.7797  3.3180 -2.7579
  342MOL0     H45140  10.541   2.600   9.552 -1.1759  0.9453 -1.0724
  342MOL0     H45141  10.541   2.758   9.628  1.0942  0.0385  0.2934
  342MOL0     H45142  10.945   2.720   9.495  0.6603 -0.8743  0.8278
  342MOL0     H45143  10.165   2.516  10.037  0.3412  1.4505 -0.0747
  342MOL0     H45144   9.944   2.609  10.101 -1.9796  3.2163 -0.5790
  343MOL0     O45145   5.719   5.146   8.647  0.1996 -0.6229 -0.5852
  343MOL0     C45146   5.668   5.112   8.760 -0.0707 -1.0717 -0.6576
  343MOL0     O45147   5.568   5.184   8.818 -0.3084 -0.6526  0.0520
  343MOL0     C45148   5.494   5.276   8.754  0.0607 -0.7677  0.2587
  343MOL0     C45149   5.372   5.245   8.710 -0.2567 -0.5341 -0.0079
  343MOL0     C45150   5.304   5.349   8.641  1.2939 -0.9382 -0.6456
  343MOL0     C45151   5.345   5.482   8.647  1.3584 -0.7784  0.4458
  343MOL0     O45152   5.268   5.576   8.590 -0.6132  0.0136  1.1197
  343MOL0     C45153   5.234   5.691   8.673  0.0737  0.2356 -0.2629
  343MOL0     C45154   5.124   5.662   8.772 -0.1089 -0.5296 -0.0293
  343MOL0     C45155   5.001   5.618   8.709  0.5377  0.1137  0.3360
  343MOL0     C45156   4.886   5.588   8.814 -0.4254 -0.7171  0.2372
  343MOL0     C45157   4.744   5.545   8.766 -0.2227  0.5697  0.5890
  343MOL0     C45158   4.670   5.667   8.709 -0.1544 -0.5263  0.6788
  343MOL0     C45159   4.524   5.637   8.661  0.3251  0.5555  0.0229
  343MOL0     C45160   4.456   5.717   8.551  0.3536 -0.3265 -0.5481
  343MOL0     N45161   4.400   5.847   8.587  0.2534  0.5074  0.0179
  343MOL0     C45162   4.313   5.876   8.690 -0.4283 -0.1477  0.1188
  343MOL0     C45163   4.285   6.005   8.674  0.7935  0.0298  0.0373
  343MOL0     C45164   4.179   6.087   8.740 -0.5990  0.0000  0.1516
  343MOL0     C45165   4.065   6.109   8.639  0.7083 -0.0483  0.0855
  343MOL0     C45166   3.947   6.175   8.714  0.1377  0.1665 -0.1536
  343MOL0     C45167   3.818   6.113   8.665  0.0674 -0.4822  0.6539
  343MOL0     O45168   3.718   6.209   8.699  0.0573 -0.3587 -0.7224
  343MOL0     C45169   3.592   6.160   8.726 -0.1633  0.5871 -0.4904
  343MOL0     C45170   3.517   6.077   8.638 -0.4445  0.9730 -0.1622
  343MOL0     C45171   3.383   6.045   8.678  0.1980  0.4192 -0.0488
  343MOL0     C45172   3.329   6.087   8.801  0.4269  0.1393  1.4157
  343MOL0     C45173   3.192   6.048   8.846 -0.7552  0.2302 -0.5639
  343MOL0     O45174   3.135   5.947   8.774  0.0796  0.1383 -0.1604
  343MOL0     C45175   3.017   5.882   8.813  0.6235  0.2051  0.1449
  343MOL0     C45176   2.906   5.950   8.864 -0.4975 -0.1959  0.5672
  343MOL0     C45177   2.792   5.890   8.904  0.0452 -0.1386  0.1905
  343MOL0     C45178   2.779   5.748   8.893  0.8416  0.1433  0.3659
  343MOL0     O45179   2.665   5.704   8.949  0.3500 -0.5763 -0.1000
  343MOL0     C45180   2.662   5.567   8.993 -0.2440 -0.8172 -0.1503
  343MOL0     C45181   2.528   5.531   9.054 -0.1753 -0.2300  0.3420
  343MOL0     C45182   2.526   5.391   9.116  0.8152  0.0500 -0.3394
  343MOL0     C45183   2.600   5.374   9.243 -0.3643  0.4103 -0.3001
  343MOL0     C45184   2.576   5.233   9.293 -0.4975  0.2696 -0.0206
  343MOL0     C45185   2.638   5.127   9.205 -0.3447 -0.3783 -1.1284
  343MOL0     C45186   2.626   4.989   9.274 -0.7368  0.4800 -0.5511
  343MOL0     C45187   2.630   4.867   9.178  0.2942  0.1893  0.1573
  343MOL0    Cl45188   2.471   4.827   9.108 -0.3403 -0.0557  0.1171
  343MOL0     C45189   2.883   5.678   8.832  0.0001 -0.7296  0.3485
  343MOL0     C45190   2.990   5.749   8.785  0.0926  1.0993  0.1829
  343MOL0     O45191   3.148   6.098   8.947  0.3489  0.6002  0.4563
  343MOL0     C45192   3.413   6.153   8.888 -1.1484  0.1589 -0.4559
  343MOL0     C45193   3.542   6.196   8.852 -0.0176 -0.7690 -0.6829
  343MOL0     N45194   4.362   6.051   8.561 -0.1340 -0.3375 -0.1887
  343MOL0     N45195   4.432   5.953   8.511 -0.4390  0.0367  0.6577
  343MOL0     C45196   5.471   5.515   8.704 -0.9733  1.4313  0.7354
  343MOL0     C45197   5.545   5.407   8.753 -1.1170 -0.9493 -0.1299
  343MOL0     C45198   5.749   5.020   8.843 -1.2875 -0.4671  0.3058
  343MOL0     C45199   5.838   4.919   8.784 -0.4014  0.6346 -0.2294
  343MOL0     C45200   5.934   4.844   8.855  0.0673  0.3815 -0.7394
  343MOL0     C45201   5.943   4.864   8.992 -0.0157  0.8762 -0.2892
  343MOL0     O45202   6.032   4.777   9.053  0.0123 -0.4830  0.4630
  343MOL0     C45203   6.039   4.764   9.196 -0.0454  0.1223  0.3177
  343MOL0     C45204   5.932   4.671   9.249 -0.2552  0.7858 -0.6056
  343MOL0     C45205   5.960   4.639   9.396  0.1079 -0.2567 -0.5000
  343MOL0     C45206   5.953   4.771   9.482 -0.1042  0.7538  0.1523
  343MOL0     C45207   5.929   4.754   9.622 -0.4393  0.2264  0.1981
  343MOL0     C45208   5.911   4.727   9.744 -0.2220  0.6688 -0.0849
  343MOL0     C45209   5.864   4.964   9.053  0.8487 -0.3488  1.0794
  343MOL0     C45210   5.753   5.029   8.987  0.4961 -0.8161 -0.7061
  343MOL0     H45211   5.317   5.153   8.729  0.0373 -1.5018 -3.2692
  343MOL0     H45212   5.205   5.329   8.601  0.2436  0.0235  1.2956
  343MOL0     H45213   5.208   5.771   8.603 -2.7467 -1.1061 -0.8695
  343MOL0     H45214   5.325   5.714   8.730 -0.7172 -3.1348  2.6943
  343MOL0     H45215   5.093   5.752   8.826 -0.7836 -0.1019 -1.1076
  343MOL0     H45216   5.161   5.589   8.844 -0.2318 -0.5279  0.0347
  343MOL0     H45217   5.026   5.526   8.656  0.5985  1.0342 -1.2987
  343MOL0     H45218   4.973   5.689   8.630  0.9872 -0.9397 -0.7887
  343MOL0     H45219   4.922   5.517   8.889 -2.4273  0.1978  2.1416
  343MOL0     H45220   4.870   5.687   8.858 -2.1783 -0.7312 -0.2940
  343MOL0     H45221   4.692   5.506   8.853  1.5107  1.1475  1.9317
  343MOL0     H45222   4.758   5.463   8.695 -1.3013  1.3692 -0.6005
  343MOL0     H45223   4.718   5.705   8.618  0.0419 -0.9549  0.5993
  343MOL0     H45224   4.679   5.747   8.783  1.3328 -0.7504  0.7566
  343MOL0     H45225   4.517   5.531   8.636  3.7892 -0.1992  1.5920
  343MOL0     H45226   4.467   5.655   8.753  0.7632  2.3048 -0.0062
  343MOL0     H45227   4.389   5.647   8.500 -0.0750  0.6665 -1.3720
  343MOL0     H45228   4.531   5.738   8.474  0.0312  1.6732 -0.3502
  343MOL0     H45229   4.272   5.818   8.772  0.0412 -0.2144  0.3085
  343MOL0     H45230   4.228   6.181   8.765 -1.1816  0.5412 -0.6914
  343MOL0     H45231   4.149   6.046   8.837  0.9044 -2.4502 -0.3420
  343MOL0     H45232   4.044   6.016   8.586  0.5935  0.5668 -0.9859
  343MOL0     H45233   4.107   6.182   8.569 -0.4251 -0.0789 -0.6485
  343MOL0     H45234   3.959   6.146   8.819  0.7470  0.4055 -0.1536
  343MOL0     H45235   3.939   6.284   8.711 -0.1291  0.1552  0.1148
  343MOL0     H45236   3.809   6.013   8.708 -2.6560 -0.0667  1.2259
  343MOL0     H45237   3.815   6.093   8.557  2.4747 -2.1167  0.8179
  343MOL0     H45238   3.575   6.044   8.553  1.6509 -0.4585  1.7032
  343MOL0     H45239   3.319   5.992   8.607 -1.2642  0.7148  1.0005
  343MOL0     H45240   2.919   6.056   8.884 -0.3903 -0.3077  1.1033
  343MOL0     H45241   2.712   5.933   8.962  1.7841  2.7272  0.6485
  343MOL0     H45242   2.743   5.557   9.065  0.5211 -2.6278 -1.1781
  343MOL0     H45243   2.689   5.500   8.910  0.7500  1.3534 -1.6787
  343MOL0     H45244   2.454   5.544   8.975 -2.7540  0.1678  2.6837
  343MOL0     H45245   2.494   5.606   9.125 -0.1577  1.9215 -1.7973
  343MOL0     H45246   2.562   5.318   9.043 -2.0012 -0.9476 -0.8573
  343MOL0     H45247   2.420   5.370   9.131  1.3235 -0.9821  2.2441
  343MOL0     H45248   2.709   5.384   9.230  0.1658  1.0990  3.5807
  343MOL0     H45249   2.561   5.440   9.321 -0.9754 -0.7771  0.4174
  343MOL0     H45250   2.470   5.214   9.310 -0.3729 -2.2389 -1.5187
  343MOL0     H45251   2.626   5.212   9.388 -1.4267 -3.2946 -0.1658
  343MOL0     H45252   2.745   5.140   9.191 -0.0153 -3.8052 -3.1331
  343MOL0     H45253   2.593   5.112   9.106 -0.5960 -2.8471 -0.7050
  343MOL0     H45254   2.719   4.978   9.331  0.4402  2.2904 -2.0228
  343MOL0     H45255   2.543   4.970   9.343 -2.0508 -2.0194 -2.6215
  343MOL0     H45256   2.671   4.785   9.236  2.8793  0.7763 -0.7078
  343MOL0     H45257   2.703   4.887   9.099  0.2092 -0.0476  0.0187
  343MOL0     H45258   2.875   5.570   8.828  1.0852 -0.7949 -0.3903
  343MOL0     H45259   3.063   5.686   8.734 -0.7659  0.2942 -0.0889
  343MOL0     H45260   3.378   6.165   8.990 -0.6333 -3.0327  0.2224
  343MOL0     H45261   3.600   6.257   8.921 -0.0537 -0.6125 -0.7900
  343MOL0     H45262   5.503   5.619   8.704 -0.7305  1.3644  1.3194
  343MOL0     H45263   5.639   5.438   8.798 -0.8498  0.7327 -1.7122
  343MOL0     H45264   5.823   4.899   8.679  1.3582 -1.1371 -0.2067
  343MOL0     H45265   5.994   4.768   8.805 -1.6872 -2.2383  0.8705
  343MOL0     H45266   6.024   4.865   9.236 -1.0374  0.0250  0.2273
  343MOL0     H45267   6.142   4.731   9.211  0.7347  1.8411 -0.8330
  343MOL0     H45268   5.828   4.707   9.245 -0.8575 -0.7266  0.4872
  343MOL0     H45269   5.929   4.577   9.193  1.1102  0.6751 -0.5216
  343MOL0     H45270   6.055   4.585   9.398 -0.8172 -1.9813 -1.1417
  343MOL0     H45271   5.880   4.571   9.426 -0.0729 -0.1514 -0.7453
  343MOL0     H45272   6.045   4.830   9.481  0.6744 -0.3884  1.0579
  343MOL0     H45273   5.877   4.838   9.442 -1.4583 -0.8158 -0.0006
  343MOL0     H45274   5.898   4.699   9.847  0.5177 -0.1896 -0.2123
  343MOL0     H45275   5.873   4.965   9.161  2.3154 -0.7300  0.9858
  343MOL0     H45276   5.676   5.086   9.037 -1.4570 -2.0926 -2.1119
  344MOL0     O45277   8.486   1.309   6.616  0.2704 -0.1313  0.1538
  344MOL0     C45278   8.495   1.187   6.600 -0.2248 -0.1130 -0.2040
  344MOL0     O45279   8.389   1.099   6.588 -0.1702  1.0781 -0.2231
  344MOL0     C45280   8.252   1.124   6.604 -0.8276 -0.0830 -0.4040
  344MOL0     C45281   8.177   1.037   6.672  0.2515  0.4515 -0.6360
  344MOL0     C45282   8.034   1.053   6.680 -0.0016 -0.5783 -0.4620
  344MOL0     C45283   7.966   1.157   6.620 -0.5630 -0.4889  0.1650
  344MOL0     O45284   7.829   1.151   6.618 -0.0199 -0.8410  0.4268
  344MOL0     C45285   7.760   1.269   6.570 -0.6217  0.6623  0.1810
  344MOL0     C45286   7.613   1.254   6.543  0.1603  0.9543  0.8914
  344MOL0     C45287   7.553   1.193   6.672  0.5957  0.5918  0.2183
  344MOL0     C45288   7.401   1.166   6.634 -0.2226 -0.5617 -0.7866
  344MOL0     C45289   7.310   1.155   6.759 -0.4662 -0.0881 -0.2169
  344MOL0     C45290   7.172   1.109   6.721 -0.4305 -0.3717 -0.3806
  344MOL0     C45291   7.075   1.134   6.836 -0.0993 -0.9776 -0.4366
  344MOL0     C45292   6.997   1.003   6.858 -0.3437 -0.7007  0.8233
  344MOL0     N45293   6.889   1.035   6.962  0.1353 -0.1292  0.1938
  344MOL0     C45294   6.758   1.034   6.936  0.1283  0.1607  0.3914
  344MOL0     C45295   6.699   1.031   7.054 -0.5840 -0.1070  0.3790
  344MOL0     C45296   6.557   1.021   7.081  0.1485 -0.5541  0.0264
  344MOL0     C45297   6.468   1.147   7.039  0.4656  0.0371 -0.1372
  344MOL0     C45298   6.334   1.113   7.091  0.9699  0.3288  0.1862
  344MOL0     C45299   6.222   1.202   7.031  0.0065  0.6872  0.6219
  344MOL0     O45300   6.088   1.145   7.025 -0.2240 -0.0579  0.1236
  344MOL0     C45301   5.990   1.228   6.968 -0.0174 -0.3534  0.5154
  344MOL0     C45302   5.870   1.164   6.959 -0.5712  0.3788 -0.4180
  344MOL0     C45303   5.764   1.223   6.890 -0.2677 -0.3500  0.2003
  344MOL0     C45304   5.774   1.360   6.843 -0.1880  0.5728  0.6759
  344MOL0     C45305   5.655   1.417   6.778 -0.6773 -0.0142  0.4906
  344MOL0     O45306   5.537   1.340   6.805 -0.0325 -0.3327 -0.3415
  344MOL0     C45307   5.425   1.371   6.740  0.6594  0.5976 -0.9070
  344MOL0     C45308   5.411   1.350   6.606 -0.1988  1.2756  0.4882
  344MOL0     C45309   5.287   1.373   6.545  0.0589 -0.2091  0.0680
  344MOL0     C45310   5.174   1.424   6.618 -0.1830  0.1442 -0.1272
  344MOL0     O45311   5.041   1.438   6.586  0.4182  0.5862 -0.4191
  344MOL0     C45312   5.000   1.433   6.450 -0.3189 -0.6572  0.5129
  344MOL0     C45313   4.855   1.435   6.448  0.1329  0.9473  1.1340
  344MOL0     C45314   4.804   1.360   6.318 -0.1672 -0.1545 -0.8147
  344MOL0     C45315   4.653   1.335   6.323 -0.1499  0.4227 -0.3136
  344MOL0     C45316   4.591   1.302   6.187 -0.6112 -0.5222  1.0684
  344MOL0     C45317   4.618   1.406   6.069  0.0812 -0.4861 -0.2282
  344MOL0     C45318   4.563   1.546   6.099 -0.0686  0.4404  0.1296
  344MOL0     C45319   4.408   1.561   6.104 -0.0398 -0.0352 -0.9667
  344MOL0    Cl45320   4.380   1.741   6.079 -0.0692  0.1986 -0.4493
  344MOL0     C45321   5.198   1.464   6.750 -0.9984 -0.0784 -0.4702
  344MOL0     C45322   5.322   1.434   6.817 -0.0399 -1.1900  0.6860
  344MOL0     O45323   5.670   1.513   6.696 -0.4094  0.9275 -0.6655
  344MOL0     C45324   5.898   1.422   6.856 -0.1867 -0.3301 -0.0018
  344MOL0     C45325   5.998   1.357   6.914 -0.1379  0.1728  0.6321
  344MOL0     N45326   6.797   1.060   7.145  1.0280 -0.1526 -0.1288
  344MOL0     N45327   6.916   1.059   7.090  0.5382  0.2775 -0.9232
  344MOL0     C45328   8.049   1.254   6.559 -0.3746 -0.0890  0.0265
  344MOL0     C45329   8.191   1.243   6.559  0.2365  0.0362  0.3185
  344MOL0     C45330   8.631   1.124   6.579  0.1527  0.1003  0.0720
  344MOL0     C45331   8.747   1.195   6.601 -0.4298 -0.2498  0.3237
  344MOL0     C45332   8.868   1.135   6.576 -0.5447 -0.3657  0.5964
  344MOL0     C45333   8.883   1.010   6.530 -0.4342 -0.5559  0.6442
  344MOL0     O45334   9.003   0.960   6.488 -0.9133 -0.4086 -0.5706
  344MOL0     C45335   9.059   0.878   6.597  0.2453  0.0381 -0.5462
  344MOL0     C45336   9.106   0.745   6.549  0.2336 -0.2418 -0.1340
  344MOL0     C45337   9.220   0.752   6.438 -0.2476 -0.0392  0.9281
  344MOL0     C45338   9.233   0.627   6.358 -0.2584  0.7776 -0.5369
  344MOL0     C45339   9.256   0.516   6.456  0.6094  0.3965 -0.6839
  344MOL0     C45340   9.254   0.434   6.552 -0.7164 -1.0540 -0.7009
  344MOL0     C45341   8.769   0.937   6.504  0.4355 -0.0634  0.2918
  344MOL0     C45342   8.644   0.990   6.541 -0.1134 -0.4114  0.2372
  344MOL0     H45343   8.226   0.950   6.716 -1.0927  0.9334  1.9853
  344MOL0     H45344   7.975   0.975   6.728 -0.2147  0.7369  1.5464
  344MOL0     H45345   7.814   1.292   6.478  1.2134  0.5972  1.2081
  344MOL0     H45346   7.760   1.352   6.641 -0.7589 -0.5233  1.6309
  344MOL0     H45347   7.597   1.176   6.469 -2.5726 -0.7066  3.0276
  344MOL0     H45348   7.585   1.352   6.503  3.6291  1.5346 -0.4244
  344MOL0     H45349   7.553   1.266   6.753  0.1428  1.5805 -0.6636
  344MOL0     H45350   7.591   1.095   6.702  0.3577  0.0382 -1.2111
  344MOL0     H45351   7.363   1.248   6.572  0.1685 -1.2419 -1.9654
  344MOL0     H45352   7.390   1.075   6.574 -0.1033 -0.3589 -1.1236
  344MOL0     H45353   7.302   1.253   6.808  1.9287 -0.1582  0.4206
  344MOL0     H45354   7.358   1.084   6.827 -1.3675  0.5156  1.0959
  344MOL0     H45355   7.169   1.010   6.674  1.3366 -0.0406 -1.2646
  344MOL0     H45356   7.149   1.185   6.645 -0.6219 -1.3448 -1.3219
  344MOL0     H45357   7.129   1.159   6.928 -0.8055 -0.0936 -0.2464
  344MOL0     H45358   7.004   1.214   6.814 -0.7307 -1.1125  0.9423
  344MOL0     H45359   7.057   0.920   6.897  0.1502 -1.0098 -0.5084
  344MOL0     H45360   6.958   0.963   6.764 -1.7893  0.0536  1.0886
  344MOL0     H45361   6.711   1.016   6.840  0.4716 -1.1071  0.4363
  344MOL0     H45362   6.545   0.991   7.186  0.5808 -0.7983  0.0096
  344MOL0     H45363   6.525   0.933   7.025  1.0553 -0.9195  0.0543
  344MOL0     H45364   6.483   1.168   6.933  2.2459  0.6798  0.2033
  344MOL0     H45365   6.503   1.233   7.096  0.8148  0.8833 -1.5808
  344MOL0     H45366   6.303   1.010   7.069 -2.0793  1.8009 -3.6545
  344MOL0     H45367   6.327   1.119   7.200  0.2851 -1.4069  0.2826
  344MOL0     H45368   6.250   1.222   6.927  1.8157  3.4267  1.5267
  344MOL0     H45369   6.228   1.298   7.083  0.1828  1.2545 -0.4175
  344MOL0     H45370   5.883   1.060   6.985 -0.6357  0.1954 -1.1035
  344MOL0     H45371   5.679   1.164   6.859 -0.9253  1.5204 -1.8268
  344MOL0     H45372   5.487   1.295   6.552 -3.7859 -1.3749 -2.3753
  344MOL0     H45373   5.263   1.339   6.444 -0.8500  1.4945 -0.3249
  344MOL0     H45374   5.033   1.336   6.413  0.8806 -0.0683 -0.0561
  344MOL0     H45375   5.039   1.513   6.386  0.0230 -1.5776 -0.4593
  344MOL0     H45376   4.820   1.539   6.445  1.8364  1.5518  1.2723
  344MOL0     H45377   4.823   1.385   6.540 -2.7780 -0.9261 -0.7022
  344MOL0     H45378   4.842   1.258   6.311 -0.0027 -0.3061  1.5643
  344MOL0     H45379   4.836   1.418   6.231 -2.2520 -0.3792 -1.7862
  344MOL0     H45380   4.634   1.259   6.400 -0.0778  1.6842  0.9805
  344MOL0     H45381   4.597   1.424   6.353 -0.0986  0.3271  0.0722
  344MOL0     H45382   4.482   1.291   6.196 -1.5551  4.0369 -1.4941
  344MOL0     H45383   4.624   1.201   6.165 -2.4384 -1.1137  0.8518
  344MOL0     H45384   4.570   1.373   5.977 -0.1566  0.2604 -0.3821
  344MOL0     H45385   4.725   1.418   6.049 -0.0627 -1.0898 -1.4556
  344MOL0     H45386   4.604   1.589   6.190 -0.9334  1.4515  0.0477
  344MOL0     H45387   4.593   1.607   6.013 -3.0116  0.0235 -1.3279
  344MOL0     H45388   4.359   1.529   6.196 -1.0822 -1.1791 -1.8945
  344MOL0     H45389   4.359   1.502   6.026  0.8834 -1.1915 -0.7157
  344MOL0     H45390   5.124   1.515   6.811 -0.6472 -0.5479  0.3676
  344MOL0     H45391   5.331   1.463   6.922 -1.0721  1.1419  0.2064
  344MOL0     H45392   5.906   1.525   6.825 -0.0632  0.0719  1.2817
  344MOL0     H45393   6.098   1.400   6.911  0.4838 -1.2557 -1.2624
  344MOL0     H45394   8.015   1.341   6.504  0.5006 -2.3479 -4.5743
  344MOL0     H45395   8.252   1.327   6.529  0.2214 -0.0298  0.1009
  344MOL0     H45396   8.741   1.292   6.649 -0.9520 -0.0997 -0.0374
  344MOL0     H45397   8.951   1.198   6.605  1.0417 -2.7117  1.4210
  344MOL0     H45398   8.981   0.859   6.672  0.7892 -0.6114 -0.1322
  344MOL0     H45399   9.147   0.925   6.642 -0.6184  1.9911 -0.7836
  344MOL0     H45400   9.140   0.683   6.633 -1.7258 -2.1306 -0.6615
  344MOL0     H45401   9.017   0.692   6.515 -2.2896  1.8494  2.6875
  344MOL0     H45402   9.311   0.791   6.485  0.9996 -1.7320 -0.0241
  344MOL0     H45403   9.186   0.830   6.369  0.8670  1.7059  2.2436
  344MOL0     H45404   9.139   0.615   6.303 -0.1440 -1.4241 -0.3564
  344MOL0     H45405   9.312   0.640   6.283 -2.1119 -1.3053 -3.0381
  344MOL0     H45406   9.266   0.362   6.630 -1.1457  1.9609  2.3772
  344MOL0     H45407   8.777   0.835   6.467 -2.3451 -0.5480  0.7817
  344MOL0     H45408   8.551   0.933   6.536 -1.1194  1.0823  1.2355
  345MOL0     O45409   8.004   6.720   6.050  0.0975 -0.3287 -0.1870
  345MOL0     C45410   8.059   6.711   5.936  0.3627  0.3681  0.0357
  345MOL0     O45411   8.188   6.698   5.917  0.0228  0.0513 -0.1819
  345MOL0     C45412   8.290   6.714   6.012  0.7178  0.6400 -0.9292
  345MOL0     C45413   8.416   6.680   5.975 -0.2861  0.1079  0.2183
  345MOL0     C45414   8.530   6.685   6.059 -0.2201  0.2855  0.1895
  345MOL0     C45415   8.510   6.728   6.193  0.6130 -0.2881 -0.2391
  345MOL0     O45416   8.617   6.735   6.270  0.6799 -0.6001 -0.5016
  345MOL0     C45417   8.717   6.824   6.224  0.3921  0.4778 -0.7919
  345MOL0     C45418   8.845   6.747   6.179 -0.2082 -0.2812  0.0291
  345MOL0     C45419   8.974   6.804   6.229 -0.2917 -0.1420 -0.2501
  345MOL0     C45420   8.998   6.958   6.191 -0.9208  0.5937  0.2297
  345MOL0     C45421   9.046   7.043   6.307  0.0595 -0.2598  0.0208
  345MOL0     C45422   9.098   7.183   6.274  0.2779  0.1962 -1.0283
  345MOL0     C45423   8.987   7.274   6.230  0.1948 -0.0341 -0.4669
  345MOL0     C45424   9.046   7.416   6.203 -0.2107 -0.8868 -1.1539
  345MOL0     N45425   8.946   7.524   6.229 -0.2426 -0.1334  1.0447
  345MOL0     C45426   8.815   7.509   6.246  0.3781 -0.1084 -0.2422
  345MOL0     C45427   8.768   7.640   6.255 -0.5418  0.0099 -0.3032
  345MOL0     C45428   8.631   7.695   6.273 -0.1367  0.4179  0.1227
  345MOL0     C45429   8.613   7.721   6.423 -0.2398 -0.0902  0.8926
  345MOL0     C45430   8.480   7.786   6.458 -0.2688  0.0688  0.3726
  345MOL0     C45431   8.473   7.934   6.422 -0.6329  0.1838 -0.3712
  345MOL0     O45432   8.341   7.979   6.455 -0.0410  0.3928  0.1409
  345MOL0     C45433   8.323   8.119   6.456  0.4182  0.0213 -0.3358
  345MOL0     C45434   8.414   8.211   6.396  0.8261  0.0483  0.3154
  345MOL0     C45435   8.378   8.352   6.388  0.1081 -0.5310  0.1833
  345MOL0     C45436   8.257   8.389   6.451 -0.1621 -0.0601  0.2614
  345MOL0     C45437   8.212   8.535   6.458 -0.0004 -0.1268 -0.9369
  345MOL0     O45438   8.080   8.552   6.420  0.1719 -0.0356  0.1404
  345MOL0     C45439   8.000   8.674   6.417 -0.8431  0.6688 -0.2460
  345MOL0     C45440   7.872   8.673   6.354  0.2426  0.4688 -0.4426
  345MOL0     C45441   7.797   8.786   6.326 -0.4747  0.7869 -0.1434
  345MOL0     C45442   7.854   8.905   6.358  0.2241 -0.0183 -0.5412
  345MOL0     O45443   7.785   9.018   6.315 -0.1574 -0.3197  0.1727
  345MOL0     C45444   7.833   9.144   6.359 -0.4074  0.1871  0.7214
  345MOL0     C45445   7.729   9.250   6.321  0.9592 -0.6757 -0.4254
  345MOL0     C45446   7.614   9.264   6.433  0.1845 -0.1341 -0.2299
  345MOL0     C45447   7.518   9.377   6.385  0.2950 -0.2145  0.4423
  345MOL0     C45448   7.439   9.428   6.507 -0.3150 -0.7657  0.2118
  345MOL0     C45449   7.394   9.332   6.609 -0.0523 -0.4469 -0.2513
  345MOL0     C45450   7.360   9.409   6.740  0.2591  0.8240  0.1762
  345MOL0     C45451   7.335   9.294   6.840 -0.2887  0.3945  0.2849
  345MOL0    Cl45452   7.229   9.340   6.983 -0.0083  0.3008  0.2069
  345MOL0     C45453   7.969   8.910   6.440  0.2895 -0.0068  0.3675
  345MOL0     C45454   8.042   8.796   6.474  0.0233  0.6829 -0.4041
  345MOL0     O45455   8.295   8.624   6.484  0.3184 -0.6073  0.0737
  345MOL0     C45456   8.179   8.300   6.523  0.2191 -0.0490  0.0257
  345MOL0     C45457   8.216   8.169   6.520  0.0056  0.2230 -0.9419
  345MOL0     N45458   8.875   7.729   6.244  0.2846  0.9232  0.5764
  345MOL0     N45459   8.979   7.655   6.220 -0.0941 -0.6354 -0.3765
  345MOL0     C45460   8.381   6.771   6.233 -0.0927 -0.5803 -0.6838
  345MOL0     C45461   8.274   6.771   6.146  0.4326  0.3618 -0.2411
  345MOL0     C45462   7.977   6.698   5.815  0.4407  1.1364 -0.3195
  345MOL0     C45463   8.037   6.705   5.692  0.9138  0.2193  0.4587
  345MOL0     C45464   7.944   6.716   5.579 -0.4786  0.4678 -0.4867
  345MOL0     C45465   7.809   6.719   5.590  0.4750  0.1651 -0.1586
  345MOL0     O45466   7.744   6.723   5.470  0.9006 -0.4349 -0.0827
  345MOL0     C45467   7.602   6.736   5.471 -0.1078 -0.1205  0.3448
  345MOL0     C45468   7.534   6.598   5.485  0.0662  0.2613 -0.7510
  345MOL0     C45469   7.399   6.603   5.417 -0.9611 -0.4195  0.0544
  345MOL0     C45470   7.324   6.472   5.414 -0.6240 -0.5907 -0.1670
  345MOL0     C45471   7.175   6.477   5.389 -0.7595  0.0277  1.0144
  345MOL0     C45472   7.056   6.469   5.376  0.5352 -0.0058  0.1068
  345MOL0     C45473   7.753   6.705   5.717 -0.1322  0.6341 -0.0213
  345MOL0     C45474   7.837   6.693   5.827  0.1989  0.5636  0.5086
  345MOL0     H45475   8.434   6.640   5.876  0.6267 -0.8661  0.7525
  345MOL0     H45476   8.619   6.632   6.026 -1.3785 -3.5637  2.6006
  345MOL0     H45477   8.745   6.879   6.315 -1.8692 -1.1722  1.0303
  345MOL0     H45478   8.679   6.889   6.145 -1.7000 -0.8497 -0.9519
  345MOL0     H45479   8.852   6.747   6.070 -0.9733  5.6413 -0.3562
  345MOL0     H45480   8.840   6.643   6.213 -0.2222  0.3640  2.1836
  345MOL0     H45481   9.065   6.751   6.198 -0.1032  0.0426 -0.0262
  345MOL0     H45482   8.977   6.799   6.338 -0.0727  2.8851 -0.0315
  345MOL0     H45483   9.080   6.954   6.119 -0.2290  0.4665  1.0150
  345MOL0     H45484   8.911   7.011   6.151  0.8019  2.5642 -1.1279
  345MOL0     H45485   9.130   6.997   6.360 -0.3225  1.8663  2.7662
  345MOL0     H45486   8.972   7.044   6.387 -0.0911  0.1344 -0.1181
  345MOL0     H45487   9.172   7.170   6.195  3.8347  1.7997  1.7603
  345MOL0     H45488   9.153   7.223   6.360 -0.1678 -1.0334 -0.1355
  345MOL0     H45489   8.947   7.230   6.138  1.2816 -4.7333  1.0137
  345MOL0     H45490   8.920   7.283   6.316 -0.6704 -0.9553 -1.0130
  345MOL0     H45491   9.092   7.428   6.105  1.7151  2.3165 -0.0049
  345MOL0     H45492   9.123   7.437   6.277 -0.2641 -0.7628 -1.1338
  345MOL0     H45493   8.752   7.421   6.253 -1.2440  1.0878  1.3443
  345MOL0     H45494   8.558   7.622   6.236 -1.3222  2.3968 -1.6380
  345MOL0     H45495   8.609   7.788   6.221 -0.1442  2.0546  2.8607
  345MOL0     H45496   8.704   7.775   6.453  0.1793 -0.0689 -0.3526
  345MOL0     H45497   8.615   7.621   6.467  0.7312 -1.9047 -2.8559
  345MOL0     H45498   8.405   7.727   6.406 -0.0122  0.4977 -0.5104
  345MOL0     H45499   8.449   7.777   6.563  0.1089 -3.6825  0.2796
  345MOL0     H45500   8.485   7.954   6.315  2.8343 -0.7189 -0.2785
  345MOL0     H45501   8.539   7.982   6.495 -3.5239  0.3986  2.3074
  345MOL0     H45502   8.491   8.181   6.325 -0.3284 -0.2295 -0.8734
  345MOL0     H45503   8.427   8.432   6.333 -1.4480 -0.6007 -1.3840
  345MOL0     H45504   7.826   8.582   6.318  1.8346 -0.7944  0.5903
  345MOL0     H45505   7.703   8.772   6.273  0.1049 -1.4153 -0.7136
  345MOL0     H45506   7.923   9.163   6.301 -2.0136 -1.0316 -2.4129
  345MOL0     H45507   7.849   9.140   6.467 -1.8214  1.1534  1.0059
  345MOL0     H45508   7.686   9.230   6.223  0.6428 -1.1088 -0.2021
  345MOL0     H45509   7.780   9.347   6.314 -0.3491 -0.0032 -0.9247
  345MOL0     H45510   7.672   9.302   6.517  1.8389 -2.3441 -0.3053
  345MOL0     H45511   7.566   9.167   6.448 -1.4524  0.6572 -0.1338
  345MOL0     H45512   7.565   9.468   6.347  2.7431 -0.9863  1.4013
  345MOL0     H45513   7.443   9.345   6.312 -0.5083 -1.2138  1.6613
  345MOL0     H45514   7.349   9.475   6.465 -0.9775 -2.6576 -0.5594
  345MOL0     H45515   7.502   9.506   6.550  0.6999 -1.0683 -0.6898
  345MOL0     H45516   7.473   9.260   6.631 -0.5226 -1.1453 -0.7840
  345MOL0     H45517   7.308   9.274   6.574  0.1618 -1.7073  1.2291
  345MOL0     H45518   7.454   9.461   6.757  0.6334  1.5081 -3.3554
  345MOL0     H45519   7.264   9.459   6.720  0.0606 -0.7606 -3.5339
  345MOL0     H45520   7.434   9.250   6.858  0.3235  0.9567 -1.4780
  345MOL0     H45521   7.279   9.212   6.795 -0.8296  0.4728  0.7940
  345MOL0     H45522   8.009   9.007   6.466  0.0082  1.0083 -2.6693
  345MOL0     H45523   8.132   8.814   6.531 -0.7091  0.3221  0.9129
  345MOL0     H45524   8.089   8.327   6.578  0.5599  0.1089  0.5170
  345MOL0     H45525   8.141   8.104   6.565  0.3501  1.0873  0.9924
  345MOL0     H45526   8.370   6.842   6.315 -0.1026 -1.6782  0.2811
  345MOL0     H45527   8.182   6.821   6.177  0.7946  2.9942 -2.9808
  345MOL0     H45528   8.145   6.704   5.685  1.1168  2.6980  1.9179
  345MOL0     H45529   7.991   6.725   5.482  2.3933 -3.7931  0.2199
  345MOL0     H45530   7.579   6.772   5.370  0.1360 -0.0675  0.3082
  345MOL0     H45531   7.561   6.811   5.539 -2.0685 -0.1713 -0.7039
  345MOL0     H45532   7.595   6.520   5.438 -0.1560 -0.2748 -0.1688
  345MOL0     H45533   7.531   6.584   5.593 -0.1332  1.4590 -0.5903
  345MOL0     H45534   7.417   6.645   5.318 -0.1480 -1.3870 -0.2294
  345MOL0     H45535   7.336   6.672   5.473 -1.0287 -0.2587 -0.2180
  345MOL0     H45536   7.367   6.404   5.339 -0.8510  1.2583 -2.0627
  345MOL0     H45537   7.341   6.430   5.514 -0.5728  1.1930  0.6041
  345MOL0     H45538   6.955   6.436   5.363  0.7965 -0.0584 -2.3354
  345MOL0     H45539   7.649   6.731   5.734 -0.3579 -0.1168 -0.2084
  345MOL0     H45540   7.791   6.696   5.925 -0.3412  0.9112  0.2456
  346MOL0     O45541   7.647   8.322   4.787 -0.7880 -0.0893  0.4198
  346MOL0     C45542   7.674   8.301   4.906  0.0224  0.8025  0.8106
  346MOL0     O45543   7.586   8.312   5.014  0.6692  0.6575 -0.1344
  346MOL0     C45544   7.447   8.340   4.984 -0.2244 -0.1261 -0.0734
  346MOL0     C45545   7.407   8.468   4.939  0.5475 -0.6099  0.5467
  346MOL0     C45546   7.273   8.501   4.935 -0.0370 -0.7581  0.0874
  346MOL0     C45547   7.170   8.409   4.983 -0.1192  0.5089  0.0853
  346MOL0     O45548   7.034   8.434   4.983 -0.1887  0.7447  0.5149
  346MOL0     C45549   7.000   8.496   4.856 -0.4171  0.2161 -0.3289
  346MOL0     C45550   6.855   8.495   4.856 -0.5885  0.1098  0.0277
  346MOL0     C45551   6.801   8.545   4.727  0.2335  0.0395 -0.0589
  346MOL0     C45552   6.644   8.544   4.744  1.1022  0.0791 -0.4452
  346MOL0     C45553   6.577   8.620   4.628 -0.3834 -0.1722  0.4485
  346MOL0     C45554   6.438   8.670   4.654 -0.9264 -0.0620  0.1657
  346MOL0     C45555   6.345   8.547   4.649  0.3879 -0.1325  0.2855
  346MOL0     C45556   6.193   8.589   4.673  0.4004 -0.4421 -0.1155
  346MOL0     N45557   6.133   8.675   4.573 -1.0392 -0.7469  0.0596
  346MOL0     C45558   6.132   8.651   4.439  1.0371  0.8586  0.3451
  346MOL0     C45559   6.057   8.742   4.380  0.1548 -0.4829  0.8990
  346MOL0     C45560   6.029   8.750   4.227 -0.4999  0.2213 -0.1698
  346MOL0     C45561   5.905   8.653   4.194 -0.1131  0.0386 -0.6490
  346MOL0     C45562   5.767   8.672   4.252 -0.0711 -0.1092 -0.6400
  346MOL0     C45563   5.685   8.782   4.192  0.3500  0.2345 -0.8416
  346MOL0     O45564   5.632   8.745   4.060 -0.0740 -0.9710  0.2765
  346MOL0     C45565   5.528   8.664   4.060  0.6019  0.5133 -0.1177
  346MOL0     C45566   5.487   8.630   3.927 -0.7828  0.1304  0.5797
  346MOL0     C45567   5.374   8.553   3.899  0.3384  0.1346 -0.2797
  346MOL0     C45568   5.301   8.493   4.008  0.0681 -0.9874  0.0069
  346MOL0     C45569   5.182   8.412   3.980  0.6109  0.1151 -0.4185
  346MOL0     O45570   5.142   8.409   3.851  0.8458 -0.0333  0.3122
  346MOL0     C45571   5.029   8.336   3.810 -0.1210 -0.5081 -0.9086
  346MOL0     C45572   4.983   8.387   3.687 -0.2061  0.6322  0.9355
  346MOL0     C45573   4.883   8.318   3.621  0.9833  0.9070  1.1427
  346MOL0     C45574   4.812   8.210   3.678  0.3964  0.7681 -1.1392
  346MOL0     O45575   4.708   8.145   3.619  0.0702 -0.7818 -0.3144
  346MOL0     C45576   4.663   8.197   3.490  0.5398  0.1781 -0.2631
  346MOL0     C45577   4.525   8.129   3.458  0.1174 -0.1407  0.1725
  346MOL0     C45578   4.479   8.160   3.313 -0.8818  0.3306  0.3560
  346MOL0     C45579   4.346   8.094   3.276 -0.1558  0.1056 -0.2778
  346MOL0     C45580   4.302   8.153   3.138  0.0265  0.2304 -0.8347
  346MOL0     C45581   4.157   8.109   3.110 -0.2385 -0.4486  0.3588
  346MOL0     C45582   4.111   8.138   2.968 -0.8115 -0.7233 -0.2752
  346MOL0     C45583   3.981   8.209   2.953  0.5145 -0.3049 -0.2544
  346MOL0    Cl45584   3.846   8.122   3.034 -0.0032  0.1025  0.1359
  346MOL0     C45585   4.849   8.171   3.804 -1.0747  0.1703 -0.0712
  346MOL0     C45586   4.957   8.230   3.869 -0.2735 -0.4697  0.4615
  346MOL0     O45587   5.122   8.348   4.073 -0.0542  0.0522 -0.0043
  346MOL0     C45588   5.337   8.528   4.135 -0.1408  0.2391 -0.0087
  346MOL0     C45589   5.445   8.614   4.163 -0.0458 -0.1311  0.1037
  346MOL0     N45590   6.036   8.845   4.472  0.0235  0.1035  0.2854
  346MOL0     N45591   6.083   8.811   4.588 -0.1619  0.2078 -0.9261
  346MOL0     C45592   7.219   8.280   5.022  0.5320  0.1856 -0.0669
  346MOL0     C45593   7.352   8.246   5.024  0.3680  0.0774 -0.5817
  346MOL0     C45594   7.808   8.254   4.945  0.3583  0.4118 -0.1944
  346MOL0     C45595   7.908   8.242   4.847 -0.8988 -0.5588 -0.5299
  346MOL0     C45596   8.045   8.219   4.879  0.8937  0.0446 -1.1816
  346MOL0     C45597   8.083   8.178   5.013  1.0364  0.6828 -0.3789
  346MOL0     O45598   8.204   8.129   5.048 -0.7214 -1.0247 -0.2313
  346MOL0     C45599   8.295   8.093   4.940  0.2805 -0.8116 -0.5092
  346MOL0     C45600   8.407   8.001   4.995  0.6844 -0.5650 -0.1724
  346MOL0     C45601   8.512   7.954   4.893  0.3833  0.3725 -0.0882
  346MOL0     C45602   8.474   7.889   4.759  0.1668  0.1274 -0.6820
  346MOL0     C45603   8.358   7.797   4.778  0.3508  0.0238 -0.4105
  346MOL0     C45604   8.258   7.737   4.795 -0.1189 -0.0539 -0.7682
  346MOL0     C45605   7.981   8.196   5.110 -1.0805 -0.5586 -0.8961
  346MOL0     C45606   7.851   8.247   5.084  0.2375 -0.3031  0.4938
  346MOL0     H45607   7.477   8.549   4.923  0.8781 -0.7847  1.0758
  346MOL0     H45608   7.247   8.605   4.916 -0.6647 -0.4301  2.3721
  346MOL0     H45609   7.049   8.442   4.774  1.5705 -0.6402  1.3299
  346MOL0     H45610   7.046   8.595   4.857 -0.2799  0.2025  2.4432
  346MOL0     H45611   6.820   8.564   4.934 -1.7885 -1.8468  1.3031
  346MOL0     H45612   6.814   8.398   4.884  0.5862 -0.6922 -0.9517
  346MOL0     H45613   6.824   8.489   4.636  0.9771 -1.5110  1.0270
  346MOL0     H45614   6.840   8.646   4.713  0.5821  0.1567  1.5189
  346MOL0     H45615   6.610   8.441   4.758  0.8752  0.3939  1.5743
  346MOL0     H45616   6.614   8.602   4.831  0.9125  3.1102 -2.3646
  346MOL0     H45617   6.599   8.571   4.533  3.1636  1.6690  0.1510
  346MOL0     H45618   6.631   8.715   4.620 -0.2433 -0.4317 -2.7519
  346MOL0     H45619   6.409   8.747   4.582 -1.6675 -0.2855  0.2173
  346MOL0     H45620   6.437   8.716   4.753 -0.4773  0.8166 -0.2233
  346MOL0     H45621   6.350   8.494   4.553  2.6237  1.2126 -0.4079
  346MOL0     H45622   6.368   8.477   4.730 -1.9698 -1.5245 -0.1559
  346MOL0     H45623   6.193   8.639   4.770  1.7169 -2.6635  1.1254
  346MOL0     H45624   6.126   8.503   4.687 -1.0938  0.7121  0.0422
  346MOL0     H45625   6.180   8.568   4.388 -1.1974 -0.2799 -0.0277
  346MOL0     H45626   6.123   8.728   4.174  0.3389  2.0927  0.4395
  346MOL0     H45627   5.995   8.850   4.201 -3.3165 -0.4344  0.6191
  346MOL0     H45628   5.938   8.558   4.236  1.5404  0.9167  0.1406
  346MOL0     H45629   5.887   8.648   4.086  0.3349 -0.7541 -0.6910
  346MOL0     H45630   5.723   8.572   4.246 -0.7854  0.3033 -3.5135
  346MOL0     H45631   5.779   8.691   4.360 -0.3256  0.2512 -0.6739
  346MOL0     H45632   5.755   8.864   4.174  0.7517 -0.3034 -1.8081
  346MOL0     H45633   5.600   8.806   4.257  0.1938 -0.4856 -0.7765
  346MOL0     H45634   5.546   8.672   3.846 -0.4766 -0.3994  0.5240
  346MOL0     H45635   5.341   8.529   3.798  2.0233 -0.7975 -0.6674
  346MOL0     H45636   5.029   8.473   3.640 -0.7925  1.4350  1.8111
  346MOL0     H45637   4.865   8.349   3.519  0.8693 -0.0133  0.8737
  346MOL0     H45638   4.728   8.173   3.406  0.4342 -0.6646 -0.1146
  346MOL0     H45639   4.643   8.304   3.499  0.2957  0.1085  0.0276
  346MOL0     H45640   4.446   8.161   3.527  0.2597  1.1359 -0.2192
  346MOL0     H45641   4.533   8.021   3.450 -0.9404 -0.0646 -3.7537
  346MOL0     H45642   4.565   8.132   3.253 -0.6110  0.9308  0.4621
  346MOL0     H45643   4.470   8.266   3.287  0.2697  0.6919  1.3593
  346MOL0     H45644   4.348   7.985   3.282 -2.6094 -0.1309 -2.1571
  346MOL0     H45645   4.285   8.131   3.359  0.7582 -1.9736  1.3978
  346MOL0     H45646   4.372   8.122   3.060  0.7846  0.6916 -0.3428
  346MOL0     H45647   4.313   8.262   3.131  0.4179  0.4182  1.8374
  346MOL0     H45648   4.088   8.160   3.178 -0.4200  3.5661 -2.4982
  346MOL0     H45649   4.143   8.002   3.129  0.3209 -0.7291 -0.7470
  346MOL0     H45650   4.185   8.204   2.922  0.3268 -1.8036 -0.0373
  346MOL0     H45651   4.116   8.059   2.892  1.8303 -0.9372  0.0042
  346MOL0     H45652   3.962   8.236   2.849 -0.5970 -1.0901 -0.2747
  346MOL0     H45653   3.986   8.301   3.012 -2.4698  1.2123 -2.1116
  346MOL0     H45654   4.800   8.084   3.845 -0.8476  0.3390  0.5679
  346MOL0     H45655   4.996   8.193   3.964  3.3763 -0.4098 -0.8350
  346MOL0     H45656   5.291   8.471   4.216  1.9949 -1.4364  0.1069
  346MOL0     H45657   5.477   8.639   4.264 -1.4421  1.5543  0.1785
  346MOL0     H45658   7.144   8.205   5.044  0.6676 -0.0668 -0.4572
  346MOL0     H45659   7.385   8.146   5.047  1.0416  0.3207 -0.4570
  346MOL0     H45660   7.878   8.257   4.744 -1.8972 -0.7806 -0.2816
  346MOL0     H45661   8.136   8.227   4.819  2.3228  0.8964  0.9875
  346MOL0     H45662   8.346   8.170   4.882  0.0745 -0.6211 -0.4383
  346MOL0     H45663   8.244   8.033   4.864 -0.9279  0.9068 -1.1142
  346MOL0     H45664   8.453   8.060   5.075 -0.0933  0.6792 -0.6100
  346MOL0     H45665   8.346   7.919   5.032 -1.5447  0.6887 -0.8840
  346MOL0     H45666   8.590   7.903   4.951  0.7233  0.6165 -0.3259
  346MOL0     H45667   8.562   8.044   4.856 -1.0105  2.6149  3.0149
  346MOL0     H45668   8.438   7.973   4.698 -0.4509  0.8087  0.5911
  346MOL0     H45669   8.551   7.829   4.709 -0.5752 -0.6685 -0.8738
  346MOL0     H45670   8.159   7.695   4.787 -0.1140  0.1647 -2.1378
  346MOL0     H45671   8.027   8.168   5.204 -0.7261  1.8934 -0.2807
  346MOL0     H45672   7.771   8.268   5.155  0.2146  0.4435  0.2598
  347MOL0     O45673   4.561   9.329  10.569  0.4535  0.4207  0.5495
  347MOL0     C45674   4.577   9.338  10.694  0.0055  0.2356  1.0093
  347MOL0     O45675   4.477   9.358  10.786 -0.2181  0.4623  1.0217
  347MOL0     C45676   4.351   9.394  10.741 -0.6037  0.7319 -0.7269
  347MOL0     C45677   4.323   9.496  10.647 -1.3054 -0.3875 -0.2920
  347MOL0     C45678   4.192   9.531  10.629  0.9451  0.6008 -0.4296
  347MOL0     C45679   4.080   9.470  10.684  0.2823  0.3830 -0.0958
  347MOL0     O45680   3.950   9.498  10.650 -0.3853  0.6286 -0.2404
  347MOL0     C45681   3.938   9.519  10.515  0.3134  0.2286 -0.6764
  347MOL0     C45682   3.804   9.574  10.484  0.4385 -0.4893 -0.2625
  347MOL0     C45683   3.709   9.458  10.490 -0.3129 -0.0267 -0.2289
  347MOL0     C45684   3.563   9.510  10.485 -0.3158 -0.0639 -0.3997
  347MOL0     C45685   3.460   9.407  10.427 -0.1876 -0.8672 -0.5811
  347MOL0     C45686   3.313   9.452  10.417 -0.2292 -0.1636  0.4669
  347MOL0     C45687   3.207   9.339  10.387  0.0549 -0.6351 -0.0203
  347MOL0     C45688   3.061   9.404  10.384  0.4479  0.0276 -0.5692
  347MOL0     N45689   2.961   9.303  10.356 -0.8730  0.0216 -0.4635
  347MOL0     C45690   2.951   9.181  10.415  0.5450 -0.8583 -0.2188
  347MOL0     C45691   2.840   9.127  10.356  0.3723 -0.0032 -0.2681
  347MOL0     C45692   2.769   8.994  10.385 -0.5090 -0.4502 -0.0730
  347MOL0     C45693   2.626   9.026  10.437 -0.9463  0.2685  0.6028
  347MOL0     C45694   2.575   8.911  10.534  0.5239 -0.3797  0.1131
  347MOL0     C45695   2.423   8.891  10.519 -0.3386  0.6110 -0.1620
  347MOL0     O45696   2.344   8.998  10.558 -0.3107 -0.4220  0.8108
  347MOL0     C45697   2.207   8.991  10.563  0.3541  0.4398 -1.0610
  347MOL0     C45698   2.145   9.110  10.600  0.2012 -0.1481  0.3418
  347MOL0     C45699   2.004   9.119  10.609  0.2020  0.2900  0.7633
  347MOL0     C45700   1.925   9.016  10.576  0.2377  0.7793  0.5981
  347MOL0     C45701   1.779   9.036  10.577 -0.7617 -0.7218  0.4944
  347MOL0     O45702   1.705   8.947  10.501  0.1927  0.3470 -0.7821
  347MOL0     C45703   1.565   8.951  10.494  0.0736 -0.0218  0.1948
  347MOL0     C45704   1.496   9.071  10.473 -0.0353  0.6771  0.0927
  347MOL0     C45705   1.365   9.072  10.436 -0.2178 -0.9975  1.1836
  347MOL0     C45706   1.289   8.951  10.415 -0.8606 -0.0119 -0.1746
  347MOL0     O45707   1.156   8.938  10.390  0.5119 -0.6565  1.3688
  347MOL0     C45708   1.110   9.027  10.288 -0.5056 -0.3664  0.2781
  347MOL0     C45709   0.971   8.980  10.235 -0.1151  0.0776 -0.5243
  347MOL0     C45710   0.971   8.847  10.180 -0.2089  0.5320 -0.3911
  347MOL0     C45711   0.844   8.760  10.196 -0.3360  0.4794 -0.1709
  347MOL0     C45712   0.866   8.621  10.147 -0.2070  0.3480  0.7951
  347MOL0     C45713   0.729   8.534  10.120 -0.4104 -0.4951 -0.5003
  347MOL0     C45714   0.780   8.424  10.028  0.6666 -0.7132  0.1493
  347MOL0     C45715   0.662   8.344   9.963 -0.0643  0.0097  0.2879
  347MOL0    Cl45716   0.551   8.283  10.087 -0.1677 -0.5157  0.1757
  347MOL0     C45717   1.362   8.837  10.434 -0.3865 -0.1691 -0.2972
  347MOL0     C45718   1.497   8.836  10.470 -0.6298  0.2720  1.0887
  347MOL0     O45719   1.734   9.113  10.652  0.4299  0.0890  0.2561
  347MOL0     C45720   1.986   8.891  10.532 -0.1844 -0.4619 -0.9084
  347MOL0     C45721   2.124   8.880  10.531  0.0116 -0.9887  0.4825
  347MOL0     N45722   2.800   9.217  10.260  0.1715 -0.7089 -1.3553
  347MOL0     N45723   2.864   9.317  10.263 -0.3835 -0.8857  0.2323
  347MOL0     C45724   4.112   9.371  10.772  0.5418  0.1488  0.2408
  347MOL0     C45725   4.248   9.341  10.807  0.8647  0.6065 -0.5158
  347MOL0     C45726   4.718   9.338  10.745  1.1106  0.4939  0.1495
  347MOL0     C45727   4.821   9.362  10.659  0.6033 -0.2392 -0.7086
  347MOL0     C45728   4.953   9.358  10.692  0.7655  0.6574 -0.0051
  347MOL0     C45729   4.988   9.320  10.824  0.1790 -0.1444 -0.5503
  347MOL0     O45730   5.121   9.303  10.846  0.6096  0.6383  0.7902
  347MOL0     C45731   5.187   9.266  10.968  0.8962  0.2971  0.6587
  347MOL0     C45732   5.230   9.119  10.960 -0.0496 -1.0771 -0.7213
  347MOL0     C45733   5.118   9.010  10.983  0.2014  0.8904 -0.4123
  347MOL0     C45734   5.092   8.995  11.134 -0.5429  0.1538 -0.5094
  347MOL0     C45735   4.998   8.886  11.166  0.1379  0.6035 -0.7279
  347MOL0     C45736   4.904   8.818  11.175  1.4535  0.3900 -0.4752
  347MOL0     C45737   4.887   9.310  10.918  0.2361  0.8631  0.0306
  347MOL0     C45738   4.751   9.324  10.879  0.3897  0.4278  0.8073
  347MOL0     H45739   4.401   9.549  10.594 -0.2733 -3.2952 -1.9223
  347MOL0     H45740   4.181   9.609  10.555  1.8205 -0.9227 -2.2525
  347MOL0     H45741   3.950   9.422  10.464 -2.5150 -0.7479  0.3135
  347MOL0     H45742   4.007   9.596  10.480  1.1269 -1.0705 -2.0629
  347MOL0     H45743   3.800   9.616  10.383  0.2408 -1.1667 -0.5390
  347MOL0     H45744   3.775   9.659  10.547 -0.1409 -1.8329  1.3570
  347MOL0     H45745   3.725   9.403  10.583  0.3917  0.6539  0.0715
  347MOL0     H45746   3.726   9.388  10.407  2.0749  1.0465 -0.7280
  347MOL0     H45747   3.526   9.542  10.583 -0.4815  0.2756 -0.5725
  347MOL0     H45748   3.561   9.596  10.417  0.4036 -0.3137 -0.7484
  347MOL0     H45749   3.462   9.316  10.488 -0.3447  1.1761  2.6984
  347MOL0     H45750   3.495   9.381  10.327  0.8820  0.6929 -0.6357
  347MOL0     H45751   3.308   9.534  10.345  1.0943 -1.9896 -1.8103
  347MOL0     H45752   3.279   9.498  10.511 -1.5941  2.4279 -1.1842
  347MOL0     H45753   3.208   9.291  10.289 -2.4329 -3.1565  1.0368
  347MOL0     H45754   3.213   9.275  10.476  1.3763  1.0893  1.1913
  347MOL0     H45755   3.038   9.479  10.308 -2.6278  0.5554  0.7291
  347MOL0     H45756   3.046   9.438  10.487  0.7775 -1.8106  0.1142
  347MOL0     H45757   3.014   9.129  10.487  1.4023  0.5249  0.0631
  347MOL0     H45758   2.824   8.938  10.460 -2.3916  0.0268  1.7447
  347MOL0     H45759   2.761   8.933  10.294  0.0471 -1.1231  0.3168
  347MOL0     H45760   2.572   9.019  10.342  0.8940  0.4219 -0.5044
  347MOL0     H45761   2.619   9.123  10.487 -0.4519  1.5395 -1.6436
  347MOL0     H45762   2.631   8.820  10.510 -0.0844 -0.5142 -0.8813
  347MOL0     H45763   2.593   8.937  10.639 -2.1121 -2.3760  1.1675
  347MOL0     H45764   2.401   8.806  10.585 -2.0523  0.2705 -1.0915
  347MOL0     H45765   2.405   8.859  10.415 -1.2014  0.1482  0.1118
  347MOL0     H45766   2.202   9.199  10.626 -2.5155  1.7775  0.1338
  347MOL0     H45767   1.964   9.213  10.644  0.7917  0.1260  1.9393
  347MOL0     H45768   1.553   9.163  10.479  0.9458  0.1133 -0.4230
  347MOL0     H45769   1.313   9.165  10.417 -1.1292 -1.6745  0.2136
  347MOL0     H45770   1.189   9.050  10.215 -3.0167  1.3696 -2.1220
  347MOL0     H45771   1.097   9.126  10.333 -0.1169  0.0748 -0.5518
  347MOL0     H45772   0.961   9.061  10.162  0.5295  0.7748  0.1350
  347MOL0     H45773   0.900   8.993  10.317 -0.7716 -1.3245 -0.8508
  347MOL0     H45774   1.061   8.792  10.208  0.2100 -0.4487 -3.3669
  347MOL0     H45775   0.985   8.850  10.072  0.5896 -0.4969 -0.3362
  347MOL0     H45776   0.803   8.760  10.298 -4.1018 -3.4591 -1.3847
  347MOL0     H45777   0.751   8.790  10.147 -1.5111 -3.4283 -0.6480
  347MOL0     H45778   0.937   8.567  10.210 -0.1172 -0.5533 -0.0461
  347MOL0     H45779   0.922   8.623  10.052 -0.1591 -0.8997  0.7840
  347MOL0     H45780   0.655   8.591  10.062  0.3033  0.6538 -0.3187
  347MOL0     H45781   0.676   8.499  10.208  1.5039 -0.1515  0.8643
  347MOL0     H45782   0.836   8.470   9.945  0.5782  0.6339  0.8128
  347MOL0     H45783   0.853   8.357  10.074  0.7613 -1.0182 -0.4297
  347MOL0     H45784   0.705   8.271   9.893  0.0734  1.2760 -0.9936
  347MOL0     H45785   0.601   8.416   9.908  2.2244  0.6848 -1.5572
  347MOL0     H45786   1.314   8.740  10.422  1.9201 -1.8239  2.4645
  347MOL0     H45787   1.557   8.747  10.481 -0.0949  0.8385  3.4237
  347MOL0     H45788   1.919   8.816  10.493  1.5107 -0.9621 -3.0161
  347MOL0     H45789   2.167   8.790  10.487  1.8886  1.0515 -2.2850
  347MOL0     H45790   4.023   9.330  10.818 -0.5826 -0.1401 -2.0568
  347MOL0     H45791   4.267   9.278  10.893 -2.1548  0.7224  0.3602
  347MOL0     H45792   4.814   9.380  10.553  1.2548  3.9077 -0.2255
  347MOL0     H45793   5.037   9.359  10.623  1.0644 -0.2489  0.3239
  347MOL0     H45794   5.129   9.288  11.058  2.2386 -2.6582  2.3753
  347MOL0     H45795   5.276   9.329  10.981  1.6865 -0.5840 -0.2454
  347MOL0     H45796   5.282   9.115  10.864  0.8560 -0.4614 -0.2677
  347MOL0     H45797   5.312   9.106  11.031 -0.1617 -0.7459 -0.5295
  347MOL0     H45798   5.164   8.918  10.947  0.6910  0.3000  1.5994
  347MOL0     H45799   5.034   9.043  10.922  0.6592  2.0134 -0.4773
  347MOL0     H45800   5.191   8.975  11.177  1.1688  3.9557 -2.2191
  347MOL0     H45801   5.058   9.085  11.187 -0.0032 -0.0977  0.2721
  347MOL0     H45802   4.813   8.763  11.182  1.6180  0.2694  0.9906
  347MOL0     H45803   4.904   9.288  11.023  0.4514  2.4734  0.3576
  347MOL0     H45804   4.667   9.319  10.948 -3.6173  3.2664 -3.2640
  348MOL0     O45805   8.642   9.633   3.425  0.1927  0.5236 -0.2317
  348MOL0     C45806   8.698   9.584   3.323 -0.4420  0.2458  0.0016
  348MOL0     O45807   8.631   9.537   3.213  0.2001 -0.5991  0.8234
  348MOL0     C45808   8.495   9.561   3.188 -0.3436  0.2103 -0.0518
  348MOL0     C45809   8.434   9.670   3.241  0.3793  0.2213 -0.1711
  348MOL0     C45810   8.298   9.693   3.218  0.0229 -0.1728 -0.4068
  348MOL0     C45811   8.228   9.600   3.138 -0.2641  0.0628 -0.4550
  348MOL0     O45812   8.098   9.609   3.099 -0.7731  0.5444  0.4258
  348MOL0     C45813   8.039   9.739   3.086 -0.0815 -0.8360 -0.6305
  348MOL0     C45814   7.946   9.768   3.205  0.1688  0.7384  0.1129
  348MOL0     C45815   7.863   9.895   3.190  0.1850 -0.3278 -0.0408
  348MOL0     C45816   7.759   9.909   3.296  0.1959  0.0021  0.1618
  348MOL0     C45817   7.680  10.044   3.285 -0.8483  0.7640  0.3279
  348MOL0     C45818   7.555  10.046   3.375 -0.6805  0.7624  0.2553
  348MOL0     C45819   7.475  10.172   3.350  0.6897  0.4773 -0.1845
  348MOL0     C45820   7.363  10.203   3.452 -0.4865 -0.3809 -0.0133
  348MOL0     N45821   7.288  10.324   3.420 -0.4392 -0.3392  0.0106
  348MOL0     C45822   7.204  10.337   3.309 -0.3007 -0.3037  0.0543
  348MOL0     C45823   7.163  10.464   3.316  0.2462 -1.3329 -0.4115
  348MOL0     C45824   7.072  10.521   3.206 -0.2913  0.3241  0.1805
  348MOL0     C45825   6.925  10.513   3.229 -0.0409 -0.0319 -0.1416
  348MOL0     C45826   6.842  10.550   3.100 -0.1732  0.0409 -0.0828
  348MOL0     C45827   6.691  10.549   3.131 -0.8667 -0.4750  1.1095
  348MOL0     O45828   6.653  10.656   3.213 -0.8446 -0.0083 -0.0117
  348MOL0     C45829   6.570  10.635   3.316  0.3210 -0.5397  0.0520
  348MOL0     C45830   6.600  10.582   3.441 -0.0717 -0.2991 -0.6336
  348MOL0     C45831   6.503  10.552   3.530  0.3371  0.7199 -0.1997
  348MOL0     C45832   6.366  10.577   3.500 -0.2769  0.1623 -0.1696
  348MOL0     C45833   6.258  10.540   3.598 -0.2825 -0.0963 -0.6457
  348MOL0     O45834   6.130  10.552   3.550  0.7751  0.5561 -0.1149
  348MOL0     C45835   6.012  10.507   3.616  0.0078 -0.8725  0.3347
  348MOL0     C45836   6.018  10.412   3.715 -0.6300  0.4023 -0.9150
  348MOL0     C45837   5.904  10.356   3.777  0.2463  0.5664  0.7356
  348MOL0     C45838   5.778  10.404   3.746 -0.1683 -0.5531  0.1153
  348MOL0     O45839   5.665  10.340   3.793 -0.5969  0.5927 -0.2020
  348MOL0     C45840   5.583  10.278   3.691  0.1921  0.7279 -0.2746
  348MOL0     C45841   5.468  10.217   3.766 -0.2415  0.2389 -1.1450
  348MOL0     C45842   5.378  10.134   3.673 -0.3532 -0.0824  0.1055
  348MOL0     C45843   5.274  10.055   3.758 -0.0848  0.7163  0.6426
  348MOL0     C45844   5.223   9.935   3.679 -1.4439 -0.0021  0.8687
  348MOL0     C45845   5.221   9.942   3.525 -0.0749 -0.4880  1.2512
  348MOL0     C45846   5.183   9.800   3.476 -0.2024 -0.2003  0.1247
  348MOL0     C45847   5.153   9.793   3.329  0.0401 -0.0471 -0.1903
  348MOL0    Cl45848   5.298   9.810   3.232  0.0464 -0.0877  0.1020
  348MOL0     C45849   5.770  10.512   3.656 -0.3765 -1.1502 -0.1413
  348MOL0     C45850   5.888  10.562   3.582  0.7826  0.4895 -0.1784
  348MOL0     O45851   6.294  10.507   3.711  0.6157  0.1357 -0.3128
  348MOL0     C45852   6.340  10.647   3.380 -0.5665  0.5632 -0.1183
  348MOL0     C45853   6.441  10.666   3.290 -0.3506  0.0421 -0.4357
  348MOL0     N45854   7.223  10.527   3.423  0.3867  0.3000 -0.8675
  348MOL0     N45855   7.299  10.438   3.484 -0.7015 -0.0793 -0.3615
  348MOL0     C45856   8.297   9.491   3.085  0.2631  0.2657 -0.8278
  348MOL0     C45857   8.429   9.469   3.101 -0.3301 -0.0050 -0.0515
  348MOL0     C45858   8.854   9.563   3.324  0.4699 -0.5695  0.6868
  348MOL0     C45859   8.929   9.628   3.426 -0.8075  1.6561 -0.6130
  348MOL0     C45860   9.074   9.616   3.431 -0.3831  0.4057  0.3541
  348MOL0     C45861   9.142   9.528   3.342  0.4770 -0.1914  0.6072
  348MOL0     O45862   9.277   9.525   3.315 -0.0871 -0.0862  0.1575
  348MOL0     C45863   9.386   9.541   3.408  0.4587 -0.1755 -0.6331
  348MOL0     C45864   9.521   9.479   3.362  0.2586  0.6955  0.0002
  348MOL0     C45865   9.498   9.325   3.345  0.9907 -0.1165 -0.1113
  348MOL0     C45866   9.605   9.233   3.277 -0.1256  0.4876  1.2209
  348MOL0     C45867   9.588   9.101   3.327 -0.0672  0.8185  0.3249
  348MOL0     C45868   9.555   8.990   3.361  0.4372  0.3474 -0.5349
  348MOL0     C45869   9.066   9.470   3.239 -0.3903 -0.2643  0.5051
  348MOL0     C45870   8.926   9.486   3.232  0.5548  0.9563 -0.8073
  348MOL0     H45871   8.493   9.745   3.292 -1.0083  1.3689 -0.1843
  348MOL0     H45872   8.260   9.785   3.262  2.6624  0.9643 -0.3078
  348MOL0     H45873   7.989   9.744   2.989 -0.7631  1.3998 -0.2207
  348MOL0     H45874   8.115   9.817   3.087 -1.6391  0.7678 -1.0816
  348MOL0     H45875   8.002   9.758   3.298  0.5853 -0.8620 -0.2653
  348MOL0     H45876   7.876   9.684   3.205  0.4786  0.4142  2.4135
  348MOL0     H45877   7.820   9.889   3.089  0.7606  1.9759 -0.4692
  348MOL0     H45878   7.933   9.978   3.198 -1.1342  0.5877  4.2524
  348MOL0     H45879   7.688   9.826   3.299  0.6383 -0.3994 -0.3731
  348MOL0     H45880   7.809   9.912   3.393  0.9944 -1.2072 -0.1934
  348MOL0     H45881   7.671  10.059   3.177 -0.6584 -1.5769 -0.0485
  348MOL0     H45882   7.754  10.119   3.316 -1.6903  2.1436 -0.8400
  348MOL0     H45883   7.588  10.034   3.478  1.0136  1.5305 -0.1644
  348MOL0     H45884   7.479   9.970   3.354  0.5996 -0.7870  1.1350
  348MOL0     H45885   7.538  10.262   3.356  2.5365 -0.7976  0.5500
  348MOL0     H45886   7.424  10.172   3.253 -0.9343  2.5484  0.5786
  348MOL0     H45887   7.404  10.215   3.552  2.6294 -1.1982 -1.0772
  348MOL0     H45888   7.297  10.116   3.441 -0.4189 -0.3285 -0.9536
  348MOL0     H45889   7.178  10.267   3.229 -3.1516  2.6441 -1.8584
  348MOL0     H45890   7.104  10.472   3.114 -1.6160  0.4652 -0.3754
  348MOL0     H45891   7.091  10.629   3.205  0.8050  0.1464  0.5310
  348MOL0     H45892   6.904  10.579   3.313  1.5709  0.7789 -0.3313
  348MOL0     H45893   6.891  10.412   3.253 -2.7176  0.9281  0.4525
  348MOL0     H45894   6.878  10.647   3.065 -0.3605 -0.3317 -1.3621
  348MOL0     H45895   6.865  10.477   3.022  1.5484  0.3319  0.1191
  348MOL0     H45896   6.661  10.452   3.171  1.1529 -3.4852 -3.7778
  348MOL0     H45897   6.643  10.573   3.035  2.3032  2.3464  0.0113
  348MOL0     H45898   6.705  10.562   3.458 -0.0294 -0.8825 -1.4783
  348MOL0     H45899   6.542  10.527   3.628  1.0789 -1.3000 -0.9709
  348MOL0     H45900   6.112  10.361   3.734 -1.2327 -0.5672 -0.4730
  348MOL0     H45901   5.907  10.261   3.830  0.4887  0.1394 -0.0329
  348MOL0     H45902   5.638  10.197   3.643  0.1161  0.2243  0.4625
  348MOL0     H45903   5.544  10.353   3.622 -2.1173  0.0717  0.2430
  348MOL0     H45904   5.424  10.296   3.828  2.5477  1.2558 -0.2895
  348MOL0     H45905   5.522  10.157   3.840 -1.2407 -2.4985 -2.4919
  348MOL0     H45906   5.439  10.055   3.626 -1.2187 -1.8063  1.7180
  348MOL0     H45907   5.334  10.205   3.603 -1.5171 -0.4648  0.4302
  348MOL0     H45908   5.316  10.020   3.852  2.1029 -1.8669 -1.1539
  348MOL0     H45909   5.188  10.123   3.766 -0.8802 -0.1200 -0.5640
  348MOL0     H45910   5.125   9.901   3.713 -0.9656 -2.3105  0.0892
  348MOL0     H45911   5.292   9.856   3.709 -1.4363  0.5101  2.3035
  348MOL0     H45912   5.323   9.962   3.493 -0.2090  1.1887  1.7937
  348MOL0     H45913   5.147  10.021   3.508  1.0606  0.5113  0.8664
  348MOL0     H45914   5.263   9.730   3.502  0.6890  1.0329  0.8075
  348MOL0     H45915   5.087   9.782   3.525 -0.3967 -0.6548 -0.3997
  348MOL0     H45916   5.082   9.874   3.312 -1.0683 -0.6623  1.2895
  348MOL0     H45917   5.109   9.697   3.300  2.2880 -0.8545 -1.1031
  348MOL0     H45918   5.671  10.548   3.631 -0.8524 -1.3831  1.3122
  348MOL0     H45919   5.892  10.637   3.504 -1.4031 -0.4097 -1.2417
  348MOL0     H45920   6.239  10.678   3.354 -0.9620 -1.9234 -1.9176
  348MOL0     H45921   6.408  10.699   3.191 -1.7320 -2.1189 -0.7556
  348MOL0     H45922   8.247   9.408   3.037  0.4979  0.2112 -0.9831
  348MOL0     H45923   8.473   9.378   3.063  0.2942 -0.6062  1.9532
  348MOL0     H45924   8.882   9.695   3.497  1.4895  2.4524  0.2496
  348MOL0     H45925   9.132   9.683   3.494  0.8927 -2.0073  1.9163
  348MOL0     H45926   9.339   9.496   3.496 -4.1591  1.1781 -2.1096
  348MOL0     H45927   9.399   9.647   3.433 -0.5968 -0.0491 -0.5382
  348MOL0     H45928   9.561   9.534   3.276  2.9476 -0.9516  0.0846
  348MOL0     H45929   9.602   9.498   3.433  0.1924 -1.7234  0.8170
  348MOL0     H45930   9.397   9.310   3.307  0.0767  2.2484  1.1874
  348MOL0     H45931   9.486   9.292   3.448  1.5520  2.3447  0.8188
  348MOL0     H45932   9.595   9.238   3.168  0.4297 -0.1484  1.1270
  348MOL0     H45933   9.706   9.268   3.301 -0.7201  3.4728 -0.1565
  348MOL0     H45934   9.540   8.896   3.409 -0.9792  2.0352  2.5598
  348MOL0     H45935   9.111   9.410   3.162  0.5432 -0.4713  1.2039
  348MOL0     H45936   8.866   9.436   3.156 -1.4805  3.1855 -0.8033
  349MOL0     O45937   7.094   6.135   6.470  0.2459  0.2353 -0.1133
  349MOL0     C45938   7.060   6.098   6.590  0.3283  0.6034  0.0105
  349MOL0     O45939   7.145   6.090   6.689  0.0875 -0.4324  0.4291
  349MOL0     C45940   7.272   6.086   6.644 -0.4421  0.4285  0.1270
  349MOL0     C45941   7.339   6.205   6.671  0.0559 -0.2703  1.0748
  349MOL0     C45942   7.476   6.216   6.647  0.1239  0.0893 -0.3124
  349MOL0     C45943   7.548   6.102   6.595 -0.1105 -0.8188  0.4161
  349MOL0     O45944   7.685   6.096   6.564 -0.3633 -0.7087 -0.8254
  349MOL0     C45945   7.762   6.221   6.577 -0.4669  0.8236  0.2734
  349MOL0     C45946   7.758   6.317   6.462 -0.3183 -0.0832 -0.6566
  349MOL0     C45947   7.827   6.241   6.344  0.7916  0.1545 -0.7861
  349MOL0     C45948   7.741   6.127   6.266 -0.7419 -0.2577 -0.2153
  349MOL0     C45949   7.616   6.189   6.195 -0.2232 -0.5806 -0.0348
  349MOL0     C45950   7.654   6.293   6.089  0.1564 -0.1507  0.0530
  349MOL0     C45951   7.532   6.329   6.005  0.3524  0.6844  0.3022
  349MOL0     C45952   7.578   6.424   5.892  0.2062 -0.1584 -0.1792
  349MOL0     N45953   7.468   6.522   5.868 -0.1557 -0.8217  0.0978
  349MOL0     C45954   7.344   6.495   5.826 -0.6265 -0.6154 -0.3413
  349MOL0     C45955   7.274   6.609   5.846 -0.0898  0.1159  0.2615
  349MOL0     C45956   7.123   6.640   5.809 -0.8016  0.0136 -0.3912
  349MOL0     C45957   7.107   6.775   5.728  0.1373  0.5158  0.3321
  349MOL0     C45958   6.956   6.814   5.722  0.8489 -0.0933 -0.1642
  349MOL0     C45959   6.873   6.723   5.626 -0.3366  0.1939  0.5370
  349MOL0     O45960   6.732   6.762   5.621 -0.7929  0.9265 -0.8264
  349MOL0     C45961   6.655   6.683   5.547  0.1030 -0.6642 -0.1277
  349MOL0     C45962   6.522   6.677   5.582 -0.0946 -0.1146 -0.0180
  349MOL0     C45963   6.430   6.597   5.508 -0.0311 -0.5380 -0.6753
  349MOL0     C45964   6.475   6.527   5.391 -0.5069 -0.4726 -0.5061
  349MOL0     C45965   6.371   6.454   5.309 -0.1422 -0.5874  0.2912
  349MOL0     O45966   6.238   6.465   5.345 -0.3072  0.6167  0.4002
  349MOL0     C45967   6.139   6.413   5.266 -0.5369  0.5558  0.1462
  349MOL0     C45968   6.099   6.470   5.139  0.0992  0.3842 -0.8262
  349MOL0     C45969   6.000   6.417   5.060  0.6690 -0.3353 -0.0979
  349MOL0     C45970   5.926   6.308   5.107 -0.0810 -0.3589  0.2612
  349MOL0     O45971   5.826   6.268   5.027  0.1302  0.4521  1.2031
  349MOL0     C45972   5.727   6.165   5.074 -0.5712  0.0954  0.0585
  349MOL0     C45973   5.602   6.158   5.002  0.0098 -0.3549  0.1003
  349MOL0     C45974   5.539   6.298   5.000  0.1383 -0.2136 -0.1981
  349MOL0     C45975   5.388   6.283   4.972  0.3800  0.7818 -0.0054
  349MOL0     C45976   5.325   6.398   4.919 -0.1632  0.4571  0.8233
  349MOL0     C45977   5.175   6.398   4.952  0.3111  0.6138  0.6072
  349MOL0     C45978   5.103   6.282   4.889  0.1639 -0.4963  0.0679
  349MOL0     C45979   4.964   6.316   4.862 -0.3130  0.0181  0.2640
  349MOL0    Cl45980   4.875   6.171   4.793  0.4657 -0.0097 -0.2827
  349MOL0     C45981   5.964   6.252   5.226 -0.0268 -0.4731 -0.1752
  349MOL0     C45982   6.067   6.296   5.314  0.1965 -0.3423  0.9032
  349MOL0     O45983   6.414   6.395   5.207  0.1229 -0.2240 -0.8962
  349MOL0     C45984   6.608   6.530   5.352 -0.2430 -0.8951 -0.1060
  349MOL0     C45985   6.694   6.614   5.429 -0.1919 -0.2567 -0.8599
  349MOL0     N45986   7.360   6.701   5.901  0.3975  0.6548 -0.3342
  349MOL0     N45987   7.477   6.644   5.911 -0.3703 -0.3578 -0.0133
  349MOL0     C45988   7.478   5.989   6.553 -0.6157  0.1470  0.4817
  349MOL0     C45989   7.338   5.981   6.574  0.0189 -0.0753  0.4124
  349MOL0     C45990   6.917   6.075   6.625  0.1101 -0.2810 -0.2922
  349MOL0     C45991   6.872   6.047   6.751  0.3711 -1.1367  0.4466
  349MOL0     C45992   6.739   6.025   6.781  0.2332  0.6832  0.0114
  349MOL0     C45993   6.635   6.036   6.692  0.5529 -0.1255 -0.1426
  349MOL0     O45994   6.499   6.028   6.709  0.0651 -0.5081 -0.6307
  349MOL0     C45995   6.452   5.957   6.823  0.0414 -0.1289  0.3402
  349MOL0     C45996   6.307   5.947   6.803  0.1602 -0.4819 -0.1448
  349MOL0     C45997   6.256   5.869   6.926 -0.3387 -0.5548  0.0936
  349MOL0     C45998   6.104   5.861   6.939  0.6741 -0.2377  0.6376
  349MOL0     C45999   6.045   5.802   6.824 -0.7782 -0.7818  0.3599
  349MOL0     C46000   6.011   5.757   6.721 -0.7793  0.0841 -0.0638
  349MOL0     C46001   6.678   6.083   6.565  0.5962  0.2823 -0.2201
  349MOL0     C46002   6.814   6.105   6.538  0.5027 -0.0436 -0.3669
  349MOL0     H46003   7.288   6.285   6.724  0.6439  1.8907 -1.4285
  349MOL0     H46004   7.518   6.314   6.666 -1.7468  0.8735 -0.0485
  349MOL0     H46005   7.866   6.189   6.586 -0.2439  0.5188 -2.5232
  349MOL0     H46006   7.740   6.278   6.669 -0.5253  2.0551 -0.4739
  349MOL0     H46007   7.826   6.402   6.472  0.1601 -0.4981 -0.2907
  349MOL0     H46008   7.659   6.358   6.443  0.1078  0.9168 -0.7746
  349MOL0     H46009   7.921   6.196   6.377  0.3365 -0.1239  0.1713
  349MOL0     H46010   7.849   6.314   6.266 -1.9573  0.5156 -1.3356
  349MOL0     H46011   7.811   6.086   6.192 -2.6545  3.6673 -4.7699
  349MOL0     H46012   7.724   6.045   6.336  1.3750 -1.7258 -1.2948
  349MOL0     H46013   7.552   6.240   6.267  1.5153 -0.3094  1.4146
  349MOL0     H46014   7.554   6.111   6.151 -2.9168  1.1849  0.4102
  349MOL0     H46015   7.727   6.250   6.019 -0.0932  1.8058 -1.5154
  349MOL0     H46016   7.699   6.376   6.144  0.0263  0.2064 -0.3699
  349MOL0     H46017   7.505   6.239   5.949  2.3756  0.7249 -0.8100
  349MOL0     H46018   7.449   6.371   6.063  0.8635 -0.5914  2.0386
  349MOL0     H46019   7.603   6.378   5.796 -0.7389  2.5398 -1.8265
  349MOL0     H46020   7.674   6.468   5.920 -0.1702 -0.7877  2.3619
  349MOL0     H46021   7.309   6.399   5.790 -1.6516 -0.5212  0.3709
  349MOL0     H46022   7.061   6.626   5.898  0.5515 -1.7256  0.3562
  349MOL0     H46023   7.099   6.551   5.751  1.1136 -0.4805 -0.4914
  349MOL0     H46024   7.149   6.758   5.628  0.8687  0.4886  0.6358
  349MOL0     H46025   7.167   6.849   5.782  0.3476 -0.7840  1.9483
  349MOL0     H46026   6.915   6.823   5.823 -0.9394 -0.5069 -0.8254
  349MOL0     H46027   6.950   6.915   5.680 -1.4212 -0.2895 -0.4482
  349MOL0     H46028   6.888   6.616   5.645 -1.4419  0.2537  1.9594
  349MOL0     H46029   6.906   6.758   5.528  0.7297  0.8145  1.1019
  349MOL0     H46030   6.479   6.727   5.669 -1.1472  0.9992 -1.1386
  349MOL0     H46031   6.327   6.609   5.540 -0.3015  0.3752 -1.8444
  349MOL0     H46032   6.155   6.559   5.112  0.0260  2.3108  4.2103
  349MOL0     H46033   5.975   6.463   4.965 -1.7270 -1.5996 -0.1410
  349MOL0     H46034   5.707   6.175   5.181 -0.6179 -1.7978  0.2675
  349MOL0     H46035   5.771   6.065   5.062  1.6335  1.0509 -0.3256
  349MOL0     H46036   5.536   6.076   5.033  0.4811 -1.4056 -1.5473
  349MOL0     H46037   5.607   6.143   4.894 -2.3744 -0.4769 -0.0512
  349MOL0     H46038   5.585   6.370   4.931 -1.2368  0.6005 -0.3041
  349MOL0     H46039   5.546   6.348   5.096  0.4110  0.5897 -0.6239
  349MOL0     H46040   5.381   6.210   4.891  1.4741  0.9148 -0.2251
  349MOL0     H46041   5.338   6.246   5.062 -1.1609 -0.4863 -1.3204
  349MOL0     H46042   5.353   6.417   4.815  1.8590  0.6035  1.3529
  349MOL0     H46043   5.356   6.486   4.976 -3.2652 -0.8967  5.0389
  349MOL0     H46044   5.133   6.489   4.909 -3.0208 -0.9750  0.1741
  349MOL0     H46045   5.162   6.410   5.060 -0.5640 -0.3047  0.6208
  349MOL0     H46046   5.153   6.246   4.799 -1.5503 -2.0205 -0.3488
  349MOL0     H46047   5.105   6.191   4.949  1.3407 -0.0363  0.7423
  349MOL0     H46048   4.945   6.409   4.808  2.9096  0.1586 -0.8011
  349MOL0     H46049   4.915   6.345   4.956 -1.3771  1.9652 -0.8153
  349MOL0     H46050   5.907   6.166   5.257 -1.4140 -0.3569 -2.2244
  349MOL0     H46051   6.082   6.243   5.408  1.1124 -1.0408  0.3822
  349MOL0     H46052   6.627   6.493   5.252 -3.5617 -0.6665 -0.9400
  349MOL0     H46053   6.793   6.634   5.390  0.5524  1.5182  1.6659
  349MOL0     H46054   7.527   5.908   6.500 -2.6362 -0.0381 -1.2145
  349MOL0     H46055   7.280   5.894   6.546 -2.8089  1.1724  1.9369
  349MOL0     H46056   6.934   6.024   6.838 -1.5055 -0.3519  2.0780
  349MOL0     H46057   6.707   5.993   6.880  0.3313  1.8741  0.4463
  349MOL0     H46058   6.476   6.028   6.903  2.8467  2.6459 -2.6417
  349MOL0     H46059   6.498   5.861   6.849 -0.1352 -1.0928 -2.5503
  349MOL0     H46060   6.260   6.046   6.801  2.2675  0.5785 -0.8065
  349MOL0     H46061   6.303   5.906   6.702  1.0532  1.5067 -1.0454
  349MOL0     H46062   6.302   5.907   7.017  1.2064 -0.6458 -0.6234
  349MOL0     H46063   6.296   5.767   6.922  1.5565  0.0500  2.0328
  349MOL0     H46064   6.084   5.799   7.027  3.4899 -2.7882 -0.3354
  349MOL0     H46065   6.052   5.953   6.965 -2.2470 -2.0206  1.6310
  349MOL0     H46066   5.960   5.712   6.638  0.5984  1.3031 -1.6344
  349MOL0     H46067   6.594   6.106   6.501 -0.3625 -2.3070 -0.0225
  349MOL0     H46068   6.824   6.128   6.433 -3.5765 -1.8761 -1.3464
  350MOL0     O46069   7.596   6.087   0.605 -0.7340 -0.0574  0.4355
  350MOL0     C46070   7.485   6.039   0.583 -0.2512 -0.2826 -0.1891
  350MOL0     O46071   7.453   5.942   0.494 -0.2793  0.0240 -0.4747
  350MOL0     C46072   7.556   5.884   0.432 -0.3004  0.3497  0.0469
  350MOL0     C46073   7.635   5.798   0.509  0.1312 -0.2140  0.1101
  350MOL0     C46074   7.753   5.739   0.464  0.3836 -0.1180 -0.5029
  350MOL0     C46075   7.790   5.756   0.330  0.0944 -0.0970  0.0720
  350MOL0     O46076   7.914   5.712   0.267  0.8765 -0.4076  0.0150
  350MOL0     C46077   8.013   5.652   0.349  0.8952 -0.1317  0.8695
  350MOL0     C46078   8.083   5.759   0.430  0.5370  0.0364  0.3982
  350MOL0     C46079   8.239   5.731   0.440  0.5843 -0.0727 -0.2019
  350MOL0     C46080   8.280   5.651   0.567 -0.0830  1.1684  0.0106
  350MOL0     C46081   8.201   5.512   0.581 -0.1225  0.3257 -0.6674
  350MOL0     C46082   8.241   5.445   0.714 -0.4292  0.1463  0.1220
  350MOL0     C46083   8.387   5.424   0.736 -0.0755 -0.3445 -0.6887
  350MOL0     C46084   8.403   5.360   0.874  0.6120  0.2805  0.2265
  350MOL0     N46085   8.534   5.329   0.927 -0.1026 -0.0640 -0.6287
  350MOL0     C46086   8.657   5.383   0.904  0.4241 -0.2928  0.5250
  350MOL0     C46087   8.753   5.303   0.960 -0.0923 -0.5363 -0.1243
  350MOL0     C46088   8.902   5.316   0.952  0.0437  0.3626  0.3547
  350MOL0     C46089   8.938   5.274   0.807 -0.3014 -0.9111  0.3499
  350MOL0     C46090   8.969   5.131   0.772 -1.0589 -0.2033 -0.0246
  350MOL0     C46091   8.843   5.043   0.762 -0.4092  0.2345 -1.0866
  350MOL0     O46092   8.769   5.077   0.643  0.4994 -0.7836  0.0690
  350MOL0     C46093   8.634   5.075   0.648  0.9583 -0.9829  0.2085
  350MOL0     C46094   8.556   5.024   0.748  1.2243  0.2733 -0.4638
  350MOL0     C46095   8.412   5.019   0.744 -0.7452 -0.3193  0.2785
  350MOL0     C46096   8.348   5.078   0.629 -0.0419  0.4339 -0.6148
  350MOL0     C46097   8.202   5.072   0.601  0.0549  0.1482  0.2257
  350MOL0     O46098   8.137   4.987   0.693  0.4605  0.2490  0.2403
  350MOL0     C46099   8.008   4.943   0.666 -0.0020 -0.2630  0.0145
  350MOL0     C46100   7.932   4.910   0.782  0.1785 -0.0854  0.4406
  350MOL0     C46101   7.810   4.855   0.786 -0.2850 -0.2511  0.4141
  350MOL0     C46102   7.748   4.847   0.659 -0.4604 -0.0290 -0.3341
  350MOL0     O46103   7.619   4.801   0.652 -1.0487 -0.5726  0.2004
  350MOL0     C46104   7.535   4.865   0.554 -0.8241 -0.8281 -0.6527
  350MOL0     C46105   7.396   4.851   0.608  0.0053 -0.2440  0.8144
  350MOL0     C46106   7.285   4.922   0.515 -0.5524  0.2990  0.4363
  350MOL0     C46107   7.179   4.992   0.614  0.8609 -0.1349 -0.1994
  350MOL0     C46108   7.063   5.060   0.561  0.1754  0.9607  0.0341
  350MOL0     C46109   6.989   4.995   0.448  0.3771 -0.7095  0.5875
  350MOL0     C46110   6.867   5.077   0.394 -0.2569  0.5205  0.0871
  350MOL0     C46111   6.760   5.078   0.501 -0.2357  0.1175  0.0292
  350MOL0    Cl46112   6.702   4.914   0.544  0.0807  0.1256 -0.2162
  350MOL0     C46113   7.819   4.879   0.543 -0.3248  0.1804  0.1137
  350MOL0     C46114   7.946   4.932   0.544 -1.3786  0.4584 -0.1241
  350MOL0     O46115   8.154   5.116   0.497  0.1354 -0.0239 -0.3757
  350MOL0     C46116   8.433   5.137   0.531  0.1037  0.2805  0.1296
  350MOL0     C46117   8.568   5.135   0.540  0.6477 -0.1545  1.6443
  350MOL0     N46118   8.686   5.213   1.036  0.5926 -0.6088  0.3180
  350MOL0     N46119   8.559   5.228   1.017 -0.1229  0.1878 -0.8714
  350MOL0     C46120   7.707   5.835   0.255  0.3790 -0.5675  0.6857
  350MOL0     C46121   7.583   5.884   0.298  0.3399 -0.7333  0.6986
  350MOL0     C46122   7.386   6.079   0.688 -0.6497 -0.2346 -0.6142
  350MOL0     C46123   7.419   6.102   0.833  0.0373  0.1783  0.3679
  350MOL0     C46124   7.328   6.150   0.925  0.0195 -0.7551  0.4360
  350MOL0     C46125   7.190   6.163   0.888  0.6779  0.8474  0.0999
  350MOL0     O46126   7.093   6.191   0.983 -0.4562  0.1120  0.5283
  350MOL0     C46127   7.006   6.298   0.948  0.0467 -0.1444  0.1768
  350MOL0     C46128   6.902   6.310   1.065  0.0570 -0.3757 -0.5850
  350MOL0     C46129   6.827   6.441   1.045  0.0300  0.4196 -0.4658
  350MOL0     C46130   6.686   6.449   1.115  1.0076  0.5705 -0.1153
  350MOL0     C46131   6.614   6.568   1.079  0.1265 -0.6833  0.0268
  350MOL0     C46132   6.554   6.674   1.070  0.1004 -1.0199 -0.2402
  350MOL0     C46133   7.158   6.118   0.756  1.2186  0.4962 -1.1590
  350MOL0     C46134   7.248   6.092   0.655  0.2254  0.2436 -0.3594
  350MOL0     H46135   7.606   5.780   0.612 -0.0178  1.4031  0.3868
  350MOL0     H46136   7.817   5.696   0.541  2.2709  0.0934 -1.8993
  350MOL0     H46137   8.089   5.614   0.280 -0.0444 -0.0130 -0.2543
  350MOL0     H46138   7.980   5.564   0.405  2.7334 -2.0323 -0.7999
  350MOL0     H46139   8.042   5.763   0.531 -0.5047  0.4576 -0.0267
  350MOL0     H46140   8.061   5.854   0.381  2.4379  0.6126  0.5967
  350MOL0     H46141   8.276   5.834   0.444  0.3339  0.0545 -0.9427
  350MOL0     H46142   8.291   5.694   0.351  1.0188 -0.8139  0.3574
  350MOL0     H46143   8.386   5.625   0.560 -0.9926 -3.3052 -0.2053
  350MOL0     H46144   8.261   5.715   0.653 -1.5035  1.3397 -0.4093
  350MOL0     H46145   8.219   5.439   0.501  1.7247  1.6730 -1.5372
  350MOL0     H46146   8.093   5.529   0.589 -0.2047  0.0204 -1.0442
  350MOL0     H46147   8.187   5.351   0.724 -1.5119  0.6855 -0.4797
  350MOL0     H46148   8.201   5.511   0.792 -0.5618  0.0796  0.1105
  350MOL0     H46149   8.429   5.368   0.652 -0.0320  0.0124 -0.9035
  350MOL0     H46150   8.435   5.522   0.741  0.6315 -0.5230 -2.9480
  350MOL0     H46151   8.346   5.268   0.859 -1.9792  2.2950 -4.5306
  350MOL0     H46152   8.343   5.415   0.946 -1.8554 -1.0653 -0.6738
  350MOL0     H46153   8.687   5.464   0.838  1.2816  0.1575  1.4429
  350MOL0     H46154   8.955   5.245   1.016 -0.0476 -2.7401 -2.7052
  350MOL0     H46155   8.936   5.420   0.962 -2.2516  1.3725 -1.2826
  350MOL0     H46156   9.027   5.336   0.789 -1.9779  1.4100 -0.4792
  350MOL0     H46157   8.854   5.309   0.747 -0.2436 -1.3109  0.0392
  350MOL0     H46158   9.016   5.139   0.673  1.3082 -0.8189  0.9791
  350MOL0     H46159   9.046   5.097   0.842  1.2856  3.2458 -0.6444
  350MOL0     H46160   8.798   5.038   0.862 -0.0370  1.7122 -0.8231
  350MOL0     H46161   8.873   4.941   0.737 -0.4048  0.4175 -1.8555
  350MOL0     H46162   8.606   4.975   0.831 -4.2228 -4.8083  0.4644
  350MOL0     H46163   8.362   4.974   0.829 -1.5067 -0.0554 -0.0218
  350MOL0     H46164   7.985   4.921   0.876  2.2937 -0.2111 -0.6708
  350MOL0     H46165   7.758   4.833   0.878 -1.7761 -0.2505 -0.3877
  350MOL0     H46166   7.531   4.820   0.455 -0.3072 -0.4739 -0.8358
  350MOL0     H46167   7.553   4.973   0.545  1.1840 -1.0029  0.5491
  350MOL0     H46168   7.392   4.902   0.705 -0.0969  0.1658  0.5962
  350MOL0     H46169   7.363   4.750   0.634 -1.4837  0.6184  2.4810
  350MOL0     H46170   7.232   4.846   0.456 -0.0025 -1.8632  2.5436
  350MOL0     H46171   7.339   4.999   0.460 -0.6982  0.2527  0.2275
  350MOL0     H46172   7.153   4.917   0.689 -1.4494  1.8957  1.1675
  350MOL0     H46173   7.238   5.073   0.657  0.8421  0.7761 -1.8281
  350MOL0     H46174   7.085   5.159   0.520 -2.6410 -0.0949 -4.7589
  350MOL0     H46175   6.995   5.069   0.646  0.0818 -2.0117  0.3885
  350MOL0     H46176   6.956   4.894   0.472  0.7472 -1.5300 -2.0966
  350MOL0     H46177   7.062   4.991   0.367 -0.1433 -1.6470  0.1431
  350MOL0     H46178   6.902   5.180   0.390  2.4754 -0.3448 -1.3379
  350MOL0     H46179   6.821   5.035   0.304  1.1569 -1.8896  0.3939
  350MOL0     H46180   6.668   5.112   0.453 -0.0470  0.5895  0.0002
  350MOL0     H46181   6.773   5.142   0.589 -1.0503 -0.5987  0.6824
  350MOL0     H46182   7.767   4.855   0.451 -1.3760  0.9109  0.4997
  350MOL0     H46183   7.992   4.981   0.459  1.9928  3.6051  3.1609
  350MOL0     H46184   8.392   5.188   0.444 -1.1826 -0.8998  0.0209
  350MOL0     H46185   8.618   5.197   0.466 -0.4699  0.7510  1.6192
  350MOL0     H46186   7.735   5.856   0.153 -3.1680  2.4047  0.0948
  350MOL0     H46187   7.508   5.934   0.238  0.7347 -1.0859 -0.1114
  350MOL0     H46188   7.522   6.083   0.863  0.6746  0.3694 -1.5277
  350MOL0     H46189   7.356   6.177   1.026  3.5223  1.3090 -0.8877
  350MOL0     H46190   6.954   6.272   0.855 -0.9200  0.9567  0.3966
  350MOL0     H46191   7.067   6.384   0.919  0.8543 -0.5500  0.6269
  350MOL0     H46192   6.835   6.224   1.058  0.4125 -0.5690 -1.8547
  350MOL0     H46193   6.950   6.316   1.163 -1.2075  2.2602 -0.0401
  350MOL0     H46194   6.801   6.456   0.940  1.1641  1.6817 -0.5891
  350MOL0     H46195   6.902   6.517   1.067 -1.5201  2.4536 -1.9000
  350MOL0     H46196   6.629   6.360   1.088  1.2868  0.1745  0.5644
  350MOL0     H46197   6.701   6.452   1.223  0.2903  0.0971  0.0005
  350MOL0     H46198   6.495   6.763   1.061 -1.6426 -2.1053 -0.1131
  350MOL0     H46199   7.050   6.121   0.741  0.7177 -0.4292  1.5068
  350MOL0     H46200   7.208   6.063   0.559 -0.8142  2.3299 -0.6117
  351MOL0     O46201  10.690   0.101   7.237  0.3917 -0.6264  0.4688
  351MOL0     C46202  10.808   0.064   7.248  0.1407  0.4162  0.7553
  351MOL0     O46203  10.852  -0.022   7.340  0.0211  0.3828 -0.1760
  351MOL0     C46204  10.767  -0.081   7.432  0.3839 -0.0173 -0.3325
  351MOL0     C46205  10.635  -0.109   7.422  0.5529  0.3581 -0.5436
  351MOL0     C46206  10.570  -0.181   7.527  0.7024 -0.5831  0.6727
  351MOL0     C46207  10.629  -0.203   7.650 -0.6579 -1.1735  0.1712
  351MOL0     O46208  10.566  -0.254   7.763  0.4550 -0.0919 -0.3759
  351MOL0     C46209  10.484  -0.368   7.724  0.1994 -0.4205  0.0155
  351MOL0     C46210  10.470  -0.461   7.838 -0.2150 -0.4653 -1.0855
  351MOL0     C46211  10.432  -0.601   7.794 -0.6777  0.1237  1.2881
  351MOL0     C46212  10.421  -0.691   7.916  0.0659 -0.0704  0.3047
  351MOL0     C46213  10.384  -0.832   7.879  0.3398 -0.5671 -0.5098
  351MOL0     C46214  10.329  -0.914   7.997 -0.3148 -0.3110  0.5712
  351MOL0     C46215  10.219  -0.835   8.074 -0.5121  0.6414  0.9272
  351MOL0     C46216  10.100  -0.788   7.991  0.4760  0.5521  0.4590
  351MOL0     N46217  10.104  -0.641   7.988  0.0111  0.1871 -0.3417
  351MOL0     C46218  10.078  -0.577   7.873  0.1666 -0.4467 -1.0157
  351MOL0     C46219  10.089  -0.446   7.902  0.5572 -0.1521  0.1733
  351MOL0     C46220  10.068  -0.333   7.808 -0.4811 -0.0487 -0.1327
  351MOL0     C46221   9.912  -0.292   7.827  0.3659 -0.4240 -0.0139
  351MOL0     C46222   9.904  -0.206   7.953  0.6362 -0.1379  0.2907
  351MOL0     C46223   9.753  -0.160   7.957  0.4222  0.2097 -0.3721
  351MOL0     O46224   9.754  -0.063   8.060  0.5379  0.0755  0.0705
  351MOL0     C46225   9.630  -0.014   8.100 -0.4388 -0.3673  0.0115
  351MOL0     C46226   9.641   0.078   8.202  0.3543 -0.6125  0.2224
  351MOL0     C46227   9.530   0.152   8.243 -0.2812  0.4367  0.3522
  351MOL0     C46228   9.400   0.125   8.193  0.3755  0.4139  0.7028
  351MOL0     C46229   9.285   0.197   8.244 -1.0792  0.4447  1.0728
  351MOL0     O46230   9.173   0.173   8.170 -0.3201 -0.2776 -0.6283
  351MOL0     C46231   9.060   0.218   8.226  0.5682 -0.0722  0.9613
  351MOL0     C46232   8.980   0.141   8.312 -0.4286 -0.5496  0.0833
  351MOL0     C46233   8.854   0.181   8.352 -0.0930  0.7239 -0.2631
  351MOL0     C46234   8.809   0.308   8.317  1.1779 -0.0492  0.5214
  351MOL0     O46235   8.697   0.362   8.376  0.1232 -0.4460 -0.3716
  351MOL0     C46236   8.589   0.273   8.409  0.1760  0.4876  0.0792
  351MOL0     C46237   8.453   0.317   8.344  0.7455 -0.2773  1.0272
  351MOL0     C46238   8.404   0.455   8.402  0.0218 -0.8596 -0.3057
  351MOL0     C46239   8.274   0.508   8.338 -0.2418  0.0211  0.2208
  351MOL0     C46240   8.166   0.405   8.371  0.1551  0.5682  0.8375
  351MOL0     C46241   8.020   0.457   8.356 -0.4552 -0.2345 -0.2130
  351MOL0     C46242   7.972   0.476   8.219 -0.6310 -0.1738  0.7067
  351MOL0     C46243   7.842   0.549   8.201  0.5228 -0.3280  0.7412
  351MOL0    Cl46244   7.793   0.535   8.027  0.1471 -0.1275  0.2432
  351MOL0     C46245   8.901   0.395   8.239  0.4400 -0.1658 -0.4237
  351MOL0     C46246   9.018   0.348   8.189 -0.2174  0.9816  0.0091
  351MOL0     O46247   9.295   0.256   8.349  0.4128 -0.3475 -0.1265
  351MOL0     C46248   9.389   0.020   8.094  0.5413 -0.6107  0.2754
  351MOL0     C46249   9.496  -0.049   8.053 -0.1320  1.5140  0.2317
  351MOL0     N46250  10.122  -0.430   8.034 -0.0542  1.0137 -0.6600
  351MOL0     N46251  10.124  -0.553   8.091  0.3093  0.0010 -0.3717
  351MOL0     C46252  10.766  -0.171   7.661  0.0710 -0.2927 -0.5436
  351MOL0     C46253  10.834  -0.116   7.558 -0.3286  0.0093  0.1654
  351MOL0     C46254  10.902   0.112   7.146  0.1798 -1.3313 -0.1704
  351MOL0     C46255  11.034   0.059   7.136  0.2056  0.5154 -0.0029
  351MOL0     C46256  11.109   0.091   7.027 -0.2203  0.4032  0.3143
  351MOL0     C46257  11.073   0.185   6.936  0.2047  0.2397  0.5855
  351MOL0     O46258  11.149   0.239   6.835 -0.9471  0.2324 -0.8519
  351MOL0     C46259  11.241   0.153   6.761  0.2948  0.1385  0.0355
  351MOL0     C46260  11.305   0.239   6.650  0.1071 -0.3422 -0.3270
  351MOL0     C46261  11.410   0.336   6.710  0.2335  0.1346  0.6217
  351MOL0     C46262  11.557   0.282   6.696  0.0897  0.0137  0.0202
  351MOL0     C46263  11.569   0.149   6.768  0.1807 -1.2992 -0.0418
  351MOL0     C46264  11.579   0.043   6.825  0.6585 -0.5823  0.9745
  351MOL0     C46265  10.947   0.241   6.943  0.0813  0.3040  0.6441
  351MOL0     C46266  10.863   0.203   7.047 -0.8884  0.5086 -0.2216
  351MOL0     H46267  10.579  -0.078   7.334  0.0280 -3.3741 -1.7333
  351MOL0     H46268  10.466  -0.209   7.512  0.5475 -0.3457  1.2477
  351MOL0     H46269  10.543  -0.427   7.653 -0.8219 -0.8925 -0.4714
  351MOL0     H46270  10.385  -0.348   7.682  0.3369  0.2545 -0.0083
  351MOL0     H46271  10.392  -0.414   7.899  1.6632  0.5414  0.6425
  351MOL0     H46272  10.564  -0.454   7.894 -0.3251 -0.5429 -0.8906
  351MOL0     H46273  10.503  -0.639   7.719  0.0027  0.9207  1.5111
  351MOL0     H46274  10.342  -0.609   7.733  1.8401 -1.9284 -2.5688
  351MOL0     H46275  10.522  -0.691   7.959  1.8023  0.3439 -3.3688
  351MOL0     H46276  10.355  -0.638   7.985  1.6366  2.5973 -0.1055
  351MOL0     H46277  10.471  -0.870   7.824 -0.3843 -1.0976 -1.3108
  351MOL0     H46278  10.300  -0.826   7.810 -3.2270 -0.1862  3.4636
  351MOL0     H46279  10.407  -0.948   8.066  0.7662  1.9708  0.5740
  351MOL0     H46280  10.272  -0.997   7.954  0.7910 -0.6119 -0.3622
  351MOL0     H46281  10.182  -0.909   8.146  3.7202 -1.0142  1.6856
  351MOL0     H46282  10.259  -0.759   8.141  0.2817  1.1732 -0.1303
  351MOL0     H46283  10.009  -0.831   8.033  0.3520  1.1285  0.7809
  351MOL0     H46284  10.093  -0.824   7.888  2.3220 -0.5084  0.6526
  351MOL0     H46285  10.072  -0.613   7.771 -2.8462 -3.4121  0.0546
  351MOL0     H46286  10.086  -0.364   7.705  1.6876 -0.3840  0.3029
  351MOL0     H46287  10.132  -0.249   7.837 -0.4680 -0.7089  1.9174
  351MOL0     H46288   9.855  -0.386   7.825  1.5057 -1.1215 -1.1358
  351MOL0     H46289   9.890  -0.234   7.737  2.9171  0.9758  0.1739
  351MOL0     H46290   9.943  -0.258   8.041 -1.6019 -1.0803  0.7972
  351MOL0     H46291   9.966  -0.119   7.931  1.2208 -0.3960  0.8671
  351MOL0     H46292   9.690  -0.248   7.975 -1.1249  1.2454 -0.6091
  351MOL0     H46293   9.737  -0.125   7.855 -0.7213 -1.5519 -0.8559
  351MOL0     H46294   9.739   0.090   8.248 -0.4515  3.6852  1.3105
  351MOL0     H46295   9.542   0.230   8.317  2.0214 -1.3886  2.0510
  351MOL0     H46296   9.023   0.043   8.329  2.1712  0.6280  0.7711
  351MOL0     H46297   8.811   0.115   8.427 -0.5679  1.8698  0.4971
  351MOL0     H46298   8.581   0.269   8.518 -1.1628  0.4964 -0.0062
  351MOL0     H46299   8.602   0.173   8.366  0.7987  1.0526 -1.0982
  351MOL0     H46300   8.381   0.236   8.331  3.7337 -2.8074 -1.2652
  351MOL0     H46301   8.482   0.333   8.240  0.2894  0.7559  1.0471
  351MOL0     H46302   8.477   0.532   8.377  0.6570 -0.9450  1.1683
  351MOL0     H46303   8.395   0.458   8.511  0.8329 -1.1728 -0.2257
  351MOL0     H46304   8.251   0.602   8.388  0.5451 -0.5885  1.8074
  351MOL0     H46305   8.290   0.524   8.231 -2.7117 -1.2813 -0.4346
  351MOL0     H46306   8.185   0.373   8.473  3.1580 -1.2113 -0.1672
  351MOL0     H46307   8.187   0.322   8.303  2.1795  0.9229  0.9639
  351MOL0     H46308   8.020   0.549   8.415  1.2026 -0.5668  0.3574
  351MOL0     H46309   7.953   0.383   8.401 -1.3932  1.4167  1.2363
  351MOL0     H46310   8.038   0.538   8.158 -0.6102 -0.7771  0.1039
  351MOL0     H46311   7.962   0.379   8.171 -2.1617  0.6272 -0.6986
  351MOL0     H46312   7.866   0.653   8.224  4.0855 -0.7258 -0.6100
  351MOL0     H46313   7.759   0.517   8.265  0.1265  1.1445  0.9981
  351MOL0     H46314   8.871   0.496   8.215  1.3541  0.0668 -0.6222
  351MOL0     H46315   9.077   0.414   8.126  3.0021 -2.0442 -0.4502
  351MOL0     H46316   9.292  -0.002   8.051  1.2813 -0.9334 -1.2733
  351MOL0     H46317   9.476  -0.131   7.985 -2.2272  4.0631 -2.4810
  351MOL0     H46318  10.814  -0.202   7.752  0.1435 -1.1498 -0.8659
  351MOL0     H46319  10.942  -0.107   7.569 -0.4526  2.7170 -0.2619
  351MOL0     H46320  11.064  -0.001   7.222  2.5271  0.6436 -0.6716
  351MOL0     H46321  11.207   0.045   7.018 -0.6825 -0.5680  0.0352
  351MOL0     H46322  11.177   0.081   6.710 -0.9479  0.2780  1.3212
  351MOL0     H46323  11.321   0.108   6.820  2.2655  2.2789 -0.8301
  351MOL0     H46324  11.351   0.178   6.571  1.2318  1.9278 -1.5195
  351MOL0     H46325  11.228   0.303   6.606 -0.9633  0.1916  2.1653
  351MOL0     H46326  11.384   0.360   6.814 -1.3800  1.0533  0.0303
  351MOL0     H46327  11.414   0.434   6.662  0.8018  0.7049  1.7825
  351MOL0     H46328  11.577   0.267   6.590 -0.0327 -3.4912  0.3888
  351MOL0     H46329  11.636   0.354   6.721  1.3076 -0.8301 -1.2535
  351MOL0     H46330  11.602  -0.041   6.888  3.0656 -1.1758 -0.5159
  351MOL0     H46331  10.918   0.284   6.848 -0.4156  1.7351  1.4211
  351MOL0     H46332  10.761   0.237   7.052 -1.0972 -0.1755  0.4844
  352MOL0     O46333   2.521   5.975   3.370  0.1764 -0.4976 -0.8659
  352MOL0     C46334   2.580   5.991   3.476 -0.7112 -0.1208  0.2503
  352MOL0     O46335   2.544   6.080   3.570 -0.0097  0.4954  0.3977
  352MOL0     C46336   2.422   6.144   3.556 -0.5090  0.4804  0.6272
  352MOL0     C46337   2.404   6.262   3.487  0.1002  0.1625  0.1412
  352MOL0     C46338   2.283   6.327   3.485  0.9963  0.6317  0.2774
  352MOL0     C46339   2.172   6.277   3.554  0.4301 -0.5352 -0.4444
  352MOL0     O46340   2.059   6.353   3.548  0.5054  0.3563 -0.0599
  352MOL0     C46341   1.949   6.322   3.628 -0.1491 -0.3655 -0.5864
  352MOL0     C46342   1.837   6.426   3.597 -0.7769 -0.1208  0.4543
  352MOL0     C46343   1.709   6.417   3.678 -0.6922 -0.3465  1.0464
  352MOL0     C46344   1.722   6.438   3.826  0.3953  0.1311  0.0808
  352MOL0     C46345   1.588   6.436   3.899 -0.0487  0.4376 -0.4350
  352MOL0     C46346   1.545   6.288   3.943 -0.2176 -0.1109  0.1679
  352MOL0     C46347   1.427   6.283   4.039  0.2369 -0.5410 -0.2768
  352MOL0     C46348   1.381   6.129   4.063 -1.0844 -0.1431  0.5142
  352MOL0     N46349   1.254   6.104   4.132 -0.1699 -0.5701 -0.2439
  352MOL0     C46350   1.131   6.123   4.069  0.5206 -0.6091 -0.5802
  352MOL0     C46351   1.045   6.093   4.173 -0.0640  0.0763 -1.3555
  352MOL0     C46352   0.894   6.121   4.179  0.0094  0.2714  0.1848
  352MOL0     C46353   0.852   6.244   4.261 -0.0214  0.7481 -0.5026
  352MOL0     C46354   0.834   6.213   4.412 -0.2643  0.7615  0.5632
  352MOL0     C46355   0.819   6.348   4.492  0.3486  0.2743 -0.1778
  352MOL0     O46356   0.730   6.443   4.436 -0.6290  0.2466  0.1963
  352MOL0     C46357   0.595   6.437   4.461 -0.6785 -1.0757 -1.3347
  352MOL0     C46358   0.522   6.337   4.534  0.7294 -0.0329  0.9475
  352MOL0     C46359   0.381   6.330   4.544  0.4411 -0.5214 -0.1824
  352MOL0     C46360   0.303   6.426   4.480 -0.3488  0.3271  0.5222
  352MOL0     C46361   0.157   6.428   4.476  1.0807  0.9904  0.0501
  352MOL0     O46362   0.093   6.324   4.527 -0.1605 -0.5903  0.0846
  352MOL0     C46363  -0.045   6.330   4.526  0.5405  0.1411  0.4689
  352MOL0     C46364  -0.118   6.359   4.403  0.4033 -0.5659  0.5929
  352MOL0     C46365  -0.259   6.371   4.403 -0.4971 -0.7527  1.0430
  352MOL0     C46366  -0.330   6.368   4.521  0.9125  0.2679 -0.1418
  352MOL0     O46367  -0.468   6.372   4.515 -0.0833  0.0841 -0.3291
  352MOL0     C46368  -0.543   6.298   4.611  0.0403 -0.1771 -0.6559
  352MOL0     C46369  -0.691   6.316   4.571  0.7258  0.0448  0.1074
  352MOL0     C46370  -0.754   6.455   4.597  0.5572  0.6543 -0.3785
  352MOL0     C46371  -0.911   6.443   4.625 -0.1674  0.3856 -0.0264
  352MOL0     C46372  -0.982   6.547   4.546 -0.2462 -0.3408 -0.6974
  352MOL0     C46373  -1.135   6.550   4.565 -0.2718 -0.1976 -0.2453
  352MOL0     C46374  -1.203   6.675   4.507  0.0074 -0.0204  0.5449
  352MOL0     C46375  -1.355   6.658   4.483  0.4035 -0.6159  0.1009
  352MOL0    Cl46376  -1.443   6.642   4.634 -0.5568 -0.2812  0.5838
  352MOL0     C46377  -0.255   6.350   4.639  0.3795  0.0556  0.1235
  352MOL0     C46378  -0.115   6.325   4.645 -0.4285  0.5465 -0.6998
  352MOL0     O46379   0.108   6.532   4.439  0.3496  0.0228 -0.5546
  352MOL0     C46380   0.375   6.534   4.420 -0.5421 -0.2408 -0.2554
  352MOL0     C46381   0.514   6.532   4.406  0.0738 -0.2461 -0.6057
  352MOL0     N46382   1.117   6.062   4.294 -0.0386 -0.4426 -0.2670
  352MOL0     N46383   1.241   6.074   4.269 -0.1504  0.2768  0.7240
  352MOL0     C46384   2.186   6.162   3.626  0.4279  1.2553 -1.2656
  352MOL0     C46385   2.311   6.093   3.618 -0.0145 -0.6128  1.5190
  352MOL0     C46386   2.719   5.945   3.488  0.6390  0.5064  0.4382
  352MOL0     C46387   2.772   5.861   3.387 -0.1905  0.7167  0.2007
  352MOL0     C46388   2.895   5.804   3.419  0.0481 -0.1240  0.9476
  352MOL0     C46389   2.975   5.847   3.534  0.5490  1.2170 -1.2546
  352MOL0     O46390   3.104   5.805   3.536  0.4499  0.1507 -0.0699
  352MOL0     C46391   3.192   5.876   3.618  0.2035  0.6787 -0.7850
  352MOL0     C46392   3.324   5.815   3.580 -0.3040  0.4191  0.3350
  352MOL0     C46393   3.425   5.893   3.657 -0.1473 -0.1376 -0.7486
  352MOL0     C46394   3.566   5.867   3.588  0.2266 -0.2612  0.9825
  352MOL0     C46395   3.677   5.897   3.677  0.5696  0.0683 -0.0351
  352MOL0     C46396   3.784   5.908   3.734 -0.2928  1.0782 -0.4521
  352MOL0     C46397   2.907   5.924   3.632 -1.1093  0.4335 -0.4170
  352MOL0     C46398   2.785   5.977   3.609  0.1551  0.5052 -0.3298
  352MOL0     H46399   2.487   6.314   3.439 -0.8961  1.0074 -0.7292
  352MOL0     H46400   2.271   6.428   3.446  2.3475  1.2927  1.4805
  352MOL0     H46401   1.975   6.335   3.733 -0.0141 -0.2219 -0.6375
  352MOL0     H46402   1.907   6.223   3.607  2.6236 -1.2137 -2.8447
  352MOL0     H46403   1.805   6.423   3.492 -4.4718 -0.9984  1.4739
  352MOL0     H46404   1.890   6.520   3.620  2.5975 -1.2281 -1.9472
  352MOL0     H46405   1.660   6.321   3.660 -0.1714 -0.5932  0.9171
  352MOL0     H46406   1.637   6.485   3.631  0.4145  1.9311  2.4903
  352MOL0     H46407   1.792   6.374   3.881  0.0835  0.0239  0.3536
  352MOL0     H46408   1.760   6.541   3.832 -2.4156  1.3284 -0.8987
  352MOL0     H46409   1.508   6.487   3.845 -2.4144 -1.4318  1.0758
  352MOL0     H46410   1.609   6.494   3.990  0.8220 -1.2940  0.5197
  352MOL0     H46411   1.629   6.244   3.998  0.9326  1.4837 -0.2077
  352MOL0     H46412   1.525   6.238   3.848  2.9607 -1.3843  0.0548
  352MOL0     H46413   1.453   6.341   4.128 -1.7223  1.9385 -1.2039
  352MOL0     H46414   1.351   6.349   3.997 -0.9873 -0.9112  1.2599
  352MOL0     H46415   1.465   6.087   4.119 -1.4443 -1.0278  0.3992
  352MOL0     H46416   1.378   6.082   3.964  0.4810  0.7822 -0.0072
  352MOL0     H46417   1.101   6.165   3.974  3.4125  2.3989 -0.3601
  352MOL0     H46418   0.839   6.031   4.204 -1.2680  0.8202 -0.5341
  352MOL0     H46419   0.848   6.134   4.080 -1.5488 -0.9749  0.7091
  352MOL0     H46420   0.760   6.291   4.223 -0.7536  1.0238  1.5098
  352MOL0     H46421   0.923   6.326   4.250  0.2728  0.5921  0.1815
  352MOL0     H46422   0.735   6.167   4.426 -0.6945  1.7411  0.9001
  352MOL0     H46423   0.915   6.151   4.451  0.0071  1.6829  1.5246
  352MOL0     H46424   0.920   6.391   4.488  0.9608 -1.1469 -0.5977
  352MOL0     H46425   0.794   6.325   4.596  1.2436 -3.0171 -0.5750
  352MOL0     H46426   0.580   6.251   4.568 -0.3815 -1.6078 -0.9102
  352MOL0     H46427   0.336   6.247   4.597 -0.9559  0.0003 -0.5256
  352MOL0     H46428  -0.071   6.358   4.305 -0.5289  0.9652  0.0899
  352MOL0     H46429  -0.319   6.390   4.314  1.6281  0.0518 -0.2950
  352MOL0     H46430  -0.534   6.341   4.711  1.9709  0.1264 -0.9275
  352MOL0     H46431  -0.513   6.193   4.614 -1.0704 -0.5557 -1.9861
  352MOL0     H46432  -0.746   6.240   4.628  3.5595 -0.8701  1.8524
  352MOL0     H46433  -0.688   6.283   4.467 -0.9359 -0.3251  0.1410
  352MOL0     H46434  -0.740   6.523   4.513 -0.5972  1.0658 -0.2585
  352MOL0     H46435  -0.714   6.490   4.693 -1.8528 -0.6176  1.2028
  352MOL0     H46436  -0.946   6.345   4.592  1.8581 -0.4937  0.2871
  352MOL0     H46437  -0.949   6.456   4.727  0.8705  0.2542  0.3900
  352MOL0     H46438  -0.956   6.525   4.442  1.6188  2.1381 -0.8737
  352MOL0     H46439  -0.938   6.640   4.585 -2.0843 -0.9499  3.3500
  352MOL0     H46440  -1.160   6.538   4.671 -1.5313  3.0924 -0.0675
  352MOL0     H46441  -1.168   6.460   4.512  0.1453 -0.2698 -0.3884
  352MOL0     H46442  -1.188   6.751   4.584 -0.1981 -0.0273  0.5919
  352MOL0     H46443  -1.150   6.694   4.413 -1.9883  1.0487 -0.4250
  352MOL0     H46444  -1.362   6.567   4.422 -0.6180 -0.3550 -0.1988
  352MOL0     H46445  -1.400   6.736   4.421  0.8266 -1.1521 -0.9147
  352MOL0     H46446  -0.298   6.354   4.739  1.4907 -5.0704  1.0922
  352MOL0     H46447  -0.063   6.300   4.737  0.3694  0.3927 -1.1815
  352MOL0     H46448   0.330   6.624   4.380  0.4395 -0.3495 -1.6641
  352MOL0     H46449   0.566   6.618   4.366 -0.1401  1.8291  3.1515
  352MOL0     H46450   2.107   6.123   3.690  2.9893 -1.4287  0.5445
  352MOL0     H46451   2.327   5.994   3.659  1.6162 -1.0788 -0.1013
  352MOL0     H46452   2.710   5.832   3.302  0.3733 -0.5100  0.1813
  352MOL0     H46453   2.949   5.730   3.361 -1.6392  0.6981 -1.9174
  352MOL0     H46454   3.167   5.869   3.724  2.8824 -0.1291 -0.1300
  352MOL0     H46455   3.185   5.981   3.588  0.3834  0.9194 -0.0167
  352MOL0     H46456   3.332   5.708   3.601  0.3052  0.1999 -0.9270
  352MOL0     H46457   3.342   5.823   3.472 -1.7461  0.9552  0.1068
  352MOL0     H46458   3.427   5.856   3.760 -1.7521 -0.5775 -0.8535
  352MOL0     H46459   3.407   6.000   3.645  0.9675  0.0020 -1.3150
  352MOL0     H46460   3.584   5.761   3.565  1.7210 -0.0570  1.1417
  352MOL0     H46461   3.574   5.926   3.496 -0.4257 -1.8376 -0.1352
  352MOL0     H46462   3.878   5.929   3.782 -1.4455 -0.5506  2.8080
  352MOL0     H46463   2.967   5.937   3.722  0.8740 -1.0173 -1.4358
  352MOL0     H46464   2.747   6.045   3.685  1.0299 -1.4736  2.0269
  353MOL0     O46465   6.164  10.079   9.025  0.1787 -0.5147  0.3588
  353MOL0     C46466   6.212   9.963   8.998  0.0271 -0.2677 -0.4703
  353MOL0     O46467   6.138   9.855   8.984 -0.2277  0.4511  0.0813
  353MOL0     C46468   6.001   9.862   8.998 -0.1006 -0.6713 -0.3122
  353MOL0     C46469   5.936   9.810   9.114 -0.1237  0.4545  0.0196
  353MOL0     C46470   5.796   9.813   9.131  0.0586 -1.0376  0.2246
  353MOL0     C46471   5.719   9.864   9.024  0.1082 -0.1794 -1.5092
  353MOL0     O46472   5.585   9.842   9.051  0.1014 -0.2036  0.5136
  353MOL0     C46473   5.504   9.832   8.939  0.1072 -0.5167  0.1231
  353MOL0     C46474   5.366   9.759   8.971 -0.5858 -0.2384  0.3935
  353MOL0     C46475   5.256   9.865   8.981  0.5505 -1.1727  0.4165
  353MOL0     C46476   5.117   9.804   9.022 -0.1160  0.0565  0.7328
  353MOL0     C46477   4.997   9.890   8.987  0.1735 -0.3012 -0.6221
  353MOL0     C46478   4.868   9.820   9.015 -0.2534  0.2034  0.0102
  353MOL0     C46479   4.738   9.880   8.949  0.1326 -0.0067 -0.1025
  353MOL0     C46480   4.614   9.792   8.986 -0.6740 -0.6132  0.0879
  353MOL0     N46481   4.483   9.861   8.986  0.4249 -0.6046  0.1860
  353MOL0     C46482   4.453   9.997   9.019 -0.4277 -0.0097  0.7244
  353MOL0     C46483   4.326  10.008   8.984  0.7288  0.0179 -0.4191
  353MOL0     C46484   4.244  10.127   9.013 -0.3524  0.3137 -0.0936
  353MOL0     C46485   4.102  10.089   9.059  0.4573 -0.0328  0.1930
  353MOL0     C46486   4.045  10.214   9.134 -0.6799  0.3968  0.3536
  353MOL0     C46487   3.896  10.196   9.126 -0.3008 -0.3162 -0.2366
  353MOL0     O46488   3.850  10.080   9.204  0.4048  0.4407  0.4638
  353MOL0     C46489   3.714  10.049   9.188  0.3397  0.2442 -0.8511
  353MOL0     C46490   3.642  10.077   9.068 -0.1297  0.0160 -0.5060
  353MOL0     C46491   3.512  10.026   9.050 -1.0451  0.4870  0.1280
  353MOL0     C46492   3.450   9.948   9.153 -0.3229 -0.1986 -0.1407
  353MOL0     C46493   3.311   9.904   9.148 -0.8063 -0.6429 -0.2390
  353MOL0     O46494   3.290   9.792   9.218  1.1186 -0.3470  0.7292
  353MOL0     C46495   3.175   9.717   9.217 -0.9272  0.6008 -0.0580
  353MOL0     C46496   3.165   9.619   9.319 -0.0169  0.4891 -0.1318
  353MOL0     C46497   3.044   9.546   9.339 -0.3600  0.2709 -0.8761
  353MOL0     C46498   2.945   9.558   9.242  0.4195  0.4010  0.1178
  353MOL0     O46499   2.829   9.489   9.234 -0.1619  0.3837 -0.1711
  353MOL0     C46500   2.793   9.440   9.359 -0.1962 -0.1067  1.3191
  353MOL0     C46501   2.652   9.387   9.332  0.0923 -0.7859  0.1555
  353MOL0     C46502   2.605   9.333   9.466 -0.2287  0.5425 -0.6247
  353MOL0     C46503   2.514   9.218   9.425 -0.1857  1.0513 -0.7679
  353MOL0     C46504   2.422   9.167   9.541  0.0358  0.5812  0.1936
  353MOL0     C46505   2.331   9.047   9.488 -0.5007 -0.6202 -1.0240
  353MOL0     C46506   2.229   9.017   9.590  0.3966  0.3229  0.5889
  353MOL0     C46507   2.138   8.905   9.541  0.5078 -0.0172 -0.1017
  353MOL0    Cl46508   2.241   8.757   9.527  0.2019  0.1679  0.2941
  353MOL0     C46509   2.958   9.651   9.139  0.3399 -0.4382 -0.2707
  353MOL0     C46510   3.072   9.732   9.125 -0.0487  0.1548 -0.2453
  353MOL0     O46511   3.229   9.969   9.091  0.4002  0.2139  0.4606
  353MOL0     C46512   3.521   9.922   9.265  0.5738  0.2871 -0.5156
  353MOL0     C46513   3.651   9.967   9.285 -0.3214  0.2163  0.2402
  353MOL0     N46514   4.279   9.884   8.953  0.2415  1.2818  0.1531
  353MOL0     N46515   4.370   9.797   8.948  0.0882  0.7722  0.5171
  353MOL0     C46516   5.782   9.925   8.918 -0.8268 -0.2413  0.0028
  353MOL0     C46517   5.922   9.927   8.903  0.4217 -0.2628  1.0127
  353MOL0     C46518   6.358   9.944   8.993 -0.2007 -0.2240  0.9619
  353MOL0     C46519   6.438  10.049   9.017 -0.2841 -0.2314  0.4939
  353MOL0     C46520   6.577  10.041   9.024  0.2663  0.0859  0.3466
  353MOL0     C46521   6.636   9.919   8.999 -0.5734  0.3689 -0.0157
  353MOL0     O46522   6.779   9.915   9.004  0.7815 -0.5010 -0.9665
  353MOL0     C46523   6.840   9.788   9.006  1.0675 -0.3517  0.2123
  353MOL0     C46524   6.994   9.808   9.005 -0.0304 -0.6542  0.4146
  353MOL0     C46525   7.058   9.898   8.894 -0.0315 -0.0336  0.4061
  353MOL0     C46526   7.016   9.858   8.748 -0.3294  0.0735  0.3561
  353MOL0     C46527   7.115   9.916   8.665  0.2416  0.1119  0.3102
  353MOL0     C46528   7.198   9.991   8.610 -0.8598  1.0053  0.9037
  353MOL0     C46529   6.560   9.808   8.986  0.3295  0.7688 -0.6987
  353MOL0     C46530   6.420   9.820   8.974  0.6602 -0.1967 -0.5122
  353MOL0     H46531   5.993   9.765   9.194 -1.7024 -1.7232 -0.0032
  353MOL0     H46532   5.755   9.761   9.217  2.8727 -1.0441  1.6667
  353MOL0     H46533   5.552   9.771   8.862 -0.6751 -0.7021 -0.2220
  353MOL0     H46534   5.486   9.928   8.891 -1.7070 -0.2922  1.1677
  353MOL0     H46535   5.361   9.706   9.067  0.7576 -1.0664  0.0484
  353MOL0     H46536   5.345   9.693   8.886  1.7754 -0.3540 -0.1744
  353MOL0     H46537   5.254   9.923   8.888  3.8461 -2.6770 -0.7366
  353MOL0     H46538   5.275   9.941   9.058 -2.1951  1.6079 -1.3665
  353MOL0     H46539   5.115   9.710   8.966 -0.2881 -0.4104  1.5226
  353MOL0     H46540   5.119   9.789   9.130  1.0307 -1.8155  0.4984
  353MOL0     H46541   5.014   9.916   8.882 -0.3157 -1.8260 -1.0993
  353MOL0     H46542   5.005   9.983   9.044  0.1581 -0.3907 -0.4752
  353MOL0     H46543   4.847   9.809   9.121  2.7913 -1.5151  0.5365
  353MOL0     H46544   4.877   9.716   8.981  0.1977  0.5256 -0.8908
  353MOL0     H46545   4.724   9.985   8.978 -1.4446 -0.4920  0.9860
  353MOL0     H46546   4.747   9.874   8.840  0.6488  1.3424 -0.1581
  353MOL0     H46547   4.637   9.766   9.089  2.2803  1.8047  0.1701
  353MOL0     H46548   4.622   9.707   8.917 -3.2076  0.3139 -1.5152
  353MOL0     H46549   4.526  10.066   9.059  2.8540 -2.7233 -0.1042
  353MOL0     H46550   4.238  10.196   8.928  4.7804  1.2962  0.0212
  353MOL0     H46551   4.296  10.183   9.091 -0.7701  2.1096 -1.0596
  353MOL0     H46552   4.100   9.996   9.117  1.2641 -1.1423 -1.4723
  353MOL0     H46553   4.038  10.064   8.974  0.6663  0.3831 -0.0919
  353MOL0     H46554   4.091  10.221   9.233  0.9619  2.8414 -0.4530
  353MOL0     H46555   4.067  10.309   9.083 -1.1662 -0.6465 -1.9067
  353MOL0     H46556   3.879  10.189   9.018  0.5804  0.1181 -0.4115
  353MOL0     H46557   3.850  10.290   9.156 -0.0094  0.6005 -2.4355
  353MOL0     H46558   3.685  10.132   8.985  0.4308 -1.1221 -0.9858
  353MOL0     H46559   3.451  10.051   8.964  0.0454 -1.0608 -1.1434
  353MOL0     H46560   3.245   9.621   9.392 -0.6227  3.4673  0.6041
  353MOL0     H46561   3.055   9.478   9.423  0.2367  1.2089 -0.1688
  353MOL0     H46562   2.796   9.515   9.438 -2.3064  0.3230  1.0414
  353MOL0     H46563   2.852   9.351   9.382 -0.7183 -0.4528  1.3352
  353MOL0     H46564   2.667   9.308   9.257  0.6442 -0.3414 -0.2060
  353MOL0     H46565   2.588   9.467   9.294  0.1536 -1.0788 -0.5856
  353MOL0     H46566   2.540   9.411   9.507  0.0820  0.3196  0.3006
  353MOL0     H46567   2.685   9.285   9.523  0.9263 -1.8924 -3.9720
  353MOL0     H46568   2.460   9.258   9.338  1.0141  1.1098 -1.5117
  353MOL0     H46569   2.572   9.132   9.389 -0.1224  1.1125 -0.8116
  353MOL0     H46570   2.366   9.255   9.573  1.5236  1.4167  0.6102
  353MOL0     H46571   2.480   9.125   9.624  1.4385 -2.2757 -2.0262
  353MOL0     H46572   2.393   8.960   9.462  2.5114  1.0890 -0.0657
  353MOL0     H46573   2.276   9.066   9.396 -2.3856 -1.1717 -0.0629
  353MOL0     H46574   2.271   8.992   9.687  1.4256 -2.3806 -0.4617
  353MOL0     H46575   2.170   9.109   9.599  1.1639  0.8985  0.0019
  353MOL0     H46576   2.102   8.934   9.442  1.9386  1.5750 -0.2081
  353MOL0     H46577   2.053   8.895   9.609 -2.0963  0.0245 -3.1484
  353MOL0     H46578   2.884   9.642   9.059  0.2313 -1.9456 -0.0429
  353MOL0     H46579   3.085   9.791   9.035  0.3353  1.5585  0.7027
  353MOL0     H46580   3.476   9.863   9.345  0.2208  0.6778 -0.4225
  353MOL0     H46581   3.711   9.946   9.373  0.8652 -1.6248 -0.9329
  353MOL0     H46582   5.705   9.974   8.859  0.2662  1.1955 -0.2772
  353MOL0     H46583   5.962   9.982   8.818 -2.4695  0.3318 -0.1017
  353MOL0     H46584   6.414  10.152   9.044  3.3046  0.3463  2.1373
  353MOL0     H46585   6.639  10.127   9.049  0.7840 -0.3709  0.6570
  353MOL0     H46586   6.814   9.752   8.906  1.3050  1.1131 -0.3968
  353MOL0     H46587   6.802   9.743   9.099 -0.2365  2.1120  0.9597
  353MOL0     H46588   7.031   9.852   9.098 -1.5105  0.5560  0.4782
  353MOL0     H46589   7.046   9.712   9.006  2.3538  0.5516  2.7559
  353MOL0     H46590   7.165   9.899   8.917 -0.2641  0.3761  1.5546
  353MOL0     H46591   7.027  10.001   8.909 -1.8463 -0.5946  0.7781
  353MOL0     H46592   7.009   9.749   8.736  1.5572  0.1346 -1.7562
  353MOL0     H46593   6.917   9.903   8.737 -0.8820 -0.4524  2.5176
  353MOL0     H46594   7.268  10.068   8.582  1.7040 -0.7561  2.1049
  353MOL0     H46595   6.597   9.706   8.981 -1.6781 -0.5030  4.2036
  353MOL0     H46596   6.350   9.739   8.952 -1.6428  1.6136 -0.3253
  354MOL0     O46597  10.129   7.072   4.096 -0.2929 -0.6999 -0.5961
  354MOL0     C46598  10.148   6.961   4.044 -0.0197 -0.1684 -0.0352
  354MOL0     O46599  10.052   6.868   3.996 -0.0895 -0.2736  1.0231
  354MOL0     C46600   9.918   6.879   4.019 -0.1182 -0.8146 -0.0730
  354MOL0     C46601   9.825   6.837   3.923  0.2160 -1.0534 -0.4230
  354MOL0     C46602   9.688   6.874   3.937 -0.8785 -0.7461  0.2596
  354MOL0     C46603   9.635   6.924   4.061  0.1509 -0.1656 -0.2047
  354MOL0     O46604   9.503   6.946   4.080  0.0084  0.1173  0.4977
  354MOL0     C46605   9.447   6.878   4.191  0.3054  0.5366 -0.0564
  354MOL0     C46606   9.324   6.955   4.242  0.6727  0.7998 -0.1061
  354MOL0     C46607   9.255   6.888   4.363 -0.3707  0.5877 -0.1967
  354MOL0     C46608   9.123   6.964   4.399  0.3600 -0.0790 -0.3269
  354MOL0     C46609   9.070   6.944   4.544 -0.7798  1.1190 -0.1652
  354MOL0     C46610   8.967   7.053   4.568 -0.1157 -0.1280 -0.1987
  354MOL0     C46611   8.906   7.028   4.707 -0.2536  0.0658  0.1774
  354MOL0     C46612   8.831   7.149   4.762 -0.0205 -0.9710  1.4100
  354MOL0     N46613   8.761   7.106   4.889  0.1876  0.4393 -0.5663
  354MOL0     C46614   8.648   7.016   4.900 -0.1832 -0.7586 -0.0910
  354MOL0     C46615   8.661   6.980   5.028  0.7158  0.4038 -0.3577
  354MOL0     C46616   8.569   6.882   5.103 -0.3040 -0.6675  0.4061
  354MOL0     C46617   8.441   6.949   5.141  0.3283  0.0170  0.1118
  354MOL0     C46618   8.345   6.861   5.224  0.0898 -0.4025 -0.1421
  354MOL0     C46619   8.229   6.952   5.281 -0.5029  0.7959  0.2200
  354MOL0     O46620   8.169   7.015   5.168  0.7805 -0.8019 -0.2233
  354MOL0     C46621   8.030   7.041   5.166  0.2760 -0.2979 -1.3592
  354MOL0     C46622   7.950   7.036   5.282  0.1423  0.8367  1.0949
  354MOL0     C46623   7.817   7.070   5.280  0.3104  0.0938 -0.1457
  354MOL0     C46624   7.764   7.110   5.159 -0.1400 -1.2364  0.2597
  354MOL0     C46625   7.609   7.119   5.153  0.5255  0.1938  0.1271
  354MOL0     O46626   7.533   7.062   5.253  0.2391  1.2608  0.0174
  354MOL0     C46627   7.395   7.049   5.242  0.5298 -0.6093 -0.0520
  354MOL0     C46628   7.306   7.059   5.128 -0.4122  0.7611 -0.5382
  354MOL0     C46629   7.167   7.026   5.146  0.5323  0.4037 -0.1407
  354MOL0     C46630   7.112   6.983   5.270 -0.3575 -0.5389 -0.5485
  354MOL0     O46631   6.981   6.947   5.293  0.4207 -0.3781  0.9454
  354MOL0     C46632   6.880   6.984   5.191 -0.5546  1.4655  0.2870
  354MOL0     C46633   6.754   6.963   5.268  0.1165  0.3858  0.5960
  354MOL0     C46634   6.629   7.015   5.205 -0.0754 -0.5523  0.1181
  354MOL0     C46635   6.509   6.951   5.258  0.6314 -0.8957  0.3642
  354MOL0     C46636   6.391   7.018   5.190  0.0562  1.1002 -0.2992
  354MOL0     C46637   6.254   6.986   5.249 -0.1233  0.1974  0.6394
  354MOL0     C46638   6.150   6.966   5.134 -0.6270 -0.4990  0.2799
  354MOL0     C46639   6.003   6.950   5.169  0.3434 -0.0059 -0.3462
  354MOL0    Cl46640   5.919   6.974   5.016  0.2446 -0.1083 -0.0535
  354MOL0     C46641   7.204   6.979   5.378  0.2613 -0.0380  0.1452
  354MOL0     C46642   7.338   7.010   5.363 -0.9421 -0.4229 -0.2532
  354MOL0     O46643   7.566   7.156   5.043  0.1929  0.3531 -0.6420
  354MOL0     C46644   7.843   7.108   5.044  0.8900 -0.3020 -0.1807
  354MOL0     C46645   7.975   7.082   5.050  0.3731 -0.3765 -0.4648
  354MOL0     N46646   8.762   7.045   5.097 -0.0423  1.0657 -0.3078
  354MOL0     N46647   8.827   7.111   5.008 -0.4907 -0.6483 -0.3204
  354MOL0     C46648   9.729   6.949   4.160  0.0084  0.7065 -0.2739
  354MOL0     C46649   9.865   6.929   4.136  0.1199  0.8272  0.5505
  354MOL0     C46650  10.293   6.919   4.029 -0.9429 -0.3240 -0.5672
  354MOL0     C46651  10.330   6.797   3.966  0.0140 -0.1624  0.1981
  354MOL0     C46652  10.468   6.758   3.976 -0.4098  0.7814 -0.2737
  354MOL0     C46653  10.568   6.832   4.035  0.2778 -0.4081 -0.0404
  354MOL0     O46654  10.698   6.803   4.054 -0.1947  0.0413 -0.0119
  354MOL0     C46655  10.749   6.703   3.959 -0.3144  0.2292 -0.7785
  354MOL0     C46656  10.904   6.695   3.968  0.0198  0.7252 -0.2552
  354MOL0     C46657  10.993   6.820   3.935  0.0013  0.1183  0.0561
  354MOL0     C46658  10.990   6.836   3.783 -0.2709 -0.7464 -1.0759
  354MOL0     C46659  11.091   6.933   3.743 -0.1099 -0.6593  0.1329
  354MOL0     C46660  11.182   7.013   3.705  0.1073  0.1212 -0.6181
  354MOL0     C46661  10.530   6.954   4.104 -0.6417  0.7867  1.0653
  354MOL0     C46662  10.390   6.990   4.100 -0.5305 -0.0843 -0.8637
  354MOL0     H46663   9.869   6.796   3.833 -2.3599 -0.5208 -2.0376
  354MOL0     H46664   9.612   6.851   3.863 -0.8320  0.4031 -0.1628
  354MOL0     H46665   9.515   6.860   4.275 -0.6529  1.5210  0.9609
  354MOL0     H46666   9.417   6.775   4.170  0.8144 -0.3702  3.1450
  354MOL0     H46667   9.254   6.972   4.159  0.5188  1.2726  0.1183
  354MOL0     H46668   9.344   7.057   4.276 -1.5626  2.1391 -2.4700
  354MOL0     H46669   9.325   6.882   4.447 -0.8504 -0.9288  0.1351
  354MOL0     H46670   9.227   6.784   4.346  2.1260  0.1946 -2.6194
  354MOL0     H46671   9.130   7.066   4.360  0.9059 -0.8064 -2.2688
  354MOL0     H46672   9.050   6.923   4.329  0.1187  1.6321 -1.1408
  354MOL0     H46673   9.140   6.946   4.628 -1.2691 -0.4441  0.3163
  354MOL0     H46674   9.019   6.847   4.553  0.6503  0.5287  2.2947
  354MOL0     H46675   8.888   7.041   4.493  1.2993  0.6809 -1.8744
  354MOL0     H46676   9.010   7.153   4.573 -0.4497  0.0659 -1.1153
  354MOL0     H46677   8.833   6.946   4.699 -1.1678  0.9218 -0.6237
  354MOL0     H46678   8.986   6.993   4.773 -0.7108 -1.3666  0.0189
  354MOL0     H46679   8.764   7.187   4.684  2.4732  1.6791  0.3507
  354MOL0     H46680   8.900   7.232   4.780 -1.8383  0.7161  0.9411
  354MOL0     H46681   8.575   6.979   4.829 -0.7800  0.4389 -0.1319
  354MOL0     H46682   8.622   6.854   5.195  0.9126  1.4911  0.4072
  354MOL0     H46683   8.544   6.795   5.042  0.9127 -0.0011 -1.0898
  354MOL0     H46684   8.394   6.977   5.046  3.7088  1.0705 -1.4150
  354MOL0     H46685   8.456   7.040   5.198  1.3712 -0.4009  0.5269
  354MOL0     H46686   8.294   6.790   5.159  1.2248  0.4240 -2.0156
  354MOL0     H46687   8.393   6.817   5.312 -2.8802  1.9828  2.9813
  354MOL0     H46688   8.255   7.016   5.365 -2.1607  0.6226  0.8936
  354MOL0     H46689   8.161   6.878   5.323 -0.6039  1.2875  0.9408
  354MOL0     H46690   7.991   7.011   5.379 -1.0535  1.3182  1.7426
  354MOL0     H46691   7.761   7.049   5.371  0.8486 -2.8178 -0.4059
  354MOL0     H46692   7.348   7.081   5.031 -3.2938  3.9952 -1.2383
  354MOL0     H46693   7.106   7.021   5.057  0.4574 -1.6427 -0.0225
  354MOL0     H46694   6.885   6.936   5.093 -3.8900  4.1001 -1.3837
  354MOL0     H46695   6.901   7.086   5.158  2.8445  0.5014 -0.9411
  354MOL0     H46696   6.748   6.987   5.374  0.7818  1.0888  0.4889
  354MOL0     H46697   6.744   6.854   5.277  1.8836  0.3096  2.3919
  354MOL0     H46698   6.636   6.990   5.099 -0.4286 -0.0497 -0.0259
  354MOL0     H46699   6.639   7.122   5.224 -0.8329 -0.3212 -0.7199
  354MOL0     H46700   6.497   6.844   5.239  0.2577 -0.8598  0.3915
  354MOL0     H46701   6.499   6.969   5.366 -3.6819  0.4103 -0.0726
  354MOL0     H46702   6.392   6.991   5.084 -1.4305 -3.3867  0.6283
  354MOL0     H46703   6.403   7.127   5.180 -0.4830  1.1726 -0.2046
  354MOL0     H46704   6.220   7.073   5.307 -1.4679  0.2244 -0.1434
  354MOL0     H46705   6.257   6.893   5.307  1.8160  0.6718  1.3500
  354MOL0     H46706   6.156   7.049   5.063  2.5670 -0.1285  0.8410
  354MOL0     H46707   6.187   6.881   5.075  0.1052  2.3053 -3.7504
  354MOL0     H46708   5.964   7.025   5.238  1.3422 -0.6685  0.9783
  354MOL0     H46709   5.994   6.847   5.202 -0.0848 -0.0101 -0.4740
  354MOL0     H46710   7.165   6.958   5.477  0.4091 -1.3649 -0.0654
  354MOL0     H46711   7.408   7.002   5.445  2.2679 -2.0404 -2.9481
  354MOL0     H46712   7.789   7.125   4.952 -3.0374 -1.6206  1.6610
  354MOL0     H46713   8.033   7.104   4.961  3.7445  3.1357  2.2506
  354MOL0     H46714   9.706   6.981   4.262  0.0360 -0.7256  0.2002
  354MOL0     H46715   9.928   6.957   4.220 -1.2192 -1.3210  2.3784
  354MOL0     H46716  10.262   6.733   3.911  0.1648  0.0517 -0.2437
  354MOL0     H46717  10.479   6.659   3.933 -3.6770  0.7616 -1.3460
  354MOL0     H46718  10.720   6.738   3.859  0.0628  0.1654 -0.9162
  354MOL0     H46719  10.692   6.609   3.967 -1.0711  0.5713 -1.9166
  354MOL0     H46720  10.909   6.667   4.074 -1.6187 -0.6313 -0.4875
  354MOL0     H46721  10.947   6.611   3.912 -0.7172 -0.8319  1.3719
  354MOL0     H46722  11.093   6.804   3.976 -0.8837  0.6106  2.5813
  354MOL0     H46723  10.953   6.909   3.984  0.6969 -0.6537  2.1244
  354MOL0     H46724  11.019   6.743   3.733  1.5687 -1.2469  0.7933
  354MOL0     H46725  10.894   6.878   3.751  0.1062  1.8430  0.8633
  354MOL0     H46726  11.256   7.085   3.678 -0.9418  1.6472  0.4185
  354MOL0     H46727  10.596   7.019   4.160  1.5087 -0.8896  0.6071
  354MOL0     H46728  10.379   7.084   4.153  0.7813 -1.1204  1.3991
  355MOL0     O46729   1.415   6.689   0.295 -0.6245  0.2843  0.3049
  355MOL0     C46730   1.417   6.730   0.413  0.1945  0.6453  0.3838
  355MOL0     O46731   1.318   6.700   0.503 -0.4373 -0.4276 -0.1752
  355MOL0     C46732   1.219   6.604   0.480  0.2876  0.3807 -0.2623
  355MOL0     C46733   1.089   6.640   0.504  0.6069  0.7305  0.6177
  355MOL0     C46734   0.979   6.549   0.479  0.3338 -0.0281 -0.4649
  355MOL0     C46735   1.008   6.418   0.431  0.3202 -0.2353 -0.4129
  355MOL0     O46736   0.917   6.319   0.408 -0.3772 -0.3042  0.2771
  355MOL0     C46737   0.777   6.325   0.454 -0.9369  0.3791 -0.5303
  355MOL0     C46738   0.701   6.229   0.373  0.2566 -0.4299  0.4098
  355MOL0     C46739   0.553   6.232   0.430  0.6118  0.4825  0.1673
  355MOL0     C46740   0.461   6.175   0.319  0.9605  0.0703 -0.4819
  355MOL0     C46741   0.316   6.147   0.360 -0.1112 -0.2201  0.2141
  355MOL0     C46742   0.227   6.187   0.243  0.1058 -0.0266  0.2058
  355MOL0     C46743   0.081   6.160   0.282  0.8582  0.6425  0.1584
  355MOL0     C46744  -0.014   6.237   0.188  0.6763  0.2604 -0.5126
  355MOL0     N46745  -0.144   6.219   0.250  0.9682 -0.1429 -0.3629
  355MOL0     C46746  -0.235   6.120   0.202 -0.1033 -1.3672 -0.1992
  355MOL0     C46747  -0.345   6.156   0.261  0.6105  0.4031 -0.5440
  355MOL0     C46748  -0.462   6.070   0.245 -0.3204 -0.5154 -0.3288
  355MOL0     C46749  -0.598   6.127   0.287 -0.6710  0.2153  0.1277
  355MOL0     C46750  -0.622   6.141   0.440  0.1026  0.3720  0.3842
  355MOL0     C46751  -0.769   6.183   0.464  0.5348  0.1888  0.0477
  355MOL0     O46752  -0.844   6.071   0.414  0.5415 -0.1971 -0.7575
  355MOL0     C46753  -0.980   6.074   0.428 -0.5920 -0.2214  0.1599
  355MOL0     C46754  -1.035   5.953   0.382 -1.1184 -0.3721 -0.3364
  355MOL0     C46755  -1.173   5.932   0.391  0.7004 -0.2027  0.0963
  355MOL0     C46756  -1.258   6.030   0.441 -0.5974 -0.0162  0.8675
  355MOL0     C46757  -1.402   6.016   0.445  0.6223  0.9200  1.1349
  355MOL0     O46758  -1.443   5.887   0.425  0.8620 -0.2121  0.1444
  355MOL0     C46759  -1.579   5.872   0.415 -0.3781  0.3538 -0.2720
  355MOL0     C46760  -1.633   5.769   0.494 -0.0547  0.1499  0.4759
  355MOL0     C46761  -1.776   5.741   0.491  0.3603  0.2110  0.0984
  355MOL0     C46762  -1.864   5.804   0.393 -1.1097 -0.2420  0.4229
  355MOL0     O46763  -1.997   5.780   0.372 -0.2184 -0.0754  0.8517
  355MOL0     C46764  -2.034   5.652   0.321  0.3097 -0.5653  0.0498
  355MOL0     C46765  -2.091   5.656   0.179 -0.8676 -0.0230 -0.1406
  355MOL0     C46766  -2.236   5.704   0.175  0.2190 -0.8201 -0.4412
  355MOL0     C46767  -2.300   5.677   0.043 -0.0919 -0.6529 -0.5999
  355MOL0     C46768  -2.454   5.684   0.047 -0.4600  0.1292 -0.9756
  355MOL0     C46769  -2.510   5.824   0.064  0.2770 -0.1267  0.0360
  355MOL0     C46770  -2.649   5.811   0.122 -0.0573 -0.4844  0.0452
  355MOL0     C46771  -2.717   5.958   0.163 -0.0679 -0.1123  0.3415
  355MOL0    Cl46772  -2.715   6.072   0.015 -0.2892 -0.1294  0.2615
  355MOL0     C46773  -1.805   5.914   0.325  0.5309 -0.2461 -0.0809
  355MOL0     C46774  -1.666   5.943   0.326 -0.7926 -0.7532 -0.2783
  355MOL0     O46775  -1.481   6.113   0.460 -0.1074 -0.3385 -0.3616
  355MOL0     C46776  -1.205   6.153   0.486  0.0991  0.4526 -1.0233
  355MOL0     C46777  -1.064   6.172   0.482  0.1811 -0.3831 -0.4879
  355MOL0     N46778  -0.330   6.276   0.325 -0.3610  0.3292  0.6093
  355MOL0     N46779  -0.212   6.324   0.306 -0.7270  0.6456  0.8278
  355MOL0     C46780   1.138   6.382   0.410 -0.1474 -0.2567 -0.0254
  355MOL0     C46781   1.243   6.473   0.433 -0.4494 -0.7884  0.1996
  355MOL0     C46782   1.526   6.811   0.463  0.5195 -0.0844 -0.6283
  355MOL0     C46783   1.664   6.771   0.445  0.1847 -0.1368 -0.1898
  355MOL0     C46784   1.766   6.857   0.489 -0.5282 -0.0850  0.6137
  355MOL0     C46785   1.738   6.976   0.553  0.3221  0.7985 -0.0386
  355MOL0     O46786   1.848   7.037   0.603 -0.1290  0.1270  0.3025
  355MOL0     C46787   1.835   7.139   0.706  0.7210  0.2355  0.3294
  355MOL0     C46788   1.963   7.202   0.756 -1.0253 -0.6239 -0.3790
  355MOL0     C46789   2.020   7.138   0.887  0.7543  0.1515  0.1569
  355MOL0     C46790   2.137   7.211   0.951  1.0511 -0.2472  0.2410
  355MOL0     C46791   2.229   7.273   0.852  0.8570  0.7960  0.4036
  355MOL0     C46792   2.319   7.318   0.785  0.5372 -1.3179 -0.1803
  355MOL0     C46793   1.605   7.009   0.578  0.2792  0.4015 -0.0943
  355MOL0     C46794   1.499   6.927   0.540  0.1786 -0.5283 -0.2331
  355MOL0     H46795   1.069   6.741   0.537 -0.0116  0.8288 -0.0330
  355MOL0     H46796   0.875   6.568   0.500  0.5412 -0.6923  1.2889
  355MOL0     H46797   0.738   6.423   0.425  1.7953  1.4694 -0.8114
  355MOL0     H46798   0.773   6.307   0.562 -0.4143  2.7698 -0.0434
  355MOL0     H46799   0.743   6.128   0.385 -2.4596 -1.4918  2.0490
  355MOL0     H46800   0.709   6.269   0.272 -1.9818 -0.4520  0.1670
  355MOL0     H46801   0.525   6.336   0.448 -0.1806  0.7725 -2.4063
  355MOL0     H46802   0.529   6.178   0.522  0.0454 -1.4089 -1.0212
  355MOL0     H46803   0.462   6.250   0.240  1.3263  0.1223 -0.4327
  355MOL0     H46804   0.503   6.079   0.288 -1.3366 -0.8704 -0.8503
  355MOL0     H46805   0.293   6.215   0.442  1.3353  1.3717 -0.6271
  355MOL0     H46806   0.304   6.046   0.401  0.6309  0.8057  3.1323
  355MOL0     H46807   0.254   6.114   0.166 -1.0013  2.0827 -2.3000
  355MOL0     H46808   0.252   6.287   0.208 -2.4469  0.7306  0.3531
  355MOL0     H46809   0.053   6.055   0.266  0.2517  0.7211  0.6647
  355MOL0     H46810   0.052   6.174   0.387  0.5580 -0.4832  0.2391
  355MOL0     H46811  -0.017   6.191   0.089  0.4270  0.9463 -0.8249
  355MOL0     H46812   0.014   6.342   0.186  0.0869  0.4760  1.0312
  355MOL0     H46813  -0.219   6.019   0.168  2.6871 -2.7271  4.2789
  355MOL0     H46814  -0.448   5.977   0.301  1.3430 -2.0409 -3.0733
  355MOL0     H46815  -0.477   6.039   0.141 -1.9181 -1.2877  0.0969
  355MOL0     H46816  -0.682   6.069   0.248  0.0201 -0.1830 -0.7967
  355MOL0     H46817  -0.605   6.228   0.244 -1.4251  0.5207  0.9090
  355MOL0     H46818  -0.614   6.040   0.483 -0.5536  0.3714  0.5224
  355MOL0     H46819  -0.557   6.212   0.492 -1.4758  2.7459 -0.7146
  355MOL0     H46820  -0.787   6.277   0.411  1.1031  0.5775  0.5288
  355MOL0     H46821  -0.782   6.204   0.570  0.6032 -0.6789  0.2314
  355MOL0     H46822  -0.977   5.871   0.340 -3.9147 -2.3095 -0.6898
  355MOL0     H46823  -1.215   5.838   0.358  0.1823 -0.1444  0.5783
  355MOL0     H46824  -1.553   5.726   0.553  0.6963 -0.6712 -1.0797
  355MOL0     H46825  -1.832   5.661   0.540 -0.6021  1.0736  0.4379
  355MOL0     H46826  -2.109   5.619   0.393 -0.4479  0.6100 -0.1740
  355MOL0     H46827  -1.944   5.591   0.328  0.8896  0.3540  1.1877
  355MOL0     H46828  -2.089   5.548   0.159 -1.3432 -0.3110  1.2453
  355MOL0     H46829  -2.035   5.706   0.100 -3.2007  0.0121 -1.8909
  355MOL0     H46830  -2.236   5.811   0.197 -1.4208 -1.2684  2.1306
  355MOL0     H46831  -2.302   5.662   0.251 -2.6147  1.9507 -1.1279
  355MOL0     H46832  -2.254   5.740  -0.034  1.2151 -2.7460 -1.6175
  355MOL0     H46833  -2.271   5.577   0.011  0.6196 -0.8203  0.5038
  355MOL0     H46834  -2.489   5.624   0.132 -0.5319  0.5529 -0.7019
  355MOL0     H46835  -2.512   5.644  -0.036 -2.8126  1.0117  0.1700
  355MOL0     H46836  -2.512   5.869  -0.036  0.8193  1.3182  0.6378
  355MOL0     H46837  -2.446   5.888   0.126  2.1638  0.4056 -2.3182
  355MOL0     H46838  -2.705   5.775   0.035 -1.6524  2.0019 -0.0644
  355MOL0     H46839  -2.639   5.739   0.204  2.5195 -2.6200 -1.9537
  355MOL0     H46840  -2.650   5.990   0.243  1.8758 -0.5973 -1.0221
  355MOL0     H46841  -2.821   5.950   0.198 -0.5426  3.3544  0.0720
  355MOL0     H46842  -1.854   5.969   0.245  1.5470 -0.4660 -0.8789
  355MOL0     H46843  -1.624   6.015   0.256  0.0153 -0.6103  0.3398
  355MOL0     H46844  -1.274   6.230   0.519  1.9333  3.1680 -3.1115
  355MOL0     H46845  -1.026   6.272   0.501 -1.8022  0.2714  0.3235
  355MOL0     H46846   1.170   6.286   0.371  1.6370  1.1421 -2.2043
  355MOL0     H46847   1.344   6.439   0.412  0.1810  2.0197 -2.0218
  355MOL0     H46848   1.687   6.674   0.402  0.8524 -1.3970  2.7539
  355MOL0     H46849   1.869   6.822   0.486  0.5712  2.8971 -0.7896
  355MOL0     H46850   1.784   7.111   0.799  2.1597 -1.0585  0.7576
  355MOL0     H46851   1.784   7.216   0.647  0.6758 -1.4367 -1.9701
  355MOL0     H46852   2.044   7.169   0.689  1.9971 -1.9865  3.5162
  355MOL0     H46853   1.950   7.308   0.776  0.7750 -0.6376  1.0951
  355MOL0     H46854   2.067   7.042   0.863  2.6746  0.4881  2.2011
  355MOL0     H46855   1.937   7.135   0.958  0.8241 -2.5349  0.2036
  355MOL0     H46856   2.096   7.290   1.015 -0.6420 -0.6803 -0.2657
  355MOL0     H46857   2.185   7.135   1.014  0.2366 -1.1476 -0.2078
  355MOL0     H46858   2.396   7.361   0.724  0.6428 -0.4387  0.5538
  355MOL0     H46859   1.588   7.099   0.637 -0.4765  0.0439  0.2524
  355MOL0     H46860   1.398   6.963   0.558  0.4974  0.6951 -0.7164
  356MOL0     O46861   5.312   9.662   0.448 -0.2305 -0.7592  0.2145
  356MOL0     C46862   5.384   9.604   0.528 -0.1825  0.3794  0.2732
  356MOL0     O46863   5.342   9.517   0.618 -0.4357  0.2949 -0.1164
  356MOL0     C46864   5.214   9.468   0.646 -0.3638 -0.7878  0.2349
  356MOL0     C46865   5.100   9.518   0.589 -0.0470  0.0587  0.0437
  356MOL0     C46866   4.974   9.470   0.635 -0.5003 -0.1792  0.2799
  356MOL0     C46867   4.964   9.376   0.740 -0.0524 -0.4631 -0.1256
  356MOL0     O46868   4.844   9.322   0.784 -0.0745  0.4456  0.1162
  356MOL0     C46869   4.723   9.394   0.753  0.7817 -0.2184  0.1061
  356MOL0     C46870   4.606   9.320   0.822  0.0316  1.0804 -0.1418
  356MOL0     C46871   4.464   9.345   0.763 -0.6053  0.3751  0.1428
  356MOL0     C46872   4.455   9.297   0.608  1.0357 -1.2437 -0.6229
  356MOL0     C46873   4.308   9.290   0.553  0.1844 -0.6107  0.3913
  356MOL0     C46874   4.312   9.261   0.403 -0.0864  0.3785  0.4559
  356MOL0     C46875   4.174   9.239   0.340  0.0757  0.3751  0.0046
  356MOL0     C46876   4.059   9.339   0.359  0.4309  0.2084 -0.2256
  356MOL0     N46877   3.929   9.274   0.355  0.4106  0.0441  0.2565
  356MOL0     C46878   3.814   9.340   0.317  0.0336 -0.5922 -0.3848
  356MOL0     C46879   3.723   9.249   0.355  0.4914 -0.8357  0.2819
  356MOL0     C46880   3.577   9.266   0.321 -0.3173  0.6462  0.1163
  356MOL0     C46881   3.555   9.211   0.186 -0.1016  0.0643  0.9114
  356MOL0     C46882   3.422   9.259   0.121  0.9832 -0.1116 -0.5287
  356MOL0     C46883   3.405   9.194  -0.016  0.5538  0.2564 -0.9394
  356MOL0     O46884   3.264   9.210  -0.060 -0.4126  0.3005 -0.2526
  356MOL0     C46885   3.175   9.105  -0.038  0.3795 -0.1592 -0.0721
  356MOL0     C46886   3.037   9.134  -0.075 -0.1909  0.8703 -1.1260
  356MOL0     C46887   2.940   9.053  -0.023 -0.3543  0.0149 -0.0564
  356MOL0     C46888   2.966   8.932   0.036  0.9746  0.1340  0.0907
  356MOL0     C46889   2.860   8.844   0.077 -0.2664 -0.0125 -0.3194
  356MOL0     O46890   2.738   8.900   0.052  0.1552 -0.3663  0.4904
  356MOL0     C46891   2.626   8.834   0.090 -0.1032  1.1370 -0.4226
  356MOL0     C46892   2.551   8.842   0.209 -0.3980  0.1734 -0.0106
  356MOL0     C46893   2.430   8.775   0.224  0.3827 -1.0891  0.2403
  356MOL0     C46894   2.380   8.702   0.123 -0.1099 -0.0852  0.9044
  356MOL0     O46895   2.262   8.638   0.141 -0.0170  0.0385 -0.2684
  356MOL0     C46896   2.184   8.595   0.029  1.1607 -0.2022 -0.1524
  356MOL0     C46897   2.048   8.565   0.082 -0.5841  0.0489  0.5852
  356MOL0     C46898   1.954   8.497  -0.019 -0.4049 -0.5222  0.3872
  356MOL0     C46899   1.807   8.482   0.028 -0.2690 -0.3761  0.7513
  356MOL0     C46900   1.731   8.362  -0.039 -1.0652 -1.3292 -0.1167
  356MOL0     C46901   1.611   8.321   0.045  0.0057  0.1839 -0.2853
  356MOL0     C46902   1.533   8.205  -0.030 -0.1640  0.1899 -0.3559
  356MOL0     C46903   1.388   8.192   0.023  0.7691 -0.1411  0.2387
  356MOL0    Cl46904   1.341   8.023  -0.016 -0.0030  0.3890 -0.0940
  356MOL0     C46905   2.460   8.681   0.010  1.0774  0.4553 -0.0386
  356MOL0     C46906   2.577   8.752  -0.012 -0.4096  1.0073 -0.1456
  356MOL0     O46907   2.876   8.738   0.130 -0.0796 -0.3169  0.3830
  356MOL0     C46908   3.097   8.896   0.057  0.8446  0.4099  0.2296
  356MOL0     C46909   3.200   8.981   0.032  0.6516 -1.1022  0.3912
  356MOL0     N46910   3.783   9.133   0.399 -0.6330 -0.3405 -0.1361
  356MOL0     N46911   3.903   9.149   0.412  0.1795 -1.2357  0.2072
  356MOL0     C46912   5.083   9.332   0.797 -0.6576 -0.4851  0.2853
  356MOL0     C46913   5.207   9.380   0.749  0.0546  0.0015 -0.6227
  356MOL0     C46914   5.529   9.636   0.519  0.0342  0.4866 -0.6115
  356MOL0     C46915   5.573   9.747   0.448  0.2526 -0.3870 -0.5202
  356MOL0     C46916   5.713   9.785   0.446 -0.2793  0.4656  0.2653
  356MOL0     C46917   5.811   9.708   0.512 -0.2442 -0.0821 -0.2409
  356MOL0     O46918   5.948   9.731   0.521  0.1721  0.3742  0.4528
  356MOL0     C46919   5.997   9.868   0.478 -1.0766 -0.3896  0.3907
  356MOL0     C46920   6.142   9.890   0.543  0.3597  0.1348  0.2774
  356MOL0     C46921   6.201  10.030   0.525 -0.4293  0.2630 -0.7890
  356MOL0     C46922   6.323  10.030   0.615  0.5207  0.1048 -0.2934
  356MOL0     C46923   6.399  10.158   0.605 -0.1540 -0.4970 -0.0404
  356MOL0     C46924   6.484  10.249   0.593 -0.2991  0.7830  0.2390
  356MOL0     C46925   5.764   9.597   0.584 -0.4039 -0.5210  0.2110
  356MOL0     C46926   5.623   9.563   0.583  0.2367  0.2866  0.4578
  356MOL0     H46927   5.100   9.589   0.507 -0.8113  0.0979  0.0711
  356MOL0     H46928   4.889   9.516   0.586  1.3767  3.0179 -0.2486
  356MOL0     H46929   4.702   9.407   0.646 -0.3864 -2.3884 -0.0006
  356MOL0     H46930   4.724   9.493   0.799  1.6495 -1.1536  2.2598
  356MOL0     H46931   4.613   9.352   0.926  3.2112  1.8263 -0.4882
  356MOL0     H46932   4.617   9.211   0.816  0.7010  1.2318 -3.2037
  356MOL0     H46933   4.449   9.452   0.783  1.4833  0.1933  3.6471
  356MOL0     H46934   4.399   9.286   0.828 -2.0245  0.4979 -1.1170
  356MOL0     H46935   4.519   9.369   0.557  2.4270 -1.5107  0.6596
  356MOL0     H46936   4.494   9.196   0.593  3.5761 -0.3763 -0.3090
  356MOL0     H46937   4.262   9.385   0.580  2.4147  0.5896  0.2696
  356MOL0     H46938   4.248   9.215   0.604 -1.0335  0.2310  0.2263
  356MOL0     H46939   4.373   9.171   0.390  0.0377  0.1829  2.1970
  356MOL0     H46940   4.359   9.352   0.365  3.0898 -0.6365  1.5840
  356MOL0     H46941   4.193   9.230   0.233  1.7108 -0.0027  0.2909
  356MOL0     H46942   4.139   9.141   0.373 -1.2926  1.7906  3.1600
  356MOL0     H46943   4.058   9.416   0.282 -2.3069 -1.6324 -2.2219
  356MOL0     H46944   4.064   9.392   0.455  4.0047  2.3835 -1.4195
  356MOL0     H46945   3.826   9.435   0.268  1.8069  0.4710  1.9105
  356MOL0     H46946   3.539   9.369   0.326  1.7014  1.7420 -3.3943
  356MOL0     H46947   3.520   9.201   0.388 -0.0187  2.0039  1.7669
  356MOL0     H46948   3.544   9.103   0.190 -1.5193  0.1987  1.4174
  356MOL0     H46949   3.631   9.246   0.116 -1.1718 -1.6755 -1.2540
  356MOL0     H46950   3.333   9.239   0.183  3.4873 -1.7026  2.8768
  356MOL0     H46951   3.430   9.368   0.112 -0.2453  0.0335 -0.1962
  356MOL0     H46952   3.417   9.086  -0.001 -0.6391  0.0892 -1.0386
  356MOL0     H46953   3.484   9.230  -0.081  0.9223 -0.7437 -1.0661
  356MOL0     H46954   3.002   9.231  -0.109 -0.4521  1.3526  0.4125
  356MOL0     H46955   2.837   9.085  -0.024 -0.5298 -0.5169  0.4534
  356MOL0     H46956   2.583   8.894   0.299  0.0907 -1.8978  1.0815
  356MOL0     H46957   2.375   8.778   0.317 -0.4797 -0.3790 -0.2835
  356MOL0     H46958   2.233   8.508  -0.015 -1.4098 -0.7020 -2.2867
  356MOL0     H46959   2.180   8.671  -0.051 -0.2744  0.6376  0.6820
  356MOL0     H46960   2.011   8.659   0.123 -1.8700 -0.5710  0.9276
  356MOL0     H46961   2.062   8.488   0.159  0.0227 -1.8543 -1.3365
  356MOL0     H46962   2.006   8.405  -0.047  1.7164  0.0811  2.0906
  356MOL0     H46963   1.940   8.556  -0.110 -1.6615 -3.4186 -1.4397
  356MOL0     H46964   1.812   8.462   0.135  1.5056 -3.3209  0.2380
  356MOL0     H46965   1.747   8.572   0.016  1.0641  0.1974 -2.9562
  356MOL0     H46966   1.803   8.280  -0.043 -0.7824 -1.1015  0.2122
  356MOL0     H46967   1.708   8.387  -0.143 -0.0949  0.5971  0.0895
  356MOL0     H46968   1.556   8.413   0.071  0.2779  0.3489 -0.2851
  356MOL0     H46969   1.645   8.276   0.139 -0.3173 -0.6495 -0.5647
  356MOL0     H46970   1.526   8.222  -0.138 -1.0526 -1.7176 -0.6403
  356MOL0     H46971   1.572   8.104  -0.014 -0.2913  0.2110  0.1133
  356MOL0     H46972   1.339   8.268  -0.039  0.1375  1.4940  2.6012
  356MOL0     H46973   1.386   8.215   0.130  3.7604  0.8407  0.1938
  356MOL0     H46974   2.420   8.632  -0.078 -0.7289 -0.4379  1.2116
  356MOL0     H46975   2.621   8.757  -0.111 -2.9084  2.5605 -1.2775
  356MOL0     H46976   3.132   8.803   0.100 -0.2075 -0.2273 -0.2355
  356MOL0     H46977   3.296   8.944   0.067  1.4766  2.2155  2.1025
  356MOL0     H46978   5.073   9.260   0.877  3.4885 -3.7492 -1.7417
  356MOL0     H46979   5.292   9.347   0.807 -0.3185 -1.8760 -1.0786
  356MOL0     H46980   5.509   9.820   0.400  1.9833  0.7681 -1.1570
  356MOL0     H46981   5.741   9.873   0.388  1.3583 -1.2764 -1.7664
  356MOL0     H46982   5.924   9.941   0.516 -0.5309 -0.4792  1.6444
  356MOL0     H46983   6.008   9.887   0.371 -1.3437  3.8765  0.9469
  356MOL0     H46984   6.140   9.867   0.650 -0.7585  2.4703  0.8233
  356MOL0     H46985   6.204   9.813   0.498  0.2731 -0.9148  1.8450
  356MOL0     H46986   6.125  10.103   0.555 -0.2425  0.7892 -1.5703
  356MOL0     H46987   6.218  10.053   0.420 -4.3730 -2.0661 -2.1671
  356MOL0     H46988   6.291  10.014   0.719 -1.1925 -0.2789 -0.8495
  356MOL0     H46989   6.386   9.945   0.585  0.5675 -1.0972  2.7827
  356MOL0     H46990   6.562  10.323   0.592  0.7273 -0.2382  0.9927
  356MOL0     H46991   5.830   9.529   0.637  0.9481  0.2187 -0.4602
  356MOL0     H46992   5.598   9.484   0.654 -0.8822  0.2469  0.0376
  357MOL0     O46993   8.434   6.135  10.346 -0.6280 -0.9726 -0.3989
  357MOL0     C46994   8.507   6.067  10.416 -1.3464  0.1498 -0.3029
  357MOL0     O46995   8.480   6.003  10.543  0.3137 -0.1274  1.0529
  357MOL0     C46996   8.355   6.007  10.598 -0.8798  0.0228 -0.1824
  357MOL0     C46997   8.316   5.890  10.668 -0.1454 -0.2536  0.1662
  357MOL0     C46998   8.191   5.889  10.730 -0.1842 -0.9318 -1.0290
  357MOL0     C46999   8.101   5.996  10.722  0.2143 -0.1262 -0.4295
  357MOL0     O47000   7.974   6.018  10.776 -0.3597 -0.0470  0.1164
  357MOL0     C47001   7.920   5.921  10.873  0.4797  0.5046 -0.3798
  357MOL0     C47002   7.769   5.943  10.915  0.1030  0.7041  1.3680
  357MOL0     C47003   7.750   6.024  11.038 -0.2470 -0.1760 -0.5152
  357MOL0     C47004   7.605   6.055  11.072  0.3376  0.1707  0.3908
  357MOL0     C47005   7.556   6.102  11.214 -0.2173 -0.3517 -0.3327
  357MOL0     C47006   7.399   6.111  11.222 -0.0094 -0.0833  0.0003
  357MOL0     C47007   7.369   6.129  11.367  0.8534  0.4754 -1.0912
  357MOL0     C47008   7.244   6.216  11.397 -0.4664  0.5299 -0.5136
  357MOL0     N47009   7.123   6.151  11.361 -0.4988 -0.8394 -0.8136
  357MOL0     C47010   7.061   6.052  11.431 -0.2057  0.5583 -0.1165
  357MOL0     C47011   6.963   6.006  11.352 -0.3898  0.7067 -0.1490
  357MOL0     C47012   6.891   5.878  11.353  1.3627 -0.1773  0.0918
  357MOL0     C47013   6.739   5.871  11.372 -0.0021  0.4079 -0.3087
  357MOL0     C47014   6.692   5.944  11.503 -0.7371  0.6716 -0.0814
  357MOL0     C47015   6.540   5.936  11.515  0.2696 -0.1482  0.3221
  357MOL0     O47016   6.490   5.802  11.528 -0.4889  0.4865 -0.4401
  357MOL0     C47017   6.353   5.775  11.517  0.5056 -0.9474  0.4553
  357MOL0     C47018   6.312   5.648  11.540  0.7714 -0.6696 -0.4902
  357MOL0     C47019   6.177   5.612  11.512 -0.5701  0.5898  0.1940
  357MOL0     C47020   6.072   5.702  11.466  0.2457 -0.2214 -0.3115
  357MOL0     C47021   5.937   5.644  11.460 -0.5088 -0.5700  0.4019
  357MOL0     O47022   5.905   5.536  11.537  0.5106 -0.2549 -0.7173
  357MOL0     C47023   5.778   5.487  11.521  0.5106  0.5271  0.8699
  357MOL0     C47024   5.659   5.538  11.576  0.0330 -0.1684 -0.7819
  357MOL0     C47025   5.532   5.478  11.555  0.7418 -0.0152 -0.0860
  357MOL0     C47026   5.513   5.361  11.478 -0.3085  0.4112 -0.3745
  357MOL0     O47027   5.391   5.300  11.486  0.5237  0.0981 -0.2617
  357MOL0     C47028   5.375   5.177  11.554 -0.3901 -0.5023  0.2620
  357MOL0     C47029   5.276   5.205  11.659  0.8447 -0.3828  0.1254
  357MOL0     C47030   5.218   5.075  11.720  0.3170  0.2618 -0.3381
  357MOL0     C47031   5.121   5.097  11.838 -0.5938 -0.4032  0.6101
  357MOL0     C47032   5.100   4.957  11.904  0.8120  0.0245  0.0165
  357MOL0     C47033   4.992   4.971  12.013 -0.3480  0.2198 -0.6205
  357MOL0     C47034   4.851   4.970  11.952 -0.1733 -0.5191  0.0338
  357MOL0     C47035   4.740   4.963  12.049 -0.0864 -0.2283 -0.0607
  357MOL0    Cl47036   4.734   4.804  12.139  0.0375  0.4494 -0.3826
  357MOL0     C47037   5.630   5.304  11.432  0.1112  0.1320 -0.1195
  357MOL0     C47038   5.761   5.364  11.446 -0.2839 -0.0251  0.2052
  357MOL0     O47039   5.863   5.694  11.374 -0.5761 -0.0370  0.8049
  357MOL0     C47040   6.114   5.841  11.446 -0.3602 -0.0034 -0.4225
  357MOL0     C47041   6.253   5.867  11.476  0.1726  0.1759  0.5885
  357MOL0     N47042   6.967   6.086  11.241  0.7012 -0.2040  0.1447
  357MOL0     N47043   7.061   6.177  11.247 -0.1105 -0.8337  0.1392
  357MOL0     C47044   8.144   6.104  10.640  0.0549  0.2318  0.4477
  357MOL0     C47045   8.265   6.113  10.586  0.5787  0.5144  0.2057
  357MOL0     C47046   8.648   6.060  10.379 -0.5181  0.4919 -0.5446
  357MOL0     C47047   8.697   6.128  10.270 -0.0206 -0.1529  0.7976
  357MOL0     C47048   8.835   6.118  10.234 -0.2711 -0.2526 -0.3837
  357MOL0     C47049   8.924   6.056  10.321  0.2085 -0.8477 -0.1900
  357MOL0     O47050   9.055   6.050  10.293  1.0064  0.1048  0.1311
  357MOL0     C47051   9.094   5.924  10.228  0.0812  0.1596 -0.3101
  357MOL0     C47052   9.241   5.886  10.253  0.9929 -0.2378 -0.0402
  357MOL0     C47053   9.342   5.994  10.194 -0.3545 -0.3334 -0.2310
  357MOL0     C47054   9.481   5.929  10.180  0.5960  0.2954  0.3104
  357MOL0     C47055   9.564   5.991  10.074  0.4269  0.4356  0.1184
  357MOL0     C47056   9.621   6.028   9.969  0.4724  0.9787 -0.4469
  357MOL0     C47057   8.874   6.013  10.446  0.7109 -0.4733 -0.3880
  357MOL0     C47058   8.737   6.004  10.468  0.4824 -0.1803 -0.6462
  357MOL0     H47059   8.385   5.805  10.665  0.1958  0.0376 -2.2767
  357MOL0     H47060   8.169   5.811  10.802 -0.8418  2.2597  2.5428
  357MOL0     H47061   7.985   5.914  10.961  1.9235 -4.2671 -1.5343
  357MOL0     H47062   7.925   5.817  10.838 -2.1998  0.4223 -0.7451
  357MOL0     H47063   7.718   5.851  10.944 -3.6722  1.4828 -1.8577
  357MOL0     H47064   7.725   5.993  10.828  0.2822 -1.3652  0.0139
  357MOL0     H47065   7.792   6.124  11.020  0.1900 -0.0479  1.0263
  357MOL0     H47066   7.775   5.968  11.128 -0.9148 -1.2942 -1.0095
  357MOL0     H47067   7.571   6.134  11.004  3.9789 -0.5883 -2.6737
  357MOL0     H47068   7.555   5.962  11.040  0.5338 -0.5192  2.0153
  357MOL0     H47069   7.605   6.192  11.250  1.7784 -0.6892 -1.9824
  357MOL0     H47070   7.590   6.017  11.275  2.6539 -0.3784 -1.7739
  357MOL0     H47071   7.344   6.028  11.178 -2.4605  0.0921  2.4559
  357MOL0     H47072   7.376   6.205  11.170 -0.2580  1.0376  2.0020
  357MOL0     H47073   7.349   6.035  11.419 -3.5855  2.9438  2.4670
  357MOL0     H47074   7.446   6.186  11.420  0.2858 -0.0898  0.4055
  357MOL0     H47075   7.256   6.312  11.346  2.1584 -0.7598 -2.5778
  357MOL0     H47076   7.233   6.218  11.506  3.3391  1.0489  0.0347
  357MOL0     H47077   7.097   6.017  11.527 -1.4831 -2.7601 -0.7118
  357MOL0     H47078   6.934   5.817  11.433 -0.4513 -1.6065  0.0264
  357MOL0     H47079   6.909   5.827  11.258 -1.0294 -0.2149 -0.4001
  357MOL0     H47080   6.722   5.764  11.382 -1.2203  0.4811 -1.3828
  357MOL0     H47081   6.697   5.905  11.277  1.0787 -1.1675 -1.3997
  357MOL0     H47082   6.749   5.894  11.582  0.0832 -0.3466 -1.2792
  357MOL0     H47083   6.721   6.049  11.492  0.1190  0.3983 -0.4984
  357MOL0     H47084   6.499   5.974  11.421 -4.2811  0.3315  2.2314
  357MOL0     H47085   6.500   6.000  11.595 -1.9304  0.5127 -1.2183
  357MOL0     H47086   6.376   5.566  11.569 -3.5167 -4.2642  0.0117
  357MOL0     H47087   6.146   5.509  11.524  1.5729  0.0171  1.2733
  357MOL0     H47088   5.665   5.623  11.642  0.0176 -0.3749 -0.5129
  357MOL0     H47089   5.456   5.525  11.617 -1.0680  0.3995 -2.4852
  357MOL0     H47090   5.462   5.131  11.602 -0.5482  0.0880  1.1461
  357MOL0     H47091   5.331   5.104  11.486  1.0052 -2.6595  1.5457
  357MOL0     H47092   5.189   5.267  11.638  0.0724 -0.6286  2.2553
  357MOL0     H47093   5.316   5.267  11.740  0.2968 -0.6632  0.6263
  357MOL0     H47094   5.305   5.020  11.758  1.6370 -0.0643 -3.5217
  357MOL0     H47095   5.169   5.002  11.654  1.7797  0.4769 -1.7173
  357MOL0     H47096   5.170   5.167  11.906  0.3820  1.7153 -2.1079
  357MOL0     H47097   5.034   5.148  11.797  0.2994  1.2545  0.6978
  357MOL0     H47098   5.193   4.914  11.942  1.2534  1.7243  1.0118
  357MOL0     H47099   5.065   4.892  11.823 -3.2296  1.5728  0.2738
  357MOL0     H47100   5.001   5.062  12.073  1.4879  0.6952 -1.5441
  357MOL0     H47101   4.994   4.887  12.084  0.1703  0.6951 -0.0567
  357MOL0     H47102   4.844   5.065  11.898 -0.4053 -1.0451 -0.8811
  357MOL0     H47103   4.844   4.892  11.876  0.9772  0.3440 -1.0091
  357MOL0     H47104   4.651   4.990  11.992  0.7284 -0.0141 -1.2849
  357MOL0     H47105   4.747   5.044  12.121 -1.8287  0.8541 -1.0361
  357MOL0     H47106   5.635   5.214  11.371 -0.5164 -0.2530  0.3804
  357MOL0     H47107   5.846   5.316  11.398 -0.2168 -1.0788  1.3005
  357MOL0     H47108   6.055   5.921  11.402  0.3347  0.5138 -0.4436
  357MOL0     H47109   6.279   5.971  11.460 -0.2348  0.6395  2.6513
  357MOL0     H47110   8.061   6.174  10.634  0.1026  0.3192  0.7703
  357MOL0     H47111   8.292   6.197  10.522  0.7005 -0.5499 -1.2067
  357MOL0     H47112   8.636   6.194  10.209 -1.1227  1.3621  3.4017
  357MOL0     H47113   8.873   6.153  10.139 -0.1106 -0.9315 -0.5693
  357MOL0     H47114   9.066   5.938  10.124 -1.5496 -1.1870 -0.0967
  357MOL0     H47115   9.028   5.841  10.256  2.2767 -1.2406  1.1350
  357MOL0     H47116   9.248   5.872  10.361  0.8105 -2.4198 -0.2726
  357MOL0     H47117   9.256   5.791  10.201  1.1834 -1.2061  1.7272
  357MOL0     H47118   9.355   6.086  10.250 -0.3551  0.0269 -0.8111
  357MOL0     H47119   9.302   6.021  10.095  3.8821  3.1620 -1.2564
  357MOL0     H47120   9.533   5.966  10.269 -0.3830 -0.6192  1.2937
  357MOL0     H47121   9.474   5.820  10.171 -2.0795  0.4337 -0.2016
  357MOL0     H47122   9.667   6.063   9.879  0.5835  2.6725  0.2309
  357MOL0     H47123   8.934   5.962  10.520  1.6518  0.3653 -0.5497
  357MOL0     H47124   8.704   5.949  10.555 -0.5681  2.3808  0.6874
  358MOL0     O47125   7.240   4.148   2.532  0.4030  0.2933  0.0957
  358MOL0     C47126   7.297   4.203   2.438 -0.2879  0.0888 -0.5039
  358MOL0     O47127   7.260   4.197   2.300 -0.6331  0.0659 -0.0675
  358MOL0     C47128   7.124   4.167   2.277  0.3343  0.1266 -0.1667
  358MOL0     C47129   7.087   4.072   2.184 -0.0604  0.4495 -0.3563
  358MOL0     C47130   6.950   4.046   2.153 -0.4933  0.2583 -0.0711
  358MOL0     C47131   6.854   4.102   2.233  0.6919  0.2116 -0.7266
  358MOL0     O47132   6.729   4.057   2.201 -0.3098 -0.1554 -0.2413
  358MOL0     C47133   6.647   4.016   2.318  0.1915 -0.1992 -0.1481
  358MOL0     C47134   6.524   3.944   2.257  0.2264 -0.1482  1.0488
  358MOL0     C47135   6.411   3.927   2.358 -0.5932  0.8101 -0.0471
  358MOL0     C47136   6.316   3.831   2.289 -0.7193 -0.1609 -0.0872
  358MOL0     C47137   6.190   3.811   2.360  0.5761  0.3801  0.2687
  358MOL0     C47138   6.111   3.940   2.379  0.0726 -0.1552 -1.0687
  358MOL0     C47139   5.961   3.914   2.422 -0.6372  0.1186  0.2063
  358MOL0     C47140   5.898   4.039   2.497  1.3186  0.2434  0.1623
  358MOL0     N47141   5.794   3.990   2.588  1.4671 -0.5030  0.4101
  358MOL0     C47142   5.662   3.950   2.560 -0.7853  0.0941 -0.0088
  358MOL0     C47143   5.607   3.918   2.676  0.1967 -0.4551  0.8115
  358MOL0     C47144   5.475   3.846   2.695  1.0725 -0.2544 -0.2076
  358MOL0     C47145   5.482   3.692   2.701 -0.2280 -0.5209 -0.1986
  358MOL0     C47146   5.346   3.637   2.735  0.4637  0.2639  0.6404
  358MOL0     C47147   5.274   3.618   2.601 -0.6231 -0.5891  0.0113
  358MOL0     O47148   5.143   3.583   2.623 -0.2756 -0.3069 -0.3761
  358MOL0     C47149   5.062   3.570   2.524 -0.6024 -0.0119  0.2902
  358MOL0     C47150   5.087   3.556   2.385 -0.1176 -0.0700 -1.0756
  358MOL0     C47151   4.990   3.541   2.291 -0.7121 -0.0528 -0.1030
  358MOL0     C47152   4.851   3.548   2.327 -0.3591 -0.5621 -0.1668
  358MOL0     C47153   4.743   3.553   2.235 -0.1075 -0.8639  0.3365
  358MOL0     O47154   4.614   3.537   2.285  0.1866  0.4954 -0.4156
  358MOL0     C47155   4.510   3.497   2.197 -0.5927 -0.1925 -1.3239
  358MOL0     C47156   4.534   3.409   2.087 -0.3469 -0.7096  0.2652
  358MOL0     C47157   4.434   3.380   2.005  0.3528 -0.3942  0.0626
  358MOL0     C47158   4.295   3.416   2.033 -0.3719 -1.0428 -0.4847
  358MOL0     O47159   4.185   3.376   1.957  0.0900  0.4266  0.6219
  358MOL0     C47160   4.181   3.396   1.811 -1.0411  0.7461 -0.2195
  358MOL0     C47161   4.085   3.297   1.736 -0.5899  0.0614 -0.0387
  358MOL0     C47162   3.931   3.308   1.790 -1.0798 -0.4403  0.7929
  358MOL0     C47163   3.846   3.222   1.700  0.1683 -0.5933 -0.2191
  358MOL0     C47164   3.694   3.229   1.728  0.1461 -0.5779  0.3508
  358MOL0     C47165   3.604   3.177   1.614  0.0944  0.5364 -0.3489
  358MOL0     C47166   3.632   3.035   1.589 -0.2064  0.1306  0.0218
  358MOL0     C47167   3.518   2.968   1.506  0.0175 -0.1899  0.1500
  358MOL0    Cl47168   3.401   2.909   1.629  0.4484 -0.2704 -0.0944
  358MOL0     C47169   4.262   3.494   2.143  0.0783  0.2994 -0.5711
  358MOL0     C47170   4.375   3.531   2.222 -0.2255 -1.2262 -0.1209
  358MOL0     O47171   4.769   3.585   2.118 -0.6088  0.3689  0.8367
  358MOL0     C47172   4.829   3.560   2.467  0.2344  0.2259 -0.1266
  358MOL0     C47173   4.932   3.576   2.560  0.5590  0.6377 -0.5702
  358MOL0     N47174   5.699   3.951   2.772  0.5224  1.1375 -0.1159
  358MOL0     N47175   5.813   3.975   2.720  0.3816 -0.0321  0.5284
  358MOL0     C47176   6.888   4.203   2.329  0.5102  0.6573  0.4031
  358MOL0     C47177   7.021   4.229   2.351 -0.1011  0.2796 -0.6861
  358MOL0     C47178   7.409   4.281   2.480  0.0959  0.5151 -0.1664
  358MOL0     C47179   7.501   4.232   2.581  0.4171 -0.8330  0.6569
  358MOL0     C47180   7.612   4.302   2.625  0.5084  0.0232 -0.0419
  358MOL0     C47181   7.638   4.427   2.578 -0.0714 -0.3562  0.7163
  358MOL0     O47182   7.748   4.510   2.609 -0.0492 -1.2149 -0.4804
  358MOL0     C47183   7.853   4.469   2.696 -0.6988  0.3449 -1.2637
  358MOL0     C47184   7.982   4.552   2.675 -0.0286 -0.8261 -0.2670
  358MOL0     C47185   7.993   4.589   2.528 -0.4416  0.4011 -0.3435
  358MOL0     C47186   8.137   4.602   2.494 -0.0504 -0.6778  0.1989
  358MOL0     C47187   8.172   4.612   2.355  0.2770 -0.4650  0.1512
  358MOL0     C47188   8.184   4.618   2.235  0.0084 -0.6373 -1.0159
  358MOL0     C47189   7.546   4.482   2.482  0.3483  0.9920  0.3582
  358MOL0     C47190   7.432   4.407   2.429 -0.3173  0.4580 -0.2972
  358MOL0     H47191   7.173   4.025   2.137 -0.7714 -4.0994  2.3308
  358MOL0     H47192   6.914   3.971   2.084 -0.2919  1.6604 -1.7627
  358MOL0     H47193   6.619   4.103   2.378 -1.9494 -0.8174 -0.1888
  358MOL0     H47194   6.683   3.947   2.395 -0.2444 -0.5545 -0.2582
  358MOL0     H47195   6.558   3.846   2.223 -0.7077 -0.3778  0.7573
  358MOL0     H47196   6.496   4.007   2.173  0.3691 -2.9132 -1.2074
  358MOL0     H47197   6.363   4.025   2.370 -0.8717  0.6830 -0.1276
  358MOL0     H47198   6.450   3.897   2.455 -1.0432 -1.6828 -0.5892
  358MOL0     H47199   6.308   3.865   2.186 -0.2532 -0.9747 -0.3959
  358MOL0     H47200   6.359   3.731   2.284  0.0444  0.2234 -1.8199
  358MOL0     H47201   6.211   3.773   2.461 -2.6281 -0.4543  0.7332
  358MOL0     H47202   6.131   3.738   2.304 -1.0574  1.9114 -0.0885
  358MOL0     H47203   6.119   4.003   2.290  0.0231  4.2525  1.7285
  358MOL0     H47204   6.161   3.998   2.457  0.6070  1.3904 -2.4956
  358MOL0     H47205   5.898   3.884   2.338 -2.1382  1.5784  0.7570
  358MOL0     H47206   5.964   3.827   2.489  2.8873 -0.3206 -0.3481
  358MOL0     H47207   5.861   4.118   2.431  1.3486 -1.5245 -2.1145
  358MOL0     H47208   5.969   4.091   2.562 -1.7442  2.0175  2.3393
  358MOL0     H47209   5.616   3.940   2.462  2.3243 -2.2830 -1.3560
  358MOL0     H47210   5.408   3.878   2.615  1.7432 -1.2468 -1.1876
  358MOL0     H47211   5.434   3.881   2.790 -0.0296 -1.7611 -0.1008
  358MOL0     H47212   5.556   3.659   2.775  2.1860  2.5421 -1.0314
  358MOL0     H47213   5.525   3.653   2.609  2.3047 -0.7403  1.0006
  358MOL0     H47214   5.367   3.543   2.786 -1.3521 -0.3796  0.2545
  358MOL0     H47215   5.288   3.698   2.805  0.8502  0.4756  0.7790
  358MOL0     H47216   5.322   3.542   2.539  0.8968  1.1546 -1.0536
  358MOL0     H47217   5.265   3.706   2.538 -4.3286 -2.5452 -2.5567
  358MOL0     H47218   5.189   3.541   2.352 -0.1092 -1.2725 -0.5847
  358MOL0     H47219   5.020   3.541   2.187  1.1198 -0.3978  0.3923
  358MOL0     H47220   4.631   3.370   2.055 -0.5456 -2.0090  1.1711
  358MOL0     H47221   4.447   3.325   1.912 -0.1358 -0.4928  0.0496
  358MOL0     H47222   4.282   3.381   1.771 -0.8939  4.6264 -1.7716
  358MOL0     H47223   4.165   3.498   1.775  1.2339  0.2333 -3.0806
  358MOL0     H47224   4.131   3.200   1.758  2.3670  1.3980  0.1135
  358MOL0     H47225   4.089   3.321   1.630  1.7005 -2.4201 -0.6192
  358MOL0     H47226   3.897   3.411   1.773 -1.0562 -0.1905  2.1498
  358MOL0     H47227   3.901   3.281   1.892  0.8158  0.2985  1.5927
  358MOL0     H47228   3.869   3.243   1.595  1.5995 -1.5749 -0.1373
  358MOL0     H47229   3.879   3.121   1.729  0.9291  0.5783  3.5926
  358MOL0     H47230   3.666   3.335   1.733  1.0911 -0.0734 -2.7464
  358MOL0     H47231   3.672   3.177   1.821  0.4819  1.4073  1.6036
  358MOL0     H47232   3.628   3.239   1.528 -0.5812  0.1433 -0.8287
  358MOL0     H47233   3.499   3.194   1.638 -0.3076  0.2303 -1.8008
  358MOL0     H47234   3.734   3.025   1.551  0.7106  0.6619  2.2171
  358MOL0     H47235   3.640   2.983   1.685  0.2992 -0.9915 -0.6046
  358MOL0     H47236   3.549   2.879   1.452 -0.2018  0.6382 -1.3967
  358MOL0     H47237   3.472   3.038   1.436  2.6636  0.1695 -1.3702
  358MOL0     H47238   4.164   3.539   2.153 -0.2725 -0.6265  0.3765
  358MOL0     H47239   4.369   3.602   2.303  1.4248 -0.6339 -0.4745
  358MOL0     H47240   4.734   3.550   2.520 -0.1268  1.8572 -0.4008
  358MOL0     H47241   4.915   3.572   2.667  3.1649 -1.7493 -0.1452
  358MOL0     H47242   6.813   4.261   2.381  1.0791  1.8344 -0.0597
  358MOL0     H47243   7.042   4.309   2.421 -0.2987 -0.1402 -0.1308
  358MOL0     H47244   7.486   4.126   2.598 -1.7079 -0.9903 -1.5115
  358MOL0     H47245   7.686   4.250   2.686  0.1540 -2.8789 -1.9197
  358MOL0     H47246   7.877   4.368   2.662  0.7495  1.0086 -2.3641
  358MOL0     H47247   7.814   4.472   2.798 -2.0296  2.4675 -1.7715
  358MOL0     H47248   7.979   4.644   2.733 -0.3297 -0.9564 -0.0769
  358MOL0     H47249   8.071   4.495   2.705  0.9912 -1.1108 -3.4064
  358MOL0     H47250   7.922   4.669   2.504 -1.4914  0.5092  2.6448
  358MOL0     H47251   7.960   4.505   2.467 -2.1755  2.3387 -2.2611
  358MOL0     H47252   8.162   4.699   2.538 -0.3264  0.0050 -1.0928
  358MOL0     H47253   8.211   4.531   2.532  0.7289 -1.3970 -2.4650
  358MOL0     H47254   8.191   4.628   2.128  0.5254 -1.6441 -1.0894
  358MOL0     H47255   7.561   4.585   2.452  0.6684  1.1001  0.8638
  358MOL0     H47256   7.360   4.447   2.358  1.7959  0.7872 -2.3863
  359MOL0     O47257  10.385   6.245   8.314 -0.5748  0.8387  0.5831
  359MOL0     C47258  10.464   6.257   8.411 -0.1893  1.0504 -0.2321
  359MOL0     O47259  10.433   6.249   8.545 -0.2671 -0.3349 -0.2935
  359MOL0     C47260  10.299   6.243   8.589  0.5695 -1.7184 -0.6085
  359MOL0     C47261  10.186   6.193   8.519  0.6920  0.5782 -0.2414
  359MOL0     C47262  10.054   6.189   8.578 -0.3565  0.4033 -1.3921
  359MOL0     C47263  10.042   6.230   8.711 -0.3187  0.5735  0.0056
  359MOL0     O47264   9.922   6.225   8.787  1.0795 -0.0818  0.3855
  359MOL0     C47265   9.807   6.180   8.724  1.0743  0.2040  0.5014
  359MOL0     C47266   9.688   6.200   8.813 -0.0641  0.5136 -0.4720
  359MOL0     C47267   9.693   6.126   8.945  0.6878 -0.1260 -0.2551
  359MOL0     C47268   9.572   6.157   9.037  1.0068  0.6934 -0.5445
  359MOL0     C47269   9.586   6.083   9.172  0.5728  0.3156  0.4028
  359MOL0     C47270   9.477   6.118   9.278  0.4142  0.2842 -0.1681
  359MOL0     C47271   9.337   6.074   9.218 -0.4588  0.3208 -0.3165
  359MOL0     C47272   9.242   6.065   9.336  0.2545  0.3357 -0.2277
  359MOL0     N47273   9.108   6.032   9.277 -0.0314 -0.0064 -0.0444
  359MOL0     C47274   9.018   6.133   9.239  0.8691 -0.0099 -0.4005
  359MOL0     C47275   8.904   6.069   9.201  0.8595 -0.4006 -0.1336
  359MOL0     C47276   8.771   6.148   9.186  0.3009 -0.0441  1.2290
  359MOL0     C47277   8.658   6.095   9.266  0.4511 -0.1223  0.4078
  359MOL0     C47278   8.698   6.091   9.416 -0.3275 -0.1615  0.7216
  359MOL0     C47279   8.583   6.027   9.492  0.1095  0.6724 -0.2624
  359MOL0     O47280   8.475   6.122   9.518  0.2408 -0.1377  0.2188
  359MOL0     C47281   8.367   6.082   9.596 -0.4634 -1.7925 -0.0480
  359MOL0     C47282   8.251   6.155   9.586  0.5140 -0.9702  0.2060
  359MOL0     C47283   8.133   6.130   9.656 -0.0641 -0.0434 -0.3418
  359MOL0     C47284   8.124   6.009   9.730  0.1339 -0.2549  0.2283
  359MOL0     C47285   8.002   5.983   9.798 -0.2124  0.2214  0.4290
  359MOL0     O47286   7.898   6.066   9.772  0.0375  0.1980 -0.4544
  359MOL0     C47287   7.781   6.067   9.841  0.0800 -0.5209  0.7776
  359MOL0     C47288   7.691   5.954   9.824 -0.9579  0.0775  0.2340
  359MOL0     C47289   7.578   5.955   9.900  0.4377  0.5785 -0.0210
  359MOL0     C47290   7.553   6.052  10.002 -0.4778  0.8743 -0.1596
  359MOL0     O47291   7.448   6.054  10.098  0.0412 -0.1870  0.1877
  359MOL0     C47292   7.359   5.941  10.103  0.8399 -0.6472 -0.2545
  359MOL0     C47293   7.277   5.959  10.235 -0.3682 -0.2324  0.0594
  359MOL0     C47294   7.188   5.834  10.266 -0.0544  0.2948  0.1512
  359MOL0     C47295   7.122   5.863  10.399 -1.1004 -0.4303 -0.1914
  359MOL0     C47296   7.030   5.752  10.438 -0.0744  0.6763  0.6307
  359MOL0     C47297   6.910   5.735  10.350  0.1421 -0.7922 -0.9010
  359MOL0     C47298   6.815   5.627  10.412 -0.8725  0.2283  0.0735
  359MOL0     C47299   6.691   5.633  10.320  0.2662 -1.0240  0.5624
  359MOL0    Cl47300   6.587   5.497  10.384 -0.1487  0.0891  0.5152
  359MOL0     C47301   7.642   6.161  10.023  0.0760 -0.4507  0.8027
  359MOL0     C47302   7.751   6.172   9.928  0.0386  0.2224  0.3735
  359MOL0     O47303   8.001   5.883   9.870  0.7703  0.5587  0.3325
  359MOL0     C47304   8.237   5.933   9.732 -0.5242 -0.3131 -0.3200
  359MOL0     C47305   8.363   5.977   9.685  0.0028 -0.4844  0.5938
  359MOL0     N47306   8.937   5.929   9.197  0.2801  0.3850 -0.3823
  359MOL0     N47307   9.063   5.910   9.244  0.3573  0.7229  0.2101
  359MOL0     C47308  10.156   6.276   8.786  0.0736  0.7158 -0.3867
  359MOL0     C47309  10.277   6.283   8.723 -0.2147  0.6842  0.5613
  359MOL0     C47310  10.608   6.277   8.385 -0.8206  0.1330 -0.2231
  359MOL0     C47311  10.669   6.275   8.249  0.3759 -0.2392  0.4462
  359MOL0     C47312  10.799   6.314   8.219  0.3419 -0.5129 -0.2180
  359MOL0     C47313  10.874   6.366   8.322 -0.1574 -0.4606 -0.4424
  359MOL0     O47314  10.989   6.441   8.324 -0.1279  0.1463  0.2682
  359MOL0     C47315  11.038   6.477   8.192  0.1906  0.3729 -0.2020
  359MOL0     C47316  11.154   6.563   8.202  0.6949 -0.4463  0.3805
  359MOL0     C47317  11.284   6.477   8.193  0.0079  0.2761 -0.1988
  359MOL0     C47318  11.410   6.559   8.238  0.5427  0.1450 -0.1168
  359MOL0     C47319  11.540   6.483   8.220 -1.0171 -0.1867 -0.8675
  359MOL0     C47320  11.644   6.423   8.191  0.0260  0.3125  0.4534
  359MOL0     C47321  10.824   6.377   8.453  0.3642  0.2665  0.1113
  359MOL0     C47322  10.697   6.327   8.484 -0.2426  0.1345 -0.3283
  359MOL0     H47323  10.196   6.149   8.420  0.4500  0.9765 -0.4447
  359MOL0     H47324   9.969   6.149   8.523 -0.1123 -0.2527 -1.2964
  359MOL0     H47325   9.816   6.073   8.704 -1.0918 -0.0629  0.6417
  359MOL0     H47326   9.785   6.229   8.629 -3.0561  2.0476  2.1545
  359MOL0     H47327   9.599   6.159   8.763 -0.2399  2.4812 -1.8809
  359MOL0     H47328   9.678   6.307   8.832  1.4280  0.9638 -1.9540
  359MOL0     H47329   9.783   6.164   8.995 -0.0342  1.4421 -0.1063
  359MOL0     H47330   9.694   6.018   8.927  0.0703 -0.3690  1.0645
  359MOL0     H47331   9.562   6.264   9.054  0.8765  0.3858  1.7180
  359MOL0     H47332   9.479   6.124   8.989 -0.6028  0.8883  2.1938
  359MOL0     H47333   9.685   6.113   9.206  0.1793  2.4154 -0.1783
  359MOL0     H47334   9.575   5.976   9.153 -3.5470  1.0062 -2.5424
  359MOL0     H47335   9.477   6.223   9.309  0.1261  0.6797 -1.4400
  359MOL0     H47336   9.492   6.063   9.371  0.3487 -0.6114 -0.6704
  359MOL0     H47337   9.297   6.140   9.141 -2.3064  0.1845  0.4613
  359MOL0     H47338   9.362   5.980   9.169 -2.0811 -1.3607  1.8475
  359MOL0     H47339   9.225   6.155   9.396  0.3099  0.7466 -0.8194
  359MOL0     H47340   9.268   5.977   9.395  2.1105 -0.2735 -1.8575
  359MOL0     H47341   9.030   6.237   9.269  0.5330  1.2847 -4.1893
  359MOL0     H47342   8.757   6.146   9.078  1.9360  4.7112  0.7092
  359MOL0     H47343   8.774   6.251   9.223 -2.9904  1.2986 -1.6143
  359MOL0     H47344   8.639   5.995   9.228  0.6087  0.4598 -1.2837
  359MOL0     H47345   8.567   6.154   9.252 -1.2532 -1.9844  2.8210
  359MOL0     H47346   8.785   6.024   9.410  0.5458  1.0118 -0.1058
  359MOL0     H47347   8.735   6.186   9.454 -0.6836  0.0594  0.5130
  359MOL0     H47348   8.623   5.984   9.584 -2.3574 -0.9913  0.1462
  359MOL0     H47349   8.546   5.941   9.436  0.5962  0.5649 -0.4255
  359MOL0     H47350   8.246   6.248   9.531  1.0029 -0.2715  1.3121
  359MOL0     H47351   8.053   6.204   9.656 -0.9571 -0.9728 -1.3057
  359MOL0     H47352   7.725   5.885   9.748  1.2165  1.6827 -0.3620
  359MOL0     H47353   7.511   5.871   9.914  1.5530  0.0512  3.1267
  359MOL0     H47354   7.397   5.838  10.098 -2.5881 -2.0631  0.3164
  359MOL0     H47355   7.292   5.944  10.017  2.0787  0.4770 -1.2386
  359MOL0     H47356   7.212   6.047  10.233  0.8818  0.7321 -2.4225
  359MOL0     H47357   7.346   5.967  10.320 -0.7469  1.5445  0.2304
  359MOL0     H47358   7.262   5.755  10.280  0.8080  0.8717 -1.0282
  359MOL0     H47359   7.115   5.824  10.185 -1.9397 -1.1503  1.9154
  359MOL0     H47360   7.196   5.874  10.478  1.9030  3.0094 -3.1502
  359MOL0     H47361   7.067   5.957  10.388  0.6607  0.3902 -3.0209
  359MOL0     H47362   6.998   5.772  10.540  0.8449  2.5793  0.5888
  359MOL0     H47363   7.081   5.655  10.435  1.3229  1.3765  0.7647
  359MOL0     H47364   6.946   5.713  10.250  0.0536  2.3046 -1.7042
  359MOL0     H47365   6.855   5.828  10.333 -0.5529 -1.0237 -0.0463
  359MOL0     H47366   6.860   5.528  10.426 -0.4549  0.3856 -0.1466
  359MOL0     H47367   6.775   5.642  10.513 -0.8619 -0.1760  0.1408
  359MOL0     H47368   6.714   5.612  10.215  1.4495  0.8839  0.3976
  359MOL0     H47369   6.646   5.731  10.335 -0.6223 -1.4136  0.5058
  359MOL0     H47370   7.624   6.224  10.109  3.2320  0.7663  0.6761
  359MOL0     H47371   7.827   6.249   9.921 -0.9977  1.1798 -0.7173
  359MOL0     H47372   8.220   5.838   9.781 -0.2188 -0.3650 -0.3139
  359MOL0     H47373   8.447   5.911   9.704  1.3407 -0.0658 -3.0215
  359MOL0     H47374  10.158   6.304   8.891  4.0122 -2.0511  0.4713
  359MOL0     H47375  10.365   6.319   8.775 -0.8638 -1.3803  3.3176
  359MOL0     H47376  10.601   6.229   8.179 -0.2996  2.3575 -0.7344
  359MOL0     H47377  10.826   6.304   8.114 -0.3047  1.0047 -0.5577
  359MOL0     H47378  10.961   6.531   8.137 -0.8455  1.0561  1.7991
  359MOL0     H47379  11.067   6.386   8.140  3.2224  0.0074  1.8669
  359MOL0     H47380  11.143   6.636   8.121  1.3738  1.7726  2.1963
  359MOL0     H47381  11.157   6.611   8.300  0.3011 -3.0132  1.7290
  359MOL0     H47382  11.306   6.435   8.095  2.2420 -2.2520  1.2507
  359MOL0     H47383  11.276   6.394   8.263  3.3812  0.2600  0.3405
  359MOL0     H47384  11.414   6.650   8.177 -1.8462 -0.1239 -0.7576
  359MOL0     H47385  11.401   6.590   8.343 -3.9761  1.3432 -0.6689
  359MOL0     H47386  11.714   6.363   8.136 -0.0783  0.4107  0.2116
  359MOL0     H47387  10.882   6.421   8.533 -2.0713  3.0841  0.5040
  359MOL0     H47388  10.666   6.360   8.583 -0.7420  0.0695 -0.4605
  360MOL0     O47389  10.249   6.585   4.161 -0.1487  0.2259  0.1546
  360MOL0     C47390  10.244   6.460   4.160 -0.8738 -0.5831 -0.2059
  360MOL0     O47391  10.139   6.382   4.175  0.5699 -0.0582  0.5436
  360MOL0     C47392  10.007   6.413   4.179  0.3203  0.1337  1.0163
  360MOL0     C47393   9.918   6.322   4.231  0.0768  0.6709 -0.4276
  360MOL0     C47394   9.787   6.352   4.235  0.4957  0.7917 -0.1038
  360MOL0     C47395   9.731   6.469   4.181  0.4735  0.0253  1.1746
  360MOL0     O47396   9.592   6.498   4.180  0.0054  0.5993  0.0590
  360MOL0     C47397   9.503   6.389   4.176 -0.2283  0.7210 -0.6789
  360MOL0     C47398   9.360   6.431   4.131 -0.6080 -0.1455 -0.6640
  360MOL0     C47399   9.285   6.493   4.250 -0.0127  0.4946  0.2719
  360MOL0     C47400   9.145   6.528   4.203  0.0139 -0.0418  0.7756
  360MOL0     C47401   9.050   6.546   4.327 -0.2029  0.1425 -0.0032
  360MOL0     C47402   8.921   6.632   4.302  0.7183  0.2154  1.1079
  360MOL0     C47403   8.827   6.554   4.211 -0.9043  0.0719  0.1503
  360MOL0     C47404   8.717   6.653   4.171 -0.4720 -0.6360  1.0733
  360MOL0     N47405   8.629   6.611   4.059 -0.0275  0.2315  0.1815
  360MOL0     C47406   8.621   6.484   4.024  0.1849  0.5737 -0.2788
  360MOL0     C47407   8.539   6.484   3.921  0.3181 -0.1341 -0.3039
  360MOL0     C47408   8.472   6.365   3.865 -0.2184  0.0576  0.0626
  360MOL0     C47409   8.546   6.312   3.736 -0.0373 -0.0877  0.1409
  360MOL0     C47410   8.522   6.397   3.607 -0.5898  0.3802 -0.5912
  360MOL0     C47411   8.380   6.382   3.553 -0.0782 -0.4863 -0.4998
  360MOL0     O47412   8.385   6.256   3.484  0.5365  0.8782 -0.3607
  360MOL0     C47413   8.276   6.216   3.408  0.1035  0.2007  0.7679
  360MOL0     C47414   8.156   6.287   3.392 -0.5331 -0.1221  0.2422
  360MOL0     C47415   8.057   6.237   3.313  0.0456 -0.0815  0.7611
  360MOL0     C47416   8.068   6.122   3.239 -0.1642  0.1804  0.3010
  360MOL0     C47417   7.950   6.079   3.155 -1.3866 -0.3350  0.1302
  360MOL0     O47418   7.824   6.109   3.178 -0.0331  0.5220 -1.2333
  360MOL0     C47419   7.722   6.049   3.106  0.0175 -0.9217 -0.3512
  360MOL0     C47420   7.646   6.145   3.041  0.2260  0.6212  0.5208
  360MOL0     C47421   7.529   6.117   2.978 -0.2922 -0.0414 -0.1651
  360MOL0     C47422   7.492   5.991   2.959  0.7893  0.8194 -0.2424
  360MOL0     O47423   7.381   5.954   2.899  0.1316  0.5136  0.1381
  360MOL0     C47424   7.264   6.036   2.913  0.5250  0.6898 -0.0097
  360MOL0     C47425   7.157   5.976   2.815  0.7102  0.1258  0.2210
  360MOL0     C47426   7.023   6.044   2.825  0.0281 -0.5902  0.1428
  360MOL0     C47427   6.936   6.020   2.697  0.4324  0.6112 -0.3525
  360MOL0     C47428   6.797   6.094   2.701 -0.2387  0.4431  0.2161
  360MOL0     C47429   6.810   6.241   2.696 -0.5117  0.7206 -0.4040
  360MOL0     C47430   6.679   6.313   2.708  0.2601 -0.0298 -0.9357
  360MOL0     C47431   6.596   6.325   2.575 -0.9050 -0.4492  0.4675
  360MOL0    Cl47432   6.447   6.410   2.595  0.2074  0.3143 -0.5442
  360MOL0     C47433   7.574   5.894   3.019  0.3423 -0.9159  0.0352
  360MOL0     C47434   7.687   5.925   3.097  0.0784 -0.4140  0.8899
  360MOL0     O47435   7.991   6.010   3.071  0.6037  0.1649  0.3265
  360MOL0     C47436   8.194   6.055   3.255  0.0393 -0.0008  0.6062
  360MOL0     C47437   8.297   6.101   3.336 -0.1125  0.3988 -0.3963
  360MOL0     N47438   8.508   6.617   3.890  0.6794  0.0421 -0.6892
  360MOL0     N47439   8.559   6.692   3.980 -1.3561 -0.1241  0.8319
  360MOL0     C47440   9.817   6.561   4.129  0.2120  1.0282  0.3719
  360MOL0     C47441   9.957   6.533   4.126  0.7034 -0.8175  0.3469
  360MOL0     C47442  10.375   6.394   4.159  1.2583  0.7126 -0.0579
  360MOL0     C47443  10.375   6.251   4.159  0.2422  0.0017 -0.3738
  360MOL0     C47444  10.496   6.177   4.175 -0.2910 -1.2323 -0.5406
  360MOL0     C47445  10.622   6.252   4.192 -0.5137  1.5878  0.4597
  360MOL0     O47446  10.750   6.198   4.214 -0.2302 -0.4029  0.0905
  360MOL0     C47447  10.766   6.060   4.210 -0.0545  0.4751 -0.0270
  360MOL0     C47448  10.911   6.030   4.224 -0.0793  1.3819  0.3540
  360MOL0     C47449  11.003   6.087   4.117 -0.5059 -0.3125 -0.3591
  360MOL0     C47450  11.138   6.021   4.112  0.3803 -0.7845 -0.2230
  360MOL0     C47451  11.211   6.053   4.234  0.2482 -0.4919 -0.9799
  360MOL0     C47452  11.290   6.079   4.329  0.3080  0.1111 -0.0994
  360MOL0     C47453  10.611   6.390   4.195  0.0300 -0.6429  0.3504
  360MOL0     C47454  10.495   6.468   4.177  0.6067  0.7629 -0.0516
  360MOL0     H47455   9.947   6.223   4.265  0.1575  1.0620  0.6930
  360MOL0     H47456   9.718   6.286   4.287 -0.3030  0.6597 -1.2938
  360MOL0     H47457   9.498   6.343   4.275  3.2394  0.2426 -0.5957
  360MOL0     H47458   9.530   6.317   4.097 -1.3740 -0.1909 -0.2767
  360MOL0     H47459   9.315   6.341   4.086 -1.9250  0.3330 -0.3669
  360MOL0     H47460   9.368   6.499   4.046 -1.4786 -0.9442 -1.4197
  360MOL0     H47461   9.339   6.577   4.293  0.1522  0.1545  0.7381
  360MOL0     H47462   9.272   6.419   4.330 -0.0927 -2.1956 -2.0923
  360MOL0     H47463   9.147   6.615   4.137 -0.4320 -1.2332 -0.8740
  360MOL0     H47464   9.096   6.456   4.138  0.3180 -0.1485  0.6651
  360MOL0     H47465   9.103   6.594   4.409 -0.5804  2.4935 -1.0303
  360MOL0     H47466   9.023   6.444   4.356  2.1081 -0.1280  1.3726
  360MOL0     H47467   8.943   6.732   4.264 -0.5567  1.3161  3.1227
  360MOL0     H47468   8.865   6.657   4.392 -3.4117 -1.1625 -0.8164
  360MOL0     H47469   8.874   6.504   4.126 -2.0424 -1.5371  0.4146
  360MOL0     H47470   8.786   6.482   4.283 -1.3114  2.1871  2.1412
  360MOL0     H47471   8.769   6.742   4.135 -1.0159 -0.3503  0.9826
  360MOL0     H47472   8.651   6.669   4.256  0.2283 -2.6675  2.0551
  360MOL0     H47473   8.665   6.406   4.086  0.0490  0.6490 -0.0854
  360MOL0     H47474   8.367   6.389   3.848 -0.2781 -0.6355 -0.5908
  360MOL0     H47475   8.472   6.278   3.932 -0.0950 -0.0548 -0.0824
  360MOL0     H47476   8.514   6.210   3.714  0.6560  0.2090 -2.4895
  360MOL0     H47477   8.653   6.324   3.754 -0.0950  5.2948 -1.4393
  360MOL0     H47478   8.533   6.505   3.626  1.1852 -0.2543  2.9516
  360MOL0     H47479   8.591   6.369   3.528 -0.3242 -1.7584  0.3421
  360MOL0     H47480   8.368   6.466   3.483  1.8775 -0.4410 -0.8389
  360MOL0     H47481   8.301   6.381   3.628 -0.8258 -3.5508 -1.2025
  360MOL0     H47482   8.151   6.382   3.444  1.3761  0.1507  0.0306
  360MOL0     H47483   7.965   6.294   3.305 -1.9460 -3.2374 -0.2881
  360MOL0     H47484   7.692   6.242   3.025 -0.9459  1.1646  0.3369
  360MOL0     H47485   7.482   6.210   2.946  0.8175  0.3942 -0.5983
  360MOL0     H47486   7.281   6.140   2.887 -2.0944  1.6382  1.6820
  360MOL0     H47487   7.222   6.037   3.014 -2.6569  1.1146 -1.2360
  360MOL0     H47488   7.148   5.870   2.838 -0.1580  0.4317  1.4271
  360MOL0     H47489   7.189   5.976   2.711 -1.5235  0.4740 -0.5219
  360MOL0     H47490   7.041   6.152   2.828 -1.1670 -0.3659 -0.2929
  360MOL0     H47491   6.986   6.008   2.922  0.8747 -2.3739 -0.1664
  360MOL0     H47492   6.983   6.041   2.601 -5.1094 -0.2750 -3.6611
  360MOL0     H47493   6.912   5.913   2.698 -0.3648  0.7853  0.1730
  360MOL0     H47494   6.751   6.062   2.795 -1.5453 -1.6142 -1.0487
  360MOL0     H47495   6.739   6.055   2.617  1.4532 -0.5220 -0.5475
  360MOL0     H47496   6.863   6.270   2.605 -0.3271  1.9491  0.0796
  360MOL0     H47497   6.869   6.286   2.776 -0.3352  0.1997 -0.2364
  360MOL0     H47498   6.605   6.268   2.775 -2.8959  3.0100 -2.0826
  360MOL0     H47499   6.696   6.417   2.737 -0.2390 -0.2939  0.3920
  360MOL0     H47500   6.577   6.225   2.537 -1.8326  0.2580 -1.0511
  360MOL0     H47501   6.653   6.378   2.497 -0.5979 -0.0113  0.9771
  360MOL0     H47502   7.534   5.794   3.013 -0.6138 -0.7831  2.8166
  360MOL0     H47503   7.731   5.854   3.166  0.8656  0.1384  0.9826
  360MOL0     H47504   8.203   5.966   3.193 -2.4258  1.2268 -1.7357
  360MOL0     H47505   8.391   6.051   3.354  0.1207  2.0832  4.7821
  360MOL0     H47506   9.769   6.652   4.097 -1.5963  0.2461  0.7642
  360MOL0     H47507  10.021   6.611   4.085 -1.0240 -1.4217 -3.9870
  360MOL0     H47508  10.285   6.193   4.146 -0.1395  0.7495 -1.2570
  360MOL0     H47509  10.492   6.069   4.177 -0.0570 -1.2548  1.8076
  360MOL0     H47510  10.746   6.026   4.108 -1.4605 -0.9700  0.6924
  360MOL0     H47511  10.711   6.003   4.285  1.1394 -3.0437 -1.6559
  360MOL0     H47512  10.928   6.058   4.329 -2.2199  2.8015  0.3869
  360MOL0     H47513  10.916   5.921   4.214  1.1959  1.4798 -0.3413
  360MOL0     H47514  11.020   6.192   4.138 -2.1688 -0.6305  3.4089
  360MOL0     H47515  10.941   6.072   4.028 -0.2476 -1.4782 -0.3612
  360MOL0     H47516  11.123   5.913   4.106 -1.4993 -0.5589 -0.2696
  360MOL0     H47517  11.197   6.060   4.029  1.7561  0.8060  1.4216
  360MOL0     H47518  11.346   6.094   4.419  1.4048 -1.0635 -0.5543
  360MOL0     H47519  10.696   6.451   4.224 -0.8607  0.4457  0.7384
  360MOL0     H47520  10.504   6.575   4.189 -0.8240  1.0696 -1.4511
  361MOL0     O47521   4.175   9.262   3.549 -0.7347  0.8005  0.3694
  361MOL0     C47522   4.215   9.334   3.456 -1.0187 -0.2073 -0.0788
  361MOL0     O47523   4.153   9.364   3.331 -0.4022 -0.4719 -0.4803
  361MOL0     C47524   4.017   9.333   3.316  0.0507  0.5794  0.0298
  361MOL0     C47525   3.927   9.299   3.420 -0.2016  0.1585 -0.4139
  361MOL0     C47526   3.792   9.276   3.378 -0.3092  0.5379  0.4236
  361MOL0     C47527   3.742   9.292   3.249  0.4369 -0.2523 -0.6763
  361MOL0     O47528   3.607   9.277   3.230 -0.7754  0.4776  0.4902
  361MOL0     C47529   3.546   9.322   3.112  0.1454 -0.8135 -0.1327
  361MOL0     C47530   3.410   9.249   3.103 -0.1356 -0.0185 -0.1749
  361MOL0     C47531   3.319   9.336   3.025 -0.2993 -0.2217  0.6261
  361MOL0     C47532   3.173   9.295   3.016  0.1775  0.0994  1.1713
  361MOL0     C47533   3.110   9.371   2.903 -0.1450  0.1610 -1.2806
  361MOL0     C47534   2.976   9.313   2.870 -0.2681  0.5237 -0.5801
  361MOL0     C47535   2.905   9.409   2.772 -0.1391  0.0649 -0.4383
  361MOL0     C47536   2.772   9.342   2.747 -0.1668 -0.1996  1.0463
  361MOL0     N47537   2.672   9.451   2.723 -0.5091 -0.4617  0.0299
  361MOL0     C47538   2.606   9.511   2.820 -0.0235 -1.1439 -0.4143
  361MOL0     C47539   2.528   9.596   2.761  0.9354 -0.3791  0.7039
  361MOL0     C47540   2.426   9.679   2.835 -0.2898 -0.4185  0.8314
  361MOL0     C47541   2.454   9.825   2.838  0.0119 -0.0265 -0.3253
  361MOL0     C47542   2.576   9.870   2.928  0.9210  0.1911  0.6587
  361MOL0     C47543   2.541  10.018   2.977  0.4665  0.2075  0.1873
  361MOL0     O47544   2.653  10.078   3.048 -0.0657 -0.2237 -0.1289
  361MOL0     C47545   2.677  10.208   3.028 -0.0633 -0.3930 -0.3364
  361MOL0     C47546   2.573  10.301   3.003 -0.0251  0.5706 -0.1775
  361MOL0     C47547   2.604  10.437   2.988 -0.5232  0.1998  0.0349
  361MOL0     C47548   2.736  10.491   2.988  0.4366 -0.6117 -0.4425
  361MOL0     C47549   2.766  10.631   2.976  0.0286  0.3862 -0.6951
  361MOL0     O47550   2.894  10.670   2.976 -0.0047  0.4465  0.4073
  361MOL0     C47551   2.932  10.798   3.016  0.0252 -0.7428 -0.1327
  361MOL0     C47552   2.854  10.886   3.098 -0.6163  0.0174 -0.1210
  361MOL0     C47553   2.923  11.004   3.144  0.7493  0.4239  0.3626
  361MOL0     C47554   3.049  11.047   3.112  0.2956  0.1463 -0.1203
  361MOL0     O47555   3.088  11.161   3.167 -0.3597 -0.3578 -0.5295
  361MOL0     C47556   3.210  11.223   3.139  0.0459 -1.5676 -0.1591
  361MOL0     C47557   3.220  11.344   3.233 -0.1737  0.1164  0.0362
  361MOL0     C47558   3.125  11.458   3.205  0.4475 -0.0937 -0.3897
  361MOL0     C47559   3.176  11.552   3.098 -0.1037 -0.7091  0.4113
  361MOL0     C47560   3.076  11.664   3.076  0.9787 -0.3927 -0.6096
  361MOL0     C47561   2.947  11.618   3.018  0.4617 -0.6239  0.1215
  361MOL0     C47562   2.862  11.727   2.958  0.4713 -0.5374 -0.3937
  361MOL0     C47563   2.730  11.685   2.890  0.5198 -0.1568 -0.3861
  361MOL0    Cl47564   2.650  11.833   2.817  0.0984 -0.0337 -0.1607
  361MOL0     C47565   3.126  10.960   3.031 -0.1877  0.8850 -0.0612
  361MOL0     C47566   3.063  10.843   2.987  0.6224  0.6571 -0.0975
  361MOL0     O47567   2.671  10.710   2.973  0.0442  0.1538  0.4172
  361MOL0     C47568   2.841  10.391   3.006 -0.2915 -0.7159  0.0283
  361MOL0     C47569   2.815  10.254   3.026  0.6276 -0.1170  0.3467
  361MOL0     N47570   2.530   9.578   2.623 -0.1946 -0.3312  0.9080
  361MOL0     N47571   2.625   9.485   2.600  0.0803  0.9317  0.0244
  361MOL0     C47572   3.836   9.335   3.148 -0.0345 -0.3083 -0.3404
  361MOL0     C47573   3.976   9.349   3.181 -0.0476 -0.0240 -0.5935
  361MOL0     C47574   4.351   9.396   3.477 -0.0502 -0.4286  0.5537
  361MOL0     C47575   4.397   9.492   3.388  0.3997 -0.1541  0.4693
  361MOL0     C47576   4.522   9.554   3.397  0.2168 -0.4777 -0.3499
  361MOL0     C47577   4.607   9.512   3.494 -0.5352  0.2170  0.1648
  361MOL0     O47578   4.739   9.552   3.503  0.3300 -0.2357  0.4379
  361MOL0     C47579   4.774   9.690   3.486  0.6373  0.1414  0.5008
  361MOL0     C47580   4.769   9.767   3.613  1.0127 -0.6970 -1.0131
  361MOL0     C47581   4.782   9.919   3.601  0.2661 -0.4808  0.5026
  361MOL0     C47582   4.818   9.992   3.743 -0.5573 -0.4188  0.4018
  361MOL0     C47583   4.730   9.966   3.856  0.6113 -0.1000  0.3721
  361MOL0     C47584   4.650   9.930   3.944 -0.4288  0.3375  0.2259
  361MOL0     C47585   4.568   9.394   3.572 -0.5570 -0.3124  0.0281
  361MOL0     C47586   4.441   9.343   3.575 -0.0796 -0.6459 -0.4192
  361MOL0     H47587   3.949   9.297   3.526 -1.6354  0.1296 -0.0951
  361MOL0     H47588   3.718   9.232   3.444 -0.0336 -1.4176 -0.5022
  361MOL0     H47589   3.604   9.302   3.021  1.6282  0.5497  0.4534
  361MOL0     H47590   3.538   9.431   3.121 -0.4169 -0.9274  0.8682
  361MOL0     H47591   3.380   9.238   3.208 -1.1514  1.8432 -0.2226
  361MOL0     H47592   3.421   9.147   3.063  1.9633 -1.4320  3.5248
  361MOL0     H47593   3.355   9.358   2.924 -2.7124  1.3936  0.0486
  361MOL0     H47594   3.328   9.433   3.075 -0.3500 -0.3422  0.8713
  361MOL0     H47595   3.166   9.186   3.005  0.0974  0.2744 -0.9693
  361MOL0     H47596   3.118   9.316   3.108 -0.3424  0.2868  0.8228
  361MOL0     H47597   3.174   9.356   2.815  1.0025  0.8767 -0.5887
  361MOL0     H47598   3.110   9.479   2.918  0.3429  0.3451 -2.4622
  361MOL0     H47599   2.923   9.292   2.964  0.5126 -1.8112 -0.5967
  361MOL0     H47600   2.996   9.214   2.828  2.1110  0.5552  0.3037
  361MOL0     H47601   2.891   9.504   2.824  1.0210 -0.1094  0.2281
  361MOL0     H47602   2.955   9.420   2.676 -0.2977  2.4059 -0.3057
  361MOL0     H47603   2.745   9.284   2.837  0.1064 -0.3040  1.0618
  361MOL0     H47604   2.779   9.275   2.661 -2.8556 -1.2637  1.5270
  361MOL0     H47605   2.606   9.512   2.928 -1.2569  2.8968 -0.3037
  361MOL0     H47606   2.397   9.645   2.934 -1.9672 -1.2660  0.1028
  361MOL0     H47607   2.337   9.675   2.771  1.3383 -0.8646 -1.5387
  361MOL0     H47608   2.358   9.867   2.869  1.3208  2.6862  0.3256
  361MOL0     H47609   2.477   9.851   2.735 -0.2583 -0.4912 -0.5063
  361MOL0     H47610   2.588   9.798   3.010 -0.3822 -1.0522 -0.1967
  361MOL0     H47611   2.671   9.876   2.872  1.1151 -0.2116  0.9372
  361MOL0     H47612   2.460  10.005   3.049  0.2032  0.1066 -0.1225
  361MOL0     H47613   2.521  10.073   2.885 -0.6548 -2.8431 -1.5411
  361MOL0     H47614   2.466  10.284   3.010  0.0189  0.8370  2.6368
  361MOL0     H47615   2.530  10.516   2.985  0.0100  0.7876  1.4426
  361MOL0     H47616   2.753  10.860   3.127 -1.0488  0.1960 -1.3668
  361MOL0     H47617   2.869  11.075   3.206  0.1446  1.0139 -0.8054
  361MOL0     H47618   3.223  11.255   3.035 -2.0930 -2.6994 -0.8530
  361MOL0     H47619   3.291  11.156   3.166 -1.1482 -3.0118 -0.0238
  361MOL0     H47620   3.324  11.379   3.232 -0.7281  1.8793 -1.8865
  361MOL0     H47621   3.207  11.307   3.335  3.5661  1.0591  1.0332
  361MOL0     H47622   3.121  11.506   3.303 -1.9701  1.4555 -1.1686
  361MOL0     H47623   3.026  11.422   3.176  1.5291 -2.1587 -1.8694
  361MOL0     H47624   3.273  11.587   3.134  0.0404  0.2746 -0.8579
  361MOL0     H47625   3.198  11.492   3.009 -2.2094  0.7552 -1.2010
  361MOL0     H47626   3.122  11.740   3.012  1.3446 -0.6392 -0.6479
  361MOL0     H47627   3.063  11.719   3.170 -0.2098  0.9280 -1.5069
  361MOL0     H47628   2.884  11.569   3.093 -1.2799  0.7849 -0.3317
  361MOL0     H47629   2.968  11.557   2.930  1.0652 -0.6213  0.2654
  361MOL0     H47630   2.827  11.804   3.027 -4.0267 -1.5718 -1.2107
  361MOL0     H47631   2.923  11.771   2.878  0.4532  0.3944  0.0980
  361MOL0     H47632   2.652  11.646   2.957 -2.5835  3.1775 -1.7053
  361MOL0     H47633   2.757  11.608   2.817 -1.0414 -1.1039 -0.0156
  361MOL0     H47634   3.225  10.992   3.001  0.3217 -1.6905 -1.4124
  361MOL0     H47635   3.126  10.786   2.919 -0.2558  2.7422 -2.8441
  361MOL0     H47636   2.942  10.431   3.010  0.7401 -2.7750 -2.6213
  361MOL0     H47637   2.896  10.188   3.052 -0.3840 -0.6371  2.4125
  361MOL0     H47638   3.812   9.366   3.047  0.3836 -1.2472 -0.7402
  361MOL0     H47639   4.038   9.376   3.096  0.1349  3.1948  0.4440
  361MOL0     H47640   4.337   9.525   3.304 -2.9581  3.1039  3.7547
  361MOL0     H47641   4.548   9.641   3.338 -2.3569  0.7887  0.2349
  361MOL0     H47642   4.708   9.745   3.419 -0.0773 -0.5666  0.6068
  361MOL0     H47643   4.875   9.696   3.444  0.0113 -1.2668 -1.3610
  361MOL0     H47644   4.681   9.743   3.672  0.4915  0.2616 -1.3907
  361MOL0     H47645   4.853   9.727   3.671  2.0950 -2.7619 -3.7339
  361MOL0     H47646   4.693   9.954   3.547 -0.0039  0.3049  1.4212
  361MOL0     H47647   4.863   9.945   3.532 -1.8769 -2.0697 -2.8774
  361MOL0     H47648   4.910   9.939   3.768  1.0570  0.8694 -2.4209
  361MOL0     H47649   4.833  10.099   3.727 -1.9087 -0.1621  0.7052
  361MOL0     H47650   4.581   9.908   4.023 -0.3759 -1.1618 -0.1167
  361MOL0     H47651   4.648   9.349   3.628 -2.1589 -2.4024  0.7773
  361MOL0     H47652   4.410   9.256   3.632 -0.1635 -1.2358 -1.3334
  362MOL0     O47653   1.620   4.172   7.255 -0.3478  0.2835 -0.1360
  362MOL0     C47654   1.622   4.082   7.346 -0.0349  0.0226  0.2197
  362MOL0     O47655   1.530   4.068   7.440 -0.1268  1.0754 -0.2222
  362MOL0     C47656   1.405   4.119   7.420 -0.3885  0.0087  0.8026
  362MOL0     C47657   1.311   4.019   7.437 -0.0684  0.2927  0.3917
  362MOL0     C47658   1.176   4.052   7.412  0.1781 -0.9770 -0.2101
  362MOL0     C47659   1.138   4.186   7.378 -0.3255 -0.6096 -0.9870
  362MOL0     O47660   1.009   4.225   7.355 -0.5961 -0.1479 -0.1824
  362MOL0     C47661   0.903   4.146   7.421  0.3114 -0.1055 -0.6729
  362MOL0     C47662   0.772   4.226   7.433  0.4515 -0.4418  0.1526
  362MOL0     C47663   0.631   4.155   7.445  0.0095  0.6437 -0.1058
  362MOL0     C47664   0.514   4.251   7.462  0.0306  0.1708  0.6025
  362MOL0     C47665   0.381   4.189   7.505  0.1726 -0.3012 -0.6888
  362MOL0     C47666   0.324   4.081   7.414  0.3094  0.4710 -0.7160
  362MOL0     C47667   0.286   4.131   7.282 -0.3504  0.7195 -0.2381
  362MOL0     C47668   0.148   4.200   7.281 -0.6275 -0.6275 -0.2979
  362MOL0     N47669   0.029   4.115   7.313 -0.5800  0.5225  0.6715
  362MOL0     C47670  -0.038   4.117   7.430  0.1105  0.7551 -0.8144
  362MOL0     C47671  -0.146   4.030   7.417 -0.1003  0.5844 -0.4311
  362MOL0     C47672  -0.259   3.998   7.512  0.3116  0.4439  0.9104
  362MOL0     C47673  -0.400   4.023   7.452  0.6858 -0.6529  0.1392
  362MOL0     C47674  -0.515   3.963   7.534  0.0910  0.0741  0.9249
  362MOL0     C47675  -0.652   3.970   7.466 -0.7011  0.0918  0.1203
  362MOL0     O47676  -0.699   4.101   7.464  0.1440  0.3262 -0.6344
  362MOL0     C47677  -0.835   4.113   7.491  0.4660 -0.5331 -1.3391
  362MOL0     C47678  -0.945   4.049   7.425 -1.0515  0.4407 -0.3685
  362MOL0     C47679  -1.076   4.072   7.456 -0.1885 -0.2149  0.4952
  362MOL0     C47680  -1.110   4.157   7.566 -0.1263  0.5991  1.0527
  362MOL0     C47681  -1.254   4.198   7.579 -0.1095 -0.3801 -0.1362
  362MOL0     O47682  -1.349   4.133   7.505 -0.1064  0.0545  0.4110
  362MOL0     C47683  -1.479   4.173   7.523 -0.7348  0.3000  0.0525
  362MOL0     C47684  -1.562   4.127   7.625 -0.0437  0.3897  0.5192
  362MOL0     C47685  -1.701   4.165   7.616 -0.0292  0.8116 -0.0543
  362MOL0     C47686  -1.748   4.247   7.513 -0.1693  0.1774  0.0324
  362MOL0     O47687  -1.885   4.268   7.500 -0.1419 -1.0257  0.5700
  362MOL0     C47688  -1.972   4.184   7.561  0.5972  0.3365  0.2086
  362MOL0     C47689  -2.116   4.233   7.520 -0.1853  0.1570 -0.2246
  362MOL0     C47690  -2.226   4.151   7.565 -0.4447  0.7193  0.4212
  362MOL0     C47691  -2.354   4.203   7.506  0.5818  0.2540 -0.2677
  362MOL0     C47692  -2.469   4.117   7.570 -0.5254 -0.2824 -0.5368
  362MOL0     C47693  -2.612   4.184   7.558 -0.4586 -0.6857  0.1442
  362MOL0     C47694  -2.735   4.093   7.564  0.8713  0.0357 -0.3142
  362MOL0     C47695  -2.864   4.179   7.568 -0.0010 -0.3167 -0.0022
  362MOL0    Cl47696  -3.009   4.091   7.536 -0.0744  0.3595  0.2813
  362MOL0     C47697  -1.658   4.297   7.424 -0.4033 -1.2290  0.1875
  362MOL0     C47698  -1.527   4.259   7.432 -0.3338  0.6402 -0.5621
  362MOL0     O47699  -1.272   4.286   7.663 -0.3286  0.2427  0.8115
  362MOL0     C47700  -1.001   4.219   7.626 -0.0650  0.3137 -0.6925
  362MOL0     C47701  -0.871   4.200   7.593 -0.2905  0.7717 -0.0870
  362MOL0     N47702  -0.137   3.977   7.292  0.3864  0.6418 -0.2046
  362MOL0     N47703  -0.051   4.044   7.225 -0.3960 -0.8689  0.4812
  362MOL0     C47704   1.239   4.284   7.357  0.1354 -0.0817  0.5782
  362MOL0     C47705   1.375   4.254   7.387  0.0756  0.1066 -1.0168
  362MOL0     C47706   1.738   3.980   7.359 -0.5710 -0.6190  0.6126
  362MOL0     C47707   1.758   3.886   7.462 -0.2164  0.0531  0.1710
  362MOL0     C47708   1.870   3.814   7.478 -0.2848 -0.6947  0.4977
  362MOL0     C47709   1.985   3.836   7.401  0.4782 -0.4732  0.0561
  362MOL0     O47710   2.099   3.771   7.430 -0.0542  0.6161 -0.0875
  362MOL0     C47711   2.228   3.833   7.438 -0.9329 -0.1214  0.2563
  362MOL0     C47712   2.333   3.727   7.434 -0.0604 -0.4655 -0.3668
  362MOL0     C47713   2.467   3.796   7.424 -0.7239 -0.4689  0.8426
  362MOL0     C47714   2.516   3.851   7.288 -0.6454  0.1542  0.1489
  362MOL0     C47715   2.657   3.905   7.304 -0.0392  1.0176  0.0636
  362MOL0     C47716   2.769   3.944   7.331 -0.5200  0.1630 -0.6071
  362MOL0     C47717   1.968   3.928   7.294 -0.0995  0.5313 -1.1624
  362MOL0     C47718   1.849   4.006   7.276  0.3555  0.0032  0.2586
  362MOL0     H47719   1.334   3.919   7.470 -2.9712 -0.3351  0.7563
  362MOL0     H47720   1.093   3.982   7.410 -1.1906  0.5116  1.3697
  362MOL0     H47721   0.920   4.096   7.517 -1.3958 -3.1390 -1.8173
  362MOL0     H47722   0.878   4.066   7.350  3.0619 -0.5207 -1.2994
  362MOL0     H47723   0.760   4.281   7.340  0.7987 -0.6513 -0.0184
  362MOL0     H47724   0.786   4.304   7.509  1.1147  1.5759 -1.9331
  362MOL0     H47725   0.641   4.085   7.529  1.4003 -0.0219 -0.7888
  362MOL0     H47726   0.612   4.091   7.358 -1.1121 -0.1990  0.7139
  362MOL0     H47727   0.551   4.325   7.533  1.9114  0.1509 -0.2804
  362MOL0     H47728   0.499   4.302   7.366  0.2376 -3.3208 -1.4692
  362MOL0     H47729   0.314   4.274   7.520  0.3474 -0.7591  4.2398
  362MOL0     H47730   0.390   4.157   7.609 -0.8899  2.7708  0.4577
  362MOL0     H47731   0.235   4.039   7.461  0.4218  1.5118  0.4555
  362MOL0     H47732   0.402   4.004   7.408 -0.2948 -0.3916  1.5858
  362MOL0     H47733   0.359   4.196   7.233 -0.0834  0.9647  0.4770
  362MOL0     H47734   0.271   4.038   7.226 -3.3090  0.7311  0.3678
  362MOL0     H47735   0.124   4.227   7.178 -0.7872  0.7401  0.0774
  362MOL0     H47736   0.153   4.291   7.340 -1.3296 -1.0798  0.4817
  362MOL0     H47737  -0.015   4.172   7.521 -2.3102  1.4212 -0.5194
  362MOL0     H47738  -0.231   4.050   7.604  0.4264 -0.4241  1.3792
  362MOL0     H47739  -0.269   3.891   7.533 -0.4567  0.2685 -0.2831
  362MOL0     H47740  -0.396   3.976   7.353 -0.0509 -0.6023  0.0864
  362MOL0     H47741  -0.410   4.131   7.440 -0.5994 -0.9500 -2.1624
  362MOL0     H47742  -0.497   3.855   7.547 -1.1114 -0.3994 -0.9165
  362MOL0     H47743  -0.539   4.011   7.629 -2.6348  0.3180  0.1984
  362MOL0     H47744  -0.716   3.906   7.528 -0.5535  3.5770  4.3885
  362MOL0     H47745  -0.635   3.932   7.365  1.1120  1.0073  0.0274
  362MOL0     H47746  -0.921   3.980   7.344  1.8336  1.5473 -0.5784
  362MOL0     H47747  -1.157   4.030   7.397  1.9869 -2.0751 -1.3707
  362MOL0     H47748  -1.527   4.054   7.696  0.4355 -1.2650 -1.3405
  362MOL0     H47749  -1.772   4.118   7.684 -0.4100  0.9290 -0.3669
  362MOL0     H47750  -1.969   4.201   7.669  0.4785  1.9380 -0.0184
  362MOL0     H47751  -1.949   4.085   7.521  1.5668  0.6617 -0.0684
  362MOL0     H47752  -2.114   4.244   7.412 -1.6813  0.3402 -0.2559
  362MOL0     H47753  -2.129   4.335   7.558 -2.0475 -0.0991 -0.0497
  362MOL0     H47754  -2.219   4.152   7.674  2.2484  1.1001  0.3221
  362MOL0     H47755  -2.222   4.048   7.530 -0.6211  0.4847  1.0803
  362MOL0     H47756  -2.369   4.307   7.536 -1.1132  0.6896 -2.4022
  362MOL0     H47757  -2.352   4.197   7.397  0.2901  1.6326 -0.3578
  362MOL0     H47758  -2.447   4.095   7.674 -0.6710  1.4051 -0.1183
  362MOL0     H47759  -2.474   4.014   7.534 -2.3571 -1.5546  2.8862
  362MOL0     H47760  -2.615   4.247   7.468  2.1320  0.8537  1.0205
  362MOL0     H47761  -2.621   4.259   7.636  0.1638 -0.9829  0.5127
  362MOL0     H47762  -2.733   4.035   7.471 -0.7255 -1.1828  0.3584
  362MOL0     H47763  -2.722   4.025   7.649  4.0833 -0.8354 -1.3315
  362MOL0     H47764  -2.848   4.251   7.487 -0.0092 -3.1769 -2.7214
  362MOL0     H47765  -2.872   4.231   7.664  0.3236 -1.8843  0.9002
  362MOL0     H47766  -1.683   4.354   7.336  1.7833  0.3206  0.4766
  362MOL0     H47767  -1.458   4.308   7.364  2.3882 -0.0255  1.5777
  362MOL0     H47768  -1.024   4.286   7.708  0.4850  1.7566 -1.6676
  362MOL0     H47769  -0.800   4.264   7.642  1.5829 -0.9692 -0.3809
  362MOL0     H47770   1.217   4.379   7.308 -0.9373 -1.4893 -1.8469
  362MOL0     H47771   1.460   4.321   7.382 -1.8523  2.9714  1.2287
  362MOL0     H47772   1.693   3.858   7.544 -0.8818 -0.7561 -0.6180
  362MOL0     H47773   1.870   3.733   7.550 -0.5737 -0.4398  0.7886
  362MOL0     H47774   2.232   3.903   7.522 -2.4843  1.2584 -0.7605
  362MOL0     H47775   2.244   3.890   7.346 -2.7008  2.0942  1.2001
  362MOL0     H47776   2.335   3.672   7.529 -1.5212 -0.7717 -0.4852
  362MOL0     H47777   2.319   3.661   7.348  1.7809 -1.5678  0.1331
  362MOL0     H47778   2.549   3.725   7.443  0.3436  0.8269  1.2854
  362MOL0     H47779   2.467   3.877   7.497  2.5263  0.2396  0.2456
  362MOL0     H47780   2.520   3.771   7.213  0.0533  0.9274 -0.6670
  362MOL0     H47781   2.470   3.942   7.248  2.6267  2.0204  0.1892
  362MOL0     H47782   2.870   3.978   7.347 -0.3378  1.4153 -3.7233
  362MOL0     H47783   2.054   3.948   7.231 -0.2667 -0.4898 -1.7330
  362MOL0     H47784   1.848   4.076   7.193  0.6165 -2.6728 -2.1963
  363MOL0     O47785   1.197   8.181   1.343 -1.0515  0.2136  0.9593
  363MOL0     C47786   1.167   8.109   1.441 -1.0877 -0.3314 -0.5050
  363MOL0     O47787   1.239   8.100   1.565 -0.3092 -0.3194 -0.0922
  363MOL0     C47788   1.361   8.163   1.582  0.7771  0.9204  0.2899
  363MOL0     C47789   1.399   8.176   1.713 -0.1178  0.5755  1.1525
  363MOL0     C47790   1.516   8.231   1.749 -0.6371  0.9182 -0.7055
  363MOL0     C47791   1.602   8.288   1.661 -0.2962  0.2378 -0.0112
  363MOL0     O47792   1.727   8.325   1.716  1.0250  0.5541 -0.2293
  363MOL0     C47793   1.838   8.369   1.639  0.6623 -0.0394  0.3823
  363MOL0     C47794   1.904   8.265   1.549 -0.6350  0.5259  0.7741
  363MOL0     C47795   2.016   8.323   1.468 -0.8493 -0.1274 -0.1043
  363MOL0     C47796   2.085   8.206   1.397  0.1030  0.6765 -0.8224
  363MOL0     C47797   2.181   8.259   1.295  0.1642  0.0568  0.6457
  363MOL0     C47798   2.248   8.143   1.215 -0.1742  0.9810  0.0076
  363MOL0     C47799   2.365   8.105   1.303 -1.0834  0.6726  0.7011
  363MOL0     C47800   2.461   8.016   1.217  0.1273  0.2179  0.1727
  363MOL0     N47801   2.529   8.098   1.112  0.4075  0.3332  0.3563
  363MOL0     C47802   2.627   8.188   1.140 -0.1865  0.3769  1.2422
  363MOL0     C47803   2.661   8.242   1.015 -0.0309  0.4778 -0.3028
  363MOL0     C47804   2.761   8.351   0.997  0.3715  0.0166 -0.3691
  363MOL0     C47805   2.883   8.302   0.906  0.5612  1.1338  0.3447
  363MOL0     C47806   2.856   8.297   0.760  0.1080  0.2397  0.5352
  363MOL0     C47807   2.746   8.224   0.683 -0.3709  0.5365  0.2054
  363MOL0     O47808   2.789   8.230   0.548  0.1795  0.0681  0.7427
  363MOL0     C47809   2.716   8.150   0.461  0.2046  0.1633 -0.0748
  363MOL0     C47810   2.582   8.112   0.479 -0.5743 -1.0161  0.5081
  363MOL0     C47811   2.510   8.047   0.381  0.2378  1.3052 -0.5650
  363MOL0     C47812   2.567   8.007   0.259  0.9956  0.1305 -1.2248
  363MOL0     C47813   2.479   7.954   0.155  0.2691  0.2248 -0.2571
  363MOL0     O47814   2.360   7.905   0.198  0.3843  0.3871 -0.0940
  363MOL0     C47815   2.276   7.841   0.110  0.3670 -0.6130 -0.3388
  363MOL0     C47816   2.316   7.755   0.004 -1.2346  0.1039  0.1828
  363MOL0     C47817   2.221   7.694  -0.083 -0.0660  0.3892 -0.1094
  363MOL0     C47818   2.084   7.725  -0.062  0.4218 -0.0435  0.5777
  363MOL0     O47819   1.979   7.656  -0.128 -0.6641 -0.9974 -0.3247
  363MOL0     C47820   2.009   7.624  -0.263  0.2209  0.1496  0.3647
  363MOL0     C47821   1.879   7.590  -0.329 -0.5032  0.3548  0.6161
  363MOL0     C47822   1.898   7.569  -0.477 -0.3764  0.7751 -0.2669
  363MOL0     C47823   1.765   7.563  -0.561  0.0967 -0.1444 -0.3221
  363MOL0     C47824   1.674   7.443  -0.519 -0.1668  0.8285  0.3792
  363MOL0     C47825   1.579   7.389  -0.629 -0.3156 -0.4637  0.2698
  363MOL0     C47826   1.484   7.494  -0.682  0.5895 -0.2125  0.2495
  363MOL0     C47827   1.386   7.544  -0.574  1.0328 -0.0796 -0.8085
  363MOL0    Cl47828   1.234   7.444  -0.548  0.2922  0.1080 -0.0849
  363MOL0     C47829   2.042   7.800   0.045 -0.0364 -0.8706 -0.6569
  363MOL0     C47830   2.136   7.863   0.131  0.7766  0.5086  0.0268
  363MOL0     O47831   2.521   7.968   0.035  0.3891  0.2549  0.7168
  363MOL0     C47832   2.707   8.029   0.245  1.2670  0.2239 -1.0609
  363MOL0     C47833   2.778   8.114   0.337  0.3869  0.4901 -0.4283
  363MOL0     N47834   2.593   8.178   0.919  0.7489  0.4459 -0.2289
  363MOL0     N47835   2.520   8.084   0.979 -0.0847  0.4441  1.2426
  363MOL0     C47836   1.561   8.295   1.529  0.4519 -0.3021 -0.7146
  363MOL0     C47837   1.434   8.233   1.486 -0.5170 -0.5051 -0.1845
  363MOL0     C47838   1.059   8.008   1.425  0.0497  0.1692  0.9669
  363MOL0     C47839   1.076   7.874   1.460 -0.1081  0.3909 -0.2129
  363MOL0     C47840   0.973   7.786   1.447 -0.8898  0.1916  0.5485
  363MOL0     C47841   0.854   7.820   1.382 -0.8813 -0.1649  0.1252
  363MOL0     O47842   0.748   7.732   1.369 -0.7322  0.8891  0.2332
  363MOL0     C47843   0.754   7.626   1.457  1.0768 -0.1655 -0.7644
  363MOL0     C47844   0.626   7.539   1.451 -0.2784 -0.0581 -0.0887
  363MOL0     C47845   0.505   7.608   1.515 -0.4017 -0.0920 -0.8612
  363MOL0     C47846   0.394   7.507   1.535  1.4337  0.0740  0.3633
  363MOL0     C47847   0.313   7.489   1.408  0.2139  0.2528  0.0928
  363MOL0     C47848   0.254   7.469   1.303  0.1062  0.3530 -0.4182
  363MOL0     C47849   0.842   7.948   1.344  0.1524  0.6931  0.5859
  363MOL0     C47850   0.942   8.042   1.357 -0.2123 -0.1391 -0.1725
  363MOL0     H47851   1.333   8.142   1.792 -0.4789  0.4181  0.7849
  363MOL0     H47852   1.554   8.218   1.850 -1.3682  3.5503 -0.0088
  363MOL0     H47853   1.916   8.403   1.707  0.1417  0.0267  0.9512
  363MOL0     H47854   1.809   8.454   1.576  0.1958 -0.7316 -0.3609
  363MOL0     H47855   1.830   8.221   1.481  1.2478 -1.0373 -0.3594
  363MOL0     H47856   1.941   8.185   1.614 -0.9227 -0.8238 -0.6505
  363MOL0     H47857   2.087   8.378   1.531 -1.2357  1.0892 -0.7092
  363MOL0     H47858   1.982   8.393   1.391 -0.4817 -0.4014 -0.5201
  363MOL0     H47859   2.136   8.150   1.475 -2.3628  1.3796  1.4494
  363MOL0     H47860   2.008   8.140   1.356  0.6432  0.0220 -0.7980
  363MOL0     H47861   2.258   8.326   1.334  1.3006 -1.0168  0.3074
  363MOL0     H47862   2.118   8.315   1.226  2.1025  2.5726  0.7879
  363MOL0     H47863   2.290   8.189   1.125  1.7409  1.8211  1.2688
  363MOL0     H47864   2.189   8.055   1.189  0.3944  0.2953  0.9877
  363MOL0     H47865   2.412   8.190   1.353 -0.4257  0.5192  0.3463
  363MOL0     H47866   2.325   8.039   1.381  0.9769 -0.4413  0.8739
  363MOL0     H47867   2.399   7.937   1.175 -0.3982 -0.7329  2.5876
  363MOL0     H47868   2.536   7.968   1.280  1.7165 -1.4109 -2.7486
  363MOL0     H47869   2.672   8.219   1.233  2.9049 -0.2501  0.0702
  363MOL0     H47870   2.798   8.387   1.094 -0.4430  0.6403 -0.2831
  363MOL0     H47871   2.714   8.435   0.946  0.8441  0.5405  0.0396
  363MOL0     H47872   2.926   8.207   0.942  0.9834  0.1254 -2.5637
  363MOL0     H47873   2.965   8.374   0.914  0.8376  0.7709  0.8625
  363MOL0     H47874   2.838   8.400   0.726  0.3994  0.7035  1.7229
  363MOL0     H47875   2.947   8.262   0.711 -1.1245 -0.8242 -1.0895
  363MOL0     H47876   2.650   8.276   0.692 -1.6581 -1.9330  1.5492
  363MOL0     H47877   2.742   8.118   0.709  0.2368  0.0960 -1.4142
  363MOL0     H47878   2.527   8.137   0.569  0.6648 -0.7129  1.2121
  363MOL0     H47879   2.404   8.032   0.398  0.8443 -0.8367  1.9404
  363MOL0     H47880   2.422   7.749  -0.020 -0.8387  2.2095  1.1772
  363MOL0     H47881   2.259   7.623  -0.155  0.2930  3.9404 -3.8401
  363MOL0     H47882   2.070   7.533  -0.266 -1.1570 -0.7856 -0.4958
  363MOL0     H47883   2.061   7.705  -0.315 -3.1039  0.4173 -2.9641
  363MOL0     H47884   1.821   7.682  -0.312  0.3353  1.2360 -1.0340
  363MOL0     H47885   1.828   7.508  -0.279  2.7946 -1.3903  1.3656
  363MOL0     H47886   1.959   7.479  -0.493  1.3810  1.9363 -0.3385
  363MOL0     H47887   1.953   7.658  -0.509  0.6133  1.2375  2.4812
  363MOL0     H47888   1.718   7.661  -0.549  1.2955  0.2210  1.9201
  363MOL0     H47889   1.795   7.557  -0.666  0.3988  0.1930 -0.2573
  363MOL0     H47890   1.614   7.461  -0.429 -1.5596 -3.3776  0.5222
  363MOL0     H47891   1.747   7.365  -0.494  0.3115 -0.0662 -3.2570
  363MOL0     H47892   1.514   7.309  -0.594  0.0361 -1.1201 -0.5381
  363MOL0     H47893   1.630   7.343  -0.714  0.6095 -0.5573  0.8673
  363MOL0     H47894   1.539   7.582  -0.717 -1.6291  2.5566  3.2108
  363MOL0     H47895   1.431   7.458  -0.771  0.2628  1.9761 -0.4973
  363MOL0     H47896   1.353   7.643  -0.607  1.1939  0.7203  1.3233
  363MOL0     H47897   1.434   7.565  -0.478  1.1180  1.6550 -1.2017
  363MOL0     H47898   1.934   7.803   0.058  0.0106  0.3505 -0.4502
  363MOL0     H47899   2.102   7.916   0.220 -0.1997  1.4171 -0.8543
  363MOL0     H47900   2.760   8.000   0.155  1.2238  0.9940 -1.3390
  363MOL0     H47901   2.871   8.161   0.307  0.1629  0.8572 -0.5490
  363MOL0     H47902   1.628   8.320   1.447  0.1677 -1.4712 -1.3257
  363MOL0     H47903   1.423   8.236   1.378 -0.1827 -2.8824 -0.3334
  363MOL0     H47904   1.163   7.839   1.514 -1.2370  1.1427  2.2491
  363MOL0     H47905   1.007   7.689   1.481  0.9844  1.1631  1.6017
  363MOL0     H47906   0.774   7.656   1.561 -1.5335 -0.5724 -0.0853
  363MOL0     H47907   0.830   7.554   1.424 -1.0442 -3.3241  0.7573
  363MOL0     H47908   0.606   7.528   1.343  4.7647 -1.6220 -1.1007
  363MOL0     H47909   0.641   7.436   1.483 -0.2424  0.1132  0.4591
  363MOL0     H47910   0.474   7.694   1.456 -0.8022 -0.0422 -0.5789
  363MOL0     H47911   0.533   7.649   1.612 -0.6213 -1.6531 -0.0935
  363MOL0     H47912   0.434   7.414   1.579  2.4195  0.5908  0.5928
  363MOL0     H47913   0.322   7.539   1.611 -0.4204  0.6147 -1.5223
  363MOL0     H47914   0.205   7.454   1.208 -1.1866  0.9587  0.1216
  363MOL0     H47915   0.746   7.964   1.298  1.2209 -1.7219 -2.9111
  363MOL0     H47916   0.922   8.146   1.330  3.3133  0.1601 -2.2095
  364MOL0     O47917   8.492   2.047   9.231  0.1343 -0.1235 -0.0939
  364MOL0     C47918   8.552   2.063   9.343  0.3299 -0.1026 -0.2059
  364MOL0     O47919   8.497   2.123   9.455  0.8180  0.6119 -0.2460
  364MOL0     C47920   8.364   2.146   9.460 -0.3400  0.8390  1.3552
  364MOL0     C47921   8.331   2.275   9.495  0.0856 -0.6273 -0.5009
  364MOL0     C47922   8.194   2.318   9.504  0.3813  0.1904  0.5732
  364MOL0     C47923   8.094   2.236   9.439  0.6065  1.3544 -0.5304
  364MOL0     O47924   7.959   2.248   9.436  0.0942 -0.0043 -0.6956
  364MOL0     C47925   7.906   2.327   9.542  0.2312 -0.7198  0.8416
  364MOL0     C47926   7.754   2.328   9.558  0.7251 -0.1319  0.2415
  364MOL0     C47927   7.715   2.187   9.594 -0.6303  0.2483 -0.7156
  364MOL0     C47928   7.571   2.184   9.632  0.1640  0.3736 -0.8655
  364MOL0     C47929   7.542   2.057   9.705 -0.1888  0.3803  0.0042
  364MOL0     C47930   7.389   2.041   9.725 -0.9603  0.1225  0.2526
  364MOL0     C47931   7.364   1.897   9.757 -0.7340 -0.0680 -0.0033
  364MOL0     C47932   7.222   1.876   9.801  0.6358  0.6448  0.2009
  364MOL0     N47933   7.200   1.914   9.942 -0.2449  0.0894 -0.2374
  364MOL0     C47934   7.092   1.984  10.002  0.0345  0.4442 -0.2038
  364MOL0     C47935   7.129   1.990  10.134 -0.2317  0.9117  0.9044
  364MOL0     C47936   7.032   2.045  10.228 -0.2393 -0.5102  0.2007
  364MOL0     C47937   7.085   2.175  10.295 -0.4694 -0.6848 -0.1053
  364MOL0     C47938   6.998   2.213  10.412  0.0261  0.1723 -0.2734
  364MOL0     C47939   6.911   2.326  10.371 -0.3129  0.0030  0.2648
  364MOL0     O47940   6.830   2.286  10.254 -0.2041  0.3206 -0.0668
  364MOL0     C47941   6.751   2.365  10.179 -0.9629  0.5256  0.0148
  364MOL0     C47942   6.677   2.315  10.075  0.6129  0.3854  0.4805
  364MOL0     C47943   6.594   2.391   9.994  0.6649 -0.0814  0.2030
  364MOL0     C47944   6.581   2.527  10.032 -0.0630 -0.2726  0.5400
  364MOL0     C47945   6.511   2.616   9.939  0.2173  0.1703  1.4709
  364MOL0     O47946   6.437   2.547   9.846 -0.4212 -0.1411 -0.4562
  364MOL0     C47947   6.391   2.618   9.741  0.7105  0.2181  0.1780
  364MOL0     C47948   6.248   2.617   9.727 -0.1418  0.3361  0.2141
  364MOL0     C47949   6.188   2.655   9.611 -0.0518 -0.4973  0.0248
  364MOL0     C47950   6.259   2.698   9.497 -0.3737 -0.5408 -1.0826
  364MOL0     O47951   6.195   2.732   9.381 -0.1279 -0.3584  0.6925
  364MOL0     C47952   6.239   2.848   9.310  1.0342  0.7153  0.8099
  364MOL0     C47953   6.235   2.978   9.378  0.0247 -0.7287  1.1284
  364MOL0     C47954   6.097   3.044   9.401 -0.2531  0.3486  0.5348
  364MOL0     C47955   6.122   3.177   9.468 -0.0694  0.4744  0.2222
  364MOL0     C47956   5.985   3.246   9.515  0.1458  0.1958  0.4392
  364MOL0     C47957   5.926   3.333   9.404 -0.2255 -0.3797 -0.5327
  364MOL0     C47958   5.781   3.383   9.441 -0.0002  0.7950  0.5373
  364MOL0     C47959   5.722   3.485   9.344 -0.5858  0.4085  0.0637
  364MOL0    Cl47960   5.836   3.626   9.326 -0.5314 -0.0011 -0.0699
  364MOL0     C47961   6.405   2.710   9.518  0.0451 -0.4321 -0.0385
  364MOL0     C47962   6.467   2.663   9.635 -0.3095 -0.5899  0.3339
  364MOL0     O47963   6.523   2.735   9.940  0.0446 -0.6084 -0.7061
  364MOL0     C47964   6.643   2.581  10.142 -0.2532  0.6726  0.2801
  364MOL0     C47965   6.729   2.502  10.211 -0.6769  0.5054 -1.0348
  364MOL0     N47966   7.254   1.944  10.156 -0.2380  1.1665 -0.0553
  364MOL0     N47967   7.292   1.892  10.043 -0.8608  0.2360  0.1810
  364MOL0     C47968   8.138   2.102   9.406  0.1860 -0.2159  1.1194
  364MOL0     C47969   8.271   2.064   9.404  0.5194  0.5171  0.6610
  364MOL0     C47970   8.686   1.996   9.352 -0.8287 -0.7657 -0.0459
  364MOL0     C47971   8.734   1.904   9.259  0.5732 -0.5956 -0.7234
  364MOL0     C47972   8.862   1.849   9.265  0.3612  0.4391 -0.2296
  364MOL0     C47973   8.943   1.874   9.373  1.2740  0.1056 -1.6904
  364MOL0     O47974   9.052   1.798   9.377 -0.4331  0.3937 -0.0330
  364MOL0     C47975   9.144   1.796   9.485  0.1238  0.3786  0.5436
  364MOL0     C47976   9.248   1.692   9.455 -0.9372  1.1439 -0.0162
  364MOL0     C47977   9.194   1.558   9.403 -0.0152 -0.0559  0.2439
  364MOL0     C47978   9.223   1.569   9.248 -0.3566 -0.2539  0.8699
  364MOL0     C47979   9.189   1.447   9.176  0.4725  0.8158 -1.1712
  364MOL0     C47980   9.166   1.343   9.124 -0.3052 -0.1698 -0.0559
  364MOL0     C47981   8.904   1.961   9.467  0.0348 -0.8241 -0.8758
  364MOL0     C47982   8.776   2.025   9.461  0.1373 -0.3746  0.5426
  364MOL0     H47983   8.412   2.338   9.531  0.0868 -0.7094 -0.3568
  364MOL0     H47984   8.176   2.416   9.547  0.1635  0.2197  0.4168
  364MOL0     H47985   7.932   2.432   9.524 -0.2339 -0.6903  0.3201
  364MOL0     H47986   7.934   2.287   9.640  0.0995 -3.0478 -0.0034
  364MOL0     H47987   7.714   2.347   9.458  3.0112 -1.3371 -0.9960
  364MOL0     H47988   7.731   2.409   9.628  0.2302 -0.2228  0.1853
  364MOL0     H47989   7.775   2.152   9.679 -0.6397  1.2263 -0.2909
  364MOL0     H47990   7.729   2.122   9.507  0.3973  0.2055 -0.5365
  364MOL0     H47991   7.547   2.274   9.690 -0.8218 -0.3002 -0.1999
  364MOL0     H47992   7.511   2.198   9.541 -2.1868  0.8302  0.6678
  364MOL0     H47993   7.597   2.052   9.799  0.2469 -0.8669 -0.2938
  364MOL0     H47994   7.584   1.977   9.643 -1.3795  0.5869 -1.1175
  364MOL0     H47995   7.344   2.069   9.630 -0.9953 -2.7558 -0.6759
  364MOL0     H47996   7.353   2.101   9.810 -2.5044  0.3837 -0.5519
  364MOL0     H47997   7.386   1.836   9.669 -1.0533  3.2053 -2.5559
  364MOL0     H47998   7.430   1.870   9.840  0.4169  1.3541 -0.4104
  364MOL0     H47999   7.213   1.767   9.795  0.1017  0.6255  1.2258
  364MOL0     H48000   7.147   1.925   9.738  1.8012 -1.1820 -2.8141
  364MOL0     H48001   7.002   2.022   9.956 -0.3692  0.8495  0.8791
  364MOL0     H48002   7.011   1.969  10.302 -3.1735 -1.2573 -1.2663
  364MOL0     H48003   6.942   2.075  10.174 -1.0796 -1.4057  1.0817
  364MOL0     H48004   7.092   2.255  10.220  0.6140 -0.2339  0.4612
  364MOL0     H48005   7.187   2.151  10.325 -0.7584 -0.2268  1.3461
  364MOL0     H48006   6.941   2.129  10.452  0.6896 -0.2440 -0.1896
  364MOL0     H48007   7.051   2.252  10.500  1.6788  2.1733 -2.0229
  364MOL0     H48008   6.961   2.417  10.338 -0.1554 -0.7791 -1.8416
  364MOL0     H48009   6.840   2.352  10.450 -1.5000  0.0050 -0.7632
  364MOL0     H48010   6.679   2.212  10.042 -2.8722 -0.5920  2.7376
  364MOL0     H48011   6.527   2.347   9.921 -0.7679  1.2932  0.6568
  364MOL0     H48012   6.188   2.569   9.804  1.0995 -2.9537 -0.6836
  364MOL0     H48013   6.081   2.660   9.594 -0.1756  2.4891  0.9990
  364MOL0     H48014   6.174   2.857   9.223 -0.6416 -1.4896  1.7326
  364MOL0     H48015   6.344   2.841   9.279  1.1963  1.7466  1.0833
  364MOL0     H48016   6.291   3.049   9.316 -2.1461  1.1333  1.1351
  364MOL0     H48017   6.289   2.970   9.473  0.2217 -0.8680  1.0044
  364MOL0     H48018   6.035   2.977   9.462 -1.3637  0.7792 -0.0941
  364MOL0     H48019   6.046   3.046   9.304  1.4586 -1.4238 -0.4620
  364MOL0     H48020   6.182   3.153   9.557  1.1316  1.3373 -0.3281
  364MOL0     H48021   6.177   3.251   9.410 -1.7433  2.0029  0.4957
  364MOL0     H48022   6.011   3.299   9.607  2.0626  0.3637 -0.1387
  364MOL0     H48023   5.914   3.170   9.545  1.8029 -1.1810  1.0280
  364MOL0     H48024   5.916   3.284   9.306  2.8752  0.5763 -1.4296
  364MOL0     H48025   5.998   3.414   9.386 -1.7092  1.0780 -0.1820
  364MOL0     H48026   5.716   3.296   9.453  2.1370 -0.8832  0.5335
  364MOL0     H48027   5.799   3.429   9.539 -0.6891  5.0633 -1.1349
  364MOL0     H48028   5.626   3.518   9.384 -0.0677  0.0771  1.6375
  364MOL0     H48029   5.702   3.431   9.251 -0.2264  1.9462 -0.9422
  364MOL0     H48030   6.460   2.765   9.442  0.2946 -0.4982  0.0959
  364MOL0     H48031   6.572   2.687   9.646 -0.6518  1.0437  0.3290
  364MOL0     H48032   6.627   2.685  10.169  0.3911  0.7578  0.3593
  364MOL0     H48033   6.782   2.542  10.296  0.2175 -0.6831 -1.0037
  364MOL0     H48034   8.069   2.032   9.360  0.5134  1.2755 -1.8382
  364MOL0     H48035   8.303   1.967   9.367 -0.7506  0.7932 -1.3453
  364MOL0     H48036   8.667   1.866   9.183 -0.5788 -1.0118  0.4630
  364MOL0     H48037   8.900   1.790   9.183  0.6594  1.4903 -0.8597
  364MOL0     H48038   9.090   1.759   9.573  0.6200 -0.4978  0.4958
  364MOL0     H48039   9.189   1.888   9.523 -3.1150  2.6169 -0.6219
  364MOL0     H48040   9.320   1.747   9.393 -2.1495  3.6587  0.6832
  364MOL0     H48041   9.300   1.662   9.546  1.1828 -3.1995 -2.3175
  364MOL0     H48042   9.089   1.543   9.429  0.2363 -0.3046  1.1534
  364MOL0     H48043   9.243   1.475   9.455 -2.5619 -1.5531  0.4051
  364MOL0     H48044   9.162   1.651   9.208 -1.0466 -0.3763  1.6505
  364MOL0     H48045   9.330   1.586   9.234  0.1146 -2.4014  1.4567
  364MOL0     H48046   9.162   1.255   9.063 -1.0721 -0.1994  0.0302
  364MOL0     H48047   8.974   1.986   9.546  1.5324 -2.4829 -1.6164
  364MOL0     H48048   8.738   2.100   9.530 -0.6354  0.3319 -0.6100
  365MOL0     O48049   0.229   3.731   9.287  0.3244  0.0946 -0.1795
  365MOL0     C48050   0.127   3.786   9.237  0.1845  1.1332 -0.2529
  365MOL0     O48051   0.120   3.915   9.198  0.7437  0.2488 -0.0916
  365MOL0     C48052   0.229   3.988   9.149 -0.3183  0.4437  0.1073
  365MOL0     C48053   0.216   4.126   9.169 -0.1981 -1.1691  0.1248
  365MOL0     C48054   0.314   4.207   9.124  0.8256 -0.2148 -0.0731
  365MOL0     C48055   0.436   4.160   9.069  0.2845 -0.2678 -0.0132
  365MOL0     O48056   0.533   4.248   9.029 -0.3848 -0.7156  0.0455
  365MOL0     C48057   0.536   4.368   9.096  0.3142  0.0231  0.2133
  365MOL0     C48058   0.662   4.443   9.069  0.0421 -0.1913  0.1765
  365MOL0     C48059   0.790   4.378   9.124 -0.7722  0.1945  0.0192
  365MOL0     C48060   0.899   4.479   9.149 -0.4549 -0.2245  0.2436
  365MOL0     C48061   1.042   4.438   9.110  0.7445 -0.2658  0.6043
  365MOL0     C48062   1.139   4.558   9.129 -0.4356 -0.0313 -0.7516
  365MOL0     C48063   1.152   4.613   9.280 -0.0321 -0.1480 -0.3632
  365MOL0     C48064   1.265   4.724   9.288 -0.4267  0.3440 -0.0964
  365MOL0     N48065   1.242   4.846   9.202  0.3148  0.3222  0.7470
  365MOL0     C48066   1.148   4.941   9.213  0.8328 -0.0161 -0.2031
  365MOL0     C48067   1.145   4.997   9.095  0.5420 -1.4789  0.2884
  365MOL0     C48068   1.037   5.085   9.045  0.7129 -0.5038  0.7248
  365MOL0     C48069   0.893   5.048   9.098 -0.8057 -0.1058  0.6928
  365MOL0     C48070   0.779   5.129   9.037 -0.0149 -0.3860 -0.7585
  365MOL0     C48071   0.788   5.276   9.063  0.0249 -0.2269  0.0944
  365MOL0     O48072   0.799   5.313   9.195 -0.1460 -0.7731 -0.1617
  365MOL0     C48073   0.695   5.276   9.284 -0.4085 -0.1006  0.9573
  365MOL0     C48074   0.565   5.240   9.242 -1.4654 -0.8580 -0.1360
  365MOL0     C48075   0.478   5.216   9.343  0.8438 -0.2155 -0.2375
  365MOL0     C48076   0.512   5.208   9.483 -1.1817  0.3529  0.3830
  365MOL0     C48077   0.411   5.173   9.592 -0.1539 -0.0352  0.6757
  365MOL0     O48078   0.283   5.163   9.546  0.0457 -0.8668 -0.7088
  365MOL0     C48079   0.176   5.184   9.631  0.0068  0.9662 -0.2907
  365MOL0     C48080   0.060   5.118   9.598 -0.6456 -0.2672  0.4960
  365MOL0     C48081  -0.050   5.113   9.685 -0.3154  1.1018 -0.6679
  365MOL0     C48082  -0.054   5.184   9.804  0.1059  0.2034 -0.0252
  365MOL0     O48083  -0.160   5.167   9.889 -0.1005  0.4513 -0.3156
  365MOL0     C48084  -0.169   5.251  10.008  0.2150 -0.0218 -0.0190
  365MOL0     C48085  -0.311   5.234  10.064 -0.1858 -0.0787 -0.6219
  365MOL0     C48086  -0.337   5.372  10.135 -0.0646 -0.3977  0.1138
  365MOL0     C48087  -0.463   5.359  10.220 -0.2360  0.5666  0.0087
  365MOL0     C48088  -0.602   5.362  10.162 -0.1753 -0.0352 -0.3646
  365MOL0     C48089  -0.711   5.281  10.233  1.0038  0.0192  0.2350
  365MOL0     C48090  -0.708   5.127  10.205  0.1045 -0.0672 -0.0292
  365MOL0     C48091  -0.814   5.055  10.277 -0.5479  0.1693  0.5715
  365MOL0    Cl48092  -0.976   5.087  10.207 -0.3123  0.4496  0.0612
  365MOL0     C48093   0.054   5.267   9.831  0.5141  0.2637  0.5095
  365MOL0     C48094   0.174   5.258   9.746 -0.1747  0.1114 -0.1039
  365MOL0     O48095   0.455   5.150   9.705 -0.3876 -0.7828  0.2904
  365MOL0     C48096   0.641   5.242   9.519  0.4354 -0.3823 -0.2936
  365MOL0     C48097   0.739   5.267   9.421  0.1782 -0.5045 -0.2396
  365MOL0     N48098   1.229   4.934   9.009  1.2555 -0.0476  0.1142
  365MOL0     N48099   1.295   4.858   9.077 -0.4530  0.4027 -0.1924
  365MOL0     C48100   0.457   4.022   9.055  0.3347  0.7945 -1.0308
  365MOL0     C48101   0.356   3.935   9.094  0.1048  0.5359 -0.9462
  365MOL0     C48102   0.006   3.708   9.220  0.3689  0.4210  0.4443
  365MOL0     C48103  -0.121   3.775   9.213 -0.6388 -0.1764  0.2222
  365MOL0     C48104  -0.244   3.703   9.227 -0.0574  0.2587  0.4528
  365MOL0     C48105  -0.231   3.564   9.248 -0.5059  0.5379  0.2565
  365MOL0     O48106  -0.335   3.479   9.268  0.7267  0.0794 -0.1296
  365MOL0     C48107  -0.470   3.527   9.262 -0.2591 -0.3180  1.0925
  365MOL0     C48108  -0.551   3.410   9.320 -0.1413  0.3380  0.6620
  365MOL0     C48109  -0.699   3.434   9.363 -0.4023  0.7143 -0.5922
  365MOL0     C48110  -0.755   3.305   9.436 -0.0281  0.1935 -0.5347
  365MOL0     C48111  -0.902   3.325   9.480 -0.0809 -0.0660  0.6140
  365MOL0     C48112  -1.020   3.346   9.489  0.2344  0.0145  0.4646
  365MOL0     C48113  -0.107   3.498   9.249  0.5693  0.0894  0.2152
  365MOL0     C48114   0.008   3.567   9.243  0.6915  0.2908  0.1940
  365MOL0     H48115   0.133   4.170   9.224 -0.1700 -1.4339  0.3784
  365MOL0     H48116   0.294   4.310   9.152  0.1713 -1.1371  3.2273
  365MOL0     H48117   0.525   4.347   9.203  0.0119 -0.4901  0.0839
  365MOL0     H48118   0.452   4.432   9.067  1.8921  2.2146  0.2161
  365MOL0     H48119   0.645   4.537   9.123 -1.5320 -1.5456  2.2045
  365MOL0     H48120   0.674   4.458   8.962 -0.6430 -0.0537  0.1161
  365MOL0     H48121   0.828   4.299   9.058  1.1130  1.3143 -0.3123
  365MOL0     H48122   0.763   4.346   9.226  2.1982  2.1661  1.5728
  365MOL0     H48123   0.866   4.573   9.102 -3.1291  0.1950  2.6961
  365MOL0     H48124   0.897   4.504   9.255  1.2896 -2.2411  0.8017
  365MOL0     H48125   1.031   4.406   9.006 -0.3921  1.6890  0.0759
  365MOL0     H48126   1.089   4.351   9.156  1.2272 -2.2878 -3.2789
  365MOL0     H48127   1.104   4.640   9.065 -0.0291 -1.6862 -3.2172
  365MOL0     H48128   1.238   4.534   9.088 -0.3260  0.5672 -0.8433
  365MOL0     H48129   1.063   4.670   9.307 -0.4301 -1.7882  2.0957
  365MOL0     H48130   1.171   4.533   9.353 -0.0977  0.0309 -0.1476
  365MOL0     H48131   1.365   4.683   9.272  1.0915  2.3691  3.2093
  365MOL0     H48132   1.275   4.761   9.391  3.6179  2.2135 -0.9850
  365MOL0     H48133   1.083   4.963   9.297 -1.6367  1.5493 -2.3786
  365MOL0     H48134   1.040   5.079   8.935 -2.6677 -0.0638  0.4834
  365MOL0     H48135   1.057   5.187   9.080 -0.1961 -0.9469  2.6589
  365MOL0     H48136   0.900   5.058   9.207  1.2892 -0.3567  0.6227
  365MOL0     H48137   0.884   4.943   9.069  3.1823 -1.1619  2.5073
  365MOL0     H48138   0.771   5.107   8.930  0.1689 -1.7919 -0.5006
  365MOL0     H48139   0.688   5.097   9.088 -0.1202  1.7852  0.5281
  365MOL0     H48140   0.692   5.318   9.032 -0.3350  0.3816  1.9225
  365MOL0     H48141   0.871   5.311   9.001 -0.8682 -1.6391 -2.0369
  365MOL0     H48142   0.535   5.237   9.137 -0.1555 -2.9652 -0.5111
  365MOL0     H48143   0.381   5.178   9.313 -0.1624  1.6437  0.4778
  365MOL0     H48144   0.050   5.080   9.497 -1.9544  0.8041  0.2105
  365MOL0     H48145  -0.138   5.053   9.663 -0.3621 -0.1192  2.3827
  365MOL0     H48146  -0.156   5.349   9.961 -0.2655  0.3545  0.6181
  365MOL0     H48147  -0.092   5.233  10.082 -0.1418 -0.0643  0.3459
  365MOL0     H48148  -0.322   5.152  10.136  0.9487  1.9564  2.0203
  365MOL0     H48149  -0.377   5.223   9.977  1.4429 -1.0127 -1.8131
  365MOL0     H48150  -0.349   5.452  10.061 -2.9387  0.7129  1.6032
  365MOL0     H48151  -0.257   5.401  10.203  1.0842  1.7746 -2.0287
  365MOL0     H48152  -0.457   5.264  10.274  2.8515  0.4074 -0.4052
  365MOL0     H48153  -0.467   5.430  10.303 -1.2732 -0.9433  1.2951
  365MOL0     H48154  -0.594   5.327  10.058  0.3928 -2.4900  0.4254
  365MOL0     H48155  -0.634   5.466  10.163 -1.0105 -0.2762  0.3591
  365MOL0     H48156  -0.805   5.313  10.189  0.3196 -0.2549  1.4463
  365MOL0     H48157  -0.738   5.299  10.338 -2.3558 -1.8398 -0.1661
  365MOL0     H48158  -0.718   5.098  10.100  2.0221 -0.2964 -0.1734
  365MOL0     H48159  -0.606   5.094  10.224  1.1010  2.7114 -0.1548
  365MOL0     H48160  -0.811   5.069  10.385 -1.5120 -0.7148  0.7219
  365MOL0     H48161  -0.791   4.950  10.260 -1.4316  0.3694 -2.4777
  365MOL0     H48162   0.054   5.320   9.926  0.5817  0.7255  0.2526
  365MOL0     H48163   0.268   5.301   9.781  0.9936 -3.2521  1.3598
  365MOL0     H48164   0.672   5.237   9.623  1.4047  1.9231 -0.4284
  365MOL0     H48165   0.837   5.304   9.447 -1.1464  2.3084  1.2675
  365MOL0     H48166   0.559   3.989   9.036  0.0221 -1.2329  0.5008
  365MOL0     H48167   0.371   3.827   9.096 -0.7683  0.4032  1.2388
  365MOL0     H48168  -0.137   3.881   9.225  0.6391  0.0679 -0.0595
  365MOL0     H48169  -0.336   3.758   9.239  1.0275  2.4770 -0.7461
  365MOL0     H48170  -0.501   3.555   9.161  0.3502 -1.6535  0.5061
  365MOL0     H48171  -0.480   3.617   9.323  1.0983  1.0034 -0.5246
  365MOL0     H48172  -0.554   3.333   9.241  1.6489  1.1933 -0.3066
  365MOL0     H48173  -0.494   3.368   9.403  0.3320  3.1753  1.8788
  365MOL0     H48174  -0.754   3.449   9.270  0.1098  0.5491 -0.9228
  365MOL0     H48175  -0.707   3.520   9.431  0.3791 -0.7512  1.4406
  365MOL0     H48176  -0.744   3.224   9.363 -0.9413 -0.1049 -0.3603
  365MOL0     H48177  -0.692   3.277   9.520 -0.6873 -1.1447 -0.4528
  365MOL0     H48178  -1.127   3.348   9.490  0.2151  0.4958 -0.6957
  365MOL0     H48179  -0.107   3.392   9.273 -2.4265 -0.6073 -2.1613
  365MOL0     H48180   0.106   3.527   9.267  0.9905  0.4810 -0.6651
  366MOL0     O48181   8.507   4.591   9.318 -0.0385  0.5348  0.1117
  366MOL0     C48182   8.514   4.644   9.429 -0.4268  0.2031  0.5142
  366MOL0     O48183   8.410   4.714   9.493  0.3735  0.4340  1.0799
  366MOL0     C48184   8.283   4.715   9.429 -0.1483 -0.3485 -0.1479
  366MOL0     C48185   8.228   4.824   9.369 -0.3245  0.1970  0.0601
  366MOL0     C48186   8.102   4.823   9.318 -0.3023  0.3698  0.6523
  366MOL0     C48187   8.010   4.717   9.338  0.1434  0.1820  0.2881
  366MOL0     O48188   7.880   4.711   9.296  0.7063  0.3538  0.0537
  366MOL0     C48189   7.826   4.827   9.237  0.2271 -1.1126  0.8646
  366MOL0     C48190   7.850   4.831   9.082  0.2450  0.1915 -1.1396
  366MOL0     C48191   7.802   4.707   9.009  0.5073  0.1849  0.7165
  366MOL0     C48192   7.864   4.699   8.874  0.8550 -0.1194 -0.8818
  366MOL0     C48193   7.799   4.597   8.789 -0.6982  0.3946 -0.3729
  366MOL0     C48194   7.864   4.589   8.650 -0.1807 -0.1968 -0.0317
  366MOL0     C48195   7.809   4.709   8.566 -0.3932 -0.4683 -0.2323
  366MOL0     C48196   7.782   4.678   8.415  0.1563 -0.9066  0.3344
  366MOL0     N48197   7.903   4.668   8.328  0.4918  0.1429 -0.3521
  366MOL0     C48198   7.901   4.670   8.191  0.2839  0.3954 -0.0061
  366MOL0     C48199   8.027   4.653   8.150 -0.2770 -0.0214  1.5898
  366MOL0     C48200   8.051   4.636   8.003  0.0269 -0.1242  0.2587
  366MOL0     C48201   8.005   4.495   7.938 -0.4676  0.2301  0.1394
  366MOL0     C48202   8.082   4.477   7.805  0.2619 -0.8559 -1.1882
  366MOL0     C48203   8.061   4.339   7.743  0.5662  0.5614  0.7402
  366MOL0     O48204   7.924   4.289   7.738 -0.1103 -0.9075 -0.3077
  366MOL0     C48205   7.837   4.327   7.645  0.6621  0.1709  0.1922
  366MOL0     C48206   7.868   4.349   7.509  0.0260  0.2174 -0.1200
  366MOL0     C48207   7.771   4.391   7.422  0.6508 -0.1892  0.1797
  366MOL0     C48208   7.634   4.385   7.463 -0.2255 -0.0208  0.6587
  366MOL0     C48209   7.522   4.419   7.365  1.0734  0.2652  0.2726
  366MOL0     O48210   7.400   4.467   7.412  1.0219 -0.3222  0.3246
  366MOL0     C48211   7.289   4.460   7.326 -1.3434  0.1825 -0.4385
  366MOL0     C48212   7.264   4.351   7.250  0.0487  0.7439  0.6805
  366MOL0     C48213   7.141   4.358   7.169 -0.0563  0.2374 -0.1940
  366MOL0     C48214   7.064   4.464   7.155  0.0861 -0.5172 -0.0943
  366MOL0     O48215   6.959   4.460   7.061 -0.0915  0.7089 -0.3143
  366MOL0     C48216   6.891   4.583   7.031  0.0781  0.3497  1.2654
  366MOL0     C48217   6.777   4.618   7.128 -0.0524 -0.7458 -0.0638
  366MOL0     C48218   6.669   4.505   7.154  0.1965 -0.2674  0.3433
  366MOL0     C48219   6.568   4.552   7.256  0.2026  0.6612  0.2055
  366MOL0     C48220   6.448   4.456   7.276  0.1896  0.0679 -0.9322
  366MOL0     C48221   6.325   4.511   7.335  0.0073 -0.7196 -0.2016
  366MOL0     C48222   6.222   4.394   7.343  0.2370  0.0925  0.2908
  366MOL0     C48223   6.105   4.421   7.443 -0.6780  0.3343  0.1213
  366MOL0    Cl48224   6.155   4.441   7.614 -0.3128 -0.3498 -0.0352
  366MOL0     C48225   7.096   4.579   7.237 -0.0976 -0.6546 -0.4140
  366MOL0     C48226   7.204   4.565   7.332 -0.2422 -0.0953  0.1010
  366MOL0     O48227   7.552   4.398   7.248 -0.2406 -0.5951 -0.6947
  366MOL0     C48228   7.606   4.368   7.595 -0.1379 -0.3594  0.2984
  366MOL0     C48229   7.702   4.339   7.688 -0.0832 -0.1820 -1.2811
  366MOL0     N48230   8.119   4.645   8.255  0.1837  0.2289  0.2874
  366MOL0     N48231   8.036   4.655   8.361  0.2869  0.3596  1.1793
  366MOL0     C48232   8.070   4.599   9.395  0.3076 -0.1128  0.5401
  366MOL0     C48233   8.207   4.601   9.431  0.0787  0.9187  0.0859
  366MOL0     C48234   8.645   4.661   9.507  0.1842 -0.6397  0.2995
  366MOL0     C48235   8.632   4.672   9.647  0.2542 -0.2679  0.1252
  366MOL0     C48236   8.752   4.687   9.718 -0.3478 -0.6884 -0.4464
  366MOL0     C48237   8.877   4.674   9.653  0.1888 -0.2328 -0.5768
  366MOL0     O48238   8.999   4.686   9.711  0.0451 -0.4373 -0.0051
  366MOL0     C48239   9.011   4.657   9.855  0.3347 -0.2055  0.8676
  366MOL0     C48240   9.154   4.629   9.885 -0.2458 -0.7567  0.6112
  366MOL0     C48241   9.178   4.593  10.033  0.8055 -0.1444 -0.8898
  366MOL0     C48242   9.312   4.524  10.051 -0.6559 -1.1877  0.5856
  366MOL0     C48243   9.422   4.598   9.977 -0.4559 -0.1274  0.2554
  366MOL0     C48244   9.511   4.668   9.931 -0.1250  0.2498 -0.3234
  366MOL0     C48245   8.882   4.661   9.512  0.5963 -0.2243 -0.1591
  366MOL0     C48246   8.772   4.663   9.440 -0.0550 -0.3883  0.3041
  366MOL0     H48247   8.281   4.917   9.351 -0.3537  0.2593  0.2945
  366MOL0     H48248   8.073   4.913   9.265 -1.6041 -0.8342 -0.7921
  366MOL0     H48249   7.867   4.921   9.276 -1.5426  0.0464  0.0698
  366MOL0     H48250   7.717   4.836   9.244  0.0738  2.4704 -2.8069
  366MOL0     H48251   7.956   4.841   9.058  0.1962  0.3804 -1.2781
  366MOL0     H48252   7.805   4.922   9.042  0.0001  0.0563 -1.1756
  366MOL0     H48253   7.694   4.698   9.023  0.7711 -2.8534  1.4588
  366MOL0     H48254   7.828   4.615   9.062  1.1549 -0.3135 -0.4325
  366MOL0     H48255   7.837   4.790   8.820 -1.4164  0.1505  0.5494
  366MOL0     H48256   7.973   4.692   8.879  0.8076 -0.6369  3.7325
  366MOL0     H48257   7.690   4.600   8.790 -0.8492 -2.5975  0.8837
  366MOL0     H48258   7.821   4.506   8.844  0.7501 -0.8000 -2.7277
  366MOL0     H48259   7.837   4.497   8.597 -0.6196  0.3235 -0.7286
  366MOL0     H48260   7.973   4.582   8.652 -0.1983 -0.4330  1.1667
  366MOL0     H48261   7.716   4.737   8.615 -1.4234 -1.0826 -1.7553
  366MOL0     H48262   7.878   4.793   8.583 -0.1668 -1.0585  2.1016
  366MOL0     H48263   7.724   4.762   8.375 -0.1342 -0.4436  1.6699
  366MOL0     H48264   7.720   4.588   8.403 -0.3690 -0.4711 -0.2520
  366MOL0     H48265   7.815   4.685   8.127 -0.9614 -0.8129  1.3188
  366MOL0     H48266   8.160   4.643   7.993  0.2868 -2.8491  0.5990
  366MOL0     H48267   8.004   4.720   7.950  0.6688  2.2357  3.1636
  366MOL0     H48268   7.896   4.490   7.934 -0.5031 -0.0397  1.1834
  366MOL0     H48269   8.043   4.412   7.998  1.7885 -1.2291 -3.0433
  366MOL0     H48270   8.050   4.555   7.736 -0.2635  0.6753  0.6902
  366MOL0     H48271   8.189   4.484   7.823 -0.1966 -0.0341  1.7554
  366MOL0     H48272   8.120   4.264   7.797  1.4975 -0.6158 -1.7801
  366MOL0     H48273   8.106   4.346   7.644 -2.4973  2.5384 -0.6729
  366MOL0     H48274   7.964   4.317   7.472  0.2638  0.5104  0.2410
  366MOL0     H48275   7.801   4.400   7.318 -0.1794  0.5855  0.0041
  366MOL0     H48276   7.325   4.262   7.242  2.1702  2.1680  0.1354
  366MOL0     H48277   7.105   4.267   7.123 -0.7188 -0.0151  0.8091
  366MOL0     H48278   6.849   4.570   6.931  2.2546  1.8636  0.0700
  366MOL0     H48279   6.958   4.670   7.024  0.6125  0.2341  3.9053
  366MOL0     H48280   6.735   4.717   7.105  0.7938 -0.3576  0.0140
  366MOL0     H48281   6.815   4.649   7.226 -3.9695 -1.9284  2.0489
  366MOL0     H48282   6.711   4.408   7.184 -2.1839 -1.0699  1.4112
  366MOL0     H48283   6.620   4.484   7.059 -0.3906 -1.3498  0.8608
  366MOL0     H48284   6.598   4.588   7.354 -3.9482  0.4685  1.7430
  366MOL0     H48285   6.526   4.636   7.200 -3.1572 -2.3654 -2.3611
  366MOL0     H48286   6.502   4.383   7.338 -3.3542 -1.4803  0.5615
  366MOL0     H48287   6.434   4.406   7.180  1.9866  1.9286 -2.2534
  366MOL0     H48288   6.291   4.599   7.279  1.3590  0.3021  0.5226
  366MOL0     H48289   6.344   4.548   7.436  1.9981  0.9655 -1.1265
  366MOL0     H48290   6.189   4.367   7.242 -1.4410  2.0581  0.2548
  366MOL0     H48291   6.274   4.308   7.386 -1.6087 -1.9198 -1.3304
  366MOL0     H48292   6.038   4.334   7.443  0.2252 -0.3811  0.5944
  366MOL0     H48293   6.047   4.511   7.422 -0.8931  0.0974 -0.3428
  366MOL0     H48294   7.037   4.670   7.234 -0.2749 -0.4386  3.8753
  366MOL0     H48295   7.234   4.639   7.405 -0.0281 -0.2863  0.2071
  366MOL0     H48296   7.504   4.381   7.631 -0.5838 -1.2295 -0.6124
  366MOL0     H48297   7.690   4.313   7.792  4.0090  3.2478  0.3346
  366MOL0     H48298   8.008   4.510   9.404  1.4753 -1.4585 -3.0566
  366MOL0     H48299   8.247   4.511   9.475 -0.4192  0.2452 -0.7992
  366MOL0     H48300   8.535   4.686   9.693  0.6784  3.7312  0.1587
  366MOL0     H48301   8.760   4.727   9.818 -0.9873 -0.1324 -0.6133
  366MOL0     H48302   8.971   4.557   9.874  1.5075 -1.1514 -1.3042
  366MOL0     H48303   8.968   4.741   9.910  1.5623  0.9523  0.1166
  366MOL0     H48304   9.185   4.555   9.810 -1.1366 -1.4987  0.9616
  366MOL0     H48305   9.209   4.723   9.879 -0.4383 -0.5646  1.6360
  366MOL0     H48306   9.099   4.523  10.061 -1.3841  2.3231 -0.5320
  366MOL0     H48307   9.166   4.679  10.099 -0.6620  1.3669 -2.9911
  366MOL0     H48308   9.358   4.519  10.150  0.6207  1.8342  0.2584
  366MOL0     H48309   9.310   4.427  10.001  1.1409 -0.2792 -1.4321
  366MOL0     H48310   9.581   4.730   9.879 -0.4117  2.8103  2.0874
  366MOL0     H48311   8.980   4.658   9.465  1.1220  0.2288  0.8655
  366MOL0     H48312   8.769   4.673   9.332 -3.0014 -1.1343  0.2309
  367MOL0     O48313   5.701   4.530   3.431  0.7999  0.4584 -0.2612
  367MOL0     C48314   5.726   4.480   3.538 -0.4831  0.5807 -0.4351
  367MOL0     O48315   5.629   4.431   3.628 -0.1634 -0.3147  0.3606
  367MOL0     C48316   5.499   4.460   3.590  0.0157 -0.6825 -0.7656
  367MOL0     C48317   5.442   4.379   3.486  0.6222  0.7792  0.5653
  367MOL0     C48318   5.325   4.415   3.422 -1.3270  0.6455  0.3377
  367MOL0     C48319   5.268   4.537   3.448  0.3009 -0.9838 -0.6218
  367MOL0     O48320   5.161   4.577   3.376  0.4673 -0.5352 -0.1223
  367MOL0     C48321   5.039   4.565   3.446  1.0665  0.2279  0.8959
  367MOL0     C48322   4.916   4.597   3.357  0.7008 -0.5572  0.1152
  367MOL0     C48323   4.897   4.514   3.232 -0.2620  0.0893 -0.3502
  367MOL0     C48324   4.770   4.543   3.160  0.8079  0.9091  0.4787
  367MOL0     C48325   4.713   4.430   3.066  0.2597 -0.0163 -0.1595
  367MOL0     C48326   4.576   4.471   3.009 -0.1534  0.4648  0.2535
  367MOL0     C48327   4.515   4.363   2.916  0.4897 -0.2369 -0.8790
  367MOL0     C48328   4.381   4.400   2.849 -0.1605 -0.3825 -0.4700
  367MOL0     N48329   4.319   4.271   2.791 -0.1516  0.2834 -0.6139
  367MOL0     C48330   4.373   4.181   2.703  0.3882 -0.2494 -0.3115
  367MOL0     C48331   4.270   4.107   2.659 -0.0873 -0.8311 -0.5481
  367MOL0     C48332   4.258   3.997   2.556  0.0714  0.1701  0.0544
  367MOL0     C48333   4.118   4.002   2.488 -0.7205 -1.4818 -0.5540
  367MOL0     C48334   4.106   3.875   2.396  0.6033 -0.0407 -0.2691
  367MOL0     C48335   3.975   3.858   2.321  0.3247 -0.7823  0.9614
  367MOL0     O48336   3.983   3.736   2.235 -0.1603 -0.1059 -0.4163
  367MOL0     C48337   3.862   3.686   2.191 -0.9488 -0.1103  0.0012
  367MOL0     C48338   3.862   3.556   2.138  0.0358  0.5956  0.3898
  367MOL0     C48339   3.738   3.483   2.105 -0.6656 -0.6216 -0.7815
  367MOL0     C48340   3.621   3.555   2.114  0.8074 -0.7543  0.6192
  367MOL0     C48341   3.490   3.503   2.072 -0.0358  0.0277  0.0525
  367MOL0     O48342   3.480   3.366   2.056 -0.1492 -0.4247  0.0355
  367MOL0     C48343   3.358   3.300   2.052  1.3005  0.2136  0.0189
  367MOL0     C48344   3.240   3.338   2.109 -0.0809 -0.5413 -0.1768
  367MOL0     C48345   3.125   3.257   2.094 -0.0042 -0.3426 -0.2915
  367MOL0     C48346   3.123   3.143   2.020  0.1971  1.0223  0.4095
  367MOL0     O48347   3.018   3.051   2.004 -0.6194 -1.2649 -0.2752
  367MOL0     C48348   2.890   3.116   2.011  0.1404 -0.0002 -0.3550
  367MOL0     C48349   2.783   3.021   1.970 -0.0215  0.6107 -0.8045
  367MOL0     C48350   2.792   2.964   1.834 -0.2312 -0.1508  0.3904
  367MOL0     C48351   2.697   2.841   1.828  0.8574 -0.2745 -0.8736
  367MOL0     C48352   2.670   2.813   1.678 -0.2352 -0.4418 -0.9530
  367MOL0     C48353   2.587   2.687   1.640  0.0597 -0.5287 -0.9716
  367MOL0     C48354   2.439   2.708   1.686  0.6539  0.0098 -0.1996
  367MOL0     C48355   2.362   2.581   1.662 -0.4226 -0.6919 -0.1680
  367MOL0    Cl48356   2.308   2.560   1.498 -0.1310 -0.4044 -0.0741
  367MOL0     C48357   3.246   3.102   1.968  0.4132 -0.5281 -0.4642
  367MOL0     C48358   3.358   3.182   1.987  0.8797  0.9897 -0.6309
  367MOL0     O48359   3.396   3.582   2.056  0.2653  0.2935 -0.2446
  367MOL0     C48360   3.622   3.685   2.157  0.3281  0.2743  1.0405
  367MOL0     C48361   3.739   3.748   2.200  0.0173  0.1794  0.2993
  367MOL0     N48362   4.161   4.146   2.728  0.3421 -0.0350  0.9607
  367MOL0     N48363   4.189   4.231   2.815  0.1256  0.1617  0.9004
  367MOL0     C48364   5.319   4.627   3.546  0.6220  0.4365 -0.0933
  367MOL0     C48365   5.434   4.585   3.618  0.8465 -0.9862  0.1059
  367MOL0     C48366   5.862   4.464   3.585 -0.0285  0.0153  0.4744
  367MOL0     C48367   5.966   4.516   3.508 -0.1314 -0.1489 -0.1979
  367MOL0     C48368   6.094   4.525   3.561 -0.0499  0.9339 -0.5009
  367MOL0     C48369   6.136   4.462   3.676  0.9019  0.4447 -0.1261
  367MOL0     O48370   6.266   4.467   3.711 -0.7380  0.5244  0.6848
  367MOL0     C48371   6.331   4.380   3.816 -0.4436  0.3770  0.7154
  367MOL0     C48372   6.488   4.413   3.803 -0.1198  0.3972  0.6480
  367MOL0     C48373   6.533   4.555   3.827 -0.2508 -0.1504 -0.9167
  367MOL0     C48374   6.687   4.583   3.816  0.2602 -0.0172 -0.1687
  367MOL0     C48375   6.699   4.728   3.848  0.8552  0.6878  0.2772
  367MOL0     C48376   6.721   4.844   3.879 -0.5313 -0.6899  0.1799
  367MOL0     C48377   6.036   4.388   3.748 -0.4939 -0.4111 -0.6093
  367MOL0     C48378   5.897   4.396   3.710  0.9874 -0.5510  0.5119
  367MOL0     H48379   5.492   4.285   3.464  2.3953  1.6776  0.5795
  367MOL0     H48380   5.272   4.353   3.350 -3.8666  1.9270  0.9911
  367MOL0     H48381   5.040   4.636   3.528  2.0956  1.8367 -0.4478
  367MOL0     H48382   5.028   4.462   3.482 -0.5719  0.0781  0.0823
  367MOL0     H48383   4.921   4.702   3.326 -0.4344  0.3461  2.7512
  367MOL0     H48384   4.834   4.582   3.427  1.2215 -0.7940  0.6874
  367MOL0     H48385   4.896   4.408   3.259  2.9175  0.0709 -0.0017
  367MOL0     H48386   4.988   4.544   3.180 -1.4605  2.5188 -1.2119
  367MOL0     H48387   4.691   4.565   3.232  1.2507  4.0151  0.1583
  367MOL0     H48388   4.785   4.634   3.101 -1.8087  1.5305  0.6396
  367MOL0     H48389   4.702   4.338   3.123  1.7873 -0.0395  0.1360
  367MOL0     H48390   4.778   4.425   2.978  2.6499  3.3619  1.2297
  367MOL0     H48391   4.577   4.576   2.977 -2.4495  0.7322  0.8798
  367MOL0     H48392   4.505   4.477   3.092 -0.5182 -1.5596  0.1425
  367MOL0     H48393   4.586   4.338   2.837  0.6364 -0.4158 -0.6928
  367MOL0     H48394   4.499   4.279   2.985  1.6654  1.3441  1.4379
  367MOL0     H48395   4.395   4.473   2.769 -0.3219 -0.8536 -0.9384
  367MOL0     H48396   4.314   4.430   2.929  2.7578  2.3708  1.1730
  367MOL0     H48397   4.470   4.189   2.655  0.3475  0.8018 -0.2487
  367MOL0     H48398   4.280   3.906   2.612 -2.6071 -0.0939  0.8326
  367MOL0     H48399   4.338   4.014   2.483 -1.4229 -2.5493 -2.4164
  367MOL0     H48400   4.117   4.097   2.434  1.6889 -1.8162 -1.3152
  367MOL0     H48401   4.036   4.007   2.560 -1.4206  1.4713 -1.4217
  367MOL0     H48402   4.188   3.867   2.325 -1.2627 -0.1227 -2.5131
  367MOL0     H48403   4.112   3.788   2.462 -1.2951  0.6783  0.9572
  367MOL0     H48404   3.964   3.946   2.258 -0.3373 -0.0528  2.0615
  367MOL0     H48405   3.894   3.849   2.394  0.0349  2.3592  1.1638
  367MOL0     H48406   3.955   3.499   2.135  0.3070  1.0524 -1.0118
  367MOL0     H48407   3.751   3.380   2.076  0.7744 -1.0293  1.1528
  367MOL0     H48408   3.239   3.423   2.177  1.2082  0.8071 -1.7387
  367MOL0     H48409   3.033   3.280   2.146  0.5179  0.8666  0.1393
  367MOL0     H48410   2.890   3.203   1.944 -2.3338 -0.5561 -1.2000
  367MOL0     H48411   2.860   3.156   2.109 -1.0455 -0.5428 -0.4766
  367MOL0     H48412   2.685   3.069   1.971 -0.5670 -0.4633 -0.4212
  367MOL0     H48413   2.785   2.945   2.049  0.6376  1.0398 -0.4008
  367MOL0     H48414   2.895   2.935   1.811  0.3677  0.7622  1.7850
  367MOL0     H48415   2.761   3.033   1.755 -1.5930 -1.8507 -0.6510
  367MOL0     H48416   2.749   2.755   1.870 -1.8542 -0.4863  2.5084
  367MOL0     H48417   2.607   2.864   1.886  1.1118  0.8438 -0.8997
  367MOL0     H48418   2.770   2.800   1.634  0.7336  2.0451  0.3051
  367MOL0     H48419   2.623   2.905   1.641  0.9030  1.1284  1.3149
  367MOL0     H48420   2.625   2.592   1.680 -1.4563 -2.3439 -3.5429
  367MOL0     H48421   2.580   2.680   1.531  1.8973 -3.3322 -1.0262
  367MOL0     H48422   2.445   2.733   1.793  0.1678 -3.3082  0.7380
  367MOL0     H48423   2.397   2.795   1.636 -1.0149 -0.2728  0.6193
  367MOL0     H48424   2.271   2.591   1.722 -1.0797  2.0432 -1.4493
  367MOL0     H48425   2.424   2.500   1.701 -0.6237  1.3143  5.1799
  367MOL0     H48426   3.247   3.014   1.905 -3.8880 -1.1147  0.0268
  367MOL0     H48427   3.451   3.170   1.933  0.9826 -0.9868 -0.1023
  367MOL0     H48428   3.536   3.751   2.157 -0.1288 -0.2589 -1.1181
  367MOL0     H48429   3.730   3.850   2.237 -1.9342  0.6220 -1.2364
  367MOL0     H48430   5.285   4.730   3.556  0.7520  0.3052  2.1253
  367MOL0     H48431   5.477   4.664   3.678  0.5583  0.4760 -1.5519
  367MOL0     H48432   5.937   4.573   3.420 -0.1027 -0.5403 -0.4643
  367MOL0     H48433   6.177   4.569   3.506  1.2305 -0.2756  0.4001
  367MOL0     H48434   6.310   4.273   3.814 -0.7547  0.4110  1.5262
  367MOL0     H48435   6.294   4.416   3.913 -1.2758  2.3884 -0.2945
  367MOL0     H48436   6.550   4.348   3.866 -0.3552 -0.1157  0.3604
  367MOL0     H48437   6.514   4.378   3.702  0.0372  0.3912  0.6889
  367MOL0     H48438   6.503   4.582   3.928  3.3159  2.4816 -0.4003
  367MOL0     H48439   6.486   4.618   3.751  1.1307 -0.1053 -1.7597
  367MOL0     H48440   6.750   4.532   3.890  0.6739 -2.1673 -1.9051
  367MOL0     H48441   6.724   4.563   3.715  0.6435 -1.8920  0.3039
  367MOL0     H48442   6.738   4.947   3.902 -0.4095  0.4509 -4.1169
  367MOL0     H48443   6.046   4.326   3.836 -1.1994  1.3608  0.7592
  367MOL0     H48444   5.822   4.357   3.778  2.6363 -1.6780  1.7520
  368MOL0     O48445   9.635   9.286  10.967  0.0675  0.0156 -0.1970
  368MOL0     C48446   9.618   9.241  10.854 -0.0625 -0.9060 -0.3302
  368MOL0     O48447   9.503   9.255  10.780 -0.6464  0.2202 -0.2216
  368MOL0     C48448   9.406   9.327  10.837 -0.0962 -0.0156  0.1903
  368MOL0     C48449   9.360   9.449  10.795 -0.5394 -0.2877  1.2366
  368MOL0     C48450   9.272   9.539  10.860  0.1155  0.4821 -0.1672
  368MOL0     C48451   9.185   9.481  10.954 -0.7084  0.0327  0.8575
  368MOL0     O48452   9.097   9.563  11.017  0.5855 -0.6801  0.6398
  368MOL0     C48453   8.977   9.490  11.066  0.5145 -0.9343  0.3142
  368MOL0     C48454   8.856   9.585  11.116  0.1832  0.1083  0.2865
  368MOL0     C48455   8.725   9.503  11.145 -0.8696 -0.0776 -0.1909
  368MOL0     C48456   8.609   9.599  11.153  0.3448  0.3931  0.0508
  368MOL0     C48457   8.468   9.536  11.141  0.3360 -0.4712  0.2988
  368MOL0     C48458   8.366   9.645  11.142 -0.3074  0.2151  0.4491
  368MOL0     C48459   8.225   9.589  11.154  0.3461 -0.1918 -0.6834
  368MOL0     C48460   8.209   9.537  11.307 -0.0157  0.4096 -0.6264
  368MOL0     N48461   8.064   9.533  11.335  0.3328 -0.0821 -0.6767
  368MOL0     C48462   7.968   9.621  11.297  0.6348  0.7053  0.0678
  368MOL0     C48463   7.859   9.568  11.360 -0.9915  0.7628 -0.5916
  368MOL0     C48464   7.720   9.619  11.331  0.2434  0.4477 -0.4285
  368MOL0     C48465   7.605   9.535  11.373  0.2856  0.2168  0.1874
  368MOL0     C48466   7.613   9.377  11.332 -0.7325  0.4218  0.8394
  368MOL0     C48467   7.485   9.314  11.377  0.7790  1.0280  0.8294
  368MOL0     O48468   7.374   9.372  11.315  0.9249 -0.6657 -0.1689
  368MOL0     C48469   7.251   9.312  11.336 -0.7089  0.9501  0.5391
  368MOL0     C48470   7.138   9.345  11.263  0.3373 -0.5123  0.5024
  368MOL0     C48471   7.012   9.286  11.277 -0.5163  0.6179 -0.1621
  368MOL0     C48472   6.992   9.175  11.362  0.1925  0.2628  0.1787
  368MOL0     C48473   6.868   9.111  11.392 -0.9218  0.7059  0.0971
  368MOL0     O48474   6.766   9.132  11.307 -0.0779 -0.0549  0.0663
  368MOL0     C48475   6.647   9.063  11.330 -1.0313  0.1934 -0.6223
  368MOL0     C48476   6.549   9.145  11.389 -0.5240 -0.0028  0.2975
  368MOL0     C48477   6.427   9.094  11.428  0.6215  0.6529  1.1493
  368MOL0     C48478   6.399   8.958  11.404  0.0124  0.3065  0.3320
  368MOL0     O48479   6.270   8.910  11.428  0.0485  0.0586  0.0847
  368MOL0     C48480   6.200   8.893  11.302 -0.0064  0.2451  0.3142
  368MOL0     C48481   6.107   8.765  11.309 -0.2761 -0.8760 -0.3427
  368MOL0     C48482   6.012   8.752  11.193  1.0552 -0.6419  0.2947
  368MOL0     C48483   5.896   8.649  11.200  1.3029  0.5958 -0.1986
  368MOL0     C48484   5.800   8.646  11.082  0.4440  0.2720  0.8135
  368MOL0     C48485   5.868   8.583  10.959 -0.1460 -0.0409 -0.1833
  368MOL0     C48486   5.787   8.579  10.824 -0.0305 -0.2592  0.2140
  368MOL0     C48487   5.881   8.518  10.719 -0.5280  0.0285  0.5382
  368MOL0    Cl48488   5.890   8.342  10.766  0.1275 -0.3176 -0.1551
  368MOL0     C48489   6.502   8.875  11.348 -0.9948 -0.8586  0.5940
  368MOL0     C48490   6.622   8.930  11.306 -0.1987  0.6255  0.3043
  368MOL0     O48491   6.850   9.055  11.502 -0.2512  0.2852  0.6787
  368MOL0     C48492   7.107   9.145  11.440 -0.2401  0.1015 -0.2296
  368MOL0     C48493   7.236   9.207  11.428  0.5470 -0.3687 -0.1564
  368MOL0     N48494   7.898   9.465  11.446 -0.7412  0.0062  0.1054
  368MOL0     N48495   8.022   9.441  11.427  0.3615  1.1921 -0.5027
  368MOL0     C48496   9.212   9.345  10.987 -0.1880 -0.3724 -0.1489
  368MOL0     C48497   9.324   9.273  10.933  0.0698  0.4085 -0.4320
  368MOL0     C48498   9.734   9.163  10.799  1.3201  0.3772 -0.2042
  368MOL0     C48499   9.854   9.155  10.872 -0.0054 -0.1175 -0.4503
  368MOL0     C48500   9.960   9.074  10.823 -0.5529 -0.4070  0.1518
  368MOL0     C48501   9.942   9.012  10.690 -0.9930 -0.1892  0.3873
  368MOL0     O48502  10.033   8.929  10.624  0.2820  0.7523 -0.4744
  368MOL0     C48503  10.169   8.964  10.635 -0.4792  0.2721  0.1338
  368MOL0     C48504  10.235   8.878  10.749  0.2864  0.9678  0.3189
  368MOL0     C48505  10.209   8.729  10.736  0.7479 -0.7509 -0.3573
  368MOL0     C48506  10.276   8.648  10.850  0.7649  0.5813 -0.6523
  368MOL0     C48507  10.422   8.650  10.857  0.4867  0.0438 -0.1444
  368MOL0     C48508  10.537   8.652  10.889 -0.0204 -0.6207  0.5371
  368MOL0     C48509   9.829   9.034  10.617 -0.0365  0.2632 -0.0163
  368MOL0     C48510   9.723   9.098  10.672 -0.5009 -0.6807  0.0732
  368MOL0     H48511   9.406   9.479  10.702 -1.4946 -2.5951 -0.0614
  368MOL0     H48512   9.245   9.636  10.819 -0.9640 -0.0978 -0.8711
  368MOL0     H48513   9.003   9.428  11.153  2.7069  1.1605  1.2858
  368MOL0     H48514   8.938   9.432  10.982 -0.0347 -0.5458  0.3026
  368MOL0     H48515   8.833   9.649  11.030 -2.5021  0.9820  1.5413
  368MOL0     H48516   8.887   9.644  11.203 -1.4671  0.5143  0.6198
  368MOL0     H48517   8.730   9.435  11.231  5.9916 -0.6847 -0.5054
  368MOL0     H48518   8.705   9.433  11.064  0.5913 -0.5658 -0.1657
  368MOL0     H48519   8.624   9.660  11.243  0.7367 -1.0337  0.9813
  368MOL0     H48520   8.619   9.671  11.072 -0.4709 -0.1357 -0.5243
  368MOL0     H48521   8.437   9.470  11.222 -4.2793  2.0388  0.9392
  368MOL0     H48522   8.457   9.488  11.043 -3.0739 -1.1706  0.9206
  368MOL0     H48523   8.369   9.705  11.051 -0.0685 -2.0219 -1.0980
  368MOL0     H48524   8.389   9.715  11.224  0.7033  2.8309 -1.8884
  368MOL0     H48525   8.157   9.672  11.137  0.7919  0.6499  1.3511
  368MOL0     H48526   8.205   9.509  11.083 -1.2329  1.0446 -1.6851
  368MOL0     H48527   8.257   9.606  11.378 -0.2067 -0.8593  0.7742
  368MOL0     H48528   8.264   9.444  11.326  0.2373 -0.1727 -3.6745
  368MOL0     H48529   7.977   9.708  11.234  0.1489 -0.0157 -1.0255
  368MOL0     H48530   7.696   9.636  11.225 -2.5480  0.4407  0.1294
  368MOL0     H48531   7.712   9.715  11.383  2.2250 -0.8128  2.4423
  368MOL0     H48532   7.523   9.601  11.346  1.1783  1.4231  0.3715
  368MOL0     H48533   7.605   9.530  11.483  1.5683 -0.9737  0.1620
  368MOL0     H48534   7.618   9.356  11.225 -3.3202 -0.0811  0.7682
  368MOL0     H48535   7.690   9.318  11.383  0.3114  1.8990  1.0378
  368MOL0     H48536   7.481   9.330  11.485  0.5402  0.7354  0.8644
  368MOL0     H48537   7.492   9.210  11.345 -0.2590  1.7975 -2.2647
  368MOL0     H48538   7.131   9.421  11.187 -0.0886 -0.1714  0.8780
  368MOL0     H48539   6.927   9.330  11.228  0.7945  3.2102 -0.3022
  368MOL0     H48540   6.576   9.247  11.413  0.5197  0.5244 -2.6806
  368MOL0     H48541   6.352   9.156  11.475 -0.7317  0.2131 -0.3345
  368MOL0     H48542   6.264   8.898  11.214  0.8447 -1.2496  0.8008
  368MOL0     H48543   6.118   8.964  11.295 -2.6792 -2.5379  1.2475
  368MOL0     H48544   6.051   8.768  11.403  1.4126 -0.7839  0.7106
  368MOL0     H48545   6.172   8.677  11.313  1.0588 -0.2545 -4.1129
  368MOL0     H48546   6.064   8.748  11.096 -1.5701 -1.3507 -1.2029
  368MOL0     H48547   5.970   8.853  11.194  2.2152 -0.0992 -1.2684
  368MOL0     H48548   5.929   8.547  11.222  0.4728 -0.0902 -1.9035
  368MOL0     H48549   5.827   8.669  11.283  1.2552 -0.7925  0.1219
  368MOL0     H48550   5.767   8.742  11.043 -0.6484 -1.0182 -1.6742
  368MOL0     H48551   5.711   8.586  11.107  0.7471  0.2320  1.8480
  368MOL0     H48552   5.906   8.485  10.989  2.5455  1.7433  2.9460
  368MOL0     H48553   5.956   8.642  10.931  1.2995 -1.7998  0.4392
  368MOL0     H48554   5.698   8.515  10.827 -0.4880  0.2102 -1.6290
  368MOL0     H48555   5.750   8.677  10.794 -0.7630 -0.8179 -0.8061
  368MOL0     H48556   5.982   8.562  10.718 -0.4240 -0.2111  0.2911
  368MOL0     H48557   5.835   8.539  10.622 -0.2233  1.9485  0.7800
  368MOL0     H48558   6.484   8.769  11.340  1.5967 -1.2455 -1.1978
  368MOL0     H48559   6.697   8.867  11.260 -2.4022 -1.3328 -0.7933
  368MOL0     H48560   7.100   9.061  11.509  2.2309 -1.0328 -1.2386
  368MOL0     H48561   7.315   9.184  11.498 -1.7680  0.1327  2.7915
  368MOL0     H48562   9.163   9.296  11.070 -0.5569  0.3299  0.0575
  368MOL0     H48563   9.342   9.170  10.961 -0.8908  0.4531  0.3842
  368MOL0     H48564   9.872   9.215  10.961 -2.5141 -1.6693  1.2356
  368MOL0     H48565  10.052   9.060  10.878 -1.8819 -0.7760  2.4032
  368MOL0     H48566  10.188   9.067  10.665  0.8468 -0.3385  1.5700
  368MOL0     H48567  10.219   8.943  10.540  0.7988  0.7230  0.6786
  368MOL0     H48568  10.343   8.893  10.742  0.4526  1.1230  2.7151
  368MOL0     H48569  10.202   8.913  10.847  0.9658 -1.2847  1.4296
  368MOL0     H48570  10.242   8.683  10.642  0.8487 -0.5074 -0.4415
  368MOL0     H48571  10.101   8.715  10.745  0.1972 -0.3346 -4.4213
  368MOL0     H48572  10.236   8.690  10.943  2.2917 -2.7265  1.7040
  368MOL0     H48573  10.243   8.544  10.840  1.4000  0.3439 -0.3471
  368MOL0     H48574  10.641   8.672  10.901  0.2692 -0.6744 -1.4487
  368MOL0     H48575   9.817   9.012  10.512 -2.3018  1.0318  0.0356
  368MOL0     H48576   9.632   9.109  10.614 -1.2614 -0.9908  1.1909
  369MOL0     O48577   1.498   6.585   6.059 -0.0305  0.1727  0.6175
  369MOL0     C48578   1.566   6.569   5.957  0.1028 -1.2830  0.2100
  369MOL0     O48579   1.527   6.579   5.827  0.1044 -0.3471 -0.0310
  369MOL0     C48580   1.399   6.635   5.808 -0.0014 -0.0508 -0.1893
  369MOL0     C48581   1.401   6.770   5.770 -0.4874 -0.8391  0.1299
  369MOL0     C48582   1.281   6.833   5.719 -0.0825 -0.8776 -0.4073
  369MOL0     C48583   1.164   6.753   5.716  0.4276 -0.0343 -0.0011
  369MOL0     O48584   1.037   6.810   5.707 -0.3412  0.4735 -0.0784
  369MOL0     C48585   1.016   6.902   5.595 -0.3167  0.2039 -0.1819
  369MOL0     C48586   0.876   6.888   5.538  0.7107 -0.3758 -1.1151
  369MOL0     C48587   0.771   6.960   5.627  1.0370 -0.4365 -0.2942
  369MOL0     C48588   0.639   6.953   5.539 -0.5581 -0.4911  0.1244
  369MOL0     C48589   0.515   6.997   5.619  0.0770 -0.5578 -0.3234
  369MOL0     C48590   0.398   6.978   5.525 -0.3895  0.3208 -0.1535
  369MOL0     C48591   0.269   7.038   5.591  0.0363 -0.0513 -0.2894
  369MOL0     C48592   0.146   7.012   5.491  0.1311 -0.0085  0.5750
  369MOL0     N48593   0.019   7.075   5.535  0.4727 -0.5504  0.6393
  369MOL0     C48594  -0.063   7.168   5.470 -0.3310 -0.2584  0.2198
  369MOL0     C48595  -0.177   7.171   5.537  0.0425 -1.1259  0.4022
  369MOL0     C48596  -0.289   7.265   5.508  0.2881 -0.2669 -0.1818
  369MOL0     C48597  -0.402   7.189   5.442 -0.3038  0.2161 -0.0392
  369MOL0     C48598  -0.530   7.273   5.421 -0.7206 -0.6219 -0.0411
  369MOL0     C48599  -0.636   7.194   5.361 -0.2589 -0.0301 -0.1322
  369MOL0     O48600  -0.769   7.250   5.378  0.2572 -0.0660 -1.3955
  369MOL0     C48601  -0.855   7.212   5.485 -0.6390 -0.2582 -0.0414
  369MOL0     C48602  -0.795   7.147   5.593  0.1534  0.5215 -0.4392
  369MOL0     C48603  -0.873   7.105   5.700 -0.3689  0.1896 -0.1071
  369MOL0     C48604  -1.010   7.155   5.703  0.4041 -0.0156 -1.1494
  369MOL0     C48605  -1.104   7.139   5.823 -0.4816  0.8090  0.3041
  369MOL0     O48606  -1.242   7.136   5.795 -0.3858 -0.1963 -0.5742
  369MOL0     C48607  -1.332   7.128   5.901  0.1693  0.1016 -0.1328
  369MOL0     C48608  -1.313   7.041   6.007 -0.9678 -0.2002  0.0651
  369MOL0     C48609  -1.405   7.021   6.108 -0.3737  0.9574 -0.0673
  369MOL0     C48610  -1.530   7.087   6.095 -0.3007 -1.2508  0.3496
  369MOL0     O48611  -1.640   7.064   6.177 -0.4557 -0.3177  0.0406
  369MOL0     C48612  -1.638   6.983   6.292 -0.3416  0.3372  0.1567
  369MOL0     C48613  -1.776   6.967   6.341 -0.7750 -0.0605  0.1975
  369MOL0     C48614  -1.776   6.874   6.473  0.0211 -0.0315  0.1213
  369MOL0     C48615  -1.920   6.884   6.529 -0.0244 -0.0872  0.0731
  369MOL0     C48616  -1.929   6.792   6.660  0.7681  0.0745  0.1165
  369MOL0     C48617  -2.076   6.753   6.689  0.2314  0.2986  0.5350
  369MOL0     C48618  -2.153   6.875   6.744 -0.1091 -0.2034 -0.1053
  369MOL0     C48619  -2.296   6.838   6.779 -0.3010  0.0251 -1.0112
  369MOL0    Cl48620  -2.396   6.800   6.628  0.2979 -0.1048 -0.0719
  369MOL0     C48621  -1.551   7.185   5.992  0.2810  0.2239 -0.3999
  369MOL0     C48622  -1.457   7.193   5.887 -0.0999 -0.3010 -0.6285
  369MOL0     O48623  -1.052   7.129   5.934  0.3910 -0.6517  0.3753
  369MOL0     C48624  -1.061   7.224   5.590  0.2437 -0.0348  0.5520
  369MOL0     C48625  -0.977   7.258   5.486 -0.0187 -0.2278  0.6848
  369MOL0     N48626  -0.167   7.077   5.637  0.6023  0.0434 -0.5687
  369MOL0     N48627  -0.050   7.029   5.641  0.1041 -0.0984 -0.6970
  369MOL0     C48628   1.171   6.615   5.743 -0.6660  0.1017  0.6085
  369MOL0     C48629   1.287   6.557   5.790 -0.4442 -0.6545 -0.6050
  369MOL0     C48630   1.706   6.533   5.986 -0.0052  0.5754  0.8625
  369MOL0     C48631   1.812   6.551   5.888  0.1522  0.4226 -0.9573
  369MOL0     C48632   1.937   6.500   5.913  1.2397 -0.2336  0.5290
  369MOL0     C48633   1.971   6.448   6.033  0.3863 -1.0244  0.7618
  369MOL0     O48634   2.098   6.406   6.052 -0.0476  0.1282 -0.3880
  369MOL0     C48635   2.148   6.390   6.189 -0.0836 -0.2573  0.2380
  369MOL0     C48636   2.298   6.409   6.173 -0.6866 -0.3713 -0.2955
  369MOL0     C48637   2.379   6.321   6.075  0.3326  0.2701 -0.3827
  369MOL0     C48638   2.526   6.346   6.059  0.0100 -0.2150 -0.1857
  369MOL0     C48639   2.599   6.328   6.189 -0.0578 -0.6009  0.3341
  369MOL0     C48640   2.654   6.311   6.294  0.5782 -0.0853 -0.0357
  369MOL0     C48641   1.875   6.436   6.129  0.0363 -0.7250 -0.3566
  369MOL0     C48642   1.747   6.479   6.105 -0.4427 -0.2817  0.3210
  369MOL0     H48643   1.493   6.828   5.767 -1.3541  0.5669 -0.4436
  369MOL0     H48644   1.272   6.940   5.701 -3.1889 -1.0511 -0.4476
  369MOL0     H48645   1.093   6.893   5.517 -0.0854  0.7547 -0.0161
  369MOL0     H48646   1.021   7.003   5.635 -0.4411 -0.3732  1.3362
  369MOL0     H48647   0.855   6.781   5.532  0.4746 -0.7494  3.0734
  369MOL0     H48648   0.872   6.945   5.445 -0.9429  3.0048  0.8537
  369MOL0     H48649   0.796   7.064   5.649 -0.4948  0.2678 -1.6514
  369MOL0     H48650   0.753   6.911   5.723 -2.5786 -1.3026 -1.2442
  369MOL0     H48651   0.649   7.004   5.443  0.8840  0.6741  0.8404
  369MOL0     H48652   0.627   6.848   5.511  1.0075 -0.2615 -1.5859
  369MOL0     H48653   0.529   7.101   5.652  1.2772 -1.3322  1.7880
  369MOL0     H48654   0.500   6.937   5.709 -1.0546  1.0867  0.6362
  369MOL0     H48655   0.392   6.874   5.491  1.7321 -1.2628  3.6629
  369MOL0     H48656   0.420   7.048   5.444 -1.2845 -2.0809 -2.6554
  369MOL0     H48657   0.240   6.989   5.684 -0.0649  0.4043 -0.0762
  369MOL0     H48658   0.287   7.142   5.619 -1.1780  0.9377 -2.8608
  369MOL0     H48659   0.131   6.904   5.489  1.8450 -0.3052  1.8284
  369MOL0     H48660   0.176   7.050   5.393 -0.2189 -0.3597  0.3297
  369MOL0     H48661  -0.040   7.214   5.374  0.5359 -1.0980  0.0119
  369MOL0     H48662  -0.259   7.349   5.444 -2.4847  0.4378 -0.6898
  369MOL0     H48663  -0.324   7.307   5.603  1.2078 -1.7336  0.8433
  369MOL0     H48664  -0.432   7.100   5.498 -2.2656  0.5910 -0.4382
  369MOL0     H48665  -0.365   7.171   5.340 -2.1689  0.6572 -0.8289
  369MOL0     H48666  -0.560   7.331   5.509 -0.1892  2.1230 -1.5350
  369MOL0     H48667  -0.503   7.350   5.348  1.0484  0.7824  1.9455
  369MOL0     H48668  -0.642   7.090   5.394 -1.6055 -0.3094 -1.1758
  369MOL0     H48669  -0.623   7.187   5.253 -0.4957 -0.0827 -0.1579
  369MOL0     H48670  -0.690   7.118   5.602 -0.5112 -2.0151 -0.1361
  369MOL0     H48671  -0.835   7.052   5.786 -2.3215  0.9507  1.3152
  369MOL0     H48672  -1.229   6.972   6.014 -3.6181 -3.8064 -0.8152
  369MOL0     H48673  -1.379   6.962   6.196 -1.9718  1.3323  0.6836
  369MOL0     H48674  -1.586   7.033   6.374 -1.1650 -1.7090  2.0237
  369MOL0     H48675  -1.591   6.885   6.278 -1.8668 -0.2169 -1.4718
  369MOL0     H48676  -1.830   6.920   6.259 -2.9607  2.9539 -0.2783
  369MOL0     H48677  -1.812   7.070   6.350  1.7036  0.9770 -0.7951
  369MOL0     H48678  -1.704   6.900   6.550  0.8333 -2.2226  0.1814
  369MOL0     H48679  -1.751   6.772   6.440 -0.3235 -0.4512  1.1280
  369MOL0     H48680  -1.964   6.982   6.548 -1.2852 -0.9178  1.5709
  369MOL0     H48681  -1.976   6.829   6.453 -2.9369  0.6064  1.5627
  369MOL0     H48682  -1.885   6.854   6.738  1.2638  1.0181 -0.8831
  369MOL0     H48683  -1.880   6.694   6.658 -0.1625 -0.4958  2.5625
  369MOL0     H48684  -2.078   6.680   6.771  1.7178  1.3557  1.5638
  369MOL0     H48685  -2.113   6.719   6.592 -0.1672  2.2238 -0.0275
  369MOL0     H48686  -2.100   6.904   6.835 -0.5545 -0.3613  0.2062
  369MOL0     H48687  -2.147   6.962   6.678  0.2124  0.9111  1.3496
  369MOL0     H48688  -2.344   6.929   6.818 -0.3982 -0.1768 -0.6593
  369MOL0     H48689  -2.304   6.754   6.848  0.4721 -0.5310 -1.5806
  369MOL0     H48690  -1.642   7.244   5.989 -0.4731 -0.7451  1.5941
  369MOL0     H48691  -1.488   7.267   5.813 -1.1116 -1.3097 -1.2475
  369MOL0     H48692  -1.168   7.243   5.593  0.0246 -0.7273 -1.4007
  369MOL0     H48693  -1.016   7.323   5.408 -0.6954 -2.0490 -0.5522
  369MOL0     H48694   1.078   6.559   5.739 -0.7770  0.1774  1.7437
  369MOL0     H48695   1.301   6.449   5.797  2.7757 -0.2566  2.4040
  369MOL0     H48696   1.795   6.601   5.793  0.5575  2.5836  0.0608
  369MOL0     H48697   2.023   6.520   5.850 -0.5798  0.1729 -1.9561
  369MOL0     H48698   2.121   6.293   6.233  0.7853 -0.2993  0.6791
  369MOL0     H48699   2.105   6.462   6.259 -1.7143 -3.3689  2.6786
  369MOL0     H48700   2.311   6.514   6.147  2.7870 -0.5987  0.0677
  369MOL0     H48701   2.331   6.384   6.275 -0.6004 -0.8894 -0.4464
  369MOL0     H48702   2.327   6.317   5.979  1.2430  0.7154 -0.9169
  369MOL0     H48703   2.370   6.219   6.114  5.2052 -0.8954 -1.6245
  369MOL0     H48704   2.582   6.281   5.991 -0.3874  0.9262 -1.6629
  369MOL0     H48705   2.538   6.439   6.002  0.8692 -0.6884 -0.8022
  369MOL0     H48706   2.710   6.291   6.383  1.0335 -0.7306 -0.4561
  369MOL0     H48707   1.896   6.392   6.226 -0.8581  2.0295  1.1854
  369MOL0     H48708   1.669   6.468   6.179 -1.4790 -0.0033 -0.6962
  370MOL0     O48709   0.827   2.623   3.506  0.0103 -0.2449  0.6104
  370MOL0     C48710   0.850   2.742   3.524 -0.4098  0.0514  0.6907
  370MOL0     O48711   0.762   2.839   3.567 -0.1263  0.1775 -0.0101
  370MOL0     C48712   0.638   2.806   3.612 -0.4626  0.3928 -0.1951
  370MOL0     C48713   0.527   2.830   3.534  0.5396  0.1802 -0.4692
  370MOL0     C48714   0.395   2.795   3.571 -1.0204  0.9368 -0.9035
  370MOL0     C48715   0.366   2.729   3.693  0.8848  0.2038  0.5777
  370MOL0     O48716   0.241   2.693   3.730  1.2110 -0.2226  0.2251
  370MOL0     C48717   0.133   2.750   3.648 -0.0712  0.0614 -0.4123
  370MOL0     C48718  -0.008   2.717   3.703 -0.1107 -0.2309  0.7614
  370MOL0     C48719  -0.119   2.791   3.623 -0.2064 -0.2952 -0.8819
  370MOL0     C48720  -0.256   2.755   3.691  0.3662  0.3722  0.8284
  370MOL0     C48721  -0.357   2.872   3.641  0.0013 -0.0657  0.4433
  370MOL0     C48722  -0.489   2.823   3.679  0.2578 -0.5391  0.0433
  370MOL0     C48723  -0.600   2.916   3.632  0.3298  1.1415  0.5599
  370MOL0     C48724  -0.650   2.891   3.489 -0.3230 -0.2093 -0.2980
  370MOL0     N48725  -0.706   2.754   3.473  0.3723 -0.4036  0.0054
  370MOL0     C48726  -0.824   2.718   3.517  0.9430  0.2016 -0.7716
  370MOL0     C48727  -0.843   2.590   3.484 -0.5921  0.5501  0.1629
  370MOL0     C48728  -0.959   2.494   3.501 -0.3675 -0.7772 -0.6412
  370MOL0     C48729  -1.011   2.431   3.378 -0.7050 -0.3475 -0.0025
  370MOL0     C48730  -1.047   2.525   3.266  0.0860  0.6164  0.4994
  370MOL0     C48731  -1.186   2.587   3.288 -0.5664  0.0843  0.0516
  370MOL0     O48732  -1.156   2.694   3.377 -0.9448  0.2549  0.1152
  370MOL0     C48733  -1.243   2.786   3.417  0.3627 -0.8132 -0.0356
  370MOL0     C48734  -1.380   2.770   3.405 -0.7891 -0.3250 -0.3070
  370MOL0     C48735  -1.469   2.867   3.450 -0.4529  0.4120  0.3856
  370MOL0     C48736  -1.427   2.978   3.519  0.4885 -0.0168  0.0653
  370MOL0     C48737  -1.525   3.067   3.584 -0.0212  0.8113  0.2306
  370MOL0     O48738  -1.653   3.038   3.581  0.4721  0.9797 -0.3071
  370MOL0     C48739  -1.747   3.126   3.638  0.5751 -0.8173 -0.3438
  370MOL0     C48740  -1.783   3.116   3.767  0.3904 -0.2720 -0.5168
  370MOL0     C48741  -1.869   3.210   3.825 -0.3478  0.2835  0.0331
  370MOL0     C48742  -1.933   3.303   3.744 -0.7418 -0.1014 -0.2289
  370MOL0     O48743  -2.019   3.406   3.803  0.0650 -0.4182  0.1033
  370MOL0     C48744  -2.116   3.362   3.898  0.9015 -0.4959  0.0280
  370MOL0     C48745  -2.192   3.487   3.948 -0.4349  0.1836  0.4728
  370MOL0     C48746  -2.105   3.585   4.022  0.0813  0.0253  0.3022
  370MOL0     C48747  -2.190   3.689   4.112  0.1040 -0.7268 -0.3695
  370MOL0     C48748  -2.092   3.749   4.205  0.9868  0.2163 -0.4683
  370MOL0     C48749  -2.160   3.842   4.300 -0.0967  0.0140  0.2959
  370MOL0     C48750  -2.056   3.929   4.374  0.7005  0.1533  0.1616
  370MOL0     C48751  -2.001   3.853   4.489  0.4097  1.5283 -0.1576
  370MOL0    Cl48752  -1.899   3.978   4.559 -0.3383 -0.1873 -0.1648
  370MOL0     C48753  -1.904   3.302   3.602  0.3234 -0.1371  0.0699
  370MOL0     C48754  -1.810   3.212   3.549  0.6289  0.7203  0.6208
  370MOL0     O48755  -1.479   3.172   3.630  0.1710  0.6187 -0.3979
  370MOL0     C48756  -1.291   2.993   3.538 -0.1198 -1.4129  0.1600
  370MOL0     C48757  -1.200   2.908   3.484 -0.0709 -0.1873 -0.6855
  370MOL0     N48758  -0.722   2.545   3.429 -0.7465 -0.4447 -0.0880
  370MOL0     N48759  -0.632   2.648   3.427 -0.5192  0.0415  0.2665
  370MOL0     C48760   0.476   2.703   3.777  0.6007 -0.4350 -0.3527
  370MOL0     C48761   0.609   2.747   3.740 -0.5450  0.6705 -0.3944
  370MOL0     C48762   0.983   2.787   3.487 -0.2548  0.9073 -0.5521
  370MOL0     C48763   1.000   2.926   3.469  0.1942  0.1987  0.8202
  370MOL0     C48764   1.128   2.975   3.454  1.1908 -0.1952  0.0273
  370MOL0     C48765   1.246   2.891   3.463 -0.2307  0.6784  0.4980
  370MOL0     O48766   1.373   2.940   3.458  0.6321  0.0269  0.1924
  370MOL0     C48767   1.400   3.078   3.407 -0.2861  0.2197 -0.7587
  370MOL0     C48768   1.418   3.189   3.511  0.2662 -1.0176 -0.5013
  370MOL0     C48769   1.548   3.182   3.588 -0.8320  0.0557 -0.1918
  370MOL0     C48770   1.546   3.069   3.690 -0.5449 -0.7411 -0.2988
  370MOL0     C48771   1.672   3.076   3.765  0.8193  0.1893 -0.5537
  370MOL0     C48772   1.770   3.067   3.841  0.2475 -0.0140  1.0601
  370MOL0     C48773   1.223   2.753   3.476 -0.7601 -0.7829 -0.1351
  370MOL0     C48774   1.090   2.695   3.482 -1.0781 -0.3976  0.5003
  370MOL0     H48775   0.535   2.874   3.435 -0.3810 -1.3899 -1.2855
  370MOL0     H48776   0.309   2.821   3.510 -1.6742  5.7078  1.5645
  370MOL0     H48777   0.130   2.713   3.545  3.5705 -3.2854  0.4039
  370MOL0     H48778   0.142   2.859   3.655 -2.3402  0.4037 -1.9532
  370MOL0     H48779  -0.009   2.742   3.810  0.3112 -0.4639  0.8244
  370MOL0     H48780  -0.019   2.609   3.689  0.9918 -0.1345 -1.1445
  370MOL0     H48781  -0.115   2.770   3.516 -0.2623  3.6598 -1.8292
  370MOL0     H48782  -0.105   2.898   3.641  0.0687 -0.7611  2.1158
  370MOL0     H48783  -0.279   2.658   3.646  1.4089  1.2453 -1.7892
  370MOL0     H48784  -0.257   2.740   3.800 -0.8448  1.0108  0.9137
  370MOL0     H48785  -0.346   2.874   3.532  2.4555 -0.4322  0.6140
  370MOL0     H48786  -0.342   2.972   3.683  0.0004  0.0697  0.1184
  370MOL0     H48787  -0.502   2.816   3.788 -2.2137  0.3169 -0.1315
  370MOL0     H48788  -0.504   2.719   3.648 -1.4129  0.0298 -1.1828
  370MOL0     H48789  -0.690   2.901   3.692 -0.9503 -1.0930 -1.6888
  370MOL0     H48790  -0.574   3.022   3.640  1.6626  1.1337 -2.3164
  370MOL0     H48791  -0.563   2.918   3.429  1.7019  3.3918  3.7196
  370MOL0     H48792  -0.718   2.975   3.470  2.0841  1.9545  0.1644
  370MOL0     H48793  -0.898   2.780   3.567 -1.3787 -1.1163 -2.3594
  370MOL0     H48794  -1.043   2.546   3.549 -0.5318 -0.7097 -0.9986
  370MOL0     H48795  -0.926   2.418   3.573  0.1307  0.8328  0.9026
  370MOL0     H48796  -1.095   2.364   3.400 -0.5898 -0.7649 -0.7917
  370MOL0     H48797  -0.936   2.361   3.339 -1.8983 -0.1332 -2.9492
  370MOL0     H48798  -0.972   2.603   3.250  0.3185  0.2702 -0.1141
  370MOL0     H48799  -1.039   2.475   3.169  1.0759  0.7665  0.4904
  370MOL0     H48800  -1.245   2.515   3.345 -0.3675 -0.3840 -0.3339
  370MOL0     H48801  -1.223   2.619   3.190  1.7841 -3.1998 -2.0931
  370MOL0     H48802  -1.425   2.679   3.366 -2.4333  0.5237 -0.5053
  370MOL0     H48803  -1.575   2.852   3.432 -0.5809 -0.0737  1.4725
  370MOL0     H48804  -1.741   3.041   3.833 -0.4724 -0.1401  0.1886
  370MOL0     H48805  -1.892   3.208   3.931 -1.6371  0.7416 -0.2179
  370MOL0     H48806  -2.063   3.321   3.985  1.0301  1.6191  1.0219
  370MOL0     H48807  -2.183   3.283   3.862  3.5610 -2.4469 -0.9915
  370MOL0     H48808  -2.267   3.444   4.015  0.4740 -3.3467 -0.5550
  370MOL0     H48809  -2.238   3.535   3.861 -1.3164 -0.9508  0.2798
  370MOL0     H48810  -2.044   3.641   3.951  1.0650  0.1222  1.2081
  370MOL0     H48811  -2.044   3.521   4.086 -0.1996 -1.3801 -0.7819
  370MOL0     H48812  -2.235   3.768   4.051  2.6859  3.5837  2.7190
  370MOL0     H48813  -2.271   3.643   4.169  0.1724 -2.4212 -1.5791
  370MOL0     H48814  -2.015   3.795   4.143  1.6711 -0.8124 -0.3958
  370MOL0     H48815  -2.034   3.672   4.256  2.9094  2.8924  1.7268
  370MOL0     H48816  -2.237   3.794   4.361  0.6563 -1.3323  0.2271
  370MOL0     H48817  -2.219   3.912   4.241  0.5769  0.7051  0.4165
  370MOL0     H48818  -1.967   3.944   4.313  0.0480  1.0974 -0.5725
  370MOL0     H48819  -2.107   4.019   4.409 -1.3418 -0.3984 -1.1867
  370MOL0     H48820  -1.943   3.768   4.451  2.7785  2.6785  0.6915
  370MOL0     H48821  -2.082   3.827   4.557 -0.7076  2.7797 -0.9623
  370MOL0     H48822  -1.960   3.375   3.544 -0.8347 -0.5728  0.6075
  370MOL0     H48823  -1.797   3.201   3.441 -1.3390 -1.6995  0.5296
  370MOL0     H48824  -1.245   3.073   3.594  3.5321 -2.2399 -1.3760
  370MOL0     H48825  -1.098   2.936   3.507  0.2304 -0.9155 -1.0911
  370MOL0     H48826   0.458   2.647   3.869  1.4873  1.2504  0.9020
  370MOL0     H48827   0.698   2.728   3.799  0.6541  0.3693 -2.2134
  370MOL0     H48828   0.910   2.986   3.461 -0.4278 -0.5837  1.6414
  370MOL0     H48829   1.139   3.082   3.441  1.7822 -0.0627  1.4265
  370MOL0     H48830   1.324   3.099   3.331 -0.0529 -0.6397 -1.2339
  370MOL0     H48831   1.499   3.079   3.361 -0.1251  2.0535 -0.4609
  370MOL0     H48832   1.400   3.289   3.471 -1.2453 -0.5080  1.3385
  370MOL0     H48833   1.340   3.177   3.587  0.4169  0.8094 -0.0030
  370MOL0     H48834   1.569   3.270   3.649 -1.6060  1.0267 -1.2861
  370MOL0     H48835   1.635   3.170   3.521 -1.5241  0.1119 -1.1223
  370MOL0     H48836   1.461   3.070   3.758 -0.7851 -1.6894 -0.5766
  370MOL0     H48837   1.542   2.977   3.632  0.1893  0.6312 -2.6883
  370MOL0     H48838   1.859   3.074   3.900  0.1336  4.7439  1.0619
  370MOL0     H48839   1.306   2.683   3.479 -0.5883 -0.5451  1.8018
  370MOL0     H48840   1.081   2.590   3.510 -1.9858 -0.0521  1.5536
  371MOL0     O48841   5.244   7.862   9.461  0.2310  0.3610  0.8456
  371MOL0     C48842   5.171   7.760   9.460 -0.3542 -0.1414 -0.1151
  371MOL0     O48843   5.195   7.648   9.539 -0.8775  0.5715  0.2745
  371MOL0     C48844   5.294   7.659   9.637  0.5992  0.5976 -0.2575
  371MOL0     C48845   5.262   7.697   9.763  0.4574 -1.1050 -0.2966
  371MOL0     C48846   5.362   7.713   9.857 -0.3439 -0.1675  0.8308
  371MOL0     C48847   5.498   7.689   9.831 -0.7874 -0.2008  0.1680
  371MOL0     O48848   5.594   7.718   9.926  0.4984 -0.2934  0.0681
  371MOL0     C48849   5.551   7.777  10.052 -0.4801  0.2562  0.4503
  371MOL0     C48850   5.664   7.784  10.158 -0.1534 -0.6426  0.5420
  371MOL0     C48851   5.756   7.905  10.123  0.2501  0.3348 -0.1033
  371MOL0     C48852   5.866   7.933  10.221  0.1876 -0.1616  0.9848
  371MOL0     C48853   5.937   8.058  10.173  0.0472  0.2009 -0.1526
  371MOL0     C48854   5.875   8.192  10.215  0.3832  0.0343 -0.1267
  371MOL0     C48855   5.917   8.226  10.362 -0.7690 -0.5138  0.4774
  371MOL0     C48856   5.850   8.350  10.413  0.0193  1.1853  0.4017
  371MOL0     N48857   5.703   8.337  10.412 -0.5301  0.8938 -0.9087
  371MOL0     C48858   5.622   8.286  10.513  0.2446  0.3826  0.3280
  371MOL0     C48859   5.494   8.322  10.469  0.2701 -1.1052  0.4636
  371MOL0     C48860   5.369   8.316  10.559 -0.4776  0.4022 -0.3803
  371MOL0     C48861   5.262   8.423  10.523  0.7501 -0.6601  0.8022
  371MOL0     C48862   5.187   8.403  10.393  0.2981  0.1831  0.0810
  371MOL0     C48863   5.046   8.482  10.400  0.1075 -0.0945  0.1315
  371MOL0     O48864   4.943   8.427  10.488  0.3881  0.4411 -0.7741
  371MOL0     C48865   4.838   8.500  10.525 -0.1524 -0.4477  0.4367
  371MOL0     C48866   4.794   8.607  10.442 -0.1370  0.1369 -0.2997
  371MOL0     C48867   4.671   8.666  10.460  0.2378 -0.7663  0.1817
  371MOL0     C48868   4.585   8.619  10.557  1.1876  0.2133 -0.2869
  371MOL0     C48869   4.439   8.679  10.559  0.7831  0.3312 -0.0755
  371MOL0     O48870   4.349   8.584  10.610  1.1555  0.1255 -0.2699
  371MOL0     C48871   4.217   8.574  10.566  0.5524  0.4174  0.3050
  371MOL0     C48872   4.127   8.491  10.631 -0.1947  0.2019 -0.5388
  371MOL0     C48873   4.000   8.473  10.590  1.2821  0.0519 -0.9408
  371MOL0     C48874   3.947   8.542  10.473  0.1151 -0.4648  0.2917
  371MOL0     O48875   3.823   8.534  10.418 -0.1967  0.2106 -0.3719
  371MOL0     C48876   3.732   8.445  10.483 -0.1836 -0.4114  0.5519
  371MOL0     C48877   3.590   8.483  10.427  0.4249  0.1310  1.0627
  371MOL0     C48878   3.562   8.448  10.289  0.0305 -0.5649  0.2696
  371MOL0     C48879   3.416   8.486  10.264  0.2839  0.3831  1.0034
  371MOL0     C48880   3.358   8.425  10.135 -0.0527 -0.3621 -0.1682
  371MOL0     C48881   3.197   8.424  10.143  0.4323 -0.4188 -0.2645
  371MOL0     C48882   3.127   8.328  10.045  0.5403 -0.3482 -0.0842
  371MOL0     C48883   2.974   8.346  10.048 -0.1366  0.1694  0.5851
  371MOL0    Cl48884   2.888   8.237   9.926 -0.0562 -0.2889 -0.0829
  371MOL0     C48885   4.030   8.629  10.408  0.2390 -0.5913 -0.3228
  371MOL0     C48886   4.167   8.644  10.452 -0.0885  0.2459 -0.4647
  371MOL0     O48887   4.404   8.774  10.490  0.1572  0.7784 -0.8597
  371MOL0     C48888   4.614   8.507  10.643  0.3734  0.4392  0.0860
  371MOL0     C48889   4.750   8.450  10.619 -0.0465  0.2815 -0.0556
  371MOL0     N48890   5.506   8.368  10.329  0.6216  0.6103 -0.1947
  371MOL0     N48891   5.633   8.371  10.301  0.0803 -0.4490 -0.1255
  371MOL0     C48892   5.532   7.637   9.709 -0.2991 -0.0828  0.4084
  371MOL0     C48893   5.429   7.624   9.612  0.3033 -0.0549  0.3809
  371MOL0     C48894   5.054   7.772   9.367  0.6107  0.8613 -0.6212
  371MOL0     C48895   4.974   7.656   9.347  0.5443  0.1822  0.7128
  371MOL0     C48896   4.878   7.661   9.244  0.4498  0.4151  0.2521
  371MOL0     C48897   4.851   7.778   9.176 -0.4298 -1.0848 -1.1327
  371MOL0     O48898   4.765   7.792   9.077  0.3980  0.5382  0.6335
  371MOL0     C48899   4.684   7.686   9.026  0.1726 -0.0353 -1.4020
  371MOL0     C48900   4.647   7.721   8.891  0.2017 -0.1768  0.2385
  371MOL0     C48901   4.549   7.622   8.817  0.1810  0.1168 -0.2289
  371MOL0     C48902   4.490   7.660   8.684 -0.6253 -0.1713  0.6364
  371MOL0     C48903   4.392   7.553   8.650 -0.4906  0.2374  0.6731
  371MOL0     C48904   4.316   7.466   8.611 -0.7234  1.0635 -0.0760
  371MOL0     C48905   4.927   7.891   9.201  0.2510  0.1741  0.0931
  371MOL0     C48906   5.031   7.889   9.296 -0.1846 -0.5368  0.4397
  371MOL0     H48907   5.158   7.722   9.781  0.5834  0.9950 -2.0008
  371MOL0     H48908   5.349   7.749   9.959  2.2296  0.1514  1.1043
  371MOL0     H48909   5.483   7.714  10.109  0.9463 -2.0073 -0.1824
  371MOL0     H48910   5.509   7.876  10.035 -2.3346  0.0859  3.3769
  371MOL0     H48911   5.731   7.698  10.158  1.9477  0.5702 -4.9884
  371MOL0     H48912   5.612   7.804  10.252  0.1247  2.5530  0.1435
  371MOL0     H48913   5.685   7.988  10.126 -0.9564 -0.6511 -0.1354
  371MOL0     H48914   5.786   7.899  10.019 -0.0376  0.1782 -0.1806
  371MOL0     H48915   5.835   7.951  10.324  1.1530  2.3494  0.9089
  371MOL0     H48916   5.932   7.846  10.226 -0.2215 -0.4243  2.3148
  371MOL0     H48917   5.959   8.053  10.066  0.4871  0.1067 -0.0580
  371MOL0     H48918   6.035   8.054  10.222 -0.3913  0.8476  0.8239
  371MOL0     H48919   5.767   8.176  10.213  0.2530  0.5080 -3.7342
  371MOL0     H48920   5.911   8.277  10.155  0.9278 -0.1967 -0.1331
  371MOL0     H48921   5.898   8.141  10.429  0.6933 -0.1552  1.3897
  371MOL0     H48922   6.021   8.259  10.353 -1.7957  2.7907 -0.4932
  371MOL0     H48923   5.867   8.440  10.354  0.4266  0.7319 -0.1912
  371MOL0     H48924   5.884   8.371  10.514  0.2906  0.9627  0.3595
  371MOL0     H48925   5.641   8.234  10.607 -2.0819  0.1297  0.7207
  371MOL0     H48926   5.409   8.328  10.659 -0.7749 -2.1023  0.1103
  371MOL0     H48927   5.331   8.214  10.566  2.9389 -1.0810 -1.0154
  371MOL0     H48928   5.314   8.519  10.512 -2.2962  0.7753 -4.0357
  371MOL0     H48929   5.197   8.442  10.608  0.2613 -2.4063  0.8682
  371MOL0     H48930   5.240   8.433  10.303 -1.7201  1.0412 -0.8968
  371MOL0     H48931   5.178   8.294  10.383  2.5081 -0.3603  2.9086
  371MOL0     H48932   4.998   8.485  10.302 -0.2976 -0.1697  0.3259
  371MOL0     H48933   5.059   8.585  10.431  1.5258 -0.0284 -0.5552
  371MOL0     H48934   4.849   8.652  10.359 -1.0785  2.5123  0.2864
  371MOL0     H48935   4.652   8.741  10.384  1.5949  0.3543  0.9003
  371MOL0     H48936   4.167   8.425  10.708 -2.9403 -1.6174 -0.5186
  371MOL0     H48937   3.943   8.398  10.644 -0.9410  1.2466 -1.5026
  371MOL0     H48938   3.740   8.467  10.590  1.2860  0.3532  0.3206
  371MOL0     H48939   3.769   8.343  10.467  1.0724  0.5138 -3.7691
  371MOL0     H48940   3.589   8.592  10.431  1.1756  0.1048  4.1026
  371MOL0     H48941   3.520   8.438  10.498  0.5602 -1.0949  0.4622
  371MOL0     H48942   3.574   8.340  10.282 -4.9685 -1.6010  3.2306
  371MOL0     H48943   3.627   8.504  10.221  0.3396  0.1887  1.1601
  371MOL0     H48944   3.348   8.461  10.346  0.0487 -1.4293  0.3037
  371MOL0     H48945   3.413   8.595  10.260  0.6290  0.3539 -1.0591
  371MOL0     H48946   3.389   8.322  10.120  0.6313 -0.4212  1.4344
  371MOL0     H48947   3.381   8.494  10.053 -1.3412  0.2723 -0.0244
  371MOL0     H48948   3.159   8.525  10.123 -3.4806 -1.5167  0.8173
  371MOL0     H48949   3.163   8.400  10.244 -0.0946 -3.1563 -1.0263
  371MOL0     H48950   3.169   8.359   9.949  2.1790  0.5573  0.8544
  371MOL0     H48951   3.143   8.221  10.062  0.7363 -0.1137  1.3891
  371MOL0     H48952   2.943   8.449  10.028 -0.9506 -0.1212  0.2739
  371MOL0     H48953   2.939   8.321  10.148 -3.4056 -1.5539 -0.8198
  371MOL0     H48954   3.987   8.678  10.321 -2.9044  1.1478  1.9837
  371MOL0     H48955   4.222   8.714  10.389 -0.1003  0.0511 -0.6898
  371MOL0     H48956   4.544   8.462  10.713 -0.9709  1.6408 -0.4200
  371MOL0     H48957   4.768   8.359  10.675 -2.4649 -0.4697 -0.3707
  371MOL0     H48958   5.636   7.616   9.688  0.7842 -1.2197  5.4497
  371MOL0     H48959   5.467   7.600   9.513  1.1545  0.6914  0.5130
  371MOL0     H48960   4.991   7.569   9.409  0.6573 -0.6425 -0.4486
  371MOL0     H48961   4.805   7.586   9.216  0.2169  0.8942 -0.4472
  371MOL0     H48962   4.605   7.670   9.100 -0.9634 -2.1116 -2.9672
  371MOL0     H48963   4.734   7.589   9.014 -0.4248 -0.1791 -2.9259
  371MOL0     H48964   4.596   7.818   8.889 -0.1775 -0.3809 -0.3626
  371MOL0     H48965   4.734   7.719   8.825 -0.4008 -0.3961 -0.5790
  371MOL0     H48966   4.462   7.606   8.882  0.9850  0.5305  0.9782
  371MOL0     H48967   4.603   7.528   8.805  0.6183  0.6822 -3.6369
  371MOL0     H48968   4.432   7.753   8.680  0.1896  0.3144 -1.3286
  371MOL0     H48969   4.571   7.670   8.610 -0.3346 -0.6825  0.8826
  371MOL0     H48970   4.260   7.387   8.565 -0.5207  1.1012 -0.3902
  371MOL0     H48971   4.912   7.984   9.147  0.2755  0.3801  0.4369
  371MOL0     H48972   5.092   7.978   9.302 -1.1613  0.1354  0.6167
  372MOL0     O48973   2.832   5.794   9.438  0.6678  0.1701  0.0683
  372MOL0     C48974   2.800   5.908   9.424 -0.2186 -0.8328  0.3694
  372MOL0     O48975   2.675   5.964   9.409 -0.6694  0.7216 -0.0974
  372MOL0     C48976   2.563   5.889   9.380  0.8023  0.4350 -0.3338
  372MOL0     C48977   2.500   5.809   9.472 -0.9525  0.7059  0.6616
  372MOL0     C48978   2.392   5.718   9.442  0.6050 -0.7958  0.1991
  372MOL0     C48979   2.335   5.736   9.311  0.2443  0.3263 -0.4989
  372MOL0     O48980   2.234   5.651   9.273  0.2587 -0.1255  0.2587
  372MOL0     C48981   2.114   5.720   9.243  1.1635 -0.1234  0.3337
  372MOL0     C48982   2.002   5.627   9.213  0.2186  0.5129 -0.1259
  372MOL0     C48983   1.934   5.562   9.333 -0.3738  1.1085 -0.4109
  372MOL0     C48984   1.798   5.501   9.305 -0.2001 -0.2098  0.1829
  372MOL0     C48985   1.801   5.377   9.204  0.2263  1.0751  0.3037
  372MOL0     C48986   1.665   5.321   9.186 -0.1015  0.3332 -0.0263
  372MOL0     C48987   1.662   5.200   9.098 -0.2324  0.6231 -0.3817
  372MOL0     C48988   1.763   5.088   9.137  0.7797 -0.4959 -0.2381
  372MOL0     N48989   1.746   4.972   9.047  0.2717  0.8725 -0.4225
  372MOL0     C48990   1.628   4.901   9.028  0.3412  0.7318  0.2216
  372MOL0     C48991   1.668   4.776   8.977 -0.7919 -0.1550  0.4674
  372MOL0     C48992   1.571   4.668   8.945  0.1721  0.6193  0.2468
  372MOL0     C48993   1.533   4.677   8.800  0.5919 -0.2771  0.1726
  372MOL0     C48994   1.415   4.588   8.763 -0.2826 -1.2112  0.3637
  372MOL0     C48995   1.284   4.653   8.796  0.1915  0.4368 -0.4847
  372MOL0     O48996   1.178   4.570   8.751 -0.0899  0.0457  0.4399
  372MOL0     C48997   1.052   4.619   8.766  0.5890  0.2352 -0.1344
  372MOL0     C48998   0.941   4.534   8.748  0.5482  0.5987 -0.5479
  372MOL0     C48999   0.816   4.578   8.751  0.9412 -0.3940  0.1414
  372MOL0     C49000   0.776   4.715   8.771 -0.1115  1.0931  0.5817
  372MOL0     C49001   0.642   4.774   8.755 -0.3456 -0.8925  0.2097
  372MOL0     O49002   0.536   4.694   8.738  0.7392  0.0401 -0.4830
  372MOL0     C49003   0.408   4.733   8.755  0.8006 -0.6140 -0.9702
  372MOL0     C49004   0.340   4.779   8.646  1.7507 -1.4405  0.1497
  372MOL0     C49005   0.208   4.829   8.652 -0.3048  0.2392  0.1669
  372MOL0     C49006   0.151   4.837   8.778  0.3198  0.1021  0.0220
  372MOL0     O49007   0.024   4.890   8.799 -0.0877  0.1324  0.2332
  372MOL0     C49008  -0.075   4.851   8.705  0.4435  0.0324  1.1191
  372MOL0     C49009  -0.212   4.885   8.749  0.3293  0.2585 -0.2864
  372MOL0     C49010  -0.276   4.774   8.827  0.3158  0.2754  0.3703
  372MOL0     C49011  -0.416   4.817   8.878  0.0854  0.3890 -0.0177
  372MOL0     C49012  -0.477   4.708   8.970  0.5657 -0.4202 -0.0652
  372MOL0     C49013  -0.616   4.744   9.016  0.1574  0.0473  0.8332
  372MOL0     C49014  -0.669   4.645   9.121  0.2287 -0.5031  0.0190
  372MOL0     C49015  -0.793   4.688   9.193 -0.4858 -0.1116  0.4867
  372MOL0    Cl49016  -0.922   4.575   9.176 -0.1267 -0.1730  0.1658
  372MOL0     C49017   0.223   4.783   8.887  0.6035 -0.0912 -0.1820
  372MOL0     C49018   0.346   4.727   8.883 -1.3199 -0.2352  0.2528
  372MOL0     O49019   0.630   4.891   8.769 -0.7525 -0.1386  0.2493
  372MOL0     C49020   0.885   4.795   8.812  0.7438 -0.3693  0.2908
  372MOL0     C49021   1.022   4.751   8.803  0.2154  0.4580 -0.2557
  372MOL0     N49022   1.800   4.766   8.956  0.2849 -1.0164 -0.0058
  372MOL0     N49023   1.843   4.880   9.007 -0.0500 -0.3551  0.8408
  372MOL0     C49024   2.384   5.825   9.220 -1.2283  0.3329 -0.2476
  372MOL0     C49025   2.500   5.903   9.258  0.2798 -0.0381  0.4685
  372MOL0     C49026   2.908   6.003   9.440 -0.7644 -0.2987  0.0424
  372MOL0     C49027   2.903   6.134   9.389 -0.0909  0.2780 -0.6408
  372MOL0     C49028   3.018   6.218   9.388  0.1607  0.6905  0.1071
  372MOL0     C49029   3.134   6.172   9.434 -0.6782 -0.3731  0.4060
  372MOL0     O49030   3.256   6.241   9.430 -0.0008  0.7750 -0.2263
  372MOL0     C49031   3.313   6.263   9.300  0.4821 -1.0005  0.0122
  372MOL0     C49032   3.471   6.250   9.319 -0.7059 -0.1881 -1.4051
  372MOL0     C49033   3.517   6.104   9.304 -1.2772 -0.0925  0.6792
  372MOL0     C49034   3.675   6.097   9.321 -0.4551  0.0027  0.0175
  372MOL0     C49035   3.706   5.961   9.355 -1.0533 -0.4894  0.5330
  372MOL0     C49036   3.722   5.846   9.383 -0.1639 -0.2689 -0.4892
  372MOL0     C49037   3.145   6.042   9.475  0.2021 -0.1320  0.2384
  372MOL0     C49038   3.038   5.956   9.475  0.8879 -0.6356 -0.1254
  372MOL0     H49039   2.545   5.808   9.571  2.9910 -0.8627 -0.9107
  372MOL0     H49040   2.367   5.644   9.517 -0.3126 -2.1352 -1.3883
  372MOL0     H49041   2.126   5.786   9.157  0.6111  0.2785  0.5591
  372MOL0     H49042   2.091   5.776   9.334 -0.0252 -3.0777  1.9667
  372MOL0     H49043   2.032   5.557   9.134 -0.8283  0.5725 -0.5942
  372MOL0     H49044   1.923   5.688   9.169  1.8464  5.1834  2.7287
  372MOL0     H49045   1.922   5.639   9.410  0.1965  0.5048  0.2942
  372MOL0     H49046   2.003   5.486   9.371 -0.2854  1.9716  1.2300
  372MOL0     H49047   1.758   5.469   9.402  0.7473 -0.0174  0.6401
  372MOL0     H49048   1.738   5.584   9.267 -0.0789 -0.4205 -0.4832
  372MOL0     H49049   1.866   5.306   9.256 -1.0411  1.9093  3.2027
  372MOL0     H49050   1.846   5.414   9.111 -1.7697  1.4742 -0.5368
  372MOL0     H49051   1.603   5.399   9.142 -2.1035 -0.9925  0.3095
  372MOL0     H49052   1.637   5.296   9.289  1.2727  2.9321  1.0827
  372MOL0     H49053   1.558   5.165   9.101 -1.0069  2.7591  2.8323
  372MOL0     H49054   1.691   5.226   8.996 -1.2565 -0.8975 -1.1091
  372MOL0     H49055   1.740   5.049   9.236  0.6535 -2.4248 -0.9730
  372MOL0     H49056   1.868   5.119   9.132  0.7760 -0.3245  0.6438
  372MOL0     H49057   1.525   4.932   9.044 -0.2444 -1.7953  2.1009
  372MOL0     H49058   1.483   4.675   9.009  0.7466 -2.5186  1.5515
  372MOL0     H49059   1.607   4.568   8.972 -2.4574  0.4373  3.7875
  372MOL0     H49060   1.618   4.664   8.732  0.1146  0.2918 -0.5504
  372MOL0     H49061   1.494   4.776   8.774 -0.9511 -0.5242  1.3894
  372MOL0     H49062   1.417   4.584   8.653  3.1237 -0.9748  0.3043
  372MOL0     H49063   1.419   4.483   8.793  2.9640 -1.6709 -1.2235
  372MOL0     H49064   1.284   4.756   8.759 -0.5241  0.9495  0.8830
  372MOL0     H49065   1.280   4.657   8.905  0.0049 -0.0132 -0.4730
  372MOL0     H49066   0.972   4.432   8.731  0.7344  0.7474 -1.1617
  372MOL0     H49067   0.738   4.503   8.740  1.4118 -1.0166  0.9712
  372MOL0     H49068   0.377   4.763   8.545 -0.5101  1.9069 -1.3762
  372MOL0     H49069   0.144   4.864   8.573 -0.3831  1.5879  0.8093
  372MOL0     H49070  -0.063   4.744   8.688  1.2769  0.2104  0.5119
  372MOL0     H49071  -0.065   4.904   8.610  1.7184  1.5370  2.0317
  372MOL0     H49072  -0.278   4.916   8.667 -0.2446 -0.3417 -0.0508
  372MOL0     H49073  -0.194   4.972   8.812  2.4612 -0.4784  0.2225
  372MOL0     H49074  -0.207   4.744   8.907  0.3406  0.1800  0.3130
  372MOL0     H49075  -0.292   4.694   8.754 -0.6091  0.0104  0.8506
  372MOL0     H49076  -0.406   4.908   8.939  0.8536 -0.1421  0.6643
  372MOL0     H49077  -0.483   4.837   8.794 -2.2239  0.2602  1.6921
  372MOL0     H49078  -0.422   4.699   9.064 -3.1048 -2.6883  2.1108
  372MOL0     H49079  -0.477   4.611   8.918 -1.9844 -1.7766  2.1928
  372MOL0     H49080  -0.684   4.745   8.930  0.2295  2.6142  0.7161
  372MOL0     H49081  -0.622   4.842   9.065  1.7095  1.0536 -0.8555
  372MOL0     H49082  -0.691   4.549   9.072 -2.7602  0.1086  0.0016
  372MOL0     H49083  -0.587   4.632   9.192 -0.5932 -1.2448  0.8612
  372MOL0     H49084  -0.831   4.776   9.141  2.9810  0.5089 -1.2565
  372MOL0     H49085  -0.777   4.691   9.301 -1.9870 -2.6930  0.8615
  372MOL0     H49086   0.160   4.785   8.975 -0.5174  1.7797 -0.9671
  372MOL0     H49087   0.401   4.696   8.971  0.9998  1.2509 -0.5759
  372MOL0     H49088   0.861   4.897   8.841 -0.8159  0.1438 -2.4990
  372MOL0     H49089   1.102   4.814   8.841  0.1096  0.7528 -0.5126
  372MOL0     H49090   2.333   5.835   9.125 -0.5994 -1.4237 -0.8158
  372MOL0     H49091   2.553   5.974   9.194 -1.3183  1.4772  0.7433
  372MOL0     H49092   2.807   6.174   9.356 -0.8838  0.4253  1.6427
  372MOL0     H49093   3.020   6.317   9.343  0.5478  0.7625  0.2755
  372MOL0     H49094   3.279   6.348   9.241  2.1482 -1.0153 -1.0532
  372MOL0     H49095   3.288   6.180   9.232 -0.3494  0.0218 -0.9661
  372MOL0     H49096   3.516   6.303   9.234  1.0475 -0.5772 -0.7563
  372MOL0     H49097   3.494   6.291   9.417  0.2960  1.1398 -2.1527
  372MOL0     H49098   3.500   6.077   9.199  0.8827  0.6917  0.0784
  372MOL0     H49099   3.469   6.029   9.367 -2.6464 -0.0219 -0.2449
  372MOL0     H49100   3.724   6.131   9.229 -0.3532  0.3687  0.2103
  372MOL0     H49101   3.710   6.154   9.406 -0.1199  1.4799 -1.0765
  372MOL0     H49102   3.737   5.744   9.409 -0.9134 -0.3414 -0.3034
  372MOL0     H49103   3.241   6.002   9.506  1.3391  1.1443 -1.4488
  372MOL0     H49104   3.050   5.860   9.524  1.6214 -0.0105  0.9593
  373MOL0     O49105   5.881   8.707   8.893  0.8912  0.3230 -0.3845
  373MOL0     C49106   5.915   8.591   8.915  0.7711  0.4989 -0.2493
  373MOL0     O49107   5.835   8.479   8.915  0.5473  0.0313 -0.5488
  373MOL0     C49108   5.699   8.472   8.882 -0.4059 -0.3772 -0.7256
  373MOL0     C49109   5.629   8.561   8.803 -0.6804  0.4658  0.0984
  373MOL0     C49110   5.495   8.536   8.760 -0.7666 -0.7045 -0.2735
  373MOL0     C49111   5.426   8.429   8.811  0.7685  0.1458 -0.8333
  373MOL0     O49112   5.289   8.415   8.786  0.0243  0.3218 -0.2884
  373MOL0     C49113   5.206   8.431   8.904 -0.3754 -0.7976  0.6646
  373MOL0     C49114   5.189   8.579   8.934  0.1420  0.1329 -0.8436
  373MOL0     C49115   5.103   8.646   8.828  0.1010 -0.5311 -0.0655
  373MOL0     C49116   5.032   8.775   8.884 -0.5034 -0.2283 -0.1735
  373MOL0     C49117   4.941   8.848   8.782  0.2601 -1.2359  0.5626
  373MOL0     C49118   4.819   8.759   8.744 -0.9969  0.0167 -0.4694
  373MOL0     C49119   4.701   8.841   8.692  0.0229 -0.3213 -0.5771
  373MOL0     C49120   4.592   8.767   8.614  0.3628 -0.8859  0.1025
  373MOL0     N49121   4.492   8.869   8.572 -0.3122 -0.0751  0.2334
  373MOL0     C49122   4.414   8.954   8.646  0.2165 -0.2519  0.0235
  373MOL0     C49123   4.350   9.028   8.549  0.2848 -0.0128  1.3522
  373MOL0     C49124   4.232   9.126   8.587 -0.2813  0.2845 -0.4315
  373MOL0     C49125   4.099   9.054   8.590  0.2118  0.0306 -0.0184
  373MOL0     C49126   3.995   9.152   8.633 -0.0427  0.4656 -0.1887
  373MOL0     C49127   3.854   9.098   8.597  0.5877 -1.3518 -0.1368
  373MOL0     O49128   3.744   9.195   8.631 -0.7203 -0.0727  0.2188
  373MOL0     C49129   3.624   9.149   8.588  0.2491  0.6597 -0.0234
  373MOL0     C49130   3.519   9.228   8.616 -0.8220 -0.5664  0.5126
  373MOL0     C49131   3.387   9.195   8.592  0.3921  0.6824  0.5038
  373MOL0     C49132   3.355   9.075   8.520 -0.2046  0.1828  0.2321
  373MOL0     C49133   3.216   9.031   8.488 -1.0267  0.5376  0.7944
  373MOL0     O49134   3.109   9.098   8.535 -0.1024 -0.0806  0.1283
  373MOL0     C49135   2.980   9.070   8.494  0.0842 -0.1308 -0.3392
  373MOL0     C49136   2.902   8.963   8.549 -0.6177  0.1519 -0.4884
  373MOL0     C49137   2.767   8.946   8.520 -0.2003 -0.2854 -0.2798
  373MOL0     C49138   2.709   9.031   8.425 -0.2455 -0.4357 -0.1423
  373MOL0     O49139   2.580   9.003   8.397  0.1776  0.0044  0.1299
  373MOL0     C49140   2.539   9.026   8.259  0.0641 -0.3846 -1.1249
  373MOL0     C49141   2.395   8.963   8.247 -0.3585  0.2973  0.0639
  373MOL0     C49142   2.284   9.031   8.330 -1.1392 -0.1553 -0.1336
  373MOL0     C49143   2.142   8.987   8.303 -0.1056 -0.3422 -0.3819
  373MOL0     C49144   2.031   9.070   8.356  0.6285 -0.9326 -0.3911
  373MOL0     C49145   2.030   9.077   8.511  0.1092  0.0222 -0.5242
  373MOL0     C49146   1.986   9.213   8.567  0.0488  0.9960  0.6251
  373MOL0     C49147   1.835   9.222   8.535 -0.7434  0.3842 -0.5966
  373MOL0    Cl49148   1.790   9.394   8.592  0.3121  0.1359  0.2273
  373MOL0     C49149   2.785   9.133   8.375  0.2425 -0.6302 -0.3612
  373MOL0     C49150   2.913   9.162   8.407 -0.2568 -0.0891 -0.7265
  373MOL0     O49151   3.212   8.929   8.413 -0.0956 -0.6021  0.7461
  373MOL0     C49152   3.461   9.001   8.487  0.0819 -0.1373 -0.2651
  373MOL0     C49153   3.596   9.036   8.507  0.0541 -0.3640 -0.3963
  373MOL0     N49154   4.387   8.988   8.422 -0.2873  0.2169  0.6952
  373MOL0     N49155   4.465   8.887   8.439  0.2135 -0.2240 -1.1270
  373MOL0     C49156   5.492   8.338   8.897  0.1569  0.1269 -0.7578
  373MOL0     C49157   5.629   8.363   8.933 -0.4799  0.2433 -0.2107
  373MOL0     C49158   6.062   8.574   8.937 -0.7853  0.6391 -0.3578
  373MOL0     C49159   6.154   8.678   8.956 -0.9098 -0.6175 -0.2696
  373MOL0     C49160   6.289   8.657   8.973  0.2925 -0.9677 -0.4219
  373MOL0     C49161   6.339   8.527   8.992 -0.3245  0.1384 -0.1196
  373MOL0     O49162   6.470   8.519   9.046  0.6027  0.1301 -0.3810
  373MOL0     C49163   6.510   8.386   9.095 -0.1136 -0.3423 -0.2745
  373MOL0     C49164   6.639   8.415   9.182 -1.0920  0.4900 -0.3303
  373MOL0     C49165   6.695   8.283   9.238 -0.2572  0.5426 -1.1803
  373MOL0     C49166   6.766   8.195   9.134 -0.3740 -0.6266  0.5382
  373MOL0     C49167   6.897   8.249   9.086  0.3983  0.5792 -0.7169
  373MOL0     C49168   6.995   8.306   9.052 -0.4106  0.2735 -0.3881
  373MOL0     C49169   6.248   8.417   8.976 -0.9845 -1.1802 -0.1627
  373MOL0     C49170   6.111   8.442   8.952 -0.1387 -0.0347 -0.2595
  373MOL0     H49171   5.682   8.641   8.751  0.1643 -0.2957 -0.2423
  373MOL0     H49172   5.435   8.599   8.695 -0.2114 -1.1421 -1.2278
  373MOL0     H49173   5.242   8.382   8.995 -4.0202  1.0979  3.4168
  373MOL0     H49174   5.111   8.378   8.893  0.8829 -3.0139 -0.1535
  373MOL0     H49175   5.290   8.618   8.944  0.2229 -0.5503  1.6311
  373MOL0     H49176   5.140   8.581   9.031 -0.7140  2.3855 -1.2704
  373MOL0     H49177   5.032   8.574   8.785  0.6997 -1.4243  0.4295
  373MOL0     H49178   5.173   8.669   8.747  0.3641 -0.8941  0.0596
  373MOL0     H49179   4.971   8.750   8.971 -1.2549  4.1202  0.7423
  373MOL0     H49180   5.112   8.840   8.920  0.7213 -0.7743 -1.7850
  373MOL0     H49181   5.001   8.872   8.694  0.8003 -3.6749  0.1863
  373MOL0     H49182   4.901   8.934   8.838 -0.7596 -0.6247 -1.0384
  373MOL0     H49183   4.770   8.713   8.831  0.2975 -0.0713  0.2353
  373MOL0     H49184   4.848   8.678   8.677 -1.7418 -0.6201 -0.0549
  373MOL0     H49185   4.650   8.886   8.777 -1.2449  0.7959 -1.8689
  373MOL0     H49186   4.734   8.923   8.628  1.0463  0.9329  1.4838
  373MOL0     H49187   4.533   8.696   8.673 -0.3368  0.9419  1.7101
  373MOL0     H49188   4.629   8.713   8.526  2.5715  0.6537  0.0291
  373MOL0     H49189   4.405   8.964   8.754 -1.1994  1.8567 -0.2229
  373MOL0     H49190   4.225   9.210   8.516 -1.1708 -0.2292 -0.9662
  373MOL0     H49191   4.255   9.167   8.686  0.7032  0.5516 -0.7538
  373MOL0     H49192   4.112   8.976   8.666 -0.1451  0.2649  0.2865
  373MOL0     H49193   4.064   9.003   8.500  2.2879  0.3857 -1.0788
  373MOL0     H49194   4.004   9.183   8.738  3.0101 -1.4648  0.2496
  373MOL0     H49195   4.004   9.237   8.566  2.2566 -0.1289 -0.7297
  373MOL0     H49196   3.824   9.002   8.640 -1.4810 -1.2832 -1.2837
  373MOL0     H49197   3.850   9.094   8.488  0.9048 -2.0397 -0.1269
  373MOL0     H49198   3.531   9.316   8.677 -1.0682 -2.7987  4.0637
  373MOL0     H49199   3.311   9.260   8.633 -1.4190 -3.3785  4.5840
  373MOL0     H49200   2.943   8.895   8.623  0.1666 -0.8446 -1.7892
  373MOL0     H49201   2.701   8.866   8.550 -0.1984 -0.2898 -0.2874
  373MOL0     H49202   2.613   8.979   8.194  2.2954  3.2552 -1.5128
  373MOL0     H49203   2.534   9.134   8.242 -0.7089  0.2927  2.5980
  373MOL0     H49204   2.409   8.859   8.279 -0.2432 -0.2300 -1.5620
  373MOL0     H49205   2.374   8.959   8.140 -3.8721 -0.6364  0.6833
  373MOL0     H49206   2.301   9.138   8.317  0.5432 -0.2535  0.8841
  373MOL0     H49207   2.314   9.022   8.435  3.9682  2.3708 -1.0256
  373MOL0     H49208   2.120   8.969   8.198 -0.3309 -0.2564 -0.3480
  373MOL0     H49209   2.133   8.885   8.342  0.4914  0.0555  0.8580
  373MOL0     H49210   1.934   9.022   8.334  0.6311 -1.3577  0.4891
  373MOL0     H49211   2.036   9.173   8.318 -0.0019  0.2130  2.3909
  373MOL0     H49212   2.134   9.065   8.545  0.9740 -0.4508 -3.1181
  373MOL0     H49213   1.970   8.991   8.543 -0.9346  0.0828 -2.2226
  373MOL0     H49214   2.020   9.215   8.671  0.1913 -2.1976  0.7362
  373MOL0     H49215   2.032   9.291   8.506 -0.4621  0.0608 -1.0123
  373MOL0     H49216   1.780   9.139   8.579  3.5055 -3.0462 -1.0794
  373MOL0     H49217   1.808   9.219   8.429 -1.4807  1.3263 -0.4449
  373MOL0     H49218   2.748   9.200   8.299 -1.1775 -1.8825 -0.8270
  373MOL0     H49219   2.962   9.249   8.364  0.4943  0.4054  1.0300
  373MOL0     H49220   3.443   8.907   8.435  0.9099 -0.1395 -0.5603
  373MOL0     H49221   3.675   8.975   8.466  0.4696 -0.7543  0.9459
  373MOL0     H49222   5.436   8.255   8.939 -3.2655  0.4473 -4.1240
  373MOL0     H49223   5.690   8.307   9.002  1.6657  0.8841 -1.4686
  373MOL0     H49224   6.120   8.780   8.951 -2.2186 -0.8892  1.8456
  373MOL0     H49225   6.359   8.740   8.972  1.3327 -1.8092  0.4172
  373MOL0     H49226   6.518   8.311   9.016  1.2869  0.6067 -1.0717
  373MOL0     H49227   6.434   8.349   9.164  2.3585 -0.2699  2.6818
  373MOL0     H49228   6.724   8.465   9.136 -1.3944  1.2489 -0.0698
  373MOL0     H49229   6.628   8.483   9.266  2.2002  1.9148 -0.8965
  373MOL0     H49230   6.611   8.228   9.280  0.8116  0.1318  0.4884
  373MOL0     H49231   6.754   8.302   9.328 -3.4241  1.7314  0.8140
  373MOL0     H49232   6.795   8.095   9.167  2.3182  1.0191  3.6860
  373MOL0     H49233   6.708   8.182   9.042 -0.9216  0.8299  0.6591
  373MOL0     H49234   7.087   8.347   9.016 -0.4612  1.7302  1.0235
  373MOL0     H49235   6.290   8.317   8.976 -0.6941 -1.0694 -1.2311
  373MOL0     H49236   6.040   8.361   8.951  1.8470 -1.9729  2.0377
  374MOL0     O49237   2.943   3.111   5.795  0.5501 -0.1014 -0.1785
  374MOL0     C49238   2.962   3.151   5.681 -0.7019 -0.8017 -0.0440
  374MOL0     O49239   2.868   3.199   5.593  0.6250 -0.2345  0.4172
  374MOL0     C49240   2.738   3.217   5.639  0.2288 -0.1632  0.2109
  374MOL0     C49241   2.634   3.193   5.542 -0.2184 -0.2894  0.3281
  374MOL0     C49242   2.500   3.204   5.571  0.7605 -1.2014 -0.2544
  374MOL0     C49243   2.463   3.249   5.706 -0.4453  0.0731 -0.3935
  374MOL0     O49244   2.336   3.268   5.746  0.0240  0.0737 -0.3507
  374MOL0     C49245   2.234   3.262   5.649  0.8756 -0.0493 -0.5287
  374MOL0     C49246   2.110   3.305   5.720 -0.1244  0.0632 -0.1428
  374MOL0     C49247   1.977   3.277   5.639 -0.6859  0.1828  0.2010
  374MOL0     C49248   1.847   3.308   5.718 -0.0201 -0.6824  0.1382
  374MOL0     C49249   1.720   3.244   5.644  0.0145  0.1090 -0.3655
  374MOL0     C49250   1.593   3.312   5.699  0.5410  0.2605  0.0783
  374MOL0     C49251   1.580   3.454   5.631  0.5892  1.1584 -0.0593
  374MOL0     C49252   1.433   3.502   5.636  0.8302 -0.9050 -0.1094
  374MOL0     N49253   1.434   3.654   5.618 -0.3529  0.2545  0.8336
  374MOL0     C49254   1.385   3.710   5.507 -0.4686  0.1722  0.9331
  374MOL0     C49255   1.386   3.841   5.539 -0.2252  0.0279  0.1594
  374MOL0     C49256   1.345   3.945   5.451  0.9971 -0.1134  0.0729
  374MOL0     C49257   1.444   3.970   5.338  0.3446  0.1269 -0.1209
  374MOL0     C49258   1.397   4.095   5.248 -0.7253  0.7956  0.1253
  374MOL0     C49259   1.261   4.074   5.190 -0.0429  1.0667  0.0453
  374MOL0     O49260   1.154   4.100   5.281  0.3316 -0.1010  0.1955
  374MOL0     C49261   1.029   4.067   5.246 -0.7752 -0.7319 -0.1323
  374MOL0     C49262   0.993   4.029   5.111  0.3501  0.0535  0.4151
  374MOL0     C49263   0.858   4.019   5.086  0.7330 -0.9046  0.2536
  374MOL0     C49264   0.751   4.054   5.180  0.1627 -0.3112 -0.3816
  374MOL0     C49265   0.609   4.039   5.138  0.3957  0.6484 -1.2252
  374MOL0     O49266   0.521   4.095   5.227 -0.6270 -0.3216  0.3933
  374MOL0     C49267   0.389   4.053   5.217  0.8971  0.2444  0.5413
  374MOL0     C49268   0.351   3.918   5.228  0.0925  0.1642 -0.4752
  374MOL0     C49269   0.222   3.871   5.250  0.1861 -0.3995 -0.0439
  374MOL0     C49270   0.119   3.970   5.239  0.6628  0.1912 -1.3882
  374MOL0     O49271  -0.008   3.930   5.291 -0.4775  0.5000  0.2303
  374MOL0     C49272  -0.108   4.023   5.323  0.8746  0.6008  1.6631
  374MOL0     C49273  -0.229   3.968   5.388 -0.4664 -0.0313  0.1884
  374MOL0     C49274  -0.330   4.072   5.381  0.8656  0.0252  0.4414
  374MOL0     C49275  -0.463   3.999   5.408 -0.0854 -0.1169 -0.1978
  374MOL0     C49276  -0.586   4.094   5.425 -0.5149  0.1203  0.2777
  374MOL0     C49277  -0.716   4.008   5.425  0.7575 -0.6883 -0.1895
  374MOL0     C49278  -0.839   4.102   5.443  0.5280  0.4559  0.2238
  374MOL0     C49279  -0.965   4.048   5.514 -0.8288  0.0849  0.2063
  374MOL0    Cl49280  -1.042   3.939   5.404  0.3598 -0.3621  0.0939
  374MOL0     C49281   0.146   4.100   5.213 -0.7681 -0.3063  0.2838
  374MOL0     C49282   0.279   4.150   5.199 -0.4077  0.0855 -1.0655
  374MOL0     O49283   0.580   3.979   5.039 -0.0214  0.2482 -0.9778
  374MOL0     C49284   0.797   4.090   5.310 -0.3427  1.0831  0.1533
  374MOL0     C49285   0.935   4.083   5.343  0.2635 -0.9851  0.3516
  374MOL0     N49286   1.436   3.864   5.666 -0.2520  0.4204  0.2283
  374MOL0     N49287   1.460   3.744   5.707  0.4650 -0.1656 -0.5588
  374MOL0     C49288   2.563   3.283   5.804  0.7055 -0.3015 -0.8096
  374MOL0     C49289   2.696   3.256   5.767  0.9857  0.2712 -0.2831
  374MOL0     C49290   3.109   3.184   5.646  0.1243  0.4852  0.5100
  374MOL0     C49291   3.139   3.268   5.538 -0.8435 -0.4740 -0.3570
  374MOL0     C49292   3.270   3.303   5.514  0.1721 -0.3413 -0.2090
  374MOL0     C49293   3.375   3.251   5.592 -1.1128  0.3205  0.9023
  374MOL0     O49294   3.502   3.272   5.543 -0.7293  0.1683 -0.0167
  374MOL0     C49295   3.614   3.234   5.630  0.1200 -1.0016 -0.4021
  374MOL0     C49296   3.733   3.302   5.565 -0.1066  0.3770  0.0943
  374MOL0     C49297   3.739   3.458   5.581  0.7970 -0.4243  0.2543
  374MOL0     C49298   3.859   3.525   5.517  0.4024  0.1002 -0.3590
  374MOL0     C49299   3.847   3.533   5.368  0.4189 -0.2515  0.1731
  374MOL0     C49300   3.843   3.526   5.245 -0.2320  0.1347  0.2069
  374MOL0     C49301   3.347   3.158   5.693 -0.3653  0.3426  0.1598
  374MOL0     C49302   3.218   3.122   5.716 -0.8221 -0.0926 -0.6050
  374MOL0     H49303   2.661   3.168   5.440 -1.8047 -2.4497  0.3569
  374MOL0     H49304   2.429   3.180   5.493  0.4377 -0.8521 -0.0723
  374MOL0     H49305   2.214   3.162   5.609  0.5375  0.6556 -2.1893
  374MOL0     H49306   2.247   3.323   5.559  0.1430 -1.1605 -1.4181
  374MOL0     H49307   2.118   3.409   5.752  1.1149 -0.6600  2.1201
  374MOL0     H49308   2.093   3.241   5.808  0.3175  0.8888  0.5578
  374MOL0     H49309   1.977   3.172   5.608 -2.5307 -0.3325  1.7551
  374MOL0     H49310   1.985   3.330   5.544 -0.3884  0.3447  0.3151
  374MOL0     H49311   1.857   3.268   5.819 -2.9693 -2.1270 -0.0613
  374MOL0     H49312   1.842   3.417   5.721 -0.0334 -0.6336 -1.1303
  374MOL0     H49313   1.717   3.135   5.656  0.6842  0.1133 -0.0843
  374MOL0     H49314   1.729   3.249   5.535 -2.1025  1.9791 -0.5176
  374MOL0     H49315   1.595   3.314   5.808 -2.0211  1.3751  0.1819
  374MOL0     H49316   1.501   3.258   5.671 -0.7599  0.8484  2.8967
  374MOL0     H49317   1.648   3.527   5.674  1.2269  0.9861 -0.7578
  374MOL0     H49318   1.612   3.438   5.527 -1.5319 -0.3281 -0.5622
  374MOL0     H49319   1.374   3.487   5.727  0.5264  1.5446  0.1657
  374MOL0     H49320   1.373   3.458   5.557 -0.3146  1.5915 -0.7319
  374MOL0     H49321   1.354   3.657   5.418  0.2543  0.5045  0.4786
  374MOL0     H49322   1.349   4.035   5.513  3.4289  0.4434 -0.7798
  374MOL0     H49323   1.242   3.927   5.419  0.3064  2.5938  0.4690
  374MOL0     H49324   1.455   3.887   5.268 -1.9454  0.0926 -0.5106
  374MOL0     H49325   1.543   4.001   5.375 -0.1075 -0.0797  1.3129
  374MOL0     H49326   1.395   4.193   5.296 -1.8236  1.6797 -1.6497
  374MOL0     H49327   1.464   4.096   5.161 -1.2830 -1.3525 -0.3842
  374MOL0     H49328   1.248   3.972   5.153 -0.3031  1.2283 -0.3213
  374MOL0     H49329   1.260   4.150   5.111  1.0473  0.3814 -0.6509
  374MOL0     H49330   1.055   4.003   5.026 -0.9667 -0.7490 -0.3413
  374MOL0     H49331   0.827   4.002   4.984 -2.6070  1.3985  0.7182
  374MOL0     H49332   0.429   3.842   5.234  0.3097  0.2575 -1.8055
  374MOL0     H49333   0.189   3.770   5.271 -2.4534 -0.1028 -2.2225
  374MOL0     H49334  -0.140   4.072   5.230 -0.6714  2.3072  3.0010
  374MOL0     H49335  -0.062   4.098   5.387  0.2569 -1.0111  4.1229
  374MOL0     H49336  -0.204   3.935   5.489  2.3968 -0.2025 -0.4781
  374MOL0     H49337  -0.260   3.883   5.326  1.4309 -0.6748  0.0405
  374MOL0     H49338  -0.355   4.118   5.285  1.7385  0.5128  0.4435
  374MOL0     H49339  -0.312   4.152   5.454  0.2108 -1.0420  1.8266
  374MOL0     H49340  -0.477   3.925   5.328  3.2427 -0.4849 -0.5767
  374MOL0     H49341  -0.435   3.959   5.505 -0.0382  3.1743  1.2889
  374MOL0     H49342  -0.584   4.172   5.348 -0.3949 -0.8133 -0.6971
  374MOL0     H49343  -0.578   4.132   5.527  0.3670 -1.1853  0.7306
  374MOL0     H49344  -0.706   3.941   5.510  0.3452  2.3958  2.4890
  374MOL0     H49345  -0.726   3.942   5.338  0.4595  1.0472 -1.5371
  374MOL0     H49346  -0.793   4.181   5.504  2.4295  0.3074 -0.9189
  374MOL0     H49347  -0.867   4.124   5.339  0.0758 -2.8461 -0.4353
  374MOL0     H49348  -1.030   4.133   5.534 -0.3584  0.5199 -0.1261
  374MOL0     H49349  -0.953   4.002   5.613 -2.0393  0.7459  0.6934
  374MOL0     H49350   0.069   4.175   5.200  1.8572  2.0378 -3.9890
  374MOL0     H49351   0.294   4.257   5.191  0.5553  0.1000  0.5755
  374MOL0     H49352   0.735   4.114   5.395 -1.4005 -1.1041  0.0642
  374MOL0     H49353   0.962   4.098   5.447  1.3579 -3.1377  0.4225
  374MOL0     H49354   2.527   3.323   5.898 -1.1224 -2.0142 -0.7095
  374MOL0     H49355   2.767   3.275   5.847 -0.8159 -0.4711  1.5592
  374MOL0     H49356   3.062   3.332   5.496  2.2457  3.1730 -1.0906
  374MOL0     H49357   3.290   3.363   5.426  0.5707  0.5673  0.4933
  374MOL0     H49358   3.643   3.129   5.625  2.2432 -0.5756  1.3853
  374MOL0     H49359   3.606   3.261   5.736  4.7302 -0.9483  0.1392
  374MOL0     H49360   3.828   3.259   5.597 -0.2698  0.8059  1.2018
  374MOL0     H49361   3.735   3.279   5.458  1.0853  2.9777 -0.5179
  374MOL0     H49362   3.740   3.486   5.687 -2.5155 -0.5246  0.4170
  374MOL0     H49363   3.646   3.494   5.535  1.5442  0.1088 -0.8816
  374MOL0     H49364   3.869   3.623   5.564  0.5177 -1.0614  2.1782
  374MOL0     H49365   3.941   3.458   5.543  0.4385  0.2671 -0.0416
  374MOL0     H49366   3.849   3.520   5.138  3.8884  2.5091  0.1089
  374MOL0     H49367   3.416   3.112   5.764  1.2920 -1.4070 -2.4125
  374MOL0     H49368   3.193   3.055   5.797  0.4284  1.2496  0.9832
  375MOL0     O49369   9.912   9.255   1.084 -0.5251 -0.3811 -0.6629
  375MOL0     C49370   9.925   9.166   1.170 -0.1938  1.0283 -0.2889
  375MOL0     O49371   9.831   9.085   1.223 -0.2343  0.5059  0.0459
  375MOL0     C49372   9.698   9.113   1.205  0.7929  0.3935 -0.9670
  375MOL0     C49373   9.638   9.144   1.086 -0.4500  0.1924  0.6961
  375MOL0     C49374   9.503   9.168   1.080 -0.1060 -0.0625 -0.4820
  375MOL0     C49375   9.424   9.165   1.189  0.7963 -0.1118  0.6402
  375MOL0     O49376   9.292   9.207   1.178  0.2366  0.4082  0.0557
  375MOL0     C49377   9.204   9.202   1.291  0.8828  0.7508  0.7019
  375MOL0     C49378   9.076   9.286   1.277 -0.0570  0.1145  0.1925
  375MOL0     C49379   8.987   9.242   1.157  0.1495 -0.4499  0.2777
  375MOL0     C49380   8.904   9.107   1.177 -0.6831  0.1158 -0.0779
  375MOL0     C49381   8.817   9.076   1.060  0.0648 -0.0541  0.2850
  375MOL0     C49382   8.719   8.954   1.061 -0.0670 -0.4758  0.3592
  375MOL0     C49383   8.795   8.818   1.072 -0.0305 -0.3763  0.7531
  375MOL0     C49384   8.708   8.697   1.046 -0.2146  0.7946  0.6955
  375MOL0     N49385   8.600   8.682   1.143  0.5716 -0.2897  0.7823
  375MOL0     C49386   8.604   8.593   1.240  0.6190  0.4944  0.0659
  375MOL0     C49387   8.483   8.592   1.309  0.1705 -0.3681 -0.3310
  375MOL0     C49388   8.430   8.506   1.428 -0.0286  0.2950  0.0946
  375MOL0     C49389   8.277   8.496   1.414  0.2336 -0.2335 -0.2137
  375MOL0     C49390   8.222   8.403   1.524 -0.7121  0.5806  0.3545
  375MOL0     C49391   8.069   8.391   1.526 -0.5563  0.8680  0.3843
  375MOL0     O49392   8.004   8.510   1.573 -0.0487  0.3546  0.4062
  375MOL0     C49393   7.875   8.494   1.623  0.1431 -0.4399 -0.3584
  375MOL0     C49394   7.799   8.612   1.644  0.0791  0.7912  0.2309
  375MOL0     C49395   7.663   8.613   1.673  0.2223  0.0423  0.0129
  375MOL0     C49396   7.595   8.499   1.698 -0.6324 -0.2527  0.5495
  375MOL0     C49397   7.451   8.511   1.739  0.2080 -0.9963  0.7924
  375MOL0     O49398   7.387   8.387   1.759 -0.0314  0.0115 -0.3412
  375MOL0     C49399   7.254   8.371   1.778  0.0415  1.2959  0.4971
  375MOL0     C49400   7.213   8.262   1.838  0.4376  0.5927 -0.0364
  375MOL0     C49401   7.079   8.235   1.866 -0.7327 -0.0025  0.4152
  375MOL0     C49402   6.981   8.317   1.816 -0.5789 -0.3352 -0.2517
  375MOL0     O49403   6.857   8.276   1.832 -0.1469  0.0499 -0.7422
  375MOL0     C49404   6.746   8.359   1.848  0.0654  0.1408  0.4763
  375MOL0     C49405   6.617   8.281   1.889 -0.1924  0.8682 -0.2176
  375MOL0     C49406   6.648   8.222   2.029 -0.2350  0.5263  0.4590
  375MOL0     C49407   6.654   8.318   2.150  0.3165 -0.3322  0.9160
  375MOL0     C49408   6.767   8.279   2.251  0.2191 -0.1307 -0.8691
  375MOL0     C49409   6.745   8.358   2.380 -0.3070 -0.9849  0.2677
  375MOL0     C49410   6.869   8.372   2.458  0.6660  0.1231 -0.3954
  375MOL0     C49411   6.900   8.237   2.530  0.4320 -0.1989 -0.5177
  375MOL0    Cl49412   7.046   8.247   2.626 -0.7477  0.1621 -0.1283
  375MOL0     C49413   7.015   8.431   1.748 -0.6942  1.1796  0.5267
  375MOL0     C49414   7.153   8.457   1.729 -0.0609  0.2934  0.0497
  375MOL0     O49415   7.393   8.611   1.720  0.0461 -0.0450  0.2167
  375MOL0     C49416   7.656   8.377   1.674  0.3883  0.6930 -1.2572
  375MOL0     C49417   7.797   8.371   1.632 -0.4297  0.2545 -0.4823
  375MOL0     N49418   8.416   8.693   1.255  0.2046 -0.4226 -0.5729
  375MOL0     N49419   8.486   8.745   1.155 -0.5205  0.1041 -0.0771
  375MOL0     C49420   9.474   9.124   1.312  0.5301  0.2442 -0.6810
  375MOL0     C49421   9.615   9.090   1.321 -0.8384  0.2011 -0.1129
  375MOL0     C49422  10.065   9.139   1.217  0.3816 -0.2491  0.0216
  375MOL0     C49423  10.077   9.042   1.313 -0.1489 -0.3610  0.0930
  375MOL0     C49424  10.211   9.012   1.342 -0.7934  0.2699 -0.1300
  375MOL0     C49425  10.320   9.091   1.308  0.3330 -0.0797  0.3959
  375MOL0     O49426  10.440   9.063   1.362 -0.3809 -0.2416 -0.0912
  375MOL0     C49427  10.529   9.179   1.375  0.4411 -0.5906 -0.8498
  375MOL0     C49428  10.651   9.158   1.460  0.0912 -0.2773  0.5839
  375MOL0     C49429  10.724   9.036   1.403  0.3749 -0.1620 -0.4611
  375MOL0     C49430  10.857   9.008   1.474  0.2112  0.4162  0.0135
  375MOL0     C49431  10.970   9.094   1.443 -0.2733 -0.2736 -0.2529
  375MOL0     C49432  11.067   9.160   1.414  0.4751  0.1501 -0.3475
  375MOL0     C49433  10.295   9.195   1.225 -0.3749  0.1886  0.0563
  375MOL0     C49434  10.163   9.221   1.176  0.1682 -0.2837 -0.2644
  375MOL0     H49435   9.705   9.148   1.001  0.0204  1.7773  1.1000
  375MOL0     H49436   9.459   9.183   0.982 -1.5852  1.9438  0.4197
  375MOL0     H49437   9.268   9.240   1.372  3.7547 -0.1746 -0.9706
  375MOL0     H49438   9.186   9.096   1.308  1.5284  0.5145 -0.0608
  375MOL0     H49439   9.104   9.390   1.256  0.3564 -0.2970 -1.4509
  375MOL0     H49440   9.024   9.280   1.373  0.0569  0.1211  0.2554
  375MOL0     H49441   9.045   9.222   1.066 -1.4973 -0.4116 -0.8283
  375MOL0     H49442   8.921   9.325   1.131  0.4967 -1.2665 -4.0265
  375MOL0     H49443   8.971   9.025   1.204  2.3317  2.5038  0.2467
  375MOL0     H49444   8.843   9.134   1.264  0.4828  2.1509  0.1677
  375MOL0     H49445   8.882   9.053   0.975 -0.6010 -1.7254  0.1968
  375MOL0     H49446   8.756   9.161   1.028  2.2381  1.0771 -1.1207
  375MOL0     H49447   8.670   8.963   0.964  2.4036  0.0430 -0.9219
  375MOL0     H49448   8.644   8.965   1.141 -0.2600  3.9794 -0.1667
  375MOL0     H49449   8.868   8.810   0.991 -1.0569 -1.5705 -0.1032
  375MOL0     H49450   8.851   8.821   1.166 -2.2467 -0.7048  2.1616
  375MOL0     H49451   8.776   8.612   1.033  0.5424  1.6880 -1.9506
  375MOL0     H49452   8.666   8.717   0.947 -0.5894 -0.6732  0.5301
  375MOL0     H49453   8.680   8.519   1.265 -1.9487 -2.2530  0.4634
  375MOL0     H49454   8.451   8.547   1.527 -1.4184  1.1149  0.0775
  375MOL0     H49455   8.464   8.402   1.423  0.3069  0.3480  1.0959
  375MOL0     H49456   8.246   8.459   1.316 -1.4905  2.0930 -0.6257
  375MOL0     H49457   8.229   8.594   1.418  0.3475 -0.1760 -0.2731
  375MOL0     H49458   8.264   8.304   1.503  4.1586  2.5271 -0.4532
  375MOL0     H49459   8.259   8.418   1.626 -2.6041  0.3832  1.0992
  375MOL0     H49460   8.049   8.303   1.587  1.7771 -0.8291 -1.1437
  375MOL0     H49461   8.029   8.369   1.426  2.5472 -0.3147 -0.7204
  375MOL0     H49462   7.847   8.707   1.624  0.3662  0.6118  0.0624
  375MOL0     H49463   7.619   8.712   1.682  0.1086 -0.0995  1.0584
  375MOL0     H49464   7.296   8.204   1.878  0.1971 -0.6397 -1.2457
  375MOL0     H49465   7.061   8.137   1.910 -3.3553 -0.0328 -0.5873
  375MOL0     H49466   6.725   8.419   1.759  0.6593  2.1666  1.6224
  375MOL0     H49467   6.776   8.435   1.921  1.9152  1.9197 -1.9582
  375MOL0     H49468   6.598   8.200   1.818 -0.1002  1.6325 -1.1464
  375MOL0     H49469   6.526   8.343   1.892 -1.1502 -0.4467 -0.8746
  375MOL0     H49470   6.746   8.174   2.013 -0.2461  1.1278 -1.8908
  375MOL0     H49471   6.568   8.149   2.046 -0.2706  1.2433  3.8940
  375MOL0     H49472   6.679   8.420   2.121 -1.0257 -0.5159 -1.0411
  375MOL0     H49473   6.563   8.321   2.210  0.1495  1.2854  0.6215
  375MOL0     H49474   6.860   8.301   2.197  0.9461 -1.4990 -0.2205
  375MOL0     H49475   6.769   8.173   2.278  1.3565  0.0774 -0.0375
  375MOL0     H49476   6.680   8.316   2.457  0.0504  1.2047  1.8816
  375MOL0     H49477   6.717   8.459   2.349 -0.4347 -1.9429 -3.1456
  375MOL0     H49478   6.957   8.401   2.401  1.3717 -0.3934  0.4005
  375MOL0     H49479   6.854   8.447   2.536  2.2435 -1.2182  1.3000
  375MOL0     H49480   6.908   8.155   2.459 -2.3740 -0.2056 -0.9254
  375MOL0     H49481   6.822   8.208   2.601  1.3628 -2.5233 -0.3830
  375MOL0     H49482   6.941   8.505   1.719  0.0632  1.5892 -0.4194
  375MOL0     H49483   7.171   8.549   1.675  0.0895  0.0062 -0.4004
  375MOL0     H49484   7.607   8.281   1.688  1.1010  0.4543 -0.2227
  375MOL0     H49485   7.841   8.276   1.603 -1.0610 -1.6024  3.8122
  375MOL0     H49486   9.421   9.123   1.406 -0.7225 -1.6707 -1.3664
  375MOL0     H49487   9.662   9.066   1.416  4.1629  0.4493 -2.2035
  375MOL0     H49488   9.996   8.976   1.343  0.4799 -2.4595 -2.4101
  375MOL0     H49489  10.218   8.938   1.421  0.9289  0.4441 -0.0792
  375MOL0     H49490  10.473   9.260   1.423 -2.6163 -3.9579  1.7956
  375MOL0     H49491  10.557   9.225   1.280  1.9052  1.4777  0.5055
  375MOL0     H49492  10.704   9.253   1.452 -2.2145  1.1098  0.8424
  375MOL0     H49493  10.623   9.138   1.564 -0.7778 -2.4305 -0.0020
  375MOL0     H49494  10.746   9.041   1.296  2.8365 -2.8954 -0.2090
  375MOL0     H49495  10.652   8.955   1.418 -1.0136  1.3033  1.2865
  375MOL0     H49496  10.848   9.014   1.583  2.2428 -2.5209  0.4753
  375MOL0     H49497  10.882   8.903   1.451 -1.6440 -0.1220  0.3374
  375MOL0     H49498  11.149   9.222   1.385  2.6321 -2.2061  0.3728
  375MOL0     H49499  10.371   9.256   1.177 -0.4640  0.2835  0.0346
  375MOL0     H49500  10.137   9.303   1.109  1.1532  1.0184  0.8861
  376MOL0     O49501   2.615   8.588   1.170  0.6644  1.0920  0.6132
  376MOL0     C49502   2.631   8.655   1.275 -0.3384 -0.0922 -0.2930
  376MOL0     O49503   2.719   8.765   1.289 -0.0394 -0.4449  0.0531
  376MOL0     C49504   2.792   8.793   1.178  0.0012 -0.0957  0.4262
  376MOL0     C49505   2.771   8.898   1.092 -0.3426  0.2330  0.5661
  376MOL0     C49506   2.851   8.922   0.985 -0.3732  0.0215 -0.6386
  376MOL0     C49507   2.980   8.857   0.962  0.7877  0.7764 -1.4109
  376MOL0     O49508   3.058   8.887   0.855  0.4151 -0.7372 -0.3224
  376MOL0     C49509   2.993   8.956   0.745 -0.0737  0.3127 -0.9757
  376MOL0     C49510   3.094   8.951   0.634  0.6479 -0.8648 -0.9158
  376MOL0     C49511   3.150   8.820   0.601  0.6061  0.0903 -0.8327
  376MOL0     C49512   3.231   8.848   0.474 -0.0212  0.2050  0.2594
  376MOL0     C49513   3.304   8.726   0.414 -0.2241 -0.5324 -0.3621
  376MOL0     C49514   3.211   8.618   0.365 -0.0239  0.3469  0.0348
  376MOL0     C49515   3.289   8.485   0.325  0.4856 -0.4521 -0.5509
  376MOL0     C49516   3.191   8.366   0.345 -0.3656  0.3738  0.0343
  376MOL0     N49517   3.096   8.344   0.238 -0.5413 -0.1072 -0.2384
  376MOL0     C49518   3.011   8.432   0.180  0.4107 -0.3041  0.5119
  376MOL0     C49519   2.964   8.364   0.072  0.3398  0.9586  0.1886
  376MOL0     C49520   2.850   8.406  -0.011 -0.1109 -0.4298 -0.4082
  376MOL0     C49521   2.738   8.298  -0.015 -1.4062 -0.8178 -0.5771
  376MOL0     C49522   2.602   8.362  -0.062  0.1295  0.6295  0.4854
  376MOL0     C49523   2.501   8.252  -0.086 -0.5042  0.3883 -0.7075
  376MOL0     O49524   2.398   8.300  -0.174  0.3245  0.2414  1.2145
  376MOL0     C49525   2.273   8.246  -0.206  0.2862 -0.1894 -0.1653
  376MOL0     C49526   2.180   8.323  -0.286 -0.6615 -0.2737 -0.0519
  376MOL0     C49527   2.047   8.280  -0.300 -0.0296  0.0275 -0.6378
  376MOL0     C49528   2.008   8.150  -0.256 -0.7000  0.6331 -0.2812
  376MOL0     C49529   1.875   8.096  -0.282 -0.6303  0.5048  1.1255
  376MOL0     O49530   1.851   7.957  -0.261  0.2583  0.2422 -0.2541
  376MOL0     C49531   1.715   7.902  -0.261 -0.1929 -0.9253 -0.0918
  376MOL0     C49532   1.673   7.828  -0.157  0.0304  0.4115  0.0797
  376MOL0     C49533   1.549   7.756  -0.154  0.0880  0.9028 -0.0762
  376MOL0     C49534   1.462   7.772  -0.254  0.2945 -0.4639  0.5154
  376MOL0     O49535   1.337   7.711  -0.256 -0.4331 -0.7361  0.0510
  376MOL0     C49536   1.277   7.675  -0.134 -0.1328  0.3570 -0.5821
  376MOL0     C49537   1.283   7.527  -0.118 -0.6529 -0.3298  0.0259
  376MOL0     C49538   1.161   7.436  -0.118  0.0402 -0.2445  0.0696
  376MOL0     C49539   1.099   7.417  -0.258  0.6716  0.3870 -0.0368
  376MOL0     C49540   0.961   7.355  -0.274 -0.0881  0.6155  0.2437
  376MOL0     C49541   0.952   7.210  -0.215 -0.0263 -0.1842  0.4962
  376MOL0     C49542   0.820   7.156  -0.258 -0.5056  0.2686 -0.1218
  376MOL0     C49543   0.843   7.013  -0.318  0.1352 -0.0295  0.1522
  376MOL0    Cl49544   0.885   6.915  -0.179 -0.1567 -0.3054  0.2056
  376MOL0     C49545   1.499   7.854  -0.366 -1.0332 -0.0014 -0.1196
  376MOL0     C49546   1.623   7.917  -0.366 -0.1380 -0.1453  0.0901
  376MOL0     O49547   1.797   8.176  -0.324 -0.2689  0.0124 -0.6798
  376MOL0     C49548   2.106   8.071  -0.192  0.3221  0.1261  0.8484
  376MOL0     C49549   2.231   8.121  -0.159 -0.2400 -0.5670  0.6882
  376MOL0     N49550   3.021   8.237   0.067 -0.6670 -0.1127 -0.1004
  376MOL0     N49551   3.102   8.228   0.165 -0.4094 -0.5851 -0.3928
  376MOL0     C49552   3.010   8.750   1.048 -0.4397 -0.5044  0.2869
  376MOL0     C49553   2.910   8.716   1.152  0.0100 -0.5688 -0.8216
  376MOL0     C49554   2.567   8.599   1.397  0.2910  0.3665 -0.3454
  376MOL0     C49555   2.526   8.463   1.395  1.2285  0.0510 -0.4858
  376MOL0     C49556   2.473   8.406   1.515  0.0804 -0.4478 -0.4381
  376MOL0     C49557   2.453   8.486   1.631 -0.5817  0.2556  0.2831
  376MOL0     O49558   2.402   8.438   1.745 -1.0198  0.0425 -0.7008
  376MOL0     C49559   2.324   8.320   1.747 -0.5140 -0.3958  0.4876
  376MOL0     C49560   2.202   8.330   1.837 -0.0351 -0.5362 -0.4128
  376MOL0     C49561   2.223   8.355   1.986  0.3793 -0.8351  0.7463
  376MOL0     C49562   2.273   8.238   2.071 -0.1811 -0.3598  0.8830
  376MOL0     C49563   2.165   8.168   2.132  1.0799  0.8241  0.0361
  376MOL0     C49564   2.067   8.122   2.196  0.6552 -0.4464 -0.6680
  376MOL0     C49565   2.498   8.620   1.623 -0.7407 -0.4364  0.1016
  376MOL0     C49566   2.551   8.679   1.512  0.1718  0.2776  0.2681
  376MOL0     H49567   2.690   8.966   1.116 -0.0241 -0.1056  2.7805
  376MOL0     H49568   2.810   9.005   0.928  1.4782  2.3151  1.1287
  376MOL0     H49569   2.965   9.054   0.784  0.2488 -0.2627  0.8035
  376MOL0     H49570   2.902   8.903   0.715 -1.6998  1.6270  1.3084
  376MOL0     H49571   3.175   9.014   0.671 -1.7952  1.6969  0.5321
  376MOL0     H49572   3.043   9.000   0.550  1.1442 -0.4494 -0.9820
  376MOL0     H49573   3.070   8.746   0.587 -0.4569  1.0177  0.0845
  376MOL0     H49574   3.200   8.773   0.686 -0.7199  1.2364  0.6518
  376MOL0     H49575   3.172   8.895   0.395 -0.5929  2.4149  1.8868
  376MOL0     H49576   3.303   8.927   0.498  0.8184  0.0269 -1.5568
  376MOL0     H49577   3.367   8.682   0.492 -0.4115  0.5405  0.4166
  376MOL0     H49578   3.377   8.748   0.336 -0.7383  0.7087 -0.5120
  376MOL0     H49579   3.144   8.653   0.286 -0.4229 -1.1692 -0.3423
  376MOL0     H49580   3.148   8.591   0.451  2.2756 -0.9849  1.4051
  376MOL0     H49581   3.315   8.495   0.219  2.5596 -0.9510 -0.1332
  376MOL0     H49582   3.380   8.472   0.384  0.3584 -0.4095 -0.3452
  376MOL0     H49583   3.142   8.368   0.442 -1.3415 -3.2417 -0.2285
  376MOL0     H49584   3.253   8.276   0.348  1.6020  1.4128 -3.4142
  376MOL0     H49585   2.978   8.532   0.207 -4.6312 -1.3050 -0.8846
  376MOL0     H49586   2.889   8.437  -0.109 -0.3466  0.5258 -0.2105
  376MOL0     H49587   2.804   8.495   0.032 -1.1932 -0.2645 -1.8220
  376MOL0     H49588   2.726   8.249   0.082 -4.1441 -0.1997 -0.5427
  376MOL0     H49589   2.780   8.222  -0.082  0.4376 -1.3894  1.1331
  376MOL0     H49590   2.557   8.428   0.012 -2.3659 -2.9832  2.4887
  376MOL0     H49591   2.616   8.410  -0.160 -0.6621 -0.9675 -0.4579
  376MOL0     H49592   2.459   8.215   0.008 -3.2576  0.9316 -1.6135
  376MOL0     H49593   2.545   8.162  -0.128 -0.6166 -1.5237  2.8814
  376MOL0     H49594   2.221   8.418  -0.319  2.0078 -1.0998  0.6986
  376MOL0     H49595   1.967   8.343  -0.340 -1.4819 -1.7942 -0.7652
  376MOL0     H49596   1.751   7.809  -0.084  0.8042 -2.0645 -1.2714
  376MOL0     H49597   1.534   7.685  -0.074 -1.3263  1.2701 -0.0055
  376MOL0     H49598   1.170   7.698  -0.141 -1.0224 -3.3536 -0.8895
  376MOL0     H49599   1.311   7.737  -0.050 -1.9306  0.0597  0.3992
  376MOL0     H49600   1.334   7.514  -0.022 -1.1489 -0.8592  0.2264
  376MOL0     H49601   1.352   7.490  -0.195 -0.2770  0.0887  0.1581
  376MOL0     H49602   1.095   7.489  -0.049  1.4130  2.8620 -0.8002
  376MOL0     H49603   1.195   7.340  -0.078 -0.7298 -0.1059  1.0890
  376MOL0     H49604   1.098   7.518  -0.299  3.3833  1.1597  1.5748
  376MOL0     H49605   1.176   7.360  -0.312  2.7193  3.1064 -0.2001
  376MOL0     H49606   0.942   7.359  -0.381  2.8995 -0.7989 -0.4370
  376MOL0     H49607   0.889   7.413  -0.215  1.2353  0.3474  2.1981
  376MOL0     H49608   0.946   7.226  -0.107 -0.3988 -0.1364  0.4696
  376MOL0     H49609   1.038   7.149  -0.245 -0.2180  0.8516 -2.5310
  376MOL0     H49610   0.745   7.145  -0.180 -1.8800  3.7619 -0.7235
  376MOL0     H49611   0.778   7.222  -0.335 -1.8254 -1.2718 -0.7742
  376MOL0     H49612   0.905   7.016  -0.408 -0.8011  0.9808 -0.4815
  376MOL0     H49613   0.744   6.978  -0.349 -0.8808  2.4485  0.3655
  376MOL0     H49614   1.433   7.868  -0.451 -1.3137  0.4522  0.1713
  376MOL0     H49615   1.646   7.980  -0.451  0.8006 -2.3639 -1.3716
  376MOL0     H49616   2.084   7.971  -0.155  1.1522 -0.6584 -0.6992
  376MOL0     H49617   2.291   8.064  -0.088  0.1727 -0.5449  0.3566
  376MOL0     H49618   3.100   8.690   1.040  0.4160  0.7135  0.6298
  376MOL0     H49619   2.935   8.637   1.222 -2.2727 -0.9060 -0.3132
  376MOL0     H49620   2.531   8.402   1.305  3.5521 -0.4449 -0.0790
  376MOL0     H49621   2.464   8.299   1.528 -0.0598 -0.2588  1.2172
  376MOL0     H49622   2.395   8.240   1.767  0.7866  1.0025  1.7835
  376MOL0     H49623   2.283   8.296   1.649 -0.2987 -0.4437  0.4087
  376MOL0     H49624   2.128   8.399   1.794  0.3898 -1.7554 -3.3679
  376MOL0     H49625   2.158   8.230   1.827  1.9406 -1.6273  1.0790
  376MOL0     H49626   2.136   8.410   2.024  0.4129 -0.2895  0.0550
  376MOL0     H49627   2.315   8.415   1.991  0.7489 -1.3914  0.7100
  376MOL0     H49628   2.339   8.178   2.008 -0.2843  0.3555  0.0707
  376MOL0     H49629   2.334   8.275   2.154  2.1517 -1.6759 -0.1346
  376MOL0     H49630   1.996   8.093   2.272  2.4627 -2.7938  0.2575
  376MOL0     H49631   2.496   8.691   1.706 -1.1577  0.0143 -0.2879
  376MOL0     H49632   2.583   8.781   1.527  3.1908 -0.8339  2.5921
  377MOL0     O49633   2.337   3.601   5.779 -0.2946 -0.4567 -0.0032
  377MOL0     C49634   2.408   3.635   5.877  0.0179  0.0573 -0.3051
  377MOL0     O49635   2.366   3.674   5.999  0.7738 -0.7854 -0.2457
  377MOL0     C49636   2.228   3.654   6.014 -0.1685  0.5234  0.4428
  377MOL0     C49637   2.129   3.764   6.018 -0.2173 -0.0040 -0.6993
  377MOL0     C49638   2.000   3.735   6.026  0.3888  0.6538 -0.1556
  377MOL0     C49639   1.950   3.602   6.028 -0.2656 -0.4044  0.0195
  377MOL0     O49640   1.820   3.567   6.069  0.0550 -0.0081  0.1076
  377MOL0     C49641   1.710   3.662   6.055 -0.5534  0.7527 -0.4107
  377MOL0     C49642   1.572   3.599   6.073 -0.5461  0.0617  0.1830
  377MOL0     C49643   1.463   3.704   6.061  0.1657  0.5570  0.4833
  377MOL0     C49644   1.330   3.629   6.021  0.0255 -0.4718  0.9974
  377MOL0     C49645   1.205   3.712   6.052  0.1966  0.0916  0.1475
  377MOL0     C49646   1.198   3.838   5.966 -0.2559 -0.0608  0.4282
  377MOL0     C49647   1.070   3.901   5.998  0.9430  0.4509  1.0781
  377MOL0     C49648   1.042   4.006   5.891  0.9692 -0.4887 -1.1188
  377MOL0     N49649   0.902   4.056   5.909  0.7081  0.4418  0.1698
  377MOL0     C49650   0.856   4.149   6.000 -0.6472 -0.4757  0.5842
  377MOL0     C49651   0.727   4.179   5.973  0.7455 -0.5148  0.7370
  377MOL0     C49652   0.621   4.262   6.048  0.8958  0.1090  0.2659
  377MOL0     C49653   0.476   4.245   5.990 -0.1521 -0.0869 -0.8174
  377MOL0     C49654   0.454   4.361   5.893 -0.0505  0.2349  0.3648
  377MOL0     C49655   0.311   4.352   5.853  0.0232  0.5911 -0.3661
  377MOL0     O49656   0.224   4.396   5.957 -0.0700  0.2190  0.1938
  377MOL0     C49657   0.085   4.391   5.948  0.5301 -0.5148 -1.0200
  377MOL0     C49658   0.006   4.330   5.851  0.2692 -0.0428  0.1581
  377MOL0     C49659  -0.135   4.336   5.861  0.5256  0.2371  0.1479
  377MOL0     C49660  -0.203   4.402   5.969 -0.6836 -0.3500  0.5233
  377MOL0     C49661  -0.352   4.407   5.973  0.1125  0.2481  0.1727
  377MOL0     O49662  -0.419   4.502   6.054 -0.2480  0.5219 -0.0276
  377MOL0     C49663  -0.542   4.538   6.023 -0.1437 -0.9772 -0.5380
  377MOL0     C49664  -0.565   4.591   5.897 -0.0697  0.3570  0.2483
  377MOL0     C49665  -0.693   4.657   5.877 -0.0228  0.4296 -1.2870
  377MOL0     C49666  -0.787   4.664   5.986 -0.3044 -0.0969  0.4739
  377MOL0     O49667  -0.904   4.741   5.968 -0.2681  0.1419  0.0083
  377MOL0     C49668  -1.004   4.748   6.062 -0.7430  0.1419 -0.7899
  377MOL0     C49669  -1.122   4.844   6.008 -0.5605 -0.0588  0.2393
  377MOL0     C49670  -1.200   4.889   6.129 -1.2193 -0.0832  0.7907
  377MOL0     C49671  -1.273   5.015   6.099 -0.4066 -0.3861  0.3024
  377MOL0     C49672  -1.361   5.047   6.216  0.2319  0.5967 -1.7047
  377MOL0     C49673  -1.475   5.149   6.181  0.1456  0.7827  0.2973
  377MOL0     C49674  -1.573   5.172   6.293  0.6646 -0.4989  0.4556
  377MOL0     C49675  -1.664   5.046   6.316  0.4068  0.0987 -0.2057
  377MOL0    Cl49676  -1.741   4.967   6.177  0.0829 -0.1164 -0.4606
  377MOL0     C49677  -0.760   4.609   6.107 -0.3917 -0.8011 -0.7676
  377MOL0     C49678  -0.636   4.551   6.126 -0.6460  0.7196 -0.1250
  377MOL0     O49679  -0.410   4.329   5.888 -0.0188 -0.9986 -0.9355
  377MOL0     C49680  -0.119   4.462   6.059 -1.0777  0.4516 -0.0947
  377MOL0     C49681   0.014   4.463   6.053 -0.1721  0.1987  0.4270
  377MOL0     N49682   0.695   4.092   5.870  0.2537  0.4865 -0.6590
  377MOL0     N49683   0.792   4.016   5.832 -0.1252  0.1211 -0.2258
  377MOL0     C49684   2.043   3.495   6.031  0.2246  0.0759  0.0410
  377MOL0     C49685   2.183   3.523   6.021  0.0417  0.0396 -0.5129
  377MOL0     C49686   2.551   3.647   5.858  0.4031 -0.2686 -0.3208
  377MOL0     C49687   2.638   3.681   5.962 -0.1950  0.0504  0.6596
  377MOL0     C49688   2.773   3.666   5.952 -0.2477  0.2665  0.6244
  377MOL0     C49689   2.828   3.615   5.837  0.1655 -0.4165  0.7271
  377MOL0     O49690   2.963   3.587   5.844  0.4769  0.4184  0.5484
  377MOL0     C49691   3.037   3.534   5.729 -0.4892 -1.0336  0.9848
  377MOL0     C49692   3.188   3.547   5.752  0.4072  0.1364 -0.0249
  377MOL0     C49693   3.235   3.482   5.878 -0.7365 -0.6544 -0.0992
  377MOL0     C49694   3.391   3.503   5.882 -0.0396  0.4904 -0.1667
  377MOL0     C49695   3.462   3.403   5.958 -0.1664 -0.3605  0.0225
  377MOL0     C49696   3.519   3.324   6.026  0.2597  0.5898  0.6601
  377MOL0     C49697   2.746   3.577   5.728 -0.0680 -0.5536 -0.0668
  377MOL0     C49698   2.609   3.604   5.734  0.2647  0.3192 -0.8748
  377MOL0     H49699   2.166   3.865   6.031  0.4752 -0.6574  5.6052
  377MOL0     H49700   1.925   3.813   6.033  0.7398  1.0567 -0.7732
  377MOL0     H49701   1.718   3.711   5.958  1.0370  2.4953  0.5291
  377MOL0     H49702   1.725   3.737   6.133 -0.9600  0.4970 -0.0818
  377MOL0     H49703   1.570   3.543   6.167 -0.6432 -1.8146 -0.8819
  377MOL0     H49704   1.571   3.524   5.992  0.6045  0.4208 -0.1938
  377MOL0     H49705   1.484   3.789   5.996 -3.9806 -0.0668 -2.0086
  377MOL0     H49706   1.443   3.757   6.155  1.0275 -0.1637  1.0863
  377MOL0     H49707   1.334   3.603   5.915  1.5996  3.3482 -0.0402
  377MOL0     H49708   1.320   3.541   6.085 -0.5390  0.2907  1.9890
  377MOL0     H49709   1.204   3.754   6.153 -0.5697  2.1176 -0.6408
  377MOL0     H49710   1.115   3.651   6.041  0.5638 -0.8586  1.9589
  377MOL0     H49711   1.214   3.823   5.859  1.2332  4.2558 -0.1443
  377MOL0     H49712   1.269   3.918   5.990 -2.5511  1.4722  2.5839
  377MOL0     H49713   0.997   3.825   5.969  3.6334 -1.6116 -0.7257
  377MOL0     H49714   1.063   3.953   6.095 -0.6304  0.5329  0.9597
  377MOL0     H49715   1.049   3.966   5.790  0.4016 -3.4003 -0.0883
  377MOL0     H49716   1.108   4.092   5.903  1.1873 -0.8203  0.2397
  377MOL0     H49717   0.912   4.174   6.090  0.0923 -3.0003  0.9289
  377MOL0     H49718   0.638   4.370   6.054 -2.1742  0.6997  0.1547
  377MOL0     H49719   0.607   4.242   6.154 -1.8136  0.6773  0.0950
  377MOL0     H49720   0.397   4.250   6.066 -1.7552  1.6136 -2.4665
  377MOL0     H49721   0.465   4.152   5.934  1.3963  0.6370 -2.4082
  377MOL0     H49722   0.458   4.457   5.946 -2.4114  1.8637 -2.1438
  377MOL0     H49723   0.516   4.359   5.803 -0.1167  0.5478  0.3125
  377MOL0     H49724   0.279   4.250   5.830  0.3235  0.0634  1.4393
  377MOL0     H49725   0.290   4.420   5.770 -1.1309  1.3025  0.4933
  377MOL0     H49726   0.058   4.273   5.775  0.5815 -0.1318  0.4334
  377MOL0     H49727  -0.188   4.292   5.777 -0.3463  1.0065  0.2761
  377MOL0     H49728  -0.493   4.595   5.815 -1.7622  2.6965 -1.2630
  377MOL0     H49729  -0.704   4.715   5.786  3.0392  1.6227 -1.0325
  377MOL0     H49730  -0.960   4.797   6.150  0.6325 -2.4551  0.0651
  377MOL0     H49731  -1.055   4.655   6.085 -1.1697  0.0727 -1.9581
  377MOL0     H49732  -1.176   4.792   5.928  1.2535 -0.2168 -0.9360
  377MOL0     H49733  -1.071   4.932   5.968  4.4363 -1.2144  3.1684
  377MOL0     H49734  -1.141   4.897   6.221  0.0001 -1.4912  0.1796
  377MOL0     H49735  -1.281   4.820   6.151 -2.5260 -0.2391 -3.6025
  377MOL0     H49736  -1.200   5.092   6.073  0.7273 -2.0826 -1.8745
  377MOL0     H49737  -1.322   5.014   6.001  2.6350  0.2404 -1.3273
  377MOL0     H49738  -1.307   5.085   6.303  0.1101 -0.6738 -1.0593
  377MOL0     H49739  -1.416   4.962   6.257  0.0646  1.7292  0.5180
  377MOL0     H49740  -1.521   5.113   6.088 -1.0181  0.1976  1.0686
  377MOL0     H49741  -1.426   5.241   6.151 -0.1734  0.7958 -0.2029
  377MOL0     H49742  -1.521   5.199   6.385  2.1251 -0.4637 -0.3647
  377MOL0     H49743  -1.633   5.260   6.269  1.1187 -0.4619 -0.5793
  377MOL0     H49744  -1.751   5.070   6.378 -1.7599  1.0400 -3.3672
  377MOL0     H49745  -1.603   4.967   6.361  2.5189  0.4959 -2.2130
  377MOL0     H49746  -0.826   4.606   6.193 -1.5676 -2.0537 -1.6674
  377MOL0     H49747  -0.604   4.521   6.225  2.1832 -0.7655 -1.3427
  377MOL0     H49748  -0.171   4.514   6.139 -1.7891  0.0459 -0.2757
  377MOL0     H49749   0.056   4.523   6.133 -1.6213 -0.1716  1.5158
  377MOL0     H49750   1.995   3.398   6.031  0.2676  0.0547 -0.0732
  377MOL0     H49751   2.248   3.437   6.014 -0.1432  0.0042 -1.9379
  377MOL0     H49752   2.609   3.712   6.062 -1.0273  1.9768 -0.1271
  377MOL0     H49753   2.834   3.674   6.041 -0.7365  0.7290  0.9251
  377MOL0     H49754   3.010   3.588   5.638 -1.0016 -1.6347  0.7776
  377MOL0     H49755   3.016   3.431   5.698  0.6789 -0.8686 -0.5199
  377MOL0     H49756   3.236   3.509   5.662  1.7331  0.2450  0.6144
  377MOL0     H49757   3.197   3.656   5.762  1.0587  0.1548 -0.7186
  377MOL0     H49758   3.209   3.376   5.879  1.1557 -1.1717 -0.6554
  377MOL0     H49759   3.189   3.532   5.963  0.8343  1.6860 -0.5284
  377MOL0     H49760   3.437   3.495   5.783 -0.7809 -1.9141 -0.3834
  377MOL0     H49761   3.417   3.596   5.934 -1.4702  0.2778  0.9752
  377MOL0     H49762   3.553   3.250   6.096  1.3331 -1.0459 -1.4786
  377MOL0     H49763   2.771   3.532   5.632  1.2068  0.1018 -0.0678
  377MOL0     H49764   2.543   3.583   5.650 -1.4807  0.0650  0.5002
  378MOL0     O49765   6.836   1.347   4.442  0.3573  0.2324  0.3644
  378MOL0     C49766   6.774   1.254   4.381 -0.4282  0.3927  0.2861
  378MOL0     O49767   6.832   1.179   4.285  1.0016  0.1880  0.9525
  378MOL0     C49768   6.964   1.194   4.261 -0.5145  1.4094 -0.2638
  378MOL0     C49769   7.068   1.155   4.350  0.3608 -0.0926  0.0343
  378MOL0     C49770   7.194   1.186   4.315  0.1264  1.4386 -0.1220
  378MOL0     C49771   7.221   1.276   4.196  0.3383  0.4174 -0.5039
  378MOL0     O49772   7.345   1.336   4.168 -0.0484 -0.4643  0.2024
  378MOL0     C49773   7.456   1.313   4.259  0.0794  0.0539 -0.1131
  378MOL0     C49774   7.572   1.415   4.223  0.7232 -0.0253  0.1139
  378MOL0     C49775   7.601   1.510   4.340  0.5341 -0.6934  0.0438
  378MOL0     C49776   7.489   1.602   4.383  0.0364  1.5525 -0.6760
  378MOL0     C49777   7.483   1.717   4.283 -0.7927 -0.2166  0.2466
  378MOL0     C49778   7.365   1.804   4.315 -0.0198  0.2624 -0.3591
  378MOL0     C49779   7.342   1.913   4.207  0.3489 -0.2127 -0.1655
  378MOL0     C49780   7.200   1.960   4.192  0.2976  0.4902  0.3502
  378MOL0     N49781   7.098   1.865   4.139 -0.3288 -0.1046  0.0566
  378MOL0     C49782   7.041   1.750   4.203 -0.0711  0.1725 -0.0686
  378MOL0     C49783   6.940   1.716   4.120  0.5065 -0.7003  0.6784
  378MOL0     C49784   6.854   1.594   4.135 -0.5230 -0.0339 -0.0244
  378MOL0     C49785   6.698   1.631   4.149 -0.3469 -0.2373 -0.3430
  378MOL0     C49786   6.621   1.500   4.121 -0.3470 -0.3354  0.1542
  378MOL0     C49787   6.492   1.473   4.201  0.1269  0.3720  0.8095
  378MOL0     O49788   6.404   1.588   4.183 -0.2583  0.5543  0.0943
  378MOL0     C49789   6.273   1.591   4.216  0.7235  0.2021  0.2756
  378MOL0     C49790   6.197   1.486   4.276 -0.1530  0.6169  0.3990
  378MOL0     C49791   6.061   1.509   4.305  0.2836  0.0582 -0.2926
  378MOL0     C49792   6.001   1.634   4.280 -0.4106 -0.1708  0.2205
  378MOL0     C49793   5.849   1.639   4.257  0.3681 -0.5341  0.4923
  378MOL0     O49794   5.792   1.758   4.250 -0.3314 -0.3693 -0.4311
  378MOL0     C49795   5.656   1.756   4.249  0.0876  0.1685 -0.3264
  378MOL0     C49796   5.581   1.785   4.365 -0.8620 -0.1349  0.1473
  378MOL0     C49797   5.440   1.784   4.374  0.3127  0.2934 -0.6619
  378MOL0     C49798   5.363   1.744   4.264 -0.3501 -0.3858  0.7696
  378MOL0     O49799   5.230   1.715   4.256  0.1951 -0.4124 -0.0474
  378MOL0     C49800   5.134   1.787   4.346 -0.2648  0.1881  0.6813
  378MOL0     C49801   4.987   1.796   4.279 -0.1265 -0.3939 -0.3586
  378MOL0     C49802   4.963   1.943   4.215 -0.6365 -0.0151 -0.6646
  378MOL0     C49803   4.845   1.934   4.129 -0.3154  0.0340  0.4009
  378MOL0     C49804   4.712   1.961   4.200 -0.6016 -0.3616  0.9273
  378MOL0     C49805   4.583   1.929   4.122 -0.9118 -0.3675 -0.1401
  378MOL0     C49806   4.569   2.002   3.985 -0.4916 -0.5278  0.3439
  378MOL0     C49807   4.442   1.962   3.916  0.5092 -0.4826  0.8553
  378MOL0    Cl49808   4.316   2.089   3.948  0.3522  0.1880 -0.0473
  378MOL0     C49809   5.436   1.694   4.156 -0.4548 -0.4720 -0.2639
  378MOL0     C49810   5.579   1.698   4.147 -0.0642  0.4841  0.5462
  378MOL0     O49811   5.785   1.535   4.249 -0.3588  0.3114  0.3317
  378MOL0     C49812   6.080   1.740   4.236  0.2581  0.0256  0.1750
  378MOL0     C49813   6.215   1.721   4.201 -0.3352 -0.0650 -1.0958
  378MOL0     N49814   6.931   1.807   4.011  0.0087  0.4254  0.3785
  378MOL0     N49815   7.026   1.891   4.021 -0.8352  0.0821 -0.0792
  378MOL0     C49816   7.117   1.312   4.113  0.3604 -0.0279 -0.1992
  378MOL0     C49817   6.990   1.261   4.144 -1.0065 -0.1207 -0.3029
  378MOL0     C49818   6.636   1.225   4.416 -0.0494 -0.1537 -0.3118
  378MOL0     C49819   6.570   1.287   4.517 -0.2231 -0.9457 -0.5056
  378MOL0     C49820   6.452   1.242   4.570 -0.2459 -0.6341  0.9191
  378MOL0     C49821   6.388   1.126   4.520 -0.1133 -0.1707  0.5361
  378MOL0     O49822   6.273   1.085   4.571  0.5758 -0.4785 -0.1530
  378MOL0     C49823   6.185   1.190   4.613  0.2660  0.0174 -1.3259
  378MOL0     C49824   6.074   1.124   4.682  0.0912 -0.2953  0.0635
  378MOL0     C49825   5.953   1.213   4.703 -0.2563  0.2302 -0.3243
  378MOL0     C49826   5.944   1.269   4.843 -0.2545 -0.0093  0.3067
  378MOL0     C49827   6.053   1.365   4.862 -0.9640 -1.1528  0.3707
  378MOL0     C49828   6.136   1.461   4.859  0.2266 -0.3013 -0.2976
  378MOL0     C49829   6.450   1.063   4.416 -0.0568  0.4127  0.5384
  378MOL0     C49830   6.571   1.108   4.362 -0.7594 -0.3313  0.0242
  378MOL0     H49831   7.048   1.093   4.437 -1.1615  0.0515 -0.1823
  378MOL0     H49832   7.276   1.163   4.383 -1.4065  0.2217  1.3897
  378MOL0     H49833   7.489   1.208   4.256  4.1534  1.1730 -2.7661
  378MOL0     H49834   7.422   1.329   4.361  1.0495  0.4142  0.1676
  378MOL0     H49835   7.544   1.469   4.131 -0.3725  1.3069  1.1873
  378MOL0     H49836   7.667   1.362   4.211  1.1309  0.8805 -0.8628
  378MOL0     H49837   7.691   1.569   4.320  2.1744 -3.5873 -2.0613
  378MOL0     H49838   7.628   1.445   4.424  1.4114 -0.3143  0.0658
  378MOL0     H49839   7.396   1.545   4.382  1.4692 -0.9884  0.1627
  378MOL0     H49840   7.506   1.648   4.481 -0.2876 -1.3486  0.8499
  378MOL0     H49841   7.473   1.681   4.180 -0.5238  4.0007 -1.4595
  378MOL0     H49842   7.576   1.776   4.287 -2.0862  1.9020  0.7273
  378MOL0     H49843   7.393   1.864   4.403  0.1474 -1.2565  0.6605
  378MOL0     H49844   7.280   1.736   4.327 -0.0251  0.3698  0.2611
  378MOL0     H49845   7.397   2.004   4.231 -0.0252  0.0810 -0.4109
  378MOL0     H49846   7.368   1.886   4.104 -2.2313  0.1960 -0.9917
  378MOL0     H49847   7.208   2.047   4.126 -1.4910  0.8736  0.5923
  378MOL0     H49848   7.156   1.990   4.288 -4.0197 -1.1024 -0.9078
  378MOL0     H49849   7.073   1.690   4.288  2.1558 -1.5352 -1.9796
  378MOL0     H49850   6.886   1.526   4.214  0.3264 -0.9825 -1.1671
  378MOL0     H49851   6.870   1.535   4.045  1.1528 -0.5794  0.5903
  378MOL0     H49852   6.666   1.704   4.075  0.8515  1.2355  0.5308
  378MOL0     H49853   6.667   1.676   4.244  2.7493 -1.2075  1.2396
  378MOL0     H49854   6.589   1.504   4.017  1.7264 -0.1776 -0.5256
  378MOL0     H49855   6.690   1.420   4.149 -0.9782 -1.6071 -1.7804
  378MOL0     H49856   6.520   1.455   4.305 -1.1984  1.1229  1.3315
  378MOL0     H49857   6.451   1.377   4.170  2.5578  0.1900 -2.2842
  378MOL0     H49858   6.248   1.393   4.299 -0.0949  0.9096  1.4857
  378MOL0     H49859   6.011   1.414   4.324  1.3361 -0.7615 -1.4880
  378MOL0     H49860   5.640   1.819   4.449  3.1226  2.9992 -3.4421
  378MOL0     H49861   5.389   1.794   4.469 -0.2916 -0.5930 -0.8810
  378MOL0     H49862   5.166   1.890   4.364  0.1789  0.7038 -2.4729
  378MOL0     H49863   5.126   1.737   4.443 -0.1534 -1.5818 -0.1932
  378MOL0     H49864   4.913   1.784   4.358 -1.5786  2.1996 -1.1943
  378MOL0     H49865   4.977   1.717   4.204 -0.5441  0.0882 -0.8182
  378MOL0     H49866   5.047   1.983   4.157 -1.1908  4.7645  1.3343
  378MOL0     H49867   4.945   2.014   4.297  0.6992 -1.3902  0.9111
  378MOL0     H49868   4.859   1.997   4.040 -0.8836  0.7216  0.7900
  378MOL0     H49869   4.842   1.836   4.079  0.8496  1.0868 -1.8470
  378MOL0     H49870   4.701   2.068   4.222  1.4347 -0.0849  0.7769
  378MOL0     H49871   4.727   1.906   4.293 -0.4149 -2.1745 -0.1363
  378MOL0     H49872   4.493   1.957   4.177 -1.8786 -2.2359 -0.6509
  378MOL0     H49873   4.561   1.823   4.104 -1.2845 -0.0459 -1.7371
  378MOL0     H49874   4.568   2.111   3.994  0.1968 -0.6426  2.1311
  378MOL0     H49875   4.652   1.973   3.920 -0.1402  4.1269 -1.6301
  378MOL0     H49876   4.402   1.864   3.944 -3.3284  0.2541 -1.3064
  378MOL0     H49877   4.476   1.964   3.812 -0.9968  2.1240  0.3189
  378MOL0     H49878   5.380   1.632   4.086 -2.4126 -2.9556  3.2212
  378MOL0     H49879   5.630   1.668   4.056 -2.0272  0.4014 -0.5764
  378MOL0     H49880   6.032   1.837   4.233  0.6162  0.5830  4.9314
  378MOL0     H49881   6.281   1.803   4.172 -0.0319 -0.6999 -2.3016
  378MOL0     H49882   7.125   1.386   4.034 -0.3318  2.8634  2.2725
  378MOL0     H49883   6.914   1.301   4.077 -0.2586  2.7668  0.4370
  378MOL0     H49884   6.607   1.360   4.588 -2.5091 -2.3892  2.4348
  378MOL0     H49885   6.419   1.300   4.656 -0.1751  0.2604  0.3548
  378MOL0     H49886   6.148   1.248   4.528 -1.7748 -2.4158 -2.2302
  378MOL0     H49887   6.221   1.256   4.692 -1.5496  0.4929 -0.8494
  378MOL0     H49888   6.041   1.052   4.606  0.3745 -0.8035  0.4187
  378MOL0     H49889   6.106   1.066   4.769 -2.4505  0.4108  1.5775
  378MOL0     H49890   5.874   1.141   4.679  0.0992 -0.0339 -0.7141
  378MOL0     H49891   5.960   1.297   4.633  2.0259 -1.5581 -2.3944
  378MOL0     H49892   5.852   1.325   4.860 -0.1894  0.0237  0.5538
  378MOL0     H49893   5.935   1.186   4.913 -3.5054 -0.4266 -0.4406
  378MOL0     H49894   6.193   1.550   4.878 -2.8793  1.1045  4.0186
  378MOL0     H49895   6.397   0.975   4.381 -0.8937  0.8576  0.6743
  378MOL0     H49896   6.629   1.063   4.282  1.6786  1.6507  0.5753
  379MOL0     O49897   6.001   9.559   3.779 -0.3665  0.0958  0.7941
  379MOL0     C49898   6.077   9.566   3.876  0.6677  0.0749  0.7396
  379MOL0     O49899   6.040   9.515   3.998 -0.1042  0.4769  0.4729
  379MOL0     C49900   5.918   9.463   4.023  0.5730  0.0650  0.3808
  379MOL0     C49901   5.866   9.357   3.951  0.3483  0.4010  0.2038
  379MOL0     C49902   5.733   9.311   3.970  0.3075  0.1210  0.5324
  379MOL0     C49903   5.644   9.361   4.064  0.2769  0.1047 -0.4789
  379MOL0     O49904   5.515   9.321   4.097 -0.7041  0.2303  0.0104
  379MOL0     C49905   5.502   9.182   4.135  0.7359  0.5082 -0.4867
  379MOL0     C49906   5.360   9.135   4.168  0.2300 -1.1470  0.2881
  379MOL0     C49907   5.316   8.988   4.139 -0.6232 -0.3282 -0.1761
  379MOL0     C49908   5.163   8.980   4.178 -0.5454 -0.0512 -0.2675
  379MOL0     C49909   5.121   8.834   4.168 -0.3149 -0.3576  1.3477
  379MOL0     C49910   4.968   8.815   4.173 -0.1839  0.1249 -0.7234
  379MOL0     C49911   4.911   8.669   4.185 -0.0613 -0.2264  0.2112
  379MOL0     C49912   4.960   8.593   4.301 -0.5480  0.9377 -0.3253
  379MOL0     N49913   4.860   8.493   4.331  0.1830  0.4646  0.4438
  379MOL0     C49914   4.858   8.357   4.297 -0.2401 -0.7173 -0.1260
  379MOL0     C49915   4.740   8.313   4.351 -0.0941 -0.0203  0.3223
  379MOL0     C49916   4.700   8.171   4.353 -0.1680 -0.2246  0.3176
  379MOL0     C49917   4.574   8.126   4.266 -0.7922  0.8055 -0.4913
  379MOL0     C49918   4.445   8.178   4.334 -0.7066  0.9308  0.1902
  379MOL0     C49919   4.333   8.151   4.241  0.3779  0.8788  0.4032
  379MOL0     O49920   4.222   8.215   4.304 -0.4193 -0.7826  0.3468
  379MOL0     C49921   4.105   8.143   4.303 -0.7979 -0.7103  0.1266
  379MOL0     C49922   4.011   8.169   4.200 -0.6953 -0.7318 -0.8890
  379MOL0     C49923   3.894   8.093   4.198  0.0001  0.3001  0.3232
  379MOL0     C49924   3.864   8.000   4.306 -0.2623  0.0146  0.3209
  379MOL0     C49925   3.741   7.914   4.303 -0.0937 -0.3723 -0.4650
  379MOL0     O49926   3.646   7.951   4.220  0.3636  0.0272  0.8029
  379MOL0     C49927   3.522   7.896   4.199  0.6758  0.2212  0.4890
  379MOL0     C49928   3.425   7.973   4.126  0.3058 -0.8900  0.3479
  379MOL0     C49929   3.301   7.923   4.078  0.0631 -0.1505 -0.0410
  379MOL0     C49930   3.268   7.790   4.100  0.3400 -0.3416  1.2252
  379MOL0     O49931   3.159   7.744   4.035 -0.0668  0.1121 -0.2854
  379MOL0     C49932   3.116   7.610   4.060 -0.3021 -0.6590 -0.5847
  379MOL0     C49933   2.995   7.577   3.980  0.2210 -0.1403  0.7599
  379MOL0     C49934   2.885   7.670   4.018 -0.8661  0.0544  0.0300
  379MOL0     C49935   2.760   7.624   3.947 -0.7748  1.0752 -0.5633
  379MOL0     C49936   2.647   7.718   3.981 -0.0787 -0.1814  0.4897
  379MOL0     C49937   2.523   7.664   3.903 -0.2037  0.7629 -0.0076
  379MOL0     C49938   2.416   7.781   3.922 -0.8768  0.1725 -0.7640
  379MOL0     C49939   2.294   7.768   3.838  1.0911 -0.9726 -0.1995
  379MOL0    Cl49940   2.247   7.937   3.809 -0.2393 -0.5171  0.1295
  379MOL0     C49941   3.367   7.712   4.171  0.3157 -0.4678  1.2578
  379MOL0     C49942   3.481   7.769   4.226 -0.3653 -0.3243 -1.5602
  379MOL0     O49943   3.735   7.822   4.382  0.8500 -0.6071  0.0923
  379MOL0     C49944   3.953   7.999   4.419 -0.2851  0.4345 -0.1408
  379MOL0     C49945   4.076   8.062   4.416  0.1039 -0.3435 -0.0576
  379MOL0     N49946   4.662   8.415   4.408 -0.3875 -0.1079 -0.0688
  379MOL0     N49947   4.744   8.520   4.403 -0.3044 -0.3776  0.1654
  379MOL0     C49948   5.700   9.471   4.143  0.1535 -0.2849 -0.6051
  379MOL0     C49949   5.831   9.519   4.121  1.2395 -0.6130 -0.6206
  379MOL0     C49950   6.219   9.604   3.864 -0.0657 -0.3388  0.0090
  379MOL0     C49951   6.304   9.622   3.976  0.0874  0.3476  0.6996
  379MOL0     C49952   6.436   9.662   3.955  0.5858  0.6452  0.0813
  379MOL0     C49953   6.486   9.687   3.831  0.4148 -0.5079 -0.5423
  379MOL0     O49954   6.614   9.724   3.800  0.0281 -0.0631  0.1052
  379MOL0     C49955   6.625   9.852   3.742  0.4714  0.3237 -0.9896
  379MOL0     C49956   6.622   9.965   3.842 -0.3269 -0.6657 -0.0169
  379MOL0     C49957   6.673  10.100   3.780 -0.6023  0.6924 -0.1208
  379MOL0     C49958   6.576  10.215   3.783 -0.4104 -0.0548 -1.1088
  379MOL0     C49959   6.447  10.186   3.707 -1.1404  0.5324 -0.5497
  379MOL0     C49960   6.341  10.145   3.660  0.8291 -0.2982  0.3604
  379MOL0     C49961   6.413   9.644   3.719  0.5173 -0.4999  0.9222
  379MOL0     C49962   6.282   9.602   3.738  0.3621 -0.5121  0.8114
  379MOL0     H49963   5.925   9.316   3.870  0.3341  1.9768 -0.6286
  379MOL0     H49964   5.698   9.221   3.921 -0.1738  0.6135 -0.0483
  379MOL0     H49965   5.567   9.170   4.223  0.5035  2.1045 -0.0760
  379MOL0     H49966   5.544   9.137   4.044  0.5944 -0.4242 -0.1111
  379MOL0     H49967   5.295   9.206   4.115  2.0720  0.7628  0.4752
  379MOL0     H49968   5.324   9.152   4.270  2.3713 -3.7693  1.6056
  379MOL0     H49969   5.386   8.914   4.180  0.1221 -2.2936 -4.4841
  379MOL0     H49970   5.329   8.975   4.032  0.1659  4.3215 -0.8493
  379MOL0     H49971   5.150   9.007   4.283  3.1276 -2.5713  1.0445
  379MOL0     H49972   5.102   9.048   4.117  3.1774  2.2974 -1.7438
  379MOL0     H49973   5.172   8.769   4.240  0.9118 -0.8706  0.0743
  379MOL0     H49974   5.143   8.806   4.064  1.2253 -2.1198  2.0939
  379MOL0     H49975   4.930   8.867   4.085 -2.0086  0.5894  0.2839
  379MOL0     H49976   4.929   8.858   4.266  1.9045  1.1680 -0.2749
  379MOL0     H49977   4.803   8.690   4.186  0.0672  0.9479 -2.4740
  379MOL0     H49978   4.934   8.613   4.094 -2.0429 -3.4399  1.5011
  379MOL0     H49979   4.965   8.656   4.390 -0.4364 -1.9187  1.8288
  379MOL0     H49980   5.059   8.550   4.284 -0.7179  0.1822  0.5297
  379MOL0     H49981   4.930   8.291   4.249 -0.9449 -3.4539  2.3200
  379MOL0     H49982   4.672   8.143   4.455  3.3779 -1.3281  1.1074
  379MOL0     H49983   4.784   8.103   4.338 -0.9953 -1.1269 -0.3743
  379MOL0     H49984   4.561   8.018   4.265  1.2437  0.4807  1.0581
  379MOL0     H49985   4.589   8.157   4.162  0.4254  0.6881 -0.3567
  379MOL0     H49986   4.436   8.117   4.424 -0.9596 -2.3672 -1.9073
  379MOL0     H49987   4.442   8.285   4.358 -2.9963  0.8292  0.6159
  379MOL0     H49988   4.316   8.043   4.237  1.0163  0.7199  1.5759
  379MOL0     H49989   4.353   8.188   4.139 -0.0801 -0.7252 -0.3062
  379MOL0     H49990   4.023   8.236   4.115 -2.2485 -0.5235 -0.9756
  379MOL0     H49991   3.832   8.098   4.109  2.2506 -2.8831 -1.6505
  379MOL0     H49992   3.449   8.076   4.103  1.3905 -1.5963 -2.0435
  379MOL0     H49993   3.240   7.989   4.017  0.2287  0.5230  0.5066
  379MOL0     H49994   3.078   7.595   4.162 -0.9947  1.1292 -0.5355
  379MOL0     H49995   3.199   7.540   4.048  0.4580  0.2145 -0.5373
  379MOL0     H49996   2.981   7.468   3.985 -2.3152 -0.0154 -1.4654
  379MOL0     H49997   3.013   7.600   3.875 -0.6815 -1.3742  0.3078
  379MOL0     H49998   2.907   7.777   4.006  2.2990 -0.5421 -0.0772
  379MOL0     H49999   2.871   7.655   4.126 -4.7976 -2.4536 -0.6152
  379MOL0     H50000   2.769   7.625   3.838 -0.0083  2.7203 -0.5216
  379MOL0     H50001   2.737   7.522   3.979 -2.1187  1.3249 -0.6493
  379MOL0     H50002   2.668   7.813   3.931 -1.7352 -0.1289 -0.1747
  379MOL0     H50003   2.629   7.732   4.089 -0.1906  0.6052  0.3776
  379MOL0     H50004   2.500   7.567   3.949  5.2205  0.8152  3.8031
  379MOL0     H50005   2.540   7.648   3.796 -0.3381  4.3226 -0.6629
  379MOL0     H50006   2.375   7.776   4.023 -0.5933 -2.3087 -0.7265
  379MOL0     H50007   2.463   7.879   3.909  2.0095 -1.0534 -0.3272
  379MOL0     H50008   2.213   7.723   3.896  0.4205  0.4952  0.0566
  379MOL0     H50009   2.321   7.715   3.746  0.4743 -2.5238  0.4777
  379MOL0     H50010   3.351   7.607   4.193 -0.7743 -0.4835  0.4564
  379MOL0     H50011   3.545   7.710   4.290 -0.7935  1.5277  0.7181
  379MOL0     H50012   3.920   7.941   4.506 -0.9663  1.4357  0.2831
  379MOL0     H50013   4.145   8.038   4.496 -2.2303 -0.5350  2.0291
  379MOL0     H50014   5.645   9.524   4.220  1.3043 -0.0198  0.0716
  379MOL0     H50015   5.867   9.606   4.176 -3.3308  0.5189  1.0364
  379MOL0     H50016   6.262   9.618   4.076  1.8433  2.4496  1.6028
  379MOL0     H50017   6.497   9.690   4.039  0.1763 -1.8571  1.3084
  379MOL0     H50018   6.539   9.863   3.675 -2.3710 -0.7627  2.1816
  379MOL0     H50019   6.719   9.847   3.686  0.4761 -1.5948 -0.9013
  379MOL0     H50020   6.518   9.982   3.871  0.2064 -0.8748  2.2804
  379MOL0     H50021   6.683   9.946   3.931  2.5111  2.8456 -0.9430
  379MOL0     H50022   6.701  10.080   3.676 -0.1803 -2.5804  0.5128
  379MOL0     H50023   6.771  10.125   3.819  0.5467 -1.0609 -1.6995
  379MOL0     H50024   6.569  10.243   3.888  2.8257 -3.0116  0.1114
  379MOL0     H50025   6.622  10.304   3.741 -0.8648  0.0957 -1.2970
  379MOL0     H50026   6.239  10.123   3.635  1.3595 -0.9588 -1.3226
  379MOL0     H50027   6.459   9.646   3.621 -1.6436 -0.5484 -0.1539
  379MOL0     H50028   6.231   9.551   3.657  1.3107 -0.3715  0.1053
  380MOL0     O50029   7.075   6.754   6.538 -0.0320 -0.1897 -0.3606
  380MOL0     C50030   7.113   6.652   6.482  0.7042  0.3316  0.1297
  380MOL0     O50031   7.018   6.566   6.420  0.5837  0.4861  0.6424
  380MOL0     C50032   6.885   6.595   6.403 -0.0187 -0.2584 -0.5926
  380MOL0     C50033   6.835   6.721   6.384 -0.6793  0.0861  0.4271
  380MOL0     C50034   6.698   6.744   6.362  0.1071 -0.1885 -0.4888
  380MOL0     C50035   6.602   6.638   6.373  0.1299 -0.5127  0.4882
  380MOL0     O50036   6.469   6.668   6.368  0.0200  0.5278 -0.4181
  380MOL0     C50037   6.387   6.626   6.256  0.4231  0.0209 -0.0346
  380MOL0     C50038   6.257   6.558   6.318  0.8140  0.2436  0.5146
  380MOL0     C50039   6.288   6.416   6.343 -0.6235  0.6148 -0.1677
  380MOL0     C50040   6.164   6.342   6.390  0.0210  0.3883 -0.1559
  380MOL0     C50041   6.183   6.189   6.408 -0.0142 -0.2985  0.2322
  380MOL0     C50042   6.182   6.109   6.276 -0.8512 -0.5685  0.0702
  380MOL0     C50043   6.178   5.956   6.297 -0.3494 -0.3127  0.0590
  380MOL0     C50044   6.307   5.903   6.346 -0.2350  0.2582  0.6306
  380MOL0     N50045   6.420   5.916   6.256 -0.2097  0.5959 -0.5532
  380MOL0     C50046   6.432   5.866   6.129 -0.4777 -0.2494  0.3783
  380MOL0     C50047   6.518   5.953   6.062 -1.7747 -0.8109  0.5832
  380MOL0     C50048   6.543   5.940   5.918  0.5770 -0.0032  0.3527
  380MOL0     C50049   6.687   5.908   5.875  0.2998 -0.1354 -0.0762
  380MOL0     C50050   6.712   5.852   5.740  0.3003  0.2119  0.3593
  380MOL0     C50051   6.864   5.855   5.713 -0.2480  0.0742  0.5302
  380MOL0     O50052   6.928   5.749   5.787  1.4779  0.4920  0.2164
  380MOL0     C50053   7.050   5.695   5.737  0.5505 -0.2993 -0.6028
  380MOL0     C50054   7.127   5.743   5.630  0.3265 -0.8207 -0.1770
  380MOL0     C50055   7.248   5.684   5.586  1.1153  0.4845 -0.8119
  380MOL0     C50056   7.284   5.564   5.652 -0.2778 -0.3220  0.2243
  380MOL0     C50057   7.411   5.505   5.624 -0.1358 -0.5041  0.0367
  380MOL0     O50058   7.451   5.402   5.706  0.7578 -0.4648  0.7877
  380MOL0     C50059   7.574   5.352   5.683 -0.2373  0.2952  0.1205
  380MOL0     C50060   7.670   5.349   5.790 -0.2937 -0.7241 -0.0875
  380MOL0     C50061   7.800   5.317   5.765  1.0027  0.2892 -0.0480
  380MOL0     C50062   7.835   5.273   5.632  0.0868 -0.1372 -0.6798
  380MOL0     O50063   7.957   5.219   5.606 -0.2130  0.2954  0.9932
  380MOL0     C50064   8.082   5.295   5.637  0.8820  0.4131 -0.6311
  380MOL0     C50065   8.183   5.195   5.647  0.2754 -1.3910  0.5896
  380MOL0     C50066   8.142   5.076   5.733  0.6608 -0.5097  0.9729
  380MOL0     C50067   8.262   4.990   5.742 -0.3830  0.0772 -0.2173
  380MOL0     C50068   8.246   4.876   5.839  0.4889  0.2137  0.8284
  380MOL0     C50069   8.384   4.811   5.844  0.6121  0.7004  0.5088
  380MOL0     C50070   8.414   4.716   5.969  0.2660 -0.0054 -0.9244
  380MOL0     C50071   8.501   4.594   5.930 -0.1669  0.0747 -0.0592
  380MOL0    Cl50072   8.663   4.652   5.865 -0.1090 -0.0802  0.1653
  380MOL0     C50073   7.739   5.259   5.534 -0.3651  0.2435 -0.0315
  380MOL0     C50074   7.605   5.302   5.556 -0.2199 -0.1730  0.1909
  380MOL0     O50075   7.480   5.564   5.544  0.1329  0.3788  1.0171
  380MOL0     C50076   7.202   5.501   5.737  0.9920  0.2420 -0.9049
  380MOL0     C50077   7.086   5.567   5.783  0.5374 -0.0209  0.3721
  380MOL0     N50078   6.573   6.034   6.160 -0.7756  0.3178  0.2745
  380MOL0     N50079   6.508   6.021   6.266  0.7886 -0.0360  0.0630
  380MOL0     C50080   6.652   6.509   6.398  1.1186 -0.1175 -0.2906
  380MOL0     C50081   6.790   6.492   6.405 -0.7597 -0.0077 -0.9260
  380MOL0     C50082   7.255   6.621   6.467 -0.2272  0.1270  0.2348
  380MOL0     C50083   7.347   6.696   6.547 -0.0330 -0.1046  1.0026
  380MOL0     C50084   7.484   6.700   6.503  0.7030  0.6369  0.6157
  380MOL0     C50085   7.526   6.619   6.399 -0.8527  0.2002  0.5422
  380MOL0     O50086   7.658   6.610   6.355 -0.4587 -0.2612  0.4213
  380MOL0     C50087   7.706   6.686   6.237 -0.2100 -0.2844 -0.0510
  380MOL0     C50088   7.755   6.824   6.277 -0.1936  0.1523 -0.4554
  380MOL0     C50089   7.841   6.818   6.403 -0.2257 -0.5192  0.1803
  380MOL0     C50090   7.932   6.944   6.417 -0.4301  1.3391 -0.0653
  380MOL0     C50091   7.978   6.968   6.557 -0.4353  0.6922  0.5031
  380MOL0     C50092   8.018   6.988   6.667 -0.1181 -0.6174  0.1341
  380MOL0     C50093   7.435   6.541   6.331 -0.9871  0.3646  0.1801
  380MOL0     C50094   7.302   6.545   6.360  0.2787  1.3109  0.2113
  380MOL0     H50095   6.903   6.806   6.381  3.0303 -2.6619 -0.6521
  380MOL0     H50096   6.662   6.847   6.355  0.1669 -0.0282  1.2048
  380MOL0     H50097   6.434   6.562   6.181  0.7234  1.0245 -0.7287
  380MOL0     H50098   6.366   6.723   6.209  1.4460 -0.4710 -1.5870
  380MOL0     H50099   6.172   6.561   6.249  1.6750  0.2165 -0.5781
  380MOL0     H50100   6.221   6.606   6.410  1.6873  0.8665  0.5418
  380MOL0     H50101   6.367   6.412   6.419 -1.2862  0.8192  0.5396
  380MOL0     H50102   6.317   6.363   6.252  0.4536  0.7420  0.0832
  380MOL0     H50103   6.140   6.374   6.491  0.0890 -1.9003  0.6351
  380MOL0     H50104   6.074   6.365   6.331 -1.0857  0.3318  1.4528
  380MOL0     H50105   6.101   6.153   6.470 -1.1238 -0.6224 -1.3587
  380MOL0     H50106   6.278   6.173   6.460  1.1205 -0.4006 -1.7391
  380MOL0     H50107   6.272   6.144   6.224 -0.4148  1.9551  2.2964
  380MOL0     H50108   6.095   6.140   6.217  0.5837  2.1673 -0.7565
  380MOL0     H50109   6.100   5.944   6.372  0.8429  2.5355  1.9439
  380MOL0     H50110   6.143   5.913   6.202  3.0545 -2.0615 -0.5555
  380MOL0     H50111   6.293   5.794   6.345 -0.4154  0.2621 -0.9912
  380MOL0     H50112   6.343   5.932   6.445  0.1753 -1.5616  1.0536
  380MOL0     H50113   6.376   5.778   6.095  0.4983 -1.2199  1.2067
  380MOL0     H50114   6.512   6.027   5.860 -1.5326 -0.8084  0.1806
  380MOL0     H50115   6.480   5.860   5.880 -0.1160  1.9220 -2.8760
  380MOL0     H50116   6.728   5.842   5.953  2.3959  0.2317 -0.7860
  380MOL0     H50117   6.743   6.001   5.883  1.0801 -0.4312 -1.6952
  380MOL0     H50118   6.671   5.752   5.726 -1.3120  1.1754 -2.6349
  380MOL0     H50119   6.656   5.913   5.668  0.3584 -0.3275 -0.1468
  380MOL0     H50120   6.910   5.954   5.720  0.5829  0.0984 -3.2385
  380MOL0     H50121   6.874   5.835   5.606 -0.1463  2.9167 -0.0696
  380MOL0     H50122   7.105   5.842   5.591  3.0095 -0.0390  0.1016
  380MOL0     H50123   7.309   5.734   5.511  0.9110  1.8612 -0.1006
  380MOL0     H50124   7.634   5.382   5.887 -1.0871 -0.8672 -0.3257
  380MOL0     H50125   7.867   5.309   5.850  0.7469  0.4809  0.1748
  380MOL0     H50126   8.077   5.359   5.725  2.1121  1.2026 -1.1002
  380MOL0     H50127   8.105   5.365   5.556  0.3782  1.4013  0.0588
  380MOL0     H50128   8.276   5.237   5.687 -0.3487 -1.1610  1.8731
  380MOL0     H50129   8.200   5.175   5.541 -2.6591 -1.3343  0.0416
  380MOL0     H50130   8.063   5.023   5.679  0.7068 -0.3776  0.7771
  380MOL0     H50131   8.107   5.118   5.828 -1.0449  1.1680 -0.3317
  380MOL0     H50132   8.297   4.953   5.645 -0.7526 -2.0513  0.4033
  380MOL0     H50133   8.349   5.045   5.780 -1.3786  1.3344  0.2854
  380MOL0     H50134   8.170   4.804   5.808  0.4794  0.5944 -0.0673
  380MOL0     H50135   8.222   4.906   5.941 -0.7057 -1.4215  1.0644
  380MOL0     H50136   8.468   4.881   5.840  2.7376 -1.6881  0.5223
  380MOL0     H50137   8.392   4.747   5.756 -1.2745  0.9112  0.1483
  380MOL0     H50138   8.476   4.771   6.041 -0.6515  1.6925 -1.3705
  380MOL0     H50139   8.327   4.670   6.016  2.8169 -3.3236  1.0234
  380MOL0     H50140   8.438   4.530   5.868 -1.3692  0.1332  1.0527
  380MOL0     H50141   8.515   4.547   6.028 -3.6158 -0.1285  0.4442
  380MOL0     H50142   7.761   5.209   5.440  0.0350  1.7608 -0.7737
  380MOL0     H50143   7.535   5.291   5.474 -0.5123 -0.9907  0.5447
  380MOL0     H50144   7.233   5.412   5.791 -1.2650 -0.1028 -0.0556
  380MOL0     H50145   7.029   5.513   5.858  1.1618  3.1238  3.3776
  380MOL0     H50146   6.594   6.419   6.419  0.7461  0.0379 -0.6569
  380MOL0     H50147   6.832   6.397   6.437 -2.3374  0.6315  3.7708
  380MOL0     H50148   7.313   6.766   6.623 -4.9013  1.2943 -1.9981
  380MOL0     H50149   7.558   6.754   6.561  0.6232  4.2416 -2.2400
  380MOL0     H50150   7.632   6.686   6.156  1.3997 -0.9145 -1.6042
  380MOL0     H50151   7.793   6.636   6.191 -1.7897 -1.5841 -1.8077
  380MOL0     H50152   7.815   6.859   6.192 -2.7660  0.2138 -2.3722
  380MOL0     H50153   7.673   6.896   6.290  3.5601  4.7219  0.8719
  380MOL0     H50154   7.907   6.731   6.395 -0.1937 -0.3432 -2.0078
  380MOL0     H50155   7.777   6.814   6.491 -0.4747 -0.1477  0.0168
  380MOL0     H50156   8.024   6.942   6.356  0.7828  0.9652  1.6986
  380MOL0     H50157   7.865   7.028   6.400  0.6847  2.2235 -0.2020
  380MOL0     H50158   8.056   7.016   6.763  0.4304  3.4278 -1.0669
  380MOL0     H50159   7.487   6.479   6.259  0.9701 -0.8493  2.4960
  380MOL0     H50160   7.230   6.481   6.310  2.2939 -0.4091 -0.6856
  381MOL0     O50161   4.659  11.004   9.955  0.2745 -0.0914  0.0690
  381MOL0     C50162   4.643  11.052   9.843 -0.9716  0.1536  0.4087
  381MOL0     O50163   4.543  11.028   9.753 -0.9359 -0.2466  0.1505
  381MOL0     C50164   4.424  10.991   9.810 -0.8111  0.3732 -0.3828
  381MOL0     C50165   4.373  11.059   9.921  0.2458  0.3616  0.0442
  381MOL0     C50166   4.251  11.023   9.971  0.0184 -0.3862 -0.2814
  381MOL0     C50167   4.174  10.924   9.910  0.3768 -0.2151 -0.0901
  381MOL0     O50168   4.049  10.880   9.944 -0.3336  0.2424 -0.5129
  381MOL0     C50169   3.984  10.938  10.055  0.0805 -0.0952  0.9217
  381MOL0     C50170   3.854  10.872  10.076 -0.7540  0.7865 -0.0904
  381MOL0     C50171   3.756  10.870   9.950  0.3369  0.0933 -0.3466
  381MOL0     C50172   3.613  10.828   9.999  0.1827 -0.5839 -0.0436
  381MOL0     C50173   3.508  10.851   9.888  0.0362  0.1366 -1.0919
  381MOL0     C50174   3.372  10.814   9.924  0.0816  1.0667 -0.9693
  381MOL0     C50175   3.273  10.855   9.816  0.4602 -0.0310  0.8583
  381MOL0     C50176   3.143  10.779   9.804  0.0897  0.6295  0.3245
  381MOL0     N50177   3.043  10.812   9.905 -0.0348 -0.6187 -0.5668
  381MOL0     C50178   2.931  10.887   9.881  0.0314 -0.7017 -0.0319
  381MOL0     C50179   2.859  10.889   9.990  0.2953  0.1932 -0.5160
  381MOL0     C50180   2.720  10.949  10.016  0.4431 -0.4245  0.4233
  381MOL0     C50181   2.601  10.856  10.004  0.3261 -0.1147 -0.0308
  381MOL0     C50182   2.466  10.911  10.054  0.6221 -0.4531 -0.3340
  381MOL0     C50183   2.348  10.872   9.961  0.6706  0.3648 -0.0448
  381MOL0     O50184   2.218  10.900  10.026  0.2415  0.2815 -0.2359
  381MOL0     C50185   2.105  10.911   9.946 -0.1231 -0.0645  0.0950
  381MOL0     C50186   2.097  10.871   9.815 -0.8069 -0.7032 -0.6892
  381MOL0     C50187   1.978  10.915   9.741  1.0548 -0.0078  0.3286
  381MOL0     C50188   1.865  10.977   9.796  0.1114 -0.0066 -0.7704
  381MOL0     C50189   1.736  10.993   9.726 -0.1376  0.5409  0.5108
  381MOL0     O50190   1.627  11.044   9.793  0.0291 -1.2834 -0.1029
  381MOL0     C50191   1.516  11.097   9.724 -0.2888  1.2099  0.1085
  381MOL0     C50192   1.512  11.151   9.594 -0.0539  0.2755  0.3938
  381MOL0     C50193   1.393  11.206   9.541  0.0665  0.4051 -0.2916
  381MOL0     C50194   1.279  11.206   9.620 -0.3166 -0.0735  0.2131
  381MOL0     O50195   1.171  11.272   9.581  0.4732  0.2842  0.7097
  381MOL0     C50196   1.067  11.314   9.673 -0.2309 -0.3867 -1.0122
  381MOL0     C50197   0.960  11.395   9.606  0.3323  0.3752 -0.4213
  381MOL0     C50198   0.837  11.423   9.692 -0.2036  0.2929  0.2584
  381MOL0     C50199   0.712  11.454   9.617  0.0866 -0.4868  0.5403
  381MOL0     C50200   0.598  11.480   9.715 -0.2116  0.0284 -0.3062
  381MOL0     C50201   0.470  11.493   9.641 -0.7401 -0.1429  0.5663
  381MOL0     C50202   0.366  11.488   9.752 -0.1147  0.9162  0.4954
  381MOL0     C50203   0.355  11.595   9.856 -0.0970 -0.1793 -0.5462
  381MOL0    Cl50204   0.334  11.748   9.788  0.0791  0.1362 -0.2527
  381MOL0     C50205   1.285  11.143   9.742  0.2950 -0.2188  0.1862
  381MOL0     C50206   1.405  11.091   9.799  0.6367  0.7247 -0.4786
  381MOL0     O50207   1.745  10.969   9.605  0.0222  0.0777  0.0588
  381MOL0     C50208   1.882  11.014   9.925 -0.7104  0.8302 -0.0257
  381MOL0     C50209   1.997  10.975  10.001 -0.1790  0.4220 -0.1743
  381MOL0     N50210   2.925  10.809  10.078 -0.2479  0.0276  0.5075
  381MOL0     N50211   3.033  10.762  10.027 -0.0511 -0.4227  0.2049
  381MOL0     C50212   4.220  10.857   9.797 -0.2717  0.5828 -0.5918
  381MOL0     C50213   4.350  10.890   9.747  0.3673  0.6172 -0.4440
  381MOL0     C50214   4.756  11.134   9.802 -0.6738 -0.4606  0.5804
  381MOL0     C50215   4.879  11.141   9.872 -0.2533 -0.5366  1.0713
  381MOL0     C50216   4.980  11.233   9.840 -0.8542  0.0129  1.0657
  381MOL0     C50217   4.972  11.324   9.727 -0.5471  0.3040 -1.2207
  381MOL0     O50218   5.092  11.396   9.700 -0.6010 -0.4129  0.2392
  381MOL0     C50219   5.107  11.423   9.559 -0.3279 -0.1240 -0.3504
  381MOL0     C50220   5.240  11.505   9.532  0.3950  0.4972  0.3542
  381MOL0     C50221   5.202  11.658   9.502 -0.6951  0.4669 -0.0130
  381MOL0     C50222   5.330  11.750   9.486 -0.3086 -0.4647 -0.2900
  381MOL0     C50223   5.415  11.753   9.603 -0.4551 -0.5009  0.1021
  381MOL0     C50224   5.492  11.740   9.700 -0.1795  0.0040  0.0974
  381MOL0     C50225   4.848  11.324   9.659  0.4548  0.2328 -0.6615
  381MOL0     C50226   4.748  11.232   9.690  0.5363  0.0535  0.7750
  381MOL0     H50227   4.419  11.152   9.954  1.1553 -0.3553  0.8486
  381MOL0     H50228   4.210  11.079  10.054 -0.1193 -0.7581 -0.0955
  381MOL0     H50229   3.976  11.046  10.034  4.2353 -0.1832 -2.5178
  381MOL0     H50230   4.054  10.934  10.139 -0.0101  0.8042  1.0548
  381MOL0     H50231   3.808  10.916  10.165 -1.2953  0.0258  0.0213
  381MOL0     H50232   3.869  10.769  10.110 -0.9495  0.8375  0.1585
  381MOL0     H50233   3.796  10.800   9.875 -0.4502  0.0946 -0.7780
  381MOL0     H50234   3.734  10.968   9.908 -4.3030 -0.1214  0.9764
  381MOL0     H50235   3.610  10.725  10.035  0.3853 -0.7416 -0.4733
  381MOL0     H50236   3.588  10.890  10.086  2.8728 -0.5550  0.8021
  381MOL0     H50237   3.544  10.797   9.800 -0.6442  0.0168 -1.3031
  381MOL0     H50238   3.500  10.959   9.868  1.3784  0.2618 -1.0312
  381MOL0     H50239   3.346  10.865  10.017 -0.2815  1.4723 -1.2911
  381MOL0     H50240   3.387  10.706   9.937  0.5544  0.8172 -3.2069
  381MOL0     H50241   3.246  10.961   9.805 -3.1949 -0.8926  0.0877
  381MOL0     H50242   3.332  10.831   9.727 -1.5231  1.0653 -0.8526
  381MOL0     H50243   3.165  10.672   9.815 -0.0487  0.3978 -1.3906
  381MOL0     H50244   3.098  10.803   9.707 -0.1971  1.3066  0.6179
  381MOL0     H50245   2.899  10.941   9.792 -2.7831 -0.0324  1.2414
  381MOL0     H50246   2.696  11.035   9.953 -1.8900  0.2572  2.1319
  381MOL0     H50247   2.726  10.993  10.115  2.0747  0.8501 -0.1947
  381MOL0     H50248   2.620  10.762  10.056  0.0562  0.1487  0.5568
  381MOL0     H50249   2.591  10.840   9.896  1.3616 -0.3330 -0.1020
  381MOL0     H50250   2.451  10.864  10.152  1.5286 -0.6675 -0.2983
  381MOL0     H50251   2.473  11.019  10.071  0.2364 -0.6318  1.1656
  381MOL0     H50252   2.352  10.767   9.932  0.1779  0.6500 -1.1942
  381MOL0     H50253   2.354  10.934   9.871  1.3366  0.9169  0.3632
  381MOL0     H50254   2.174  10.814   9.763 -0.4367 -1.5820  0.7820
  381MOL0     H50255   1.981  10.886   9.636 -2.6359  0.8300 -0.1596
  381MOL0     H50256   1.600  11.169   9.534 -1.8876  3.7534 -1.6173
  381MOL0     H50257   1.403  11.262   9.448  0.2803  0.7909 -0.0452
  381MOL0     H50258   1.107  11.373   9.756 -1.3458  1.2783 -1.5951
  381MOL0     H50259   1.005  11.237   9.722 -0.7743  1.1165  0.8111
  381MOL0     H50260   0.927  11.340   9.517  0.7158 -2.6716  1.1772
  381MOL0     H50261   1.012  11.488   9.583  2.9692 -0.5717  1.2584
  381MOL0     H50262   0.864  11.507   9.756 -0.1466 -1.3163  2.4679
  381MOL0     H50263   0.818  11.338   9.759 -0.5955 -0.0210 -0.2400
  381MOL0     H50264   0.733  11.549   9.568  0.3122 -0.3056  0.9866
  381MOL0     H50265   0.686  11.379   9.541 -2.9834  0.5295  0.4566
  381MOL0     H50266   0.624  11.573   9.765 -2.2804 -0.2083  1.3711
  381MOL0     H50267   0.583  11.400   9.789 -3.5460  0.1518 -0.7160
  381MOL0     H50268   0.448  11.403   9.582 -2.7246  1.0257 -0.5955
  381MOL0     H50269   0.472  11.580   9.576 -1.0744 -1.0269 -0.6684
  381MOL0     H50270   0.273  11.486   9.694  0.3546  3.0640 -0.3814
  381MOL0     H50271   0.366  11.391   9.803 -2.2469  0.4033 -0.3748
  381MOL0     H50272   0.442  11.595   9.924 -1.0998  2.5849  0.8801
  381MOL0     H50273   0.272  11.570   9.923 -0.9821  1.3886 -1.0253
  381MOL0     H50274   1.198  11.140   9.807  0.1812  1.4429  0.1532
  381MOL0     H50275   1.408  11.051   9.900 -0.3557  0.0948 -0.6919
  381MOL0     H50276   1.807  11.073   9.977 -0.5741  1.1779 -0.2181
  381MOL0     H50277   1.997  11.021  10.099  0.8405 -0.0152  0.0423
  381MOL0     H50278   4.161  10.779   9.750  0.7893  1.0057 -2.7402
  381MOL0     H50279   4.402  10.832   9.671  1.9292  1.0656  0.2391
  381MOL0     H50280   4.892  11.071   9.954 -2.0009  0.0821  1.9144
  381MOL0     H50281   5.070  11.235   9.899  0.6675  0.0580 -1.1407
  381MOL0     H50282   5.021  11.486   9.534 -1.0332  0.5972  3.2552
  381MOL0     H50283   5.095  11.328   9.507 -0.2352 -0.0565 -0.4981
  381MOL0     H50284   5.298  11.514   9.624  1.6478  0.5489 -0.4128
  381MOL0     H50285   5.293  11.457   9.450  0.3557  2.2028 -0.7302
  381MOL0     H50286   5.144  11.696   9.587 -0.4189  1.1558 -0.1224
  381MOL0     H50287   5.144  11.661   9.409  0.0987  0.0843 -0.5297
  381MOL0     H50288   5.390  11.715   9.401 -0.2101 -0.0278 -0.3993
  381MOL0     H50289   5.303  11.853   9.461  0.3373 -0.4416 -0.9424
  381MOL0     H50290   5.549  11.708   9.784  0.8574  0.1043 -0.5565
  381MOL0     H50291   4.831  11.385   9.572 -2.5366 -1.2176 -1.2124
  381MOL0     H50292   4.664  11.242   9.622  2.5309  2.1894 -1.5981
  382MOL0     O50293  10.345   9.742  10.989  0.2904  0.1787 -0.7751
  382MOL0     C50294  10.398   9.752  10.880 -0.1735 -0.2052 -0.3331
  382MOL0     O50295  10.358   9.834  10.774 -0.0399 -0.0179  0.0093
  382MOL0     C50296  10.233   9.886  10.772  0.1987  1.4149 -0.5132
  382MOL0     C50297  10.123   9.815  10.727 -0.9187  0.0273 -0.0591
  382MOL0     C50298   9.991   9.866  10.761 -1.7451 -0.5031 -0.0824
  382MOL0     C50299   9.986   9.998  10.820  0.5930 -0.1330 -0.6457
  382MOL0     O50300   9.861  10.044  10.823 -0.4913 -0.5978 -0.3833
  382MOL0     C50301   9.850  10.186  10.815 -0.3159  0.0450  1.0428
  382MOL0     C50302   9.720  10.232  10.749  0.7174  0.6178  0.0802
  382MOL0     C50303   9.586  10.174  10.802  0.4308 -0.2766 -0.3451
  382MOL0     C50304   9.471  10.255  10.739  0.8511 -0.3485  0.9709
  382MOL0     C50305   9.339  10.187  10.752  0.7822  0.1034  0.1572
  382MOL0     C50306   9.311  10.137  10.893  0.4792  0.2576  0.0449
  382MOL0     C50307   9.160  10.113  10.921 -0.2066 -0.2014 -0.1522
  382MOL0     C50308   9.125   9.997  11.008  0.4241 -0.2758 -0.6596
  382MOL0     N50309   8.986  10.015  11.042 -0.3730  0.2316  0.4717
  382MOL0     C50310   8.882   9.995  10.952  0.5314 -0.9283 -0.0428
  382MOL0     C50311   8.765  10.041  11.005  0.5559  1.5092  0.4358
  382MOL0     C50312   8.631  10.041  10.929  0.1588  0.5318  0.4237
  382MOL0     C50313   8.508  10.038  11.027 -0.3936  0.7640 -0.0187
  382MOL0     C50314   8.384  10.025  10.951  0.8478  0.5448  0.6274
  382MOL0     C50315   8.250  10.026  11.039  0.5946 -0.4899  0.0293
  382MOL0     O50316   8.134  10.015  10.953 -0.4250  0.7448 -0.2045
  382MOL0     C50317   8.007  10.002  11.000  0.5419  0.1007  0.4019
  382MOL0     C50318   7.902  10.008  10.906  0.1386  0.1700 -0.2993
  382MOL0     C50319   7.773   9.978  10.952  0.1259  0.2588  0.4266
  382MOL0     C50320   7.748   9.950  11.085  0.4642  0.5875  0.1448
  382MOL0     C50321   7.611   9.903  11.111 -0.3844  0.1409  0.3594
  382MOL0     O50322   7.533   9.884  11.003  0.1023 -0.0462  0.1982
  382MOL0     C50323   7.405   9.851  11.015  0.6958  0.3319  0.6547
  382MOL0     C50324   7.363   9.750  11.106 -0.9449 -0.9320  0.1926
  382MOL0     C50325   7.232   9.714  11.106  1.3327 -0.5745  0.0481
  382MOL0     C50326   7.137   9.782  11.022  1.3691 -0.6358 -0.0132
  382MOL0     O50327   7.006   9.747  11.024 -0.2641  0.1417 -0.5292
  382MOL0     C50328   6.985   9.642  10.920  0.2991 -0.2683 -1.0473
  382MOL0     C50329   6.840   9.610  10.896  0.3530 -0.2284 -0.9195
  382MOL0     C50330   6.761   9.586  11.020 -0.2423  0.0813  0.4609
  382MOL0     C50331   6.623   9.536  10.982  0.4444  0.2113  0.4532
  382MOL0     C50332   6.543   9.457  11.098 -0.1791  0.1652 -0.6258
  382MOL0     C50333   6.404   9.411  11.046  0.0309  0.6007 -0.6406
  382MOL0     C50334   6.314   9.326  11.148  0.1848  0.3038 -0.1719
  382MOL0     C50335   6.185   9.324  11.081  0.4893 -0.4114 -0.8585
  382MOL0    Cl50336   6.058   9.226  11.166 -0.0350  0.0697 -0.4559
  382MOL0     C50337   7.175   9.879  10.932  0.2706 -0.1319  0.4636
  382MOL0     C50338   7.306   9.915  10.939  0.2802 -0.0511  0.0750
  382MOL0     O50339   7.572   9.913  11.231  0.9213 -0.3446 -0.1949
  382MOL0     C50340   7.849   9.957  11.182  0.5278 -0.0197  1.0901
  382MOL0     C50341   7.982   9.999  11.141  0.0603 -0.3648 -0.7614
  382MOL0     N50342   8.802  10.090  11.130  0.5095 -0.0875  0.5874
  382MOL0     N50343   8.933  10.077  11.151  0.3106 -1.5105 -0.1064
  382MOL0     C50344  10.100  10.066  10.858 -0.4967 -1.0889  0.5917
  382MOL0     C50345  10.222  10.003  10.831  0.7934  0.1399 -0.7473
  382MOL0     C50346  10.507   9.665  10.849 -1.1111  0.5043 -0.1242
  382MOL0     C50347  10.562   9.587  10.953  0.4341  0.1907  0.4489
  382MOL0     C50348  10.668   9.497  10.926  0.2669  0.2949  0.3961
  382MOL0     C50349  10.730   9.493  10.801  0.1129  1.2050  0.4427
  382MOL0     O50350  10.842   9.416  10.763  0.4553  0.4557 -1.0836
  382MOL0     C50351  10.875   9.292  10.831 -0.6634  0.5593  0.2577
  382MOL0     C50352  11.015   9.291  10.901 -0.4226  0.5309 -0.1883
  382MOL0     C50353  11.130   9.296  10.799 -0.0446 -0.3736 -0.2184
  382MOL0     C50354  11.268   9.292  10.861 -0.2921  0.6929  0.5290
  382MOL0     C50355  11.307   9.154  10.887  0.3483 -0.2258  0.6841
  382MOL0     C50356  11.334   9.041  10.903  0.4787  0.4913  0.3557
  382MOL0     C50357  10.677   9.570  10.706 -0.2497 -0.0395 -0.1071
  382MOL0     C50358  10.568   9.655  10.720 -0.9790 -0.3028 -0.9154
  382MOL0     H50359  10.137   9.720  10.676  2.1327 -0.1566  0.9197
  382MOL0     H50360   9.901   9.812  10.736 -1.3871 -0.5258 -1.4126
  382MOL0     H50361   9.938  10.229  10.766  1.1031 -0.3609  3.1213
  382MOL0     H50362   9.848  10.223  10.918  0.6137  2.3258  0.3195
  382MOL0     H50363   9.724  10.221  10.640 -3.4037 -1.8452 -0.0423
  382MOL0     H50364   9.711  10.337  10.779  0.7873  0.8343 -0.6475
  382MOL0     H50365   9.581  10.193  10.910 -0.8246 -1.5988 -0.1450
  382MOL0     H50366   9.581  10.066  10.782  0.2859 -0.1637 -0.9468
  382MOL0     H50367   9.475  10.358  10.774  1.0184  0.6982 -1.8662
  382MOL0     H50368   9.482  10.272  10.631 -1.4368  2.2504  1.0433
  382MOL0     H50369   9.334  10.104  10.681 -0.7287  0.1790  0.1400
  382MOL0     H50370   9.254  10.251  10.725  0.8589  0.5295  0.9165
  382MOL0     H50371   9.338  10.212  10.969 -0.2328  0.2208  0.3438
  382MOL0     H50372   9.360  10.041  10.908 -0.6591 -0.6862 -2.0113
  382MOL0     H50373   9.121  10.207  10.960  3.0805  0.9540  0.6481
  382MOL0     H50374   9.104  10.083  10.831  3.0837 -0.6491 -2.2389
  382MOL0     H50375   9.174  10.000  11.106 -2.6160 -1.6487  1.0823
  382MOL0     H50376   9.143   9.897  10.968 -2.9787 -1.5917  0.6890
  382MOL0     H50377   8.898   9.958  10.851  2.2105 -0.3682 -0.0212
  382MOL0     H50378   8.630   9.954  10.863 -3.4195  1.0207 -0.4118
  382MOL0     H50379   8.623  10.123  10.856 -0.9050 -0.8280 -1.0501
  382MOL0     H50380   8.512  10.134  11.080  2.3414  0.2968  0.7883
  382MOL0     H50381   8.511   9.963  11.106 -2.8298  0.2412 -0.3466
  382MOL0     H50382   8.373  10.097  10.869 -3.3950  0.0230  0.4901
  382MOL0     H50383   8.388   9.924  10.911  0.1356 -0.1601  2.2440
  382MOL0     H50384   8.236  10.129  11.074  0.8380  0.5816 -2.7642
  382MOL0     H50385   8.248   9.957  11.124  1.1233  0.1839  0.6035
  382MOL0     H50386   7.921  10.037  10.803  0.1775  0.2867 -0.2597
  382MOL0     H50387   7.695   9.975  10.876  0.1370 -0.9299  0.4498
  382MOL0     H50388   7.433   9.696  11.168 -1.6545 -1.3943  0.6072
  382MOL0     H50389   7.204   9.651  11.190  1.6108  1.1134  1.4657
  382MOL0     H50390   7.042   9.554  10.953 -0.2460 -0.1444  0.2861
  382MOL0     H50391   7.018   9.674  10.821 -0.7694  0.9902 -1.0183
  382MOL0     H50392   6.828   9.523  10.831 -0.7663 -1.7402  1.1769
  382MOL0     H50393   6.793   9.698  10.851 -2.7601 -0.4135  1.5488
  382MOL0     H50394   6.744   9.687  11.059  1.2300  1.4296 -2.0974
  382MOL0     H50395   6.814   9.525  11.094  1.3378  0.3749 -0.3847
  382MOL0     H50396   6.566   9.630  10.978 -1.9712 -0.9467  3.3137
  382MOL0     H50397   6.620   9.481  10.888  3.2514 -1.9213  1.4710
  382MOL0     H50398   6.519   9.513  11.189 -0.5785 -0.9653 -0.0212
  382MOL0     H50399   6.600   9.372  11.135  1.7269  0.3734 -2.8487
  382MOL0     H50400   6.417   9.352  10.955  0.2571 -0.5540  0.1199
  382MOL0     H50401   6.362   9.511  11.030 -2.0357 -0.3787 -1.8602
  382MOL0     H50402   6.352   9.224  11.153 -3.1230 -1.0738 -0.4681
  382MOL0     H50403   6.304   9.368  11.248 -1.0344  1.2568 -0.6657
  382MOL0     H50404   6.195   9.295  10.976 -0.6482 -1.4418 -0.7027
  382MOL0     H50405   6.141   9.424  11.083  0.5080 -0.3983 -1.1027
  382MOL0     H50406   7.102   9.929  10.869 -2.0868 -0.7636  2.5223
  382MOL0     H50407   7.331   9.994  10.869 -1.4097 -0.9470 -1.6552
  382MOL0     H50408   7.818   9.932  11.283 -1.3177 -0.4117  0.4699
  382MOL0     H50409   8.056   9.991  11.219 -1.5890 -1.2705  0.7699
  382MOL0     H50410  10.099  10.159  10.914 -2.0597 -1.3869  1.0899
  382MOL0     H50411  10.321  10.047  10.841 -0.1838  2.3295 -0.0384
  382MOL0     H50412  10.518   9.588  11.052 -1.1462 -2.0260 -0.1603
  382MOL0     H50413  10.726   9.445  11.001 -0.0011  0.6592  0.8588
  382MOL0     H50414  10.880   9.211  10.756  0.9963  2.7857 -2.2080
  382MOL0     H50415  10.800   9.258  10.904 -0.7732  0.2190 -0.0086
  382MOL0     H50416  11.027   9.387  10.951 -2.9870  0.5247  0.6053
  382MOL0     H50417  11.024   9.206  10.969  0.9798  0.5069 -0.3652
  382MOL0     H50418  11.118   9.385  10.737  1.2478 -1.0552 -1.5117
  382MOL0     H50419  11.120   9.213  10.728 -1.2384  0.3072 -0.8846
  382MOL0     H50420  11.343   9.325  10.788 -1.1197  4.3218  1.1498
  382MOL0     H50421  11.280   9.352  10.952  0.3987 -1.1304  1.6954
  382MOL0     H50422  11.366   8.940  10.915  0.0522  0.1531 -1.0450
  382MOL0     H50423  10.721   9.560  10.607  0.6436  0.6363  0.2157
  382MOL0     H50424  10.539   9.703  10.627  0.8901 -0.0562 -1.4189
  383MOL0     O50425   4.660   4.307  10.123 -0.0212  0.1869 -0.0348
  383MOL0     C50426   4.597   4.363  10.033  0.2260  0.1709  0.7392
  383MOL0     O50427   4.531   4.485  10.042  0.7938  0.3965 -0.3406
  383MOL0     C50428   4.548   4.559  10.152  0.0901 -0.5240  0.1551
  383MOL0     C50429   4.474   4.524  10.263 -0.3854  0.0737  0.1670
  383MOL0     C50430   4.473   4.610  10.372  0.2069  0.0245 -0.5681
  383MOL0     C50431   4.543   4.732  10.372  0.6193  0.2566 -0.2255
  383MOL0     O50432   4.510   4.814  10.478 -0.4328  0.6525 -0.2332
  383MOL0     C50433   4.575   4.939  10.487 -0.8603  0.5268  0.1463
  383MOL0     C50434   4.537   5.014  10.614  0.4535  0.1334 -0.6751
  383MOL0     C50435   4.615   5.142  10.650 -0.2626 -0.1195  0.5569
  383MOL0     C50436   4.760   5.119  10.690  0.2262  0.4379  0.3042
  383MOL0     C50437   4.798   5.229  10.789 -0.8100  0.7264  0.2215
  383MOL0     C50438   4.947   5.235  10.821 -1.6049  0.3444 -0.2618
  383MOL0     C50439   4.964   5.340  10.933 -0.2442 -0.3663  0.6179
  383MOL0     C50440   4.918   5.488  10.917  0.3121  0.2010 -0.1041
  383MOL0     N50441   4.991   5.547  10.809  0.2211  1.0830 -0.0353
  383MOL0     C50442   5.110   5.601  10.827 -0.1197 -0.7008 -0.3161
  383MOL0     C50443   5.124   5.682  10.721 -1.2728  0.5449  0.6789
  383MOL0     C50444   5.245   5.766  10.701  0.1254  0.7119 -0.5386
  383MOL0     C50445   5.319   5.713  10.572 -0.2815 -0.3433 -0.1553
  383MOL0     C50446   5.356   5.558  10.585  0.6148 -0.3647 -0.3214
  383MOL0     C50447   5.260   5.464  10.521 -0.0318 -0.5055  0.3290
  383MOL0     O50448   5.326   5.351  10.469 -0.6897  0.7476 -0.0174
  383MOL0     C50449   5.270   5.223  10.463  0.6007 -0.4891 -0.0310
  383MOL0     C50450   5.341   5.108  10.447  0.3185  0.0983 -0.8998
  383MOL0     C50451   5.269   4.986  10.434  0.7647 -1.0332  0.5441
  383MOL0     C50452   5.129   4.977  10.425 -1.0209  0.2771  0.5696
  383MOL0     C50453   5.062   4.845  10.403 -0.2230 -0.3682 -0.1360
  383MOL0     O50454   5.129   4.735  10.431 -0.2365  0.2726 -0.1062
  383MOL0     C50455   5.082   4.613  10.414 -0.8446  0.7575 -0.1269
  383MOL0     C50456   4.976   4.557  10.344 -0.0235 -0.3454  0.7973
  383MOL0     C50457   4.973   4.416  10.319 -0.0904  0.0789 -0.5879
  383MOL0     C50458   5.063   4.332  10.384 -0.3369  0.8123  0.6213
  383MOL0     O50459   5.044   4.200  10.375 -0.2865 -0.3001  0.6699
  383MOL0     C50460   5.135   4.148  10.286 -0.1123  0.4451 -0.1052
  383MOL0     C50461   5.077   4.006  10.241  0.9334 -0.4121  0.6507
  383MOL0     C50462   4.943   4.024  10.160 -1.0413  0.2685  0.5212
  383MOL0     C50463   4.903   3.893  10.093 -0.3617  0.6545  0.3141
  383MOL0     C50464   4.745   3.902  10.050  0.2998  0.5745 -0.1556
  383MOL0     C50465   4.682   3.774  10.000  0.2859  0.0006  0.3152
  383MOL0     C50466   4.729   3.729   9.860  0.0659 -0.0660  0.9378
  383MOL0     C50467   4.681   3.590   9.807 -0.0232  0.4235  0.0006
  383MOL0    Cl50468   4.513   3.545   9.842  0.1581 -0.1140 -0.2174
  383MOL0     C50469   5.158   4.387  10.464 -0.0243  0.1402 -0.7085
  383MOL0     C50470   5.161   4.523  10.482  0.5684  0.0835  0.1372
  383MOL0     O50471   4.954   4.849  10.351  0.6118 -0.3311  0.1870
  383MOL0     C50472   5.063   5.099  10.443 -0.0785  0.1268 -0.7364
  383MOL0     C50473   5.131   5.221  10.458 -0.2499  0.1924 -0.6926
  383MOL0     N50474   5.016   5.674  10.637  0.9510  0.6084 -0.6257
  383MOL0     N50475   4.931   5.591  10.690 -0.5667  0.1129  0.3723
  383MOL0     C50476   4.624   4.757  10.259 -0.2232 -0.5056 -0.9860
  383MOL0     C50477   4.624   4.676  10.147 -0.4892  0.3694  0.8043
  383MOL0     C50478   4.604   4.297   9.894 -0.3538  0.4675  0.0020
  383MOL0     C50479   4.496   4.321   9.810 -0.3495 -0.0594 -0.3116
  383MOL0     C50480   4.485   4.261   9.686 -0.4379  1.4389 -0.3947
  383MOL0     C50481   4.582   4.174   9.640  0.3076  0.7730  0.1114
  383MOL0     O50482   4.582   4.119   9.512 -0.5852  0.1179 -0.5335
  383MOL0     C50483   4.498   4.173   9.413  0.1374  0.3654  0.0779
  383MOL0     C50484   4.546   4.308   9.372 -0.0865  0.1789  0.1754
  383MOL0     C50485   4.700   4.331   9.380  0.2567 -0.1899 -0.3635
  383MOL0     C50486   4.791   4.248   9.294 -0.0622  0.9503 -0.2515
  383MOL0     C50487   4.762   4.276   9.153 -0.1659 -0.0139 -0.3732
  383MOL0     C50488   4.734   4.294   9.038  0.4921 -0.4166  0.2525
  383MOL0     C50489   4.678   4.133   9.727 -0.2232 -0.3707  1.0677
  383MOL0     C50490   4.696   4.194   9.851 -0.1245 -0.5087  0.2176
  383MOL0     H50491   4.413   4.434  10.258  1.5488 -1.5061  2.4871
  383MOL0     H50492   4.415   4.579  10.458 -1.6796  4.7014  0.1422
  383MOL0     H50493   4.556   4.991  10.392 -3.2354 -4.6119 -2.6585
  383MOL0     H50494   4.681   4.911  10.487 -0.7982  0.3729  3.6911
  383MOL0     H50495   4.543   4.937  10.691 -2.5910  0.2756 -0.1824
  383MOL0     H50496   4.431   5.033  10.597 -0.3129 -0.4532  2.8402
  383MOL0     H50497   4.568   5.185  10.739 -2.7915 -0.8651 -0.3302
  383MOL0     H50498   4.616   5.223  10.576  0.9593 -0.1214  0.5428
  383MOL0     H50499   4.770   5.018  10.731 -1.7226  0.4151  0.8047
  383MOL0     H50500   4.828   5.138  10.606  0.8049  1.1803  0.9206
  383MOL0     H50501   4.743   5.206  10.881 -2.7782  0.0172 -1.0720
  383MOL0     H50502   4.778   5.322  10.735 -2.5670 -0.9387 -2.2118
  383MOL0     H50503   5.005   5.245  10.729 -1.5103 -1.2983 -0.4134
  383MOL0     H50504   4.981   5.144  10.871  0.3481  1.2974  0.2323
  383MOL0     H50505   4.911   5.310  11.024 -3.2533  0.6525 -0.6702
  383MOL0     H50506   5.072   5.335  10.948 -0.4683  0.1318  2.7064
  383MOL0     H50507   4.946   5.552  11.001 -1.3522  2.1419 -0.9326
  383MOL0     H50508   4.811   5.498  10.894 -0.1355 -0.4206  1.5134
  383MOL0     H50509   5.191   5.590  10.898  0.6082  1.9907 -0.6022
  383MOL0     H50510   5.299   5.751  10.794  0.3174 -4.8103 -1.1868
  383MOL0     H50511   5.203   5.867  10.698 -4.8964 -1.1249 -2.0866
  383MOL0     H50512   5.413   5.768  10.563 -0.4271 -0.0067  0.2911
  383MOL0     H50513   5.271   5.722  10.474 -0.6403  1.4159  0.1406
  383MOL0     H50514   5.450   5.557  10.529  1.0693  3.2525  0.1057
  383MOL0     H50515   5.388   5.537  10.687  2.3672 -0.8995 -0.9459
  383MOL0     H50516   5.212   5.520  10.440 -1.9729 -1.5196  0.7422
  383MOL0     H50517   5.185   5.429  10.591  0.5449 -1.8466  0.3048
  383MOL0     H50518   5.450   5.103  10.455  0.1661  0.0931  3.0322
  383MOL0     H50519   5.317   4.889  10.431 -1.7355 -2.3418 -0.0001
  383MOL0     H50520   4.915   4.628  10.289 -0.2781  0.7036  2.3760
  383MOL0     H50521   4.891   4.366  10.268 -0.5383  2.1063 -1.9514
  383MOL0     H50522   5.231   4.121  10.331 -0.0180 -1.9732 -1.5785
  383MOL0     H50523   5.151   4.205  10.194 -0.5412 -3.4341 -2.8444
  383MOL0     H50524   5.048   3.949  10.330 -0.1025  0.4700  0.9029
  383MOL0     H50525   5.156   3.948  10.193 -0.4243 -1.9333  0.1726
  383MOL0     H50526   4.966   4.101  10.085 -3.9441  2.2368  1.5089
  383MOL0     H50527   4.877   4.071  10.233  2.0484  3.7345  1.4024
  383MOL0     H50528   4.963   3.879  10.003  0.7350 -1.5024  1.3013
  383MOL0     H50529   4.912   3.808  10.161 -1.2888  1.5771  1.6595
  383MOL0     H50530   4.742   3.972   9.966 -0.1573  1.1930  0.3716
  383MOL0     H50531   4.687   3.948  10.130 -1.0318  1.9928 -1.8447
  383MOL0     H50532   4.573   3.775  10.003  0.2492  2.4554  3.1783
  383MOL0     H50533   4.711   3.693  10.068  0.8019 -1.1849 -1.2561
  383MOL0     H50534   4.692   3.806   9.791  0.5959  0.6183  1.4053
  383MOL0     H50535   4.838   3.731   9.847 -0.0874 -2.2395 -1.8088
  383MOL0     H50536   4.738   3.517   9.865 -1.0328  0.4992  1.1236
  383MOL0     H50537   4.709   3.577   9.703  1.9783 -0.4848  0.6184
  383MOL0     H50538   5.224   4.321  10.520 -1.7539 -0.7966  0.3110
  383MOL0     H50539   5.232   4.563  10.554  2.0163  0.2218 -1.3075
  383MOL0     H50540   4.956   5.108  10.428 -0.0913  0.5507 -0.4094
  383MOL0     H50541   5.067   5.308  10.468  0.8679  0.8965  0.6934
  383MOL0     H50542   4.684   4.847  10.263 -1.0719  0.0371  0.0683
  383MOL0     H50543   4.674   4.691  10.052 -1.8398 -2.9821 -0.5931
  383MOL0     H50544   4.416   4.383   9.849  0.7970  0.9195  0.5368
  383MOL0     H50545   4.394   4.279   9.630  0.1284  1.6592 -1.2631
  383MOL0     H50546   4.397   4.178   9.456  0.5220  0.0404  1.0371
  383MOL0     H50547   4.491   4.097   9.335 -2.4575  0.9708 -0.3912
  383MOL0     H50548   4.515   4.322   9.268 -1.2727 -2.3905  0.1071
  383MOL0     H50549   4.498   4.379   9.439 -0.7442  2.5347 -2.5773
  383MOL0     H50550   4.736   4.332   9.483 -2.2570  0.0034  0.5803
  383MOL0     H50551   4.700   4.434   9.345 -0.8187 -0.3070 -0.7554
  383MOL0     H50552   4.894   4.282   9.313  0.3616  1.3063 -2.8108
  383MOL0     H50553   4.783   4.142   9.318  1.6520  0.4488 -1.7048
  383MOL0     H50554   4.702   4.311   8.937  2.6528 -0.0546 -0.4117
  383MOL0     H50555   4.749   4.063   9.684 -1.0466 -0.1188 -0.7692
  383MOL0     H50556   4.777   4.158   9.913 -1.6411 -0.9366  2.0467
  384MOL0     O50557   4.328   6.999  10.601 -0.0341  0.0857 -0.0267
  384MOL0     C50558   4.302   7.112  10.556  0.5041 -0.0445  0.7736
  384MOL0     O50559   4.203   7.135  10.467 -0.0251 -1.2538  0.1115
  384MOL0     C50560   4.126   7.035  10.415 -0.4360 -1.3244  0.2718
  384MOL0     C50561   4.067   6.933  10.482 -0.0184 -0.3819 -0.6763
  384MOL0     C50562   3.979   6.837  10.425 -0.4341 -0.6498  0.4407
  384MOL0     C50563   3.950   6.849  10.286  0.0908 -0.4021  0.2585
  384MOL0     O50564   3.858   6.755  10.233  0.2251 -1.4067 -0.6688
  384MOL0     C50565   3.780   6.782  10.119 -1.0148 -0.8228 -0.5487
  384MOL0     C50566   3.866   6.717  10.006 -0.5054  0.3519 -0.3201
  384MOL0     C50567   3.900   6.561  10.028 -0.3640 -0.4738 -0.2168
  384MOL0     C50568   3.770   6.475  10.018 -0.9558  0.7514 -0.7661
  384MOL0     C50569   3.793   6.324  10.000 -0.0712  0.5559 -0.9787
  384MOL0     C50570   3.876   6.269  10.118  0.1831  0.2638  0.0094
  384MOL0     C50571   3.887   6.116  10.128 -0.1003 -0.4556  0.8594
  384MOL0     C50572   4.003   6.050  10.046 -0.5288  0.6957 -0.5737
  384MOL0     N50573   3.999   5.903  10.072  0.1234  0.7680 -0.3194
  384MOL0     C50574   4.105   5.841  10.116 -0.3902 -0.1083 -0.3531
  384MOL0     C50575   4.064   5.711  10.126 -0.6491 -0.4935 -0.5087
  384MOL0     C50576   4.154   5.598  10.167 -0.6182 -0.0147 -0.1268
  384MOL0     C50577   4.144   5.581  10.314  0.8976  0.1312  0.6235
  384MOL0     C50578   4.016   5.531  10.375  0.2622  0.0742 -0.0374
  384MOL0     C50579   3.983   5.385  10.341 -0.8943  0.7265  0.1777
  384MOL0     O50580   3.873   5.345  10.415 -0.6618 -0.2801  0.1409
  384MOL0     C50581   3.741   5.378  10.387  0.6992  0.3670  0.7326
  384MOL0     C50582   3.645   5.317  10.465  0.3282  0.4213  0.7207
  384MOL0     C50583   3.503   5.331  10.447 -0.3975 -0.1906 -0.0675
  384MOL0     C50584   3.451   5.415  10.347  0.6465  0.8843  1.0036
  384MOL0     C50585   3.301   5.448  10.331 -0.6612 -0.5781 -0.6383
  384MOL0     O50586   3.215   5.395  10.418 -0.6744  0.1066  0.0667
  384MOL0     C50587   3.088   5.398  10.410 -0.4544  0.2537  0.1438
  384MOL0     C50588   3.017   5.373  10.534 -0.2288 -0.5661  0.1999
  384MOL0     C50589   2.879   5.387  10.547 -0.7469  0.4316  0.2755
  384MOL0     C50590   2.809   5.408  10.424 -0.5403 -0.0688 -0.3184
  384MOL0     O50591   2.671   5.421  10.439  0.2413  0.2008 -0.9392
  384MOL0     C50592   2.587   5.460  10.329 -0.4688 -0.8075 -1.3350
  384MOL0     C50593   2.446   5.482  10.389  0.6436 -0.1534  0.3270
  384MOL0     C50594   2.351   5.523  10.277 -0.0062 -0.6017 -0.1783
  384MOL0     C50595   2.208   5.520  10.318 -0.4010  0.3280 -0.5151
  384MOL0     C50596   2.119   5.519  10.193  0.8686  0.5452 -0.4023
  384MOL0     C50597   1.972   5.535  10.237 -0.2467 -0.0992 -0.0568
  384MOL0     C50598   1.913   5.445  10.343 -0.6520 -0.2557 -0.7127
  384MOL0     C50599   1.762   5.460  10.372 -0.9316  0.3045 -0.3546
  384MOL0    Cl50600   1.757   5.618  10.457  0.1326  0.3401  0.0158
  384MOL0     C50601   2.874   5.395  10.293 -0.2864  0.3302  0.5371
  384MOL0     C50602   3.016   5.391  10.290  0.4859 -0.0489 -1.0101
  384MOL0     O50603   3.274   5.506  10.231 -0.0710 -0.0973  0.5820
  384MOL0     C50604   3.549   5.466  10.258  0.5895 -0.6012  0.3980
  384MOL0     C50605   3.687   5.451  10.276 -0.1623  1.2806 -1.0460
  384MOL0     N50606   3.932   5.697  10.091 -0.5295  0.4680  0.1226
  384MOL0     N50607   3.892   5.814  10.055  0.2722 -0.5745  0.5828
  384MOL0     C50608   4.012   6.958  10.216 -0.0432 -0.0757 -0.2853
  384MOL0     C50609   4.099   7.044  10.277  0.0066 -0.0895 -0.2885
  384MOL0     C50610   4.364   7.236  10.608 -0.2676 -0.0654  0.0150
  384MOL0     C50611   4.308   7.365  10.577  0.1507 -0.2720 -0.1276
  384MOL0     C50612   4.364   7.484  10.626 -0.0275  0.6055  0.8974
  384MOL0     C50613   4.488   7.483  10.700  0.3541  0.2271 -0.4741
  384MOL0     O50614   4.540   7.606  10.726 -0.0728  0.1992 -0.2868
  384MOL0     C50615   4.602   7.614  10.855  1.0546 -0.4628  0.3908
  384MOL0     C50616   4.707   7.729  10.846  0.0852 -0.0717 -0.8563
  384MOL0     C50617   4.818   7.700  10.741 -0.3672  0.2219 -0.5516
  384MOL0     C50618   4.822   7.813  10.643 -0.4855  0.1887  0.0047
  384MOL0     C50619   4.895   7.926  10.686  0.0516 -0.2362  0.2793
  384MOL0     C50620   4.954   8.024  10.713 -0.7292 -0.0426  0.4242
  384MOL0     C50621   4.548   7.356  10.724 -0.2117 -0.3809  0.4298
  384MOL0     C50622   4.488   7.240  10.681  0.2577 -0.0961 -0.2735
  384MOL0     H50623   4.069   6.931  10.590  0.3870 -2.4732 -0.6815
  384MOL0     H50624   3.934   6.769  10.496 -1.1917 -0.8440 -0.2080
  384MOL0     H50625   3.757   6.888  10.104 -0.3897 -0.9116 -2.3864
  384MOL0     H50626   3.688   6.724  10.127  0.3243 -2.9354  0.5061
  384MOL0     H50627   3.963   6.768  10.006  0.0458 -0.6716 -0.3788
  384MOL0     H50628   3.807   6.723   9.914 -0.3084  2.3111 -0.3579
  384MOL0     H50629   3.952   6.544  10.122  0.9566  2.2504 -0.3560
  384MOL0     H50630   3.961   6.524   9.945  0.4790  2.5416 -1.0829
  384MOL0     H50631   3.714   6.485  10.111  1.8180  1.4276  0.9237
  384MOL0     H50632   3.706   6.509   9.936  0.6405  3.5016 -1.0066
  384MOL0     H50633   3.848   6.314   9.905  0.9807 -0.6364 -0.2727
  384MOL0     H50634   3.699   6.270  10.009  0.9481 -1.0922  0.2634
  384MOL0     H50635   3.823   6.296  10.210 -2.0325 -0.6815 -0.8937
  384MOL0     H50636   3.975   6.314  10.123  0.7357 -0.9573  0.4504
  384MOL0     H50637   3.899   6.089  10.234  0.4670  0.8425  1.1520
  384MOL0     H50638   3.793   6.065  10.107 -0.2064 -0.2714  0.8827
  384MOL0     H50639   4.099   6.095  10.073 -1.3123  4.7532 -3.5636
  384MOL0     H50640   3.997   6.076   9.940  1.3948  1.7163 -0.4738
  384MOL0     H50641   4.197   5.894  10.142 -1.3270  0.6396  1.6719
  384MOL0     H50642   4.256   5.622  10.135 -1.0386  0.3512 -1.2359
  384MOL0     H50643   4.127   5.506  10.116 -1.8464 -1.2653  2.5469
  384MOL0     H50644   4.167   5.675  10.366  2.2819 -0.9757  2.1316
  384MOL0     H50645   4.228   5.515  10.337  0.4149 -0.7457 -0.0974
  384MOL0     H50646   4.011   5.541  10.483 -0.6718  2.2318 -0.2246
  384MOL0     H50647   3.930   5.595  10.350  1.0228  1.5901  1.0965
  384MOL0     H50648   4.058   5.310  10.369 -1.0775  0.8435  1.0023
  384MOL0     H50649   3.961   5.381  10.234 -0.7393  1.2204  0.1247
  384MOL0     H50650   3.689   5.259  10.545  2.7644  3.4177  1.7473
  384MOL0     H50651   3.440   5.285  10.523  0.2131 -1.7985 -0.4931
  384MOL0     H50652   3.076   5.353  10.623  1.6106  0.5892 -0.7146
  384MOL0     H50653   2.831   5.391  10.644  0.8919 -0.6703  1.1911
  384MOL0     H50654   2.585   5.378  10.257 -2.5650 -1.4930 -0.5926
  384MOL0     H50655   2.621   5.548  10.274  2.4557 -2.6554 -2.6987
  384MOL0     H50656   2.448   5.552  10.473 -1.4806 -1.0327  1.1815
  384MOL0     H50657   2.420   5.384  10.430  0.1437 -0.4156 -0.5906
  384MOL0     H50658   2.372   5.464  10.187  1.5840  1.2364 -1.0944
  384MOL0     H50659   2.377   5.625  10.247 -2.9549 -0.7638 -4.1371
  384MOL0     H50660   2.202   5.428  10.376  0.1494 -0.2431 -1.3469
  384MOL0     H50661   2.182   5.607  10.379 -0.7117 -0.7785  0.9784
  384MOL0     H50662   2.121   5.416  10.156  1.4152  0.8134 -1.1318
  384MOL0     H50663   2.144   5.584  10.109  3.7375  0.3888  0.2335
  384MOL0     H50664   1.904   5.509  10.155  0.4968 -2.4144 -0.0085
  384MOL0     H50665   1.947   5.640  10.254 -1.5259 -0.2574 -0.8226
  384MOL0     H50666   1.908   5.339  10.318 -0.8967 -0.7319  1.1904
  384MOL0     H50667   1.976   5.448  10.433 -0.6539 -0.6680 -0.6960
  384MOL0     H50668   1.709   5.385  10.431 -1.1457  0.7537  0.0308
  384MOL0     H50669   1.709   5.467  10.277  0.1094 -0.5175 -1.0168
  384MOL0     H50670   2.807   5.396  10.208 -0.2336 -2.0149  0.4104
  384MOL0     H50671   3.057   5.388  10.190 -2.2202 -0.2862 -2.1948
  384MOL0     H50672   3.517   5.531  10.178 -1.3441 -0.2196  1.4093
  384MOL0     H50673   3.752   5.488  10.198 -3.3116  2.3389 -3.3820
  384MOL0     H50674   3.998   6.968  10.109  1.1569 -1.7086 -0.6332
  384MOL0     H50675   4.143   7.123  10.217  1.4063  0.4436  1.3532
  384MOL0     H50676   4.221   7.370  10.512 -0.2437 -2.7945  0.1236
  384MOL0     H50677   4.316   7.579  10.601 -2.1467 -0.1501  1.8301
  384MOL0     H50678   4.666   7.528  10.877  0.1385 -1.6824 -1.4518
  384MOL0     H50679   4.525   7.611  10.933 -1.3175 -0.9055 -1.8243
  384MOL0     H50680   4.657   7.823  10.821  3.1342  1.4415 -1.7541
  384MOL0     H50681   4.746   7.749  10.947  1.6914 -1.2808 -1.1935
  384MOL0     H50682   4.787   7.609  10.688 -2.5819  1.0295 -0.7637
  384MOL0     H50683   4.915   7.687  10.790  0.0303  0.9668 -1.1248
  384MOL0     H50684   4.857   7.781  10.545  1.2820 -0.5361  0.8254
  384MOL0     H50685   4.723   7.853  10.621  0.0085  2.3665  1.4727
  384MOL0     H50686   5.018   8.109  10.724  0.3729 -0.6475 -0.9876
  384MOL0     H50687   4.645   7.365  10.771  0.6129  3.1604 -1.5808
  384MOL0     H50688   4.537   7.148  10.712  0.2991  0.0781  0.1917
  385MOL0     O50689   2.124   7.564   8.425 -0.4830  0.5999  0.2715
  385MOL0     C50690   2.209   7.482   8.457  0.0983 -0.0774  0.6815
  385MOL0     O50691   2.182   7.360   8.525 -0.2656 -0.0403  0.3438
  385MOL0     C50692   2.054   7.311   8.523  0.4241 -0.3217  0.8974
  385MOL0     C50693   1.989   7.299   8.641  0.2787 -0.2494 -0.6121
  385MOL0     C50694   1.862   7.249   8.652  0.1141 -0.5745 -1.5849
  385MOL0     C50695   1.785   7.211   8.544 -1.2125 -0.1240 -0.9450
  385MOL0     O50696   1.659   7.178   8.569 -0.1063 -0.1050 -0.4489
  385MOL0     C50697   1.561   7.169   8.468  0.0125 -0.4914 -0.8322
  385MOL0     C50698   1.475   7.293   8.468  0.3782 -0.3426  0.5760
  385MOL0     C50699   1.381   7.319   8.595 -0.4738  0.8159  0.2648
  385MOL0     C50700   1.297   7.445   8.589  0.5489 -0.3533  0.1850
  385MOL0     C50701   1.160   7.418   8.661  0.1119 -0.4396 -0.2803
  385MOL0     C50702   1.062   7.314   8.599 -1.0529  0.2220 -0.2601
  385MOL0     C50703   0.964   7.359   8.498 -0.6783 -0.7879  0.6161
  385MOL0     C50704   1.026   7.412   8.372 -0.2950  0.3643  0.4495
  385MOL0     N50705   0.954   7.424   8.242  0.5246  0.2753 -0.1387
  385MOL0     C50706   0.819   7.441   8.245 -0.0996  0.8765 -0.1316
  385MOL0     C50707   0.796   7.509   8.131 -0.5820 -0.5850  0.6228
  385MOL0     C50708   0.664   7.581   8.086  0.1799 -0.4167  0.6283
  385MOL0     C50709   0.630   7.545   7.941  0.1170  0.4733  0.4905
  385MOL0     C50710   0.558   7.407   7.939  0.9085 -0.0343 -0.4618
  385MOL0     C50711   0.413   7.425   7.985  0.3065 -0.1768  0.6539
  385MOL0     O50712   0.385   7.384   8.116 -0.6863  0.6229  0.1170
  385MOL0     C50713   0.252   7.387   8.139 -0.3471 -0.0470 -0.0086
  385MOL0     C50714   0.162   7.291   8.088  0.3498 -0.3223  0.0584
  385MOL0     C50715   0.030   7.311   8.110 -0.8303 -0.3277  0.5794
  385MOL0     C50716  -0.017   7.418   8.189 -0.8849  0.1554  0.1799
  385MOL0     C50717  -0.168   7.437   8.209 -0.3465  0.8786 -0.3119
  385MOL0     O50718  -0.247   7.329   8.170  0.9344  0.1459 -0.0591
  385MOL0     C50719  -0.383   7.323   8.195 -0.1036  0.3694 -0.2726
  385MOL0     C50720  -0.436   7.316   8.324  0.0510 -0.5697  0.0093
  385MOL0     C50721  -0.575   7.306   8.343  0.2768 -0.5262 -0.2123
  385MOL0     C50722  -0.669   7.307   8.238 -0.5129 -0.5222  0.6370
  385MOL0     O50723  -0.799   7.291   8.270  0.1715  0.0020  0.1011
  385MOL0     C50724  -0.898   7.388   8.226 -0.4343 -0.7569 -0.0692
  385MOL0     C50725  -0.915   7.503   8.328 -0.2137  0.7787  0.3720
  385MOL0     C50726  -0.987   7.629   8.266 -0.1060 -0.0779  0.0099
  385MOL0     C50727  -1.132   7.591   8.210 -0.8238 -0.1518 -0.3490
  385MOL0     C50728  -1.202   7.723   8.177 -0.5312 -0.1108 -0.5653
  385MOL0     C50729  -1.326   7.696   8.098 -0.3886  0.7377 -0.4494
  385MOL0     C50730  -1.418   7.813   8.117  0.5218 -0.0911  1.3732
  385MOL0     C50731  -1.544   7.794   8.034 -0.3218 -0.1257  0.4246
  385MOL0    Cl50732  -1.657   7.910   8.063  0.5984  0.1628  0.3447
  385MOL0     C50733  -0.619   7.310   8.111 -0.5974 -0.2460  0.6689
  385MOL0     C50734  -0.477   7.324   8.091 -0.4269 -0.6164  0.2965
  385MOL0     O50735  -0.210   7.528   8.280 -0.4663  0.0132  0.3019
  385MOL0     C50736   0.071   7.515   8.234  0.2770  0.6280  0.2195
  385MOL0     C50737   0.207   7.489   8.222  0.5547  0.0318  0.4032
  385MOL0     N50738   0.913   7.533   8.063  0.5408  0.1294  0.0264
  385MOL0     N50739   1.008   7.490   8.137 -1.0747  0.5435 -0.0293
  385MOL0     C50740   1.842   7.228   8.417 -0.4542 -0.0687  0.6119
  385MOL0     C50741   1.975   7.285   8.406 -1.2669 -0.4705  0.0207
  385MOL0     C50742   2.355   7.507   8.435  0.5988 -0.6371  0.0314
  385MOL0     C50743   2.400   7.607   8.349  0.0777  0.4447  0.1670
  385MOL0     C50744   2.530   7.659   8.365  0.0493  0.0530 -0.1609
  385MOL0     C50745   2.622   7.604   8.461  0.1128  0.1529  0.6558
  385MOL0     O50746   2.752   7.649   8.491  0.2689  0.5096 -0.0555
  385MOL0     C50747   2.773   7.788   8.470 -0.8523 -0.2761  0.1339
  385MOL0     C50748   2.898   7.838   8.540  0.3700 -0.3149 -0.8110
  385MOL0     C50749   3.021   7.790   8.479 -0.4901  0.1966  0.1802
  385MOL0     C50750   3.142   7.818   8.568 -0.0614  0.6875 -0.2391
  385MOL0     C50751   3.182   7.959   8.579 -0.1498 -0.8292 -0.5282
  385MOL0     C50752   3.203   8.080   8.569 -0.1991  0.2373  0.2935
  385MOL0     C50753   2.579   7.497   8.528  1.1448 -0.2447 -0.3439
  385MOL0     C50754   2.446   7.454   8.529  0.0604 -0.9570  0.9178
  385MOL0     H50755   2.036   7.315   8.738 -0.9313  1.2229 -0.2479
  385MOL0     H50756   1.821   7.247   8.752 -0.8483 -1.3829 -1.9785
  385MOL0     H50757   1.499   7.083   8.496 -1.0332  0.3943 -0.3199
  385MOL0     H50758   1.604   7.159   8.368 -0.1298 -0.9995 -0.8423
  385MOL0     H50759   1.410   7.288   8.381  1.4644  0.2297 -0.2868
  385MOL0     H50760   1.543   7.379   8.466  1.7042 -1.2916  2.2213
  385MOL0     H50761   1.448   7.333   8.680  0.6507  0.3738 -0.5079
  385MOL0     H50762   1.316   7.232   8.605 -1.7605  1.6101 -0.9167
  385MOL0     H50763   1.357   7.524   8.635  2.6309  0.3404 -3.3392
  385MOL0     H50764   1.274   7.473   8.486 -0.6758  2.5762  1.1524
  385MOL0     H50765   1.113   7.514   8.685 -0.0398 -0.9193  1.5406
  385MOL0     H50766   1.189   7.387   8.762  0.8617  0.9421 -0.0382
  385MOL0     H50767   1.012   7.274   8.689  0.9144  0.2269  0.8968
  385MOL0     H50768   1.122   7.237   8.551 -0.4151  0.7056 -0.2481
  385MOL0     H50769   0.897   7.281   8.459 -4.1959  3.2001 -2.1701
  385MOL0     H50770   0.914   7.439   8.553  1.2305  0.2387  0.9187
  385MOL0     H50771   1.107   7.344   8.345 -2.1472 -1.6456 -0.2842
  385MOL0     H50772   1.077   7.508   8.386 -0.5188  0.3415  1.4572
  385MOL0     H50773   0.754   7.408   8.325  2.0483  1.1649  1.7964
  385MOL0     H50774   0.689   7.687   8.097  0.3340 -0.6683  3.7369
  385MOL0     H50775   0.583   7.562   8.158 -2.5104  3.0953 -1.1395
  385MOL0     H50776   0.724   7.525   7.887  0.1820  0.9307  0.4340
  385MOL0     H50777   0.568   7.616   7.886  0.5821 -0.3237 -1.1411
  385MOL0     H50778   0.552   7.379   7.834 -1.0370 -1.9391  0.0694
  385MOL0     H50779   0.608   7.322   7.988 -1.0817  0.5256  2.9235
  385MOL0     H50780   0.350   7.362   7.922  0.0183  0.5921  0.1472
  385MOL0     H50781   0.377   7.527   7.967 -1.0417 -0.8434 -0.6674
  385MOL0     H50782   0.209   7.212   8.030 -1.1579  0.0555 -1.7799
  385MOL0     H50783  -0.054   7.252   8.074 -2.2200  1.9985 -0.1761
  385MOL0     H50784  -0.377   7.315   8.415 -1.2685  0.3425  0.9088
  385MOL0     H50785  -0.612   7.307   8.445  0.8345 -1.3456  0.0086
  385MOL0     H50786  -0.989   7.331   8.206  0.4139 -2.1267 -0.1708
  385MOL0     H50787  -0.869   7.434   8.131 -0.7571 -1.9222 -0.7480
  385MOL0     H50788  -0.821   7.549   8.358 -0.7787  2.4599 -0.2657
  385MOL0     H50789  -0.985   7.478   8.408 -0.8620  1.7098  0.1191
  385MOL0     H50790  -0.932   7.656   8.175  2.6324  1.7753  2.0874
  385MOL0     H50791  -0.983   7.715   8.332 -1.4330 -0.5535  0.7392
  385MOL0     H50792  -1.120   7.531   8.119 -2.2082  0.4126 -0.9347
  385MOL0     H50793  -1.173   7.523   8.286  0.7905 -3.6272 -2.3539
  385MOL0     H50794  -1.136   7.779   8.110 -1.6366 -1.3156 -2.7819
  385MOL0     H50795  -1.220   7.787   8.265  0.5012  2.6881 -2.2473
  385MOL0     H50796  -1.370   7.603   8.136  0.5722  0.4704  0.0164
  385MOL0     H50797  -1.305   7.674   7.993  1.9001 -1.3596  0.3476
  385MOL0     H50798  -1.441   7.832   8.222 -0.7588  2.5250  0.6972
  385MOL0     H50799  -1.375   7.908   8.084 -2.1753  0.0364 -2.4224
  385MOL0     H50800  -1.583   7.696   8.060 -0.7442  0.3548  1.6832
  385MOL0     H50801  -1.512   7.792   7.929 -2.9735  0.4495 -0.4843
  385MOL0     H50802  -0.699   7.298   8.039  1.0393 -1.2713 -1.1070
  385MOL0     H50803  -0.444   7.354   7.992  1.2294  0.3056  1.0949
  385MOL0     H50804   0.035   7.602   8.288 -1.4610  1.1107 -1.6043
  385MOL0     H50805   0.275   7.565   8.258  1.9969 -0.4444 -1.1880
  385MOL0     H50806   1.796   7.197   8.324  1.8583  0.1669 -0.6762
  385MOL0     H50807   2.019   7.289   8.307 -0.6215 -5.8336 -0.2027
  385MOL0     H50808   2.325   7.647   8.282 -1.1142  0.9257  1.7253
  385MOL0     H50809   2.565   7.747   8.313  1.8257 -0.5796 -0.1267
  385MOL0     H50810   2.680   7.838   8.498 -2.2213 -3.0885  0.9804
  385MOL0     H50811   2.790   7.799   8.362  1.2729  1.7800  0.5963
  385MOL0     H50812   2.904   7.948   8.543  1.6131 -0.3246 -1.9264
  385MOL0     H50813   2.889   7.810   8.645  1.1134 -1.4238 -1.0329
  385MOL0     H50814   3.031   7.841   8.382 -2.2091  0.1637 -0.0500
  385MOL0     H50815   3.020   7.682   8.464  0.4207  0.2590 -0.4193
  385MOL0     H50816   3.121   7.791   8.672  1.0504  1.5575  0.2395
  385MOL0     H50817   3.224   7.761   8.524 -2.0195 -1.1507 -1.7057
  385MOL0     H50818   3.227   8.180   8.537  2.0546  0.0059  1.0544
  385MOL0     H50819   2.662   7.462   8.589  1.5903  1.2717 -0.0547
  385MOL0     H50820   2.410   7.384   8.603 -1.2287 -1.9491 -0.5791
  386MOL0     O50821   8.008   4.909   4.329  0.3370  0.0204 -0.6457
  386MOL0     C50822   8.116   4.970   4.306  0.7901  0.1064 -0.7324
  386MOL0     O50823   8.124   5.080   4.223 -0.1093 -0.4657 -0.1800
  386MOL0     C50824   8.005   5.119   4.167 -0.4148  0.0964 -0.1083
  386MOL0     C50825   7.934   5.220   4.221  0.8881  0.1689 -0.4921
  386MOL0     C50826   7.806   5.257   4.164 -0.2672 -0.4262 -1.0090
  386MOL0     C50827   7.760   5.203   4.057 -0.2316  0.2942  0.2898
  386MOL0     O50828   7.638   5.243   4.016  0.1645 -0.0273  0.4104
  386MOL0     C50829   7.580   5.203   3.885 -0.0030 -0.0202  0.6302
  386MOL0     C50830   7.425   5.225   3.902 -0.0868  0.1766  0.4909
  386MOL0     C50831   7.403   5.375   3.919 -0.0806  0.4503  0.3127
  386MOL0     C50832   7.276   5.401   4.002  0.1960 -0.3096  1.2168
  386MOL0     C50833   7.148   5.340   3.939  0.9024 -0.6574  0.4060
  386MOL0     C50834   7.018   5.380   4.011 -0.1760  0.1358  0.2527
  386MOL0     C50835   6.904   5.292   3.955  0.1908 -0.3963 -0.0278
  386MOL0     C50836   6.765   5.342   3.998  0.0530  0.1358  0.0372
  386MOL0     N50837   6.654   5.273   3.925 -0.2286  0.1524  0.1900
  386MOL0     C50838   6.627   5.288   3.792  0.4410  0.0336  0.2000
  386MOL0     C50839   6.505   5.226   3.770 -0.0749  0.3569  0.2242
  386MOL0     C50840   6.454   5.176   3.633 -0.7571 -0.2033 -0.6448
  386MOL0     C50841   6.454   5.020   3.623  0.3435 -0.0255 -0.8014
  386MOL0     C50842   6.364   4.958   3.736  0.0263  0.3333 -0.9538
  386MOL0     C50843   6.219   4.989   3.707  0.5615 -0.0796  0.1645
  386MOL0     O50844   6.165   4.904   3.603  0.5250  0.3551 -0.3408
  386MOL0     C50845   6.027   4.908   3.585 -0.6674  0.0523 -0.3530
  386MOL0     C50846   5.982   4.919   3.453 -0.0104  0.2006 -0.0710
  386MOL0     C50847   5.844   4.927   3.416  0.4622  0.2783  0.4924
  386MOL0     C50848   5.753   4.924   3.518  0.0337 -0.2499 -0.8453
  386MOL0     C50849   5.608   4.943   3.498 -0.8309  0.2406  0.1608
  386MOL0     O50850   5.569   4.974   3.368 -0.8493  0.6391  0.3323
  386MOL0     C50851   5.442   4.979   3.331  0.1619  0.9196 -1.3223
  386MOL0     C50852   5.393   5.098   3.287  0.2770 -0.0272 -0.2979
  386MOL0     C50853   5.269   5.114   3.234  0.1355  0.0744 -0.7095
  386MOL0     C50854   5.194   4.997   3.211 -0.3702 -0.0212 -0.0895
  386MOL0     O50855   5.075   5.003   3.145  0.3337  0.0897 -0.2050
  386MOL0     C50856   5.056   4.922   3.030  0.4560 -0.3818  0.0670
  386MOL0     C50857   4.926   4.850   3.021 -0.4433 -0.4245 -0.2384
  386MOL0     C50858   4.805   4.944   2.990 -0.4158  0.0820 -0.0632
  386MOL0     C50859   4.684   4.854   2.964 -0.3574 -0.6934 -0.3361
  386MOL0     C50860   4.582   4.908   2.865 -0.2669  0.9521  0.1937
  386MOL0     C50861   4.520   5.043   2.894 -0.2738  0.5992 -0.4038
  386MOL0     C50862   4.394   5.065   2.806  1.3107 -0.4610  0.1774
  386MOL0     C50863   4.431   5.147   2.686 -0.6263 -0.0946  0.1564
  386MOL0    Cl50864   4.274   5.207   2.627  0.2864  0.0504  0.3900
  386MOL0     C50865   5.241   4.873   3.254 -0.2433  0.5481  0.2421
  386MOL0     C50866   5.362   4.861   3.324 -0.2914 -0.4564  1.7915
  386MOL0     O50867   5.537   4.932   3.592 -0.8796 -0.7535 -0.2919
  386MOL0     C50868   5.799   4.923   3.653 -0.1102 -0.3955 -0.4399
  386MOL0     C50869   5.932   4.917   3.685 -0.4810  0.6321 -0.1279
  386MOL0     N50870   6.450   5.217   3.894 -0.2524 -0.0107 -0.0296
  386MOL0     N50871   6.539   5.233   3.982  0.2439  0.4273 -0.5199
  386MOL0     C50872   7.842   5.104   3.987 -0.2463  0.1230 -0.2828
  386MOL0     C50873   7.962   5.066   4.044  0.1216 -0.6557 -0.7937
  386MOL0     C50874   8.239   4.923   4.376  0.5575  0.7410 -0.3981
  386MOL0     C50875   8.239   4.815   4.467  0.2653  0.6745  0.5784
  386MOL0     C50876   8.358   4.778   4.537  0.2394  0.0453 -0.7184
  386MOL0     C50877   8.475   4.842   4.524 -0.1395  0.1660 -0.2414
  386MOL0     O50878   8.578   4.801   4.607 -0.1936 -0.4984 -0.0706
  386MOL0     C50879   8.710   4.860   4.585  0.0508  0.2872 -0.0194
  386MOL0     C50880   8.821   4.770   4.641 -0.3059  0.2702 -0.1626
  386MOL0     C50881   8.887   4.684   4.536 -0.1833 -0.2577  0.1519
  386MOL0     C50882   8.978   4.574   4.609  0.1282 -1.2401 -0.6267
  386MOL0     C50883   8.900   4.457   4.645  0.0468 -0.8953 -0.5921
  386MOL0     C50884   8.846   4.349   4.657 -0.3158  0.9948 -0.3000
  386MOL0     C50885   8.477   4.951   4.440 -0.5661 -0.5024 -1.1392
  386MOL0     C50886   8.369   4.990   4.359  0.0286  0.2379  0.3824
  386MOL0     H50887   7.969   5.266   4.312 -1.1557 -0.4018  0.6508
  386MOL0     H50888   7.744   5.317   4.230  2.7535 -2.1289  4.0009
  386MOL0     H50889   7.615   5.104   3.856  1.2708 -0.2990  2.8548
  386MOL0     H50890   7.608   5.279   3.811  1.2413 -0.3121  0.7811
  386MOL0     H50891   7.410   5.175   3.998 -1.5987 -1.6964 -0.6493
  386MOL0     H50892   7.367   5.197   3.814  2.4243  0.2453 -1.2989
  386MOL0     H50893   7.390   5.417   3.819 -0.2057  0.4093  0.3114
  386MOL0     H50894   7.486   5.432   3.960 -0.0691  0.1897  0.6538
  386MOL0     H50895   7.301   5.357   4.099  1.4623 -0.5020  0.8223
  386MOL0     H50896   7.267   5.510   4.011  4.2266  0.4897 -1.4997
  386MOL0     H50897   7.153   5.231   3.936 -1.0166 -0.8123  1.1781
  386MOL0     H50898   7.150   5.384   3.839 -0.1013  0.4166  0.8257
  386MOL0     H50899   6.995   5.483   3.983 -3.2886 -0.3334  0.7074
  386MOL0     H50900   7.027   5.369   4.120 -2.3061 -1.0808  0.3656
  386MOL0     H50901   6.910   5.285   3.846 -0.4454 -1.6797 -0.0025
  386MOL0     H50902   6.904   5.193   4.000 -0.0298 -0.0467  0.7699
  386MOL0     H50903   6.750   5.450   3.989  1.3099  0.2001 -1.8169
  386MOL0     H50904   6.749   5.314   4.103 -1.3275 -3.5976 -0.9979
  386MOL0     H50905   6.712   5.302   3.726 -0.9573  1.5788 -1.3637
  386MOL0     H50906   6.508   5.212   3.545 -1.1267  0.8797 -0.4494
  386MOL0     H50907   6.354   5.220   3.623 -1.6247 -2.1585 -0.9433
  386MOL0     H50908   6.560   4.993   3.633  0.8463  1.8630 -0.7467
  386MOL0     H50909   6.422   4.982   3.526 -0.8508  1.2569 -0.9344
  386MOL0     H50910   6.377   4.850   3.738 -3.9498 -0.2841 -0.6867
  386MOL0     H50911   6.398   4.982   3.837 -0.7704  0.8860 -0.8067
  386MOL0     H50912   6.210   5.097   3.691 -1.6350 -0.3857 -1.1248
  386MOL0     H50913   6.165   4.977   3.802  1.9161 -0.9378  0.8590
  386MOL0     H50914   6.043   4.926   3.363 -1.5828 -0.8036 -1.2611
  386MOL0     H50915   5.825   4.945   3.311 -2.2562  2.4737  1.2271
  386MOL0     H50916   5.460   5.183   3.282 -0.2815  0.4261 -0.1583
  386MOL0     H50917   5.248   5.213   3.193 -0.1036 -0.1271 -1.0702
  386MOL0     H50918   5.138   4.852   3.010  1.8999  0.8248  1.5018
  386MOL0     H50919   5.047   4.986   2.942  1.6735  0.2547  0.3789
  386MOL0     H50920   4.917   4.787   3.111  1.0815  0.4362  0.5558
  386MOL0     H50921   4.932   4.783   2.935  0.9237 -1.7748  0.8598
  386MOL0     H50922   4.827   4.998   2.898 -1.8072 -0.3908 -0.7123
  386MOL0     H50923   4.790   5.018   3.069 -1.1011 -0.8094  0.6665
  386MOL0     H50924   4.716   4.759   2.921  0.4452 -0.1288 -1.0195
  386MOL0     H50925   4.631   4.838   3.059  1.6947 -0.4174  0.9174
  386MOL0     H50926   4.505   4.831   2.858  1.0504 -0.4796  1.0043
  386MOL0     H50927   4.633   4.908   2.768  0.2616  0.8259  0.4694
  386MOL0     H50928   4.591   5.126   2.883 -1.0636  1.4739  0.7780
  386MOL0     H50929   4.496   5.042   3.001 -2.2954  1.9279 -0.7706
  386MOL0     H50930   4.340   4.975   2.774  2.6635 -0.3057 -2.8688
  386MOL0     H50931   4.334   5.132   2.869 -1.9568 -0.5674 -2.5389
  386MOL0     H50932   4.487   5.083   2.617 -0.4655 -0.3566  0.5258
  386MOL0     H50933   4.490   5.237   2.709 -2.6277  1.7718 -1.5409
  386MOL0     H50934   5.179   4.786   3.233 -1.3546  1.8161 -2.0983
  386MOL0     H50935   5.417   4.773   3.355  4.2185  0.6390 -2.0401
  386MOL0     H50936   5.726   4.916   3.733 -0.9396 -1.3336 -1.2468
  386MOL0     H50937   5.969   4.909   3.786 -0.1258 -0.2678 -0.3220
  386MOL0     H50938   7.809   5.045   3.902 -2.3577  0.8324 -0.0079
  386MOL0     H50939   8.033   4.996   4.001 -0.8112 -1.6434 -0.7760
  386MOL0     H50940   8.140   4.772   4.479 -0.1225 -0.7984 -4.8710
  386MOL0     H50941   8.362   4.700   4.613 -0.6054 -1.0582 -1.7454
  386MOL0     H50942   8.712   4.958   4.634 -2.6908 -0.4216  1.7112
  386MOL0     H50943   8.737   4.893   4.484 -1.5104  0.6515 -0.3417
  386MOL0     H50944   8.903   4.833   4.676  1.0470 -1.8879  0.8083
  386MOL0     H50945   8.785   4.699   4.716  0.5089 -0.6031 -0.5605
  386MOL0     H50946   8.964   4.738   4.480 -0.8620 -0.1299 -0.6957
  386MOL0     H50947   8.815   4.642   4.464 -1.0111 -0.8072  1.2743
  386MOL0     H50948   9.060   4.548   4.541 -1.1122  0.5318 -2.9482
  386MOL0     H50949   9.034   4.616   4.693  0.3127 -0.7043 -1.0125
  386MOL0     H50950   8.811   4.249   4.672 -1.2795  1.4553  0.6007
  386MOL0     H50951   8.559   5.021   4.430 -1.1159  0.1956 -0.8152
  386MOL0     H50952   8.385   5.072   4.291  3.5931 -0.4112  0.2523
  387MOL0     O50953   2.438   5.111  10.499 -0.1451  0.1821  0.5673
  387MOL0     C50954   2.440   4.987  10.527 -0.1841 -0.3813 -0.4110
  387MOL0     O50955   2.332   4.903  10.549  0.6426  0.0140  0.5867
  387MOL0     C50956   2.212   4.948  10.538 -0.0008  0.7204  0.1620
  387MOL0     C50957   2.164   4.983  10.411  0.6816 -0.5133  0.2029
  387MOL0     C50958   2.032   5.039  10.408  0.0617 -0.2610 -0.6716
  387MOL0     C50959   1.946   5.036  10.517 -0.6478 -0.2535 -0.3886
  387MOL0     O50960   1.818   5.081  10.504 -0.1894 -0.2870 -0.2371
  387MOL0     C50961   1.719   5.022  10.593 -0.1221 -0.1058 -0.1169
  387MOL0     C50962   1.672   5.130  10.703  0.5336  0.0938 -0.2547
  387MOL0     C50963   1.539   5.068  10.761 -0.4943  1.0852  0.6413
  387MOL0     C50964   1.485   5.153  10.878 -0.2964 -0.7522 -0.3479
  387MOL0     C50965   1.370   5.094  10.959 -0.6776  0.2469  1.2772
  387MOL0     C50966   1.226   5.112  10.908 -0.0193 -0.5771  0.2335
  387MOL0     C50967   1.165   5.248  10.948 -0.6147  0.2143  1.1174
  387MOL0     C50968   1.084   5.243  11.081 -0.4654 -0.0471  0.3820
  387MOL0     N50969   0.951   5.182  11.066  0.0801  0.9054 -1.5443
  387MOL0     C50970   0.857   5.222  10.980  0.8308 -0.2976  0.1526
  387MOL0     C50971   0.763   5.131  10.993 -0.1788  0.2653  0.2880
  387MOL0     C50972   0.634   5.133  10.914  0.1838  0.6941  0.0477
  387MOL0     C50973   0.519   5.196  10.981  0.8869 -0.0451 -0.2381
  387MOL0     C50974   0.475   5.116  11.110 -0.1364  0.1329 -0.2583
  387MOL0     C50975   0.325   5.100  11.128  0.3476 -0.3116  0.0027
  387MOL0     O50976   0.260   5.229  11.109 -0.1205  0.0735 -0.6232
  387MOL0     C50977   0.130   5.232  11.132 -0.4413 -0.2955  0.0327
  387MOL0     C50978   0.055   5.149  11.212 -0.0549 -0.1188  0.9487
  387MOL0     C50979  -0.075   5.178  11.242  0.1428 -0.7016  0.6478
  387MOL0     C50980  -0.145   5.296  11.194  0.2961  0.2974 -0.1047
  387MOL0     C50981  -0.278   5.338  11.239 -0.4481  0.2541 -0.2114
  387MOL0     O50982  -0.330   5.278  11.353 -0.1996 -0.1678 -0.9134
  387MOL0     C50983  -0.467   5.306  11.391  0.1854 -0.4630  0.4727
  387MOL0     C50984  -0.504   5.334  11.522  0.2723 -0.3844 -1.2236
  387MOL0     C50985  -0.637   5.359  11.557  0.7153  0.0681 -0.5057
  387MOL0     C50986  -0.734   5.349  11.463  0.7055  0.6840  0.2430
  387MOL0     O50987  -0.868   5.368  11.482  0.3274  0.0913  0.4251
  387MOL0     C50988  -0.919   5.338  11.609  0.3195  1.0179 -0.3851
  387MOL0     C50989  -1.046   5.406  11.619 -0.5421 -0.4900  1.9268
  387MOL0     C50990  -1.159   5.322  11.535  0.5325 -0.8211 -0.9260
  387MOL0     C50991  -1.296   5.375  11.573 -0.2234 -0.8103 -0.1943
  387MOL0     C50992  -1.349   5.476  11.469 -0.6276  0.8598 -0.2992
  387MOL0     C50993  -1.485   5.540  11.512 -0.5168  0.2619  0.0187
  387MOL0     C50994  -1.606   5.467  11.457 -0.0208  0.5315 -0.2697
  387MOL0     C50995  -1.627   5.318  11.497 -0.2299 -1.1127  0.0597
  387MOL0    Cl50996  -1.771   5.270  11.413  0.2298 -0.3074 -0.0986
  387MOL0     C50997  -0.699   5.321  11.334 -0.5055 -0.3770 -0.5394
  387MOL0     C50998  -0.565   5.313  11.292  0.3308 -0.0906 -0.3905
  387MOL0     O50999  -0.332   5.432  11.175 -0.0339  0.7733 -0.0753
  387MOL0     C51000  -0.069   5.366  11.096  0.8068 -0.3934  0.9905
  387MOL0     C51001   0.066   5.341  11.070 -0.2030  0.2345 -0.3613
  387MOL0     N51002   0.799   5.030  11.080 -0.3633 -0.5886 -0.1145
  387MOL0     N51003   0.911   5.064  11.124  0.2039 -0.1599  0.3579
  387MOL0     C51004   1.993   4.995  10.640  0.1737  1.6822 -0.7653
  387MOL0     C51005   2.128   4.956  10.651 -0.3832 -0.1496 -0.4086
  387MOL0     C51006   2.576   4.932  10.520 -0.5086  1.1248 -1.0549
  387MOL0     C51007   2.595   4.795  10.511  0.1276 -0.1598  0.6666
  387MOL0     C51008   2.723   4.738  10.508 -0.7137 -0.6029  0.2283
  387MOL0     C51009   2.837   4.827  10.519  0.4006  0.5672  0.2533
  387MOL0     O51010   2.958   4.757  10.501 -0.3892 -0.4444 -0.3984
  387MOL0     C51011   3.077   4.830  10.494  0.4724  0.7750 -0.0010
  387MOL0     C51012   3.097   4.878  10.347 -0.0252  0.3667  0.2959
  387MOL0     C51013   3.211   4.979  10.354 -0.4610  0.3901  0.1462
  387MOL0     C51014   3.220   5.045  10.219  0.4446 -0.3730  0.9949
  387MOL0     C51015   3.277   4.949  10.122 -0.5725  0.0726 -0.0344
  387MOL0     C51016   3.327   4.860  10.061  0.0196 -0.6685  0.5207
  387MOL0     C51017   2.818   4.960  10.533 -0.8460  0.3771 -0.6665
  387MOL0     C51018   2.694   5.014  10.526 -0.1725 -0.1721 -0.9779
  387MOL0     H51019   2.236   4.997  10.331  1.1304 -0.5653  0.5933
  387MOL0     H51020   1.995   5.075  10.312 -2.1593  2.2211  0.9848
  387MOL0     H51021   1.743   4.924  10.637  0.4579  0.1827  0.2226
  387MOL0     H51022   1.631   5.018  10.529 -0.7673  0.6198  0.7114
  387MOL0     H51023   1.635   5.218  10.649 -1.2961 -0.1005  0.6022
  387MOL0     H51024   1.756   5.152  10.770  1.7432 -0.0465 -1.6822
  387MOL0     H51025   1.559   4.962  10.779  0.8035  0.8162 -1.8198
  387MOL0     H51026   1.460   5.063  10.686 -1.5839  1.9273  1.7099
  387MOL0     H51027   1.573   5.183  10.936 -0.6178  0.9893 -0.7208
  387MOL0     H51028   1.446   5.236  10.819  0.6198 -1.3451 -1.8385
  387MOL0     H51029   1.380   5.130  11.062 -0.6985 -0.2974  1.4684
  387MOL0     H51030   1.388   4.986  10.959  0.5217  0.4061 -0.1391
  387MOL0     H51031   1.157   5.036  10.946 -0.7729 -1.6416 -2.9417
  387MOL0     H51032   1.219   5.104  10.799 -2.2800  1.9306  0.0771
  387MOL0     H51033   1.249   5.315  10.964  1.8101 -2.2950 -0.2975
  387MOL0     H51034   1.094   5.273  10.869 -0.3026 -0.3422  0.6503
  387MOL0     H51035   1.065   5.345  11.115  0.7842  0.4823 -0.4255
  387MOL0     H51036   1.141   5.185  11.153 -2.6594 -2.5898  0.2560
  387MOL0     H51037   0.855   5.310  10.918 -1.5936  2.5712  3.8683
  387MOL0     H51038   0.613   5.028  10.893 -0.3948  0.6567  0.7592
  387MOL0     H51039   0.650   5.185  10.819  2.8052  0.0975  0.0933
  387MOL0     H51040   0.436   5.196  10.910  0.6897  0.8230 -0.0119
  387MOL0     H51041   0.539   5.302  10.997 -2.9452  0.8846 -0.8012
  387MOL0     H51042   0.511   5.013  11.105 -1.5771 -0.5199  1.5505
  387MOL0     H51043   0.520   5.158  11.200  0.1603  0.2361 -0.4538
  387MOL0     H51044   0.304   5.071  11.231 -0.6979 -3.1485 -0.8947
  387MOL0     H51045   0.291   5.015  11.068  1.2841 -1.4427  1.0248
  387MOL0     H51046   0.104   5.065  11.261  0.3651 -0.8288 -0.6228
  387MOL0     H51047  -0.123   5.130  11.327 -0.6652  0.4806  0.8962
  387MOL0     H51048  -0.426   5.333  11.598 -0.3614 -1.1490 -0.5758
  387MOL0     H51049  -0.667   5.391  11.656 -0.7441 -3.5635  0.4021
  387MOL0     H51050  -0.853   5.368  11.691  1.1007  1.7560 -1.2704
  387MOL0     H51051  -0.924   5.229  11.625  0.7580  1.1967  1.1759
  387MOL0     H51052  -1.033   5.506  11.576  1.6126 -1.4599  0.1354
  387MOL0     H51053  -1.068   5.405  11.726 -0.0044 -0.4408  2.0399
  387MOL0     H51054  -1.158   5.215  11.558  0.1371 -0.9762 -1.6071
  387MOL0     H51055  -1.143   5.337  11.428  2.0275 -2.1279 -0.9238
  387MOL0     H51056  -1.365   5.292  11.587 -2.9867  1.4010  0.2958
  387MOL0     H51057  -1.293   5.436  11.664  1.0687 -1.8905  0.5205
  387MOL0     H51058  -1.362   5.418  11.377 -0.9122  0.3619  0.0558
  387MOL0     H51059  -1.284   5.562  11.449 -0.9936  1.2936  0.3151
  387MOL0     H51060  -1.493   5.639  11.467 -0.9207 -1.2739 -3.7082
  387MOL0     H51061  -1.482   5.551  11.621 -0.2886  0.4822 -0.0102
  387MOL0     H51062  -1.697   5.527  11.467 -0.3456  0.0249 -0.1672
  387MOL0     H51063  -1.578   5.467  11.352  1.3158  0.6956  0.0682
  387MOL0     H51064  -1.637   5.285  11.600 -2.2666 -3.0243 -0.6538
  387MOL0     H51065  -1.548   5.252  11.458  0.0245 -2.0068  1.9871
  387MOL0     H51066  -0.773   5.336  11.255  1.6037  2.8593 -2.1325
  387MOL0     H51067  -0.552   5.314  11.184 -0.1489  1.7154 -0.4763
  387MOL0     H51068  -0.119   5.455  11.058 -1.0888 -1.6013  0.4845
  387MOL0     H51069   0.106   5.402  10.990  0.4917 -0.2196 -0.3731
  387MOL0     H51070   1.937   5.004  10.732  0.8052 -0.1482 -0.1651
  387MOL0     H51071   2.170   4.949  10.751 -2.4295  3.0646  0.8586
  387MOL0     H51072   2.507   4.732  10.524 -0.3577 -0.1722 -2.0732
  387MOL0     H51073   2.735   4.631  10.492  2.9437 -0.2924  0.0005
  387MOL0     H51074   3.159   4.763  10.524 -0.9687 -0.3883  1.5135
  387MOL0     H51075   3.091   4.911  10.566  2.0999  0.0489  0.5477
  387MOL0     H51076   3.116   4.793  10.280 -1.0634  0.8528 -0.6409
  387MOL0     H51077   3.006   4.931  10.319  0.2194 -0.2681 -1.8958
  387MOL0     H51078   3.300   4.926  10.389 -1.2935  0.0204  1.8577
  387MOL0     H51079   3.197   5.054  10.432  0.5521  0.8068 -0.0596
  387MOL0     H51080   3.128   5.091  10.182  0.5091 -1.5344 -0.6980
  387MOL0     H51081   3.285   5.132  10.217 -0.0355  0.0327 -2.3251
  387MOL0     H51082   3.362   4.770  10.013  0.0920 -0.5006  0.2607
  387MOL0     H51083   2.898   5.033  10.541 -0.2065 -0.0835 -2.3669
  387MOL0     H51084   2.696   5.119  10.554  1.1966 -0.1390 -1.1167
  388MOL0     O51085   7.471  10.946   4.172  0.2581 -0.8493 -0.1629
  388MOL0     C51086   7.496  11.015   4.078  0.0702  0.5136  0.3532
  388MOL0     O51087   7.407  11.052   3.979 -0.3639 -0.0515  0.6043
  388MOL0     C51088   7.272  11.036   4.001 -0.0373  0.2061 -0.3796
  388MOL0     C51089   7.185  11.010   3.891 -0.1790 -0.1929 -0.0678
  388MOL0     C51090   7.051  11.002   3.911  0.6769 -0.5648  0.0737
  388MOL0     C51091   6.984  11.042   4.033 -0.9510  0.6555  0.3340
  388MOL0     O51092   6.851  11.054   4.058  0.3013 -0.0172 -0.4263
  388MOL0     C51093   6.768  11.087   3.950  0.3899  1.2992  0.7763
  388MOL0     C51094   6.615  11.080   3.970 -0.1736 -0.2541 -1.2481
  388MOL0     C51095   6.567  10.942   3.985 -1.0259 -0.9967  0.7410
  388MOL0     C51096   6.420  10.920   3.990  0.1113 -0.4834 -0.2902
  388MOL0     C51097   6.362  10.778   3.971 -0.0089  0.5449 -0.4821
  388MOL0     C51098   6.215  10.768   4.014 -0.1164  0.4104 -0.4730
  388MOL0     C51099   6.176  10.620   4.040  0.3064  0.3185  0.0897
  388MOL0     C51100   6.067  10.621   4.149 -0.4153 -0.1804  0.5055
  388MOL0     N51101   5.995  10.497   4.172 -0.4231  0.0525 -0.4869
  388MOL0     C51102   5.885  10.454   4.110 -0.6573  0.5069 -0.1421
  388MOL0     C51103   5.865  10.331   4.160  1.5310  0.0164  0.4703
  388MOL0     C51104   5.767  10.223   4.125 -0.2708 -0.1587  0.3192
  388MOL0     C51105   5.666  10.246   4.237  0.4975  0.5180 -0.0766
  388MOL0     C51106   5.523  10.193   4.187 -0.4482  0.4772  0.6055
  388MOL0     C51107   5.509  10.052   4.129  0.2709 -0.3694 -0.0102
  388MOL0     O51108   5.366  10.025   4.112 -0.3375 -0.3602 -0.7033
  388MOL0     C51109   5.323   9.894   4.104 -0.3170  0.1060  0.2215
  388MOL0     C51110   5.191   9.887   4.073  0.3958  0.1277 -0.2360
  388MOL0     C51111   5.123   9.765   4.071 -0.1095 -0.7666 -0.4177
  388MOL0     C51112   5.188   9.648   4.101 -0.0293 -0.4079  0.7536
  388MOL0     C51113   5.106   9.523   4.094 -0.5669  0.1209 -0.4828
  388MOL0     O51114   4.992   9.522   4.016  0.0707 -0.1944 -0.4673
  388MOL0     C51115   4.930   9.400   3.995  0.2397  0.1912 -0.5920
  388MOL0     C51116   4.990   9.289   3.942 -0.0541 -0.3470  0.2265
  388MOL0     C51117   4.906   9.180   3.905 -0.3666 -0.6010  0.0220
  388MOL0     C51118   4.765   9.185   3.909 -0.5988 -0.2174 -0.3124
  388MOL0     O51119   4.685   9.083   3.857 -0.6092 -0.3761 -0.1745
  388MOL0     C51120   4.541   9.087   3.884 -1.0988 -0.5107 -0.0600
  388MOL0     C51121   4.470   8.953   3.854 -0.2289  0.6548 -0.6668
  388MOL0     C51122   4.467   8.940   3.706  0.5480 -0.1185  0.2487
  388MOL0     C51123   4.390   8.819   3.668  0.8085  0.0510 -0.2680
  388MOL0     C51124   4.251   8.854   3.606  0.4019  0.4422  0.3215
  388MOL0     C51125   4.152   8.891   3.707  0.0912  0.2425 -0.0844
  388MOL0     C51126   4.010   8.887   3.646 -0.3937 -0.3105  0.3096
  388MOL0     C51127   3.911   8.951   3.743  0.0489 -0.7388 -1.1604
  388MOL0    Cl51128   3.755   8.975   3.655  0.5392  0.1393  0.1508
  388MOL0     C51129   4.712   9.296   3.976 -0.1653 -0.7447  0.6345
  388MOL0     C51130   4.793   9.398   4.016  0.3476 -0.3139  0.1527
  388MOL0     O51131   5.147   9.432   4.169 -0.5526 -0.4730 -0.1783
  388MOL0     C51132   5.324   9.657   4.133 -0.4372 -0.4173 -0.0501
  388MOL0     C51133   5.396   9.777   4.133  0.5042  0.2970 -0.0165
  388MOL0     N51134   5.942  10.326   4.267  0.4017 -0.1806 -0.3722
  388MOL0     N51135   6.030  10.418   4.276  0.0908  0.5615  0.2030
  388MOL0     C51136   7.069  11.063   4.147 -1.3238  0.8980 -1.0899
  388MOL0     C51137   7.207  11.069   4.122 -0.3070 -0.2146  0.5741
  388MOL0     C51138   7.633  11.013   4.042 -0.3456 -0.5004  0.0376
  388MOL0     C51139   7.743  10.979   4.121 -0.2330  0.5457  0.2941
  388MOL0     C51140   7.874  10.975   4.076  0.1260 -0.6969 -0.1723
  388MOL0     C51141   7.905  11.005   3.938  0.1156 -0.7229 -0.1009
  388MOL0     O51142   8.038  10.989   3.892  0.4849  0.3235 -0.6506
  388MOL0     C51143   8.090  11.095   3.819 -0.8964 -0.3245 -0.7874
  388MOL0     C51144   8.126  11.031   3.685  0.4183  0.2228  0.1712
  388MOL0     C51145   8.158  11.133   3.577  0.5944  0.1104  0.6385
  388MOL0     C51146   8.304  11.131   3.525 -0.1463 -0.1146 -0.3919
  388MOL0     C51147   8.384  11.168   3.645 -0.6901  0.2461  0.0744
  388MOL0     C51148   8.443  11.219   3.739  0.7699 -0.0718 -0.4711
  388MOL0     C51149   7.808  11.041   3.845  1.0636  0.1575 -0.2195
  388MOL0     C51150   7.673  11.047   3.903 -1.0081  1.8235  0.4080
  388MOL0     H51151   7.233  11.010   3.794  3.1201 -1.7774  1.3959
  388MOL0     H51152   6.985  10.989   3.825  2.3485 -1.5391 -1.1122
  388MOL0     H51153   6.778  11.036   3.854 -0.3770 -2.1464  2.3855
  388MOL0     H51154   6.785  11.192   3.921 -0.4788  1.5632  1.1966
  388MOL0     H51155   6.563  11.124   3.885 -3.4625 -2.0709 -0.3446
  388MOL0     H51156   6.578  11.134   4.058 -1.6634 -0.8323 -1.4818
  388MOL0     H51157   6.615  10.894   4.070  1.6300  1.4872  0.7801
  388MOL0     H51158   6.601  10.893   3.893 -1.1370  0.2088  0.0388
  388MOL0     H51159   6.395  10.944   4.094 -1.0656 -1.9369 -0.2033
  388MOL0     H51160   6.370  10.989   3.922  0.3243 -0.1323 -0.0972
  388MOL0     H51161   6.436  10.711   4.016  0.4989 -0.5103 -2.7810
  388MOL0     H51162   6.371  10.756   3.865 -1.0629 -2.8703  0.0117
  388MOL0     H51163   6.155  10.803   3.929 -1.9937  0.8259  0.9601
  388MOL0     H51164   6.197  10.831   4.102  0.7264 -2.6819  2.0829
  388MOL0     H51165   6.133  10.582   3.946 -0.2052 -2.4121  1.3221
  388MOL0     H51166   6.267  10.565   4.066  0.5261  0.5213 -0.2469
  388MOL0     H51167   5.987  10.690   4.121 -0.2249  1.9829  4.5313
  388MOL0     H51168   6.105  10.651   4.247  2.5009  1.1791 -0.9250
  388MOL0     H51169   5.838  10.499   4.023 -0.2845  0.0496 -0.5886
  388MOL0     H51170   5.807  10.121   4.126  0.9417  0.1977 -2.3808
  388MOL0     H51171   5.738  10.241   4.021 -0.4271 -4.6401 -0.6286
  388MOL0     H51172   5.651  10.349   4.269 -2.7593  1.2149 -3.2187
  388MOL0     H51173   5.709  10.197   4.325  1.6464 -0.4766 -1.1437
  388MOL0     H51174   5.453  10.196   4.271  0.1909  1.3108  1.1246
  388MOL0     H51175   5.493  10.263   4.108  1.1661  0.3536 -0.1638
  388MOL0     H51176   5.552   9.984   4.203  1.8063 -0.9344 -1.3700
  388MOL0     H51177   5.560  10.036   4.034 -0.6447 -1.6937 -0.3176
  388MOL0     H51178   5.132   9.978   4.060 -0.9979 -0.8665 -1.2074
  388MOL0     H51179   5.018   9.771   4.044 -0.1858  1.7099  0.1817
  388MOL0     H51180   5.098   9.286   3.936 -0.0768 -2.8877  0.0398
  388MOL0     H51181   4.963   9.098   3.861  0.6776 -0.0608  0.3495
  388MOL0     H51182   4.491   9.164   3.824  0.1829 -0.1824 -0.7523
  388MOL0     H51183   4.516   9.111   3.988  0.6786 -1.0478  0.5217
  388MOL0     H51184   4.373   8.945   3.905  0.3065 -1.1779  0.1437
  388MOL0     H51185   4.524   8.871   3.901 -2.5486  0.5129  2.0207
  388MOL0     H51186   4.564   8.935   3.656 -0.2718  3.0575 -2.0282
  388MOL0     H51187   4.431   9.030   3.654  2.7245 -0.0870 -1.3314
  388MOL0     H51188   4.445   8.775   3.584  2.4411  0.9487  0.2801
  388MOL0     H51189   4.392   8.738   3.741 -3.7283 -0.2055 -0.1212
  388MOL0     H51190   4.220   8.763   3.553  2.3369 -1.0156  1.5373
  388MOL0     H51191   4.258   8.931   3.528  0.1238  1.1230  0.9626
  388MOL0     H51192   4.180   8.990   3.745  0.6251  0.6174 -1.3982
  388MOL0     H51193   4.153   8.816   3.787 -0.2438  1.4653  1.1211
  388MOL0     H51194   3.996   8.950   3.557  0.6793  1.8037  1.5448
  388MOL0     H51195   3.988   8.782   3.629  1.2647 -0.9955  2.0683
  388MOL0     H51196   3.950   9.044   3.787  0.3433 -2.2620  2.1563
  388MOL0     H51197   3.911   8.893   3.836 -0.1013  0.2651 -0.5170
  388MOL0     H51198   4.607   9.309   4.001  0.0716  0.9383  0.8753
  388MOL0     H51199   4.736   9.472   4.071 -1.7380 -1.1685 -0.7484
  388MOL0     H51200   5.387   9.570   4.153  2.5188  1.3137 -1.2367
  388MOL0     H51201   5.503   9.765   4.147  0.2867 -2.0083 -0.0064
  388MOL0     H51202   7.035  11.091   4.246 -1.3613 -1.3872 -0.4167
  388MOL0     H51203   7.273  11.114   4.196  0.5476 -3.2097  1.7871
  388MOL0     H51204   7.721  10.947   4.223 -0.9669  0.1035  0.0008
  388MOL0     H51205   7.949  10.944   4.148 -1.2469 -0.4506  1.4200
  388MOL0     H51206   8.178  11.135   3.869 -2.8026  0.6545  2.0055
  388MOL0     H51207   8.023  11.180   3.805 -2.3122 -1.4889 -1.4315
  388MOL0     H51208   8.204  10.954   3.691 -0.9192 -1.0560  2.7235
  388MOL0     H51209   8.030  10.985   3.662 -1.3418 -0.6324  7.1150
  388MOL0     H51210   8.146  11.235   3.616  2.2776  0.3293  0.6698
  388MOL0     H51211   8.107  11.120   3.481  0.1814 -1.2855  1.0334
  388MOL0     H51212   8.339  11.042   3.472 -0.5597  0.6204 -1.9539
  388MOL0     H51213   8.319  11.222   3.466 -5.2595  0.3349 -1.4258
  388MOL0     H51214   8.500  11.258   3.821 -1.6774 -0.7100  1.6901
  388MOL0     H51215   7.838  11.073   3.746  0.8114  4.2704  0.8090
  388MOL0     H51216   7.592  11.081   3.840 -3.3812  2.1688  3.4340
  389MOL0     O51217   6.047   6.854   4.196 -0.0452  0.3151 -0.2368
  389MOL0     C51218   6.047   6.928   4.293 -0.2938 -1.0986 -0.3844
  389MOL0     O51219   5.943   6.971   4.363 -0.1993 -0.2885 -0.2621
  389MOL0     C51220   5.822   6.908   4.370  0.4582  0.1415 -0.5755
  389MOL0     C51221   5.815   6.768   4.357  0.1767 -0.3036  0.1155
  389MOL0     C51222   5.693   6.702   4.374  0.2731 -0.4551  0.9705
  389MOL0     C51223   5.586   6.776   4.422  1.0272 -0.3708 -0.0217
  389MOL0     O51224   5.470   6.709   4.449 -0.5930 -0.0865  0.4217
  389MOL0     C51225   5.453   6.577   4.390 -0.3926  0.6543  0.2987
  389MOL0     C51226   5.304   6.548   4.413 -0.9886  0.5856 -0.1893
  389MOL0     C51227   5.271   6.398   4.424  1.0429  0.1187 -0.2966
  389MOL0     C51228   5.119   6.366   4.414  0.2715  0.0145  0.3318
  389MOL0     C51229   5.104   6.214   4.404 -0.5471  0.1730  0.6418
  389MOL0     C51230   4.976   6.176   4.337  0.0724 -1.1613  0.0977
  389MOL0     C51231   4.855   6.201   4.420  0.0118 -0.5480 -0.2362
  389MOL0     C51232   4.721   6.172   4.357  0.6915  0.5712  0.5572
  389MOL0     N51233   4.673   6.042   4.410 -0.0081 -0.7753  0.4354
  389MOL0     C51234   4.601   6.036   4.526  1.4346 -0.3492 -0.0023
  389MOL0     C51235   4.531   5.921   4.520  0.4257  0.4249  0.5730
  389MOL0     C51236   4.442   5.860   4.624  0.6224  0.1429 -0.0400
  389MOL0     C51237   4.297   5.842   4.575 -1.5375 -0.7776 -0.4437
  389MOL0     C51238   4.234   5.979   4.544  0.5580 -0.9258 -0.1264
  389MOL0     C51239   4.095   5.960   4.488  0.0026  0.6119 -0.5801
  389MOL0     O51240   4.057   6.085   4.427  0.2683  0.0628  0.8341
  389MOL0     C51241   3.932   6.094   4.365  0.1354 -0.1586 -0.3115
  389MOL0     C51242   3.836   5.992   4.374 -0.3317  0.3710  0.1716
  389MOL0     C51243   3.723   6.009   4.301  0.1236 -0.3812  0.3994
  389MOL0     C51244   3.700   6.121   4.220  0.5071  0.0753 -0.0418
  389MOL0     C51245   3.565   6.124   4.146 -0.5123  1.1009  1.1416
  389MOL0     O51246   3.484   6.022   4.169  0.1554 -0.5489  0.2496
  389MOL0     C51247   3.354   6.038   4.135  0.5271  0.0971 -0.2452
  389MOL0     C51248   3.308   5.957   4.038  0.7838  0.7663 -0.3723
  389MOL0     C51249   3.169   5.959   4.010  0.2365  0.3076 -0.8376
  389MOL0     C51250   3.073   6.033   4.077  0.4969 -0.4653  0.2027
  389MOL0     O51251   2.946   6.017   4.029  0.2034  0.4486  0.0661
  389MOL0     C51252   2.857   6.116   4.067 -0.3260 -0.2261 -0.9274
  389MOL0     C51253   2.730   6.108   3.983 -0.1983  0.6183  0.1807
  389MOL0     C51254   2.613   6.168   4.059 -0.1366 -1.1579 -0.4141
  389MOL0     C51255   2.486   6.175   3.976  0.7031  0.0729 -0.8146
  389MOL0     C51256   2.366   6.180   4.066  0.1299 -1.4538 -0.0870
  389MOL0     C51257   2.244   6.217   3.982 -0.1438 -0.1047 -0.0919
  389MOL0     C51258   2.122   6.179   4.065  0.1790  0.2840 -0.3195
  389MOL0     C51259   1.989   6.230   4.013  0.0861 -0.5942 -0.4135
  389MOL0    Cl51260   1.843   6.131   4.085 -0.1196 -0.0814 -0.3120
  389MOL0     C51261   3.125   6.128   4.169 -0.7358 -0.2536 -0.1258
  389MOL0     C51262   3.266   6.131   4.203  0.3669  0.0231  1.0791
  389MOL0     O51263   3.541   6.221   4.075  0.3774 -0.6369  0.1813
  389MOL0     C51264   3.795   6.223   4.219  0.2146 -0.3047 -0.1866
  389MOL0     C51265   3.905   6.210   4.298 -0.2659 -0.5556  0.6273
  389MOL0     N51266   4.578   5.854   4.414  0.0122  0.4030  0.1357
  389MOL0     N51267   4.658   5.930   4.342  0.0576  0.0806 -0.0720
  389MOL0     C51268   5.592   6.915   4.434  0.0928 -0.4723  0.3126
  389MOL0     C51269   5.709   6.983   4.407  0.3937  0.1370 -0.0501
  389MOL0     C51270   6.175   6.978   4.336 -1.1721 -0.1116 -0.2658
  389MOL0     C51271   6.192   7.091   4.404 -0.1720 -0.1173 -0.0827
  389MOL0     C51272   6.317   7.138   4.451 -0.6002 -0.6062  0.7182
  389MOL0     C51273   6.427   7.056   4.439 -0.6729 -0.0467 -0.7549
  389MOL0     O51274   6.550   7.085   4.498  0.5415  0.3810 -0.1343
  389MOL0     C51275   6.612   7.199   4.429 -0.0881  0.2637  0.2623
  389MOL0     C51276   6.718   7.143   4.327 -0.4002 -0.3227  0.0872
  389MOL0     C51277   6.839   7.089   4.408  0.5943  0.2550 -0.3501
  389MOL0     C51278   6.966   7.074   4.324 -0.3839  0.7277  0.1782
  389MOL0     C51279   6.956   6.967   4.222 -0.2351  0.2305  0.9975
  389MOL0     C51280   6.927   6.883   4.135 -0.6384 -0.5351  0.0009
  389MOL0     C51281   6.417   6.938   4.371 -0.1510  1.0165  0.0191
  389MOL0     C51282   6.292   6.898   4.317 -0.1873 -0.1592  0.0270
  389MOL0     H51283   5.904   6.710   4.333 -0.2222 -1.3147  1.0355
  389MOL0     H51284   5.682   6.595   4.389 -1.0622 -0.1770  2.1882
  389MOL0     H51285   5.521   6.514   4.447  0.0786  2.3786  1.7505
  389MOL0     H51286   5.475   6.569   4.284 -2.1838  1.5657 -0.1873
  389MOL0     H51287   5.248   6.603   4.337  0.1850  1.0901 -0.7158
  389MOL0     H51288   5.280   6.592   4.510  0.4267 -1.0428  0.9575
  389MOL0     H51289   5.310   6.371   4.523 -0.3177  0.7446  0.4446
  389MOL0     H51290   5.322   6.338   4.349 -0.9435  1.3817 -2.7908
  389MOL0     H51291   5.066   6.411   4.499 -0.2288 -0.3214  0.2101
  389MOL0     H51292   5.074   6.413   4.327  0.0876  2.0156  1.4502
  389MOL0     H51293   5.114   6.178   4.507  0.1029 -1.2422  0.1063
  389MOL0     H51294   5.183   6.166   4.346 -0.0466 -1.2552  2.4160
  389MOL0     H51295   4.982   6.068   4.316  1.6093 -1.0938  0.0427
  389MOL0     H51296   4.960   6.219   4.238 -4.5922  0.8478  1.4494
  389MOL0     H51297   4.865   6.148   4.516 -3.7241  0.9583  1.2151
  389MOL0     H51298   4.860   6.304   4.458 -0.7597 -0.5312 -0.1662
  389MOL0     H51299   4.716   6.186   4.249 -1.3217  3.1449  0.8933
  389MOL0     H51300   4.652   6.252   4.389 -0.6828 -0.5386  0.4531
  389MOL0     H51301   4.597   6.104   4.610  1.0839  2.6054 -2.2596
  389MOL0     H51302   4.440   5.926   4.710  1.0937  2.0068 -1.3989
  389MOL0     H51303   4.484   5.761   4.646  1.4449  0.1176 -1.6077
  389MOL0     H51304   4.236   5.799   4.656  0.5078  0.0256  1.6461
  389MOL0     H51305   4.291   5.770   4.493  0.0966 -1.4032 -0.0517
  389MOL0     H51306   4.234   6.038   4.636 -2.6159 -2.9624  1.3731
  389MOL0     H51307   4.300   6.028   4.472  2.2461  0.4616  2.2611
  389MOL0     H51308   4.033   5.926   4.571  0.4106 -1.9441 -1.2282
  389MOL0     H51309   4.086   5.883   4.410 -2.3840  2.0465 -1.8231
  389MOL0     H51310   3.849   5.911   4.445 -1.1747  1.1234  1.2131
  389MOL0     H51311   3.651   5.927   4.308 -0.9026  0.5308  0.8774
  389MOL0     H51312   3.383   5.899   3.985  0.5051 -1.3935  1.4649
  389MOL0     H51313   3.131   5.889   3.936 -0.8039  0.5529 -0.5522
  389MOL0     H51314   2.895   6.218   4.059  0.2743 -0.3323  0.4324
  389MOL0     H51315   2.837   6.089   4.171  1.6372 -0.8496 -0.6782
  389MOL0     H51316   2.711   6.000   3.974  2.3974 -0.0050  0.9893
  389MOL0     H51317   2.735   6.144   3.880 -1.1308 -0.2257 -0.1792
  389MOL0     H51318   2.636   6.267   4.100 -2.6895 -1.3164  1.6732
  389MOL0     H51319   2.592   6.113   4.150  0.3287 -0.1990  0.2959
  389MOL0     H51320   2.504   6.258   3.907  2.2497  2.5606  2.3039
  389MOL0     H51321   2.475   6.080   3.923  1.1722  0.1446 -1.0446
  389MOL0     H51322   2.383   6.267   4.129 -1.2747 -1.8058  0.8016
  389MOL0     H51323   2.351   6.091   4.127 -3.0414  0.2108  1.7694
  389MOL0     H51324   2.241   6.162   3.888 -1.8983  1.0980 -0.8005
  389MOL0     H51325   2.237   6.323   3.953  0.2798 -0.1848 -0.5025
  389MOL0     H51326   2.105   6.071   4.071 -2.5251  0.5332 -1.7556
  389MOL0     H51327   2.123   6.223   4.165 -0.0193 -1.6474  0.5741
  389MOL0     H51328   1.991   6.212   3.906 -1.5690  1.9791 -0.9494
  389MOL0     H51329   1.972   6.335   4.037 -1.3682 -0.8911 -0.0446
  389MOL0     H51330   3.067   6.199   4.228  0.3326  1.3453 -0.9251
  389MOL0     H51331   3.314   6.201   4.271  3.1587 -0.7559  0.0312
  389MOL0     H51332   3.779   6.302   4.147  0.5076  0.0764  0.1645
  389MOL0     H51333   3.976   6.292   4.294 -0.5118 -0.3373  0.7515
  389MOL0     H51334   5.507   6.970   4.474 -0.7672 -1.1289 -0.5496
  389MOL0     H51335   5.712   7.091   4.420  5.8564  0.3597 -0.7165
  389MOL0     H51336   6.106   7.154   4.422  0.4380  1.1807 -1.4935
  389MOL0     H51337   6.322   7.229   4.509 -2.6856 -0.2321  0.3858
  389MOL0     H51338   6.668   7.256   4.504 -0.6974 -1.7336  2.3309
  389MOL0     H51339   6.540   7.263   4.377  0.6154 -0.0918 -1.1842
  389MOL0     H51340   6.682   7.056   4.271 -3.0037 -0.1794  1.4094
  389MOL0     H51341   6.749   7.222   4.258 -1.1460 -0.2941 -0.2250
  389MOL0     H51342   6.818   6.997   4.464  0.5160 -0.5125 -1.5959
  389MOL0     H51343   6.866   7.168   4.479  2.7749  0.6662 -1.5525
  389MOL0     H51344   6.993   7.169   4.278 -0.7960  1.7774  2.0140
  389MOL0     H51345   7.057   7.049   4.380  0.7833  0.5317 -1.7014
  389MOL0     H51346   6.909   6.804   4.065  0.8785 -0.7062 -0.2257
  389MOL0     H51347   6.512   6.886   4.368 -2.0066 -2.6073 -0.6012
  389MOL0     H51348   6.286   6.813   4.250 -2.3250  1.6282 -2.2795
  390MOL0     O51349   9.381   8.335   5.207  0.0326  0.1032 -0.0018
  390MOL0     C51350   9.460   8.381   5.120 -0.5356  0.1760 -0.4632
  390MOL0     O51351   9.441   8.478   5.030  0.2604  0.2307 -0.7097
  390MOL0     C51352   9.311   8.532   5.011 -0.4386 -0.5184 -0.2284
  390MOL0     C51353   9.244   8.613   5.110 -0.3801  0.3337  0.3244
  390MOL0     C51354   9.116   8.658   5.071 -0.0557 -0.5853  0.0709
  390MOL0     C51355   9.059   8.640   4.942 -0.5991 -0.8281 -0.0241
  390MOL0     O51356   8.944   8.704   4.905 -0.1837 -0.3402  0.5538
  390MOL0     C51357   8.831   8.703   4.989 -0.6036 -0.6862 -0.0024
  390MOL0     C51358   8.709   8.786   4.919 -0.1870 -0.1208 -0.3760
  390MOL0     C51359   8.599   8.801   5.033  0.7963 -0.4814  0.9051
  390MOL0     C51360   8.493   8.912   5.004  0.1558  0.0289  0.4287
  390MOL0     C51361   8.411   8.883   4.874  0.2511 -0.7432  0.2328
  390MOL0     C51362   8.280   8.967   4.879 -0.2073 -0.6736  0.0955
  390MOL0     C51363   8.225   8.992   4.740 -0.2919  0.9993  0.0059
  390MOL0     C51364   8.314   9.087   4.654 -0.3850 -0.5833  0.5170
  390MOL0     N51365   8.304   9.224   4.705 -0.5373  0.0905  0.7313
  390MOL0     C51366   8.188   9.293   4.700  0.0597 -0.3432  0.0849
  390MOL0     C51367   8.212   9.409   4.766  0.0432  0.1967 -0.0858
  390MOL0     C51368   8.121   9.528   4.781  0.9175  0.8240 -0.0678
  390MOL0     C51369   7.980   9.518   4.717  0.7910  0.3751  0.4017
  390MOL0     C51370   7.890   9.627   4.781 -0.5468 -0.2375  0.2481
  390MOL0     C51371   7.740   9.616   4.739  0.8890  0.2437  0.8986
  390MOL0     O51372   7.657   9.682   4.838  0.0550  0.1789  0.2742
  390MOL0     C51373   7.520   9.669   4.836  0.4899 -0.0197 -0.5839
  390MOL0     C51374   7.455   9.547   4.857  0.4713 -0.3195 -0.3699
  390MOL0     C51375   7.321   9.538   4.866  0.4648 -0.0149 -0.3287
  390MOL0     C51376   7.233   9.657   4.871 -0.5404  0.5463 -0.5913
  390MOL0     C51377   7.088   9.642   4.903  0.5296  0.2902 -0.2601
  390MOL0     O51378   7.050   9.512   4.925  0.6299 -0.5951 -0.0474
  390MOL0     C51379   6.930   9.498   4.991 -0.7883 -0.1542 -0.0068
  390MOL0     C51380   6.898   9.532   5.129 -0.5337  0.1415  0.2991
  390MOL0     C51381   6.774   9.508   5.190 -0.1240  0.4204  0.2646
  390MOL0     C51382   6.679   9.445   5.114 -0.3475 -0.4749  0.1279
  390MOL0     O51383   6.554   9.417   5.157  0.1275  0.5216  0.5384
  390MOL0     C51384   6.515   9.444   5.288 -0.4947 -0.1644  0.2953
  390MOL0     C51385   6.445   9.578   5.312 -0.0555 -0.0123  0.5368
  390MOL0     C51386   6.317   9.589   5.224 -0.8265 -0.9224  0.7097
  390MOL0     C51387   6.217   9.695   5.260  0.1568  0.2521 -0.5465
  390MOL0     C51388   6.100   9.701   5.166 -0.3748  0.3693 -0.6748
  390MOL0     C51389   5.985   9.792   5.211  0.4463  0.1246  0.2035
  390MOL0     C51390   5.907   9.748   5.331  0.1827 -0.3587 -0.5892
  390MOL0     C51391   5.771   9.816   5.341  0.7274 -0.3328  0.4161
  390MOL0    Cl51392   5.782   9.979   5.395 -0.0041 -0.0208 -0.1679
  390MOL0     C51393   6.710   9.406   4.979 -0.0997 -0.1198  1.0366
  390MOL0     C51394   6.839   9.428   4.920  0.0177 -0.1688  0.0795
  390MOL0     O51395   7.025   9.747   4.931  0.0926  0.9871 -0.3212
  390MOL0     C51396   7.296   9.779   4.863 -0.4170  0.0684 -0.1704
  390MOL0     C51397   7.437   9.776   4.837 -0.2080  0.0667  0.3507
  390MOL0     N51398   8.350   9.414   4.801  0.3662 -0.8021  0.1489
  390MOL0     N51399   8.396   9.302   4.773 -0.3075 -0.0771  0.8196
  390MOL0     C51400   9.134   8.569   4.850  0.8752  0.1243 -0.2252
  390MOL0     C51401   9.253   8.502   4.892  0.3922  0.3135  0.2054
  390MOL0     C51402   9.596   8.305   5.103  0.1149 -0.4360 -0.0288
  390MOL0     C51403   9.675   8.336   4.990  0.2807 -0.1395 -0.5683
  390MOL0     C51404   9.798   8.284   4.977 -0.1300  0.4615 -0.0268
  390MOL0     C51405   9.843   8.192   5.066  0.3672 -0.0424 -0.8286
  390MOL0     O51406   9.966   8.144   5.046  0.0411  0.5565  0.0712
  390MOL0     C51407  10.049   8.072   5.150  0.5356  0.1079 -0.3534
  390MOL0     C51408  10.187   8.065   5.085 -0.7958 -1.4150 -0.6101
  390MOL0     C51409  10.279   7.958   5.138 -0.1837  0.1371  0.3877
  390MOL0     C51410  10.425   7.988   5.107 -0.2016 -0.4815  0.2286
  390MOL0     C51411  10.460   7.978   4.963  1.1014 -0.5039 -0.7395
  390MOL0     C51412  10.508   7.982   4.856  0.1791 -0.3219 -0.4292
  390MOL0     C51413   9.771   8.153   5.178 -0.3964 -0.2286  0.2686
  390MOL0     C51414   9.642   8.212   5.194 -0.5952 -0.0817  0.0414
  390MOL0     H51415   9.287   8.630   5.208  1.2414  0.5071 -0.3848
  390MOL0     H51416   9.053   8.713   5.139  1.2827  0.4401  0.5213
  390MOL0     H51417   8.862   8.757   5.079  0.7048  1.8366 -1.8466
  390MOL0     H51418   8.802   8.601   5.019 -2.0335  0.0378  1.2075
  390MOL0     H51419   8.673   8.727   4.834 -0.8112 -0.8940  0.3963
  390MOL0     H51420   8.741   8.883   4.880 -1.7683 -0.0579 -1.6043
  390MOL0     H51421   8.641   8.808   5.133 -0.3275 -1.2296  1.4504
  390MOL0     H51422   8.559   8.699   5.039 -0.4011  0.0236  1.6575
  390MOL0     H51423   8.418   8.905   5.083 -1.6889  1.8523 -1.0394
  390MOL0     H51424   8.528   9.016   5.009  0.9221 -0.2825  3.3857
  390MOL0     H51425   8.391   8.776   4.862  1.3622 -1.2681  2.5354
  390MOL0     H51426   8.474   8.906   4.788  0.7528 -1.9899  0.2485
  390MOL0     H51427   8.296   9.064   4.927  0.7156 -0.4739 -0.5868
  390MOL0     H51428   8.214   8.920   4.952  0.8400 -1.6905  0.4195
  390MOL0     H51429   8.223   8.898   4.684  0.4830  1.8464 -1.5002
  390MOL0     H51430   8.125   9.033   4.758 -1.2290 -0.3203 -1.9304
  390MOL0     H51431   8.283   9.081   4.550  1.1157 -1.4273  0.0976
  390MOL0     H51432   8.417   9.052   4.664  0.3783  1.7132  1.3122
  390MOL0     H51433   8.095   9.265   4.652 -0.4615  0.7255  0.4353
  390MOL0     H51434   8.155   9.610   4.717 -1.7009  2.1808  0.1595
  390MOL0     H51435   8.114   9.557   4.886  1.0053 -0.3623  0.2868
  390MOL0     H51436   7.944   9.417   4.737 -0.0152  0.1164 -2.0900
  390MOL0     H51437   7.981   9.527   4.608 -0.0337 -1.2166  0.2315
  390MOL0     H51438   7.887   9.610   4.889 -1.0990 -0.7705  0.1547
  390MOL0     H51439   7.919   9.731   4.761  1.6716 -1.1633 -1.8239
  390MOL0     H51440   7.711   9.511   4.729 -2.1121  1.1361 -1.5707
  390MOL0     H51441   7.728   9.661   4.640  3.8030 -2.4014 -0.8363
  390MOL0     H51442   7.500   9.451   4.881 -1.7631 -1.5205 -0.7540
  390MOL0     H51443   7.279   9.438   4.864 -0.0768  0.2241 -1.6505
  390MOL0     H51444   6.978   9.585   5.180 -0.6345  1.6333 -1.0194
  390MOL0     H51445   6.748   9.560   5.282 -1.5658  2.1381 -1.0208
  390MOL0     H51446   6.597   9.419   5.356  0.8501  2.0041 -0.4161
  390MOL0     H51447   6.434   9.374   5.311 -1.8832 -0.0521 -3.6164
  390MOL0     H51448   6.507   9.662   5.278 -2.5496  1.6289 -0.3115
  390MOL0     H51449   6.430   9.593   5.419  0.1393 -1.7854  0.8370
  390MOL0     H51450   6.270   9.491   5.218  1.9528 -2.3337  0.5054
  390MOL0     H51451   6.352   9.608   5.122 -0.7595  0.1192  0.9151
  390MOL0     H51452   6.182   9.675   5.362 -1.0572  3.3564 -0.2148
  390MOL0     H51453   6.258   9.797   5.256 -1.2451  0.8364 -0.8478
  390MOL0     H51454   6.064   9.602   5.136 -0.4438  1.1823 -3.5969
  390MOL0     H51455   6.129   9.762   5.080 -3.5186  1.7059 -0.9398
  390MOL0     H51456   5.909   9.801   5.134 -3.8477 -0.8336  3.9330
  390MOL0     H51457   6.016   9.895   5.230 -0.1855  0.0348  1.9329
  390MOL0     H51458   5.870   9.645   5.330 -1.9990  0.3657  0.6371
  390MOL0     H51459   5.970   9.780   5.415  0.2793 -1.4830 -0.2259
  390MOL0     H51460   5.713   9.767   5.419  2.4366 -1.4131  1.0721
  390MOL0     H51461   5.720   9.807   5.244  2.1650 -1.8853 -0.2645
  390MOL0     H51462   6.624   9.354   4.937 -1.3297  0.8578  2.2570
  390MOL0     H51463   6.871   9.388   4.825  0.2286  0.0829  0.0453
  390MOL0     H51464   7.238   9.870   4.871 -1.3047 -0.6496  2.8303
  390MOL0     H51465   7.486   9.869   4.812 -0.6022 -0.0899 -1.0759
  390MOL0     H51466   9.101   8.557   4.748  1.3762  1.7667 -0.6068
  390MOL0     H51467   9.306   8.438   4.822 -0.5484  1.0162 -1.1958
  390MOL0     H51468   9.638   8.417   4.928 -3.5096 -1.4908 -0.3485
  390MOL0     H51469   9.860   8.320   4.896  1.8498 -1.6245  0.4491
  390MOL0     H51470  10.009   7.970   5.156  1.7876 -0.3124  3.0582
  390MOL0     H51471  10.034   8.127   5.243  0.2112 -2.1097  0.9933
  390MOL0     H51472  10.181   8.063   4.976 -1.1202  2.0030 -0.7427
  390MOL0     H51473  10.229   8.158   5.124 -0.8655 -1.6201 -0.0340
  390MOL0     H51474  10.254   7.863   5.089 -0.1816 -0.2915  1.1890
  390MOL0     H51475  10.262   7.942   5.245 -3.5872  0.3666 -0.0149
  390MOL0     H51476  10.437   8.090   5.144 -2.4461 -0.0078 -0.2181
  390MOL0     H51477  10.484   7.917   5.166 -0.6792  1.4553  3.2549
  390MOL0     H51478  10.537   7.972   4.753 -0.3084 -1.4921 -0.4622
  390MOL0     H51479   9.801   8.076   5.249  2.2557 -0.9718 -1.5324
  390MOL0     H51480   9.588   8.177   5.282  0.0761  1.7639  1.2608
  391MOL0     O51481   0.808   3.095   0.217 -0.6869  0.3877 -0.4948
  391MOL0     C51482   0.830   3.045   0.329  1.0554  0.7053  0.2232
  391MOL0     O51483   0.743   3.040   0.433  0.2143  0.3035  1.2422
  391MOL0     C51484   0.618   3.069   0.408  0.4095 -0.2730  0.7571
  391MOL0     C51485   0.514   2.983   0.456 -0.0268 -0.2877 -0.0274
  391MOL0     C51486   0.381   3.002   0.411 -0.5466 -0.1285 -0.3434
  391MOL0     C51487   0.350   3.099   0.319 -0.4414 -0.4804 -0.3403
  391MOL0     O51488   0.219   3.113   0.293  0.4113  0.0766  0.1348
  391MOL0     C51489   0.160   3.228   0.352 -0.3220 -0.2852  0.2777
  391MOL0     C51490   0.032   3.253   0.272  0.0048  0.4127  0.9805
  391MOL0     C51491  -0.039   3.382   0.324 -0.1383  1.1573  0.3404
  391MOL0     C51492  -0.182   3.391   0.271  0.2412  0.7793 -0.0069
  391MOL0     C51493  -0.241   3.533   0.297 -0.8627 -0.5760  0.0702
  391MOL0     C51494  -0.387   3.546   0.267  0.3889  0.6864  0.2675
  391MOL0     C51495  -0.483   3.455   0.352  0.8012  1.3094 -0.1576
  391MOL0     C51496  -0.633   3.457   0.311  1.4390 -0.2420 -0.8618
  391MOL0     N51497  -0.691   3.566   0.387  0.1905 -0.0366 -0.0915
  391MOL0     C51498  -0.711   3.691   0.333  0.0945  0.7788  0.6550
  391MOL0     C51499  -0.794   3.752   0.420 -0.1680  0.8291 -0.3417
  391MOL0     C51500  -0.842   3.895   0.405  0.3043  0.3740  0.1083
  391MOL0     C51501  -0.995   3.907   0.425 -0.1394 -0.0191  0.7380
  391MOL0     C51502  -1.049   4.050   0.449 -0.3001  0.5383  0.2656
  391MOL0     C51503  -1.200   4.049   0.430  0.9210 -0.3824  0.2466
  391MOL0     O51504  -1.238   4.185   0.452  0.0343 -0.2700 -1.4991
  391MOL0     C51505  -1.371   4.203   0.440  0.3756  0.2937 -0.6044
  391MOL0     C51506  -1.430   4.209   0.320 -0.0537  0.7331  0.4958
  391MOL0     C51507  -1.573   4.216   0.324  0.6782 -0.4057  0.6842
  391MOL0     C51508  -1.644   4.218   0.441 -0.9517 -0.2385 -0.3208
  391MOL0     C51509  -1.789   4.231   0.434 -0.0332  0.0891  1.0088
  391MOL0     O51510  -1.858   4.196   0.548  0.1222 -0.0198  0.1086
  391MOL0     C51511  -1.994   4.196   0.543  0.1788  0.8856  0.0626
  391MOL0     C51512  -2.050   4.077   0.494 -0.3745 -0.6965  0.2919
  391MOL0     C51513  -2.185   4.073   0.471 -0.4521  0.2497  0.9241
  391MOL0     C51514  -2.273   4.174   0.509 -0.7109  0.1305 -0.0233
  391MOL0     O51515  -2.411   4.159   0.488  0.4180  0.3756  0.2826
  391MOL0     C51516  -2.491   4.107   0.591 -0.2433  0.0557  0.7368
  391MOL0     C51517  -2.608   4.029   0.537  0.0295 -1.2380  0.0766
  391MOL0     C51518  -2.715   4.012   0.651  0.7444  0.3374  0.6340
  391MOL0     C51519  -2.821   3.916   0.606 -0.1978 -0.2435  0.4076
  391MOL0     C51520  -2.963   3.944   0.651 -0.5321  0.2045 -0.0799
  391MOL0     C51521  -3.054   3.832   0.600  0.2607  0.6249 -0.5578
  391MOL0     C51522  -3.199   3.861   0.615 -0.1138  0.0081 -0.8422
  391MOL0     C51523  -3.293   3.752   0.572 -0.4141 -0.1642  0.9648
  391MOL0    Cl51524  -3.466   3.770   0.628  0.5469  0.3242 -0.1299
  391MOL0     C51525  -2.215   4.290   0.565 -0.1380  0.3343 -0.2712
  391MOL0     C51526  -2.081   4.296   0.585  0.2639 -0.7639  0.1615
  391MOL0     O51527  -1.843   4.264   0.327 -0.2040 -0.0503  0.4788
  391MOL0     C51528  -1.580   4.206   0.566 -0.5288  0.1330  0.4354
  391MOL0     C51529  -1.440   4.208   0.566 -0.2207  0.1047 -0.2618
  391MOL0     N51530  -0.809   3.670   0.533  0.0997  0.3644  0.3306
  391MOL0     N51531  -0.749   3.555   0.511  0.5211 -0.5655  0.2764
  391MOL0     C51532   0.444   3.200   0.289 -0.8172  0.7607 -0.5013
  391MOL0     C51533   0.573   3.179   0.324 -1.7376  0.0323  0.0582
  391MOL0     C51534   0.973   3.031   0.358  0.1770 -0.6814  1.0125
  391MOL0     C51535   1.019   3.077   0.487 -0.7445 -0.0784  0.3931
  391MOL0     C51536   1.165   3.066   0.510 -0.3335 -0.5100  0.0430
  391MOL0     C51537   1.254   3.010   0.409  0.5602  0.5488 -0.1895
  391MOL0     O51538   1.387   3.001   0.427  0.3280  0.0942  0.2114
  391MOL0     C51539   1.429   2.942   0.550  0.6212 -0.2390 -0.7379
  391MOL0     C51540   1.568   2.884   0.531 -0.1858 -0.9854 -1.2428
  391MOL0     C51541   1.676   2.988   0.469 -0.4631  0.9805  0.6307
  391MOL0     C51542   1.816   2.932   0.466 -0.3359 -0.3020  0.7624
  391MOL0     C51543   1.874   2.899   0.598 -1.0047 -0.4187  0.6171
  391MOL0     C51544   1.912   2.877   0.710 -0.4520 -0.3747 -0.3436
  391MOL0     C51545   1.201   2.965   0.292 -0.6407 -0.5619  0.1133
  391MOL0     C51546   1.065   2.981   0.268 -0.2207  0.0894 -0.1668
  391MOL0     H51547   0.540   2.897   0.517  0.5337 -1.2481 -1.5607
  391MOL0     H51548   0.314   2.924   0.444  0.7403 -1.6930 -1.2655
  391MOL0     H51549   0.234   3.308   0.360  1.2353 -1.8308  2.4900
  391MOL0     H51550   0.127   3.199   0.453 -0.0937 -1.2644  0.0895
  391MOL0     H51551  -0.031   3.164   0.281 -1.5577  1.3085 -0.4882
  391MOL0     H51552   0.057   3.261   0.166 -1.6504 -3.1602  0.1690
  391MOL0     H51553   0.020   3.462   0.278 -1.0917  1.5320 -0.2487
  391MOL0     H51554  -0.035   3.386   0.434  1.5499 -2.5890  0.5606
  391MOL0     H51555  -0.183   3.370   0.164  0.0020  0.2877  0.0889
  391MOL0     H51556  -0.239   3.310   0.318  0.2759  1.0984  0.5976
  391MOL0     H51557  -0.186   3.599   0.229  1.9528 -4.2620 -1.6510
  391MOL0     H51558  -0.217   3.570   0.397 -1.3225  1.3233 -0.4856
  391MOL0     H51559  -0.406   3.531   0.160  0.6558  2.2402 -0.0251
  391MOL0     H51560  -0.422   3.647   0.290  0.6088  1.6624 -3.1724
  391MOL0     H51561  -0.446   3.352   0.351 -0.5213  0.8072 -0.4329
  391MOL0     H51562  -0.474   3.487   0.455 -0.9043  0.1009  0.4301
  391MOL0     H51563  -0.680   3.359   0.327  0.0765  0.4992 -0.1326
  391MOL0     H51564  -0.656   3.470   0.205 -0.2449  1.3042 -0.3573
  391MOL0     H51565  -0.673   3.724   0.237 -0.4727 -0.7369 -0.1391
  391MOL0     H51566  -0.811   3.943   0.312  0.0294 -0.9408 -0.6915
  391MOL0     H51567  -0.799   3.934   0.497 -2.5266  0.9698  1.2939
  391MOL0     H51568  -1.023   3.844   0.509 -0.1892 -1.0806 -0.0469
  391MOL0     H51569  -1.033   3.855   0.337 -1.2707  0.0764  1.1520
  391MOL0     H51570  -1.010   4.086   0.544 -1.8806  1.2735  0.6679
  391MOL0     H51571  -1.001   4.111   0.372  0.1311  0.7548  0.7017
  391MOL0     H51572  -1.244   3.973   0.494 -1.2741  1.8040  1.4976
  391MOL0     H51573  -1.224   4.023   0.327  1.8450  2.9389 -0.9338
  391MOL0     H51574  -1.382   4.189   0.225 -3.5638  1.7482 -1.6860
  391MOL0     H51575  -1.623   4.231   0.228  0.6285 -1.4962  0.5259
  391MOL0     H51576  -1.982   3.996   0.470  3.7050  2.0800  1.4391
  391MOL0     H51577  -2.232   3.989   0.420  0.6851  0.4664 -0.5451
  391MOL0     H51578  -2.525   4.186   0.658 -1.9067 -3.0447  3.8972
  391MOL0     H51579  -2.436   4.051   0.667 -1.3069 -0.4451  1.1656
  391MOL0     H51580  -2.559   3.935   0.507  3.2135 -0.5712  2.5776
  391MOL0     H51581  -2.654   4.081   0.452 -1.6076 -2.8772 -0.1092
  391MOL0     H51582  -2.749   4.115   0.668  2.3131  1.1667 -0.9282
  391MOL0     H51583  -2.675   3.970   0.744  0.2620 -0.4270  0.5011
  391MOL0     H51584  -2.833   3.911   0.498 -1.6985  0.6699  0.4978
  391MOL0     H51585  -2.780   3.821   0.641 -0.2753 -0.9765 -1.3767
  391MOL0     H51586  -2.998   4.040   0.612  1.2926  1.0844  0.3476
  391MOL0     H51587  -2.971   3.950   0.760  0.3157  2.4964 -0.0991
  391MOL0     H51588  -3.028   3.745   0.661  3.4615  1.6675 -0.2521
  391MOL0     H51589  -3.036   3.824   0.492 -2.1840 -0.7229 -0.9492
  391MOL0     H51590  -3.214   3.876   0.723 -0.7252  2.4583 -1.1989
  391MOL0     H51591  -3.226   3.955   0.565  1.6857  2.2925  2.1079
  391MOL0     H51592  -3.264   3.650   0.598 -1.5192 -0.8130 -0.2522
  391MOL0     H51593  -3.302   3.753   0.463  0.8804  2.3630  0.8051
  391MOL0     H51594  -2.275   4.377   0.589  2.3903  1.8588  0.9785
  391MOL0     H51595  -2.034   4.383   0.629  2.0525 -3.3876  4.0320
  391MOL0     H51596  -1.639   4.204   0.657 -0.3289 -0.3549  0.5550
  391MOL0     H51597  -1.396   4.210   0.665  0.3343 -0.7047 -0.4792
  391MOL0     H51598   0.413   3.289   0.236 -1.3994  1.0691  0.3473
  391MOL0     H51599   0.648   3.256   0.309 -4.0655  2.1328 -1.5943
  391MOL0     H51600   0.965   3.129   0.565 -1.9454 -0.2747 -0.2787
  391MOL0     H51601   1.204   3.111   0.601  1.2490  2.6354 -2.0156
  391MOL0     H51602   1.357   2.873   0.594  0.8733  0.6260  1.1467
  391MOL0     H51603   1.438   3.027   0.619  0.1310  1.4636 -2.6778
  391MOL0     H51604   1.600   2.841   0.626 -1.3816 -0.9409 -0.7993
  391MOL0     H51605   1.550   2.794   0.470 -3.2475 -1.1891 -0.1903
  391MOL0     H51606   1.691   3.080   0.526  1.9447  1.1134 -0.0769
  391MOL0     H51607   1.635   3.012   0.370 -0.2823 -2.3984 -0.3851
  391MOL0     H51608   1.828   2.837   0.414 -0.2226 -0.8138  1.7002
  391MOL0     H51609   1.884   3.008   0.427  1.9856 -1.5660  2.0950
  391MOL0     H51610   1.952   2.849   0.805 -0.8457 -1.6176 -0.5178
  391MOL0     H51611   1.266   2.920   0.217 -2.2628  0.1295 -1.8055
  391MOL0     H51612   1.034   2.966   0.165  3.3351  1.1761 -1.5321
  392MOL0     O51613  10.422   4.451   2.520  0.1035 -0.0241  0.7978
  392MOL0     C51614  10.381   4.521   2.431  0.3367  0.1619  0.5902
  392MOL0     O51615  10.443   4.630   2.372 -0.2692 -0.1269 -0.2433
  392MOL0     C51616  10.582   4.647   2.360 -0.1630  0.2796 -0.1062
  392MOL0     C51617  10.633   4.761   2.311  0.2650  0.2722 -0.5696
  392MOL0     C51618  10.773   4.785   2.300 -0.2509  0.5210 -0.0573
  392MOL0     C51619  10.862   4.682   2.311  0.1387  0.1077  0.5527
  392MOL0     O51620  10.997   4.720   2.280 -0.0290  0.1656  0.3446
  392MOL0     C51621  11.071   4.605   2.237  1.0016 -0.2555 -0.5302
  392MOL0     C51622  11.193   4.640   2.166  0.1821  0.5872 -0.0864
  392MOL0     C51623  11.166   4.683   2.019 -0.4934  0.2041 -0.2493
  392MOL0     C51624  11.124   4.571   1.920 -0.3983 -0.7694 -0.1543
  392MOL0     C51625  11.110   4.616   1.781 -0.3279 -0.0504  0.5325
  392MOL0     C51626  11.010   4.729   1.744  0.4697  0.3067  0.0607
  392MOL0     C51627  10.885   4.725   1.831  0.0360 -0.2039  0.2178
  392MOL0     C51628  10.787   4.843   1.804 -0.0596  0.2488  0.6429
  392MOL0     N51629  10.652   4.814   1.855 -0.3080  0.2333 -0.5468
  392MOL0     C51630  10.563   4.895   1.912 -0.5465 -1.0486 -0.1195
  392MOL0     C51631  10.452   4.830   1.948 -0.0468  0.0099  0.1919
  392MOL0     C51632  10.334   4.892   2.026 -0.2519  0.9431 -0.3304
  392MOL0     C51633  10.227   4.941   1.932 -0.7259  1.3633  0.1695
  392MOL0     C51634  10.091   4.976   2.003 -0.5156 -0.8549  0.1677
  392MOL0     C51635  10.032   4.846   2.068 -0.2549 -0.5995 -1.1201
  392MOL0     O51636   9.998   4.741   1.973 -0.1327 -0.5339  0.6369
  392MOL0     C51637   9.912   4.766   1.864  0.2940 -0.5336 -1.0505
  392MOL0     C51638   9.789   4.817   1.889  0.2217 -0.1649  0.3735
  392MOL0     C51639   9.691   4.816   1.787 -0.2664 -0.3452 -0.7820
  392MOL0     C51640   9.731   4.788   1.650 -0.2355 -0.1091 -0.5522
  392MOL0     C51641   9.630   4.775   1.547 -0.0640 -0.1390  0.0557
  392MOL0     O51642   9.490   4.778   1.594 -0.6535  0.5494 -0.1360
  392MOL0     C51643   9.396   4.783   1.500 -0.4714 -0.1166  0.4303
  392MOL0     C51644   9.340   4.678   1.429 -0.0107 -0.2404  0.5981
  392MOL0     C51645   9.231   4.704   1.350 -0.2642  0.1792 -0.3567
  392MOL0     C51646   9.178   4.830   1.331  0.5667 -0.4137  0.2231
  392MOL0     O51647   9.070   4.844   1.236 -0.1812  0.3686 -0.5724
  392MOL0     C51648   8.958   4.939   1.267 -0.3537  0.3189  0.2251
  392MOL0     C51649   8.850   4.925   1.156  0.5341  0.1117 -0.0472
  392MOL0     C51650   8.745   4.808   1.189 -0.0089  0.2251 -0.2241
  392MOL0     C51651   8.643   4.859   1.290 -0.7152 -0.4204  1.0052
  392MOL0     C51652   8.541   4.755   1.328 -0.2580 -0.3452  0.1316
  392MOL0     C51653   8.454   4.820   1.445  0.1800 -0.4125  0.1130
  392MOL0     C51654   8.520   4.835   1.580 -0.5259  0.3868 -0.3001
  392MOL0     C51655   8.437   4.784   1.692 -0.0776 -0.4155 -0.0698
  392MOL0    Cl51656   8.279   4.868   1.709 -0.2861  0.0892  0.6385
  392MOL0     C51657   9.236   4.937   1.391 -0.1326  0.9726  0.3761
  392MOL0     C51658   9.331   4.907   1.483 -0.5459  0.2904  0.4737
  392MOL0     O51659   9.671   4.737   1.438 -0.5523 -0.3253 -0.5057
  392MOL0     C51660   9.863   4.740   1.631  0.8498  0.4008  1.2297
  392MOL0     C51661   9.949   4.726   1.741 -0.3527  0.6612 -0.0696
  392MOL0     N51662  10.466   4.695   1.903 -0.1693  0.4572 -0.4680
  392MOL0     N51663  10.582   4.698   1.843  0.7973  0.6092 -0.2759
  392MOL0     C51664  10.816   4.561   2.355 -0.0420  0.4187 -1.0862
  392MOL0     C51665  10.675   4.541   2.384  0.0244  0.1104  0.6096
  392MOL0     C51666  10.243   4.491   2.385 -0.2884  0.7061  0.7157
  392MOL0     C51667  10.201   4.522   2.252 -0.9425 -0.3999  0.0153
  392MOL0     C51668  10.077   4.486   2.204 -0.9856  1.2820 -0.0724
  392MOL0     C51669   9.990   4.418   2.284 -0.7505 -0.4799 -0.8659
  392MOL0     O51670   9.861   4.385   2.244 -0.7488 -0.6944  0.0747
  392MOL0     C51671   9.817   4.443   2.125  0.0010 -0.5968  0.0727
  392MOL0     C51672   9.676   4.404   2.096  0.2487  0.8437 -0.5689
  392MOL0     C51673   9.605   4.458   1.974 -0.4512 -0.0687 -0.1568
  392MOL0     C51674   9.690   4.413   1.846 -0.0885  0.1004 -0.2230
  392MOL0     C51675   9.595   4.416   1.735  0.2554 -0.1830  0.7962
  392MOL0     C51676   9.508   4.429   1.659  0.0111 -0.5031 -0.9057
  392MOL0     C51677  10.031   4.386   2.415  0.8412 -0.6782 -0.5234
  392MOL0     C51678  10.148   4.429   2.467  0.1687 -0.2666  0.3789
  392MOL0     H51679  10.560   4.841   2.307 -1.6547 -1.2112  1.8022
  392MOL0     H51680  10.813   4.879   2.264 -2.0660  2.3921  2.4029
  392MOL0     H51681  11.013   4.533   2.179 -0.5663  1.0865 -0.6965
  392MOL0     H51682  11.093   4.543   2.324 -1.6996 -0.1321  0.3422
  392MOL0     H51683  11.256   4.550   2.159 -2.1743 -1.1126 -0.8664
  392MOL0     H51684  11.246   4.720   2.219 -0.1655  0.3466  0.6295
  392MOL0     H51685  11.256   4.730   1.976  0.1316 -0.9004 -0.1751
  392MOL0     H51686  11.088   4.760   2.013  0.7308  1.3620 -3.4401
  392MOL0     H51687  11.197   4.490   1.924 -2.0039 -2.2235  1.1213
  392MOL0     H51688  11.027   4.534   1.954 -0.0447 -2.3752 -0.8040
  392MOL0     H51689  11.086   4.529   1.719 -1.1003 -0.3583  1.2442
  392MOL0     H51690  11.205   4.654   1.741 -0.4036  1.1487  1.4239
  392MOL0     H51691  10.984   4.712   1.639 -0.5460 -3.5447  0.7611
  392MOL0     H51692  11.056   4.828   1.742 -0.3891  0.7046 -1.7632
  392MOL0     H51693  10.834   4.630   1.818 -3.2850  1.4368  0.3289
  392MOL0     H51694  10.909   4.731   1.938 -0.1090  1.1736  0.1924
  392MOL0     H51695  10.784   4.848   1.695  0.5234 -1.2469  0.5387
  392MOL0     H51696  10.813   4.944   1.837 -0.1597  0.5056 -0.0680
  392MOL0     H51697  10.589   4.996   1.944 -1.1820 -0.7444 -0.5360
  392MOL0     H51698  10.364   4.960   2.106  2.1911 -2.2945  1.8155
  392MOL0     H51699  10.300   4.803   2.081  0.4562  0.2518 -0.9729
  392MOL0     H51700  10.203   4.859   1.864 -1.2303  0.4842  1.3721
  392MOL0     H51701  10.280   5.022   1.881 -0.0876  0.6804 -0.2856
  392MOL0     H51702  10.112   5.054   2.077  1.5775 -0.9193 -0.3156
  392MOL0     H51703  10.020   5.015   1.930 -0.7625  1.6609  1.6524
  392MOL0     H51704   9.950   4.858   2.139  2.0463 -1.9271  1.9969
  392MOL0     H51705  10.109   4.804   2.133  2.0853  1.2472 -2.5289
  392MOL0     H51706   9.765   4.819   1.995  1.3770 -2.9868  0.7591
  392MOL0     H51707   9.592   4.836   1.827  1.0302  1.3321  1.8251
  392MOL0     H51708   9.369   4.574   1.437 -1.4920 -0.8842 -1.6580
  392MOL0     H51709   9.180   4.625   1.295 -0.6828  0.0181  0.2554
  392MOL0     H51710   8.996   5.041   1.275 -0.8952  0.3754  2.6625
  392MOL0     H51711   8.916   4.913   1.364 -1.0040 -0.4801 -0.2497
  392MOL0     H51712   8.907   4.898   1.066  2.0551  2.6249  0.0851
  392MOL0     H51713   8.803   5.022   1.140  1.5954  1.0006  1.9553
  392MOL0     H51714   8.803   4.726   1.233 -1.7301 -0.6963  0.4137
  392MOL0     H51715   8.707   4.767   1.095  0.8881  0.8038 -0.8650
  392MOL0     H51716   8.694   4.884   1.383 -1.3325  1.2702  0.9294
  392MOL0     H51717   8.601   4.948   1.241  0.5741 -0.3017  0.0520
  392MOL0     H51718   8.589   4.666   1.369 -3.2791 -1.9154  0.4742
  392MOL0     H51719   8.483   4.734   1.238  0.8249  0.0647 -0.6851
  392MOL0     H51720   8.363   4.760   1.454  1.2315 -1.7080  4.2064
  392MOL0     H51721   8.422   4.918   1.408 -1.1270 -1.1778 -0.8259
  392MOL0     H51722   8.616   4.783   1.589 -0.3875  0.5312 -0.9024
  392MOL0     H51723   8.547   4.941   1.582  1.0418  0.0093  0.7442
  392MOL0     H51724   8.486   4.804   1.788 -1.3753 -0.6902  0.6685
  392MOL0     H51725   8.424   4.676   1.682 -0.9459 -0.2470 -0.8675
  392MOL0     H51726   9.204   5.039   1.372  1.1737  1.6958  1.7935
  392MOL0     H51727   9.371   4.994   1.534  2.9461 -0.9373  0.1036
  392MOL0     H51728   9.894   4.735   1.527 -3.2582  2.3019 -0.2658
  392MOL0     H51729  10.051   4.699   1.719 -0.3613  0.0388  0.6308
  392MOL0     H51730  10.887   4.481   2.370 -1.4441 -0.5492  0.8107
  392MOL0     H51731  10.642   4.446   2.425 -2.2647 -0.1250 -1.5570
  392MOL0     H51732  10.265   4.573   2.181 -1.8512 -0.7889 -1.1129
  392MOL0     H51733  10.056   4.504   2.099  2.9894  0.6326 -1.1515
  392MOL0     H51734   9.877   4.400   2.045  1.6062 -0.2599  1.0412
  392MOL0     H51735   9.820   4.553   2.123  1.6177 -0.5310  2.3015
  392MOL0     H51736   9.673   4.295   2.091  2.7739  0.6819  0.0907
  392MOL0     H51737   9.621   4.429   2.187  0.6025  3.6668 -1.0585
  392MOL0     H51738   9.601   4.566   1.985 -0.5916  0.0860 -1.4914
  392MOL0     H51739   9.504   4.418   1.958 -1.1249  1.7504 -0.6160
  392MOL0     H51740   9.770   4.486   1.829 -1.2798  1.5195 -0.0061
  392MOL0     H51741   9.735   4.314   1.850 -1.2878 -0.6179 -2.4494
  392MOL0     H51742   9.427   4.453   1.593 -1.0978  2.2802  1.2217
  392MOL0     H51743   9.952   4.353   2.482 -0.3528  0.2793 -1.4351
  392MOL0     H51744  10.182   4.410   2.568 -0.1469  0.0505  0.5467
  393MOL0     O51745   5.178  10.490   6.751  0.0108 -0.2141  0.4993
  393MOL0     C51746   5.247  10.393   6.716 -0.4809 -0.1404 -0.2299
  393MOL0     O51747   5.194  10.265   6.679 -0.3481  0.3382 -0.4373
  393MOL0     C51748   5.058  10.240   6.695  0.3564  0.1765  0.8270
  393MOL0     C51749   4.964  10.292   6.603  0.0636  0.2368 -0.1194
  393MOL0     C51750   4.830  10.280   6.636  0.5656  0.9320  0.0237
  393MOL0     C51751   4.781  10.216   6.751 -0.2043 -0.4244 -0.7598
  393MOL0     O51752   4.646  10.202   6.770 -0.0213  0.8692  0.1168
  393MOL0     C51753   4.600  10.119   6.870 -0.2347 -0.1802  0.7521
  393MOL0     C51754   4.451  10.131   6.881  1.1272 -0.8456  0.1932
  393MOL0     C51755   4.380  10.030   6.787  0.1755  0.8612 -0.3183
  393MOL0     C51756   4.230  10.032   6.804  0.7179 -0.3643 -0.1796
  393MOL0     C51757   4.146   9.981   6.688 -0.4234 -0.0404  0.0609
  393MOL0     C51758   4.028   9.887   6.740  0.4750 -0.1481 -0.6497
  393MOL0     C51759   3.912   9.946   6.817  0.6306  0.3447  0.6568
  393MOL0     C51760   3.836  10.048   6.726  0.7509  0.2701 -0.1766
  393MOL0     N51761   3.712  10.087   6.797  0.1703  0.6654  0.6662
  393MOL0     C51762   3.605  10.002   6.822 -0.5692 -0.1506 -0.1991
  393MOL0     C51763   3.510  10.072   6.888  0.0036  0.5956  0.0587
  393MOL0     C51764   3.373  10.024   6.949 -0.5489  0.0716  0.2625
  393MOL0     C51765   3.281  10.009   6.826 -0.1453  0.1620 -0.3520
  393MOL0     C51766   3.129  10.009   6.869  0.6959 -0.3526  0.1164
  393MOL0     C51767   3.073   9.868   6.913  0.1842 -0.4441 -0.2507
  393MOL0     O51768   3.056   9.797   6.797 -0.0228  0.2475  0.3181
  393MOL0     C51769   2.933   9.749   6.761  1.0615  0.5088  0.1153
  393MOL0     C51770   2.813   9.801   6.800  0.7032 -1.1795  0.3952
  393MOL0     C51771   2.694   9.736   6.773  0.1538 -1.2485 -0.5152
  393MOL0     C51772   2.693   9.612   6.718 -0.8439  0.2533  0.5915
  393MOL0     C51773   2.564   9.533   6.696  0.6571 -0.8127  0.0248
  393MOL0     O51774   2.443   9.594   6.716 -0.7905 -0.1526 -0.1778
  393MOL0     C51775   2.311   9.538   6.689 -0.8046  0.4004 -0.0036
  393MOL0     C51776   2.207   9.613   6.736  0.1339 -0.2253 -0.4673
  393MOL0     C51777   2.069   9.573   6.724 -0.4880 -0.3811 -0.0155
  393MOL0     C51778   2.038   9.447   6.666  0.4863  0.3024  0.1914
  393MOL0     O51779   1.912   9.404   6.639 -0.0285  0.3035  0.8924
  393MOL0     C51780   1.805   9.490   6.683 -1.1452 -0.1185 -0.7623
  393MOL0     C51781   1.670   9.452   6.627  0.3445 -0.0022  0.7288
  393MOL0     C51782   1.619   9.315   6.687  0.4517  0.1313  0.7764
  393MOL0     C51783   1.510   9.249   6.601 -0.2549  0.6474  0.3173
  393MOL0     C51784   1.417   9.155   6.667  0.3050 -0.9450 -0.0788
  393MOL0     C51785   1.500   9.029   6.727 -0.4769 -0.5724 -0.2285
  393MOL0     C51786   1.394   8.928   6.789 -0.1860 -0.5314  0.0112
  393MOL0     C51787   1.474   8.839   6.880 -0.0584  0.5042  0.5139
  393MOL0    Cl51788   1.554   8.712   6.787 -0.1160  0.0608 -0.1526
  393MOL0     C51789   2.144   9.370   6.619  0.3751 -0.4114 -0.7482
  393MOL0     C51790   2.274   9.411   6.640  0.4269 -0.6258  1.1522
  393MOL0     O51791   2.572   9.420   6.644 -0.1842 -0.0333 -0.1067
  393MOL0     C51792   2.814   9.547   6.676  0.0977 -0.1196 -0.1469
  393MOL0     C51793   2.936   9.620   6.701 -0.3445  0.3323 -0.0058
  393MOL0     N51794   3.561  10.200   6.893  0.3837 -0.4059  0.0647
  393MOL0     N51795   3.674  10.213   6.837 -0.3420 -0.1457 -0.2944
  393MOL0     C51796   4.879  10.168   6.840 -0.3652 -0.7421 -0.1080
  393MOL0     C51797   5.020  10.182   6.813 -0.4728  0.2665  0.4956
  393MOL0     C51798   5.386  10.420   6.694  0.1403  0.2589  0.2273
  393MOL0     C51799   5.463  10.315   6.633 -0.2058  0.0552  0.3096
  393MOL0     C51800   5.596  10.338   6.598  0.5704 -0.1639  0.6315
  393MOL0     C51801   5.656  10.465   6.600  0.6525 -0.5218 -0.5947
  393MOL0     O51802   5.778  10.489   6.538  0.2598 -0.0701  0.1617
  393MOL0     C51803   5.843  10.615   6.557  0.2940 -0.3405  0.2680
  393MOL0     C51804   5.992  10.608   6.516 -0.0772  0.2266  0.2151
  393MOL0     C51805   6.052  10.477   6.570 -0.0771  0.2504  0.1083
  393MOL0     C51806   6.208  10.462   6.545 -0.3878  0.7040 -0.8479
  393MOL0     C51807   6.280  10.565   6.618 -0.4215 -0.3044  0.1886
  393MOL0     C51808   6.345  10.648   6.677  0.1818  0.4507 -0.4169
  393MOL0     C51809   5.577  10.571   6.660  0.2097 -1.0346  0.1407
  393MOL0     C51810   5.444  10.549   6.708  0.4672  0.0287 -0.5870
  393MOL0     H51811   4.998  10.326   6.506 -0.7286  0.1672 -0.4263
  393MOL0     H51812   4.764  10.315   6.558  1.3553  0.4262 -0.8904
  393MOL0     H51813   4.637  10.157   6.966  0.4568 -0.1341  0.4757
  393MOL0     H51814   4.633  10.016   6.852  0.7458  0.3520 -0.7125
  393MOL0     H51815   4.414  10.233   6.866  2.3077 -0.6826 -1.9382
  393MOL0     H51816   4.425  10.114   6.986 -0.9109  1.6804  0.1945
  393MOL0     H51817   4.406   9.924   6.797 -2.1337 -0.2415 -3.9545
  393MOL0     H51818   4.413  10.059   6.687 -0.0521 -2.4729 -1.5148
  393MOL0     H51819   4.213   9.976   6.896  0.2149  2.6568  1.7039
  393MOL0     H51820   4.201  10.135   6.829 -0.4213 -1.2296  2.3612
  393MOL0     H51821   4.212   9.933   6.616 -2.3304 -0.9251 -1.2031
  393MOL0     H51822   4.095  10.061   6.634  3.9466  0.3580 -4.0781
  393MOL0     H51823   4.065   9.810   6.808 -3.8466 -1.7358  0.2053
  393MOL0     H51824   3.990   9.836   6.651  0.0281  0.8788 -1.0609
  393MOL0     H51825   3.856   9.857   6.846  2.8976 -0.6235  2.2943
  393MOL0     H51826   3.952   9.999   6.903  2.3475 -0.3172  0.2979
  393MOL0     H51827   3.804   9.998   6.635 -0.1263 -1.0924  0.8412
  393MOL0     H51828   3.892  10.140   6.704 -0.3740  1.2155  0.8092
  393MOL0     H51829   3.610   9.895   6.804  1.2459 -0.2172  0.4950
  393MOL0     H51830   3.341  10.103   7.018 -1.2396 -0.5870  0.7191
  393MOL0     H51831   3.388   9.933   7.008  4.7171  0.4752  0.0217
  393MOL0     H51832   3.312   9.917   6.775  3.7764  1.7193 -1.1058
  393MOL0     H51833   3.295  10.097   6.763  3.1084 -1.2030 -1.7332
  393MOL0     H51834   3.114  10.075   6.956  3.8864  1.9506 -0.9172
  393MOL0     H51835   3.066  10.054   6.792 -1.5390  0.5866  2.3308
  393MOL0     H51836   2.981   9.898   6.965  0.6346  2.7145 -1.0546
  393MOL0     H51837   3.143   9.815   6.978 -1.6913  0.2067  2.5045
  393MOL0     H51838   2.815   9.898   6.849  0.2460  0.7530 -3.0429
  393MOL0     H51839   2.601   9.774   6.814  0.4505 -0.9928 -0.0715
  393MOL0     H51840   2.224   9.709   6.783 -1.0692 -0.2064 -0.0239
  393MOL0     H51841   1.992   9.635   6.769 -1.9971 -3.1151  1.4059
  393MOL0     H51842   1.822   9.596   6.661 -0.1806  0.4913  2.4297
  393MOL0     H51843   1.804   9.482   6.792  2.2338  4.8547  0.0144
  393MOL0     H51844   1.664   9.445   6.518 -2.1871  2.5368  0.5754
  393MOL0     H51845   1.588   9.521   6.650  0.4761 -0.8542  4.4868
  393MOL0     H51846   1.586   9.329   6.790  1.6580  0.5754  1.1199
  393MOL0     H51847   1.703   9.246   6.695  0.2327 -0.2962 -0.3643
  393MOL0     H51848   1.453   9.322   6.543 -2.6942 -1.2386  0.2301
  393MOL0     H51849   1.556   9.190   6.522  3.6183  3.9437 -0.2579
  393MOL0     H51850   1.346   9.122   6.591  0.0986 -2.7506  0.8355
  393MOL0     H51851   1.358   9.204   6.745 -1.0628 -2.0426 -0.3810
  393MOL0     H51852   1.567   9.070   6.803 -2.1763  0.0428  1.0091
  393MOL0     H51853   1.553   8.980   6.645 -1.8809 -0.7998 -1.0372
  393MOL0     H51854   1.314   8.978   6.843  0.2621  0.1704  0.0363
  393MOL0     H51855   1.340   8.876   6.710 -2.5440  0.3315  0.9660
  393MOL0     H51856   1.399   8.796   6.947 -2.3841  3.3550 -0.0469
  393MOL0     H51857   1.542   8.899   6.942 -1.3272  0.1645  2.3049
  393MOL0     H51858   2.124   9.273   6.575 -0.9746 -0.3300 -0.3826
  393MOL0     H51859   2.359   9.352   6.606  1.6570  0.5052  2.1643
  393MOL0     H51860   2.817   9.452   6.624 -1.1308  0.1269 -0.7112
  393MOL0     H51861   3.035   9.576   6.693 -0.2811  0.3161  0.7382
  393MOL0     H51862   4.850  10.123   6.935  2.4085  0.1910  1.3028
  393MOL0     H51863   5.092  10.164   6.892  0.0648  1.2493  0.2457
  393MOL0     H51864   5.420  10.217   6.614 -2.6395  1.0765  0.1139
  393MOL0     H51865   5.645  10.257   6.545 -1.4204  0.8325 -3.1362
  393MOL0     H51866   5.845  10.637   6.664  0.3033  2.0217 -0.1604
  393MOL0     H51867   5.798  10.696   6.498 -0.0096  0.6276  1.7731
  393MOL0     H51868   6.000  10.631   6.410 -0.7830 -0.7396 -0.0585
  393MOL0     H51869   6.045  10.688   6.569  0.7124 -0.7487  0.9388
  393MOL0     H51870   5.993  10.393   6.533  0.3783 -0.1185  0.2110
  393MOL0     H51871   6.032  10.473   6.677 -0.1505 -2.5485  0.0719
  393MOL0     H51872   6.235  10.360   6.574  0.3137  0.6051 -1.8216
  393MOL0     H51873   6.220  10.461   6.436  1.3494 -3.5259 -0.8217
  393MOL0     H51874   6.397  10.721   6.737  0.4519 -1.2261  1.5007
  393MOL0     H51875   5.619  10.671   6.665  0.2251 -1.0713  0.7839
  393MOL0     H51876   5.395  10.638   6.744  1.9738  1.4546 -1.9167
  394MOL0     O51877   4.822   5.807   0.314  0.6713  0.1067 -0.4678
  394MOL0     C51878   4.782   5.697   0.362  0.1590 -0.2091  0.6593
  394MOL0     O51879   4.835   5.630   0.468  0.0049  0.2117  0.7660
  394MOL0     C51880   4.958   5.664   0.506 -0.1193  0.1084  0.3736
  394MOL0     C51881   4.977   5.763   0.607  0.0090 -0.0524  0.1130
  394MOL0     C51882   5.107   5.796   0.654  0.5642  0.9104  0.7169
  394MOL0     C51883   5.216   5.730   0.609  0.6332 -0.2523 -0.2184
  394MOL0     O51884   5.344   5.754   0.659 -0.1780 -0.8214  0.3795
  394MOL0     C51885   5.374   5.825   0.777 -0.7455  1.2349  0.1529
  394MOL0     C51886   5.514   5.811   0.821  0.3391 -0.2291 -0.0089
  394MOL0     C51887   5.610   5.850   0.713  0.9012  0.0878 -0.2862
  394MOL0     C51888   5.753   5.825   0.755  0.3496 -0.6911  0.3571
  394MOL0     C51889   5.853   5.885   0.654 -0.4061  0.8936  0.3694
  394MOL0     C51890   6.001   5.883   0.703  0.1953  0.0511 -0.3521
  394MOL0     C51891   6.098   5.938   0.594  0.1401  0.2176 -0.2720
  394MOL0     C51892   6.253   5.959   0.647  0.8938 -0.5866  0.1104
  394MOL0     N51893   6.260   6.067   0.759 -0.8537  0.2747  0.6993
  394MOL0     C51894   6.188   6.186   0.750  0.2721 -0.5696 -0.8021
  394MOL0     C51895   6.199   6.245   0.866  0.4753  0.9798 -0.7693
  394MOL0     C51896   6.119   6.364   0.917 -0.9339 -0.2197  0.8438
  394MOL0     C51897   5.979   6.319   0.945  0.1342 -0.5342  0.5596
  394MOL0     C51898   5.913   6.426   1.040  0.0319  0.0442  0.4269
  394MOL0     C51899   5.765   6.410   1.032  0.0745  0.5718  0.0464
  394MOL0     O51900   5.720   6.276   1.038  0.1087 -0.0295 -0.3231
  394MOL0     C51901   5.596   6.260   0.983  0.6303  0.2833  0.7086
  394MOL0     C51902   5.535   6.317   0.869 -0.8906 -0.1379  0.0752
  394MOL0     C51903   5.403   6.284   0.832 -0.1136  0.7053  0.5107
  394MOL0     C51904   5.341   6.171   0.893  0.5557  0.6407 -0.4996
  394MOL0     C51905   5.206   6.124   0.857 -0.1261  0.2592 -0.2148
  394MOL0     O51906   5.131   6.200   0.768  1.0326 -0.2444  0.4252
  394MOL0     C51907   4.993   6.185   0.750  0.0062 -0.3545 -0.9077
  394MOL0     C51908   4.935   6.289   0.683 -0.0224 -0.1323  0.0664
  394MOL0     C51909   4.811   6.283   0.630  0.1837  0.3050 -0.3062
  394MOL0     C51910   4.727   6.172   0.660  0.1388  0.0054 -1.1373
  394MOL0     O51911   4.598   6.161   0.614  0.3178 -0.5118 -0.2586
  394MOL0     C51912   4.516   6.287   0.605  1.2267  0.1670 -0.1200
  394MOL0     C51913   4.361   6.254   0.614  0.7590  0.1878 -0.3040
  394MOL0     C51914   4.314   6.149   0.514 -0.2867 -0.1813 -0.3500
  394MOL0     C51915   4.165   6.157   0.512  0.7766  0.4088 -0.3338
  394MOL0     C51916   4.104   6.055   0.404 -0.4982  0.9027 -0.5941
  394MOL0     C51917   3.951   6.049   0.417 -0.1505 -0.1464  0.1807
  394MOL0     C51918   3.893   5.936   0.337  0.3447 -0.2849  0.8787
  394MOL0     C51919   3.740   5.932   0.334 -0.3571 -0.3584  0.3507
  394MOL0    Cl51920   3.689   5.825   0.210  0.0262  0.2842  0.2184
  394MOL0     C51921   4.777   6.065   0.737  0.2275  0.4722  0.4294
  394MOL0     C51922   4.910   6.071   0.785  0.3467 -0.0737 -0.7542
  394MOL0     O51923   5.165   6.019   0.911 -0.2067 -0.5492 -0.0863
  394MOL0     C51924   5.400   6.109   1.008  0.2505  0.0598  0.6094
  394MOL0     C51925   5.522   6.162   1.046 -0.2343  1.0895 -0.0495
  394MOL0     N51926   6.287   6.161   0.945 -0.6328  0.3248  0.4363
  394MOL0     N51927   6.324   6.054   0.881  0.0194 -0.5889  0.1474
  394MOL0     C51928   5.196   5.624   0.508  0.1008 -0.0610  0.3567
  394MOL0     C51929   5.072   5.605   0.450 -0.0068 -0.7926 -0.9148
  394MOL0     C51930   4.646   5.653   0.315 -0.0827 -0.1229  0.1055
  394MOL0     C51931   4.610   5.514   0.319 -1.2018 -0.1683 -0.0835
  394MOL0     C51932   4.480   5.483   0.282  0.4909 -0.0828  0.2730
  394MOL0     C51933   4.388   5.577   0.233  0.9142 -0.2567 -0.0119
  394MOL0     O51934   4.265   5.536   0.205 -0.7916 -0.1651 -0.0421
  394MOL0     C51935   4.168   5.630   0.168 -0.7226 -0.0797 -0.0723
  394MOL0     C51936   4.030   5.571   0.140  0.4257 -0.7516  0.6534
  394MOL0     C51937   4.029   5.457   0.037  1.0752 -0.7256  0.3106
  394MOL0     C51938   3.882   5.407   0.020 -0.5250 -0.3639  0.6288
  394MOL0     C51939   3.838   5.309   0.120 -0.2468  0.1667 -0.0581
  394MOL0     C51940   3.800   5.218   0.195 -0.5794  0.8120 -0.1224
  394MOL0     C51941   4.424   5.712   0.234  0.4919  0.1494 -0.8161
  394MOL0     C51942   4.546   5.749   0.278 -1.2501 -0.8344 -0.3499
  394MOL0     H51943   4.897   5.826   0.646  0.0095 -0.2404  0.4235
  394MOL0     H51944   5.119   5.879   0.722  0.5066  1.2575  0.3046
  394MOL0     H51945   5.303   5.802   0.857 -0.1326  0.7276  0.5725
  394MOL0     H51946   5.355   5.930   0.756 -2.4996  1.1265  1.0541
  394MOL0     H51947   5.523   5.709   0.860  1.4516  0.3262  1.2859
  394MOL0     H51948   5.530   5.878   0.906 -0.6273  1.3844 -1.0491
  394MOL0     H51949   5.587   5.952   0.683 -3.1731 -0.8780 -1.0880
  394MOL0     H51950   5.606   5.785   0.625 -0.0055  1.3512 -1.2062
  394MOL0     H51951   5.766   5.876   0.851 -0.8867  1.7040 -0.6799
  394MOL0     H51952   5.778   5.719   0.760  1.2546 -0.7491 -2.9671
  394MOL0     H51953   5.835   5.992   0.639 -1.4378  0.4461 -2.0029
  394MOL0     H51954   5.839   5.826   0.563  2.5978 -0.6130  0.7599
  394MOL0     H51955   6.027   5.777   0.715  0.4605 -0.1122 -2.1093
  394MOL0     H51956   6.021   5.939   0.795  1.6608  0.3098 -0.7978
  394MOL0     H51957   6.102   5.862   0.516  0.4842 -0.1976  0.1430
  394MOL0     H51958   6.062   6.029   0.544  5.1724  1.0575 -3.0358
  394MOL0     H51959   6.310   5.997   0.562 -0.2373 -1.4976 -1.0988
  394MOL0     H51960   6.291   5.864   0.686 -3.6689 -2.1985  1.3759
  394MOL0     H51961   6.127   6.217   0.666 -1.0007  0.8522  0.5742
  394MOL0     H51962   6.118   6.445   0.843 -2.1035 -2.5862 -1.9426
  394MOL0     H51963   6.164   6.402   1.010 -0.6637 -0.3917  0.7866
  394MOL0     H51964   5.971   6.218   0.988 -3.6346 -1.6442 -2.2815
  394MOL0     H51965   5.927   6.303   0.850  0.2515 -3.5094  0.8999
  394MOL0     H51966   5.940   6.402   1.143 -1.2263 -3.1944  0.1249
  394MOL0     H51967   5.942   6.526   1.006  0.1679  0.4549  1.7077
  394MOL0     H51968   5.744   6.450   0.933 -0.1126 -0.5403 -0.3859
  394MOL0     H51969   5.714   6.466   1.111 -2.4909  1.2762 -1.9554
  394MOL0     H51970   5.587   6.386   0.804 -0.8773 -0.4731 -0.2787
  394MOL0     H51971   5.351   6.325   0.746 -2.5902 -0.0520  1.5384
  394MOL0     H51972   4.996   6.372   0.647  0.6410 -0.5659  0.1673
  394MOL0     H51973   4.765   6.361   0.570 -2.2738 -0.8876 -0.0965
  394MOL0     H51974   4.545   6.338   0.513  0.1985 -2.2285 -1.9092
  394MOL0     H51975   4.537   6.343   0.696 -2.0646 -1.3922  1.8043
  394MOL0     H51976   4.311   6.350   0.598 -0.9884 -0.8889 -1.5872
  394MOL0     H51977   4.330   6.223   0.715  1.2631  1.4149  0.2530
  394MOL0     H51978   4.351   6.048   0.534 -1.1622 -0.9232 -2.1889
  394MOL0     H51979   4.342   6.179   0.412 -2.2421 -1.1478 -1.2261
  394MOL0     H51980   4.137   6.118   0.611 -1.4072  0.2731 -0.9368
  394MOL0     H51981   4.135   6.262   0.503 -0.3808  0.0132 -1.3818
  394MOL0     H51982   4.151   5.961   0.435  0.4281  1.5411 -0.0168
  394MOL0     H51983   4.125   6.087   0.301 -1.9872  1.0066 -0.8845
  394MOL0     H51984   3.913   6.148   0.392  3.3447  1.4056  0.4793
  394MOL0     H51985   3.914   6.032   0.519 -0.9475 -2.5873 -0.4457
  394MOL0     H51986   3.925   5.955   0.234  1.3304 -0.2696  1.1788
  394MOL0     H51987   3.939   5.841   0.366  2.5615  0.6957  0.8251
  394MOL0     H51988   3.700   6.033   0.318  0.7373  0.5889  2.9181
  394MOL0     H51989   3.693   5.897   0.427 -1.0972  2.4743  1.1598
  394MOL0     H51990   4.711   5.979   0.747  0.9350 -0.1266  0.0645
  394MOL0     H51991   4.948   5.983   0.836 -0.0289  0.8505  1.1877
  394MOL0     H51992   5.354   6.028   1.064 -0.4140  2.1737  3.3553
  394MOL0     H51993   5.580   6.106   1.118  0.6467  0.0248 -1.5187
  394MOL0     H51994   5.280   5.571   0.465  0.6816  2.7238 -2.3112
  394MOL0     H51995   5.065   5.534   0.368  2.8313  1.2987 -3.1771
  394MOL0     H51996   4.684   5.443   0.353 -1.7008 -0.1984  0.9977
  394MOL0     H51997   4.448   5.380   0.293  0.1381 -0.1528 -1.1734
  394MOL0     H51998   4.205   5.679   0.078 -3.0057  1.2724 -0.3700
  394MOL0     H51999   4.142   5.702   0.246  3.3415  0.0290  1.4267
  394MOL0     H52000   3.986   5.531   0.232  2.7382 -2.2120  1.2041
  394MOL0     H52001   3.981   5.660   0.100  3.0709  1.6762  2.3657
  394MOL0     H52002   4.083   5.375   0.083 -0.9851 -1.0075  2.3949
  394MOL0     H52003   4.064   5.500  -0.058 -0.9873 -3.2333 -1.7559
  394MOL0     H52004   3.814   5.493   0.016  2.2348  1.9109 -1.3894
  394MOL0     H52005   3.880   5.347  -0.072  0.4533 -3.6800  2.5695
  394MOL0     H52006   3.767   5.132   0.249  0.9505  0.5228  0.3987
  394MOL0     H52007   4.356   5.794   0.211 -0.6000 -0.6927 -0.6950
  394MOL0     H52008   4.561   5.856   0.268 -3.0942 -0.2887  1.9444
  395MOL0     O52009   5.168   5.438   2.433 -0.7830 -0.3417  0.0273
  395MOL0     C52010   5.130   5.360   2.519  0.5140  0.4071  0.3659
  395MOL0     O52011   4.998   5.338   2.554  0.5646  0.9008  0.6903
  395MOL0     C52012   4.898   5.416   2.507 -0.4939 -0.3048  0.6649
  395MOL0     C52013   4.790   5.339   2.463  0.0818 -0.0023  0.8306
  395MOL0     C52014   4.676   5.403   2.410 -0.1782  0.4966 -0.2581
  395MOL0     C52015   4.677   5.544   2.406  0.4240 -0.2216  0.7517
  395MOL0     O52016   4.563   5.607   2.357  0.1666 -0.1092 -0.1647
  395MOL0     C52017   4.537   5.745   2.374 -0.0130 -0.2114 -0.4200
  395MOL0     C52018   4.395   5.785   2.322 -0.7341  0.6153 -0.3502
  395MOL0     C52019   4.290   5.703   2.389  0.3437 -0.9811 -0.2828
  395MOL0     C52020   4.161   5.761   2.334 -0.2827 -0.3549 -0.2737
  395MOL0     C52021   4.048   5.666   2.369 -0.0345 -0.3174  0.2679
  395MOL0     C52022   3.912   5.730   2.335 -0.0887 -0.4888  0.2670
  395MOL0     C52023   3.811   5.643   2.401  0.1436 -0.9483 -0.3257
  395MOL0     C52024   3.674   5.687   2.350 -0.7004  0.1933 -0.8232
  395MOL0     N52025   3.575   5.579   2.362 -0.1655  0.2293 -0.1942
  395MOL0     C52026   3.558   5.491   2.470 -0.2700 -0.3962 -0.6395
  395MOL0     C52027   3.448   5.415   2.430  0.0181  0.0769 -0.9237
  395MOL0     C52028   3.377   5.303   2.514 -1.0141  0.2137 -0.4096
  395MOL0     C52029   3.274   5.360   2.616  0.6396 -0.3085  0.7264
  395MOL0     C52030   3.198   5.471   2.540  1.2523  0.0095 -0.2027
  395MOL0     C52031   3.049   5.490   2.597  0.7152 -0.5916  0.1194
  395MOL0     O52032   3.029   5.624   2.661  0.2338  0.2558  0.4828
  395MOL0     C52033   2.904   5.656   2.700  0.5053  0.2653 -1.5976
  395MOL0     C52034   2.905   5.791   2.751  0.0182 -0.0533  0.3151
  395MOL0     C52035   2.781   5.835   2.800 -0.4213  0.5801  0.4460
  395MOL0     C52036   2.668   5.750   2.806  0.3413 -0.5618  0.1171
  395MOL0     C52037   2.540   5.811   2.855  0.0798 -0.1152  0.8363
  395MOL0     O52038   2.530   5.951   2.849  0.4157 -0.2704 -0.6804
  395MOL0     C52039   2.416   6.003   2.913 -0.1038 -1.0060  0.4267
  395MOL0     C52040   2.417   6.034   3.043 -1.1343  0.2793  0.0792
  395MOL0     C52041   2.299   6.072   3.104  0.0828 -0.5850 -0.5623
  395MOL0     C52042   2.178   6.100   3.031 -0.7876 -0.0389 -0.0421
  395MOL0     O52043   2.064   6.158   3.087  0.3180  0.5085  0.1141
  395MOL0     C52044   2.055   6.216   3.219  0.2668  0.4594  0.3166
  395MOL0     C52045   1.908   6.187   3.267 -0.1802 -0.3327  0.5108
  395MOL0     C52046   1.815   6.311   3.219  0.7077  0.3089 -0.2818
  395MOL0     C52047   1.672   6.288   3.283 -0.0825 -0.6608 -0.1216
  395MOL0     C52048   1.566   6.400   3.246  0.3268 -0.0984 -0.6447
  395MOL0     C52049   1.426   6.348   3.277 -0.4227 -0.4110 -0.5598
  395MOL0     C52050   1.373   6.266   3.155 -0.0751 -0.4876 -0.0858
  395MOL0     C52051   1.231   6.210   3.200 -0.4301 -0.5526  0.7083
  395MOL0    Cl52052   1.192   6.103   3.069  0.3341 -0.7265 -0.1292
  395MOL0     C52053   2.190   6.079   2.894 -1.4303 -0.3754  0.2118
  395MOL0     C52054   2.302   6.030   2.834  0.0102 -0.8516 -0.1184
  395MOL0     O52055   2.457   5.736   2.898  0.4262 -0.2531  0.0661
  395MOL0     C52056   2.673   5.619   2.771  0.3342  0.4292 -0.3828
  395MOL0     C52057   2.792   5.566   2.721 -0.8986  0.0179  0.0342
  395MOL0     N52058   3.416   5.452   2.303  0.2770  0.2562  0.2828
  395MOL0     N52059   3.488   5.550   2.260  0.6327 -0.0258  0.3694
  395MOL0     C52060   4.795   5.616   2.445 -0.5429 -0.1058  0.6045
  395MOL0     C52061   4.905   5.557   2.494  0.2792 -0.2820 -0.1984
  395MOL0     C52062   5.242   5.299   2.590  0.7964 -0.1170 -0.3351
  395MOL0     C52063   5.212   5.244   2.719 -0.7797 -0.1905 -0.4197
  395MOL0     C52064   5.310   5.186   2.789 -1.6271 -0.0814  0.7719
  395MOL0     C52065   5.444   5.188   2.742  0.4525 -0.0248  0.3336
  395MOL0     O52066   5.554   5.141   2.807  0.2265 -0.0854 -0.0663
  395MOL0     C52067   5.530   5.104   2.943  0.0045 -0.9377 -0.1093
  395MOL0     C52068   5.653   5.089   3.036 -0.4012  0.0826  0.1734
  395MOL0     C52069   5.726   5.228   3.036  0.2336  0.0320 -0.2344
  395MOL0     C52070   5.840   5.223   3.136  0.1757 -0.1181 -0.4420
  395MOL0     C52071   5.945   5.133   3.090 -0.0242 -0.4840  0.0008
  395MOL0     C52072   6.035   5.056   3.054  0.1866  0.4630 -0.4736
  395MOL0     C52073   5.468   5.231   2.610 -0.7137 -0.1020  0.2100
  395MOL0     C52074   5.370   5.297   2.536 -0.3314  0.3600  0.0368
  395MOL0     H52075   4.805   5.231   2.465 -0.7518 -0.1239  2.2113
  395MOL0     H52076   4.588   5.342   2.393  0.2113  0.0357 -0.6347
  395MOL0     H52077   4.607   5.797   2.307  1.1193 -0.7661  0.2981
  395MOL0     H52078   4.563   5.783   2.473  0.6475  3.0500 -1.7197
  395MOL0     H52079   4.384   5.770   2.214 -2.3574  0.8529 -0.2440
  395MOL0     H52080   4.369   5.888   2.351 -1.2927 -0.5114  3.8247
  395MOL0     H52081   4.286   5.728   2.495 -0.2680 -1.2246 -0.2504
  395MOL0     H52082   4.303   5.595   2.377  0.4121 -1.1842  1.4378
  395MOL0     H52083   4.134   5.859   2.374  0.3462  0.5058 -1.8872
  395MOL0     H52084   4.166   5.760   2.225 -1.6320  2.3595 -0.4348
  395MOL0     H52085   4.074   5.649   2.474  0.7372 -1.0320 -0.0242
  395MOL0     H52086   4.063   5.574   2.312  2.4733 -0.7295  1.4442
  395MOL0     H52087   3.902   5.725   2.227 -4.1151 -1.1771  0.5217
  395MOL0     H52088   3.899   5.835   2.362  0.6941 -0.3606  0.1836
  395MOL0     H52089   3.825   5.536   2.379 -2.4470 -1.3264 -0.5256
  395MOL0     H52090   3.810   5.662   2.508  0.8925 -2.4883 -0.0070
  395MOL0     H52091   3.693   5.706   2.244  3.9566  1.2479 -0.0302
  395MOL0     H52092   3.645   5.777   2.404 -0.6656 -0.0951 -0.3187
  395MOL0     H52093   3.628   5.501   2.552  1.5655  0.8774 -2.2763
  395MOL0     H52094   3.455   5.246   2.566 -0.1083  1.4447 -0.3570
  395MOL0     H52095   3.325   5.232   2.449 -2.7730 -0.9190  2.0721
  395MOL0     H52096   3.320   5.400   2.707  0.0341 -1.0860  1.3940
  395MOL0     H52097   3.204   5.280   2.642  0.5204 -1.7087 -3.2617
  395MOL0     H52098   3.256   5.562   2.560  1.5958 -0.8494  3.4863
  395MOL0     H52099   3.189   5.449   2.433 -0.1482  0.7489 -0.2568
  395MOL0     H52100   3.026   5.406   2.663 -1.2211 -1.2126 -1.2545
  395MOL0     H52101   2.982   5.486   2.511  0.2319 -0.8411  0.5052
  395MOL0     H52102   2.993   5.855   2.738 -0.9354  1.7160  2.0312
  395MOL0     H52103   2.781   5.937   2.837  1.0011  1.8624 -2.6882
  395MOL0     H52104   2.502   6.021   3.109 -1.9392  2.5788  1.6874
  395MOL0     H52105   2.300   6.098   3.209  1.3446 -1.5054 -0.3229
  395MOL0     H52106   2.088   6.320   3.227  4.3299 -0.3170 -2.9376
  395MOL0     H52107   2.125   6.161   3.282 -1.3092 -2.2293 -0.1222
  395MOL0     H52108   1.909   6.189   3.376 -0.7290  2.6190  0.5495
  395MOL0     H52109   1.866   6.092   3.232 -3.8108  1.0724  0.6331
  395MOL0     H52110   1.804   6.330   3.112  0.0967 -2.0595 -0.7038
  395MOL0     H52111   1.860   6.401   3.261 -0.7383  1.1546 -0.4668
  395MOL0     H52112   1.638   6.191   3.244 -0.4999 -1.4186  2.0083
  395MOL0     H52113   1.693   6.277   3.390  0.8471 -0.1355 -0.2398
  395MOL0     H52114   1.568   6.433   3.142 -2.0417  1.3082 -0.3180
  395MOL0     H52115   1.576   6.488   3.310 -2.8777 -2.4436  3.5808
  395MOL0     H52116   1.352   6.427   3.294 -0.8206 -1.0251  0.7638
  395MOL0     H52117   1.425   6.283   3.366  1.5961  1.6854  1.1049
  395MOL0     H52118   1.360   6.342   3.078  3.6156  1.0201  0.5842
  395MOL0     H52119   1.440   6.189   3.117 -1.9601 -0.7716 -3.1749
  395MOL0     H52120   1.165   6.293   3.227 -0.4224 -0.0059 -0.8509
  395MOL0     H52121   1.241   6.146   3.288  0.2306  0.0044  1.0542
  395MOL0     H52122   2.102   6.086   2.831 -0.6775  0.3921 -0.7755
  395MOL0     H52123   2.292   6.007   2.729 -0.2576 -0.0347 -0.2788
  395MOL0     H52124   2.588   5.552   2.776  0.2873  0.4095 -1.3190
  395MOL0     H52125   2.790   5.466   2.678 -2.1057  0.3208 -0.6399
  395MOL0     H52126   4.789   5.724   2.436  0.0889 -0.1835 -1.2815
  395MOL0     H52127   4.991   5.623   2.505  0.1818 -0.0047 -1.0041
  395MOL0     H52128   5.114   5.227   2.763  0.3146 -1.2645  1.8024
  395MOL0     H52129   5.294   5.125   2.877 -0.4822 -2.0859 -0.3298
  395MOL0     H52130   5.464   5.017   2.944  1.3674 -1.9953  0.9789
  395MOL0     H52131   5.471   5.183   2.991 -1.3157 -2.3036  0.5941
  395MOL0     H52132   5.615   5.071   3.137  0.3276 -0.9975  0.2697
  395MOL0     H52133   5.711   5.002   3.006 -0.4619 -0.7640  2.3006
  395MOL0     H52134   5.661   5.311   3.065  1.0858  0.4748  0.4268
  395MOL0     H52135   5.762   5.232   2.933 -0.6408 -1.5633 -0.6345
  395MOL0     H52136   5.889   5.319   3.153 -3.0978  1.3853  1.2878
  395MOL0     H52137   5.806   5.201   3.237 -0.7452 -0.1531 -0.7528
  395MOL0     H52138   6.107   4.990   3.011 -0.2717 -0.9726  0.8792
  395MOL0     H52139   5.566   5.221   2.567 -0.7539 -0.3335  0.1717
  395MOL0     H52140   5.379   5.345   2.439 -1.1368 -1.2531 -0.8686
  396MOL0     O52141   3.073   3.478  10.406 -0.0508  0.3995 -0.6445
  396MOL0     C52142   3.085   3.447  10.527  0.4858  0.1431 -1.1400
  396MOL0     O52143   2.982   3.430  10.606  0.4387 -0.4438  0.5931
  396MOL0     C52144   2.857   3.410  10.541 -0.4633  0.1383 -0.4228
  396MOL0     C52145   2.760   3.505  10.539  0.2376  0.3779 -0.2376
  396MOL0     C52146   2.643   3.482  10.465 -0.2183  0.5281 -0.3083
  396MOL0     C52147   2.634   3.360  10.394  0.6889  0.6152  0.0413
  396MOL0     O52148   2.528   3.328  10.309  0.2648 -0.7343 -1.0740
  396MOL0     C52149   2.456   3.447  10.266  0.5506  0.1241  0.6099
  396MOL0     C52150   2.354   3.431  10.157 -0.1908  0.6630 -0.3477
  396MOL0     C52151   2.265   3.311  10.176  0.4926 -0.5380  0.6643
  396MOL0     C52152   2.149   3.334  10.086  0.1522 -0.4046 -0.3726
  396MOL0     C52153   2.035   3.236  10.077  0.9471  0.7158 -0.2544
  396MOL0     C52154   1.915   3.313  10.025  0.2638  0.6337 -0.1059
  396MOL0     C52155   1.786   3.229  10.031  0.1693 -0.2168 -0.4619
  396MOL0     C52156   1.667   3.307   9.966  0.1496  0.6438  0.3946
  396MOL0     N52157   1.536   3.253   9.964  0.1356 -0.6317 -0.2528
  396MOL0     C52158   1.498   3.142   9.896  0.5770 -0.1053  0.5944
  396MOL0     C52159   1.362   3.146   9.905  0.0391 -0.9713 -0.1145
  396MOL0     C52160   1.280   3.028   9.853 -0.1746 -0.6764  0.5420
  396MOL0     C52161   1.264   3.030   9.702  0.6645 -0.1696  0.7874
  396MOL0     C52162   1.212   2.900   9.648 -0.3569  0.3168 -0.3832
  396MOL0     C52163   1.064   2.883   9.687  0.3731 -0.0115 -0.1492
  396MOL0     O52164   0.984   2.964   9.589 -0.1203  0.2890  0.2206
  396MOL0     C52165   0.846   2.969   9.596  0.8865 -0.3389 -0.9811
  396MOL0     C52166   0.778   3.024   9.488 -0.4318 -0.2719  0.5904
  396MOL0     C52167   0.638   3.027   9.484  0.0059 -0.5750  0.0522
  396MOL0     C52168   0.561   2.978   9.594  0.5703  0.0931  0.7615
  396MOL0     C52169   0.409   2.991   9.593 -0.3179  0.5865 -0.2304
  396MOL0     O52170   0.341   2.936   9.695  0.1245 -0.0272  0.4606
  396MOL0     C52171   0.204   2.949   9.690 -0.2728  0.0562 -0.7509
  396MOL0     C52172   0.131   2.833   9.676  0.8594 -0.9152 -0.6979
  396MOL0     C52173  -0.015   2.832   9.677 -0.9518 -0.1051 -0.2893
  396MOL0     C52174  -0.074   2.953   9.689  0.9341  0.4234  0.5272
  396MOL0     O52175  -0.208   2.956   9.679  0.5318  0.0750 -0.1549
  396MOL0     C52176  -0.266   3.075   9.621  1.2578 -0.3260  0.5359
  396MOL0     C52177  -0.412   3.055   9.601 -0.0652  0.1879 -0.5375
  396MOL0     C52178  -0.487   3.048   9.733  0.0709 -0.4809 -0.0212
  396MOL0     C52179  -0.637   3.048   9.697  0.3811  0.8162 -0.5624
  396MOL0     C52180  -0.714   2.979   9.814  0.5596  0.0406 -1.1635
  396MOL0     C52181  -0.700   3.058   9.953 -0.1676  0.0777  0.5216
  396MOL0     C52182  -0.773   3.000  10.076 -0.4581  0.2471  0.1019
  396MOL0     C52183  -0.922   2.969  10.054 -0.0675 -0.1107 -0.6210
  396MOL0    Cl52184  -1.017   3.114   9.993 -0.0842  0.1547  0.1874
  396MOL0     C52185  -0.005   3.069   9.718  0.8529  0.5416  0.4732
  396MOL0     C52186   0.134   3.067   9.710 -0.4101  0.3387 -0.4499
  396MOL0     O52187   0.357   3.047   9.498  0.6423 -0.0728 -0.8190
  396MOL0     C52188   0.623   2.914   9.703 -0.4136 -0.1857 -0.0055
  396MOL0     C52189   0.764   2.913   9.705 -0.1441  0.4806  0.3150
  396MOL0     N52190   1.321   3.257   9.975  0.9990  0.2992 -0.9133
  396MOL0     N52191   1.429   3.317  10.012 -0.5187 -0.5714  0.9586
  396MOL0     C52192   2.728   3.263  10.413 -0.2560 -0.3097  0.4880
  396MOL0     C52193   2.841   3.278  10.486 -0.1924 -0.0786 -0.2972
  396MOL0     C52194   3.224   3.466  10.576  0.0094  0.0708 -0.0230
  396MOL0     C52195   3.317   3.542  10.507 -0.7764 -0.8965  0.4604
  396MOL0     C52196   3.448   3.558  10.548 -0.0228 -0.2023 -0.3553
  396MOL0     C52197   3.495   3.484  10.657 -0.6863 -0.1164 -1.1194
  396MOL0     O52198   3.639   3.478  10.671 -0.2926  0.0222  0.4936
  396MOL0     C52199   3.704   3.391  10.765 -0.3907 -0.4058  0.9835
  396MOL0     C52200   3.850   3.383  10.726 -0.8639  0.8154 -0.0899
  396MOL0     C52201   3.927   3.513  10.732 -0.3520 -0.1446 -0.3984
  396MOL0     C52202   3.957   3.571  10.872 -0.1473 -0.4786 -0.8200
  396MOL0     C52203   4.047   3.478  10.947  0.7270  0.0272 -0.2227
  396MOL0     C52204   4.124   3.401  11.009  0.2470 -0.1629  0.1654
  396MOL0     C52205   3.407   3.407  10.724 -0.1853  0.6614  0.7001
  396MOL0     C52206   3.273   3.403  10.693  0.5669 -0.2780 -0.0256
  396MOL0     H52207   2.793   3.604  10.572  1.7702 -0.5303  1.1095
  396MOL0     H52208   2.574   3.565  10.455  0.5334  1.1022 -0.8358
  396MOL0     H52209   2.538   3.505  10.223 -1.1631  1.2266 -1.3922
  396MOL0     H52210   2.407   3.489  10.354 -2.3539 -2.2259  0.2910
  396MOL0     H52211   2.397   3.423  10.056  0.9325  0.0053  0.1517
  396MOL0     H52212   2.292   3.520  10.158 -2.8990 -1.0722  2.2764
  396MOL0     H52213   2.236   3.291  10.280 -0.5182 -1.5886  0.1932
  396MOL0     H52214   2.324   3.222  10.151  1.7161 -0.2604  2.3604
  396MOL0     H52215   2.118   3.438  10.104  3.0153  0.8220 -1.9037
  396MOL0     H52216   2.178   3.334   9.981 -0.4420 -0.0161 -0.5401
  396MOL0     H52217   2.011   3.192  10.175  0.2113 -1.4389 -1.3532
  396MOL0     H52218   2.056   3.158  10.003  0.6722  1.2952 -0.9431
  396MOL0     H52219   1.953   3.344   9.927  1.1722 -0.5926 -0.1610
  396MOL0     H52220   1.900   3.398  10.092 -1.6513 -2.0699  3.2192
  396MOL0     H52221   1.801   3.133   9.983  0.6476 -1.0206  1.2076
  396MOL0     H52222   1.767   3.220  10.139  2.7803  0.0693  0.0784
  396MOL0     H52223   1.690   3.338   9.864 -0.7101  1.4001  0.4238
  396MOL0     H52224   1.658   3.403  10.017 -3.2922  1.0060 -0.6659
  396MOL0     H52225   1.564   3.070   9.847  1.3887  1.6507 -1.0344
  396MOL0     H52226   1.185   3.031   9.907  0.3123 -0.1704  1.3899
  396MOL0     H52227   1.334   2.938   9.884  0.2253 -0.4864  0.3978
  396MOL0     H52228   1.347   3.067   9.641 -2.1199  3.2287 -1.2600
  396MOL0     H52229   1.192   3.107   9.674  0.1809 -0.3109  1.6056
  396MOL0     H52230   1.232   2.903   9.541  2.4556 -1.0951 -0.0168
  396MOL0     H52231   1.268   2.815   9.690 -0.8260 -1.4306 -3.0537
  396MOL0     H52232   1.029   2.901   9.789  4.1904 -1.1569  1.5423
  396MOL0     H52233   1.040   2.779   9.665  1.1050  0.2270 -2.2250
  396MOL0     H52234   0.836   3.075   9.411 -1.6293  1.3598  0.7166
  396MOL0     H52235   0.596   3.079   9.398  0.5607 -0.2479 -0.0288
  396MOL0     H52236   0.188   2.743   9.658 -0.7201 -1.8304 -1.3049
  396MOL0     H52237  -0.064   2.737   9.658  0.7137 -0.4131 -3.7546
  396MOL0     H52238  -0.218   3.119   9.533  0.4642 -1.6113 -0.5691
  396MOL0     H52239  -0.261   3.154   9.697  0.1606  0.2405  0.0353
  396MOL0     H52240  -0.426   2.971   9.533  1.3217  1.2964 -2.2612
  396MOL0     H52241  -0.462   3.139   9.553 -3.8071 -0.7384  1.3650
  396MOL0     H52242  -0.458   3.134   9.794 -1.0067  2.7524 -3.6378
  396MOL0     H52243  -0.470   2.954   9.786  1.1210  0.9408  2.3112
  396MOL0     H52244  -0.668   3.153   9.697  0.3703  1.0626  4.5628
  396MOL0     H52245  -0.670   2.994   9.608 -2.5130 -1.7971  1.8900
  396MOL0     H52246  -0.688   2.873   9.826 -0.9171 -0.1381  0.9543
  396MOL0     H52247  -0.820   2.969   9.788  0.5140 -2.2357 -0.3383
  396MOL0     H52248  -0.731   3.162   9.935  1.7587  0.5062 -0.5146
  396MOL0     H52249  -0.595   3.067   9.981  0.4595 -2.2216 -0.8914
  396MOL0     H52250  -0.732   2.901  10.099 -2.5218 -0.7604 -0.3609
  396MOL0     H52251  -0.762   3.058  10.169  0.3798  0.6930 -0.2603
  396MOL0     H52252  -0.950   2.949  10.157  0.6492 -2.0674 -0.7612
  396MOL0     H52253  -0.948   2.882   9.993 -2.3065  0.8804 -1.1543
  396MOL0     H52254  -0.054   3.165   9.732  0.9587  0.6212  0.3000
  396MOL0     H52255   0.186   3.159   9.731  0.4476 -0.2265 -0.0369
  396MOL0     H52256   0.564   2.858   9.774  1.3007 -0.0316  1.6259
  396MOL0     H52257   0.818   2.867   9.787  4.3571  2.0422 -1.4892
  396MOL0     H52258   2.737   3.171  10.357  1.1780  1.1566 -1.8610
  396MOL0     H52259   2.923   3.208  10.499  0.2242  0.6186  0.9588
  396MOL0     H52260   3.296   3.586  10.410 -0.8321  1.0903  1.3253
  396MOL0     H52261   3.513   3.608  10.476  0.0839  0.4459  0.1765
  396MOL0     H52262   3.665   3.288  10.758  1.4057 -1.0797  0.2429
  396MOL0     H52263   3.698   3.416  10.871  1.6492  0.0631  1.0184
  396MOL0     H52264   3.881   3.301  10.792 -3.9208 -1.1226 -0.8620
  396MOL0     H52265   3.869   3.349  10.624  2.6396  0.4227  0.5662
  396MOL0     H52266   3.873   3.594  10.682  0.7948  0.6826 -0.3256
  396MOL0     H52267   4.021   3.493  10.680  0.2581 -0.0364  0.6255
  396MOL0     H52268   3.978   3.678  10.863 -3.7646  0.2743 -2.1375
  396MOL0     H52269   3.862   3.577  10.927 -0.5770 -2.3424 -1.3004
  396MOL0     H52270   4.193   3.335  11.057 -1.8836 -1.8668  1.0744
  396MOL0     H52271   3.438   3.359  10.816 -1.0938 -0.0077  0.6690
  396MOL0     H52272   3.203   3.348  10.756  1.2726  1.7601  2.6667
  397MOL0     O52273   7.934   9.767   1.745 -0.5983 -0.2689 -0.2642
  397MOL0     C52274   7.916   9.767   1.622 -0.3999 -0.0615 -0.0561
  397MOL0     O52275   7.814   9.712   1.550 -0.9143  0.4482  0.2367
  397MOL0     C52276   7.706   9.652   1.600 -0.8757 -0.7709 -0.1285
  397MOL0     C52277   7.585   9.676   1.541 -0.6919 -0.8984  0.4840
  397MOL0     C52278   7.465   9.619   1.592 -0.2511  0.5523 -0.4764
  397MOL0     C52279   7.471   9.537   1.700 -0.8115  0.1911 -0.6534
  397MOL0     O52280   7.347   9.501   1.752 -0.7852 -0.5172  0.5884
  397MOL0     C52281   7.330   9.491   1.891  0.5767 -0.0919 -0.7320
  397MOL0     C52282   7.219   9.581   1.940 -0.9327  0.8388 -0.5321
  397MOL0     C52283   7.209   9.560   2.092 -0.5174  0.1832  0.1845
  397MOL0     C52284   7.107   9.653   2.157  0.4613  0.4467 -0.4827
  397MOL0     C52285   7.078   9.613   2.307  0.0902 -0.2584  0.5437
  397MOL0     C52286   6.965   9.707   2.361  0.4497  0.2262 -0.0009
  397MOL0     C52287   7.030   9.846   2.399  0.4026  0.4233 -0.4931
  397MOL0     C52288   6.910   9.926   2.462 -0.3757 -0.2510 -0.0587
  397MOL0     N52289   6.793   9.962   2.378 -0.2127 -0.4872 -0.4658
  397MOL0     C52290   6.790  10.054   2.277 -0.1152  0.1654 -0.2602
  397MOL0     C52291   6.662  10.037   2.228  0.0699 -1.0865  0.4728
  397MOL0     C52292   6.601  10.108   2.101 -0.9106 -0.1296 -0.0372
  397MOL0     C52293   6.443  10.131   2.110  0.9549 -0.1825 -0.1335
  397MOL0     C52294   6.395  10.214   1.991  0.1208 -0.3940 -1.2647
  397MOL0     C52295   6.421  10.151   1.851  0.2763 -0.7163  0.0405
  397MOL0     O52296   6.384  10.228   1.731  0.5830 -0.8052  0.8639
  397MOL0     C52297   6.248  10.245   1.700 -0.6830 -0.0775 -0.3746
  397MOL0     C52298   6.148  10.201   1.784  1.0012  0.3355 -0.2488
  397MOL0     C52299   6.017  10.231   1.759  0.8794  0.5842  0.7160
  397MOL0     C52300   5.976  10.294   1.641 -0.0183  0.7727  0.2405
  397MOL0     C52301   5.834  10.323   1.610  0.0869 -0.1091 -0.3775
  397MOL0     O52302   5.747  10.249   1.689 -0.0791  0.2397 -0.3999
  397MOL0     C52303   5.613  10.286   1.705  0.5129  0.0436  0.3388
  397MOL0     C52304   5.578  10.419   1.693 -0.4183 -0.2206  0.7114
  397MOL0     C52305   5.443  10.452   1.694 -0.0022  0.4658 -0.4654
  397MOL0     C52306   5.344  10.357   1.728  0.3567 -1.0872  0.0864
  397MOL0     O52307   5.217  10.406   1.754  0.5608  1.0681  0.6536
  397MOL0     C52308   5.119  10.307   1.714  0.3338 -0.2635  0.1737
  397MOL0     C52309   4.982  10.386   1.731 -0.3525  0.8490  0.2021
  397MOL0     C52310   4.870  10.296   1.689 -0.6827  0.6960  0.6244
  397MOL0     C52311   4.738  10.363   1.715 -0.2950 -0.5384  0.0551
  397MOL0     C52312   4.632  10.271   1.660  0.4796 -0.2654  0.2459
  397MOL0     C52313   4.504  10.287   1.745  0.8146 -0.0087 -0.2918
  397MOL0     C52314   4.408  10.196   1.691 -0.1194  0.5809 -0.3579
  397MOL0     C52315   4.274  10.237   1.734 -0.5729  0.6470 -0.7345
  397MOL0    Cl52316   4.164  10.124   1.680  0.1582  0.2518 -0.3948
  397MOL0     C52317   5.384  10.224   1.747  0.1603 -0.0750  0.5029
  397MOL0     C52318   5.521  10.189   1.733  0.1473  0.5431 -0.8447
  397MOL0     O52319   5.798  10.405   1.521 -0.4994 -0.5774 -0.0854
  397MOL0     C52320   6.076  10.336   1.559  0.1421  0.1504  0.5559
  397MOL0     C52321   6.215  10.309   1.585 -0.4144  0.3560 -0.4128
  397MOL0     N52322   6.591   9.938   2.291 -0.7010 -0.3743 -0.7542
  397MOL0     N52323   6.671   9.898   2.389  0.0761 -0.4150 -0.0102
  397MOL0     C52324   7.601   9.509   1.752  0.4770  0.8890 -0.1375
  397MOL0     C52325   7.716   9.564   1.706  0.6129 -0.4356 -0.2390
  397MOL0     C52326   8.028   9.826   1.552  0.6117 -1.2919  0.1339
  397MOL0     C52327   8.154   9.870   1.603  0.5453  0.5946  0.1140
  397MOL0     C52328   8.258   9.905   1.520  0.0107 -0.0302  0.5702
  397MOL0     C52329   8.241   9.910   1.385  0.4059  0.4073  0.4062
  397MOL0     O52330   8.336   9.934   1.286  0.3752 -0.3207 -0.2382
  397MOL0     C52331   8.464   9.978   1.336 -0.6471 -0.7551  0.0618
  397MOL0     C52332   8.560  10.037   1.230 -0.0420  0.1718  0.0581
  397MOL0     C52333   8.700  10.061   1.292 -0.7564 -0.8562  0.4416
  397MOL0     C52334   8.808  10.077   1.192  0.1359  0.0375 -0.0080
  397MOL0     C52335   8.821  10.218   1.139 -0.2987  0.6500 -1.4795
  397MOL0     C52336   8.833  10.329   1.103 -0.5960 -0.4163 -1.1760
  397MOL0     C52337   8.113   9.877   1.326 -0.3332  0.3084 -0.0537
  397MOL0     C52338   8.007   9.840   1.410  0.2203 -0.5366  0.2910
  397MOL0     H52339   7.590   9.744   1.457 -0.7024  0.0906  1.2688
  397MOL0     H52340   7.376   9.661   1.548 -1.2274  0.2896  1.1759
  397MOL0     H52341   7.421   9.519   1.944 -1.0279  0.3724  1.9418
  397MOL0     H52342   7.309   9.386   1.911  0.1901  0.1979  0.4709
  397MOL0     H52343   7.121   9.561   1.896 -1.4732  1.6817  0.2778
  397MOL0     H52344   7.249   9.683   1.916  0.7482 -0.3967 -4.5422
  397MOL0     H52345   7.309   9.580   2.132  0.8377 -0.5877 -2.5572
  397MOL0     H52346   7.191   9.454   2.110 -1.8820  0.4946  0.7175
  397MOL0     H52347   7.138   9.758   2.161 -0.2828  0.7320 -1.6277
  397MOL0     H52348   7.008   9.652   2.109  0.0318  0.7265  0.3811
  397MOL0     H52349   7.170   9.616   2.366  0.4590 -1.3029  0.0436
  397MOL0     H52350   7.047   9.509   2.315  2.4394 -0.8566  5.3753
  397MOL0     H52351   6.940   9.667   2.460  0.7558  1.5911  0.6540
  397MOL0     H52352   6.876   9.718   2.299 -0.7080  1.0003  1.7179
  397MOL0     H52353   7.112   9.840   2.471  1.8456  1.5977 -1.9643
  397MOL0     H52354   7.068   9.906   2.316 -2.4969  2.1295 -0.7364
  397MOL0     H52355   6.946  10.017   2.510 -1.5427  0.9133 -1.2918
  397MOL0     H52356   6.875   9.860   2.542 -0.6515 -1.4177 -1.0970
  397MOL0     H52357   6.856  10.135   2.250  1.4667 -1.0136 -0.1307
  397MOL0     H52358   6.629  10.045   2.016 -1.1133 -0.2390 -0.0228
  397MOL0     H52359   6.654  10.204   2.109 -0.9285 -0.2577  2.3419
  397MOL0     H52360   6.424  10.183   2.205  2.3110 -0.4205  0.2883
  397MOL0     H52361   6.388  10.037   2.115  1.0633 -0.1903  2.0137
  397MOL0     H52362   6.290  10.242   2.002  0.0975 -1.3200  1.6235
  397MOL0     H52363   6.461  10.301   2.000  3.8808 -2.9855 -1.4700
  397MOL0     H52364   6.364  10.058   1.854 -0.3157 -0.3414  2.4693
  397MOL0     H52365   6.526  10.121   1.845  0.5056 -0.0400  0.6182
  397MOL0     H52366   6.164  10.147   1.877  2.4495  3.0731  1.2123
  397MOL0     H52367   5.941  10.203   1.831  1.8253  0.0951  1.5599
  397MOL0     H52368   5.651  10.493   1.664  1.6263 -2.4223 -0.1193
  397MOL0     H52369   5.415  10.553   1.669 -2.4965  0.3911  1.5819
  397MOL0     H52370   5.122  10.221   1.781  3.1649 -0.4913 -0.1480
  397MOL0     H52371   5.139  10.273   1.612 -0.7236 -1.0796  0.2189
  397MOL0     H52372   4.984  10.476   1.668 -3.6527 -0.3020 -1.7847
  397MOL0     H52373   4.964  10.398   1.838  3.6908  0.0603  1.1618
  397MOL0     H52374   4.875  10.199   1.738  2.2403 -0.4269 -1.6022
  397MOL0     H52375   4.891  10.280   1.582  2.3718  0.1019  1.2272
  397MOL0     H52376   4.717  10.371   1.822 -0.3641  1.0007 -0.0625
  397MOL0     H52377   4.729  10.463   1.671  1.9474 -0.9348 -1.4664
  397MOL0     H52378   4.662  10.167   1.671 -2.2183 -1.2356 -0.7363
  397MOL0     H52379   4.618  10.285   1.553 -1.5156  2.4472  0.7339
  397MOL0     H52380   4.466  10.389   1.749  0.4273 -0.1940  1.1754
  397MOL0     H52381   4.512  10.266   1.852 -2.6346  2.1619  0.5527
  397MOL0     H52382   4.406  10.194   1.582  2.1551 -3.9909 -0.5717
  397MOL0     H52383   4.437  10.094   1.717 -0.1167  0.1296 -2.0320
  397MOL0     H52384   4.254  10.343   1.714  0.3844  1.1895  0.9535
  397MOL0     H52385   4.276  10.231   1.843  3.3663 -0.0124 -0.6746
  397MOL0     H52386   5.321  10.147   1.790 -0.6469  1.7088  2.6927
  397MOL0     H52387   5.544  10.086   1.758  2.3094  1.3395  0.7747
  397MOL0     H52388   6.059  10.389   1.466  0.9843  0.9946  0.8721
  397MOL0     H52389   6.290  10.332   1.510 -2.1478  0.7521 -2.1313
  397MOL0     H52390   7.602   9.445   1.840  0.9909  2.4535  1.0458
  397MOL0     H52391   7.813   9.551   1.753  0.6050  0.2781 -0.0133
  397MOL0     H52392   8.161   9.861   1.711  1.7061  1.0970  0.0918
  397MOL0     H52393   8.351   9.921   1.574 -1.7295 -0.3522  3.9517
  397MOL0     H52394   8.516   9.892   1.377  0.4125 -0.0191  0.3008
  397MOL0     H52395   8.440  10.057   1.408 -0.3635 -0.2119 -0.4350
  397MOL0     H52396   8.563   9.963   1.149 -2.1591 -1.2534  1.2178
  397MOL0     H52397   8.518  10.133   1.199 -0.6529 -0.4741 -1.2067
  397MOL0     H52398   8.729   9.977   1.357 -1.3816 -2.7947 -1.6516
  397MOL0     H52399   8.696  10.157   1.344 -0.3171 -0.6130  0.0327
  397MOL0     H52400   8.898  10.046   1.246 -0.8619 -1.9550  0.6489
  397MOL0     H52401   8.783  10.012   1.107 -0.7355 -1.9929  1.7166
  397MOL0     H52402   8.851  10.427   1.064  1.3144 -0.0596  0.4184
  397MOL0     H52403   8.099   9.871   1.218 -0.6959 -3.9446  0.0586
  397MOL0     H52404   7.914   9.808   1.365 -0.1481 -0.1562  0.7696
  398MOL0     O52405   5.166   4.813   4.624 -0.4841 -0.2677 -0.1553
  398MOL0     C52406   5.122   4.802   4.506  1.0113 -1.2241  0.8159
  398MOL0     O52407   5.018   4.723   4.469 -0.2610 -0.1800  0.2311
  398MOL0     C52408   4.938   4.652   4.559  0.0212  0.0404 -0.1387
  398MOL0     C52409   4.812   4.632   4.528 -0.0019 -1.0549  0.2906
  398MOL0     C52410   4.723   4.561   4.611  0.2818 -0.0597 -0.4918
  398MOL0     C52411   4.776   4.503   4.720  0.0758  0.2689  0.4080
  398MOL0     O52412   4.692   4.417   4.794 -0.3267  0.1265  0.0100
  398MOL0     C52413   4.601   4.325   4.727  0.8870 -0.1933 -0.1244
  398MOL0     C52414   4.538   4.232   4.832  0.2661  0.5306 -0.1294
  398MOL0     C52415   4.648   4.145   4.895  0.8809  0.7138  0.1381
  398MOL0     C52416   4.577   4.040   4.989 -0.1688  0.0191  0.6547
  398MOL0     C52417   4.686   3.951   5.049 -0.2481 -0.2957  0.0655
  398MOL0     C52418   4.612   3.834   5.127 -0.5540  0.0319 -0.1301
  398MOL0     C52419   4.712   3.751   5.206  0.5023  1.1265  1.0770
  398MOL0     C52420   4.646   3.634   5.292 -0.0346  0.3074 -0.5840
  398MOL0     N52421   4.565   3.688   5.401 -0.1089 -0.2886  0.2488
  398MOL0     C52422   4.433   3.671   5.428 -0.0671  0.6993  0.4532
  398MOL0     C52423   4.402   3.761   5.523 -0.1325 -0.7028  0.1289
  398MOL0     C52424   4.260   3.786   5.570  0.6175  0.0556  0.4290
  398MOL0     C52425   4.249   3.754   5.720 -0.2491 -0.5752 -0.7100
  398MOL0     C52426   4.289   3.613   5.778 -0.9255 -0.7669 -0.6013
  398MOL0     C52427   4.240   3.597   5.923 -0.0850 -0.2893  0.3382
  398MOL0     O52428   4.097   3.576   5.913 -0.4534  0.5185  0.5838
  398MOL0     C52429   4.047   3.446   5.895  0.0758 -0.2626  1.3152
  398MOL0     C52430   4.135   3.338   5.860  1.0592 -0.2580 -0.6226
  398MOL0     C52431   4.079   3.208   5.840  0.3705  0.4446 -0.5749
  398MOL0     C52432   3.940   3.182   5.849 -0.8908  0.6572  0.5046
  398MOL0     C52433   3.893   3.043   5.833 -0.1851 -0.3507 -0.3552
  398MOL0     O52434   3.761   3.021   5.807 -0.2635 -0.5042 -0.7496
  398MOL0     C52435   3.713   2.895   5.817  0.4175  0.0321  0.2012
  398MOL0     C52436   3.729   2.798   5.726 -0.1932  0.1165  1.0170
  398MOL0     C52437   3.664   2.676   5.740 -0.3579  1.1360  0.1317
  398MOL0     C52438   3.570   2.659   5.843 -0.4287  0.5280  0.9953
  398MOL0     O52439   3.501   2.545   5.857  0.2525  0.1099  0.1105
  398MOL0     C52440   3.485   2.498   5.987  0.7916 -0.6764  0.2418
  398MOL0     C52441   3.335   2.498   6.021 -0.0785 -0.3999 -0.1448
  398MOL0     C52442   3.299   2.445   6.158 -0.5155 -0.1817 -0.1419
  398MOL0     C52443   3.385   2.321   6.204  0.7136  0.0446 -0.2724
  398MOL0     C52444   3.343   2.283   6.346  0.1596  0.0745  0.0290
  398MOL0     C52445   3.413   2.355   6.459  0.1091  0.1010  0.4573
  398MOL0     C52446   3.339   2.316   6.597  0.0546 -0.6638 -0.8995
  398MOL0     C52447   3.425   2.345   6.714 -0.6109  0.9058 -0.3497
  398MOL0    Cl52448   3.519   2.496   6.696 -0.6650 -0.1249  0.5048
  398MOL0     C52449   3.541   2.766   5.930 -0.3378  0.3252 -0.1519
  398MOL0     C52450   3.630   2.877   5.917  0.2362 -0.3350 -0.1534
  398MOL0     O52451   3.981   2.955   5.841 -0.1728  0.6950 -0.0015
  398MOL0     C52452   3.858   3.287   5.886  0.1769  1.1240 -1.1579
  398MOL0     C52453   3.910   3.413   5.899  0.1736  0.0396 -0.2752
  398MOL0     N52454   4.512   3.829   5.557  0.2729 -0.3552  0.5627
  398MOL0     N52455   4.617   3.775   5.496 -0.4418 -0.4394  0.1673
  398MOL0     C52456   4.905   4.526   4.763 -0.1242  0.8863 -0.2903
  398MOL0     C52457   4.992   4.600   4.679 -0.0944  0.2124 -0.1180
  398MOL0     C52458   5.192   4.887   4.396 -0.3269  0.2932 -1.3480
  398MOL0     C52459   5.118   4.924   4.287  0.1597 -0.5089  0.3370
  398MOL0     C52460   5.170   5.006   4.185  0.0274  0.2539 -0.1193
  398MOL0     C52461   5.304   5.044   4.190 -1.0919 -0.4736  0.1288
  398MOL0     O52462   5.359   5.127   4.090  0.0696  0.2260 -0.1107
  398MOL0     C52463   5.497   5.105   4.051  0.9960  0.2362 -0.2501
  398MOL0     C52464   5.538   5.152   3.917 -0.4248  1.0296 -0.0240
  398MOL0     C52465   5.611   5.287   3.929 -1.1086  0.8312  0.2666
  398MOL0     C52466   5.512   5.396   3.958 -0.6990  0.3774 -0.2941
  398MOL0     C52467   5.578   5.524   3.953  0.2717  0.6943 -0.2299
  398MOL0     C52468   5.651   5.616   3.962  0.0391 -1.0289  0.3433
  398MOL0     C52469   5.388   4.998   4.299  0.0526 -0.4722  1.0302
  398MOL0     C52470   5.326   4.933   4.408  0.4251  0.8089  0.5192
  398MOL0     H52471   4.777   4.661   4.430 -3.4330 -4.1602  0.4135
  398MOL0     H52472   4.620   4.540   4.586 -0.3915 -1.5533  2.9440
  398MOL0     H52473   4.664   4.267   4.660  1.4627 -1.1282  1.1818
  398MOL0     H52474   4.515   4.374   4.681 -2.9276 -4.5735  1.6392
  398MOL0     H52475   4.460   4.182   4.775 -0.9478  1.9271  0.2236
  398MOL0     H52476   4.487   4.287   4.912  2.4205  1.0755  0.9772
  398MOL0     H52477   4.727   4.205   4.942  1.6654  2.2932 -2.9363
  398MOL0     H52478   4.702   4.092   4.816 -0.2532 -1.9040  1.0157
  398MOL0     H52479   4.525   4.082   5.075  1.6119  0.6636  1.4506
  398MOL0     H52480   4.508   3.979   4.929  1.3963 -0.6360 -0.5653
  398MOL0     H52481   4.763   4.003   5.107  0.9565 -0.2893 -1.4700
  398MOL0     H52482   4.741   3.903   4.968  0.1329  0.4949 -0.1527
  398MOL0     H52483   4.560   3.769   5.056 -0.7387 -0.2247  0.2380
  398MOL0     H52484   4.535   3.876   5.193  0.8328  2.2423  0.1658
  398MOL0     H52485   4.775   3.707   5.129 -2.0892  0.9145 -1.0476
  398MOL0     H52486   4.763   3.814   5.280  1.6010  0.1782  1.1551
  398MOL0     H52487   4.727   3.577   5.337 -0.1420  1.2666  0.9130
  398MOL0     H52488   4.581   3.564   5.239  0.2523 -0.9997  0.7249
  398MOL0     H52489   4.364   3.595   5.393  2.0953 -0.7699 -0.8844
  398MOL0     H52490   4.194   3.722   5.511  0.1362  0.7866  0.1633
  398MOL0     H52491   4.227   3.889   5.552  4.4248  1.3436 -0.1192
  398MOL0     H52492   4.141   3.770   5.731 -0.1038 -0.9624  1.9130
  398MOL0     H52493   4.298   3.832   5.779  0.0478 -2.8820  2.3655
  398MOL0     H52494   4.247   3.530   5.720 -2.3533 -0.8526  0.4913
  398MOL0     H52495   4.397   3.597   5.781 -1.0002 -1.1440  0.1798
  398MOL0     H52496   4.257   3.691   5.974 -0.8969  1.2907 -2.1230
  398MOL0     H52497   4.293   3.518   5.977  0.5391  1.4941  2.4597
  398MOL0     H52498   4.243   3.350   5.851  1.1984  0.1555  1.2855
  398MOL0     H52499   4.156   3.134   5.819 -2.6554 -2.7498 -1.2434
  398MOL0     H52500   3.792   2.799   5.637 -1.1021  0.4626  0.3533
  398MOL0     H52501   3.685   2.591   5.676  0.3900  0.7854  0.8294
  398MOL0     H52502   3.538   2.559   6.061  2.0304  2.0227 -2.6354
  398MOL0     H52503   3.516   2.393   5.990 -0.1036 -0.9763 -0.5024
  398MOL0     H52504   3.286   2.444   5.939  1.5298 -0.1705 -1.3135
  398MOL0     H52505   3.302   2.603   6.022  2.9464  0.7194 -2.5786
  398MOL0     H52506   3.193   2.418   6.151 -0.2641 -0.7182 -2.7333
  398MOL0     H52507   3.314   2.525   6.231  1.9401 -0.4946 -0.2218
  398MOL0     H52508   3.367   2.240   6.133 -1.8415  1.6479 -1.6102
  398MOL0     H52509   3.490   2.350   6.211  0.0298  2.6943 -0.0427
  398MOL0     H52510   3.353   2.174   6.357  1.3631  0.1007 -0.6414
  398MOL0     H52511   3.237   2.310   6.346  0.1062  0.0215 -1.9560
  398MOL0     H52512   3.402   2.464   6.446 -2.4143  0.2904  3.0450
  398MOL0     H52513   3.520   2.334   6.460  0.2001  0.4402 -0.6710
  398MOL0     H52514   3.248   2.376   6.596 -0.3419 -0.9778 -5.5282
  398MOL0     H52515   3.297   2.216   6.608 -0.2434 -0.4257  0.2815
  398MOL0     H52516   3.489   2.258   6.732 -2.4496 -0.0873  1.9829
  398MOL0     H52517   3.356   2.368   6.796 -0.9836 -0.7215 -0.1739
  398MOL0     H52518   3.463   2.769   6.005  0.0044  0.3195  0.2109
  398MOL0     H52519   3.631   2.962   5.985  3.1391 -0.7432  0.4227
  398MOL0     H52520   3.750   3.272   5.893 -0.2445  2.0577 -4.3682
  398MOL0     H52521   3.852   3.503   5.919  0.5939 -0.1081  1.7628
  398MOL0     H52522   4.957   4.488   4.850  2.0742  3.8962 -0.1582
  398MOL0     H52523   5.095   4.614   4.711 -0.2821 -0.2993  0.7548
  398MOL0     H52524   5.020   4.881   4.269  0.0740 -1.3559  2.5183
  398MOL0     H52525   5.106   5.031   4.101 -0.7973  0.7023  0.6264
  398MOL0     H52526   5.512   4.997   4.054  1.9345  0.3655  0.0927
  398MOL0     H52527   5.568   5.145   4.124  0.8988 -0.4866  0.2405
  398MOL0     H52528   5.604   5.073   3.879 -1.2725  1.2533 -2.0879
  398MOL0     H52529   5.453   5.164   3.849  0.0972  1.5945 -0.5891
  398MOL0     H52530   5.668   5.312   3.839  2.5097  0.4355  2.2604
  398MOL0     H52531   5.686   5.276   4.007  0.2658  0.4419 -1.0536
  398MOL0     H52532   5.427   5.381   3.890 -2.6405  0.1273  2.0517
  398MOL0     H52533   5.481   5.373   4.061 -0.4424 -1.4488 -0.5808
  398MOL0     H52534   5.723   5.694   3.947  0.8269 -1.4758  1.6172
  398MOL0     H52535   5.494   5.020   4.303  0.6404 -3.0336  1.1070
  398MOL0     H52536   5.381   4.916   4.501 -0.9014  2.0754  1.5805
  399MOL0     O52537  10.525   3.692   9.050  0.2039  0.1387  0.1658
  399MOL0     C52538  10.525   3.723   8.929  0.1313 -0.2542  0.4391
  399MOL0     O52539  10.412   3.712   8.843 -0.7487 -0.2761  1.0374
  399MOL0     C52540  10.302   3.652   8.905  0.0283 -1.1706 -0.8496
  399MOL0     C52541  10.265   3.530   8.860 -0.9973 -0.7228 -0.4610
  399MOL0     C52542  10.164   3.456   8.923 -1.2177 -0.2110 -0.0545
  399MOL0     C52543  10.091   3.502   9.039  0.0793  0.2294  0.5857
  399MOL0     O52544   9.986   3.428   9.093 -0.1689  0.6710 -0.2540
  399MOL0     C52545   9.877   3.494   9.160  0.5274  0.1053  0.4560
  399MOL0     C52546   9.885   3.472   9.311 -0.2875  0.4425  0.3522
  399MOL0     C52547   9.768   3.530   9.392 -0.5541  0.0484  0.4920
  399MOL0     C52548   9.727   3.676   9.372 -0.3858  0.8163 -0.1835
  399MOL0     C52549   9.617   3.724   9.462 -0.3756 -0.0799 -0.6215
  399MOL0     C52550   9.496   3.629   9.476  0.4413  1.2002  0.1123
  399MOL0     C52551   9.376   3.673   9.555  0.2132 -1.2777  0.6898
  399MOL0     C52552   9.412   3.701   9.693 -0.2301  0.6084 -0.7678
  399MOL0     N52553   9.299   3.737   9.785  1.0060  0.5094 -0.4066
  399MOL0     C52554   9.196   3.648   9.811  0.6665 -0.4387  1.0336
  399MOL0     C52555   9.112   3.717   9.889 -0.1218 -0.4477 -0.2540
  399MOL0     C52556   8.998   3.655   9.963  0.0418  0.4528  0.1189
  399MOL0     C52557   8.861   3.696   9.899  0.0880  0.2911 -0.5344
  399MOL0     C52558   8.844   3.628   9.769 -0.2837  0.2128 -0.9300
  399MOL0     C52559   8.702   3.662   9.714 -0.2170 -0.8289  0.6847
  399MOL0     O52560   8.591   3.631   9.805  0.7785 -0.4868  0.0327
  399MOL0     C52561   8.460   3.654   9.756  0.5566  0.0646  0.5015
  399MOL0     C52562   8.432   3.780   9.704 -0.9089 -0.0786 -0.2071
  399MOL0     C52563   8.311   3.831   9.656 -0.5349 -0.0313  0.0045
  399MOL0     C52564   8.205   3.742   9.668  0.2065  0.0249 -0.7717
  399MOL0     C52565   8.069   3.788   9.641 -0.1144  0.7726 -0.1253
  399MOL0     O52566   8.047   3.924   9.639  0.0204 -0.0099  0.8545
  399MOL0     C52567   7.933   3.963   9.570 -0.2314 -0.4804 -0.1185
  399MOL0     C52568   7.893   3.894   9.454 -0.6980 -0.4217 -0.3270
  399MOL0     C52569   7.768   3.922   9.401  0.3394 -0.0271 -0.0764
  399MOL0     C52570   7.682   4.023   9.454  0.0548 -0.9187  0.1888
  399MOL0     O52571   7.557   4.047   9.408  0.5091 -0.4487  0.4728
  399MOL0     C52572   7.476   3.956   9.332 -0.2308 -0.6485  0.0987
  399MOL0     C52573   7.334   4.027   9.315  0.4569 -0.3711  0.6527
  399MOL0     C52574   7.230   3.915   9.274  0.0307  1.1367 -0.6863
  399MOL0     C52575   7.266   3.888   9.127  0.1166 -0.4527  0.4737
  399MOL0     C52576   7.144   3.835   9.051  0.4240  0.7313  0.1029
  399MOL0     C52577   7.013   3.920   9.068 -0.8980  0.3761  0.7431
  399MOL0     C52578   7.023   4.070   9.037  0.3623 -0.1947  0.2288
  399MOL0     C52579   6.899   4.127   8.987 -0.5512 -0.5010  0.3545
  399MOL0    Cl52580   6.943   4.314   8.983 -0.3048 -0.3584  0.4381
  399MOL0     C52581   7.726   4.103   9.549  0.4856 -0.8030 -0.7733
  399MOL0     C52582   7.855   4.067   9.605 -0.6224  0.1066 -0.7722
  399MOL0     O52583   7.985   3.702   9.623 -0.2637  0.2098 -0.2716
  399MOL0     C52584   8.230   3.609   9.719 -0.0611 -0.4944 -0.5386
  399MOL0     C52585   8.357   3.566   9.758 -1.1614 -0.0108  0.1017
  399MOL0     N52586   9.170   3.843   9.914 -0.1261 -0.4499  0.1518
  399MOL0     N52587   9.272   3.860   9.842  0.1780  0.6361  0.1564
  399MOL0     C52588  10.137   3.628   9.091  0.2848  0.7352 -0.4070
  399MOL0     C52589  10.231   3.702   9.015 -0.8512  0.3378 -0.2180
  399MOL0     C52590  10.652   3.788   8.878 -0.6613 -0.7671 -0.2204
  399MOL0     C52591  10.649   3.846   8.745 -0.2692  0.2627  0.0058
  399MOL0     C52592  10.761   3.914   8.689 -0.0481  0.6845 -0.3518
  399MOL0     C52593  10.867   3.939   8.772 -0.7263  0.7564 -0.4623
  399MOL0     O52594  10.968   4.031   8.745 -0.5423 -0.3301 -0.7332
  399MOL0     C52595  11.021   4.028   8.617  0.3868  0.2074  0.1306
  399MOL0     C52596  11.113   4.146   8.604  0.7822 -0.1210 -0.1336
  399MOL0     C52597  11.254   4.098   8.567  0.0344  0.5984 -0.5872
  399MOL0     C52598  11.266   4.041   8.420  0.0454  0.6237 -0.2597
  399MOL0     C52599  11.271   4.155   8.320 -0.8705 -0.7756 -0.4154
  399MOL0     C52600  11.284   4.239   8.229 -0.3520  0.4689  0.2127
  399MOL0     C52601  10.881   3.876   8.897  0.7331 -0.4572  0.1643
  399MOL0     C52602  10.771   3.806   8.952 -1.5460  0.8615 -0.1462
  399MOL0     H52603  10.315   3.489   8.773  1.6545 -0.7143  0.9590
  399MOL0     H52604  10.145   3.361   8.874  2.6639 -0.9831 -0.3718
  399MOL0     H52605   9.785   3.442   9.133  2.1128 -2.1480 -1.0058
  399MOL0     H52606   9.855   3.599   9.141 -0.6917 -0.4865 -1.6641
  399MOL0     H52607   9.983   3.510   9.342  0.1028  0.2024 -0.5747
  399MOL0     H52608   9.879   3.366   9.336  0.6687 -0.3880 -2.5706
  399MOL0     H52609   9.796   3.517   9.497 -0.7748 -0.8848  0.4434
  399MOL0     H52610   9.683   3.468   9.362  0.2335 -0.3576 -1.0562
  399MOL0     H52611   9.810   3.740   9.404  0.4991 -0.4083  0.0620
  399MOL0     H52612   9.702   3.695   9.267 -0.4624  2.2099  0.0731
  399MOL0     H52613   9.583   3.825   9.434  2.3304  0.8395 -0.9323
  399MOL0     H52614   9.667   3.732   9.559  1.4356 -0.4412 -1.4811
  399MOL0     H52615   9.539   3.542   9.527 -2.3658 -0.2074  0.3252
  399MOL0     H52616   9.468   3.593   9.376  0.1059 -1.6328  1.1328
  399MOL0     H52617   9.341   3.764   9.506  2.7291 -0.8556 -0.5179
  399MOL0     H52618   9.293   3.601   9.551 -0.2339 -0.7362 -2.6204
  399MOL0     H52619   9.475   3.790   9.699 -0.1633  0.4925  0.4317
  399MOL0     H52620   9.470   3.618   9.734 -1.9533 -0.0179  0.5020
  399MOL0     H52621   9.188   3.545   9.776  1.8129  0.1121 -1.0049
  399MOL0     H52622   8.996   3.693  10.065  0.3565  0.1773  0.2275
  399MOL0     H52623   9.015   3.549   9.979 -0.2146  0.2780 -0.7041
  399MOL0     H52624   8.841   3.803   9.896 -1.3878  0.0381 -0.6018
  399MOL0     H52625   8.782   3.643   9.953 -0.3588  0.0444 -1.4134
  399MOL0     H52626   8.913   3.666   9.693 -0.1897  0.5859 -0.6629
  399MOL0     H52627   8.859   3.520   9.777 -0.0719  0.3474  1.1991
  399MOL0     H52628   8.686   3.602   9.624 -2.2550  1.0468 -0.3050
  399MOL0     H52629   8.695   3.766   9.678  0.8751  0.4557  3.8097
  399MOL0     H52630   8.509   3.857   9.704 -1.4252  0.4629  0.8600
  399MOL0     H52631   8.310   3.933   9.618  2.2110 -0.5996 -1.9130
  399MOL0     H52632   7.950   3.814   9.407  0.8129  2.3426 -3.6158
  399MOL0     H52633   7.729   3.865   9.318 -4.1267  0.7495  1.2380
  399MOL0     H52634   7.480   3.856   9.376  1.5705  0.8442  3.7586
  399MOL0     H52635   7.518   3.947   9.231  0.3290  0.0136  0.2613
  399MOL0     H52636   7.329   4.106   9.240 -3.1850 -1.0091  0.0311
  399MOL0     H52637   7.308   4.061   9.416  1.7835  0.3602  0.7703
  399MOL0     H52638   7.132   3.960   9.288 -0.0455  1.3849 -1.9541
  399MOL0     H52639   7.254   3.824   9.331 -0.2283  0.6137 -1.3949
  399MOL0     H52640   7.298   3.976   9.069  0.1221  0.1519  1.3756
  399MOL0     H52641   7.349   3.817   9.117  0.2144 -0.1755 -0.9598
  399MOL0     H52642   7.117   3.735   9.086  1.2659 -0.1416 -1.6402
  399MOL0     H52643   7.167   3.814   8.946  0.5325  1.0809  0.0535
  399MOL0     H52644   6.982   3.914   9.172 -0.6794 -1.3689  0.7363
  399MOL0     H52645   6.931   3.872   9.013 -1.0136 -0.3577  1.5459
  399MOL0     H52646   7.039   4.120   9.133 -3.9306  0.1927  0.9402
  399MOL0     H52647   7.109   4.092   8.972  1.1042 -1.4001  0.7584
  399MOL0     H52648   6.811   4.095   9.042 -0.3827  1.2800  1.7513
  399MOL0     H52649   6.896   4.098   8.882 -0.7644 -3.1149  1.0187
  399MOL0     H52650   7.660   4.179   9.590 -0.9775 -2.6420  0.4222
  399MOL0     H52651   7.889   4.133   9.685 -0.4503 -2.9371  1.8727
  399MOL0     H52652   8.146   3.543   9.743 -0.5894 -0.0272 -1.0606
  399MOL0     H52653   8.373   3.471   9.809 -4.2860 -0.9316 -0.3769
  399MOL0     H52654  10.101   3.681   9.178  0.3260  1.4906 -0.8425
  399MOL0     H52655  10.261   3.796   9.060  2.6728 -0.0325 -1.4258
  399MOL0     H52656  10.549   3.839   8.704  0.0093  1.7588 -1.0119
  399MOL0     H52657  10.767   3.961   8.591  2.5772  2.4335  0.5564
  399MOL0     H52658  10.940   4.041   8.544  0.7103  1.0350 -0.0986
  399MOL0     H52659  11.072   3.933   8.607 -3.2601 -2.2305  2.3113
  399MOL0     H52660  11.077   4.216   8.529 -5.1483 -1.6368  0.8289
  399MOL0     H52661  11.109   4.198   8.700  1.5060  1.0687 -0.7304
  399MOL0     H52662  11.281   4.019   8.637 -2.4985 -1.1359 -1.4427
  399MOL0     H52663  11.329   4.175   8.586  2.9799 -2.1034 -0.4412
  399MOL0     H52664  11.355   3.978   8.411 -0.5268 -0.6520  2.1277
  399MOL0     H52665  11.178   3.984   8.389 -0.6755  0.1265  2.4076
  399MOL0     H52666  11.285   4.302   8.143  1.1411 -2.7029 -2.2776
  399MOL0     H52667  10.970   3.892   8.957  1.1127  0.5162 -0.6242
  399MOL0     H52668  10.778   3.768   9.053  4.2678  3.4849  0.8722
  400MOL0     O52669   5.476   8.784   3.107  0.1627 -0.3930 -0.3880
  400MOL0     C52670   5.567   8.807   3.030  0.0751 -0.4444  0.0429
  400MOL0     O52671   5.611   8.720   2.938 -0.6535  0.3938  0.6163
  400MOL0     C52672   5.558   8.590   2.923  0.1141 -1.1630  0.1337
  400MOL0     C52673   5.532   8.539   2.796  1.0868 -0.5693 -0.2682
  400MOL0     C52674   5.494   8.400   2.781  0.1676  0.9989  0.1684
  400MOL0     C52675   5.488   8.316   2.891 -0.9627  0.2675 -0.1677
  400MOL0     O52676   5.463   8.182   2.889 -0.1693  0.6656 -0.2905
  400MOL0     C52677   5.495   8.103   2.766  0.4388  0.9566 -0.8732
  400MOL0     C52678   5.512   7.967   2.814  0.3270 -0.2790 -0.2210
  400MOL0     C52679   5.374   7.909   2.842 -0.4487  0.0126 -0.1343
  400MOL0     C52680   5.389   7.793   2.942 -0.4760 -0.4337 -0.1599
  400MOL0     C52681   5.266   7.717   2.955  0.3436 -0.1900  0.4032
  400MOL0     C52682   5.286   7.590   3.046  0.6762 -0.7097  0.9502
  400MOL0     C52683   5.154   7.519   3.092  0.6495 -0.4829  0.6898
  400MOL0     C52684   5.052   7.491   2.968 -0.4697  0.5625 -0.6590
  400MOL0     N52685   4.945   7.393   3.002 -0.2986 -0.1129 -1.0432
  400MOL0     C52686   4.811   7.420   3.020 -0.4044 -0.5500  0.7086
  400MOL0     C52687   4.754   7.297   3.035  0.0641 -0.1326  0.5048
  400MOL0     C52688   4.606   7.296   3.046  0.6425  0.1915 -0.1844
  400MOL0     C52689   4.538   7.296   2.904  0.4857 -0.1424  0.1628
  400MOL0     C52690   4.387   7.311   2.910 -0.5531 -0.0121  1.3990
  400MOL0     C52691   4.348   7.329   2.762  0.2869  0.7834  0.4278
  400MOL0     O52692   4.228   7.408   2.767 -0.3216 -1.0557 -0.2862
  400MOL0     C52693   4.114   7.340   2.734 -0.2406 -0.1250 -0.0381
  400MOL0     C52694   4.089   7.205   2.763  0.3679  0.9854  0.3961
  400MOL0     C52695   3.964   7.151   2.729 -0.2790  0.2847  0.6624
  400MOL0     C52696   3.861   7.225   2.678 -0.3110 -0.4871 -0.0970
  400MOL0     C52697   3.735   7.162   2.623 -0.2778 -0.0526 -0.3781
  400MOL0     O52698   3.656   7.236   2.541  0.4034  1.0768 -0.3721
  400MOL0     C52699   3.526   7.198   2.495 -1.2383 -0.2020  0.4307
  400MOL0     C52700   3.482   7.297   2.406 -0.2827  0.3499  0.1559
  400MOL0     C52701   3.366   7.267   2.326 -0.3293  0.8424  0.4183
  400MOL0     C52702   3.286   7.151   2.366 -0.9289 -0.2550  0.2369
  400MOL0     O52703   3.164   7.124   2.314 -0.5893 -0.3505 -0.0129
  400MOL0     C52704   3.067   7.227   2.351  0.3769 -0.4591  0.8589
  400MOL0     C52705   3.001   7.189   2.480 -0.7652  0.4948 -0.0302
  400MOL0     C52706   2.926   7.048   2.469 -0.2363  0.1866  0.4427
  400MOL0     C52707   2.790   7.061   2.394 -0.6584  0.1279  0.4991
  400MOL0     C52708   2.705   7.182   2.422 -0.1266  0.3524  0.2779
  400MOL0     C52709   2.653   7.180   2.563  1.4317 -0.2496 -0.8472
  400MOL0     C52710   2.591   7.316   2.612 -0.1135 -0.3925  0.1286
  400MOL0     C52711   2.472   7.368   2.529  0.7251 -0.0094  0.6094
  400MOL0    Cl52712   2.422   7.519   2.597 -0.0958 -0.0585 -0.3046
  400MOL0     C52713   3.322   7.066   2.471  0.7215 -0.9974 -0.1908
  400MOL0     C52714   3.443   7.095   2.536 -0.7513 -0.0719  0.3106
  400MOL0     O52715   3.708   7.046   2.664  0.0006 -0.2800 -0.3657
  400MOL0     C52716   3.892   7.360   2.646  0.4911 -0.8353 -0.7082
  400MOL0     C52717   4.011   7.417   2.685  0.1005  0.0407  1.0433
  400MOL0     N52718   4.846   7.200   3.033  0.1751  0.5152  0.3280
  400MOL0     N52719   4.961   7.252   3.008 -0.2471  0.1860  0.4204
  400MOL0     C52720   5.518   8.376   3.016 -0.4107  0.0685 -0.1774
  400MOL0     C52721   5.559   8.510   3.036  0.4179 -0.6901  0.3849
  400MOL0     C52722   5.652   8.927   3.054  0.4694  0.6558  0.1016
  400MOL0     C52723   5.601   9.048   3.112  0.8829  0.3038 -0.7550
  400MOL0     C52724   5.683   9.157   3.136  0.2028  0.6481 -0.2192
  400MOL0     C52725   5.821   9.149   3.116 -0.0064  0.1684  0.0442
  400MOL0     O52726   5.893   9.255   3.163  0.1072  0.1114 -0.8607
  400MOL0     C52727   6.012   9.214   3.237  0.1870  0.8136  0.2673
  400MOL0     C52728   5.989   9.109   3.346 -0.0642 -0.3464 -0.0472
  400MOL0     C52729   5.888   9.134   3.460  0.6265 -0.7171  0.0627
  400MOL0     C52730   5.923   9.261   3.541 -0.0238 -0.9786  0.4660
  400MOL0     C52731   6.061   9.273   3.603 -0.4461  0.1894 -0.6318
  400MOL0     C52732   6.164   9.286   3.665  0.5697 -0.0138 -0.5152
  400MOL0     C52733   5.869   9.035   3.041 -0.0832 -0.8367 -0.7701
  400MOL0     C52734   5.783   8.923   3.025 -0.3875 -0.3690 -0.4730
  400MOL0     H52735   5.528   8.603   2.708 -2.6604  0.2166  0.3337
  400MOL0     H52736   5.476   8.360   2.681  2.1481 -0.9942  0.5348
  400MOL0     H52737   5.583   8.142   2.716  0.7849 -0.3518 -1.3277
  400MOL0     H52738   5.424   8.107   2.683 -0.0210 -1.4168 -0.6783
  400MOL0     H52739   5.562   7.971   2.912  2.1673  0.5195 -1.1316
  400MOL0     H52740   5.559   7.904   2.738 -2.2268 -3.7466  0.8241
  400MOL0     H52741   5.341   7.859   2.750  3.0643 -1.1137 -0.9187
  400MOL0     H52742   5.297   7.981   2.870  0.9990  0.3227  3.5158
  400MOL0     H52743   5.477   7.737   2.910 -0.3146  1.6770 -4.0318
  400MOL0     H52744   5.406   7.829   3.044 -2.8433 -0.4826  0.3186
  400MOL0     H52745   5.228   7.690   2.856 -1.2493  0.6941  0.7439
  400MOL0     H52746   5.180   7.776   2.987 -1.4262 -2.0174 -0.7241
  400MOL0     H52747   5.334   7.621   3.139  0.3069 -1.9918  1.5972
  400MOL0     H52748   5.359   7.527   2.994  1.6215  2.2381 -1.5567
  400MOL0     H52749   5.175   7.425   3.143 -1.2087 -2.8349 -2.4883
  400MOL0     H52750   5.108   7.587   3.165 -4.6108 -1.8243 -0.9031
  400MOL0     H52751   5.105   7.438   2.888 -1.2549  1.8924 -2.1237
  400MOL0     H52752   5.009   7.582   2.925  0.8255  1.2514 -0.5512
  400MOL0     H52753   4.771   7.518   2.996  2.6121  0.4362 -0.8526
  400MOL0     H52754   4.576   7.380   3.109  1.6883  1.5370 -1.3979
  400MOL0     H52755   4.578   7.206   3.101 -0.4401  0.1763 -0.7388
  400MOL0     H52756   4.562   7.196   2.868  0.6036 -0.5806  1.4078
  400MOL0     H52757   4.589   7.377   2.851  1.7495 -1.2981 -0.4361
  400MOL0     H52758   4.342   7.219   2.949 -1.1730 -0.2267  0.2360
  400MOL0     H52759   4.360   7.400   2.968 -1.0983  0.5745  0.2708
  400MOL0     H52760   4.337   7.231   2.715  0.1991  1.0947 -0.2029
  400MOL0     H52761   4.427   7.388   2.714  3.5884 -3.2807  0.3006
  400MOL0     H52762   4.157   7.136   2.812 -0.9931 -0.3537  0.4976
  400MOL0     H52763   3.946   7.046   2.749  1.0790  0.2599  1.9108
  400MOL0     H52764   3.527   7.394   2.388  0.8024  0.0949  1.3855
  400MOL0     H52765   3.335   7.331   2.244 -2.4034 -1.2813 -0.5656
  400MOL0     H52766   3.000   7.228   2.265  2.4010  2.7615 -0.8732
  400MOL0     H52767   3.115   7.325   2.363 -0.3091  0.0529 -0.3973
  400MOL0     H52768   2.937   7.265   2.526 -0.3232 -0.6912  2.7313
  400MOL0     H52769   3.079   7.187   2.557 -0.4010  4.5156 -0.0670
  400MOL0     H52770   2.905   7.001   2.565 -1.7237  1.7734  0.9236
  400MOL0     H52771   2.990   6.983   2.407  2.6222  1.9929  1.2783
  400MOL0     H52772   2.799   7.064   2.285 -0.1415 -0.1848  0.5294
  400MOL0     H52773   2.738   6.970   2.424  0.3404 -0.4607  0.5086
  400MOL0     H52774   2.614   7.171   2.362 -1.6348 -0.1765  2.5313
  400MOL0     H52775   2.761   7.273   2.398  3.6629 -2.3107 -2.2588
  400MOL0     H52776   2.740   7.155   2.625  1.2251 -1.9976 -1.2019
  400MOL0     H52777   2.582   7.097   2.576  0.1615  1.0283  0.7510
  400MOL0     H52778   2.562   7.302   2.716 -0.2619  0.8797  0.2667
  400MOL0     H52779   2.671   7.390   2.611 -1.5012  1.1931 -0.9320
  400MOL0     H52780   2.389   7.297   2.522 -1.7195  2.6469  0.4699
  400MOL0     H52781   2.505   7.393   2.428  2.4029  0.3747  1.2234
  400MOL0     H52782   3.270   6.973   2.492  0.0902 -0.8198 -0.8972
  400MOL0     H52783   3.475   7.028   2.616 -1.4989  1.6352  2.1309
  400MOL0     H52784   3.819   7.427   2.601 -0.1904 -1.9519 -1.3155
  400MOL0     H52785   4.031   7.520   2.657 -1.5668  0.3373  0.8212
  400MOL0     H52786   5.536   8.311   3.101 -2.2484  1.2937  1.2331
  400MOL0     H52787   5.585   8.543   3.136 -2.5959  0.1200  0.9874
  400MOL0     H52788   5.497   9.055   3.142  0.0918 -0.4605 -3.1019
  400MOL0     H52789   5.637   9.250   3.167 -0.9508 -0.7644  2.7333
  400MOL0     H52790   6.042   9.306   3.287 -0.8554  2.6887 -2.3322
  400MOL0     H52791   6.088   9.176   3.169  0.4622 -0.4013  1.2081
  400MOL0     H52792   5.965   9.013   3.298 -0.0819 -0.2333 -0.2698
  400MOL0     H52793   6.078   9.101   3.409 -1.0073  0.0712  1.3915
  400MOL0     H52794   5.903   9.046   3.523  1.3544  1.8958  3.9190
  400MOL0     H52795   5.790   9.149   3.414 -0.2672 -1.8709  1.4772
  400MOL0     H52796   5.895   9.350   3.484  0.9581 -0.2092  1.1605
  400MOL0     H52797   5.858   9.258   3.629  0.1985 -4.2836  0.6568
  400MOL0     H52798   6.247   9.319   3.725  0.2864 -4.4945  2.8651
  400MOL0     H52799   5.974   9.019   3.016  0.3470 -0.5685  0.7321
  400MOL0     H52800   5.821   8.825   2.996 -1.6238 -0.4443 -1.9696
  401MOL0     O52801   5.250   1.872   8.196  0.9538 -0.2784 -0.0076
  401MOL0     C52802   5.309   1.766   8.169  0.0716  0.3967  0.1985
  401MOL0     O52803   5.245   1.645   8.145 -0.2819  0.2947 -0.2486
  401MOL0     C52804   5.111   1.620   8.165  0.7494 -0.4959  0.2530
  401MOL0     C52805   5.027   1.683   8.258  0.7718  0.0120  0.4901
  401MOL0     C52806   4.892   1.635   8.284  0.5542 -0.2847  0.2363
  401MOL0     C52807   4.848   1.518   8.224 -0.4325 -0.2646  0.5846
  401MOL0     O52808   4.731   1.456   8.239 -0.2043 -0.6847 -0.0044
  401MOL0     C52809   4.639   1.503   8.340 -0.6518  0.6601  0.4049
  401MOL0     C52810   4.505   1.440   8.286  0.6890 -1.2275  0.0469
  401MOL0     C52811   4.398   1.468   8.383  0.5667  0.4387 -0.0433
  401MOL0     C52812   4.328   1.602   8.375  0.1339 -0.4291  0.1221
  401MOL0     C52813   4.182   1.600   8.426 -0.3992 -0.5514  0.4382
  401MOL0     C52814   4.087   1.498   8.353  0.9586  0.0564  0.2831
  401MOL0     C52815   3.946   1.519   8.406 -0.1491 -0.8531 -0.2770
  401MOL0     C52816   3.862   1.394   8.387 -0.5437  0.3315  0.7078
  401MOL0     N52817   3.729   1.406   8.455  0.1008 -0.1111 -0.2858
  401MOL0     C52818   3.609   1.392   8.395  0.2927  0.1150 -0.5995
  401MOL0     C52819   3.518   1.397   8.493  0.3213  0.6225 -0.5595
  401MOL0     C52820   3.369   1.387   8.481  0.1164 -0.3003  0.7276
  401MOL0     C52821   3.296   1.370   8.609  0.4659 -0.0138  0.3620
  401MOL0     C52822   3.150   1.332   8.604 -0.6771  0.2039 -0.4865
  401MOL0     C52823   3.104   1.279   8.742  0.2437 -0.1087  0.1212
  401MOL0     O52824   2.965   1.283   8.740  0.6135  0.0012  0.3266
  401MOL0     C52825   2.901   1.208   8.837  0.2658 -0.0587 -0.2696
  401MOL0     C52826   2.774   1.173   8.806  0.0556  0.9743 -0.0468
  401MOL0     C52827   2.682   1.120   8.901  0.2729  0.6094 -0.6057
  401MOL0     C52828   2.738   1.068   9.020  0.4714  0.5118  0.1356
  401MOL0     C52829   2.662   0.995   9.123  0.1098  0.1011 -0.5418
  401MOL0     O52830   2.524   0.978   9.105 -0.0335  0.0284  0.2205
  401MOL0     C52831   2.428   0.921   9.192 -0.4237 -0.0050  0.9946
  401MOL0     C52832   2.444   0.825   9.295 -0.0654 -0.1168  0.4195
  401MOL0     C52833   2.344   0.765   9.372  0.1918 -0.3249 -0.0030
  401MOL0     C52834   2.205   0.790   9.332 -0.4645 -0.0429  0.6524
  401MOL0     O52835   2.088   0.736   9.376  0.0785  0.1134 -0.4971
  401MOL0     C52836   2.103   0.657   9.498 -0.5525  0.7111 -0.7043
  401MOL0     C52837   1.976   0.594   9.528  0.3577  0.1542 -0.1856
  401MOL0     C52838   1.889   0.686   9.621  0.0815  0.2187  0.3013
  401MOL0     C52839   1.789   0.760   9.531 -1.2194  0.2045 -0.7344
  401MOL0     C52840   1.701   0.858   9.615  0.6139  0.7610  0.6177
  401MOL0     C52841   1.657   0.985   9.526 -0.4992  0.0342  0.2336
  401MOL0     C52842   1.734   1.102   9.582  0.1952  0.4310  0.3624
  401MOL0     C52843   1.688   1.233   9.514 -0.2497 -0.2572  0.0652
  401MOL0    Cl52844   1.778   1.368   9.589 -0.4037  0.4261 -0.0378
  401MOL0     C52845   2.192   0.871   9.216  0.1787 -0.3969  0.3145
  401MOL0     C52846   2.298   0.936   9.153  0.2777  0.5924 -1.1176
  401MOL0     O52847   2.725   0.948   9.220  0.0602 -0.3817  0.1277
  401MOL0     C52848   2.875   1.103   9.049  0.4481  0.8269  0.2755
  401MOL0     C52849   2.958   1.175   8.960  0.5559 -0.1856  0.5209
  401MOL0     N52850   3.588   1.412   8.612  0.2810 -0.0677 -0.4172
  401MOL0     N52851   3.714   1.425   8.587 -1.0290 -0.4638 -0.1834
  401MOL0     C52852   4.941   1.450   8.136  0.0431 -0.6649 -0.4738
  401MOL0     C52853   5.073   1.489   8.119  0.4749  0.6787 -0.8897
  401MOL0     C52854   5.451   1.763   8.142 -0.8626  0.0955  0.5722
  401MOL0     C52855   5.522   1.639   8.130 -0.0587 -0.4038  0.0687
  401MOL0     C52856   5.664   1.639   8.114  0.7301  0.1075  0.4704
  401MOL0     C52857   5.734   1.761   8.108  1.1075  0.6328 -0.4629
  401MOL0     O52858   5.869   1.775   8.104 -0.5326  0.4279 -0.1112
  401MOL0     C52859   5.944   1.736   8.221  0.2264  0.3176 -0.3063
  401MOL0     C52860   6.012   1.608   8.220  0.1131  1.0788 -0.3190
  401MOL0     C52861   6.073   1.572   8.356  0.0213  0.1085  0.4738
  401MOL0     C52862   6.208   1.642   8.385 -0.5296 -0.0481  0.3863
  401MOL0     C52863   6.320   1.597   8.305 -0.0784 -0.0570 -0.0576
  401MOL0     C52864   6.423   1.571   8.253 -0.3687  0.3261 -0.1971
  401MOL0     C52865   5.661   1.875   8.109 -0.6010 -0.7069 -0.5982
  401MOL0     C52866   5.523   1.883   8.131 -0.2085 -0.6442  0.0274
  401MOL0     H52867   5.044   1.773   8.317 -1.1132  0.6453  0.1604
  401MOL0     H52868   4.832   1.678   8.363 -1.3828 -4.9770  1.6548
  401MOL0     H52869   4.627   1.612   8.336  0.2419  0.7393 -0.3681
  401MOL0     H52870   4.665   1.470   8.441 -0.6693 -3.6417 -0.7896
  401MOL0     H52871   4.520   1.335   8.261 -2.2154 -1.4313 -1.1912
  401MOL0     H52872   4.484   1.485   8.189  1.4862 -1.5216 -0.2701
  401MOL0     H52873   4.442   1.460   8.483  0.0841  2.3102  0.3425
  401MOL0     H52874   4.329   1.383   8.372  1.0175 -1.1970  6.2673
  401MOL0     H52875   4.384   1.673   8.437 -1.0513  1.5798 -0.9990
  401MOL0     H52876   4.330   1.645   8.275  1.1314  2.8790  1.4296
  401MOL0     H52877   4.146   1.703   8.415 -2.1319 -1.3941 -4.5091
  401MOL0     H52878   4.173   1.590   8.534  1.3182  3.5922  1.1579
  401MOL0     H52879   4.118   1.393   8.366 -1.5142 -0.7582  0.2260
  401MOL0     H52880   4.085   1.525   8.248  2.1564  1.5866  0.6244
  401MOL0     H52881   3.952   1.539   8.514  1.2186 -0.5208 -0.3999
  401MOL0     H52882   3.891   1.598   8.353 -1.4481 -0.8881  0.9505
  401MOL0     H52883   3.916   1.305   8.421  0.2646  0.4512 -0.2174
  401MOL0     H52884   3.849   1.388   8.279  0.6855  0.3129  0.5557
  401MOL0     H52885   3.598   1.394   8.287 -0.0326  3.3138 -0.6093
  401MOL0     H52886   3.341   1.303   8.417  2.5762  0.0804 -0.9745
  401MOL0     H52887   3.326   1.479   8.441 -4.8991 -3.1237 -1.2555
  401MOL0     H52888   3.302   1.459   8.672  0.1722 -1.4038  2.4506
  401MOL0     H52889   3.337   1.284   8.663 -1.8336 -1.9611 -0.7980
  401MOL0     H52890   3.099   1.427   8.588  1.6232  1.6759  0.3230
  401MOL0     H52891   3.136   1.261   8.523 -0.1553  0.0985 -0.4905
  401MOL0     H52892   3.120   1.356   8.818 -2.2453  0.0682  0.5551
  401MOL0     H52893   3.153   1.182   8.755  1.1165  0.5125  1.6905
  401MOL0     H52894   2.729   1.196   8.710 -0.3532  1.9455  0.3587
  401MOL0     H52895   2.576   1.113   8.881  0.0222 -0.1037  0.8289
  401MOL0     H52896   2.546   0.804   9.328 -0.4619 -1.8684  0.6453
  401MOL0     H52897   2.371   0.692   9.448  0.7895  1.4727  1.5819
  401MOL0     H52898   2.135   0.717   9.583 -0.3858  0.9396 -0.9258
  401MOL0     H52899   2.185   0.584   9.497  1.8793  3.2444 -1.2393
  401MOL0     H52900   2.000   0.508   9.591 -1.9201  0.7911  1.6936
  401MOL0     H52901   1.917   0.560   9.442 -1.4143 -0.2806  1.1538
  401MOL0     H52902   1.959   0.744   9.683  0.8118 -0.5170  0.1837
  401MOL0     H52903   1.836   0.621   9.691  1.3857 -1.6390 -0.3496
  401MOL0     H52904   1.841   0.814   9.451  0.1840  1.0464  0.6937
  401MOL0     H52905   1.729   0.690   9.472  0.5080  1.1107 -3.7854
  401MOL0     H52906   1.754   0.891   9.705  0.6905 -0.1622  0.9244
  401MOL0     H52907   1.615   0.795   9.641 -0.3877 -0.2113 -4.1630
  401MOL0     H52908   1.555   1.012   9.554  0.5078  2.3649  2.0092
  401MOL0     H52909   1.664   0.969   9.418 -4.7535 -4.2918  0.2529
  401MOL0     H52910   1.710   1.116   9.688  1.1460  0.0593  0.6341
  401MOL0     H52911   1.841   1.085   9.573 -0.0261 -1.2898  0.7350
  401MOL0     H52912   1.579   1.248   9.516 -0.4401 -1.1457 -1.8996
  401MOL0     H52913   1.718   1.228   9.409 -1.2679 -1.2390 -0.1924
  401MOL0     H52914   2.093   0.865   9.172  0.4721  1.4311 -0.7184
  401MOL0     H52915   2.279   0.985   9.059  0.8321 -1.9567 -2.6621
  401MOL0     H52916   2.931   1.079   9.139  0.6965 -1.4281 -0.4236
  401MOL0     H52917   3.061   1.202   8.982  0.9360 -0.5308 -0.7502
  401MOL0     H52918   4.903   1.361   8.086  1.8426 -1.5572 -0.3415
  401MOL0     H52919   5.152   1.440   8.063  1.2545  2.4771 -1.4350
  401MOL0     H52920   5.459   1.552   8.146  0.4100 -0.9299 -0.8857
  401MOL0     H52921   5.721   1.547   8.123  1.0613  0.3707  1.0734
  401MOL0     H52922   5.872   1.727   8.302 -1.4702  0.5741 -1.7123
  401MOL0     H52923   6.016   1.816   8.236  0.1748  0.4282 -0.6310
  401MOL0     H52924   5.938   1.539   8.176  0.8218  1.7568 -2.7356
  401MOL0     H52925   6.090   1.619   8.144 -0.8860 -0.5175 -1.6481
  401MOL0     H52926   6.100   1.466   8.356 -2.5127 -0.6029  1.0733
  401MOL0     H52927   5.997   1.590   8.432  1.0117  0.0412  1.5150
  401MOL0     H52928   6.188   1.749   8.372  1.4539  0.1757 -1.2582
  401MOL0     H52929   6.242   1.634   8.489  0.1741 -0.9675  0.0977
  401MOL0     H52930   6.513   1.538   8.205 -1.1451 -0.9521 -0.8429
  401MOL0     H52931   5.713   1.966   8.084 -0.1987 -0.7448  0.0724
  401MOL0     H52932   5.474   1.979   8.143 -1.5869 -1.2985 -0.2620
  402MOL0     O52933   2.707   8.679   3.623  0.4248 -0.1347 -0.0153
  402MOL0     C52934   2.682   8.614   3.518  0.3254  0.0839 -0.2592
  402MOL0     O52935   2.578   8.643   3.427 -0.0958  0.4227 -0.3238
  402MOL0     C52936   2.495   8.743   3.456  0.4320  0.6637 -0.2557
  402MOL0     C52937   2.530   8.875   3.490  0.3498 -0.4409 -0.2696
  402MOL0     C52938   2.433   8.978   3.500 -1.0712  0.0585 -0.0159
  402MOL0     C52939   2.295   8.938   3.476  1.0257 -0.6968  0.2208
  402MOL0     O52940   2.188   9.028   3.468 -0.0920  0.3873 -0.4390
  402MOL0     C52941   2.219   9.167   3.500  0.0858 -0.3337  0.8407
  402MOL0     C52942   2.092   9.244   3.485  0.3835  0.0429  0.7011
  402MOL0     C52943   2.114   9.390   3.480 -0.5890  1.2293 -0.2048
  402MOL0     C52944   1.985   9.470   3.463 -0.0351 -0.1500 -1.0234
  402MOL0     C52945   1.893   9.459   3.591  0.1446 -0.8926 -0.7475
  402MOL0     C52946   1.766   9.539   3.544  0.4704 -0.0628 -0.4703
  402MOL0     C52947   1.678   9.577   3.667 -0.3603  1.1924  0.5830
  402MOL0     C52948   1.557   9.662   3.624 -0.1866 -0.4739 -0.3069
  402MOL0     N52949   1.451   9.667   3.720  0.3010  0.5638  0.7094
  402MOL0     C52950   1.466   9.696   3.858 -0.0141 -0.1421  0.6413
  402MOL0     C52951   1.355   9.646   3.912 -0.1102  0.3383 -0.4583
  402MOL0     C52952   1.309   9.661   4.062 -0.4276 -0.0546  0.3219
  402MOL0     C52953   1.260   9.808   4.075  0.8880  0.0073 -0.4198
  402MOL0     C52954   1.193   9.824   4.214 -0.2333  0.6512 -0.4408
  402MOL0     C52955   1.126   9.962   4.208 -0.1390  0.2118 -0.1563
  402MOL0     O52956   1.014   9.961   4.125  0.4552 -0.2535  0.2433
  402MOL0     C52957   0.904   9.902   4.182  0.5532  0.2549 -0.2753
  402MOL0     C52958   0.843   9.954   4.299  0.3730  0.2684 -0.2209
  402MOL0     C52959   0.717   9.912   4.340  0.0482  0.5447 -0.4839
  402MOL0     C52960   0.643   9.816   4.267 -0.1037  0.1528 -0.0702
  402MOL0     C52961   0.503   9.777   4.308  0.4080  0.3683  0.0683
  402MOL0     O52962   0.449   9.685   4.227  0.7304 -0.0054  0.1690
  402MOL0     C52963   0.316   9.657   4.238 -0.9748  0.6080 -0.2230
  402MOL0     C52964   0.278   9.520   4.238  0.2768  0.0001  0.9803
  402MOL0     C52965   0.140   9.485   4.264  0.3919  0.5420  0.4399
  402MOL0     C52966   0.038   9.583   4.272  0.2954 -0.3398  0.2730
  402MOL0     O52967  -0.085   9.536   4.289  0.1646 -0.6158  0.3263
  402MOL0     C52968  -0.190   9.627   4.309 -0.1484 -0.1521  0.2366
  402MOL0     C52969  -0.294   9.560   4.396  0.3053 -0.4147 -0.6836
  402MOL0     C52970  -0.400   9.654   4.447  0.4858 -1.0488  0.4684
  402MOL0     C52971  -0.499   9.587   4.554  0.6537 -0.0009  0.4157
  402MOL0     C52972  -0.617   9.664   4.604 -0.1505  0.4804  0.9388
  402MOL0     C52973  -0.615   9.684   4.759  0.1830 -0.6636 -0.3702
  402MOL0     C52974  -0.506   9.793   4.794  0.7133 -0.3686 -0.8169
  402MOL0     C52975  -0.493   9.789   4.946 -0.0249 -0.0316 -0.6357
  402MOL0    Cl52976  -0.634   9.817   5.034  0.3996 -0.5021 -0.3320
  402MOL0     C52977   0.083   9.716   4.261  0.1313  0.3682 -0.6004
  402MOL0     C52978   0.218   9.752   4.240 -0.9564  0.1050  0.3067
  402MOL0     O52979   0.448   9.831   4.403 -0.0216 -0.7396 -0.8523
  402MOL0     C52980   0.700   9.769   4.144 -0.5769  0.2607 -0.2141
  402MOL0     C52981   0.819   9.823   4.103  0.0477 -0.9209 -0.2867
  402MOL0     N52982   1.274   9.590   3.807  0.3966  0.2401 -0.2337
  402MOL0     N52983   1.337   9.603   3.697  0.3067 -0.5575 -0.6532
  402MOL0     C52984   2.249   8.812   3.447 -0.1779  0.9476 -0.1840
  402MOL0     C52985   2.353   8.717   3.431  0.1155 -0.6353  0.3242
  402MOL0     C52986   2.764   8.496   3.490  0.2626  0.0339 -0.6781
  402MOL0     C52987   2.722   8.391   3.409  0.9453  0.5664  0.1494
  402MOL0     C52988   2.801   8.286   3.373 -0.0113  0.5401 -0.5741
  402MOL0     C52989   2.923   8.263   3.439  0.2943  0.6522  0.6449
  402MOL0     O52990   3.022   8.166   3.410  0.5131  0.1736 -0.3152
  402MOL0     C52991   2.983   8.063   3.318 -0.1956  0.0274 -0.6106
  402MOL0     C52992   3.103   7.967   3.314  0.0118  0.1041  0.0782
  402MOL0     C52993   3.055   7.836   3.244  0.5945  0.4309  0.0106
  402MOL0     C52994   3.158   7.724   3.237 -0.1640  0.1793 -0.3040
  402MOL0     C52995   3.075   7.610   3.200 -1.3975 -0.0191  0.8660
  402MOL0     C52996   3.004   7.521   3.156  0.2672 -0.2383 -0.4161
  402MOL0     C52997   2.964   8.352   3.531  0.0537  0.6224 -0.0333
  402MOL0     C52998   2.886   8.470   3.556  0.4680 -0.3077 -0.3596
  402MOL0     H52999   2.637   8.894   3.498  0.8547 -1.2819 -3.4101
  402MOL0     H53000   2.454   9.080   3.531  0.5420 -0.2619  0.0552
  402MOL0     H53001   2.294   9.206   3.430  0.9317 -0.2888  1.7495
  402MOL0     H53002   2.268   9.188   3.596  0.3742  1.4912  0.3357
  402MOL0     H53003   2.021   9.222   3.565 -0.6332 -1.8364 -0.6517
  402MOL0     H53004   2.043   9.230   3.389  0.3994 -0.4810  0.7672
  402MOL0     H53005   2.172   9.428   3.396 -1.2357  3.1287  0.1487
  402MOL0     H53006   2.159   9.411   3.577  1.6720  0.0869 -0.9446
  402MOL0     H53007   2.003   9.576   3.446 -1.2298  0.0644 -0.9983
  402MOL0     H53008   1.934   9.424   3.377 -0.9150 -2.6267  0.6974
  402MOL0     H53009   1.943   9.506   3.677 -2.5079 -1.3898  1.2073
  402MOL0     H53010   1.861   9.357   3.614 -0.0210 -0.4830  0.9855
  402MOL0     H53011   1.719   9.473   3.470 -0.7004 -0.0341  0.2228
  402MOL0     H53012   1.797   9.631   3.493 -1.7583  0.3260 -1.2652
  402MOL0     H53013   1.635   9.483   3.703  1.6109 -0.6368 -1.4863
  402MOL0     H53014   1.734   9.624   3.748 -0.2743  3.3045 -0.6308
  402MOL0     H53015   1.512   9.628   3.531 -1.4992  1.7039 -0.5369
  402MOL0     H53016   1.595   9.764   3.617  1.3360 -0.8568  1.3883
  402MOL0     H53017   1.546   9.748   3.912  1.2966 -1.4744  0.0466
  402MOL0     H53018   1.384   9.647   4.141  1.1157 -0.7012 -1.1773
  402MOL0     H53019   1.225   9.594   4.078  0.3645 -0.6526  2.1618
  402MOL0     H53020   1.187   9.839   3.999 -0.4575  0.1923  0.8800
  402MOL0     H53021   1.342   9.880   4.068 -2.1480  4.0324  1.1543
  402MOL0     H53022   1.125   9.741   4.233  1.3005 -0.3843  0.7271
  402MOL0     H53023   1.267   9.833   4.293  0.5899 -1.3662 -0.9188
  402MOL0     H53024   1.196  10.031   4.160 -0.3794  1.3380  1.0479
  402MOL0     H53025   1.097   9.989   4.310 -0.2295 -0.3347 -0.0323
  402MOL0     H53026   0.886  10.033   4.361 -1.1999 -1.1929  2.9226
  402MOL0     H53027   0.674   9.945   4.434  0.1254 -2.8659  0.8737
  402MOL0     H53028   0.348   9.437   4.234  0.1590 -0.1140  1.2432
  402MOL0     H53029   0.102   9.383   4.270 -1.3990  1.2239  1.4648
  402MOL0     H53030  -0.234   9.663   4.216 -0.6787 -1.3140  0.0129
  402MOL0     H53031  -0.146   9.710   4.365 -0.8158  0.7180 -0.5252
  402MOL0     H53032  -0.248   9.500   4.475 -1.5908 -0.1947  0.6486
  402MOL0     H53033  -0.346   9.483   4.338  0.6487 -1.5563  0.4883
  402MOL0     H53034  -0.460   9.690   4.363  1.4143  1.7952  0.9046
  402MOL0     H53035  -0.360   9.745   4.492  2.0959 -1.1063 -0.7471
  402MOL0     H53036  -0.541   9.501   4.501  1.0255  0.6627 -1.0124
  402MOL0     H53037  -0.430   9.554   4.632  0.3667 -0.5875  0.4263
  402MOL0     H53038  -0.714   9.620   4.578 -0.2633  1.4344 -0.3791
  402MOL0     H53039  -0.624   9.756   4.545 -0.6847 -0.2346 -0.1327
  402MOL0     H53040  -0.598   9.585   4.801  0.1139 -1.9057 -3.0478
  402MOL0     H53041  -0.715   9.710   4.793 -0.1345 -3.0540  0.6690
  402MOL0     H53042  -0.413   9.757   4.750  0.4497 -1.9742 -0.1525
  402MOL0     H53043  -0.541   9.888   4.753 -1.2765 -1.8221 -2.7188
  402MOL0     H53044  -0.424   9.866   4.981 -1.4279  0.6219  0.8284
  402MOL0     H53045  -0.454   9.691   4.977  0.0167 -0.4573 -1.9957
  402MOL0     H53046   0.014   9.800   4.267 -1.8530 -1.2010 -0.5375
  402MOL0     H53047   0.248   9.856   4.234 -3.0687  0.6814 -1.5552
  402MOL0     H53048   0.641   9.701   4.083  1.4397 -1.4535 -0.3663
  402MOL0     H53049   0.833   9.804   3.997 -4.4177 -0.6538 -1.1001
  402MOL0     H53050   2.145   8.786   3.432  0.5426 -1.6853 -1.0576
  402MOL0     H53051   2.324   8.616   3.405 -0.6167 -0.1290 -0.9041
  402MOL0     H53052   2.623   8.406   3.367  0.8107  1.1918  0.6607
  402MOL0     H53053   2.749   8.225   3.299 -2.8728  1.8336  0.2151
  402MOL0     H53054   2.953   8.092   3.217  2.9156  0.4505 -1.5182
  402MOL0     H53055   2.899   8.024   3.375  0.5145  0.7466  1.0057
  402MOL0     H53056   3.186   8.006   3.254  2.5708  0.4248  3.5370
  402MOL0     H53057   3.144   7.947   3.414 -1.1046  0.2054  0.5715
  402MOL0     H53058   3.020   7.842   3.141  0.8662 -2.9576 -0.4090
  402MOL0     H53059   2.972   7.801   3.306 -0.5937  3.0782  0.0536
  402MOL0     H53060   3.230   7.737   3.156 -0.8107 -1.5188 -1.2036
  402MOL0     H53061   3.199   7.703   3.336 -0.1960  1.8724  0.0843
  402MOL0     H53062   2.969   7.425   3.122  0.1363 -0.9444  1.5789
  402MOL0     H53063   3.061   8.345   3.578  0.1234 -1.5422 -0.4042
  402MOL0     H53064   2.920   8.543   3.629 -1.4098 -0.8475  1.1307
  403MOL0     O53065   9.899   1.157   2.143 -0.6549  0.1669 -0.2183
  403MOL0     C53066   9.871   1.140   2.024  0.1884 -0.1095  0.1578
  403MOL0     O53067   9.951   1.074   1.936  0.4108  0.3564  0.6827
  403MOL0     C53068  10.086   1.078   1.962 -1.0752  0.0047  0.4053
  403MOL0     C53069  10.154   0.958   1.972  0.7501 -0.1459 -0.1068
  403MOL0     C53070  10.290   0.965   1.981  0.6111 -0.0179 -0.0844
  403MOL0     C53071  10.372   1.080   2.004  0.4278  0.4897 -0.2702
  403MOL0     O53072  10.509   1.064   2.005  0.1792 -0.6822  0.9127
  403MOL0     C53073  10.585   1.183   1.963  0.2983  0.7115  0.7468
  403MOL0     C53074  10.728   1.154   1.940  0.0168 -0.1090 -0.0214
  403MOL0     C53075  10.761   1.051   1.829  0.0459  0.2474 -0.3830
  403MOL0     C53076  10.911   1.019   1.830  0.2403  0.2980 -0.0821
  403MOL0     C53077  10.959   0.936   1.949 -0.3664  0.5652  0.0058
  403MOL0     C53078  11.092   0.861   1.921  0.5298  0.1635 -0.0799
  403MOL0     C53079  11.117   0.778   2.042  0.3056  0.3799 -0.1736
  403MOL0     C53080  11.248   0.707   2.039 -1.2364 -0.3968  1.0948
  403MOL0     N53081  11.309   0.667   2.165 -0.2139  0.2473  0.4596
  403MOL0     C53082  11.283   0.550   2.235  0.7370  0.2525  0.3769
  403MOL0     C53083  11.376   0.536   2.337  0.6698  0.1724  0.6237
  403MOL0     C53084  11.399   0.424   2.435  0.0970  0.0903  0.1165
  403MOL0     C53085  11.355   0.451   2.575 -0.3715 -0.3408 -0.4592
  403MOL0     C53086  11.213   0.486   2.598  0.3499 -0.0121  0.9338
  403MOL0     C53087  11.118   0.372   2.568  0.1351 -0.3303 -0.0465
  403MOL0     O53088  11.081   0.381   2.429 -0.4250  0.0595 -0.0946
  403MOL0     C53089  10.967   0.320   2.398  0.0036  1.2352 -0.0997
  403MOL0     C53090  10.934   0.194   2.441 -0.0330 -0.1591 -0.3059
  403MOL0     C53091  10.807   0.145   2.407  0.3830  0.4136  0.0520
  403MOL0     C53092  10.714   0.208   2.327  0.0427  0.2146  0.2407
  403MOL0     C53093  10.579   0.136   2.296 -0.4763  1.4701 -1.3404
  403MOL0     O53094  10.497   0.205   2.226  0.0424  0.3245 -0.1502
  403MOL0     C53095  10.378   0.157   2.181 -0.7091  0.3658 -0.3968
  403MOL0     C53096  10.273   0.162   2.272  1.1479 -0.1273  1.2615
  403MOL0     C53097  10.153   0.096   2.240 -0.1261 -0.0240 -0.0260
  403MOL0     C53098  10.141   0.018   2.131 -0.2089 -0.0860  0.4450
  403MOL0     O53099  10.022  -0.044   2.092 -0.2006 -0.0624  0.2352
  403MOL0     C53100   9.903  -0.026   2.170  0.3485  0.5098  0.0611
  403MOL0     C53101   9.792  -0.096   2.093  0.1070  0.6017  0.4676
  403MOL0     C53102   9.663  -0.072   2.155 -0.9396 -0.1736 -0.0651
  403MOL0     C53103   9.634  -0.162   2.277 -0.3476 -0.3441  1.0548
  403MOL0     C53104   9.507  -0.110   2.351 -0.3021  0.1526 -0.2700
  403MOL0     C53105   9.519   0.023   2.423  0.5404 -0.2884  0.6115
  403MOL0     C53106   9.419   0.043   2.542  0.2467 -0.1365 -0.1901
  403MOL0     C53107   9.308   0.139   2.507 -0.3625 -0.5086  0.3119
  403MOL0    Cl53108   9.238   0.085   2.349 -0.2274 -0.1227  0.1136
  403MOL0     C53109  10.244  -0.000   2.038  0.6043 -0.7414 -0.2269
  403MOL0     C53110  10.358   0.069   2.064  0.0119 -0.3342 -0.5669
  403MOL0     O53111  10.555   0.018   2.334 -0.2177  0.3039 -0.1694
  403MOL0     C53112  10.753   0.324   2.271 -0.3120  0.4317  1.0351
  403MOL0     C53113  10.880   0.379   2.300 -0.3543 -0.3887 -0.0146
  403MOL0     N53114  11.462   0.643   2.312 -0.2829 -1.0277  0.6634
  403MOL0     N53115  11.416   0.730   2.220 -0.9283  0.2314  0.0892
  403MOL0     C53116  10.301   1.206   1.995  0.7472 -0.8617  0.2286
  403MOL0     C53117  10.162   1.201   1.979 -0.1463  0.1715 -0.3003
  403MOL0     C53118   9.729   1.164   1.997  0.3230  0.3731  0.1928
  403MOL0     C53119   9.681   1.097   1.878 -0.0079 -0.9423  0.6403
  403MOL0     C53120   9.549   1.117   1.831  0.3616 -0.0471  0.2551
  403MOL0     C53121   9.458   1.185   1.914 -0.3014 -0.6415  0.1227
  403MOL0     O53122   9.330   1.180   1.876 -0.2750 -0.5437 -0.1910
  403MOL0     C53123   9.234   1.258   1.945  0.3738 -0.5657 -0.5486
  403MOL0     C53124   9.100   1.270   1.867 -0.4220  0.0253 -0.8847
  403MOL0     C53125   9.116   1.226   1.727  0.4821  0.3988 -0.2103
  403MOL0     C53126   8.988   1.229   1.646  0.3242  0.3389 -0.2828
  403MOL0     C53127   8.906   1.104   1.649 -0.3062 -0.0926  0.0758
  403MOL0     C53128   8.840   1.012   1.692 -1.1784 -0.1343  0.4403
  403MOL0     C53129   9.499   1.248   2.034  0.1160 -1.4471  0.5751
  403MOL0     C53130   9.632   1.233   2.068  0.8216 -0.0512  0.0146
  403MOL0     H53131  10.104   0.862   1.962  4.3489 -2.0504 -1.6121
  403MOL0     H53132  10.346   0.872   1.973 -0.6779 -0.7017 -1.9234
  403MOL0     H53133  10.566   1.250   2.047  0.1595 -0.4518  1.6749
  403MOL0     H53134  10.544   1.227   1.873 -0.1153  0.3049  0.7305
  403MOL0     H53135  10.773   1.127   2.036  3.0992 -0.1060 -1.3328
  403MOL0     H53136  10.775   1.249   1.913  1.5223 -1.2945 -1.7929
  403MOL0     H53137  10.733   1.101   1.736  1.1119 -0.1118 -0.9137
  403MOL0     H53138  10.695   0.965   1.838  0.9402 -0.6447 -1.8743
  403MOL0     H53139  10.926   0.959   1.741  0.3520  1.7350 -1.0675
  403MOL0     H53140  10.963   1.115   1.818  0.5910  0.0275 -0.7831
  403MOL0     H53141  10.883   0.864   1.983 -1.2386  1.7140  0.5449
  403MOL0     H53142  10.978   1.000   2.035  2.0644  2.0184 -1.5038
  403MOL0     H53143  11.173   0.934   1.924  1.1951 -0.5628  0.0216
  403MOL0     H53144  11.093   0.802   1.828 -1.6211 -0.4653  0.2440
  403MOL0     H53145  11.124   0.834   2.136 -1.4725 -1.2759  1.0295
  403MOL0     H53146  11.040   0.701   2.052  1.5387 -0.8371  0.3271
  403MOL0     H53147  11.315   0.783   1.997 -0.1395 -0.6078  2.3966
  403MOL0     H53148  11.249   0.625   1.967 -2.4108  0.8152 -0.3953
  403MOL0     H53149  11.213   0.474   2.201  0.9323  1.1000 -2.1240
  403MOL0     H53150  11.505   0.397   2.440 -1.0156 -5.0994  1.3598
  403MOL0     H53151  11.342   0.336   2.406 -0.3288  0.6408 -0.7530
  403MOL0     H53152  11.420   0.526   2.621  1.0788 -3.5096  3.2576
  403MOL0     H53153  11.363   0.362   2.639  0.8642 -1.0098 -1.4864
  403MOL0     H53154  11.205   0.505   2.706  2.3413  2.6605  0.7305
  403MOL0     H53155  11.186   0.581   2.550 -0.1555 -1.0198 -0.8325
  403MOL0     H53156  11.030   0.390   2.630 -0.7867 -0.6367 -1.2149
  403MOL0     H53157  11.165   0.276   2.592  1.4446  0.6101  1.3169
  403MOL0     H53158  10.998   0.140   2.511  1.0669  1.7463  0.2660
  403MOL0     H53159  10.770   0.055   2.455 -0.7893  1.0332  0.3585
  403MOL0     H53160  10.281   0.216   2.366 -1.4270 -0.2740  1.6358
  403MOL0     H53161  10.065   0.122   2.298  0.5139  0.3937  0.7772
  403MOL0     H53162   9.886   0.080   2.189 -0.3674  1.2226 -3.7943
  403MOL0     H53163   9.904  -0.076   2.268 -3.2540 -1.6379 -0.8155
  403MOL0     H53164   9.809  -0.204   2.083 -3.3670  0.1230 -1.6451
  403MOL0     H53165   9.792  -0.055   1.992 -2.3528  0.0138  0.1612
  403MOL0     H53166   9.574  -0.081   2.092 -1.8547 -2.3670  1.4273
  403MOL0     H53167   9.663   0.034   2.182  1.0837 -0.4340  1.1953
  403MOL0     H53168   9.628  -0.263   2.235 -1.3770 -0.2553  0.9656
  403MOL0     H53169   9.710  -0.155   2.355 -1.0742 -0.1032  1.7610
  403MOL0     H53170   9.487  -0.186   2.426  1.0672 -0.1734 -0.2126
  403MOL0     H53171   9.428  -0.105   2.275 -0.8855  0.6681  0.3514
  403MOL0     H53172   9.504   0.100   2.347  0.4496  1.5072  2.3675
  403MOL0     H53173   9.623   0.026   2.456  0.9977 -2.1825 -0.5063
  403MOL0     H53174   9.365  -0.045   2.579 -0.5856  1.1221  1.8152
  403MOL0     H53175   9.471   0.072   2.634 -0.6572 -3.5303  1.5507
  403MOL0     H53176   9.341   0.242   2.493 -0.9686 -0.1642  1.3120
  403MOL0     H53177   9.224   0.141   2.577  0.5025 -1.1971  1.4035
  403MOL0     H53178  10.233  -0.073   1.959 -0.2281  0.0253 -0.8292
  403MOL0     H53179  10.444   0.062   1.998 -1.4743 -0.1956 -2.5970
  403MOL0     H53180  10.678   0.368   2.207 -1.9483 -2.8518  0.4655
  403MOL0     H53181  10.900   0.473   2.250 -1.2087  1.8019  3.4199
  403MOL0     H53182  10.347   1.304   2.000 -2.1933  0.7716 -1.9874
  403MOL0     H53183  10.106   1.293   1.965  1.5881  1.6800  1.8059
  403MOL0     H53184   9.745   1.040   1.812 -0.8030 -0.2034 -0.8066
  403MOL0     H53185   9.530   1.066   1.737  0.7696 -1.0668  0.7180
  403MOL0     H53186   9.268   1.362   1.953 -0.8880  0.1934 -3.6563
  403MOL0     H53187   9.216   1.223   2.047  0.0963 -0.9737 -0.7378
  403MOL0     H53188   9.031   1.207   1.925  1.8294 -0.6801  1.1726
  403MOL0     H53189   9.066   1.373   1.880 -1.6663 -0.6758  2.5404
  403MOL0     H53190   9.130   1.118   1.738  3.1320  0.9712  5.0765
  403MOL0     H53191   9.199   1.280   1.681  0.8384 -0.1416 -0.2135
  403MOL0     H53192   8.921   1.306   1.684  0.0627 -0.8205  1.7451
  403MOL0     H53193   9.010   1.236   1.539  1.5279 -0.3590 -0.1094
  403MOL0     H53194   8.766   0.936   1.711 -1.1880 -1.2621 -3.1547
  403MOL0     H53195   9.437   1.315   2.093  4.0044 -0.0473  3.5112
  403MOL0     H53196   9.642   1.270   2.169  1.3865  0.2030 -0.1300
  404MOL0     O53197  11.224   1.531   4.017  0.0128  0.7721 -0.7072
  404MOL0     C53198  11.277   1.568   3.913 -0.3724  0.7039 -0.1935
  404MOL0     O53199  11.219   1.594   3.785 -0.2477  0.5455 -0.6504
  404MOL0     C53200  11.079   1.594   3.773  0.2082 -0.4129 -0.1120
  404MOL0     C53201  10.991   1.634   3.879  0.2088 -0.6869  0.4836
  404MOL0     C53202  10.856   1.657   3.851  0.0245  0.2960 -0.3866
  404MOL0     C53203  10.806   1.619   3.729 -0.2989 -0.4112  0.5552
  404MOL0     O53204  10.666   1.629   3.698 -0.8337  0.1254 -0.4941
  404MOL0     C53205  10.567   1.690   3.783  0.0579  0.9078 -0.0488
  404MOL0     C53206  10.590   1.839   3.768 -1.6576  1.2607 -0.7776
  404MOL0     C53207  10.477   1.918   3.837 -0.5556  0.5017  0.1237
  404MOL0     C53208  10.506   2.062   3.822 -0.0712 -0.6468  0.6522
  404MOL0     C53209  10.386   2.145   3.873 -1.0501  0.3017 -0.1888
  404MOL0     C53210  10.274   2.161   3.761 -0.2028  0.4877  0.8312
  404MOL0     C53211  10.153   2.251   3.804 -1.0615  0.0004  0.4489
  404MOL0     C53212  10.059   2.280   3.687  1.1115 -0.5351 -0.4855
  404MOL0     N53213   9.942   2.350   3.744 -0.2419 -0.5004  0.4134
  404MOL0     C53214   9.925   2.487   3.741 -0.5421  0.1837 -0.3103
  404MOL0     C53215   9.800   2.506   3.790  0.6567 -0.0587  0.2349
  404MOL0     C53216   9.718   2.639   3.787 -0.0505 -0.8926  0.3731
  404MOL0     C53217   9.598   2.626   3.678 -0.0787 -0.2882 -0.1006
  404MOL0     C53218   9.471   2.552   3.728 -0.6422  0.2318  0.8352
  404MOL0     C53219   9.383   2.643   3.817 -0.3980  0.3960  0.0753
  404MOL0     O53220   9.346   2.770   3.757  0.6881 -0.0607 -0.1308
  404MOL0     C53221   9.238   2.840   3.806  0.0731 -0.4501 -0.4839
  404MOL0     C53222   9.186   2.944   3.720  0.6760  0.3965 -0.1590
  404MOL0     C53223   9.069   3.014   3.761 -0.5664 -0.6270 -0.1921
  404MOL0     C53224   9.011   2.997   3.887 -0.5847  0.4277  0.0148
  404MOL0     C53225   8.895   3.074   3.926 -0.5407 -1.1169 -0.0038
  404MOL0     O53226   8.834   3.165   3.827 -0.6371 -0.7862  0.5206
  404MOL0     C53227   8.706   3.206   3.847  0.0268 -0.1646 -0.7100
  404MOL0     C53228   8.681   3.346   3.829 -0.0962 -0.0528 -0.2644
  404MOL0     C53229   8.548   3.399   3.839 -0.5883 -0.7877  0.1067
  404MOL0     C53230   8.450   3.311   3.883 -0.6375  0.0631  0.2952
  404MOL0     O53231   8.311   3.344   3.902 -0.4418 -0.0475  1.0752
  404MOL0     C53232   8.278   3.484   3.895  0.0094  0.5404 -0.4780
  404MOL0     C53233   8.142   3.500   3.959  0.2537  0.1151 -0.5062
  404MOL0     C53234   8.042   3.410   3.891  0.0916  0.6097  0.4218
  404MOL0     C53235   7.892   3.443   3.899  0.3621 -0.2500  0.6365
  404MOL0     C53236   7.826   3.421   4.044 -0.0087  0.2708  0.1175
  404MOL0     C53237   7.676   3.395   4.045  0.3028  0.0317  0.3486
  404MOL0     C53238   7.590   3.521   4.012 -0.2371 -1.0792 -0.1279
  404MOL0     C53239   7.453   3.503   4.065 -0.2626  0.0476  0.0840
  404MOL0    Cl53240   7.451   3.517   4.246  0.0253  0.1361  0.0875
  404MOL0     C53241   8.482   3.181   3.911  0.0540  0.0470  0.1273
  404MOL0     C53242   8.605   3.122   3.896  0.5348  0.9492 -0.2631
  404MOL0     O53243   8.859   3.065   4.044 -0.4735  0.4898  1.0633
  404MOL0     C53244   9.078   2.907   3.975  0.5050 -0.5402  0.0879
  404MOL0     C53245   9.183   2.826   3.934 -0.0002  0.3707  0.1347
  404MOL0     N53246   9.749   2.384   3.828 -0.1338 -0.4483 -0.5389
  404MOL0     N53247   9.830   2.292   3.799  1.0932  0.2232  0.2639
  404MOL0     C53248  10.889   1.572   3.625  0.0111 -0.3159  0.5554
  404MOL0     C53249  11.027   1.561   3.647  0.5423  0.0463 -1.1109
  404MOL0     C53250  11.427   1.583   3.927  0.3479 -0.1533  1.1651
  404MOL0     C53251  11.486   1.589   4.054  0.2233 -0.8060  0.1670
  404MOL0     C53252  11.620   1.617   4.067  0.1454 -0.3541  0.5113
  404MOL0     C53253  11.704   1.607   3.962 -0.3035  0.6395  0.1340
  404MOL0     O53254  11.841   1.606   3.988 -0.2055 -0.3426 -0.6162
  404MOL0     C53255  11.919   1.505   3.930  0.1358  0.1172 -1.5820
  404MOL0     C53256  12.063   1.542   3.931  0.1576  0.0846 -0.3059
  404MOL0     C53257  12.122   1.539   4.080  0.7161  0.3410  0.2316
  404MOL0     C53258  12.248   1.622   4.096 -0.2376  0.8524  0.2858
  404MOL0     C53259  12.349   1.589   3.997 -0.2254 -0.4695  0.3633
  404MOL0     C53260  12.427   1.579   3.905 -0.3713 -0.6209  0.9176
  404MOL0     C53261  11.654   1.593   3.832 -0.2345  0.4087 -0.4342
  404MOL0     C53262  11.514   1.589   3.817  0.1836  0.3162  0.0186
  404MOL0     H53263  11.027   1.668   3.976 -1.1060 -1.0509  1.1157
  404MOL0     H53264  10.791   1.707   3.921 -1.7768 -0.2689 -1.5815
  404MOL0     H53265  10.579   1.660   3.887  1.1271 -0.5069 -0.5515
  404MOL0     H53266  10.467   1.663   3.749  0.9108 -1.0245 -1.1868
  404MOL0     H53267  10.589   1.869   3.663  1.3073 -1.7012 -1.8286
  404MOL0     H53268  10.681   1.875   3.818 -2.9308 -0.1105  2.8997
  404MOL0     H53269  10.477   1.898   3.945  3.0927 -0.4229  0.0851
  404MOL0     H53270  10.385   1.891   3.785  0.4720 -2.8382 -0.1885
  404MOL0     H53271  10.590   2.095   3.884  0.5475 -1.8361  0.4670
  404MOL0     H53272  10.522   2.089   3.717 -1.1169 -3.7157 -0.3938
  404MOL0     H53273  10.429   2.242   3.902  1.0259 -1.1685  2.0445
  404MOL0     H53274  10.345   2.099   3.963  0.6014  0.0531  0.4631
  404MOL0     H53275  10.236   2.062   3.730 -1.0076  1.4585 -1.5681
  404MOL0     H53276  10.313   2.195   3.664 -1.3361  1.1815  0.5986
  404MOL0     H53277  10.098   2.197   3.881 -1.4780  2.3264  1.8946
  404MOL0     H53278  10.188   2.350   3.837 -1.9337  0.4318  0.1076
  404MOL0     H53279  10.035   2.188   3.632  1.3169  0.9270 -3.1981
  404MOL0     H53280  10.106   2.340   3.608  2.3989 -1.4118 -0.4249
  404MOL0     H53281   9.991   2.563   3.700 -2.8737  2.0893 -0.7473
  404MOL0     H53282   9.777   2.728   3.764  0.7870 -0.7548  2.7197
  404MOL0     H53283   9.679   2.668   3.885 -1.9797  3.6627 -1.4981
  404MOL0     H53284   9.639   2.565   3.597  0.2510 -0.3154  0.0851
  404MOL0     H53285   9.570   2.724   3.639 -1.7386  1.1514  4.1096
  404MOL0     H53286   9.412   2.521   3.642  0.4776  1.4362 -0.4247
  404MOL0     H53287   9.502   2.464   3.786  0.1108  0.7406  1.2336
  404MOL0     H53288   9.431   2.669   3.912 -0.4442  0.4882  0.0737
  404MOL0     H53289   9.295   2.583   3.844 -0.1826 -0.3628 -0.8994
  404MOL0     H53290   9.228   2.965   3.622 -1.4239 -2.8269 -1.9572
  404MOL0     H53291   9.043   3.092   3.691  2.4085 -1.9940 -3.1244
  404MOL0     H53292   8.749   3.423   3.794 -3.8362  3.6996 -0.1498
  404MOL0     H53293   8.522   3.499   3.807  0.8254 -0.8399 -1.3700
  404MOL0     H53294   8.282   3.519   3.791  1.9575  1.5173 -0.1230
  404MOL0     H53295   8.334   3.560   3.950  1.0933 -0.2535 -0.4595
  404MOL0     H53296   8.117   3.607   3.964  3.8151  0.9929  2.6576
  404MOL0     H53297   8.146   3.467   4.063  1.6707  0.5687 -0.4008
  404MOL0     H53298   8.058   3.308   3.928 -1.1482 -0.0631 -0.8158
  404MOL0     H53299   8.072   3.418   3.786 -5.4949  0.8103 -1.4824
  404MOL0     H53300   7.882   3.549   3.873  2.5017 -0.3784 -0.8991
  404MOL0     H53301   7.844   3.384   3.821 -0.6616  1.2260  0.1008
  404MOL0     H53302   7.834   3.511   4.105  0.5923  2.1673 -2.5708
  404MOL0     H53303   7.881   3.338   4.090 -1.7168  0.0052  1.7994
  404MOL0     H53304   7.650   3.368   4.148 -2.9992 -0.1854 -0.4352
  404MOL0     H53305   7.645   3.309   3.985  0.4828  0.2010  0.0166
  404MOL0     H53306   7.634   3.611   4.054 -1.0743 -0.9435  0.4733
  404MOL0     H53307   7.589   3.537   3.904 -1.7433  2.5955  0.2926
  404MOL0     H53308   7.417   3.402   4.040 -4.3083  1.4408 -0.5147
  404MOL0     H53309   7.392   3.575   4.010 -1.2905 -0.6660  0.2450
  404MOL0     H53310   8.396   3.119   3.935  0.2860 -0.8706 -1.3050
  404MOL0     H53311   8.623   3.018   3.922  2.0733  0.8224 -1.6850
  404MOL0     H53312   9.034   2.883   4.071 -1.3997 -0.4499 -0.7113
  404MOL0     H53313   9.230   2.765   4.010  1.6651 -1.3830 -2.1602
  404MOL0     H53314  10.852   1.552   3.524  3.9953  1.9127 -1.5816
  404MOL0     H53315  11.091   1.533   3.564  0.2027  0.2532 -1.4437
  404MOL0     H53316  11.421   1.602   4.140  0.7138 -2.0485  0.7477
  404MOL0     H53317  11.658   1.630   4.168 -3.1812 -0.6042  1.9189
  404MOL0     H53318  11.891   1.497   3.824 -1.0624  1.0444 -1.3610
  404MOL0     H53319  11.897   1.407   3.974  1.3736  0.3539 -0.3737
  404MOL0     H53320  12.123   1.483   3.861  0.8936  0.3232  0.1013
  404MOL0     H53321  12.066   1.646   3.897  1.2916  0.6121  1.2623
  404MOL0     H53322  12.149   1.436   4.105  0.1265  0.4127  1.2281
  404MOL0     H53323  12.051   1.569   4.158  1.7651 -1.2759  1.8869
  404MOL0     H53324  12.226   1.729   4.086  1.9204  1.1028 -5.1413
  404MOL0     H53325  12.301   1.596   4.187  1.3913  1.1163 -0.5574
  404MOL0     H53326  12.488   1.555   3.820  1.2195 -1.4178  2.2374
  404MOL0     H53327  11.721   1.599   3.747  1.0261  2.6368  0.6225
  404MOL0     H53328  11.465   1.598   3.720 -2.1820  1.1978  1.2301
  405MOL0     O53329   6.722   0.714   9.410  0.4061 -0.3377 -0.0249
  405MOL0     C53330   6.766   0.677   9.303  0.5539  0.4389 -0.8918
  405MOL0     O53331   6.697   0.645   9.186  0.3823 -0.2297 -0.3430
  405MOL0     C53332   6.572   0.691   9.171  0.3859 -0.0140 -0.7199
  405MOL0     C53333   6.472   0.721   9.273 -0.5080  0.0695  0.5440
  405MOL0     C53334   6.343   0.774   9.240  0.5461  0.5417 -0.3836
  405MOL0     C53335   6.310   0.780   9.111  0.0855 -0.2329 -0.2632
  405MOL0     O53336   6.188   0.812   9.057 -1.0559 -0.2060  0.1660
  405MOL0     C53337   6.082   0.851   9.143  0.4033 -0.7938 -1.2959
  405MOL0     C53338   5.949   0.850   9.072  0.5439  0.3782  0.8440
  405MOL0     C53339   5.907   0.713   9.023  0.0488  0.3664  0.7911
  405MOL0     C53340   5.773   0.715   8.955 -0.1686  0.8253 -0.5703
  405MOL0     C53341   5.732   0.586   8.890 -0.1504 -0.2773  0.5046
  405MOL0     C53342   5.612   0.605   8.790 -0.3207 -0.0878  0.0471
  405MOL0     C53343   5.568   0.463   8.740  0.9849 -0.0473  0.6227
  405MOL0     C53344   5.430   0.480   8.670 -0.6284  0.1806 -0.0774
  405MOL0     N53345   5.354   0.356   8.633 -0.0098 -0.2184  0.7985
  405MOL0     C53346   5.404   0.246   8.574 -0.2197  0.6097 -0.3660
  405MOL0     C53347   5.296   0.166   8.548 -0.2436 -0.3033 -0.4810
  405MOL0     C53348   5.296   0.032   8.471 -0.2504  0.4465 -0.1811
  405MOL0     C53349   5.261  -0.076   8.573  0.2803 -0.4757  0.2180
  405MOL0     C53350   5.346  -0.191   8.550  0.0083  0.1885  0.4499
  405MOL0     C53351   5.317  -0.281   8.423  0.4066 -0.0432  0.1854
  405MOL0     O53352   5.380  -0.232   8.302  0.0690 -0.1315  0.6917
  405MOL0     C53353   5.519  -0.241   8.292 -0.2345 -0.3628 -0.2279
  405MOL0     C53354   5.600  -0.295   8.394 -0.2470 -0.0776  0.1944
  405MOL0     C53355   5.741  -0.304   8.374  0.1295  0.0776 -0.6824
  405MOL0     C53356   5.803  -0.256   8.261 -0.2985  0.2429 -0.4956
  405MOL0     C53357   5.950  -0.243   8.256 -0.9038  0.8939 -0.1659
  405MOL0     O53358   6.008  -0.207   8.142  0.4563  0.0659  0.5203
  405MOL0     C53359   6.145  -0.168   8.151 -0.0410 -0.3255 -0.4326
  405MOL0     C53360   6.226  -0.191   8.046 -0.7279  0.6998  0.0751
  405MOL0     C53361   6.362  -0.145   8.031 -0.2169  0.6440  0.4282
  405MOL0     C53362   6.411  -0.060   8.132  0.8267 -0.6144 -0.4175
  405MOL0     O53363   6.535  -0.002   8.128  0.1624  0.3695  0.6050
  405MOL0     C53364   6.597   0.028   7.994  0.1850 -0.4697 -1.1156
  405MOL0     C53365   6.692   0.145   8.026  0.2424  0.7918 -0.5389
  405MOL0     C53366   6.813   0.107   8.113  1.0991  0.0595 -0.1031
  405MOL0     C53367   6.918   0.217   8.126  0.7087 -0.9535  0.0228
  405MOL0     C53368   7.048   0.184   8.202 -0.3508  0.0708  0.1550
  405MOL0     C53369   7.020   0.133   8.341 -0.4790  0.2630 -0.3969
  405MOL0     C53370   6.945   0.238   8.432 -0.5285  0.5935  0.9477
  405MOL0     C53371   6.821   0.175   8.503 -0.1926 -0.5244 -0.2842
  405MOL0    Cl53372   6.860   0.085   8.649  0.1458  0.1739 -0.0399
  405MOL0     C53373   6.336  -0.045   8.248 -0.5246 -1.3797  0.5124
  405MOL0     C53374   6.204  -0.087   8.255  0.3430 -0.3984  1.1501
  405MOL0     O53375   6.008  -0.262   8.366  0.3846  0.0011  0.0093
  405MOL0     C53376   5.720  -0.200   8.165  0.2658 -0.5008  0.2430
  405MOL0     C53377   5.574  -0.185   8.184 -0.6270  0.3258  0.0579
  405MOL0     N53378   5.185   0.224   8.604 -0.7366 -0.2153  0.1866
  405MOL0     N53379   5.214   0.328   8.660  0.0894 -0.1742 -0.3141
  405MOL0     C53380   6.395   0.745   9.012  0.4697  0.1962  0.4853
  405MOL0     C53381   6.521   0.701   9.045  0.2019 -0.5138 -0.8663
  405MOL0     C53382   6.910   0.689   9.292 -0.3687  0.2676 -0.0796
  405MOL0     C53383   6.971   0.682   9.167 -0.3279  0.3826  0.5317
  405MOL0     C53384   7.108   0.714   9.152 -0.0173 -0.4041  0.0407
  405MOL0     C53385   7.188   0.747   9.264  0.9415  0.0447  0.5411
  405MOL0     O53386   7.327   0.771   9.263 -0.2343 -0.3950  0.3096
  405MOL0     C53387   7.404   0.782   9.138  1.4533 -0.8184  0.2703
  405MOL0     C53388   7.552   0.797   9.176 -0.2530  0.3555 -0.8196
  405MOL0     C53389   7.627   0.848   9.056 -0.4908  0.7228  0.4607
  405MOL0     C53390   7.778   0.848   9.075 -0.8545 -0.4129  0.3612
  405MOL0     C53391   7.833   0.730   9.125 -0.5067  0.0683 -1.5099
  405MOL0     C53392   7.873   0.621   9.178  0.5677  0.2658 -0.0445
  405MOL0     C53393   7.127   0.735   9.390  0.5890  0.1461 -0.6602
  405MOL0     C53394   6.989   0.715   9.407 -0.2573  0.5815  0.7284
  405MOL0     H53395   6.497   0.706   9.377  2.0386  1.2007  0.1700
  405MOL0     H53396   6.272   0.802   9.318  1.2214  3.3403 -0.6396
  405MOL0     H53397   6.094   0.957   9.168  0.2828 -0.7117 -1.5855
  405MOL0     H53398   6.076   0.804   9.241 -1.9951  1.6691 -0.1283
  405MOL0     H53399   5.957   0.907   8.979 -1.6733 -0.4058  0.1068
  405MOL0     H53400   5.876   0.902   9.134 -0.4864  1.4867 -1.1894
  405MOL0     H53401   5.889   0.645   9.108 -3.9731 -0.4128 -0.4704
  405MOL0     H53402   5.981   0.667   8.956 -0.7110  0.6604 -0.2773
  405MOL0     H53403   5.686   0.734   9.018  0.1873 -2.8547  1.2805
  405MOL0     H53404   5.763   0.791   8.876 -2.6672  1.7207  0.4912
  405MOL0     H53405   5.703   0.514   8.967  0.0632 -1.6738 -0.6783
  405MOL0     H53406   5.817   0.548   8.833 -0.9946  0.7813 -1.5822
  405MOL0     H53407   5.648   0.646   8.695 -0.9291 -0.6966 -0.4644
  405MOL0     H53408   5.539   0.665   8.845  1.9188  1.0582  1.9206
  405MOL0     H53409   5.645   0.423   8.673 -0.9420 -1.5732 -0.8086
  405MOL0     H53410   5.548   0.390   8.819  4.4780 -0.3153  1.4551
  405MOL0     H53411   5.459   0.531   8.578  2.9234  0.5503  1.0852
  405MOL0     H53412   5.366   0.540   8.736 -1.1506 -2.3757  1.9067
  405MOL0     H53413   5.502   0.230   8.529 -1.9431 -1.2686 -3.9728
  405MOL0     H53414   5.391   0.005   8.425  1.1858 -0.1979  2.8624
  405MOL0     H53415   5.217   0.042   8.396  1.1081  0.0634 -1.7180
  405MOL0     H53416   5.153  -0.095   8.576 -0.1779  1.3175 -2.2966
  405MOL0     H53417   5.295  -0.043   8.672  0.9626 -0.0971 -0.1378
  405MOL0     H53418   5.448  -0.158   8.568 -0.6216  2.7439 -0.2141
  405MOL0     H53419   5.327  -0.250   8.640 -3.5509  1.7781  0.9202
  405MOL0     H53420   5.211  -0.292   8.398  1.0254 -0.6547 -2.5594
  405MOL0     H53421   5.351  -0.384   8.439  1.4873  0.5039  1.5811
  405MOL0     H53422   5.558  -0.352   8.476  1.0782 -1.9082 -0.3313
  405MOL0     H53423   5.794  -0.345   8.460 -1.8730 -0.7758  0.2246
  405MOL0     H53424   6.185  -0.238   7.958  0.3964  0.2624 -0.2408
  405MOL0     H53425   6.420  -0.168   7.943  2.2503  1.4716  1.7594
  405MOL0     H53426   6.515   0.067   7.933 -0.7661  2.7531  1.8932
  405MOL0     H53427   6.650  -0.050   7.938  1.7471  0.2363 -0.6719
  405MOL0     H53428   6.629   0.218   8.079  0.5488 -1.4696  3.3869
  405MOL0     H53429   6.729   0.195   7.936  3.9107  0.9852  0.9181
  405MOL0     H53430   6.850   0.011   8.075  0.9639 -0.1074  0.1872
  405MOL0     H53431   6.778   0.091   8.215 -1.3114  1.7095 -0.6126
  405MOL0     H53432   6.956   0.240   8.026  2.5540 -5.3430 -0.5288
  405MOL0     H53433   6.877   0.310   8.167 -1.1990 -0.9037 -1.8427
  405MOL0     H53434   7.112   0.273   8.205 -0.3535  0.2193 -2.1222
  405MOL0     H53435   7.114   0.119   8.143  1.2085  3.3524 -2.0566
  405MOL0     H53436   7.113   0.105   8.390  0.7708  3.2228 -0.8896
  405MOL0     H53437   6.962   0.041   8.328  0.4315 -0.2964 -0.5458
  405MOL0     H53438   7.023   0.265   8.504  1.0042  2.0450 -1.1281
  405MOL0     H53439   6.913   0.327   8.377 -2.0863 -1.3690 -1.5411
  405MOL0     H53440   6.763   0.112   8.435 -2.9601  0.0749  1.3912
  405MOL0     H53441   6.759   0.256   8.542 -0.3524 -0.3160 -0.9680
  405MOL0     H53442   6.373   0.018   8.328 -0.0886  0.8915 -1.3718
  405MOL0     H53443   6.136  -0.050   8.331  1.2106  0.3762  1.5749
  405MOL0     H53444   5.763  -0.161   8.074 -0.8654  0.2076  0.0093
  405MOL0     H53445   5.510  -0.140   8.109  1.3750 -2.0479 -3.3629
  405MOL0     H53446   6.358   0.739   8.910 -1.4542 -2.4793  1.2148
  405MOL0     H53447   6.589   0.680   8.963  0.3269  1.4266 -1.3001
  405MOL0     H53448   6.909   0.660   9.080  1.9955  0.4138 -1.2437
  405MOL0     H53449   7.151   0.721   9.052  0.5438  0.3564  0.3245
  405MOL0     H53450   7.374   0.873   9.086  1.1689 -0.0457  1.7365
  405MOL0     H53451   7.371   0.702   9.071 -0.0045  0.7152 -0.9330
  405MOL0     H53452   7.566   0.864   9.261 -1.3246 -0.3859 -0.0274
  405MOL0     H53453   7.585   0.697   9.207 -0.6271  0.6254  0.5074
  405MOL0     H53454   7.597   0.948   9.021  2.4505  1.2443 -0.8011
  405MOL0     H53455   7.602   0.776   8.978  2.0999  0.0238  0.2052
  405MOL0     H53456   7.837   0.880   8.989 -1.3641 -1.4042 -0.3781
  405MOL0     H53457   7.799   0.930   9.144 -1.6869  0.0986  0.0271
  405MOL0     H53458   7.901   0.528   9.223 -0.3386 -0.3956 -0.7891
  405MOL0     H53459   7.191   0.735   9.477  0.9903 -1.6779 -0.9278
  405MOL0     H53460   6.946   0.719   9.506  0.9752  3.9873  1.2659
  406MOL0     O53461   7.539   8.109   1.921 -1.0013  0.9099 -0.2315
  406MOL0     C53462   7.601   8.021   1.986  0.4725  1.1607  0.2405
  406MOL0     O53463   7.545   7.929   2.068  0.1365  0.1343 -0.6472
  406MOL0     C53464   7.411   7.931   2.096  0.1422  0.1859 -0.2428
  406MOL0     C53465   7.354   8.055   2.139 -0.6344  0.1723 -1.0653
  406MOL0     C53466   7.223   8.056   2.171 -0.8305  0.3740  0.3059
  406MOL0     C53467   7.139   7.941   2.160 -0.2296 -1.1412  0.7893
  406MOL0     O53468   7.001   7.953   2.175 -0.2161 -0.1489  0.1627
  406MOL0     C53469   6.943   7.842   2.242  0.2230  0.5578  0.7823
  406MOL0     C53470   6.805   7.861   2.306 -0.2418 -0.4337  0.3339
  406MOL0     C53471   6.681   7.874   2.222 -0.1499  0.4794 -0.0123
  406MOL0     C53472   6.560   7.912   2.315 -0.5293  0.1109 -0.1002
  406MOL0     C53473   6.418   7.910   2.255  0.5401 -0.6784 -0.3802
  406MOL0     C53474   6.316   7.939   2.367  0.5389 -0.7796  0.4805
  406MOL0     C53475   6.326   8.065   2.452 -0.0287 -0.0385  0.1234
  406MOL0     C53476   6.292   8.192   2.386 -0.0069 -0.5949 -0.0724
  406MOL0     N53477   6.314   8.303   2.482  0.0616 -0.4474  0.4249
  406MOL0     C53478   6.383   8.419   2.438 -0.0420 -0.3229  0.3519
  406MOL0     C53479   6.359   8.519   2.529 -0.4199  0.0438  0.2955
  406MOL0     C53480   6.420   8.659   2.520  0.0024  1.1806  1.5558
  406MOL0     C53481   6.440   8.726   2.649  0.4660 -0.3465 -0.8245
  406MOL0     C53482   6.556   8.657   2.719 -0.7038 -0.4476 -0.2940
  406MOL0     C53483   6.580   8.680   2.864 -0.3275 -0.2901  0.7274
  406MOL0     O53484   6.479   8.606   2.938  0.3994  0.5203 -0.4169
  406MOL0     C53485   6.471   8.610   3.071 -0.2347  0.1584 -0.2053
  406MOL0     C53486   6.359   8.540   3.123 -0.4096  0.1271  0.1990
  406MOL0     C53487   6.339   8.544   3.260  0.1096  0.7530 -0.1253
  406MOL0     C53488   6.422   8.630   3.350 -0.2315 -0.0292  0.2191
  406MOL0     C53489   6.404   8.631   3.494  0.4697 -0.1111  0.3943
  406MOL0     O53490   6.343   8.521   3.550 -0.1350  0.3225 -0.4993
  406MOL0     C53491   6.325   8.517   3.687  0.0409  0.1938 -0.1299
  406MOL0     C53492   6.387   8.410   3.756 -0.0377  0.3301  0.8608
  406MOL0     C53493   6.369   8.408   3.893  0.2142  1.0230 -0.3788
  406MOL0     C53494   6.290   8.505   3.965 -0.3147 -0.0075  0.3373
  406MOL0     O53495   6.272   8.512   4.103  0.7186 -0.2601  0.1386
  406MOL0     C53496   6.348   8.417   4.183 -0.1039  0.1195 -0.2496
  406MOL0     C53497   6.491   8.457   4.196  0.2507  0.5517  0.4056
  406MOL0     C53498   6.567   8.384   4.308 -0.5053 -0.8406 -0.4681
  406MOL0     C53499   6.721   8.396   4.307 -1.1944  0.4175 -1.4382
  406MOL0     C53500   6.790   8.305   4.424 -0.1244 -0.3660  0.0069
  406MOL0     C53501   6.943   8.320   4.426 -0.8090 -0.2990  1.0092
  406MOL0     C53502   7.030   8.267   4.309 -0.2735 -0.7415  0.7301
  406MOL0     C53503   7.175   8.311   4.319 -0.1610  0.5591  0.1370
  406MOL0    Cl53504   7.266   8.267   4.180 -0.2433  0.0160  0.0329
  406MOL0     C53505   6.227   8.596   3.889 -0.4227 -0.2624 -0.9353
  406MOL0     C53506   6.238   8.608   3.750 -0.7110 -0.3486 -0.9111
  406MOL0     O53507   6.450   8.733   3.556 -0.4644  0.4063 -0.1099
  406MOL0     C53508   6.523   8.716   3.291  0.5673  0.7271  0.4092
  406MOL0     C53509   6.547   8.703   3.151 -0.5239 -0.0440 -0.6557
  406MOL0     N53510   6.264   8.464   2.620  0.0521 -0.9843 -0.9443
  406MOL0     N53511   6.237   8.343   2.588 -0.3530 -0.2640  0.4494
  406MOL0     C53512   7.197   7.820   2.109  0.2979 -0.5583 -0.2864
  406MOL0     C53513   7.330   7.820   2.076 -0.7090 -0.2196 -0.0632
  406MOL0     C53514   7.748   8.007   1.963  0.0508  0.1513 -0.3324
  406MOL0     C53515   7.814   8.060   1.855  0.1819  0.4465  0.9041
  406MOL0     C53516   7.949   8.048   1.836  0.1897  0.3677 -0.0904
  406MOL0     C53517   8.032   7.989   1.935  0.2513 -0.0621 -0.2740
  406MOL0     O53518   8.168   7.975   1.913  0.2225 -0.2847  0.6041
  406MOL0     C53519   8.246   7.983   2.029  0.2429 -0.4369  0.3390
  406MOL0     C53520   8.399   8.007   1.996 -0.0180 -0.0503  0.1281
  406MOL0     C53521   8.445   8.151   1.955  0.6650  0.6284 -0.1855
  406MOL0     C53522   8.370   8.221   1.837  0.6775  0.5424  0.1319
  406MOL0     C53523   8.386   8.155   1.707 -0.5423 -0.3209 -0.5635
  406MOL0     C53524   8.406   8.097   1.605 -0.3418  0.0587 -0.3243
  406MOL0     C53525   7.970   7.941   2.050  0.6545 -0.4717 -0.1411
  406MOL0     C53526   7.832   7.945   2.056  0.4350 -0.1909 -0.2552
  406MOL0     H53527   7.408   8.147   2.158 -2.3880  1.0284  0.0046
  406MOL0     H53528   7.182   8.144   2.220 -1.4946  1.2416 -1.7095
  406MOL0     H53529   7.011   7.813   2.323 -1.1982 -0.4935  1.6476
  406MOL0     H53530   6.928   7.757   2.175 -1.7583  1.6169 -0.2179
  406MOL0     H53531   6.823   7.956   2.357  3.1229  1.7555 -4.1092
  406MOL0     H53532   6.799   7.776   2.374  1.1681 -1.9912 -1.3569
  406MOL0     H53533   6.671   7.780   2.167  1.9996 -0.7593  1.5410
  406MOL0     H53534   6.688   7.944   2.138  0.8840 -1.9933 -2.1026
  406MOL0     H53535   6.564   7.848   2.403 -2.6403  1.8217  1.3554
  406MOL0     H53536   6.580   8.013   2.351 -1.7672 -0.0191  1.0404
  406MOL0     H53537   6.390   7.814   2.212  0.7439 -0.0531 -1.9574
  406MOL0     H53538   6.406   7.980   2.172 -0.3357 -1.4274 -0.9135
  406MOL0     H53539   6.316   7.853   2.435  2.7974 -0.0793  1.4875
  406MOL0     H53540   6.213   7.939   2.332  0.1112 -0.1119  1.6956
  406MOL0     H53541   6.261   8.052   2.539  0.4776  0.0372  0.5166
  406MOL0     H53542   6.429   8.078   2.487  0.4992  1.8405 -1.8954
  406MOL0     H53543   6.190   8.191   2.346  0.2058  1.2474 -0.7223
  406MOL0     H53544   6.356   8.193   2.297  0.2506  0.5720  0.1153
  406MOL0     H53545   6.434   8.431   2.343 -0.1723 -2.0072  0.0349
  406MOL0     H53546   6.349   8.719   2.463 -0.4090 -0.5560  0.1675
  406MOL0     H53547   6.518   8.667   2.471  1.0187 -1.8369  2.8486
  406MOL0     H53548   6.352   8.726   2.714  1.1185  2.8796  0.2615
  406MOL0     H53549   6.457   8.833   2.630 -0.1819  0.0075  0.4700
  406MOL0     H53550   6.553   8.549   2.702 -0.8175 -0.0936 -3.0152
  406MOL0     H53551   6.646   8.690   2.666  0.1236 -2.6663 -0.3621
  406MOL0     H53552   6.573   8.786   2.893 -0.5267  0.1321 -0.7797
  406MOL0     H53553   6.681   8.640   2.878 -0.6399 -0.4130  2.8608
  406MOL0     H53554   6.300   8.474   3.060  0.6511 -0.2151 -0.4621
  406MOL0     H53555   6.269   8.480   3.313  1.1626 -0.1864  0.1583
  406MOL0     H53556   6.443   8.328   3.712 -0.9358  0.7523 -1.2135
  406MOL0     H53557   6.404   8.325   3.953  1.5485  0.5711 -1.7212
  406MOL0     H53558   6.346   8.313   4.151  2.6535 -0.2543  0.5063
  406MOL0     H53559   6.307   8.416   4.285  0.3968 -2.2325 -0.0104
  406MOL0     H53560   6.488   8.565   4.212 -3.2464  0.4032  1.7305
  406MOL0     H53561   6.538   8.438   4.099  2.2425  0.7839  1.2841
  406MOL0     H53562   6.546   8.277   4.299 -4.3765 -0.2732  0.0761
  406MOL0     H53563   6.523   8.418   4.402  3.6747  1.5742  0.9098
  406MOL0     H53564   6.773   8.360   4.217  1.5562 -2.6389  1.1315
  406MOL0     H53565   6.751   8.501   4.316  2.5308 -0.5759 -0.6877
  406MOL0     H53566   6.764   8.200   4.413 -3.3357  0.0537  2.1585
  406MOL0     H53567   6.741   8.337   4.517 -0.2047  0.4599 -0.3068
  406MOL0     H53568   6.969   8.266   4.517  2.1419  0.2279  0.5753
  406MOL0     H53569   6.970   8.424   4.446 -0.2228 -0.2260 -0.0520
  406MOL0     H53570   7.024   8.157   4.306  0.3545 -0.7687 -0.7262
  406MOL0     H53571   7.002   8.306   4.210 -1.2180  1.4730  1.8053
  406MOL0     H53572   7.225   8.262   4.403  2.1363  2.3210 -0.0944
  406MOL0     H53573   7.177   8.420   4.329 -2.8090  0.7389 -0.5864
  406MOL0     H53574   6.162   8.666   3.939 -1.7544 -0.1037 -2.7706
  406MOL0     H53575   6.174   8.674   3.692  0.8394  0.6096 -1.6054
  406MOL0     H53576   6.572   8.788   3.356  0.7937  0.4167  0.5832
  406MOL0     H53577   6.623   8.758   3.097 -2.5397  3.3114 -0.4211
  406MOL0     H53578   7.136   7.735   2.081  0.4167 -0.5131 -0.6789
  406MOL0     H53579   7.375   7.732   2.031  1.6341 -0.4827  2.4806
  406MOL0     H53580   7.767   8.123   1.780 -2.9136 -0.8185  1.6456
  406MOL0     H53581   7.999   8.096   1.753 -2.6593  0.6513 -1.7418
  406MOL0     H53582   8.240   7.889   2.084  1.7464  0.9392  3.0763
  406MOL0     H53583   8.214   8.063   2.096 -0.4748 -0.2716 -0.1831
  406MOL0     H53584   8.461   7.972   2.079  0.8844 -4.1558 -2.0049
  406MOL0     H53585   8.416   7.938   1.913 -1.1446 -0.6159  0.3498
  406MOL0     H53586   8.551   8.141   1.929  0.9248  1.8983  0.3148
  406MOL0     H53587   8.435   8.223   2.036 -3.2322 -0.0784  0.1549
  406MOL0     H53588   8.263   8.236   1.854  0.4548 -0.1560 -0.5773
  406MOL0     H53589   8.419   8.318   1.827  2.0859 -0.1515 -0.0111
  406MOL0     H53590   8.424   8.047   1.512 -2.8512  2.7375 -2.4425
  406MOL0     H53591   8.021   7.896   2.134 -0.7839 -0.2232  0.9137
  406MOL0     H53592   7.781   7.901   2.141  0.2558  1.5110  0.5657
  407MOL0     O53593   2.009   6.530   1.776 -0.1289 -0.2992 -0.8171
  407MOL0     C53594   1.909   6.466   1.800  0.0979  0.6419  0.0179
  407MOL0     O53595   1.905   6.336   1.842 -0.2579  0.2528 -0.0669
  407MOL0     C53596   2.019   6.272   1.876  0.3376 -0.7305  0.3023
  407MOL0     C53597   2.053   6.159   1.799  0.1032  0.4078 -0.0643
  407MOL0     C53598   2.164   6.090   1.826 -0.2299  0.1764  0.0731
  407MOL0     C53599   2.247   6.124   1.929 -0.2472 -1.0187 -0.8937
  407MOL0     O53600   2.357   6.055   1.951 -0.0103 -0.9422 -0.3898
  407MOL0     C53601   2.477   6.134   1.963 -0.2320 -0.4255 -0.2531
  407MOL0     C53602   2.563   6.108   1.839 -0.1713  0.0923  0.0559
  407MOL0     C53603   2.600   5.958   1.814  0.6160  0.2489 -0.3135
  407MOL0     C53604   2.701   5.955   1.702  0.4321  0.7496 -0.7515
  407MOL0     C53605   2.657   6.027   1.571  0.0532  0.7738  0.4969
  407MOL0     C53606   2.529   5.975   1.510 -0.6798 -0.3827 -0.6603
  407MOL0     C53607   2.535   5.828   1.476  0.5052 -0.1761  0.4802
  407MOL0     C53608   2.403   5.790   1.401  0.9230 -0.4194 -0.1180
  407MOL0     N53609   2.289   5.787   1.495 -0.2922 -0.0016 -0.6982
  407MOL0     C53610   2.231   5.662   1.510  0.0506 -0.5742 -0.3674
  407MOL0     C53611   2.095   5.677   1.544 -0.0581 -0.3221  0.5495
  407MOL0     C53612   2.001   5.569   1.554 -0.0992 -0.6987 -0.0560
  407MOL0     C53613   1.852   5.611   1.574 -0.2939 -0.3674  0.0458
  407MOL0     C53614   1.761   5.484   1.543  0.4521  0.3413  0.0139
  407MOL0     C53615   1.611   5.506   1.545  0.0464  0.9346  0.3722
  407MOL0     O53616   1.571   5.553   1.670 -0.0291  0.5359 -0.0370
  407MOL0     C53617   1.443   5.541   1.720 -0.0004 -0.4478  0.0142
  407MOL0     C53618   1.429   5.572   1.862 -0.4127 -1.4086  0.3754
  407MOL0     C53619   1.308   5.562   1.923 -0.1439  0.1817  0.6745
  407MOL0     C53620   1.188   5.537   1.845  0.0610  0.0921 -0.1165
  407MOL0     C53621   1.051   5.532   1.899 -0.1956 -0.4087 -0.1739
  407MOL0     O53622   0.940   5.500   1.821 -0.5154  0.7062  1.0299
  407MOL0     C53623   0.813   5.491   1.868 -0.0465  0.1700 -0.5845
  407MOL0     C53624   0.781   5.454   1.996 -0.8668  1.0258 -0.0018
  407MOL0     C53625   0.644   5.439   2.033 -1.1478 -0.4075  0.5227
  407MOL0     C53626   0.539   5.479   1.945 -0.6668  0.1762 -0.5047
  407MOL0     O53627   0.414   5.485   1.995  0.2183  0.0450  0.1623
  407MOL0     C53628   0.310   5.538   1.905 -0.3654  1.0693 -0.0634
  407MOL0     C53629   0.183   5.504   1.982 -0.0112 -0.2099  0.0677
  407MOL0     C53630   0.050   5.508   1.907  0.0174 -0.4106  0.6643
  407MOL0     C53631   0.013   5.646   1.845 -0.2940  0.4303 -0.4163
  407MOL0     C53632  -0.098   5.632   1.746 -0.4923 -0.3617  0.2289
  407MOL0     C53633  -0.238   5.608   1.793 -0.4443 -0.2128 -0.6523
  407MOL0     C53634  -0.301   5.724   1.870  0.1234  0.3168  0.1262
  407MOL0     C53635  -0.441   5.688   1.924 -0.5271 -0.5628 -0.4248
  407MOL0    Cl53636  -0.548   5.659   1.786 -0.1996  0.3644 -0.5180
  407MOL0     C53637   0.575   5.518   1.818 -0.5406 -0.1143 -0.4033
  407MOL0     C53638   0.714   5.523   1.779  0.2125 -0.4510  0.2085
  407MOL0     O53639   1.040   5.575   2.013 -0.7829  0.1543  0.0091
  407MOL0     C53640   1.205   5.501   1.710 -0.8896 -0.7762 -0.9958
  407MOL0     C53641   1.330   5.495   1.643 -0.9993 -0.4974 -0.6330
  407MOL0     N53642   2.081   5.811   1.557  0.2808 -0.0199 -0.7072
  407MOL0     N53643   2.196   5.875   1.535  0.0512  0.7648 -0.4462
  407MOL0     C53644   2.209   6.234   2.007  0.5892 -0.4096  0.4730
  407MOL0     C53645   2.094   6.311   1.984 -0.0810  0.2862 -0.8340
  407MOL0     C53646   1.772   6.530   1.779  0.6299  0.5377  0.4906
  407MOL0     C53647   1.760   6.662   1.720  0.6261  0.2975 -0.4760
  407MOL0     C53648   1.632   6.704   1.687  0.1503 -0.5795  0.2691
  407MOL0     C53649   1.521   6.614   1.701  0.4375 -0.2795  0.7748
  407MOL0     O53650   1.394   6.661   1.670 -0.6125 -0.2355 -0.2840
  407MOL0     C53651   1.369   6.641   1.530  0.2476  0.5280  0.3843
  407MOL0     C53652   1.218   6.665   1.514  0.1927  0.7531 -0.1639
  407MOL0     C53653   1.130   6.562   1.570  0.3778  0.3899 -0.7680
  407MOL0     C53654   1.080   6.442   1.490 -0.0505 -0.1099  0.2663
  407MOL0     C53655   1.186   6.351   1.451  1.0843 -0.1588  0.0504
  407MOL0     C53656   1.268   6.275   1.423  0.1049  0.5583 -0.2291
  407MOL0     C53657   1.532   6.488   1.757 -0.2921  0.0011 -1.1891
  407MOL0     C53658   1.659   6.450   1.796  0.0613 -0.3400  1.0780
  407MOL0     H53659   1.985   6.121   1.723 -1.5132  2.7355  0.1164
  407MOL0     H53660   2.196   5.996   1.781  4.4826  1.1512  0.8700
  407MOL0     H53661   2.518   6.096   2.057  0.1692  2.7288  0.9606
  407MOL0     H53662   2.456   6.239   1.988  1.2269 -0.3672  0.8760
  407MOL0     H53663   2.665   6.148   1.848  0.4610 -0.3565 -3.6234
  407MOL0     H53664   2.515   6.161   1.756 -1.6683  1.7933  1.8752
  407MOL0     H53665   2.504   5.907   1.801  2.2061 -3.3713  0.9068
  407MOL0     H53666   2.639   5.927   1.911  1.5465 -2.3359 -1.4483
  407MOL0     H53667   2.793   6.004   1.734 -0.2377  1.4150  0.1954
  407MOL0     H53668   2.722   5.848   1.686  1.2023  0.1396  3.3228
  407MOL0     H53669   2.728   6.001   1.492  0.6422 -0.3958  1.3876
  407MOL0     H53670   2.652   6.136   1.587  0.1509  0.8519  0.0081
  407MOL0     H53671   2.506   6.029   1.418 -3.4796 -0.2716  0.0424
  407MOL0     H53672   2.454   5.978   1.590  1.9834  1.3920  1.9922
  407MOL0     H53673   2.628   5.799   1.426  1.9151 -0.3495  3.0318
  407MOL0     H53674   2.550   5.759   1.559  0.8223 -2.4745 -1.3807
  407MOL0     H53675   2.424   5.688   1.366 -3.0685 -1.7695  0.8622
  407MOL0     H53676   2.392   5.858   1.316 -0.2147  0.5565  0.7660
  407MOL0     H53677   2.279   5.565   1.500 -1.4901 -1.5774  1.3298
  407MOL0     H53678   2.030   5.503   1.636 -0.1111 -0.5887  0.0368
  407MOL0     H53679   2.002   5.511   1.460 -1.1333 -0.3102 -0.3190
  407MOL0     H53680   1.830   5.707   1.527 -0.1715  0.3060  1.3157
  407MOL0     H53681   1.833   5.625   1.681  3.0752 -2.8869  1.1598
  407MOL0     H53682   1.801   5.449   1.447  0.5124  1.2374 -0.3007
  407MOL0     H53683   1.787   5.410   1.618  0.5024 -1.1391 -1.4020
  407MOL0     H53684   1.565   5.412   1.513  0.0853  1.7146 -2.1742
  407MOL0     H53685   1.574   5.576   1.470 -3.3408 -1.0602 -0.0128
  407MOL0     H53686   1.511   5.600   1.927  0.3496 -0.4774 -0.9327
  407MOL0     H53687   1.302   5.584   2.030 -0.8947  2.0993  0.2835
  407MOL0     H53688   0.850   5.430   2.076 -0.7711  1.0865 -0.0655
  407MOL0     H53689   0.609   5.408   2.132 -2.0646  0.5511  0.5157
  407MOL0     H53690   0.308   5.484   1.810 -0.0303  4.1142 -1.9051
  407MOL0     H53691   0.326   5.643   1.882  0.9663  1.1808  1.1841
  407MOL0     H53692   0.170   5.575   2.064 -0.6634 -0.8125  0.5072
  407MOL0     H53693   0.191   5.405   2.029 -3.3216 -1.0238 -0.7640
  407MOL0     H53694  -0.032   5.481   1.974 -0.0125 -1.0653  0.3714
  407MOL0     H53695   0.060   5.429   1.832 -1.0476 -0.7166  0.8219
  407MOL0     H53696  -0.007   5.723   1.920  1.1267  0.8008 -0.4013
  407MOL0     H53697   0.104   5.685   1.799 -0.3186  2.9326  1.4748
  407MOL0     H53698  -0.064   5.551   1.681  2.7009  1.5758 -0.7206
  407MOL0     H53699  -0.093   5.720   1.681 -1.9048 -2.9570 -3.7938
  407MOL0     H53700  -0.240   5.521   1.859  0.5832  0.2294 -0.0080
  407MOL0     H53701  -0.297   5.585   1.704  1.0302 -0.3572 -1.6458
  407MOL0     H53702  -0.231   5.756   1.948  1.0724  0.1943 -0.6541
  407MOL0     H53703  -0.305   5.811   1.804  0.6048 -1.0069 -1.7271
  407MOL0     H53704  -0.484   5.760   1.995  1.9790  2.0958 -1.4226
  407MOL0     H53705  -0.429   5.597   1.984 -3.6638 -0.2323  0.9047
  407MOL0     H53706   0.502   5.554   1.746  0.3365  0.4950 -1.0138
  407MOL0     H53707   0.755   5.535   1.680 -2.6417  1.8965 -0.8384
  407MOL0     H53708   1.122   5.479   1.645 -0.7460  1.0694 -1.8618
  407MOL0     H53709   1.332   5.467   1.538 -0.5853  0.4914 -0.9044
  407MOL0     H53710   2.272   6.260   2.092  0.9873 -0.3710  0.1681
  407MOL0     H53711   2.070   6.400   2.041 -0.4960 -1.2264  1.5083
  407MOL0     H53712   1.839   6.729   1.687  1.5343  0.0339  1.0549
  407MOL0     H53713   1.625   6.795   1.628  0.0946 -0.7879 -0.0456
  407MOL0     H53714   1.405   6.542   1.499 -0.2136  0.1757  0.9493
  407MOL0     H53715   1.426   6.718   1.476  1.0976 -0.0717  0.3977
  407MOL0     H53716   1.195   6.763   1.554 -1.5830  0.6673 -0.9002
  407MOL0     H53717   1.205   6.666   1.405 -0.2359  0.7508 -0.1125
  407MOL0     H53718   1.037   6.618   1.586 -0.6840 -1.7786  1.3473
  407MOL0     H53719   1.165   6.522   1.666 -0.9478 -0.0885 -0.4642
  407MOL0     H53720   0.994   6.392   1.537 -1.4398  1.0340 -0.9722
  407MOL0     H53721   1.044   6.484   1.395  0.5512 -1.7930 -0.7417
  407MOL0     H53722   1.354   6.211   1.414  1.9380  2.3117  2.8549
  407MOL0     H53723   1.438   6.434   1.768  0.0446 -0.2710  0.8082
  407MOL0     H53724   1.667   6.346   1.825 -2.1102 -0.8326  0.1086
  408MOL0     O53725   5.148   9.712   6.509  0.0863 -0.6296  0.4136
  408MOL0     C53726   5.141   9.834   6.492  0.6242  0.6053 -0.4483
  408MOL0     O53727   5.026   9.907   6.518 -0.8555 -0.6504 -0.2191
  408MOL0     C53728   4.902   9.839   6.553 -0.4858 -0.1848 -0.4102
  408MOL0     C53729   4.878   9.702   6.556 -1.0064  0.3207  0.0971
  408MOL0     C53730   4.755   9.648   6.588 -0.2003  0.0126  0.3819
  408MOL0     C53731   4.655   9.735   6.633 -0.2813 -0.5164  0.1746
  408MOL0     O53732   4.543   9.684   6.684  0.1650  0.1178 -0.1608
  408MOL0     C53733   4.502   9.557   6.643 -0.4807 -0.4249  0.6348
  408MOL0     C53734   4.359   9.518   6.676  0.4165 -0.2990 -0.4208
  408MOL0     C53735   4.339   9.478   6.824  0.0222  0.1582  0.3899
  408MOL0     C53736   4.191   9.421   6.852 -0.5189  0.2740 -0.6915
  408MOL0     C53737   4.180   9.396   7.002 -0.2329  0.1950  0.0944
  408MOL0     C53738   4.051   9.349   7.066  0.7494 -0.0232  0.0003
  408MOL0     C53739   3.941   9.457   7.069  0.4277 -0.2471 -0.5656
  408MOL0     C53740   3.966   9.582   7.151 -0.3906  0.4582 -0.1214
  408MOL0     N53741   3.849   9.670   7.159 -0.0984  0.0817 -0.5563
  408MOL0     C53742   3.783   9.706   7.272 -0.6390 -0.8854  0.0082
  408MOL0     C53743   3.679   9.786   7.217 -0.7017 -0.1142 -0.6647
  408MOL0     C53744   3.570   9.847   7.284 -0.3697  0.7373 -0.9129
  408MOL0     C53745   3.448   9.752   7.285  0.8939 -0.4297 -0.5539
  408MOL0     C53746   3.323   9.837   7.338 -0.2933 -0.0306  0.1934
  408MOL0     C53747   3.194   9.766   7.362  0.1934  0.3121 -0.1593
  408MOL0     O53748   3.133   9.721   7.239  1.0390 -0.2808  0.3787
  408MOL0     C53749   2.990   9.712   7.246 -0.2057 -0.2424  0.0360
  408MOL0     C53750   2.909   9.732   7.363  0.2406  0.6698 -0.7473
  408MOL0     C53751   2.782   9.689   7.353  0.0923 -0.5251 -0.3911
  408MOL0     C53752   2.724   9.631   7.240 -0.8965  0.6153 -0.3222
  408MOL0     C53753   2.578   9.596   7.235 -0.1129 -0.2291  0.1395
  408MOL0     O53754   2.529   9.557   7.358  0.2656  0.1284  1.0205
  408MOL0     C53755   2.397   9.528   7.371 -0.7885  0.6068 -0.1030
  408MOL0     C53756   2.350   9.403   7.311 -1.6989  0.4133  0.3330
  408MOL0     C53757   2.222   9.364   7.335  0.2343  0.6187 -0.1236
  408MOL0     C53758   2.132   9.448   7.406  0.8758  0.6702 -0.7349
  408MOL0     O53759   1.995   9.426   7.425 -1.1733  0.1619  0.1447
  408MOL0     C53760   1.944   9.292   7.422  0.2924  0.4072 -0.5635
  408MOL0     C53761   1.801   9.301   7.487 -0.5904  0.0638 -0.0537
  408MOL0     C53762   1.705   9.181   7.493 -0.1316  0.2178 -0.6990
  408MOL0     C53763   1.767   9.051   7.553  0.2088 -0.1498 -0.4897
  408MOL0     C53764   1.657   8.970   7.617  0.0474  0.2423  0.4857
  408MOL0     C53765   1.692   8.831   7.663 -0.3676  0.3909 -0.7267
  408MOL0     C53766   1.577   8.766   7.729  0.3237 -0.0978  0.4574
  408MOL0     C53767   1.544   8.808   7.871 -0.9857  0.6337 -0.3281
  408MOL0    Cl53768   1.415   8.696   7.942  0.0443  0.1546  0.2935
  408MOL0     C53769   2.174   9.572   7.467  0.2042  0.5505  1.2123
  408MOL0     C53770   2.311   9.604   7.453 -0.5629  0.4066  0.4200
  408MOL0     O53771   2.521   9.589   7.127  1.3753  0.1961  0.3812
  408MOL0     C53772   2.794   9.624   7.120 -0.6734  0.8901 -0.1261
  408MOL0     C53773   2.929   9.663   7.129  0.5848 -0.1117  0.6450
  408MOL0     N53774   3.703   9.798   7.087  0.8002 -0.6147  0.1533
  408MOL0     N53775   3.803   9.729   7.053  0.0089 -0.4520 -0.5983
  408MOL0     C53776   4.679   9.875   6.629  0.2381  0.1663 -0.0387
  408MOL0     C53777   4.795   9.927   6.583 -0.1034 -0.5653  0.3202
  408MOL0     C53778   5.257   9.901   6.444 -0.6946 -0.8121 -0.4239
  408MOL0     C53779   5.387   9.845   6.444  0.7862 -1.0126  0.5258
  408MOL0     C53780   5.494   9.922   6.393  0.0745  0.3942 -0.2139
  408MOL0     C53781   5.474  10.055   6.351  0.1710  0.0269 -0.6684
  408MOL0     O53782   5.584  10.113   6.297 -0.0357 -0.3309  0.3239
  408MOL0     C53783   5.588  10.254   6.273 -0.9667  0.6695 -0.1904
  408MOL0     C53784   5.734  10.298   6.257 -0.6232  0.2926  0.1925
  408MOL0     C53785   5.809  10.230   6.135 -1.2189  0.1493  1.2766
  408MOL0     C53786   5.955  10.265   6.130  0.6411  0.5050  0.4771
  408MOL0     C53787   5.944  10.402   6.077 -0.4668 -0.0608 -0.5024
  408MOL0     C53788   5.936  10.521   6.051 -0.6791  0.1923 -0.4667
  408MOL0     C53789   5.344  10.112   6.366  0.0430 -0.1943 -0.3105
  408MOL0     C53790   5.243  10.037   6.416  0.9141 -0.5776 -0.0820
  408MOL0     H53791   4.942   9.625   6.514  0.4411  2.2341 -1.3883
  408MOL0     H53792   4.746   9.540   6.586 -1.2104  0.1017 -1.0378
  408MOL0     H53793   4.563   9.482   6.694 -1.4041  0.2466  2.8916
  408MOL0     H53794   4.507   9.552   6.534 -3.7804 -1.6409  0.4054
  408MOL0     H53795   4.325   9.437   6.611  0.8864 -0.6096 -0.2867
  408MOL0     H53796   4.298   9.606   6.652 -0.0029 -0.6973 -0.8342
  408MOL0     H53797   4.354   9.563   6.891  1.6510  0.7269 -0.6395
  408MOL0     H53798   4.416   9.404   6.846  1.5998  0.2566 -3.8854
  408MOL0     H53799   4.110   9.482   6.810 -0.2758  0.9282 -0.2340
  408MOL0     H53800   4.188   9.322   6.807 -1.3472  0.3003 -0.7035
  408MOL0     H53801   4.219   9.475   7.067  0.3818 -0.0662  0.0459
  408MOL0     H53802   4.253   9.317   7.020  2.6555  3.2132  3.1945
  408MOL0     H53803   4.072   9.315   7.168  3.6738 -0.6332 -0.7073
  408MOL0     H53804   4.009   9.262   7.015  0.4853 -0.1563  0.4382
  408MOL0     H53805   3.923   9.490   6.966  2.8066 -0.7942 -1.2355
  408MOL0     H53806   3.853   9.411   7.114  0.9910  0.4480  1.3759
  408MOL0     H53807   4.059   9.627   7.115 -0.1121  0.6779  0.8436
  408MOL0     H53808   3.991   9.553   7.253 -1.3348  0.8740  0.2420
  408MOL0     H53809   3.792   9.664   7.372 -1.1884 -1.1157 -0.0353
  408MOL0     H53810   3.545   9.941   7.232  2.0355  2.3149  0.5782
  408MOL0     H53811   3.592   9.875   7.387  1.3956 -0.0394 -1.0472
  408MOL0     H53812   3.447   9.664   7.350  2.9785 -1.4130 -1.7479
  408MOL0     H53813   3.423   9.725   7.181  0.7187  0.3461 -0.7158
  408MOL0     H53814   3.333   9.894   7.431 -1.0723 -3.9701  2.9497
  408MOL0     H53815   3.309   9.915   7.264 -0.9060  0.0461  0.3835
  408MOL0     H53816   3.131   9.837   7.416 -2.6599  0.9598 -3.8935
  408MOL0     H53817   3.197   9.677   7.426 -0.8538 -0.1827 -0.7541
  408MOL0     H53818   2.939   9.768   7.461 -0.4318  0.0138 -0.2889
  408MOL0     H53819   2.724   9.696   7.444  0.3101 -0.8985 -0.2196
  408MOL0     H53820   2.415   9.340   7.251  1.3359  3.9780 -0.5196
  408MOL0     H53821   2.182   9.273   7.290 -0.2381  2.0660 -2.8699
  408MOL0     H53822   2.012   9.231   7.483 -0.6824  0.3215  0.4789
  408MOL0     H53823   1.940   9.241   7.326  1.1428 -1.1936  0.2155
  408MOL0     H53824   1.753   9.384   7.435 -0.5484  0.5203  0.6202
  408MOL0     H53825   1.811   9.345   7.587 -0.1246 -0.3584  0.0886
  408MOL0     H53826   1.673   9.143   7.395 -0.0565  0.6297 -0.8877
  408MOL0     H53827   1.616   9.223   7.540 -0.5091 -2.2735  0.9849
  408MOL0     H53828   1.814   9.000   7.469 -1.4996 -0.9054 -1.0211
  408MOL0     H53829   1.831   9.076   7.638 -1.3240  2.3978  0.0459
  408MOL0     H53830   1.573   8.967   7.547 -0.3301  0.2290  0.9424
  408MOL0     H53831   1.623   9.042   7.691 -0.6229  1.8999 -1.3542
  408MOL0     H53832   1.784   8.837   7.722 -0.8420 -2.8301  0.5615
  408MOL0     H53833   1.721   8.773   7.575 -0.5008 -0.1478 -0.4150
  408MOL0     H53834   1.485   8.780   7.671 -0.1341 -2.2156  0.5696
  408MOL0     H53835   1.595   8.658   7.729 -2.2750 -0.5911  0.7493
  408MOL0     H53836   1.518   8.914   7.868 -1.8660  0.6326  3.0999
  408MOL0     H53837   1.638   8.805   7.927  0.9259  0.2851 -3.3199
  408MOL0     H53838   2.106   9.636   7.523 -0.6676 -0.5452  1.4317
  408MOL0     H53839   2.347   9.691   7.507  0.9531 -0.8738  1.5776
  408MOL0     H53840   2.753   9.581   7.029 -0.0733  3.1413 -1.5176
  408MOL0     H53841   2.989   9.657   7.038 -0.9839  2.0759 -0.6451
  408MOL0     H53842   4.599   9.943   6.655 -1.4986 -0.7490 -2.5787
  408MOL0     H53843   4.798  10.035   6.581 -0.4354 -0.5326  1.3828
  408MOL0     H53844   5.403   9.738   6.454  0.5798 -1.0451  0.5022
  408MOL0     H53845   5.586   9.868   6.376  0.0288 -0.6811  2.4463
  408MOL0     H53846   5.534  10.310   6.350 -3.4534 -2.0822  0.2713
  408MOL0     H53847   5.540  10.274   6.177  0.0962  1.6015 -0.5448
  408MOL0     H53848   5.737  10.407   6.250 -0.0599  0.2954  0.4237
  408MOL0     H53849   5.785  10.256   6.344  1.6484 -3.1948 -2.5266
  408MOL0     H53850   5.758  10.263   6.044 -2.0838  0.4653  1.8539
  408MOL0     H53851   5.785  10.123   6.129 -3.7815  0.6969  0.0052
  408MOL0     H53852   6.012  10.262   6.224 -1.7961 -0.6398  2.0275
  408MOL0     H53853   6.016  10.217   6.054  1.2354 -0.1658  1.3470
  408MOL0     H53854   5.918  10.619   6.013 -4.1648  0.7608  2.1222
  408MOL0     H53855   5.334  10.214   6.332  1.4455  0.6015  1.5247
  408MOL0     H53856   5.147  10.086   6.428  1.2169  0.9440 -2.9565
  409MOL0     O53857   6.226   8.819  10.121 -0.8886  0.1322  0.3984
  409MOL0     C53858   6.261   8.852  10.230 -0.6170  0.3124 -0.7137
  409MOL0     O53859   6.183   8.867  10.339  0.0749  0.6170  0.2782
  409MOL0     C53860   6.051   8.841  10.332  0.1491 -0.0355 -0.6547
  409MOL0     C53861   5.993   8.716  10.297 -0.1158 -0.1184  0.5229
  409MOL0     C53862   5.851   8.693  10.283 -0.5226  0.3191 -1.1434
  409MOL0     C53863   5.776   8.804  10.279  1.5355 -0.3506  0.1477
  409MOL0     O53864   5.638   8.801  10.269 -0.6429 -0.1214  0.0701
  409MOL0     C53865   5.573   8.715  10.184 -0.0639  0.9339 -0.6102
  409MOL0     C53866   5.435   8.700  10.233  0.4372  0.3733 -0.1202
  409MOL0     C53867   5.356   8.830  10.221 -0.2866  0.2585 -0.6645
  409MOL0     C53868   5.206   8.821  10.232 -0.4761  0.1015  0.4967
  409MOL0     C53869   5.152   8.972  10.227  0.1511  0.2388  0.3115
  409MOL0     C53870   5.000   8.972  10.206 -0.9228 -0.5019  0.2621
  409MOL0     C53871   4.938   9.110  10.200  0.2686 -1.1429  0.8553
  409MOL0     C53872   4.795   9.097  10.153 -0.7330  0.0844  0.2316
  409MOL0     N53873   4.733   9.232  10.141 -0.3475  1.2543 -0.1015
  409MOL0     C53874   4.705   9.318  10.246  1.1578 -0.1378  0.9237
  409MOL0     C53875   4.637   9.427  10.200  0.4253  0.2469 -0.4113
  409MOL0     C53876   4.599   9.554  10.269 -0.7801 -1.2340 -0.3926
  409MOL0     C53877   4.444   9.566  10.285  0.1433 -0.1530  0.1241
  409MOL0     C53878   4.374   9.642  10.168 -1.0641 -0.3566  0.5095
  409MOL0     C53879   4.227   9.637  10.190 -0.0718  0.5168  0.5374
  409MOL0     O53880   4.145   9.699  10.093 -0.4195 -0.0832  0.1284
  409MOL0     C53881   4.008   9.678  10.106 -0.0429  0.2151 -0.0035
  409MOL0     C53882   3.912   9.770  10.073 -0.4866  0.4389  0.2081
  409MOL0     C53883   3.777   9.743  10.056  0.2754 -0.1219  0.0617
  409MOL0     C53884   3.728   9.614  10.079 -1.0669 -0.9833  0.1767
  409MOL0     C53885   3.579   9.592  10.094  0.6017 -0.1907  0.9180
  409MOL0     O53886   3.496   9.702  10.118  0.2516  0.8469  0.1190
  409MOL0     C53887   3.356   9.705  10.123 -0.2914  0.4550  0.2668
  409MOL0     C53888   3.294   9.825  10.175 -0.3819 -0.0253  0.1697
  409MOL0     C53889   3.158   9.832  10.197  0.2332 -0.2895  0.4832
  409MOL0     C53890   3.068   9.744  10.127 -0.1399  0.4359 -0.3120
  409MOL0     O53891   2.936   9.776  10.137  0.1457  0.8981 -0.3495
  409MOL0     C53892   2.847   9.673  10.102 -0.4715 -0.6720  0.0308
  409MOL0     C53893   2.722   9.716  10.172 -0.9176  0.3125  0.0062
  409MOL0     C53894   2.593   9.641  10.141 -0.3046  0.1446  0.3581
  409MOL0     C53895   2.470   9.723  10.184  0.1571 -0.3162  0.9250
  409MOL0     C53896   2.343   9.657  10.126  0.0318 -1.2319  0.6326
  409MOL0     C53897   2.218   9.753  10.130 -0.6934  0.5690  0.6765
  409MOL0     C53898   2.086   9.677  10.080  0.4271  0.1195  0.1992
  409MOL0     C53899   1.955   9.759  10.087 -0.5819 -0.1729 -0.5867
  409MOL0    Cl53900   1.818   9.672  10.021  0.2208 -0.4308 -0.2375
  409MOL0     C53901   3.127   9.640  10.055  0.7694  0.5844 -0.0685
  409MOL0     C53902   3.266   9.618  10.062  0.4272  0.3257  0.8859
  409MOL0     O53903   3.538   9.474  10.091  0.3830  0.6189 -0.4086
  409MOL0     C53904   3.816   9.513  10.115  0.4726 -0.2679  0.6568
  409MOL0     C53905   3.956   9.548  10.126 -0.1823  0.3491  0.5513
  409MOL0     N53906   4.625   9.392  10.065 -0.5305  0.2946  0.4949
  409MOL0     N53907   4.686   9.286  10.032  0.2552 -0.0103  0.6725
  409MOL0     C53908   5.822   8.933  10.305  0.3483  0.1114  0.5164
  409MOL0     C53909   5.957   8.947  10.340  0.4157 -0.5191 -0.7600
  409MOL0     C53910   6.397   8.886  10.250 -0.4819  1.1196 -0.1281
  409MOL0     C53911   6.479   8.882  10.141 -0.4660 -0.0999 -0.3644
  409MOL0     C53912   6.618   8.913  10.152 -0.6534 -0.1124 -0.5783
  409MOL0     C53913   6.664   8.956  10.279  0.0750 -0.5493  0.2955
  409MOL0     O53914   6.788   9.014  10.282  0.3426  0.2011  0.3652
  409MOL0     C53915   6.847   9.070  10.404  0.6000 -1.1046  0.0191
  409MOL0     C53916   6.976   9.123  10.358 -0.5457  0.1954  0.0683
  409MOL0     C53917   6.968   9.249  10.269 -0.2268  0.4763  0.5326
  409MOL0     C53918   7.085   9.340  10.262 -0.3259 -0.5803 -0.5166
  409MOL0     C53919   7.079   9.424  10.144 -0.4275 -0.5992 -0.2926
  409MOL0     C53920   7.043   9.493  10.053 -0.4474 -0.1627 -0.4988
  409MOL0     C53921   6.570   8.979  10.387 -1.6265  0.0741  0.4143
  409MOL0     C53922   6.436   8.946  10.368 -0.2295 -0.1093 -0.5971
  409MOL0     H53923   6.057   8.633  10.271 -1.5764 -0.5861 -1.9452
  409MOL0     H53924   5.807   8.598  10.255 -1.3307  0.0349  0.9205
  409MOL0     H53925   5.616   8.614  10.190 -1.2756  0.4140 -0.3956
  409MOL0     H53926   5.570   8.739  10.078 -1.1064  2.0730 -0.3293
  409MOL0     H53927   5.450   8.661  10.334  2.4814  1.3618  0.0063
  409MOL0     H53928   5.395   8.613  10.179  0.7860 -0.8966  1.5631
  409MOL0     H53929   5.381   8.870  10.122  2.2842 -0.7579 -0.4911
  409MOL0     H53930   5.401   8.900  10.291  2.0938 -0.3491 -1.4972
  409MOL0     H53931   5.151   8.766  10.155 -2.6955 -0.6851  2.5159
  409MOL0     H53932   5.185   8.775  10.329 -0.0172 -1.1750  0.0055
  409MOL0     H53933   5.192   9.023  10.139 -4.0258  0.1229 -1.8890
  409MOL0     H53934   5.181   9.019  10.321 -1.2267  0.5105  0.6098
  409MOL0     H53935   4.950   8.922  10.289 -0.0435 -2.2983 -0.2359
  409MOL0     H53936   4.983   8.902  10.123 -0.8232 -2.0013  1.4521
  409MOL0     H53937   4.933   9.157  10.299 -3.8075  0.7144 -0.0665
  409MOL0     H53938   4.976   9.163  10.113 -1.7555 -0.9416  0.0509
  409MOL0     H53939   4.742   9.036  10.227  0.1094 -2.5437 -1.1920
  409MOL0     H53940   4.793   9.035  10.063 -1.4072  0.2631  0.1216
  409MOL0     H53941   4.750   9.313  10.345  0.3785  1.6285  1.4010
  409MOL0     H53942   4.651   9.631  10.211 -1.8456 -2.3388 -2.9751
  409MOL0     H53943   4.639   9.553  10.370 -0.6165  1.3775 -0.3618
  409MOL0     H53944   4.426   9.619  10.379  0.7192 -0.9991  0.7323
  409MOL0     H53945   4.403   9.466  10.304  0.6458 -0.1387  1.3744
  409MOL0     H53946   4.409   9.745  10.183 -1.4316 -0.2747  0.8253
  409MOL0     H53947   4.392   9.591  10.074 -0.1664 -2.0567  1.5559
  409MOL0     H53948   4.206   9.669  10.292  0.4519  0.6483  0.6056
  409MOL0     H53949   4.207   9.529  10.192 -4.4451  1.1273  1.1007
  409MOL0     H53950   3.943   9.874  10.066  3.5308 -0.7217 -2.0382
  409MOL0     H53951   3.718   9.832  10.041  2.2787  1.1363 -0.8330
  409MOL0     H53952   3.353   9.906  10.217  0.1638  0.3090 -1.1974
  409MOL0     H53953   3.125   9.922  10.247  0.1474  0.9084 -1.5992
  409MOL0     H53954   2.892   9.575  10.118  1.1468 -0.1388 -0.9552
  409MOL0     H53955   2.834   9.673   9.994  0.6921 -2.0305 -0.1324
  409MOL0     H53956   2.710   9.822  10.145 -2.9407  0.1167 -0.0298
  409MOL0     H53957   2.730   9.707  10.280 -0.9163  1.2437  0.0920
  409MOL0     H53958   2.590   9.542  10.189 -0.1023  0.3261  0.7537
  409MOL0     H53959   2.575   9.640  10.033  3.4981  1.1507 -0.4337
  409MOL0     H53960   2.467   9.726  10.294 -1.1725 -2.4046  0.9850
  409MOL0     H53961   2.476   9.826  10.148 -0.4661  0.2216  2.2865
  409MOL0     H53962   2.315   9.562  10.173  1.1571 -1.5142  0.7473
  409MOL0     H53963   2.351   9.638  10.019 -0.7409 -0.5542  0.4344
  409MOL0     H53964   2.233   9.844  10.072 -1.0022 -0.4141 -1.0001
  409MOL0     H53965   2.201   9.790  10.232  1.2089  2.3012  0.4264
  409MOL0     H53966   2.109   9.642   9.979  3.8042 -1.9658  1.5192
  409MOL0     H53967   2.069   9.595  10.151 -0.1629  0.3016  0.2760
  409MOL0     H53968   1.962   9.850  10.026 -3.4211  1.0606  0.7733
  409MOL0     H53969   1.920   9.782  10.188  0.1975  2.0161 -0.7591
  409MOL0     H53970   3.070   9.566  10.000  1.7990 -1.1054  1.0608
  409MOL0     H53971   3.310   9.530  10.016  2.4649  1.5956  0.2637
  409MOL0     H53972   3.766   9.419  10.135 -2.7128  1.0812 -0.3161
  409MOL0     H53973   4.016   9.459  10.140  2.4965  2.0655  0.7399
  409MOL0     H53974   5.760   9.022  10.311  1.9174  1.3959 -1.1244
  409MOL0     H53975   5.993   9.046  10.367 -2.2006 -0.2485  2.4277
  409MOL0     H53976   6.451   8.851  10.041 -1.2707  1.3813 -0.6139
  409MOL0     H53977   6.694   8.914  10.075  1.5343 -0.0653  1.4699
  409MOL0     H53978   6.852   8.981  10.467 -0.3207  0.3459  2.2740
  409MOL0     H53979   6.786   9.147  10.451 -2.1575 -1.2957 -2.8933
  409MOL0     H53980   7.037   9.144  10.445  0.5402 -1.7876 -0.1521
  409MOL0     H53981   7.045   9.059  10.301  2.3270  1.6516  1.7203
  409MOL0     H53982   6.876   9.307  10.281  0.5654  2.3541 -1.7976
  409MOL0     H53983   6.967   9.208  10.168  1.0706  0.5908  0.4540
  409MOL0     H53984   7.083   9.405  10.351  2.9689  2.1757 -2.1863
  409MOL0     H53985   7.184   9.295  10.271  0.5582  1.5008  1.1956
  409MOL0     H53986   7.010   9.540   9.963  0.0088  1.2054  0.0157
  409MOL0     H53987   6.603   9.026  10.479  3.8900 -1.4798 -0.3912
  409MOL0     H53988   6.378   8.967  10.457  2.1509  1.4363  0.6977
  410MOL0     O53989   3.748   8.568   1.956  0.1167  0.3971  0.2398
  410MOL0     C53990   3.711   8.534   2.067 -0.0186  0.7709  0.4862
  410MOL0     O53991   3.770   8.570   2.184 -0.0845  0.2902 -0.4867
  410MOL0     C53992   3.886   8.639   2.180 -0.1061  0.5181 -0.6659
  410MOL0     C53993   4.010   8.578   2.200  0.7857  0.5086  0.2860
  410MOL0     C53994   4.129   8.657   2.214  0.8045 -0.4353 -1.0466
  410MOL0     C53995   4.122   8.798   2.209  0.1980  0.0189 -0.3401
  410MOL0     O53996   4.240   8.861   2.210 -0.2024  1.1268  0.1851
  410MOL0     C53997   4.246   9.006   2.190 -0.3354  0.2843  0.4890
  410MOL0     C53998   4.389   9.051   2.182 -0.2072  0.3587  0.1011
  410MOL0     C53999   4.465   9.008   2.057 -0.3927 -0.7205  1.0631
  410MOL0     C54000   4.622   9.046   2.064 -0.5289  1.3592 -0.0265
  410MOL0     C54001   4.685   9.018   1.932  0.9018 -0.1882  0.7592
  410MOL0     C54002   4.831   9.058   1.932  0.2818 -0.6254 -0.0808
  410MOL0     C54003   4.912   8.973   2.038  0.0675 -0.9322 -0.1975
  410MOL0     C54004   5.061   9.007   2.030 -0.2451 -0.8655 -0.0238
  410MOL0     N54005   5.094   9.125   2.112 -0.2016  0.4170 -0.2882
  410MOL0     C54006   5.132   9.119   2.245  0.8886  0.0976  0.4668
  410MOL0     C54007   5.177   9.244   2.269 -0.1620  0.8483  0.9539
  410MOL0     C54008   5.254   9.280   2.394 -0.2453  0.0816 -0.0496
  410MOL0     C54009   5.155   9.356   2.483  0.8445  0.1670  0.6756
  410MOL0     C54010   5.212   9.373   2.626  1.1599 -0.2164  0.9998
  410MOL0     C54011   5.218   9.237   2.692  0.6279 -0.1832 -0.2723
  410MOL0     O54012   5.106   9.224   2.784 -0.1442 -0.0494 -0.0906
  410MOL0     C54013   4.981   9.164   2.751 -0.5131 -0.9851  0.9922
  410MOL0     C54014   4.869   9.179   2.832 -0.6294 -0.5598 -0.5479
  410MOL0     C54015   4.743   9.118   2.798 -0.4519  0.7419 -0.5175
  410MOL0     C54016   4.739   9.042   2.684 -0.4923 -0.1823 -0.2499
  410MOL0     C54017   4.614   8.979   2.645 -0.4097  0.5196  0.8771
  410MOL0     O54018   4.504   9.043   2.694  0.3162 -0.7522  0.5113
  410MOL0     C54019   4.371   9.010   2.660  0.1784 -0.7006 -0.4516
  410MOL0     C54020   4.284   9.095   2.729  0.2717  0.2203 -0.0833
  410MOL0     C54021   4.145   9.078   2.709  0.2023  0.9823 -0.1520
  410MOL0     C54022   4.088   8.989   2.626  0.9614 -0.7589 -0.0373
  410MOL0     O54023   3.946   8.977   2.630  0.3567 -0.3338 -0.3024
  410MOL0     C54024   3.878   8.915   2.521  0.0796 -0.0361  0.0520
  410MOL0     C54025   3.734   8.889   2.573  0.1149 -0.2778  0.3365
  410MOL0     C54026   3.646   8.792   2.484  0.4020  0.2731 -0.0578
  410MOL0     C54027   3.503   8.760   2.539  0.6764  0.4652  0.1023
  410MOL0     C54028   3.440   8.642   2.458 -0.6514  0.5956  0.0366
  410MOL0     C54029   3.283   8.626   2.484  1.1687 -0.0934 -0.2180
  410MOL0     C54030   3.243   8.500   2.414  0.6309  0.2296 -0.4905
  410MOL0     C54031   3.102   8.455   2.468  0.2509  0.4487 -0.1494
  410MOL0    Cl54032   3.092   8.392   2.630  0.0907  0.6539 -0.3940
  410MOL0     C54033   4.176   8.897   2.561  0.6024  0.6465  0.2102
  410MOL0     C54034   4.316   8.912   2.576  0.1378 -0.9522 -0.0617
  410MOL0     O54035   4.608   8.886   2.565  0.1843  0.0579  0.4534
  410MOL0     C54036   4.850   9.028   2.606  0.4612  1.0163 -0.3425
  410MOL0     C54037   4.965   9.090   2.636 -0.1865  0.9073  0.1662
  410MOL0     N54038   5.175   9.322   2.148 -0.2794 -0.4476 -0.0844
  410MOL0     N54039   5.120   9.250   2.059  0.6519  0.4281  0.2700
  410MOL0     C54040   3.996   8.853   2.188 -0.6529 -0.1539  0.0017
  410MOL0     C54041   3.881   8.775   2.177  0.6262  0.3676  0.1487
  410MOL0     C54042   3.589   8.463   2.067  0.1774 -0.4050  0.4816
  410MOL0     C54043   3.550   8.389   2.178 -0.4552 -0.1988  0.4570
  410MOL0     C54044   3.429   8.318   2.175 -0.8737  0.6208  0.6476
  410MOL0     C54045   3.344   8.316   2.067  0.0921 -1.0662  0.7263
  410MOL0     O54046   3.231   8.243   2.089  0.2923  0.1072  0.3861
  410MOL0     C54047   3.140   8.222   1.978  0.0979 -0.3412  0.6812
  410MOL0     C54048   3.024   8.141   2.024 -0.4395  1.0189 -0.0448
  410MOL0     C54049   2.957   8.222   2.144 -0.2290  0.5880  1.1498
  410MOL0     C54050   2.811   8.181   2.173 -0.0990  0.4161 -1.0659
  410MOL0     C54051   2.718   8.236   2.071  0.9627 -0.0481  0.5097
  410MOL0     C54052   2.645   8.290   1.989  0.7484  0.3245 -0.3729
  410MOL0     C54053   3.385   8.387   1.953  0.0516  0.5078  0.4849
  410MOL0     C54054   3.507   8.451   1.952 -0.1387 -0.2017  0.0032
  410MOL0     H54055   4.021   8.470   2.195  0.6608  0.4561  1.0338
  410MOL0     H54056   4.223   8.605   2.229  0.8158 -0.0114  0.5083
  410MOL0     H54057   4.201   9.065   2.271 -0.4325  2.4587 -1.0521
  410MOL0     H54058   4.194   9.033   2.098 -0.2434  5.0809  1.5534
  410MOL0     H54059   4.445   9.011   2.268 -0.8759 -0.2553  0.2559
  410MOL0     H54060   4.387   9.161   2.183 -3.0691  0.3751  0.6956
  410MOL0     H54061   4.419   9.071   1.981 -2.0791 -1.7466  1.2016
  410MOL0     H54062   4.448   8.903   2.033 -2.3510 -0.4307  1.0507
  410MOL0     H54063   4.654   9.147   2.092  2.0963  0.5176  0.2873
  410MOL0     H54064   4.661   8.979   2.141  1.1262  0.8060 -1.2889
  410MOL0     H54065   4.619   9.058   1.854 -0.6897 -0.8064  1.7429
  410MOL0     H54066   4.680   8.912   1.906 -1.5533  0.2128 -0.7660
  410MOL0     H54067   4.841   9.165   1.951 -0.6328 -0.1877 -1.8789
  410MOL0     H54068   4.879   9.043   1.835 -0.0995 -0.5217 -0.2860
  410MOL0     H54069   4.873   8.985   2.140 -1.8656 -0.2832 -0.9638
  410MOL0     H54070   4.904   8.868   2.008  2.9098 -1.0606 -0.7030
  410MOL0     H54071   5.087   9.026   1.926 -0.6380  1.1271  0.2038
  410MOL0     H54072   5.121   8.926   2.071  2.6776 -0.0089 -2.2782
  410MOL0     H54073   5.129   9.029   2.306  1.9602  0.1732  0.6455
  410MOL0     H54074   5.340   9.345   2.373  0.4404  0.8334  4.1715
  410MOL0     H54075   5.290   9.188   2.440 -2.4731 -0.3387  1.0055
  410MOL0     H54076   5.062   9.302   2.495  0.5553  0.9934  2.4275
  410MOL0     H54077   5.148   9.456   2.438  0.6061 -0.5711 -1.0044
  410MOL0     H54078   5.313   9.414   2.614  0.8398  0.1590 -0.6960
  410MOL0     H54079   5.159   9.451   2.681  2.0571  1.2055 -0.0668
  410MOL0     H54080   5.301   9.244   2.763  0.1795 -0.7691  0.3094
  410MOL0     H54081   5.237   9.146   2.635  2.4135 -1.2849  1.9041
  410MOL0     H54082   4.905   9.234   2.918 -0.6277  0.0641 -0.9387
  410MOL0     H54083   4.659   9.126   2.867 -1.4679  1.0110 -1.7362
  410MOL0     H54084   4.311   9.165   2.807  1.1775 -0.6590  0.4222
  410MOL0     H54085   4.077   9.132   2.774 -2.3831 -1.7380 -0.3676
  410MOL0     H54086   3.933   8.820   2.517  1.4108  0.5724  2.0553
  410MOL0     H54087   3.883   8.975   2.430  0.7706  1.9240  1.3264
  410MOL0     H54088   3.676   8.982   2.569 -1.7052 -1.3688 -3.2441
  410MOL0     H54089   3.745   8.835   2.667 -0.1659 -0.9121  0.0125
  410MOL0     H54090   3.699   8.700   2.462 -2.3418 -1.1385 -1.2831
  410MOL0     H54091   3.632   8.839   2.386  1.9503 -0.5849 -0.7179
  410MOL0     H54092   3.500   8.726   2.643 -2.9164  0.2071  0.0243
  410MOL0     H54093   3.434   8.845   2.534 -1.0412 -0.7361  1.9114
  410MOL0     H54094   3.503   8.556   2.481 -1.4415  0.3884  1.4767
  410MOL0     H54095   3.456   8.657   2.350  2.0864  1.1078  0.4327
  410MOL0     H54096   3.223   8.706   2.440  0.3444 -0.3349  0.4357
  410MOL0     H54097   3.276   8.613   2.592 -1.1537 -1.5816 -0.4747
  410MOL0     H54098   3.225   8.522   2.308 -1.2613 -1.8221 -0.6777
  410MOL0     H54099   3.319   8.421   2.424  1.1888  0.9346  1.1258
  410MOL0     H54100   3.066   8.369   2.410 -0.1760 -0.3469  1.2547
  410MOL0     H54101   3.029   8.535   2.456 -1.0244 -0.8528 -1.5362
  410MOL0     H54102   4.146   8.816   2.495 -0.5215  1.4088 -0.2606
  410MOL0     H54103   4.382   8.845   2.521  1.9442  1.2142 -0.6803
  410MOL0     H54104   4.844   8.960   2.522 -3.1690  0.2932  0.3620
  410MOL0     H54105   5.052   9.082   2.571  0.6803 -1.0889  1.4517
  410MOL0     H54106   3.989   8.962   2.186 -0.3845 -0.1471 -0.9995
  410MOL0     H54107   3.785   8.818   2.151  0.6477 -1.5360 -3.8416
  410MOL0     H54108   3.621   8.385   2.260 -0.6144 -0.1808  0.5965
  410MOL0     H54109   3.397   8.274   2.269 -2.0914  1.5390  0.6838
  410MOL0     H54110   3.179   8.185   1.883  0.9269  2.7598 -0.3134
  410MOL0     H54111   3.106   8.323   1.951 -1.0204 -0.3724  1.8274
  410MOL0     H54112   2.957   8.152   1.938 -0.4082 -0.8485 -0.3392
  410MOL0     H54113   3.037   8.034   2.039  0.0971  0.6626 -2.5987
  410MOL0     H54114   2.958   8.331   2.131  2.6387  0.7290  1.6930
  410MOL0     H54115   3.014   8.204   2.236  2.1216  1.2081 -0.0877
  410MOL0     H54116   2.804   8.072   2.164 -1.4103  0.0807  2.2148
  410MOL0     H54117   2.778   8.221   2.270  0.4812 -0.9159 -0.2917
  410MOL0     H54118   2.594   8.346   1.913  0.7332  2.2091  0.9647
  410MOL0     H54119   3.333   8.391   1.858 -0.9952 -2.0544  0.8475
  410MOL0     H54120   3.530   8.501   1.859 -2.6032 -3.3254 -2.5378
  411MOL0     O54121   1.913   2.512   7.350 -0.2582 -0.0575 -0.4206
  411MOL0     C54122   1.904   2.423   7.262 -0.9193  1.0351 -0.0603
  411MOL0     O54123   1.796   2.342   7.232  0.1311 -0.1099  0.2172
  411MOL0     C54124   1.680   2.403   7.239 -0.1166 -0.1660  0.1075
  411MOL0     C54125   1.618   2.459   7.131 -0.1266  0.2200  0.6424
  411MOL0     C54126   1.482   2.498   7.131 -0.1341 -0.3442 -0.0245
  411MOL0     C54127   1.416   2.481   7.246  0.8295  0.1324  0.1429
  411MOL0     O54128   1.286   2.536   7.261 -0.3787 -0.3309 -0.3448
  411MOL0     C54129   1.196   2.449   7.329 -0.1958  0.1406  0.0764
  411MOL0     C54130   1.126   2.364   7.232  0.2143  0.8485  0.6552
  411MOL0     C54131   0.981   2.339   7.270 -0.4770 -0.0138 -0.3453
  411MOL0     C54132   0.928   2.226   7.182  0.1393  0.3519  0.2906
  411MOL0     C54133   0.778   2.201   7.220 -0.2349  0.2065  0.6628
  411MOL0     C54134   0.735   2.178   7.360 -0.2260  0.0984 -0.4079
  411MOL0     C54135   0.579   2.155   7.363  0.2335 -0.2854  0.2565
  411MOL0     C54136   0.545   2.143   7.513 -0.7441 -0.0355  0.1691
  411MOL0     N54137   0.418   2.089   7.529 -0.1990  0.5893 -0.5776
  411MOL0     C54138   0.377   1.956   7.532 -0.6734  0.5898  0.7272
  411MOL0     C54139   0.255   1.958   7.593  0.6320  0.4221 -0.4372
  411MOL0     C54140   0.151   1.847   7.592 -0.4983 -0.3407  0.1665
  411MOL0     C54141   0.042   1.869   7.704 -0.3119 -0.4963 -0.4260
  411MOL0     C54142  -0.078   1.782   7.671  0.2744 -0.3163  0.3254
  411MOL0     C54143  -0.190   1.801   7.768 -0.6701  0.2080 -0.0825
  411MOL0     O54144  -0.287   1.699   7.738 -0.1454 -0.0728 -0.4484
  411MOL0     C54145  -0.383   1.658   7.830  0.8962 -0.6363  0.1135
  411MOL0     C54146  -0.506   1.621   7.773 -0.0809 -0.3594  0.0763
  411MOL0     C54147  -0.620   1.594   7.854 -0.3479  0.0742  0.6826
  411MOL0     C54148  -0.605   1.600   7.991 -0.4793 -0.7985 -0.4382
  411MOL0     C54149  -0.717   1.578   8.077  0.3482 -1.5103 -0.4615
  411MOL0     O54150  -0.850   1.577   8.027 -0.3558 -0.4931  0.1560
  411MOL0     C54151  -0.948   1.521   8.110  0.3686 -0.3020  0.0944
  411MOL0     C54152  -0.971   1.381   8.100 -0.2045  0.1664  0.0419
  411MOL0     C54153  -1.079   1.319   8.172 -0.0297 -0.0030  0.0568
  411MOL0     C54154  -1.167   1.400   8.253 -0.2078  0.2184  0.2716
  411MOL0     O54155  -1.272   1.344   8.314 -0.4310  0.3766 -0.3576
  411MOL0     C54156  -1.301   1.386   8.448 -0.4617  0.4180 -0.3766
  411MOL0     C54157  -1.362   1.271   8.515 -0.2385 -0.6735 -0.2303
  411MOL0     C54158  -1.395   1.299   8.660 -0.5516 -0.3707  0.1182
  411MOL0     C54159  -1.434   1.181   8.747 -0.2087 -0.2220 -0.3568
  411MOL0     C54160  -1.422   1.205   8.902  0.3375 -0.9938 -0.3105
  411MOL0     C54161  -1.487   1.098   8.993 -0.8143 -0.1107  1.1126
  411MOL0     C54162  -1.425   0.960   8.962 -0.1032  0.3115 -0.4747
  411MOL0     C54163  -1.458   0.840   9.049 -0.4895 -0.2093 -0.0310
  411MOL0    Cl54164  -1.634   0.816   9.032 -0.1904 -0.0094  0.1475
  411MOL0     C54165  -1.143   1.537   8.266 -0.4076 -0.3992  0.3072
  411MOL0     C54166  -1.034   1.597   8.194 -0.0845 -0.6447  0.5256
  411MOL0     O54167  -0.688   1.555   8.190  0.6434  0.2466  0.4609
  411MOL0     C54168  -0.475   1.621   8.050  0.1621 -0.2164 -1.0150
  411MOL0     C54169  -0.365   1.657   7.970  0.2003 -0.8039  0.2226
  411MOL0     N54170   0.236   2.092   7.634 -0.1902  0.0842 -0.3567
  411MOL0     N54171   0.333   2.165   7.588  1.1867 -0.4023 -0.7651
  411MOL0     C54172   1.479   2.431   7.366 -0.9590 -0.4880 -0.0216
  411MOL0     C54173   1.612   2.391   7.358 -0.7388  0.4309 -0.0405
  411MOL0     C54174   2.024   2.403   7.179 -0.4153 -0.8920 -0.1868
  411MOL0     C54175   2.027   2.324   7.068  0.5740 -0.8738 -0.1134
  411MOL0     C54176   2.145   2.311   6.996 -0.1562  0.9453  0.4912
  411MOL0     C54177   2.264   2.374   7.030 -0.0661 -0.4069  0.1052
  411MOL0     O54178   2.378   2.353   6.956  0.1459 -0.0316 -0.6647
  411MOL0     C54179   2.460   2.467   6.920 -0.1427  0.0084 -0.3533
  411MOL0     C54180   2.522   2.450   6.784 -0.1562  0.4993  0.3698
  411MOL0     C54181   2.626   2.331   6.782  0.0451 -0.2006  0.2555
  411MOL0     C54182   2.708   2.316   6.658 -0.1452  0.8827  0.4884
  411MOL0     C54183   2.830   2.389   6.662 -0.7586  0.3336  0.0322
  411MOL0     C54184   2.934   2.451   6.672 -0.4472  0.1989  0.5353
  411MOL0     C54185   2.266   2.442   7.156 -0.2326 -0.3532  0.0310
  411MOL0     C54186   2.148   2.464   7.218  0.8089 -0.9468  0.6732
  411MOL0     H54187   1.685   2.471   7.046 -0.2497 -0.8113  0.3939
  411MOL0     H54188   1.439   2.524   7.035 -0.1306  0.5819  0.2152
  411MOL0     H54189   1.125   2.518   7.377  2.0913  2.1733  0.7397
  411MOL0     H54190   1.235   2.388   7.411  0.6894 -0.4042 -0.7291
  411MOL0     H54191   1.184   2.273   7.220  1.6382  1.7289  0.6615
  411MOL0     H54192   1.128   2.414   7.135  0.8279 -2.0057 -0.9033
  411MOL0     H54193   0.926   2.433   7.262 -0.3083  0.6201  3.8321
  411MOL0     H54194   0.956   2.306   7.371  0.2737 -0.0239 -0.1542
  411MOL0     H54195   0.927   2.251   7.076  1.0363 -0.2797  0.1182
  411MOL0     H54196   0.984   2.133   7.199  1.5500  1.0682 -0.2293
  411MOL0     H54197   0.745   2.124   7.149 -1.9329  0.8644  0.6755
  411MOL0     H54198   0.721   2.290   7.190  2.8820  2.2637  0.4440
  411MOL0     H54199   0.757   2.260   7.429  0.8649 -0.0700 -0.5507
  411MOL0     H54200   0.779   2.086   7.400 -1.0072  0.9013  2.5995
  411MOL0     H54201   0.523   2.240   7.323 -0.7463 -1.8717 -1.9949
  411MOL0     H54202   0.546   2.065   7.309 -0.0897 -0.9392  1.5227
  411MOL0     H54203   0.548   2.235   7.571  0.6564 -0.3886  0.7051
  411MOL0     H54204   0.612   2.082   7.575 -0.5956 -1.9980 -1.7788
  411MOL0     H54205   0.442   1.873   7.506  0.7633  2.0173 -0.4756
  411MOL0     H54206   0.199   1.751   7.613  5.1577  1.5834 -2.1358
  411MOL0     H54207   0.096   1.842   7.497  0.7188  0.2901 -0.5851
  411MOL0     H54208   0.013   1.973   7.723 -0.7860 -1.0838  2.6487
  411MOL0     H54209   0.076   1.833   7.801 -2.6870 -0.6163  0.4435
  411MOL0     H54210  -0.110   1.799   7.568  2.8131 -1.0071 -0.6759
  411MOL0     H54211  -0.037   1.680   7.675  3.7854  0.8208 -1.7912
  411MOL0     H54212  -0.227   1.904   7.769  0.2481  0.5529  0.3536
  411MOL0     H54213  -0.155   1.784   7.870  0.0679  1.5906 -0.0681
  411MOL0     H54214  -0.515   1.617   7.665 -0.6317  0.4905  0.0826
  411MOL0     H54215  -0.717   1.577   7.808  0.1714  1.9338 -1.2685
  411MOL0     H54216  -0.913   1.324   8.027 -0.8226  1.3532 -1.4339
  411MOL0     H54217  -1.103   1.214   8.158 -1.0326 -0.0471  1.8017
  411MOL0     H54218  -1.377   1.464   8.448 -0.5755  0.3426 -2.2134
  411MOL0     H54219  -1.205   1.424   8.486 -0.0249 -1.0111  0.0354
  411MOL0     H54220  -1.289   1.190   8.524  1.8255  0.5149 -3.8771
  411MOL0     H54221  -1.453   1.240   8.461 -1.6689  0.3348  1.5089
  411MOL0     H54222  -1.478   1.368   8.674  1.5154  1.8572  2.3264
  411MOL0     H54223  -1.308   1.350   8.703  0.0383  1.4482 -2.9648
  411MOL0     H54224  -1.536   1.166   8.711 -0.6087  2.6525 -0.6953
  411MOL0     H54225  -1.360   1.102   8.733  0.8345  0.5162  0.7450
  411MOL0     H54226  -1.449   1.307   8.929  1.4698 -0.8229  0.2592
  411MOL0     H54227  -1.314   1.213   8.920 -0.0792  1.8359  1.6062
  411MOL0     H54228  -1.595   1.087   8.984 -0.6720 -1.1126  0.3024
  411MOL0     H54229  -1.459   1.127   9.095  0.2950  2.6917  0.1088
  411MOL0     H54230  -1.456   0.927   8.862 -0.9888  2.9215 -1.1588
  411MOL0     H54231  -1.316   0.965   8.951 -0.0729 -1.2092 -1.0768
  411MOL0     H54232  -1.431   0.864   9.152  0.7146  0.5321 -0.5060
  411MOL0     H54233  -1.417   0.747   9.008 -1.0139 -0.3542 -0.2363
  411MOL0     H54234  -1.227   1.595   8.302 -1.2013 -0.4038 -1.4018
  411MOL0     H54235  -1.038   1.705   8.192 -1.0397 -0.6751  0.3727
  411MOL0     H54236  -0.462   1.637   8.156 -0.0635 -0.9933 -0.8606
  411MOL0     H54237  -0.267   1.681   8.009  0.2577 -0.9868  0.1930
  411MOL0     H54238   1.433   2.434   7.465  1.1588 -1.0653  1.0486
  411MOL0     H54239   1.675   2.368   7.443  0.8533  2.8703 -0.4393
  411MOL0     H54240   1.938   2.274   7.030  0.1855 -2.0528  2.1829
  411MOL0     H54241   2.145   2.242   6.912 -2.3808 -1.9217  2.6467
  411MOL0     H54242   2.539   2.487   6.993 -1.5496 -0.8280  1.4788
  411MOL0     H54243   2.402   2.559   6.935  2.4862  1.9303 -1.2517
  411MOL0     H54244   2.444   2.428   6.709 -0.5384  0.7005  0.7054
  411MOL0     H54245   2.569   2.545   6.758 -1.2694  1.0277  0.2348
  411MOL0     H54246   2.576   2.238   6.810 -1.7954  0.7138  0.1930
  411MOL0     H54247   2.694   2.357   6.863 -1.0838  3.6149  0.1972
  411MOL0     H54248   2.740   2.212   6.645 -2.0612  0.1904  1.0609
  411MOL0     H54249   2.652   2.350   6.570 -1.7891  0.2239  1.2375
  411MOL0     H54250   3.032   2.493   6.680 -0.8533  1.1709  0.5195
  411MOL0     H54251   2.353   2.485   7.205  0.3903 -1.0518 -0.4350
  411MOL0     H54252   2.149   2.526   7.306 -0.9749  1.2470 -0.7474
  412MOL0     O54253   7.959   0.468   7.017  0.2385 -0.8415 -0.9511
  412MOL0     C54254   7.893   0.377   7.058  0.6468  0.1114  0.5723
  412MOL0     O54255   7.907   0.249   7.026  0.1754 -0.3779 -0.1457
  412MOL0     C54256   7.997   0.221   6.929  0.8815 -0.2861  0.3548
  412MOL0     C54257   8.109   0.157   6.967  1.2937 -0.1514  0.3168
  412MOL0     C54258   8.204   0.125   6.871  0.0131  0.0645 -0.1690
  412MOL0     C54259   8.192   0.153   6.735 -0.6151  0.4047 -0.4622
  412MOL0     O54260   8.294   0.135   6.650 -0.3784  0.2639  0.2845
  412MOL0     C54261   8.272   0.146   6.514  0.2083  0.4700  0.1029
  412MOL0     C54262   8.388   0.099   6.429 -0.2028  0.0421  0.6580
  412MOL0     C54263   8.357   0.127   6.283 -0.0011 -0.0454  0.0083
  412MOL0     C54264   8.452   0.051   6.193 -0.1531  0.8611  0.1176
  412MOL0     C54265   8.485   0.127   6.068 -0.0024 -0.2188 -0.2852
  412MOL0     C54266   8.555   0.054   5.957  0.1018 -0.2975 -0.2676
  412MOL0     C54267   8.599   0.167   5.862  0.0320  0.1082 -0.2757
  412MOL0     C54268   8.698   0.118   5.757  0.0532 -0.1900 -0.0851
  412MOL0     N54269   8.739   0.233   5.667  0.6453 -0.0844 -0.8976
  412MOL0     C54270   8.821   0.337   5.698 -0.5315  0.1535  0.6690
  412MOL0     C54271   8.814   0.423   5.595  0.1420 -0.4156 -0.6622
  412MOL0     C54272   8.869   0.563   5.606 -0.8591 -0.5542  0.4026
  412MOL0     C54273   8.768   0.652   5.677 -0.0363  0.0648  0.0103
  412MOL0     C54274   8.764   0.649   5.834 -0.2042  0.1118 -0.5091
  412MOL0     C54275   8.643   0.567   5.879  0.3246  0.0196 -0.1652
  412MOL0     O54276   8.508   0.616   5.848  0.0909  0.2580  0.3103
  412MOL0     C54277   8.392   0.581   5.922 -0.4402 -0.2457  0.1908
  412MOL0     C54278   8.270   0.591   5.859  0.8878 -0.7899 -0.8757
  412MOL0     C54279   8.156   0.546   5.923  1.1079 -0.0444 -0.5684
  412MOL0     C54280   8.160   0.489   6.050  0.0656  0.5545 -0.4685
  412MOL0     C54281   8.037   0.435   6.112 -0.1494 -0.3161  0.0473
  412MOL0     O54282   8.044   0.386   6.241  0.6047  0.1407  0.0788
  412MOL0     C54283   7.923   0.360   6.311  0.5184  0.4532  0.7428
  412MOL0     C54284   7.900   0.220   6.353  0.0001  0.7556 -0.2422
  412MOL0     C54285   7.786   0.180   6.423  0.2472 -0.7171  0.1181
  412MOL0     C54286   7.700   0.273   6.459 -0.1038 -0.4149  0.5465
  412MOL0     O54287   7.590   0.238   6.523  0.6284  0.0165  0.5755
  412MOL0     C54288   7.606   0.254   6.665  0.3505 -0.0476  0.3687
  412MOL0     C54289   7.475   0.267   6.729 -0.2164 -0.2962  0.0498
  412MOL0     C54290   7.486   0.266   6.881 -0.2097  0.0074 -0.2022
  412MOL0     C54291   7.345   0.271   6.937  0.5799  0.0535  0.6402
  412MOL0     C54292   7.337   0.269   7.089  0.4823 -0.2750 -0.0654
  412MOL0     C54293   7.194   0.282   7.128 -0.5115  0.2075  0.5615
  412MOL0     C54294   7.175   0.300   7.274  0.0944  0.0176 -0.2334
  412MOL0     C54295   7.048   0.357   7.339  0.8509  0.2081  0.1448
  412MOL0    Cl54296   7.088   0.418   7.504 -0.2147 -0.5025  0.2718
  412MOL0     C54297   7.710   0.406   6.407 -0.1211  0.5055 -0.2778
  412MOL0     C54298   7.818   0.450   6.329 -1.0122  0.0538 -0.2023
  412MOL0     O54299   7.934   0.445   6.044 -0.2666  0.2104 -0.0452
  412MOL0     C54300   8.285   0.467   6.112  0.0947  0.0055 -0.0888
  412MOL0     C54301   8.400   0.517   6.050  0.0307  0.6828  0.2159
  412MOL0     N54302   8.723   0.375   5.504 -0.8253 -0.1123  0.4650
  412MOL0     N54303   8.675   0.267   5.547 -0.3608  0.3147 -0.0636
  412MOL0     C54304   8.069   0.215   6.702  0.1391 -0.0749  0.6934
  412MOL0     C54305   7.975   0.250   6.796 -0.1695  0.2307  0.0737
  412MOL0     C54306   7.778   0.406   7.149  0.0881 -0.8054 -0.0847
  412MOL0     C54307   7.727   0.536   7.163 -1.1368  0.6016  0.4603
  412MOL0     C54308   7.617   0.557   7.249 -0.0264  0.2700 -0.1753
  412MOL0     C54309   7.565   0.456   7.330  0.3462 -0.2735  0.2802
  412MOL0     O54310   7.467   0.470   7.426 -0.5845  0.1947 -0.0883
  412MOL0     C54311   7.434   0.604   7.464  0.3238  0.4965 -0.2143
  412MOL0     C54312   7.368   0.619   7.598  0.6662  0.7419  0.0578
  412MOL0     C54313   7.376   0.492   7.685  0.2589 -0.1145 -0.4602
  412MOL0     C54314   7.307   0.517   7.820  0.1821 -0.3422  1.1953
  412MOL0     C54315   7.377   0.625   7.893 -0.4238  0.0417 -0.5297
  412MOL0     C54316   7.413   0.718   7.969 -1.1112 -0.9895  0.3445
  412MOL0     C54317   7.621   0.329   7.320 -0.3784  0.4303 -0.1291
  412MOL0     C54318   7.717   0.300   7.217  0.2981  0.1728  0.2383
  412MOL0     H54319   8.126   0.133   7.072 -2.2806  1.3309  1.3717
  412MOL0     H54320   8.292   0.068   6.902  0.7203  0.8644 -0.6601
  412MOL0     H54321   8.236   0.249   6.503 -1.3486 -0.0407  0.1375
  412MOL0     H54322   8.200   0.073   6.476  1.5379 -0.5256 -0.5861
  412MOL0     H54323   8.402  -0.010   6.432 -2.3087 -0.2546  0.9092
  412MOL0     H54324   8.478   0.151   6.463 -0.6737  0.7647  0.8156
  412MOL0     H54325   8.379   0.233   6.268  1.2214 -0.1606  0.8667
  412MOL0     H54326   8.257   0.092   6.255  0.5588 -0.6365 -1.3470
  412MOL0     H54327   8.539   0.021   6.251 -2.8383 -4.6561  1.9403
  412MOL0     H54328   8.417  -0.050   6.170  0.3605  0.7441 -0.1601
  412MOL0     H54329   8.555   0.207   6.093  0.1479 -0.4492  0.0315
  412MOL0     H54330   8.396   0.167   6.018 -0.1733 -1.1394 -0.7359
  412MOL0     H54331   8.496  -0.017   5.898  0.2623  0.5011 -1.4251
  412MOL0     H54332   8.649   0.006   5.984  0.5821 -0.6480 -2.3947
  412MOL0     H54333   8.514   0.215   5.812 -1.1503 -0.2665  1.2779
  412MOL0     H54334   8.651   0.246   5.917 -2.4254  0.0778  2.3589
  412MOL0     H54335   8.644   0.045   5.697 -0.6119  1.1129 -1.1012
  412MOL0     H54336   8.790   0.077   5.800  0.7352  1.2675 -0.0844
  412MOL0     H54337   8.870   0.344   5.794 -1.4053  2.0405  1.0199
  412MOL0     H54338   8.881   0.612   5.509  0.9767 -0.1843  0.7710
  412MOL0     H54339   8.966   0.562   5.657 -0.2737  0.6031 -0.6204
  412MOL0     H54340   8.667   0.624   5.648 -1.7081  3.8818  1.4510
  412MOL0     H54341   8.779   0.752   5.633 -0.8445 -0.9399 -2.6782
  412MOL0     H54342   8.856   0.606   5.876 -0.1403 -1.0187 -1.7328
  412MOL0     H54343   8.751   0.747   5.880 -3.2593 -1.1995  1.7298
  412MOL0     H54344   8.653   0.552   5.987  0.0391  0.8369 -0.0159
  412MOL0     H54345   8.652   0.469   5.831 -1.6513 -0.4700  0.3412
  412MOL0     H54346   8.248   0.630   5.761 -0.5251 -0.2716 -0.3718
  412MOL0     H54347   8.061   0.560   5.872  1.4945  0.3190 -1.2095
  412MOL0     H54348   7.980   0.154   6.324  0.6140  1.9195 -1.2981
  412MOL0     H54349   7.750   0.084   6.458 -1.7609 -0.6739 -1.6198
  412MOL0     H54350   7.665   0.344   6.685  1.0697 -0.5949  0.7610
  412MOL0     H54351   7.662   0.167   6.703  2.4066  0.2695 -1.6887
  412MOL0     H54352   7.404   0.190   6.697  1.3123 -0.9584 -1.9998
  412MOL0     H54353   7.426   0.356   6.689 -3.6685 -2.3715 -0.7488
  412MOL0     H54354   7.542   0.353   6.918  3.0317 -2.0743  0.1761
  412MOL0     H54355   7.529   0.178   6.930  0.5287 -0.9214 -2.3909
  412MOL0     H54356   7.298   0.359   6.894  1.7649 -0.3025 -1.5273
  412MOL0     H54357   7.296   0.182   6.897  0.8857 -1.1794  2.8334
  412MOL0     H54358   7.390   0.359   7.123  0.9803 -0.3189 -0.7055
  412MOL0     H54359   7.371   0.177   7.138 -3.5805 -1.4615  0.8985
  412MOL0     H54360   7.135   0.192   7.106 -1.2135  1.0141 -0.9759
  412MOL0     H54361   7.155   0.368   7.073  3.6385  1.1810 -1.2380
  412MOL0     H54362   7.194   0.202   7.320  0.8222  0.9926  1.6581
  412MOL0     H54363   7.259   0.367   7.295 -0.7162  1.1242 -0.4471
  412MOL0     H54364   6.978   0.275   7.356  1.2115  0.4254  3.4226
  412MOL0     H54365   7.007   0.432   7.270  1.4084  0.8387  0.4838
  412MOL0     H54366   7.624   0.472   6.412 -1.4220 -1.0705 -1.0638
  412MOL0     H54367   7.850   0.549   6.295 -1.2916  0.3577  0.4140
  412MOL0     H54368   8.302   0.419   6.208 -1.1837  0.5369  0.4303
  412MOL0     H54369   8.486   0.506   6.116  0.3732  1.7922 -0.0294
  412MOL0     H54370   8.042   0.244   6.601  2.2440 -0.7022 -0.1177
  412MOL0     H54371   7.880   0.295   6.768 -0.1122  0.1678 -0.2270
  412MOL0     H54372   7.788   0.611   7.115 -0.4574 -0.2340  0.0005
  412MOL0     H54373   7.580   0.659   7.250 -2.2878 -0.4874  1.1625
  412MOL0     H54374   7.359   0.626   7.388 -0.5150 -0.7700  0.2013
  412MOL0     H54375   7.516   0.676   7.452 -1.1249  2.2954  0.3069
  412MOL0     H54376   7.417   0.702   7.648  2.7039 -0.4212  0.0979
  412MOL0     H54377   7.261   0.636   7.584  0.9442  1.4355 -1.4500
  412MOL0     H54378   7.481   0.470   7.707  0.8021  2.9486  0.5387
  412MOL0     H54379   7.313   0.413   7.642 -3.5548  0.8806  2.6547
  412MOL0     H54380   7.203   0.541   7.796  0.3052 -0.8494  0.1218
  412MOL0     H54381   7.323   0.425   7.877  0.8441  0.0925  1.7396
  412MOL0     H54382   7.443   0.801   8.029  0.7451 -1.6464  0.4105
  412MOL0     H54383   7.599   0.239   7.376  2.0846 -0.7667 -0.9479
  412MOL0     H54384   7.758   0.199   7.217  4.8657  1.7289 -2.8122
  413MOL0     O54385   6.922   3.414   2.917 -0.2438 -0.5822 -0.0854
  413MOL0     C54386   6.970   3.363   3.017 -0.3314 -0.2614  0.0036
  413MOL0     O54387   6.914   3.277   3.097 -0.0740 -0.0866 -0.2432
  413MOL0     C54388   6.780   3.232   3.079 -0.4057  0.5580 -0.2421
  413MOL0     C54389   6.675   3.276   2.998  0.1359 -0.3124 -0.3769
  413MOL0     C54390   6.547   3.220   3.001 -0.2247  0.3595  0.4567
  413MOL0     C54391   6.517   3.099   3.068  0.0772  0.4738 -0.0003
  413MOL0     O54392   6.386   3.056   3.068 -0.1026 -0.6651 -0.0772
  413MOL0     C54393   6.333   2.981   3.177 -0.2058  0.0673  0.1930
  413MOL0     C54394   6.178   3.002   3.193  0.3545  0.3752  0.2637
  413MOL0     C54395   6.116   2.909   3.300 -0.6969 -0.3526  0.4685
  413MOL0     C54396   5.972   2.941   3.306 -0.5899  0.3111 -0.4881
  413MOL0     C54397   5.897   2.852   3.389  1.1928 -0.8565 -0.1828
  413MOL0     C54398   5.750   2.882   3.395  0.0108  0.6557 -0.4758
  413MOL0     C54399   5.692   2.841   3.255  0.0010 -0.3277  0.0515
  413MOL0     C54400   5.545   2.842   3.250 -0.1347  1.0056  0.2106
  413MOL0     N54401   5.487   2.975   3.280  0.3865  1.6149  0.7505
  413MOL0     C54402   5.459   3.024   3.401 -0.4831  0.1876 -0.7585
  413MOL0     C54403   5.397   3.140   3.381 -0.0128  0.2228  0.1519
  413MOL0     C54404   5.348   3.236   3.486 -0.1364  0.7244 -0.1349
  413MOL0     C54405   5.206   3.198   3.533 -0.2567  0.3799 -0.0319
  413MOL0     C54406   5.197   3.072   3.617  0.3892  0.5293  0.1384
  413MOL0     C54407   5.053   3.045   3.654  0.2627 -0.3021  0.8821
  413MOL0     O54408   4.976   3.031   3.537 -0.5889 -0.2268  0.3259
  413MOL0     C54409   4.839   3.043   3.546 -0.4927  0.0770 -0.1181
  413MOL0     C54410   4.770   3.042   3.669  0.7397  0.0364  0.7071
  413MOL0     C54411   4.629   3.044   3.663 -0.7722 -0.6210  0.0138
  413MOL0     C54412   4.558   3.051   3.543 -0.7231  1.5149  0.2790
  413MOL0     C54413   4.415   3.043   3.532  0.4015  0.1538  0.7216
  413MOL0     O54414   4.365   3.015   3.409 -0.3203  0.0008  0.0266
  413MOL0     C54415   4.223   3.005   3.391 -0.6637  0.6486 -0.4506
  413MOL0     C54416   4.140   2.917   3.461  0.6908 -0.0042 -0.2803
  413MOL0     C54417   4.002   2.924   3.443  1.5157  0.1136 -0.2094
  413MOL0     C54418   3.949   3.027   3.363  0.3800 -0.3521  0.9427
  413MOL0     O54419   3.814   3.059   3.333 -0.4247 -0.2889  0.0022
  413MOL0     C54420   3.718   2.954   3.372 -0.6389  0.3296  0.7142
  413MOL0     C54421   3.588   2.992   3.302 -0.3917 -0.3801 -1.6610
  413MOL0     C54422   3.471   2.897   3.334 -0.0833  0.0758  0.7874
  413MOL0     C54423   3.350   2.945   3.253  0.3860 -0.3463 -0.0963
  413MOL0     C54424   3.240   2.847   3.256 -0.2881  0.1960  0.3171
  413MOL0     C54425   3.113   2.886   3.178  0.1762  0.0259 -0.9351
  413MOL0     C54426   2.991   2.821   3.254  0.0587 -0.9480  0.1684
  413MOL0     C54427   2.861   2.884   3.205 -0.6178 -0.3112 -0.4178
  413MOL0    Cl54428   2.801   2.802   3.069  0.0510  0.1107  0.0666
  413MOL0     C54429   4.032   3.114   3.291 -0.4006 -1.1897 -0.1267
  413MOL0     C54430   4.167   3.103   3.305  0.3301 -0.5379 -1.2150
  413MOL0     O54431   4.346   3.063   3.632 -0.2432  0.6931 -0.6826
  413MOL0     C54432   4.630   3.053   3.419  0.0187  0.4309 -0.8340
  413MOL0     C54433   4.771   3.047   3.423 -1.9844 -0.4941  0.0118
  413MOL0     N54434   5.392   3.164   3.250  0.2190 -0.3764 -0.7644
  413MOL0     N54435   5.446   3.060   3.188  1.0298 -0.2722  0.0413
  413MOL0     C54436   6.619   3.056   3.149  0.4751 -1.0914  0.7549
  413MOL0     C54437   6.747   3.114   3.156 -0.3940  0.5351  0.4501
  413MOL0     C54438   7.116   3.385   3.037  0.0812  0.5081 -0.0894
  413MOL0     C54439   7.203   3.278   3.072 -0.5826 -0.5202 -0.2746
  413MOL0     C54440   7.345   3.298   3.081 -0.2781  0.2403  0.0880
  413MOL0     C54441   7.396   3.418   3.042  0.1504 -0.7432 -0.1565
  413MOL0     O54442   7.535   3.430   3.032 -0.0634  0.8987  0.2081
  413MOL0     C54443   7.589   3.541   2.962 -0.3976 -0.5747 -0.4224
  413MOL0     C54444   7.743   3.544   2.939 -0.2847 -1.3808 -0.9002
  413MOL0     C54445   7.794   3.421   2.872 -0.2132  0.0291 -0.9698
  413MOL0     C54446   7.941   3.430   2.845  0.2758 -0.4752  0.6317
  413MOL0     C54447   8.040   3.400   2.949  0.7156  0.2207  0.3158
  413MOL0     C54448   8.122   3.363   3.037 -0.0425 -1.1092 -0.3562
  413MOL0     C54449   7.315   3.525   3.001 -0.2850  0.3440 -1.5380
  413MOL0     C54450   7.175   3.511   3.014  0.0408  0.8657 -0.1434
  413MOL0     H54451   6.680   3.369   2.942 -1.9948  1.1713  1.7460
  413MOL0     H54452   6.483   3.284   2.942  1.2097  1.2851 -0.1363
  413MOL0     H54453   6.374   3.003   3.276 -1.6193 -2.3476  1.3999
  413MOL0     H54454   6.345   2.875   3.155 -1.3336  0.1754 -1.0554
  413MOL0     H54455   6.132   2.976   3.097 -2.2024 -1.3641  1.8106
  413MOL0     H54456   6.156   3.107   3.214  0.5809  0.0924  2.0694
  413MOL0     H54457   6.172   2.937   3.390 -2.5569  0.7186  1.3630
  413MOL0     H54458   6.131   2.805   3.269 -1.5898 -0.5518  0.6696
  413MOL0     H54459   5.960   3.048   3.327  3.3959  0.2705  3.4868
  413MOL0     H54460   5.936   2.918   3.205 -3.2760 -5.0153  1.3520
  413MOL0     H54461   5.930   2.848   3.493  1.3446 -0.5256 -0.2176
  413MOL0     H54462   5.911   2.753   3.346 -2.0507 -1.4328 -0.1552
  413MOL0     H54463   5.725   2.987   3.415 -1.0014  0.3436 -0.0417
  413MOL0     H54464   5.698   2.818   3.467 -1.0688 -0.9969 -2.5793
  413MOL0     H54465   5.729   2.903   3.174  0.3909  0.4063  0.7781
  413MOL0     H54466   5.725   2.738   3.238 -1.2195 -0.4988 -1.4620
  413MOL0     H54467   5.512   2.762   3.317  1.3532 -1.9353 -2.3012
  413MOL0     H54468   5.510   2.799   3.155  0.9262 -0.3822  0.4122
  413MOL0     H54469   5.476   2.982   3.500  1.1055  0.1991 -1.0079
  413MOL0     H54470   5.341   3.334   3.437 -2.0652  0.1923 -1.0167
  413MOL0     H54471   5.413   3.232   3.574  0.3095 -4.0456 -0.4389
  413MOL0     H54472   5.143   3.194   3.444 -1.2198 -0.9299  0.6868
  413MOL0     H54473   5.157   3.272   3.596 -0.6834 -1.0775  1.3998
  413MOL0     H54474   5.236   2.987   3.561  3.4001  0.7298  1.7333
  413MOL0     H54475   5.257   3.080   3.708  0.3573 -1.5961  0.3895
  413MOL0     H54476   5.018   3.125   3.719 -0.7560 -0.3495  0.4101
  413MOL0     H54477   5.042   2.956   3.717 -2.3575  0.2137  1.2713
  413MOL0     H54478   4.816   3.044   3.768  0.1457 -0.1584  0.9867
  413MOL0     H54479   4.577   3.045   3.758  0.8881  2.4601  1.0317
  413MOL0     H54480   4.173   2.840   3.531 -3.1553 -0.6123  1.1045
  413MOL0     H54481   3.941   2.855   3.500  2.5164 -0.7808 -0.1866
  413MOL0     H54482   3.709   2.950   3.481 -0.6740 -3.1946  0.7016
  413MOL0     H54483   3.746   2.856   3.333 -4.1974 -0.4056 -0.3842
  413MOL0     H54484   3.597   3.006   3.194 -0.9086 -2.3346 -1.9857
  413MOL0     H54485   3.556   3.089   3.340 -1.7020 -1.0642 -0.9733
  413MOL0     H54486   3.441   2.894   3.439  0.1313  0.4620  0.8608
  413MOL0     H54487   3.499   2.794   3.307  0.4086  0.1870  0.8592
  413MOL0     H54488   3.311   3.039   3.291  0.5148 -0.4321  0.2547
  413MOL0     H54489   3.384   2.963   3.150  3.3217 -1.2952  0.6113
  413MOL0     H54490   3.224   2.814   3.359 -0.3665 -0.7517  0.0132
  413MOL0     H54491   3.282   2.758   3.208  1.2735  1.6793 -1.1933
  413MOL0     H54492   3.120   2.851   3.075  0.2454  3.2164 -2.1493
  413MOL0     H54493   3.100   2.995   3.179 -1.4014 -0.1286 -1.3818
  413MOL0     H54494   2.977   2.713   3.241 -0.7837 -0.7272 -0.9819
  413MOL0     H54495   3.001   2.854   3.358  2.3494 -0.5575 -0.1295
  413MOL0     H54496   2.874   2.991   3.186 -0.9242  0.1623  1.7777
  413MOL0     H54497   2.785   2.869   3.282 -1.3207 -1.7538 -1.3395
  413MOL0     H54498   3.994   3.203   3.243 -0.9784 -0.9885  0.6795
  413MOL0     H54499   4.231   3.171   3.251 -0.7192 -0.1518 -2.0209
  413MOL0     H54500   4.589   3.046   3.319 -3.0491 -0.2025  0.3631
  413MOL0     H54501   4.827   3.044   3.330 -0.9715  3.8998  0.2518
  413MOL0     H54502   6.605   2.964   3.204  0.8555 -1.3418  0.4372
  413MOL0     H54503   6.827   3.079   3.220 -1.1275 -2.8946 -0.3523
  413MOL0     H54504   7.162   3.180   3.093 -0.5769 -0.8827 -1.8529
  413MOL0     H54505   7.405   3.214   3.114 -4.0742 -2.5738  0.5695
  413MOL0     H54506   7.557   3.630   3.017  1.2438  0.9533 -1.8105
  413MOL0     H54507   7.537   3.546   2.866  2.6222  0.8690 -2.1312
  413MOL0     H54508   7.777   3.636   2.890  2.8872 -1.3264  1.1175
  413MOL0     H54509   7.793   3.556   3.035 -0.3827 -0.8786 -0.9080
  413MOL0     H54510   7.751   3.411   2.771 -3.0191 -0.0920  0.1502
  413MOL0     H54511   7.773   3.332   2.931 -2.8445  1.4338  0.4016
  413MOL0     H54512   7.961   3.367   2.758 -0.4194  1.8865 -1.3595
  413MOL0     H54513   7.958   3.533   2.812 -3.2079  0.1183  0.2158
  413MOL0     H54514   8.184   3.342   3.121  0.5454  2.6151  0.3473
  413MOL0     H54515   7.356   3.622   2.976  0.3504  0.7707  0.8770
  413MOL0     H54516   7.111   3.597   2.994 -1.7164 -0.7101 -1.7457
  414MOL0     O54517   8.386   0.605   2.821  0.1214  0.3062  0.1642
  414MOL0     C54518   8.482   0.683   2.815  0.2420  0.3306  0.6616
  414MOL0     O54519   8.538   0.754   2.913 -0.2007  0.3577 -0.1956
  414MOL0     C54520   8.449   0.760   3.019 -0.2170 -1.0731 -0.0257
  414MOL0     C54521   8.326   0.829   3.000 -0.6480  0.3413 -0.0368
  414MOL0     C54522   8.241   0.836   3.108 -0.5864  0.0386 -0.5635
  414MOL0     C54523   8.277   0.776   3.232  0.2239 -0.7734 -0.8081
  414MOL0     O54524   8.194   0.770   3.344  0.1423 -0.1197  0.5875
  414MOL0     C54525   8.056   0.810   3.340  0.4072  0.3908  0.0732
  414MOL0     C54526   7.978   0.722   3.438  0.2221  0.3968 -0.8163
  414MOL0     C54527   7.828   0.738   3.428  0.3318  0.5251  0.1566
  414MOL0     C54528   7.749   0.604   3.464 -0.9490 -0.1437  0.4283
  414MOL0     C54529   7.744   0.579   3.610  0.3188  0.4237  0.0148
  414MOL0     C54530   7.658   0.672   3.696 -0.1096  0.6780 -0.5776
  414MOL0     C54531   7.515   0.677   3.645  0.1831 -0.8910 -0.6047
  414MOL0     C54532   7.427   0.554   3.690  0.1233 -0.2418  0.4943
  414MOL0     N54533   7.279   0.568   3.674  0.1437  0.3780 -0.0706
  414MOL0     C54534   7.205   0.645   3.761 -0.0961  0.3965 -0.5927
  414MOL0     C54535   7.081   0.632   3.710  0.7845  0.0193 -0.7852
  414MOL0     C54536   6.960   0.714   3.758  0.3139 -0.5580  0.3521
  414MOL0     C54537   6.865   0.628   3.847 -0.8888  0.5021  0.4487
  414MOL0     C54538   6.737   0.599   3.775 -0.0421  1.0728 -0.5948
  414MOL0     C54539   6.629   0.531   3.855 -0.2587  0.4038  0.2113
  414MOL0     O54540   6.635   0.383   3.836 -0.7766  0.0909  0.0287
  414MOL0     C54541   6.543   0.302   3.896  0.0698 -0.9921 -0.5868
  414MOL0     C54542   6.479   0.331   4.018  0.1043  0.1234 -0.5531
  414MOL0     C54543   6.383   0.249   4.071 -0.0534 -0.2876  0.7611
  414MOL0     C54544   6.347   0.134   3.998  0.4906  0.3411 -0.2848
  414MOL0     C54545   6.243   0.042   4.053  0.1056 -1.0504  0.2347
  414MOL0     O54546   6.197  -0.054   3.966  0.1236  0.0423 -0.1500
  414MOL0     C54547   6.104  -0.147   4.010  0.5456  0.3618  0.8648
  414MOL0     C54548   6.060  -0.190   4.137 -0.1448  0.2233  0.0754
  414MOL0     C54549   5.954  -0.290   4.149 -0.6740 -0.2216  0.1504
  414MOL0     C54550   5.887  -0.325   4.033  0.2501  0.2408  0.8508
  414MOL0     O54551   5.783  -0.415   4.032 -0.2984 -0.1261 -0.2548
  414MOL0     C54552   5.717  -0.432   4.156  0.4392  0.3724 -0.6491
  414MOL0     C54553   5.597  -0.542   4.133 -0.5873  0.1043 -0.4020
  414MOL0     C54554   5.496  -0.516   4.019  0.1137 -0.2134 -0.6040
  414MOL0     C54555   5.355  -0.556   4.057  0.4503  0.6741  0.2307
  414MOL0     C54556   5.317  -0.692   4.004 -0.2337  0.0805 -0.8736
  414MOL0     C54557   5.202  -0.754   4.090  0.2148  0.3822 -0.1241
  414MOL0     C54558   5.173  -0.894   4.040 -0.9465 -0.0120 -0.6263
  414MOL0     C54559   5.047  -0.952   4.102 -0.6488 -0.5073 -0.2763
  414MOL0    Cl54560   4.913  -0.863   4.040  0.3674  0.2344  0.2320
  414MOL0     C54561   5.926  -0.276   3.909 -0.4761 -0.9917  0.2591
  414MOL0     C54562   6.031  -0.193   3.899 -0.8023 -0.6322  0.0055
  414MOL0     O54563   6.198   0.060   4.166 -0.3237  0.3135 -0.4690
  414MOL0     C54564   6.412   0.095   3.881  0.4052 -0.7711  0.4351
  414MOL0     C54565   6.509   0.185   3.830 -0.5007 -0.5841  0.5553
  414MOL0     N54566   7.080   0.557   3.600 -0.4599 -0.0927 -0.0120
  414MOL0     N54567   7.201   0.516   3.582 -0.2980  0.2106 -0.7280
  414MOL0     C54568   8.402   0.712   3.250  0.6950  0.0132 -0.0694
  414MOL0     C54569   8.485   0.704   3.142  0.4660  0.0103  0.7273
  414MOL0     C54570   8.552   0.705   2.686 -0.1891 -0.5372  0.4696
  414MOL0     C54571   8.690   0.743   2.676 -0.5621 -0.7543 -0.0902
  414MOL0     C54572   8.745   0.765   2.545  0.4450 -0.3068  0.2409
  414MOL0     C54573   8.672   0.760   2.430 -1.2511  0.2355 -0.3885
  414MOL0     O54574   8.728   0.785   2.308 -0.0199 -0.0395 -0.2691
  414MOL0     C54575   8.663   0.752   2.184 -0.4242  0.6730  1.1011
  414MOL0     C54576   8.771   0.687   2.080 -0.9858 -0.6706 -0.5708
  414MOL0     C54577   8.923   0.730   2.105 -0.0142  0.0028 -0.1415
  414MOL0     C54578   8.949   0.868   2.070 -0.5422 -0.4789 -0.0684
  414MOL0     C54579   9.091   0.878   2.049 -0.6837  0.1946  1.0139
  414MOL0     C54580   9.210   0.875   2.040  0.5721 -0.2568  0.3751
  414MOL0     C54581   8.542   0.722   2.440  0.1742 -0.7461 -0.2919
  414MOL0     C54582   8.482   0.688   2.562  0.7873  1.0157 -0.6431
  414MOL0     H54583   8.321   0.896   2.915  1.1049 -0.4161 -0.7741
  414MOL0     H54584   8.153   0.898   3.099 -0.1669  1.0550  1.6871
  414MOL0     H54585   8.008   0.790   3.244 -0.8722  2.0519  0.3273
  414MOL0     H54586   8.043   0.918   3.357  5.7379  2.4196 -5.0686
  414MOL0     H54587   8.010   0.750   3.539 -1.2820 -2.4283  0.5494
  414MOL0     H54588   8.001   0.615   3.436 -4.0379 -0.8463  2.1556
  414MOL0     H54589   7.804   0.774   3.328 -0.4898 -0.3591  0.0217
  414MOL0     H54590   7.802   0.818   3.498 -0.1082  2.0156 -1.6308
  414MOL0     H54591   7.649   0.608   3.421 -2.0278  0.2959  2.7897
  414MOL0     H54592   7.806   0.520   3.424  2.7118  0.9064  2.9014
  414MOL0     H54593   7.844   0.584   3.656  0.9969 -0.8207 -1.2734
  414MOL0     H54594   7.697   0.482   3.627 -0.9357  1.3188  2.0174
  414MOL0     H54595   7.696   0.775   3.692 -2.1994  1.4555 -2.1293
  414MOL0     H54596   7.667   0.629   3.796 -0.4539 -3.1398 -2.0174
  414MOL0     H54597   7.469   0.770   3.679  0.4424  0.0218 -2.6347
  414MOL0     H54598   7.505   0.690   3.537  0.1757  0.5952 -0.4433
  414MOL0     H54599   7.443   0.527   3.794  1.6311  2.4707  1.0416
  414MOL0     H54600   7.460   0.468   3.630  1.2221  0.2940  0.3061
  414MOL0     H54601   7.242   0.696   3.850 -0.9472  0.9611 -0.5485
  414MOL0     H54602   6.900   0.747   3.672 -2.1969 -0.6531  1.9645
  414MOL0     H54603   6.994   0.801   3.814 -1.6677  0.2437  0.3653
  414MOL0     H54604   6.842   0.688   3.935 -2.6588  0.3038  0.1602
  414MOL0     H54605   6.922   0.537   3.869 -0.1546  0.9642  0.4924
  414MOL0     H54606   6.690   0.697   3.760  0.3415  1.6087  1.3903
  414MOL0     H54607   6.763   0.550   3.681  4.5172  0.0736  0.9126
  414MOL0     H54608   6.535   0.577   3.822 -0.7629 -0.1988  0.7758
  414MOL0     H54609   6.655   0.553   3.959  1.3151  0.3735 -0.1522
  414MOL0     H54610   6.497   0.432   4.052  0.5391  0.3304 -1.3761
  414MOL0     H54611   6.335   0.278   4.164  1.5740  1.4546  1.1226
  414MOL0     H54612   6.124  -0.157   4.218  1.4633 -0.0230 -1.0571
  414MOL0     H54613   5.931  -0.322   4.250  0.1105  0.1205  0.4407
  414MOL0     H54614   5.668  -0.338   4.184 -0.8445 -0.8197  1.4901
  414MOL0     H54615   5.783  -0.472   4.233 -0.6477 -1.6210 -0.6864
  414MOL0     H54616   5.555  -0.545   4.234 -1.5354  1.5376 -0.7321
  414MOL0     H54617   5.642  -0.637   4.103  0.6611  0.5638 -0.0540
  414MOL0     H54618   5.530  -0.557   3.924 -1.4309 -0.2172 -1.1723
  414MOL0     H54619   5.510  -0.411   3.993  0.9949 -0.0280  0.5000
  414MOL0     H54620   5.343  -0.569   4.165  0.8449 -1.7155  0.0296
  414MOL0     H54621   5.280  -0.481   4.028  0.0095  0.7732  1.5386
  414MOL0     H54622   5.398  -0.765   4.009 -2.4088 -2.4385 -0.1562
  414MOL0     H54623   5.290  -0.687   3.898 -2.1986  0.1185 -0.4072
  414MOL0     H54624   5.113  -0.690   4.081  0.1380  0.1373 -1.2385
  414MOL0     H54625   5.234  -0.756   4.195 -0.5424  2.0899  0.1692
  414MOL0     H54626   5.184  -0.893   3.931  0.0416 -2.6124 -0.6212
  414MOL0     H54627   5.253  -0.963   4.069  0.5504  2.0460  0.4213
  414MOL0     H54628   5.043  -0.943   4.211 -0.2337 -1.0919 -0.2086
  414MOL0     H54629   5.045  -1.056   4.068 -1.1094  0.0173 -1.9571
  414MOL0     H54630   5.877  -0.302   3.816 -0.0004  0.5520 -0.4530
  414MOL0     H54631   6.061  -0.147   3.806  1.4719 -0.8269  0.5690
  414MOL0     H54632   6.399  -0.002   3.835 -1.4648  0.6540 -2.3126
  414MOL0     H54633   6.578   0.166   3.749  1.5411  0.0469  2.0545
  414MOL0     H54634   8.423   0.665   3.345 -1.5731  0.6262  0.7847
  414MOL0     H54635   8.579   0.651   3.149 -0.5317 -1.5959  2.5769
  414MOL0     H54636   8.746   0.736   2.768 -1.1124 -0.9847  0.2339
  414MOL0     H54637   8.853   0.775   2.537  0.4926 -1.4355 -0.9169
  414MOL0     H54638   8.620   0.839   2.134 -0.4334 -0.5736 -1.2210
  414MOL0     H54639   8.582   0.678   2.182 -0.4151  0.6231 -1.6644
  414MOL0     H54640   8.754   0.579   2.081 -2.7742 -0.4180 -0.4576
  414MOL0     H54641   8.742   0.720   1.979 -1.5324 -1.1992 -0.5955
  414MOL0     H54642   8.976   0.664   2.036 -1.8311  0.1795 -1.7959
  414MOL0     H54643   8.957   0.707   2.207  1.9092 -0.5155 -0.8742
  414MOL0     H54644   8.898   0.901   1.979 -0.6272  0.4741  0.3238
  414MOL0     H54645   8.926   0.935   2.153  0.8291  0.1796 -0.1875
  414MOL0     H54646   9.317   0.880   2.027  0.4665  3.9383 -0.3966
  414MOL0     H54647   8.474   0.721   2.355 -0.3002  1.7838 -0.0328
  414MOL0     H54648   8.379   0.655   2.570  0.0316  3.2001 -0.6542
  415MOL0     O54649   3.902   6.670   2.498 -0.1632 -0.0088  0.2275
  415MOL0     C54650   3.927   6.657   2.613  0.4356 -0.3873 -0.6458
  415MOL0     O54651   3.855   6.584   2.704  0.1858  0.5321 -0.3144
  415MOL0     C54652   3.747   6.493   2.685 -0.1733  0.5356  0.6686
  415MOL0     C54653   3.702   6.463   2.558 -0.0307 -0.6049  0.7293
  415MOL0     C54654   3.590   6.378   2.539 -0.3681  0.1400 -0.2156
  415MOL0     C54655   3.524   6.312   2.644  0.1341 -0.6873 -0.3638
  415MOL0     O54656   3.423   6.229   2.619  0.2891 -0.0794  0.4804
  415MOL0     C54657   3.314   6.242   2.704 -0.0364  0.0957 -0.5926
  415MOL0     C54658   3.191   6.185   2.646 -0.5810  0.2592  1.4346
  415MOL0     C54659   3.064   6.219   2.715 -0.4057 -0.5825  0.4374
  415MOL0     C54660   2.953   6.219   2.607 -0.4337 -0.3819  0.7968
  415MOL0     C54661   2.823   6.198   2.670  0.8753  0.3388 -0.0328
  415MOL0     C54662   2.704   6.195   2.571  0.3370 -0.0533 -0.3092
  415MOL0     C54663   2.571   6.238   2.645 -0.0182  0.4943  0.7381
  415MOL0     C54664   2.448   6.215   2.548  0.1085  0.6719 -0.1270
  415MOL0     N54665   2.458   6.318   2.438 -0.0043  0.9801  0.1200
  415MOL0     C54666   2.404   6.443   2.449 -0.1028  0.4814  0.3109
  415MOL0     C54667   2.389   6.490   2.321 -0.0717  0.1383  0.6093
  415MOL0     C54668   2.318   6.616   2.269 -1.1300  0.7397 -0.0815
  415MOL0     C54669   2.414   6.739   2.262  0.0877 -0.0471  0.4880
  415MOL0     C54670   2.437   6.804   2.403  0.0172  0.1270  0.3325
  415MOL0     C54671   2.339   6.915   2.448 -0.0357 -0.3811 -0.1046
  415MOL0     O54672   2.207   6.853   2.447 -0.6462 -0.2189  0.5667
  415MOL0     C54673   2.095   6.931   2.457 -0.3178 -0.6634  0.4320
  415MOL0     C54674   2.097   7.072   2.454 -0.4119 -0.4163 -0.7866
  415MOL0     C54675   1.981   7.141   2.463  0.6219 -0.3617 -0.2573
  415MOL0     C54676   1.860   7.075   2.489 -0.5431  0.3000 -0.4638
  415MOL0     C54677   1.729   7.143   2.513 -0.1132  0.6658  0.6240
  415MOL0     O54678   1.640   7.077   2.595  0.5758  0.0311 -0.0433
  415MOL0     C54679   1.518   7.134   2.611  0.1329 -0.5403 -0.8018
  415MOL0     C54680   1.478   7.183   2.733  0.0316  0.2402 -0.4772
  415MOL0     C54681   1.352   7.236   2.755 -0.0715 -0.5305 -0.8673
  415MOL0     C54682   1.252   7.249   2.655 -0.6182 -0.3740  0.4387
  415MOL0     O54683   1.143   7.306   2.689 -0.7097  0.0429  0.2675
  415MOL0     C54684   1.018   7.250   2.644  0.6241  1.2928 -0.6869
  415MOL0     C54685   0.912   7.348   2.687  0.7988  0.4324 -0.5145
  415MOL0     C54686   0.776   7.323   2.612  0.5863  0.5728 -0.1811
  415MOL0     C54687   0.669   7.428   2.660 -0.6732  0.5628 -0.1067
  415MOL0     C54688   0.533   7.412   2.586 -0.1266 -0.3333 -0.6106
  415MOL0     C54689   0.429   7.506   2.654 -0.0263 -0.3068  0.4619
  415MOL0     C54690   0.281   7.467   2.625  0.6780  0.4550  0.5296
  415MOL0     C54691   0.178   7.531   2.724  1.3467 -0.4270 -0.4896
  415MOL0    Cl54692   0.184   7.707   2.731  0.4917  0.5070  0.0563
  415MOL0     C54693   1.295   7.213   2.528  0.4435  0.7454  0.0202
  415MOL0     C54694   1.419   7.149   2.506 -0.8531 -0.1826  0.2868
  415MOL0     O54695   1.716   7.257   2.462 -0.2432 -0.0045  0.5950
  415MOL0     C54696   1.857   6.941   2.511 -0.0244  0.2754  0.5993
  415MOL0     C54697   1.972   6.875   2.501 -0.8342  0.5772  0.8716
  415MOL0     N54698   2.439   6.392   2.235  0.0694  0.3430  0.2469
  415MOL0     N54699   2.476   6.287   2.305 -0.4281 -0.4832 -0.6183
  415MOL0     C54700   3.580   6.340   2.771 -0.5450  0.6203 -0.0203
  415MOL0     C54701   3.682   6.438   2.795  0.3134  0.4112  0.5877
  415MOL0     C54702   4.050   6.715   2.670 -0.4652 -0.9157 -0.8866
  415MOL0     C54703   4.132   6.810   2.603 -0.1780 -0.6100 -0.2258
  415MOL0     C54704   4.250   6.867   2.656  0.0256  0.2907 -0.7394
  415MOL0     C54705   4.294   6.834   2.781  0.3542 -0.3544  0.8541
  415MOL0     O54706   4.413   6.890   2.818  0.9433  0.5667 -0.7782
  415MOL0     C54707   4.466   6.852   2.944 -0.1285 -0.0414  1.0747
  415MOL0     C54708   4.531   6.709   2.922 -0.0328  1.2568 -0.3516
  415MOL0     C54709   4.630   6.710   2.812  0.9021 -1.1770  0.1993
  415MOL0     C54710   4.760   6.647   2.856  0.0584  0.7800 -0.3355
  415MOL0     C54711   4.822   6.735   2.954  0.1477 -0.9148 -0.3742
  415MOL0     C54712   4.869   6.819   3.024  0.3983 -0.0543  0.3984
  415MOL0     C54713   4.219   6.741   2.857  0.1076  0.3188 -0.3094
  415MOL0     C54714   4.102   6.676   2.796  0.2489 -0.1296  0.7186
  415MOL0     H54715   3.731   6.510   2.464 -0.3113  0.6116  1.2234
  415MOL0     H54716   3.564   6.357   2.436  2.2285 -2.6963 -0.4493
  415MOL0     H54717   3.301   6.351   2.705  3.6487  0.6990 -2.1512
  415MOL0     H54718   3.328   6.207   2.807  1.8941 -2.3889 -1.5981
  415MOL0     H54719   3.183   6.078   2.626 -0.8005  0.4076  0.6768
  415MOL0     H54720   3.184   6.221   2.542 -1.8520 -2.5641  0.4543
  415MOL0     H54721   3.075   6.318   2.760 -2.2180 -0.1969  0.1141
  415MOL0     H54722   3.049   6.141   2.791  0.8853  0.4031  1.7506
  415MOL0     H54723   2.954   6.310   2.547  1.7123 -0.3160  0.8496
  415MOL0     H54724   2.966   6.134   2.540 -0.1696  0.4639 -0.2436
  415MOL0     H54725   2.808   6.275   2.746 -2.7254 -0.7002  0.4683
  415MOL0     H54726   2.826   6.101   2.721  0.4740 -0.2531 -1.1049
  415MOL0     H54727   2.691   6.099   2.521  0.9239  1.1218 -2.8866
  415MOL0     H54728   2.724   6.263   2.487  0.4518 -1.0909 -1.1432
  415MOL0     H54729   2.552   6.167   2.726 -2.9517  0.0476 -0.2067
  415MOL0     H54730   2.570   6.342   2.680  0.4185 -0.1346  2.7287
  415MOL0     H54731   2.353   6.220   2.601 -0.3307 -1.8642 -0.5683
  415MOL0     H54732   2.457   6.115   2.504  2.7438  1.2130 -1.0459
  415MOL0     H54733   2.368   6.498   2.535  2.3606  1.0264  1.0900
  415MOL0     H54734   2.230   6.639   2.329 -1.4089 -0.7291  0.1124
  415MOL0     H54735   2.284   6.597   2.166  1.1269 -0.4918 -0.6532
  415MOL0     H54736   2.368   6.821   2.207  1.8595 -0.1038 -1.1520
  415MOL0     H54737   2.510   6.716   2.217 -0.6181 -1.1462 -0.5092
  415MOL0     H54738   2.450   6.732   2.485 -0.3415 -0.0484  0.2365
  415MOL0     H54739   2.533   6.848   2.377 -0.4034  0.4421 -0.7242
  415MOL0     H54740   2.351   6.997   2.376  1.6774  0.1275  0.7153
  415MOL0     H54741   2.371   6.943   2.549 -0.9436 -2.8121  0.9376
  415MOL0     H54742   2.184   7.129   2.424 -0.5318  0.4022  0.3591
  415MOL0     H54743   1.988   7.244   2.428 -0.5468  0.6251  2.2062
  415MOL0     H54744   1.552   7.188   2.813 -1.0303 -3.6331  0.9702
  415MOL0     H54745   1.323   7.272   2.853 -1.7531 -2.1619 -0.6924
  415MOL0     H54746   0.989   7.151   2.681  0.8639  0.2535 -3.1490
  415MOL0     H54747   1.009   7.252   2.535 -2.0355  3.0613 -0.5282
  415MOL0     H54748   0.942   7.450   2.662 -2.2928  1.7135  0.4518
  415MOL0     H54749   0.902   7.342   2.796  4.2552 -0.2479 -0.1419
  415MOL0     H54750   0.756   7.224   2.654  1.9846  0.5578  0.4933
  415MOL0     H54751   0.781   7.314   2.503 -0.3840 -1.5303 -0.1018
  415MOL0     H54752   0.649   7.433   2.768  0.6654  0.2206  0.1762
  415MOL0     H54753   0.711   7.523   2.626 -0.8926 -0.7243 -4.5543
  415MOL0     H54754   0.498   7.309   2.593 -1.8396  0.3231  1.4579
  415MOL0     H54755   0.541   7.436   2.480  0.4326  1.5565 -0.1747
  415MOL0     H54756   0.443   7.611   2.627 -0.0338 -0.5571 -0.5549
  415MOL0     H54757   0.443   7.505   2.763  0.0442 -0.4857  0.4504
  415MOL0     H54758   0.253   7.496   2.523  0.4257  2.5338  1.1543
  415MOL0     H54759   0.280   7.358   2.629  2.6377  0.4204  1.8242
  415MOL0     H54760   0.187   7.481   2.821  0.5897 -1.7985 -1.0817
  415MOL0     H54761   0.083   7.504   2.676  2.1118 -2.0846 -1.1579
  415MOL0     H54762   1.223   7.226   2.448  1.6166  2.6001 -0.7979
  415MOL0     H54763   1.448   7.103   2.412  4.9819 -0.1358  1.6820
  415MOL0     H54764   1.766   6.887   2.537 -2.2208  2.8305 -1.2411
  415MOL0     H54765   2.001   6.777   2.538 -1.4305 -0.0562 -0.2668
  415MOL0     H54766   3.529   6.284   2.850  1.4552 -4.1251 -1.7116
  415MOL0     H54767   3.710   6.473   2.893  0.9078 -0.6489  0.8099
  415MOL0     H54768   4.111   6.842   2.502  1.2476  0.5692 -0.1830
  415MOL0     H54769   4.311   6.931   2.594 -1.2452  1.4250 -0.8610
  415MOL0     H54770   4.391   6.845   3.024  2.2365 -2.7546  3.2820
  415MOL0     H54771   4.542   6.924   2.976  0.1234  0.5599 -0.7798
  415MOL0     H54772   4.570   6.678   3.020 -2.8480  1.7097  1.0379
  415MOL0     H54773   4.464   6.628   2.891  3.1910 -0.2917 -3.9401
  415MOL0     H54774   4.657   6.810   2.777  3.1190 -1.9358 -0.4862
  415MOL0     H54775   4.595   6.660   2.721 -0.9675 -0.9444  0.7671
  415MOL0     H54776   4.739   6.546   2.892  1.1685  1.6137  3.0036
  415MOL0     H54777   4.834   6.646   2.775  1.4044 -1.7653  0.8169
  415MOL0     H54778   4.897   6.896   3.092  0.7674 -0.3866  0.6270
  415MOL0     H54779   4.247   6.702   2.954  0.6638  3.0707  0.7234
  415MOL0     H54780   4.043   6.607   2.855 -2.1019  1.8727  0.8852
  416MOL0     O54781  10.744   1.887   2.591 -0.2023 -0.4753  0.2830
  416MOL0     C54782  10.829   1.822   2.650  1.1581 -0.3353  0.5393
  416MOL0     O54783  10.805   1.712   2.727  0.0342  0.6377  0.4846
  416MOL0     C54784  10.680   1.658   2.750  0.0641  0.1337  0.6710
  416MOL0     C54785  10.675   1.568   2.849  0.2095  0.0377 -0.1528
  416MOL0     C54786  10.564   1.487   2.881  0.6674  1.1425  0.1523
  416MOL0     C54787  10.446   1.506   2.795 -0.4647  0.6742  0.0680
  416MOL0     O54788  10.325   1.444   2.812  0.0001 -0.2565  1.0228
  416MOL0     C54789  10.300   1.327   2.886 -0.0924 -0.5715  0.2557
  416MOL0     C54790  10.156   1.288   2.896 -0.2536 -0.4196  0.1441
  416MOL0     C54791  10.135   1.151   2.953 -0.0506 -0.0383  1.1525
  416MOL0     C54792   9.989   1.105   2.959  0.7939  0.4158  0.5840
  416MOL0     C54793   9.971   1.019   3.083  0.0334 -0.2870 -0.3174
  416MOL0     C54794   9.990   1.079   3.227 -0.5834  0.0394  0.8817
  416MOL0     C54795   9.898   1.021   3.329  0.5751 -0.7633  0.4750
  416MOL0     C54796   9.931   1.071   3.462  0.9084 -0.2947 -0.2445
  416MOL0     N54797   9.892   1.215   3.491 -0.0741  0.1093  0.0331
  416MOL0     C54798   9.767   1.265   3.519 -0.4574  0.6830 -0.4067
  416MOL0     C54799   9.786   1.395   3.536 -0.5303  0.4341  0.1043
  416MOL0     C54800   9.675   1.483   3.582  0.3521  0.3428  0.6188
  416MOL0     C54801   9.677   1.519   3.731 -0.5102  0.2299  0.0504
  416MOL0     C54802   9.676   1.403   3.832  0.0513  0.2912 -0.4430
  416MOL0     C54803   9.544   1.332   3.829  0.4340  0.7168 -0.8292
  416MOL0     O54804   9.550   1.243   3.941  0.9102  0.1705  0.7735
  416MOL0     C54805   9.435   1.192   3.994 -0.5195  0.2645  0.4297
  416MOL0     C54806   9.449   1.121   4.110  0.4481 -1.2382  0.1250
  416MOL0     C54807   9.326   1.068   4.164 -0.0218  0.9272  0.4753
  416MOL0     C54808   9.201   1.092   4.109  0.0715 -0.0169 -0.4783
  416MOL0     C54809   9.076   1.058   4.180  0.2390 -0.0158 -0.2992
  416MOL0     O54810   8.951   1.108   4.142 -0.4649 -0.1988 -0.0502
  416MOL0     C54811   8.852   1.051   4.215 -0.1209  0.0765  0.6511
  416MOL0     C54812   8.763   0.952   4.157 -1.0542 -0.8514  0.0778
  416MOL0     C54813   8.659   0.912   4.233  0.8365 -0.1656  0.3665
  416MOL0     C54814   8.630   0.949   4.369  0.7813 -0.2314  0.0145
  416MOL0     O54815   8.510   0.918   4.429 -0.1913 -0.0914  0.3166
  416MOL0     C54816   8.403   0.880   4.343 -1.0887 -0.3373  0.4047
  416MOL0     C54817   8.271   0.900   4.421 -0.3232 -0.2173 -0.4888
  416MOL0     C54818   8.151   0.870   4.327 -0.0617  0.8943  0.4709
  416MOL0     C54819   8.022   0.880   4.403 -0.3857  0.0796  0.0632
  416MOL0     C54820   7.977   1.026   4.425 -0.5664  0.8242 -0.1034
  416MOL0     C54821   7.851   1.019   4.518 -0.3569  1.1256 -0.7043
  416MOL0     C54822   7.732   0.974   4.443 -0.4330  0.1053  0.6245
  416MOL0     C54823   7.614   0.969   4.546 -0.3136 -1.1560 -0.5102
  416MOL0    Cl54824   7.546   1.139   4.582  0.1298 -0.3468  0.0125
  416MOL0     C54825   8.724   1.038   4.427 -0.0649  0.3913 -0.1165
  416MOL0     C54826   8.827   1.086   4.351 -0.3225  0.9649 -0.0848
  416MOL0     O54827   9.098   0.985   4.273 -0.4776  0.5757  0.3300
  416MOL0     C54828   9.196   1.153   3.982  0.2836 -0.5582 -0.2992
  416MOL0     C54829   9.310   1.205   3.931  0.5245  0.0879 -0.7045
  416MOL0     N54830   9.925   1.426   3.512  0.2378 -0.8007 -0.0625
  416MOL0     N54831   9.984   1.314   3.496 -0.6127 -0.5166 -0.4785
  416MOL0     C54832  10.450   1.596   2.693  1.1049 -0.5693 -0.1456
  416MOL0     C54833  10.561   1.671   2.663 -0.2272 -0.2427  0.7358
  416MOL0     C54834  10.964   1.876   2.640 -0.0826 -1.0946 -0.3955
  416MOL0     C54835  11.076   1.827   2.722  0.0465  0.6884  0.5942
  416MOL0     C54836  11.206   1.875   2.704  0.2045 -0.3612 -0.3619
  416MOL0     C54837  11.234   1.969   2.603 -1.0521  0.5583  0.3588
  416MOL0     O54838  11.359   2.002   2.562  0.2897  0.2938  0.1664
  416MOL0     C54839  11.465   1.902   2.577 -0.2945 -0.0900  0.6101
  416MOL0     C54840  11.503   1.835   2.446 -0.1024 -0.9719  0.0666
  416MOL0     C54841  11.383   1.810   2.349 -0.7949 -0.8896 -0.3495
  416MOL0     C54842  11.425   1.768   2.209  0.3515  0.5487 -0.7842
  416MOL0     C54843  11.514   1.653   2.212  0.3726 -0.0756 -0.3456
  416MOL0     C54844  11.585   1.557   2.192 -0.0671  0.5824 -0.4321
  416MOL0     C54845  11.122   2.021   2.530 -0.2945 -0.4318 -0.5066
  416MOL0     C54846  10.992   1.981   2.549  0.5856 -0.3214 -0.1789
  416MOL0     H54847  10.766   1.541   2.903  0.3001 -0.2875 -0.4560
  416MOL0     H54848  10.560   1.414   2.962  2.4344 -2.9203 -3.0712
  416MOL0     H54849  10.337   1.342   2.988 -0.7558 -4.2322  1.1861
  416MOL0     H54850  10.354   1.243   2.841 -0.2228 -0.9329  0.7635
  416MOL0     H54851  10.122   1.278   2.792 -0.1436  0.5129  0.0103
  416MOL0     H54852  10.100   1.360   2.955 -1.4075 -2.0176  1.0971
  416MOL0     H54853  10.182   1.149   3.052  0.3169  0.5221  0.9900
  416MOL0     H54854  10.189   1.075   2.894 -0.4490 -0.8673  1.8374
  416MOL0     H54855   9.929   1.196   2.962 -0.0081  0.0998 -2.4073
  416MOL0     H54856   9.959   1.044   2.873  0.2346  1.1699  0.2342
  416MOL0     H54857  10.036   0.931   3.081  1.2044  0.4692  1.6946
  416MOL0     H54858   9.869   0.982   3.092  0.5907 -1.8331 -0.1331
  416MOL0     H54859   9.993   1.188   3.217 -0.3295  0.0463  1.0198
  416MOL0     H54860  10.089   1.049   3.262 -0.3659 -2.4377 -1.5269
  416MOL0     H54861   9.799   1.059   3.307  1.2717  0.3930 -0.7668
  416MOL0     H54862   9.917   0.913   3.329  0.9985 -0.6921  0.3848
  416MOL0     H54863  10.038   1.063   3.484  0.6287 -0.3559  1.1907
  416MOL0     H54864   9.876   1.015   3.538  3.5357 -0.5830  1.6180
  416MOL0     H54865   9.676   1.205   3.526 -0.6960  1.0058 -0.7357
  416MOL0     H54866   9.586   1.435   3.539  1.3559  0.2657 -1.4744
  416MOL0     H54867   9.673   1.580   3.533 -2.0067 -0.1606 -0.4324
  416MOL0     H54868   9.595   1.588   3.753 -0.1762  0.5699  0.2334
  416MOL0     H54869   9.769   1.575   3.752 -0.3084 -0.6051  1.4977
  416MOL0     H54870   9.754   1.334   3.797  2.1401  1.8656  0.8337
  416MOL0     H54871   9.695   1.445   3.931 -2.5362  2.0362 -0.5925
  416MOL0     H54872   9.522   1.278   3.737  1.3940  0.9272 -1.1956
  416MOL0     H54873   9.472   1.411   3.853 -1.9430 -0.4751 -3.5497
  416MOL0     H54874   9.539   1.123   4.171  1.1713 -1.6925 -0.8931
  416MOL0     H54875   9.333   1.022   4.262 -1.5598 -1.5258 -0.4835
  416MOL0     H54876   8.774   0.928   4.052  1.1472  1.0836 -0.2182
  416MOL0     H54877   8.604   0.832   4.184  1.7126 -1.2063  1.0519
  416MOL0     H54878   8.414   0.774   4.319  0.5669 -0.4602  1.5453
  416MOL0     H54879   8.404   0.947   4.257 -1.3605 -0.6615  0.1477
  416MOL0     H54880   8.274   1.007   4.445  3.7248 -0.6234  1.6978
  416MOL0     H54881   8.262   0.844   4.514  1.0567 -1.0881 -0.8546
  416MOL0     H54882   8.163   0.765   4.302 -1.8128  0.2336  2.0898
  416MOL0     H54883   8.154   0.931   4.237 -1.8582  2.4695  1.3953
  416MOL0     H54884   7.950   0.826   4.342 -1.2285 -2.1809  2.8322
  416MOL0     H54885   8.030   0.809   4.486  1.1956 -0.9571 -0.9137
  416MOL0     H54886   7.958   1.078   4.331  1.7834 -0.4775 -1.4066
  416MOL0     H54887   8.055   1.082   4.477 -2.1056  0.7548  2.4331
  416MOL0     H54888   7.834   1.122   4.550  2.1081  1.8445 -1.5409
  416MOL0     H54889   7.878   0.954   4.602  2.1309 -2.6896 -4.0762
  416MOL0     H54890   7.694   1.036   4.362  1.2631 -0.9153 -1.0430
  416MOL0     H54891   7.752   0.871   4.410 -0.9474  0.3355 -0.4501
  416MOL0     H54892   7.640   0.927   4.644 -0.4774  1.6985  0.8600
  416MOL0     H54893   7.536   0.907   4.502 -0.7327  0.7038 -2.5566
  416MOL0     H54894   8.725   1.088   4.524 -1.2469  2.9639 -1.3345
  416MOL0     H54895   8.896   1.159   4.393  0.8641  0.5545 -1.2713
  416MOL0     H54896   9.096   1.173   3.944 -0.3460 -1.6256  0.7145
  416MOL0     H54897   9.309   1.250   3.833 -3.2548 -0.1735 -0.9132
  416MOL0     H54898  10.365   1.611   2.628  1.8506  1.0477 -0.8109
  416MOL0     H54899  10.565   1.730   2.572  0.9090 -0.6000  0.5383
  416MOL0     H54900  11.065   1.748   2.795  0.5515 -0.8658 -0.9547
  416MOL0     H54901  11.279   1.838   2.776  0.3749 -0.9328 -0.8247
  416MOL0     H54902  11.450   1.829   2.656 -0.5842 -1.4512 -0.6526
  416MOL0     H54903  11.557   1.954   2.606 -1.0711  1.5503  0.2841
  416MOL0     H54904  11.577   1.897   2.395  0.6478  0.6463  2.8802
  416MOL0     H54905  11.560   1.744   2.468  1.9985  0.1627 -0.3690
  416MOL0     H54906  11.335   1.906   2.331  1.5481  0.9420  2.2027
  416MOL0     H54907  11.309   1.744   2.393  0.8248 -2.5038  0.0854
  416MOL0     H54908  11.333   1.752   2.151  0.0418  2.5489 -0.9381
  416MOL0     H54909  11.479   1.849   2.158  1.2830  1.6085  1.7250
  416MOL0     H54910  11.648   1.474   2.166 -3.0612 -2.0052 -0.1001
  416MOL0     H54911  11.145   2.095   2.454 -0.4178 -0.8742 -0.9854
  416MOL0     H54912  10.907   2.012   2.489 -2.1871 -1.6274  2.7644
  417MOL0     O54913   7.260   2.631   4.180 -0.1470 -0.0129 -0.7730
  417MOL0     C54914   7.320   2.561   4.260 -0.2605  0.2967 -0.7176
  417MOL0     O54915   7.264   2.510   4.377 -0.8799  0.0043 -0.1212
  417MOL0     C54916   7.130   2.519   4.385  0.4304  0.6913  0.7655
  417MOL0     C54917   7.069   2.601   4.478  0.4559 -0.4612  1.2886
  417MOL0     C54918   6.932   2.610   4.485  0.3096  0.3608 -0.4265
  417MOL0     C54919   6.846   2.536   4.400  0.4169 -0.5553 -1.1196
  417MOL0     O54920   6.707   2.557   4.413  0.3067  0.7229 -0.0530
  417MOL0     C54921   6.621   2.530   4.299  0.5461  0.3698 -0.5034
  417MOL0     C54922   6.473   2.524   4.334  0.0308  0.2512 -0.0473
  417MOL0     C54923   6.385   2.517   4.209  1.3131 -0.0396 -0.3944
  417MOL0     C54924   6.237   2.558   4.220 -0.9167 -0.5505  0.0045
  417MOL0     C54925   6.180   2.516   4.078 -0.2823 -1.1381 -0.7999
  417MOL0     C54926   6.033   2.470   4.098  1.1825  0.6786 -0.2594
  417MOL0     C54927   5.973   2.415   3.964 -0.1045  0.3228  0.5589
  417MOL0     C54928   6.022   2.280   3.945 -0.3364 -0.5525  0.2286
  417MOL0     N54929   5.985   2.215   3.822  0.2608  0.9554 -0.3176
  417MOL0     C54930   5.856   2.215   3.780  0.4958  0.2938 -0.5761
  417MOL0     C54931   5.861   2.188   3.653 -0.5197  0.2297 -0.8677
  417MOL0     C54932   5.752   2.191   3.548  0.7486 -0.2172  0.5452
  417MOL0     C54933   5.772   2.080   3.441 -0.2369  0.1796 -0.5509
  417MOL0     C54934   5.660   2.067   3.340  0.7814 -0.0936  0.1101
  417MOL0     C54935   5.705   1.967   3.234  0.4241  0.0553 -1.1053
  417MOL0     O54936   5.633   1.994   3.116  0.3402 -0.0399 -0.0221
  417MOL0     C54937   5.502   1.969   3.128  0.7158 -0.1726 -0.0227
  417MOL0     C54938   5.462   1.834   3.153 -0.5590  0.2428 -0.3900
  417MOL0     C54939   5.334   1.795   3.171  0.3010 -0.4503 -0.1616
  417MOL0     C54940   5.233   1.896   3.167  1.1329 -0.2607  0.2021
  417MOL0     C54941   5.093   1.850   3.164 -0.1279 -0.0425  1.0174
  417MOL0     O54942   5.059   1.719   3.169 -0.2393  0.3921 -0.9638
  417MOL0     C54943   4.928   1.682   3.155  0.8335 -0.8985  0.2605
  417MOL0     C54944   4.821   1.724   3.238 -1.3054 -0.4792  0.6256
  417MOL0     C54945   4.697   1.649   3.234  0.2578 -0.2835  0.3645
  417MOL0     C54946   4.670   1.554   3.135  0.7359  0.2320 -0.1298
  417MOL0     O54947   4.542   1.496   3.132 -0.3246  0.1519  0.1242
  417MOL0     C54948   4.530   1.391   3.034  0.3658 -0.5387  0.3018
  417MOL0     C54949   4.404   1.305   3.058  0.0155  0.5488  0.7381
  417MOL0     C54950   4.282   1.390   3.042  0.1176 -0.0175  0.1899
  417MOL0     C54951   4.139   1.321   3.082  0.3345 -0.0630  0.3420
  417MOL0     C54952   4.020   1.410   3.048 -0.3760  0.0950  0.0754
  417MOL0     C54953   3.981   1.392   2.903 -0.0083 -0.1428  0.8289
  417MOL0     C54954   3.941   1.255   2.857  0.0765 -0.2543  0.5514
  417MOL0     C54955   3.821   1.252   2.771 -0.0037 -0.1650 -0.6383
  417MOL0    Cl54956   3.829   1.352   2.626  0.2182 -0.1925 -0.1385
  417MOL0     C54957   4.777   1.522   3.046 -0.0673 -1.2199 -0.2531
  417MOL0     C54958   4.904   1.579   3.061 -0.1731 -0.9173  0.9923
  417MOL0     O54959   5.011   1.943   3.149  0.8551  0.5202 -0.5734
  417MOL0     C54960   5.264   2.025   3.135 -0.6960  1.2499  1.1401
  417MOL0     C54961   5.401   2.062   3.108  0.7136  1.2347  1.2024
  417MOL0     N54962   5.990   2.176   3.614 -0.2256  0.9033  0.2718
  417MOL0     N54963   6.068   2.184   3.721 -0.4177  0.1950 -0.1364
  417MOL0     C54964   6.912   2.444   4.314  0.3753  1.1227 -0.5326
  417MOL0     C54965   7.053   2.434   4.311  0.4836  1.1441 -0.3746
  417MOL0     C54966   7.468   2.537   4.246 -1.2357 -0.1005  0.7136
  417MOL0     C54967   7.532   2.587   4.131 -0.6381  1.2523 -1.3455
  417MOL0     C54968   7.665   2.559   4.109 -0.1884 -0.0158 -0.5290
  417MOL0     C54969   7.738   2.477   4.196 -0.7292 -0.2828  0.5052
  417MOL0     O54970   7.880   2.466   4.186 -0.3030 -0.2595 -0.3133
  417MOL0     C54971   7.940   2.431   4.055 -0.1459 -0.0394  0.0355
  417MOL0     C54972   7.914   2.284   4.023  0.0233  0.2260 -0.2725
  417MOL0     C54973   7.946   2.176   4.132  0.6179  0.7130  0.0770
  417MOL0     C54974   7.899   2.037   4.097 -0.0304 -0.1529 -0.4265
  417MOL0     C54975   7.753   2.025   4.079  0.3425  0.7662 -0.3709
  417MOL0     C54976   7.642   2.031   4.031  0.9630  0.3653  0.1683
  417MOL0     C54977   7.683   2.441   4.316 -0.3267 -0.8478  0.0910
  417MOL0     C54978   7.548   2.476   4.346  0.9245  0.3317 -0.1618
  417MOL0     H54979   7.128   2.649   4.556  0.9723  0.1739  0.5222
  417MOL0     H54980   6.891   2.674   4.562  1.3477 -0.3338  0.7297
  417MOL0     H54981   6.641   2.440   4.240 -1.0079  0.1540 -0.7386
  417MOL0     H54982   6.636   2.617   4.234  4.1860  0.7198  0.5991
  417MOL0     H54983   6.443   2.601   4.405 -1.7585 -1.7314  1.5189
  417MOL0     H54984   6.446   2.436   4.394 -1.0530  2.2944  2.6167
  417MOL0     H54985   6.390   2.415   4.169 -4.2570 -1.1123  0.8973
  417MOL0     H54986   6.427   2.583   4.133 -1.4135  0.7916 -1.2768
  417MOL0     H54987   6.184   2.498   4.295 -1.3361  0.7294  0.7622
  417MOL0     H54988   6.228   2.662   4.251  1.8418 -0.8699  2.2984
  417MOL0     H54989   6.236   2.436   4.030 -0.7085 -2.7968  1.2911
  417MOL0     H54990   6.183   2.610   4.022  1.4787  0.8120  2.2745
  417MOL0     H54991   5.979   2.552   4.146  0.5149  1.5386 -2.3798
  417MOL0     H54992   6.019   2.382   4.161 -1.6514  2.0393  1.1955
  417MOL0     H54993   5.864   2.418   3.970 -0.2865  2.2304 -1.9608
  417MOL0     H54994   5.997   2.479   3.879 -0.2275 -0.9461 -0.4695
  417MOL0     H54995   5.998   2.215   4.030  3.9178  0.1502  2.2471
  417MOL0     H54996   6.132   2.283   3.951 -0.3516 -1.7781  2.0071
  417MOL0     H54997   5.771   2.242   3.843  0.2362 -1.7583  0.0204
  417MOL0     H54998   5.757   2.289   3.501  2.8809 -0.8572 -0.6456
  417MOL0     H54999   5.663   2.159   3.604  0.9798 -0.9283  0.5185
  417MOL0     H55000   5.791   1.985   3.492  2.1809  0.0931 -1.4928
  417MOL0     H55001   5.868   2.095   3.391  0.5384 -0.8808  0.5668
  417MOL0     H55002   5.558   2.047   3.374  0.5989 -0.3046 -0.5335
  417MOL0     H55003   5.654   2.165   3.291 -3.8027 -0.1961  0.0829
  417MOL0     H55004   5.679   1.875   3.288 -2.0296  1.9229  1.1517
  417MOL0     H55005   5.813   1.975   3.214  1.0316  0.4189  1.8025
  417MOL0     H55006   5.547   1.766   3.148  0.7203  1.8307 -1.2193
  417MOL0     H55007   5.320   1.690   3.197  2.4927 -0.4606  1.2855
  417MOL0     H55008   4.844   1.808   3.303 -0.7935  1.3572 -1.7841
  417MOL0     H55009   4.625   1.673   3.311  0.7177  0.6022  0.5347
  417MOL0     H55010   4.618   1.326   3.031  0.9522  0.1249  1.7704
  417MOL0     H55011   4.525   1.433   2.933 -0.2999 -1.5054 -0.0700
  417MOL0     H55012   4.410   1.271   3.161  0.8845  3.8061  1.8797
  417MOL0     H55013   4.392   1.219   2.991 -2.4671  1.4029 -0.0115
  417MOL0     H55014   4.283   1.429   2.940  3.8053 -0.2958 -0.0197
  417MOL0     H55015   4.294   1.473   3.112 -3.6732  0.0367  0.9941
  417MOL0     H55016   4.133   1.231   3.021 -1.0427 -1.4889  2.4746
  417MOL0     H55017   4.127   1.293   3.187  1.9243 -1.0680  0.2800
  417MOL0     H55018   4.041   1.517   3.062  1.0343 -0.0787 -0.5315
  417MOL0     H55019   3.928   1.381   3.099 -1.1808  1.1228 -0.7236
  417MOL0     H55020   4.058   1.439   2.842 -0.1800 -0.1576  0.5982
  417MOL0     H55021   3.892   1.455   2.891  0.6073  0.5630 -0.1846
  417MOL0     H55022   4.025   1.214   2.801  0.4111  0.8761  0.2060
  417MOL0     H55023   3.926   1.194   2.947  2.0947  0.1536  1.2221
  417MOL0     H55024   3.744   1.284   2.841 -0.5590  0.6952 -1.6188
  417MOL0     H55025   3.795   1.151   2.737 -1.3265 -0.9557  2.4324
  417MOL0     H55026   4.770   1.454   2.962 -0.9018 -1.3905 -0.0483
  417MOL0     H55027   4.984   1.558   2.991  0.9087  0.7807  1.6771
  417MOL0     H55028   5.181   2.094   3.132 -2.4337 -0.7714  0.2652
  417MOL0     H55029   5.418   2.164   3.075  1.9640  0.2553 -1.5091
  417MOL0     H55030   6.849   2.380   4.253 -1.0054  0.3990  1.5460
  417MOL0     H55031   7.106   2.362   4.249 -1.5000  0.4900 -1.3648
  417MOL0     H55032   7.479   2.636   4.049 -2.1204  1.3406 -0.3627
  417MOL0     H55033   7.717   2.592   4.019 -0.2536  0.7557 -0.2897
  417MOL0     H55034   8.048   2.449   4.066  0.5318 -2.3928 -1.8867
  417MOL0     H55035   7.913   2.501   3.975 -0.7774  2.1407  2.0336
  417MOL0     H55036   7.807   2.277   4.001 -0.9259 -1.1620  3.8359
  417MOL0     H55037   7.969   2.261   3.931  3.6166  2.9457  0.9896
  417MOL0     H55038   7.914   2.200   4.234 -0.8196 -0.9615  0.0796
  417MOL0     H55039   8.055   2.167   4.135  0.6711  1.0201 -0.7565
  417MOL0     H55040   7.951   2.021   4.002 -1.3884  0.3841 -1.2827
  417MOL0     H55041   7.935   1.971   4.176  0.6968  0.4425 -0.2410
  417MOL0     H55042   7.542   2.028   3.991  0.8319 -2.1278  0.5604
  417MOL0     H55043   7.741   2.387   4.390  1.5310  0.7777 -0.1020
  417MOL0     H55044   7.511   2.465   4.448  1.5203 -1.7125 -0.1291
  418MOL0     O55045  10.623   4.051   3.808  0.4420  0.1586  0.1202
  418MOL0     C55046  10.699   4.040   3.901  0.2010 -0.6852 -1.2547
  418MOL0     O55047  10.686   4.094   4.024 -0.4400 -0.1908  0.4276
  418MOL0     C55048  10.569   4.156   4.061  0.6413  0.2292  0.8418
  418MOL0     C55049  10.452   4.091   4.115  0.2255  0.6406  0.4013
  418MOL0     C55050  10.340   4.157   4.162  0.4484  0.1731 -0.7509
  418MOL0     C55051  10.322   4.291   4.123  0.1604  0.0494 -1.0071
  418MOL0     O55052  10.214   4.369   4.153  0.0177  0.3676  0.1287
  418MOL0     C55053  10.106   4.363   4.051 -0.7906  0.2737 -0.1952
  418MOL0     C55054  10.005   4.465   4.087 -0.9533 -0.3566  0.0276
  418MOL0     C55055   9.867   4.445   4.017  0.0596 -0.4243  0.4925
  418MOL0     C55056   9.767   4.541   4.085  0.4991 -0.0106  0.4681
  418MOL0     C55057   9.633   4.542   4.011 -0.0851  1.1641  0.3432
  418MOL0     C55058   9.567   4.667   4.078 -0.7880  0.0182  0.0286
  418MOL0     C55059   9.429   4.682   4.029  0.1379  0.1160  0.3767
  418MOL0     C55060   9.418   4.734   3.880  0.4071  0.2248 -0.1192
  418MOL0     N55061   9.289   4.722   3.814  0.4146 -0.0189 -0.0289
  418MOL0     C55062   9.168   4.781   3.853  0.2132  0.1842  0.5619
  418MOL0     C55063   9.072   4.725   3.771 -0.5797  0.3727  0.1720
  418MOL0     C55064   8.929   4.775   3.765  0.0590 -0.0810  0.2374
  418MOL0     C55065   8.831   4.674   3.720 -0.3255  0.1690 -0.2227
  418MOL0     C55066   8.686   4.735   3.732  0.1587  0.3278  0.4409
  418MOL0     C55067   8.577   4.628   3.747  0.8184 -0.2739  0.5156
  418MOL0     O55068   8.458   4.677   3.812  1.2008  0.2009  0.1037
  418MOL0     C55069   8.345   4.704   3.739  0.1321  1.1125 -0.6386
  418MOL0     C55070   8.259   4.789   3.804 -0.5150 -0.0659 -0.0720
  418MOL0     C55071   8.125   4.823   3.761  0.2579 -0.0436  0.3934
  418MOL0     C55072   8.081   4.760   3.643  0.1497  0.0208 -1.1040
  418MOL0     C55073   7.948   4.793   3.589 -0.0352 -0.4183 -0.2780
  418MOL0     O55074   7.903   4.703   3.497 -0.7313  0.1230  0.0389
  418MOL0     C55075   7.780   4.716   3.431 -0.6573 -0.0415  0.1760
  418MOL0     C55076   7.665   4.778   3.487  0.1550  1.3130  0.4591
  418MOL0     C55077   7.545   4.758   3.414  0.4744  0.1564  0.7028
  418MOL0     C55078   7.539   4.698   3.282 -0.0100 -1.0913 -0.7650
  418MOL0     O55079   7.425   4.682   3.202 -0.2399 -0.0560 -0.4945
  418MOL0     C55080   7.318   4.622   3.270 -0.3082  0.2487  1.1471
  418MOL0     C55081   7.214   4.571   3.179  0.5274 -0.2244 -1.4000
  418MOL0     C55082   7.161   4.689   3.085  0.8063  0.8200 -0.0826
  418MOL0     C55083   7.054   4.634   2.977  0.1238  0.2383 -0.2155
  418MOL0     C55084   6.922   4.596   3.052  0.3789 -0.2581  0.4781
  418MOL0     C55085   6.812   4.528   2.959 -0.8798  0.0170  0.8910
  418MOL0     C55086   6.682   4.504   3.039 -0.2342 -0.1090 -0.1895
  418MOL0     C55087   6.578   4.448   2.940 -1.1581 -0.6766  0.6546
  418MOL0    Cl55088   6.429   4.423   3.040 -0.2960 -0.0382 -0.2247
  418MOL0     C55089   7.660   4.651   3.234 -1.3083  0.2857  0.5040
  418MOL0     C55090   7.779   4.653   3.310 -0.1846 -0.5405 -0.6260
  418MOL0     O55091   7.884   4.887   3.637 -0.4534  0.3165  0.2632
  418MOL0     C55092   8.171   4.664   3.585  0.8250  0.7934  0.4867
  418MOL0     C55093   8.300   4.644   3.625 -0.1311  0.3741  0.4533
  418MOL0     N55094   9.145   4.654   3.681  0.3471  0.1938  0.1621
  418MOL0     N55095   9.265   4.641   3.712 -0.1759 -0.0856  0.2724
  418MOL0     C55096  10.432   4.359   4.066 -0.1060 -0.5603 -0.4774
  418MOL0     C55097  10.549   4.290   4.032  0.4983 -0.4801 -0.6787
  418MOL0     C55098  10.833   3.980   3.873  0.5792  0.4151  0.2844
  418MOL0     C55099  10.936   3.985   3.963  1.0100  0.2852 -0.9843
  418MOL0     C55100  11.060   3.939   3.929 -0.9589  0.1916  0.2500
  418MOL0     C55101  11.092   3.894   3.805 -0.2352  0.7421  0.1959
  418MOL0     O55102  11.215   3.844   3.785 -0.3293 -0.5239  0.3249
  418MOL0     C55103  11.293   3.873   3.666  0.2043 -0.1999  0.7842
  418MOL0     C55104  11.434   3.818   3.695 -0.5186  0.4030  0.1246
  418MOL0     C55105  11.530   3.839   3.573  0.6777 -1.1432  0.8621
  418MOL0     C55106  11.679   3.801   3.613 -0.2921 -0.9392 -1.2014
  418MOL0     C55107  11.758   3.809   3.488 -0.1080  0.0256 -0.5495
  418MOL0     C55108  11.836   3.783   3.394 -0.6046 -0.0581 -0.5747
  418MOL0     C55109  10.990   3.887   3.711  0.2150 -0.0895  0.1112
  418MOL0     C55110  10.864   3.940   3.738  0.4258  0.1097 -0.6002
  418MOL0     H55111  10.446   3.982   4.109  0.8017  0.6032  0.4545
  418MOL0     H55112  10.260   4.099   4.207  1.2601 -0.6032 -0.2687
  418MOL0     H55113  10.063   4.263   4.065  0.2533 -0.6646 -3.0246
  418MOL0     H55114  10.123   4.379   3.945  0.8565  1.1081  0.1700
  418MOL0     H55115  10.046   4.566   4.078 -0.7404 -0.3570  0.8513
  418MOL0     H55116  10.001   4.450   4.195 -2.0353  1.3006  0.2487
  418MOL0     H55117   9.832   4.342   4.023  1.0405 -0.7457  0.7843
  418MOL0     H55118   9.878   4.469   3.911  1.3148 -0.3636  0.6243
  418MOL0     H55119   9.757   4.505   4.188 -1.4765 -2.9576 -0.6284
  418MOL0     H55120   9.807   4.643   4.084 -1.2084  0.7021 -0.0196
  418MOL0     H55121   9.571   4.452   4.016  1.5030  0.0810  1.2391
  418MOL0     H55122   9.666   4.563   3.909  2.8403  1.7143  1.2981
  418MOL0     H55123   9.634   4.753   4.071 -0.3460 -0.3384 -0.1646
  418MOL0     H55124   9.564   4.639   4.184  0.6413 -2.4891 -0.5318
  418MOL0     H55125   9.383   4.584   4.044  0.4823  0.2522  2.6114
  418MOL0     H55126   9.377   4.757   4.089  1.7804  0.2092  1.7563
  418MOL0     H55127   9.490   4.678   3.819  0.4891  1.3544 -1.0954
  418MOL0     H55128   9.439   4.841   3.874 -3.4622  1.3156  2.5514
  418MOL0     H55129   9.137   4.852   3.928 -1.8083  0.4307 -0.4550
  418MOL0     H55130   8.943   4.863   3.702 -2.3256 -0.6570 -1.2051
  418MOL0     H55131   8.888   4.807   3.862 -0.4934 -0.1172  0.0167
  418MOL0     H55132   8.828   4.590   3.791  0.0580  0.5213  0.2191
  418MOL0     H55133   8.841   4.636   3.618  3.9258 -1.4335  0.6079
  418MOL0     H55134   8.684   4.796   3.823  0.5638 -2.3504  2.3496
  418MOL0     H55135   8.669   4.807   3.651 -0.6604  1.0994  1.2797
  418MOL0     H55136   8.612   4.558   3.824  1.4874  0.2573  0.7158
  418MOL0     H55137   8.560   4.573   3.654 -1.2724  0.4956  0.4060
  418MOL0     H55138   8.285   4.846   3.893 -1.7707  3.4654 -1.7627
  418MOL0     H55139   8.074   4.897   3.823 -2.0676 -1.2201  0.0031
  418MOL0     H55140   7.660   4.824   3.585 -3.2290  0.5181  0.7918
  418MOL0     H55141   7.452   4.786   3.461 -0.2251  1.0582 -1.1200
  418MOL0     H55142   7.277   4.711   3.319  1.0894 -0.0983  3.0681
  418MOL0     H55143   7.341   4.551   3.349 -0.8167 -1.9209 -0.5531
  418MOL0     H55144   7.138   4.534   3.249  2.1568 -2.1640 -0.5740
  418MOL0     H55145   7.252   4.484   3.125  2.1029 -0.5919  0.2239
  418MOL0     H55146   7.243   4.714   3.017  0.9770  0.2193 -0.1019
  418MOL0     H55147   7.128   4.777   3.142  0.5216 -0.1334  1.2761
  418MOL0     H55148   7.030   4.712   2.904  2.5932  0.8434 -0.4591
  418MOL0     H55149   7.098   4.548   2.924  0.5340  0.5878 -0.4476
  418MOL0     H55150   6.873   4.688   3.084 -0.0343 -1.2357  2.9036
  418MOL0     H55151   6.930   4.524   3.134 -1.5666  0.3318  1.2515
  418MOL0     H55152   6.865   4.440   2.920  4.1916  1.9320  2.6484
  418MOL0     H55153   6.797   4.599   2.877  2.0330 -1.4855 -1.1359
  418MOL0     H55154   6.699   4.426   3.113  0.3738 -0.5759 -0.8056
  418MOL0     H55155   6.651   4.600   3.080 -2.5450 -0.9000  0.0514
  418MOL0     H55156   6.608   4.348   2.907 -0.5702  0.2488 -1.8445
  418MOL0     H55157   6.548   4.508   2.853 -1.8983 -0.8845  0.7561
  418MOL0     H55158   7.645   4.605   3.136 -2.5313  0.5053  0.5787
  418MOL0     H55159   7.868   4.606   3.270  1.7009  1.5295  0.9419
  418MOL0     H55160   8.144   4.600   3.501 -0.5646 -0.6381  1.9497
  418MOL0     H55161   8.358   4.566   3.577  0.3406 -0.4322  2.2564
  418MOL0     H55162  10.431   4.468   4.062  2.7669 -0.4117  0.4397
  418MOL0     H55163  10.636   4.337   3.987  1.1835  2.0602  2.8112
  418MOL0     H55164  10.925   4.027   4.063 -0.0599 -0.1897 -0.8905
  418MOL0     H55165  11.135   3.961   4.004 -1.7946  1.1951  0.8197
  418MOL0     H55166  11.306   3.981   3.654  0.0018  0.0007  2.1882
  418MOL0     H55167  11.248   3.840   3.572  1.4257  0.6146 -0.1087
  418MOL0     H55168  11.472   3.864   3.787 -0.6730  0.2704  0.2535
  418MOL0     H55169  11.437   3.712   3.723 -0.0125  0.5917  0.8280
  418MOL0     H55170  11.530   3.945   3.545  1.0649 -1.1311  0.9066
  418MOL0     H55171  11.504   3.776   3.488 -0.2882 -0.2327  0.4510
  418MOL0     H55172  11.723   3.863   3.692 -0.6938 -1.8047 -0.2678
  418MOL0     H55173  11.672   3.697   3.649  2.1358 -0.5685  0.5670
  418MOL0     H55174  11.902   3.756   3.315  0.9360 -2.0496  1.2810
  418MOL0     H55175  11.007   3.841   3.614 -1.9039 -3.3980  1.1306
  418MOL0     H55176  10.786   3.951   3.664 -0.0883  0.7197  0.0211
  419MOL0     O55177   6.655   5.265   1.609 -0.6820  0.2497 -0.4606
  419MOL0     C55178   6.656   5.174   1.690  0.3003 -0.1509  0.8136
  419MOL0     O55179   6.544   5.112   1.746  0.0270  0.4838 -0.4489
  419MOL0     C55180   6.414   5.153   1.744 -0.6589  0.1093 -0.1287
  419MOL0     C55181   6.364   5.281   1.709 -0.0224  0.2834 -1.1453
  419MOL0     C55182   6.225   5.314   1.724  0.3935  0.3279 -0.4977
  419MOL0     C55183   6.136   5.214   1.775 -0.4877  0.3331 -0.7438
  419MOL0     O55184   6.002   5.238   1.786  0.5609 -0.5376 -0.2391
  419MOL0     C55185   5.939   5.361   1.732  1.2065 -0.7822 -0.2501
  419MOL0     C55186   5.792   5.355   1.768 -0.1172 -0.1701 -0.0377
  419MOL0     C55187   5.712   5.455   1.691 -1.1399  0.2053 -0.1427
  419MOL0     C55188   5.570   5.467   1.734  0.1021  0.1084  0.1516
  419MOL0     C55189   5.494   5.575   1.660 -0.7207  0.1818 -0.2302
  419MOL0     C55190   5.355   5.572   1.721  0.4150  0.3676  0.6487
  419MOL0     C55191   5.267   5.690   1.662 -0.3551 -0.0845 -0.3418
  419MOL0     C55192   5.182   5.645   1.549  0.6739  0.0985 -0.2678
  419MOL0     N55193   5.057   5.717   1.536 -0.5802  0.0690  0.3682
  419MOL0     C55194   5.040   5.840   1.474  0.0049  1.2255 -0.3115
  419MOL0     C55195   4.909   5.853   1.487  0.2056 -0.3736  0.1910
  419MOL0     C55196   4.853   5.993   1.449 -0.2801  0.6314 -0.1989
  419MOL0     C55197   4.705   6.002   1.424  0.3525 -0.3908 -0.0477
  419MOL0     C55198   4.681   5.982   1.272  0.5976 -0.1690 -0.1779
  419MOL0     C55199   4.538   5.991   1.234  0.1597  0.5290  0.7294
  419MOL0     O55200   4.540   5.952   1.091 -0.1350 -0.6890 -0.3183
  419MOL0     C55201   4.418   5.951   1.034  0.0047  0.1653  0.0598
  419MOL0     C55202   4.415   5.926   0.894 -0.9735  0.4824  0.7337
  419MOL0     C55203   4.301   5.908   0.815 -0.1257  0.3852  0.0106
  419MOL0     C55204   4.176   5.914   0.882  1.1401 -0.2141  1.1286
  419MOL0     C55205   4.043   5.903   0.810 -0.5410  0.3200  0.4126
  419MOL0     O55206   3.934   5.957   0.864 -0.5877  0.4693  0.8461
  419MOL0     C55207   3.811   5.964   0.795 -0.8098 -0.2067 -0.2193
  419MOL0     C55208   3.758   6.086   0.755 -0.9439 -0.2933  0.3632
  419MOL0     C55209   3.647   6.088   0.672 -0.4542 -0.4380  0.6241
  419MOL0     C55210   3.573   5.968   0.648 -0.5216 -0.1697 -0.0817
  419MOL0     O55211   3.462   5.958   0.564  0.2210 -0.0283 -0.7732
  419MOL0     C55212   3.419   6.070   0.485 -0.2092  0.9640 -0.1703
  419MOL0     C55213   3.298   6.022   0.400  0.1389 -0.3663  0.7778
  419MOL0     C55214   3.339   5.912   0.303  0.1494 -0.1820  0.3789
  419MOL0     C55215   3.210   5.859   0.229 -0.2207 -0.7434 -0.1342
  419MOL0     C55216   3.252   5.772   0.112 -0.0959  0.1570 -0.5327
  419MOL0     C55217   3.329   5.643   0.166  0.5224  0.4660 -0.4881
  419MOL0     C55218   3.394   5.577   0.053  0.5306 -0.1618 -0.3831
  419MOL0     C55219   3.511   5.480   0.088 -0.3826 -0.1960 -0.1759
  419MOL0    Cl55220   3.419   5.340   0.169 -0.0133  0.5092 -0.0979
  419MOL0     C55221   3.628   5.845   0.694  0.1861 -0.1219 -0.2442
  419MOL0     C55222   3.746   5.847   0.774  0.7136  0.5704 -0.3333
  419MOL0     O55223   4.046   5.831   0.711  0.1365  0.1832 -0.8981
  419MOL0     C55224   4.174   5.935   1.023  0.5868  0.0376  0.2324
  419MOL0     C55225   4.289   5.954   1.097  0.8633 -0.7333 -0.1025
  419MOL0     N55226   4.849   5.749   1.551  0.5084  0.6403 -0.5872
  419MOL0     N55227   4.945   5.661   1.571  0.2130  0.0621  0.9169
  419MOL0     C55228   6.184   5.090   1.812 -0.6427 -0.0793 -0.8219
  419MOL0     C55229   6.315   5.065   1.799 -0.1726 -0.2890 -0.3322
  419MOL0     C55230   6.792   5.133   1.736  0.3155  0.1627  0.5355
  419MOL0     C55231   6.909   5.185   1.672  0.0510  0.0192 -0.3674
  419MOL0     C55232   7.035   5.137   1.702 -0.6504  0.3005 -0.1929
  419MOL0     C55233   7.053   5.040   1.803  1.2124 -0.4642 -0.0541
  419MOL0     O55234   7.170   4.980   1.837 -0.6910 -0.1722  0.5328
  419MOL0     C55235   7.295   5.018   1.775 -0.4163 -0.4254 -0.1629
  419MOL0     C55236   7.400   4.929   1.840  0.5221  0.4963 -0.4959
  419MOL0     C55237   7.532   4.979   1.774  0.1713  0.2151 -0.2693
  419MOL0     C55238   7.655   4.887   1.806  0.4294 -0.3210  0.1635
  419MOL0     C55239   7.620   4.749   1.813  0.0618  0.0097 -0.4079
  419MOL0     C55240   7.576   4.643   1.841 -0.4071  0.4453  0.4249
  419MOL0     C55241   6.943   5.003   1.865 -0.0223  0.2415  0.1475
  419MOL0     C55242   6.806   5.034   1.835 -0.2264  0.1688 -0.9393
  419MOL0     H55243   6.428   5.365   1.685 -3.5411  3.1166 -1.4599
  419MOL0     H55244   6.184   5.413   1.707 -1.4391  0.0921  1.9454
  419MOL0     H55245   5.944   5.376   1.624  0.4773  0.6658 -0.0946
  419MOL0     H55246   5.988   5.447   1.777 -1.5026 -0.4662  2.3928
  419MOL0     H55247   5.784   5.370   1.876 -3.5858  1.6875 -0.4042
  419MOL0     H55248   5.759   5.257   1.731  5.0949 -2.3504  0.2146
  419MOL0     H55249   5.722   5.439   1.583 -1.2207 -0.0796 -0.1095
  419MOL0     H55250   5.756   5.553   1.712 -1.2002  0.3831 -0.8138
  419MOL0     H55251   5.518   5.372   1.717 -1.6878  0.7997  1.3979
  419MOL0     H55252   5.572   5.494   1.840  1.5602 -1.1070  0.4629
  419MOL0     H55253   5.503   5.560   1.552 -2.8526 -0.8751 -0.3134
  419MOL0     H55254   5.538   5.671   1.688  2.6208 -1.5150  0.9147
  419MOL0     H55255   5.359   5.584   1.830  0.7146 -0.8627  0.7793
  419MOL0     H55256   5.302   5.479   1.702 -0.3614  0.4654  2.1510
  419MOL0     H55257   5.207   5.720   1.748 -2.9305  0.2601 -2.1629
  419MOL0     H55258   5.320   5.780   1.629 -1.6635  1.8958  2.5158
  419MOL0     H55259   5.157   5.541   1.571  0.2207  0.5628  1.5841
  419MOL0     H55260   5.233   5.649   1.452  1.8286 -3.7735  0.0117
  419MOL0     H55261   5.110   5.904   1.421  0.3128  0.6023 -0.6736
  419MOL0     H55262   4.908   6.038   1.365  0.6079 -1.2931 -0.7383
  419MOL0     H55263   4.867   6.066   1.529 -2.0304  1.5671 -0.7095
  419MOL0     H55264   4.679   6.105   1.453 -0.5254 -0.5060 -0.3692
  419MOL0     H55265   4.650   5.928   1.482 -0.0498 -1.7441 -2.0421
  419MOL0     H55266   4.739   6.053   1.213 -1.1228  2.1110  0.7458
  419MOL0     H55267   4.723   5.881   1.261  1.9159 -0.6132  5.6435
  419MOL0     H55268   4.491   6.089   1.246 -2.3446  0.2514 -4.0040
  419MOL0     H55269   4.470   5.928   1.292 -1.0107  2.0966  1.1161
  419MOL0     H55270   4.507   5.913   0.840 -0.9864  1.1414  0.5499
  419MOL0     H55271   4.315   5.912   0.708 -1.6555  1.9448 -0.1803
  419MOL0     H55272   3.809   6.182   0.765 -2.9731  1.0326 -1.2512
  419MOL0     H55273   3.611   6.184   0.634  4.3040  1.6067  0.5457
  419MOL0     H55274   3.504   6.104   0.426  2.0654 -2.4696  0.8390
  419MOL0     H55275   3.370   6.144   0.549 -5.1444 -2.6193  0.8549
  419MOL0     H55276   3.252   6.102   0.342  1.0581 -0.1116  0.3802
  419MOL0     H55277   3.215   5.977   0.455  1.0935 -2.0984  0.8899
  419MOL0     H55278   3.389   5.834   0.361 -1.0153  1.6009  4.0913
  419MOL0     H55279   3.407   5.958   0.231  0.9822 -0.6912  0.8217
  419MOL0     H55280   3.157   5.808   0.310 -2.3056  3.3999  1.3709
  419MOL0     H55281   3.148   5.943   0.196  0.6669 -1.1924 -3.3561
  419MOL0     H55282   3.317   5.834   0.050 -0.0825  0.5022 -0.1835
  419MOL0     H55283   3.156   5.745   0.066 -0.6808  0.2781  0.5710
  419MOL0     H55284   3.257   5.580   0.219  2.4429 -1.9083 -0.5672
  419MOL0     H55285   3.401   5.664   0.245 -1.1215  2.4082  0.5871
  419MOL0     H55286   3.315   5.520   0.003  0.9701 -0.0186 -1.2596
  419MOL0     H55287   3.437   5.649  -0.016  1.1891 -1.7409 -1.7003
  419MOL0     H55288   3.576   5.527   0.162  1.3308 -0.6555 -1.3499
  419MOL0     H55289   3.577   5.465   0.003  2.5890 -1.8976  2.2138
  419MOL0     H55290   3.565   5.760   0.672 -0.1505 -0.2232  1.0056
  419MOL0     H55291   3.781   5.753   0.817 -1.9780 -0.4063 -0.1071
  419MOL0     H55292   4.083   5.939   1.083  2.9898  0.8184  4.2122
  419MOL0     H55293   4.282   5.972   1.204 -0.0510  1.5215 -0.4783
  419MOL0     H55294   6.121   5.019   1.863  1.6368 -0.9692  0.9395
  419MOL0     H55295   6.337   4.970   1.848 -2.4569 -0.1698  1.0941
  419MOL0     H55296   6.900   5.258   1.592  1.3973  1.1451  0.4612
  419MOL0     H55297   7.122   5.180   1.654  1.3353 -1.7274  1.3597
  419MOL0     H55298   7.323   5.118   1.808  1.7156 -1.3484  1.0787
  419MOL0     H55299   7.287   5.012   1.666 -0.3467 -0.4461 -0.1670
  419MOL0     H55300   7.400   4.960   1.945  0.4143  3.3226 -1.2480
  419MOL0     H55301   7.365   4.826   1.825 -2.2794  1.1593  0.8887
  419MOL0     H55302   7.552   5.082   1.806  1.8410 -0.3623  0.7202
  419MOL0     H55303   7.526   4.979   1.665 -0.4375  1.4739 -0.2532
  419MOL0     H55304   7.746   4.903   1.747  1.2786 -2.3994  0.8390
  419MOL0     H55305   7.677   4.912   1.911 -1.4808 -1.0901  0.7816
  419MOL0     H55306   7.528   4.554   1.876 -2.1446  1.4329  0.6677
  419MOL0     H55307   6.950   4.937   1.951 -2.5750  0.4807  0.6072
  419MOL0     H55308   6.723   4.993   1.890  0.0694  1.9015  0.9188
  420MOL0     O55309   9.016   6.476   9.562  0.1313 -0.1275 -1.5395
  420MOL0     C55310   9.020   6.508   9.444  1.1474  0.9911  0.1202
  420MOL0     O55311   8.907   6.553   9.382 -0.4624 -0.0047 -0.1630
  420MOL0     C55312   8.794   6.561   9.454 -0.2033  0.5766  0.2219
  420MOL0     C55313   8.780   6.656   9.556  0.2257  0.0330 -0.7080
  420MOL0     C55314   8.652   6.680   9.615 -0.5589 -0.2000  0.0990
  420MOL0     C55315   8.544   6.607   9.574  0.9218  0.5040 -0.8576
  420MOL0     O55316   8.427   6.627   9.648  0.2932 -0.8506 -0.1816
  420MOL0     C55317   8.303   6.651   9.563 -0.6940 -0.2386 -0.9001
  420MOL0     C55318   8.187   6.672   9.662  0.2278 -0.1959 -0.2858
  420MOL0     C55319   8.165   6.529   9.738 -0.7690  0.1724  0.0335
  420MOL0     C55320   8.070   6.552   9.856 -0.2408  0.3358  1.1339
  420MOL0     C55321   7.927   6.607   9.811  0.1034  0.2382  0.3780
  420MOL0     C55322   7.823   6.593   9.916  0.3027  0.3862 -0.3845
  420MOL0     C55323   7.688   6.639   9.881  0.2534  0.3089 -0.5929
  420MOL0     C55324   7.606   6.648  10.012  0.0093  0.0352  0.7987
  420MOL0     N55325   7.488   6.742   9.987  0.0410  0.2302 -0.4882
  420MOL0     C55326   7.489   6.859   9.923 -0.0660 -0.8236  0.9641
  420MOL0     C55327   7.365   6.913   9.943  0.7274  0.0743  0.4247
  420MOL0     C55328   7.315   7.031   9.872  0.9061 -0.8243  0.3807
  420MOL0     C55329   7.167   7.018   9.832  0.2505  0.4448  0.5262
  420MOL0     C55330   7.155   7.005   9.680 -0.4607  0.3618 -0.0103
  420MOL0     C55331   7.016   6.955   9.640  0.2111 -0.1667 -0.0551
  420MOL0     O55332   6.914   7.043   9.693 -0.6400 -0.1532 -0.0353
  420MOL0     C55333   6.799   7.026   9.626 -0.2723  1.1556 -0.2801
  420MOL0     C55334   6.739   6.901   9.593 -1.1676  0.4770 -0.2624
  420MOL0     C55335   6.614   6.904   9.530 -0.6729  0.1387  0.0920
  420MOL0     C55336   6.535   7.026   9.519 -0.0447 -0.0882  0.6055
  420MOL0     C55337   6.391   7.025   9.480 -0.0340  0.0547 -0.1512
  420MOL0     O55338   6.329   7.145   9.457  0.2964  0.2272 -0.8066
  420MOL0     C55339   6.214   7.150   9.382 -0.2254 -0.5230  0.4083
  420MOL0     C55340   6.092   7.185   9.440  0.7574  0.7878 -0.6391
  420MOL0     C55341   5.971   7.184   9.366 -0.4283  1.2545 -0.2366
  420MOL0     C55342   5.974   7.142   9.233 -0.1149 -0.0412 -0.0003
  420MOL0     O55343   5.860   7.117   9.165  0.4797 -0.2343  0.5737
  420MOL0     C55344   5.737   7.179   9.195 -0.7080  0.7097 -0.3232
  420MOL0     C55345   5.753   7.331   9.169  0.2253 -0.8578 -0.4728
  420MOL0     C55346   5.628   7.401   9.229 -0.9912  0.1684  0.0339
  420MOL0     C55347   5.536   7.419   9.109  0.8805  0.7022 -0.2257
  420MOL0     C55348   5.405   7.487   9.145  0.5755 -0.4548  0.2887
  420MOL0     C55349   5.294   7.474   9.031 -0.9745  0.2805 -0.0716
  420MOL0     C55350   5.159   7.506   9.093 -0.8881 -0.1927 -0.7502
  420MOL0     C55351   5.044   7.456   8.998 -0.5235  0.1044  0.1942
  420MOL0    Cl55352   5.007   7.588   8.871  0.3084 -0.2481  0.2102
  420MOL0     C55353   6.097   7.121   9.169 -0.8024 -0.1047  0.8801
  420MOL0     C55354   6.211   7.127   9.248  0.3013  0.0595  0.2411
  420MOL0     O55355   6.335   6.914   9.472 -0.3313 -0.2410 -0.5052
  420MOL0     C55356   6.596   7.143   9.568 -0.5661  0.3529 -0.2441
  420MOL0     C55357   6.730   7.138   9.612 -0.3454  0.4487  0.7010
  420MOL0     N55358   7.301   6.834  10.033  0.0267  0.5605 -0.3488
  420MOL0     N55359   7.374   6.729  10.055 -0.4570  0.3418  0.5615
  420MOL0     C55360   8.563   6.506   9.477  0.1584 -0.8447 -0.6262
  420MOL0     C55361   8.678   6.488   9.416 -0.3415  0.5497  0.5232
  420MOL0     C55362   9.151   6.495   9.374 -0.7052 -0.1432 -1.5886
  420MOL0     C55363   9.268   6.454   9.444 -0.7530  0.6664  0.0189
  420MOL0     C55364   9.392   6.453   9.375 -0.0013  0.2899 -0.2996
  420MOL0     C55365   9.402   6.505   9.243 -0.6599 -0.3014 -0.9637
  420MOL0     O55366   9.525   6.491   9.185 -0.4485 -0.4628  0.1311
  420MOL0     C55367   9.567   6.576   9.081 -0.3393  0.2368 -0.5196
  420MOL0     C55368   9.710   6.550   9.040  0.6716  0.1892  0.5494
  420MOL0     C55369   9.802   6.561   9.160  0.4834  0.5664  0.3572
  420MOL0     C55370   9.822   6.425   9.227 -0.0013 -0.3948 -0.2555
  420MOL0     C55371   9.967   6.394   9.223  0.2679 -0.1022 -0.6479
  420MOL0     C55372  10.087   6.381   9.235 -0.4356  0.1202 -0.0725
  420MOL0     C55373   9.292   6.571   9.188  0.3856 -0.0879  0.5771
  420MOL0     C55374   9.170   6.571   9.254  0.7982  0.5096 -0.0940
  420MOL0     H55375   8.857   6.727   9.584 -0.5190  1.2029 -1.5004
  420MOL0     H55376   8.642   6.758   9.689  1.1813 -1.0967  1.3424
  420MOL0     H55377   8.278   6.569   9.496 -1.8060  0.5875 -1.5284
  420MOL0     H55378   8.307   6.739   9.498 -2.3768  0.2254 -0.4422
  420MOL0     H55379   8.097   6.704   9.609 -1.5003  0.7000  2.9557
  420MOL0     H55380   8.198   6.755   9.733 -1.1394  0.4127 -0.7522
  420MOL0     H55381   8.265   6.494   9.766 -0.1591  3.7193  2.9804
  420MOL0     H55382   8.126   6.453   9.670  2.1491 -0.4189 -1.1034
  420MOL0     H55383   8.052   6.452   9.895 -1.6730  0.4460  0.7996
  420MOL0     H55384   8.116   6.622   9.927  1.1360 -1.6188  2.2775
  420MOL0     H55385   7.896   6.542   9.729  1.6156 -1.5132  1.1230
  420MOL0     H55386   7.927   6.715   9.789  2.1271  0.5788  1.7884
  420MOL0     H55387   7.873   6.647   9.996  1.4697 -1.0062 -0.1491
  420MOL0     H55388   7.821   6.486   9.937 -0.3109  0.6047  0.7524
  420MOL0     H55389   7.696   6.740   9.841  1.2403  0.2854 -0.4763
  420MOL0     H55390   7.650   6.566   9.808 -1.7906 -0.6369  1.2846
  420MOL0     H55391   7.661   6.688  10.097  0.3567 -0.7132  0.9395
  420MOL0     H55392   7.566   6.551  10.043 -1.7773  0.6172  0.4297
  420MOL0     H55393   7.559   6.910   9.858 -0.2836 -0.1933  1.2228
  420MOL0     H55394   7.381   7.054   9.788  0.7370  2.0484  0.9362
  420MOL0     H55395   7.333   7.105   9.950  3.8797 -4.1313  3.1992
  420MOL0     H55396   7.116   7.110   9.860  0.5178  0.8861 -0.3955
  420MOL0     H55397   7.117   6.930   9.873  2.4709 -0.9515  0.4291
  420MOL0     H55398   7.184   7.091   9.620  0.4978 -2.5636 -4.1812
  420MOL0     H55399   7.228   6.930   9.648  1.0547  2.4460 -1.7248
  420MOL0     H55400   7.012   6.856   9.687 -0.5170  0.1120  0.4933
  420MOL0     H55401   6.997   6.943   9.533  0.1279 -0.1439 -0.0432
  420MOL0     H55402   6.796   6.812   9.619 -1.6898  0.0845 -0.4548
  420MOL0     H55403   6.563   6.818   9.488  1.9063 -0.3095 -2.4277
  420MOL0     H55404   6.082   7.206   9.546 -0.2649 -0.0320 -0.5469
  420MOL0     H55405   5.888   7.201   9.434 -0.7248 -1.2881  0.1628
  420MOL0     H55406   5.717   7.164   9.301  4.0558 -2.6255  0.4194
  420MOL0     H55407   5.656   7.123   9.147 -0.3163  0.3058 -0.5173
  420MOL0     H55408   5.778   7.366   9.068  1.1913 -0.5606 -0.1366
  420MOL0     H55409   5.826   7.383   9.231 -0.0665 -0.7949 -0.1765
  420MOL0     H55410   5.654   7.492   9.285  2.0289 -1.6725  1.9099
  420MOL0     H55411   5.585   7.338   9.307 -0.7625  0.3931  0.3409
  420MOL0     H55412   5.590   7.478   9.034 -0.1268  2.9443  0.7422
  420MOL0     H55413   5.508   7.319   9.075  1.1901  0.0039  1.4542
  420MOL0     H55414   5.427   7.592   9.168 -0.8338 -0.2462  0.7678
  420MOL0     H55415   5.368   7.441   9.237  0.9338 -0.0973  0.6218
  420MOL0     H55416   5.295   7.367   9.007  0.2006  0.5972 -1.5659
  420MOL0     H55417   5.323   7.542   8.951  1.4048  1.4008  1.6165
  420MOL0     H55418   5.143   7.463   9.192 -0.6469 -2.8312 -1.7795
  420MOL0     H55419   5.151   7.613   9.111 -1.0880 -0.2818 -0.3137
  420MOL0     H55420   4.954   7.427   9.054  1.8022 -0.5214  3.9849
  420MOL0     H55421   5.084   7.374   8.937  1.3807  1.1896 -0.0885
  420MOL0     H55422   6.094   7.083   9.067  0.9229 -0.3130  0.8834
  420MOL0     H55423   6.304   7.105   9.197  0.9567  2.9736 -0.0138
  420MOL0     H55424   6.542   7.238   9.569  0.8466  1.2015  1.8096
  420MOL0     H55425   6.771   7.235   9.637 -2.4740  1.2052  1.4694
  420MOL0     H55426   8.474   6.454   9.445  0.0322  0.1792 -2.0306
  420MOL0     H55427   8.708   6.425   9.333 -0.6793 -1.3947  1.8152
  420MOL0     H55428   9.259   6.426   9.548 -0.5657 -0.0956 -0.1647
  420MOL0     H55429   9.483   6.420   9.423 -0.0420 -0.5147 -0.7626
  420MOL0     H55430   9.569   6.683   9.104  4.3327  0.7859 -2.3031
  420MOL0     H55431   9.495   6.570   8.999 -0.7702  1.6145 -0.2652
  420MOL0     H55432   9.728   6.453   8.992  2.1136  1.1671 -0.9794
  420MOL0     H55433   9.747   6.626   8.972  2.5333 -3.1170 -2.4823
  420MOL0     H55434   9.769   6.643   9.225 -0.5855  1.4420 -1.2131
  420MOL0     H55435   9.895   6.595   9.114  0.0355 -1.8813 -2.6769
  420MOL0     H55436   9.794   6.426   9.332 -0.6107  0.4781 -0.4162
  420MOL0     H55437   9.763   6.346   9.180  2.3809 -0.4105 -3.5793
  420MOL0     H55438  10.194   6.375   9.240 -0.2770  2.4047  0.4692
  420MOL0     H55439   9.304   6.614   9.089  0.8506 -0.2331  0.5655
  420MOL0     H55440   9.085   6.623   9.211 -0.1876 -0.5052  0.5598
  421MOL0     O55441   5.803   8.773   7.031 -0.2958 -0.0459 -0.0934
  421MOL0     C55442   5.831   8.872   7.101 -0.3042 -1.1428  0.5870
  421MOL0     O55443   5.757   8.912   7.208 -0.1264 -0.6795 -0.2175
  421MOL0     C55444   5.644   8.850   7.246 -0.4796 -0.1858 -0.2278
  421MOL0     C55445   5.651   8.758   7.351 -0.0913 -0.5221 -0.2092
  421MOL0     C55446   5.532   8.693   7.398 -0.3129  0.0946  1.2264
  421MOL0     C55447   5.414   8.703   7.323 -0.0506 -0.7638 -0.1893
  421MOL0     O55448   5.301   8.650   7.374  0.3402 -0.5706 -0.2087
  421MOL0     C55449   5.257   8.707   7.495  0.1485 -0.0419 -0.0249
  421MOL0     C55450   5.119   8.776   7.486 -0.0296  0.0778  0.2945
  421MOL0     C55451   5.012   8.680   7.477 -0.5297  0.4006 -0.0424
  421MOL0     C55452   4.869   8.749   7.493 -0.3746 -0.1062  0.3140
  421MOL0     C55453   4.744   8.651   7.509  0.3408 -0.2308 -0.4776
  421MOL0     C55454   4.611   8.717   7.496  0.1340 -0.2358  0.6916
  421MOL0     C55455   4.490   8.632   7.498 -0.1921 -1.5227 -0.3838
  421MOL0     C55456   4.364   8.718   7.503  1.2921 -0.5233 -0.1340
  421MOL0     N55457   4.244   8.625   7.521 -0.1304  0.1727  0.4082
  421MOL0     C55458   4.198   8.525   7.437  0.4522 -0.8271 -0.5097
  421MOL0     C55459   4.102   8.458   7.505 -0.2576 -0.3907 -0.7456
  421MOL0     C55460   4.017   8.349   7.450  0.8890 -1.2017 -0.0386
  421MOL0     C55461   3.879   8.402   7.437 -0.3855 -0.1401 -0.7162
  421MOL0     C55462   3.800   8.290   7.372 -0.3666  1.1614  0.9545
  421MOL0     C55463   3.651   8.325   7.373  0.1496  0.1825  0.7790
  421MOL0     O55464   3.592   8.223   7.285 -0.6712 -0.0758 -0.0263
  421MOL0     C55465   3.455   8.216   7.255  0.5239 -0.3485  0.2089
  421MOL0     C55466   3.345   8.287   7.308 -0.3931 -1.0657  0.0984
  421MOL0     C55467   3.218   8.293   7.251  1.1631  0.5920 -0.0522
  421MOL0     C55468   3.189   8.211   7.140 -0.2076  0.6158 -0.1325
  421MOL0     C55469   3.057   8.213   7.070  1.5315 -0.5927  0.5006
  421MOL0     O55470   2.953   8.287   7.126 -0.6190 -0.5809 -0.3884
  421MOL0     C55471   2.835   8.302   7.054  0.0864 -0.1106 -0.3766
  421MOL0     C55472   2.728   8.243   7.104  0.4210  0.2576  0.9119
  421MOL0     C55473   2.603   8.261   7.029 -0.9188 -0.5900  0.2601
  421MOL0     C55474   2.602   8.343   6.916 -0.6141 -0.3544 -0.2877
  421MOL0     O55475   2.486   8.339   6.842  0.1889 -0.3017  0.2595
  421MOL0     C55476   2.454   8.455   6.761  0.2512 -0.0955 -0.4878
  421MOL0     C55477   2.324   8.456   6.693  0.8161  0.3241  0.1613
  421MOL0     C55478   2.290   8.323   6.620  0.2115 -0.2780 -0.3701
  421MOL0     C55479   2.407   8.287   6.525 -0.6602  0.5567  0.1407
  421MOL0     C55480   2.386   8.173   6.432 -0.0097  0.6116  0.5319
  421MOL0     C55481   2.397   8.036   6.507 -0.5825  0.8028  0.4475
  421MOL0     C55482   2.388   7.918   6.412 -0.2896  0.0409 -0.0128
  421MOL0     C55483   2.437   7.778   6.468  0.1177  0.7314  1.0852
  421MOL0    Cl55484   2.352   7.642   6.382 -0.1246 -0.0392 -0.3584
  421MOL0     C55485   2.719   8.414   6.881  0.1433 -0.0649 -0.8216
  421MOL0     C55486   2.840   8.399   6.952  0.8239 -1.2858  0.2565
  421MOL0     O55487   3.049   8.140   6.972 -0.2247  0.7266  0.3214
  421MOL0     C55488   3.292   8.131   7.086 -0.5326  0.2451  0.5065
  421MOL0     C55489   3.427   8.134   7.143  0.1178 -0.1853 -0.4565
  421MOL0     N55490   4.089   8.524   7.629 -0.4593 -0.0024  0.1240
  421MOL0     N55491   4.184   8.614   7.642  0.0902 -0.0691  0.4551
  421MOL0     C55492   5.408   8.789   7.214 -0.3727 -0.8832  0.3849
  421MOL0     C55493   5.525   8.870   7.186  0.4410  0.0963  0.4600
  421MOL0     C55494   5.951   8.937   7.047  0.4787  0.2366  0.2318
  421MOL0     C55495   5.983   9.071   7.079  0.6506  0.1654  0.3074
  421MOL0     C55496   6.090   9.137   7.022 -0.5007  0.6522 -0.4251
  421MOL0     C55497   6.188   9.060   6.952  0.5746  0.2469  0.1822
  421MOL0     O55498   6.309   9.104   6.915 -0.0955  0.8449 -0.2807
  421MOL0     C55499   6.325   9.244   6.913  0.6584 -0.0520  0.8054
  421MOL0     C55500   6.459   9.278   6.856  0.0299  0.8183 -0.0583
  421MOL0     C55501   6.570   9.238   6.967  0.2370 -0.1228  0.5212
  421MOL0     C55502   6.640   9.115   6.915 -0.0656  1.0194 -0.3441
  421MOL0     C55503   6.762   9.105   6.994 -0.5067  1.0387 -0.1501
  421MOL0     C55504   6.861   9.118   7.063  0.4983 -0.0783 -0.2887
  421MOL0     C55505   6.161   8.928   6.924  0.5475 -0.4524  0.3459
  421MOL0     C55506   6.036   8.870   6.961 -0.7716 -0.6159  0.3193
  421MOL0     H55507   5.746   8.742   7.399 -0.3449  1.8744  1.2694
  421MOL0     H55508   5.518   8.631   7.485 -0.7596 -1.0774  0.3406
  421MOL0     H55509   5.312   8.793   7.534 -2.7237  0.1863  4.2381
  421MOL0     H55510   5.259   8.624   7.566 -0.7562 -1.3450 -1.4644
  421MOL0     H55511   5.117   8.831   7.391  1.5700 -1.0813 -0.4575
  421MOL0     H55512   5.097   8.836   7.574 -2.4507 -0.5808  0.2086
  421MOL0     H55513   5.013   8.615   7.565 -1.7895  2.0387  1.2682
  421MOL0     H55514   5.011   8.626   7.382 -0.1181 -1.0587  0.7512
  421MOL0     H55515   4.877   8.807   7.585  1.4606 -1.0147  0.7686
  421MOL0     H55516   4.857   8.809   7.403 -0.0958  0.3049  0.5502
  421MOL0     H55517   4.753   8.595   7.603  1.8140 -0.0279 -0.4657
  421MOL0     H55518   4.758   8.569   7.438 -1.5284  0.2731 -1.4871
  421MOL0     H55519   4.604   8.783   7.408 -0.0351 -0.5563  0.4637
  421MOL0     H55520   4.610   8.783   7.583 -0.3713  0.1937  0.3654
  421MOL0     H55521   4.510   8.563   7.415  2.5792 -0.5277 -0.6579
  421MOL0     H55522   4.503   8.579   7.594 -0.1783 -0.7534  0.0451
  421MOL0     H55523   4.352   8.782   7.415 -0.2345  2.1819  1.8966
  421MOL0     H55524   4.368   8.782   7.591 -1.4286 -1.9653  1.1516
  421MOL0     H55525   4.237   8.496   7.340  2.0960 -1.0331  0.1922
  421MOL0     H55526   4.018   8.267   7.522  0.0668 -0.4749  0.8347
  421MOL0     H55527   4.053   8.325   7.350  0.4199 -1.3643 -0.1713
  421MOL0     H55528   3.870   8.497   7.384  0.6355  0.4542  0.1228
  421MOL0     H55529   3.826   8.409   7.532 -3.9297 -1.4988 -2.4116
  421MOL0     H55530   3.838   8.258   7.275 -1.3291  1.8336  0.3331
  421MOL0     H55531   3.816   8.202   7.434  1.5680  0.0328 -1.0066
  421MOL0     H55532   3.631   8.422   7.326  1.7043  0.2251  0.1563
  421MOL0     H55533   3.614   8.323   7.476  1.4028 -0.3889  1.2319
  421MOL0     H55534   3.351   8.360   7.389  2.5010  0.1749 -1.0773
  421MOL0     H55535   3.138   8.360   7.282  0.7798  0.1428 -0.0526
  421MOL0     H55536   2.729   8.180   7.193  0.5903 -2.9887 -1.2313
  421MOL0     H55537   2.524   8.200   7.073 -1.5900 -0.0220 -0.1286
  421MOL0     H55538   2.540   8.450   6.693  1.4589 -1.5668  1.0470
  421MOL0     H55539   2.464   8.541   6.827 -0.8217 -0.9660  0.8570
  421MOL0     H55540   2.316   8.549   6.636  0.6944  0.9642  1.2028
  421MOL0     H55541   2.254   8.464   6.776 -1.1877  1.4822 -1.5402
  421MOL0     H55542   2.197   8.345   6.566 -1.0940 -3.9661  0.0979
  421MOL0     H55543   2.257   8.243   6.687  1.9020 -1.2995 -0.6958
  421MOL0     H55544   2.425   8.373   6.460 -0.7019  1.7361  1.6203
  421MOL0     H55545   2.501   8.274   6.580  0.0636  5.1598  0.4355
  421MOL0     H55546   2.454   8.172   6.347 -0.3153 -0.7191  0.2785
  421MOL0     H55547   2.282   8.174   6.400  0.4478  1.2008 -1.0261
  421MOL0     H55548   2.315   8.026   6.579  0.6687 -2.7151  1.6152
  421MOL0     H55549   2.494   8.035   6.557 -0.4501  2.9634  0.3242
  421MOL0     H55550   2.280   7.909   6.397 -0.7090  2.1390  1.2413
  421MOL0     H55551   2.442   7.944   6.321 -0.7073  0.9142 -0.0194
  421MOL0     H55552   2.404   7.770   6.572  0.5359  2.6867  1.3965
  421MOL0     H55553   2.546   7.765   6.466 -0.1253 -1.7067 -0.3056
  421MOL0     H55554   2.722   8.488   6.801  1.7289  2.3244  1.2872
  421MOL0     H55555   2.932   8.450   6.929 -0.3876 -0.4174 -3.3524
  421MOL0     H55556   3.278   8.070   6.998 -1.0273  1.0193  0.0293
  421MOL0     H55557   3.519   8.091   7.105  1.3946  0.8221  1.3675
  421MOL0     H55558   5.316   8.798   7.158  0.7957  1.0085 -1.3993
  421MOL0     H55559   5.526   8.949   7.111 -0.7965  1.7842  2.1199
  421MOL0     H55560   5.916   9.129   7.142  3.4728  4.2564  0.0064
  421MOL0     H55561   6.098   9.244   7.034 -0.5878  0.8485 -1.8928
  421MOL0     H55562   6.322   9.280   7.016 -0.1961  1.5898  0.2371
  421MOL0     H55563   6.249   9.305   6.864  0.4951  1.3569  2.6900
  421MOL0     H55564   6.478   9.240   6.755 -1.7793 -0.5071  0.0654
  421MOL0     H55565   6.465   9.388   6.850  1.2342  0.7777  0.1967
  421MOL0     H55566   6.541   9.211   7.069 -1.5826 -1.0221 -0.1929
  421MOL0     H55567   6.625   9.332   6.981 -0.2004  0.2271 -0.0981
  421MOL0     H55568   6.591   9.018   6.923  2.6040 -0.3854 -0.1552
  421MOL0     H55569   6.653   9.117   6.807 -2.0214  0.0839 -0.6303
  421MOL0     H55570   6.950   9.116   7.123 -0.0422 -1.6547  0.5376
  421MOL0     H55571   6.229   8.862   6.871  1.4418 -0.5767  1.6001
  421MOL0     H55572   6.026   8.768   6.926  1.9122 -1.5668  1.9783
  422MOL0     O55573   9.440   2.104   8.153  1.2199  0.3230  0.1848
  422MOL0     C55574   9.459   2.151   8.047  0.0901  0.5051 -0.2783
  422MOL0     O55575   9.365   2.197   7.964 -0.4500 -0.3937 -0.1826
  422MOL0     C55576   9.243   2.212   8.019  0.6727  1.0869 -0.5607
  422MOL0     C55577   9.205   2.301   8.113 -0.8574  0.1212 -0.0313
  422MOL0     C55578   9.076   2.309   8.170 -0.6937 -0.9755  0.4024
  422MOL0     C55579   8.971   2.232   8.108 -0.4966 -0.1724  0.9493
  422MOL0     O55580   8.843   2.230   8.150  0.3490 -0.0910 -0.1235
  422MOL0     C55581   8.775   2.352   8.149  0.2086  0.0070  0.6851
  422MOL0     C55582   8.729   2.403   8.019  0.1165 -0.3493  0.8699
  422MOL0     C55583   8.592   2.343   7.986  0.0657 -0.2354 -0.0218
  422MOL0     C55584   8.483   2.452   7.997 -0.5783  0.0405  0.3547
  422MOL0     C55585   8.338   2.397   7.996  0.0599  0.0880  0.5923
  422MOL0     C55586   8.306   2.300   8.114 -0.2327  0.6546  0.8657
  422MOL0     C55587   8.150   2.294   8.138 -0.0721 -0.4567  0.0065
  422MOL0     C55588   8.075   2.257   8.016  0.3659 -0.0304  0.4115
  422MOL0     N55589   7.930   2.267   8.035 -0.8976  0.3742  0.3600
  422MOL0     C55590   7.846   2.373   8.004 -0.5345 -0.1511 -0.3381
  422MOL0     C55591   7.726   2.324   8.038 -0.3809 -0.3281 -0.6116
  422MOL0     C55592   7.596   2.371   8.001  0.0471 -0.6374  0.9006
  422MOL0     C55593   7.570   2.341   7.853 -0.2661 -0.2209 -0.1890
  422MOL0     C55594   7.425   2.362   7.810  0.0455 -0.4534 -0.6458
  422MOL0     C55595   7.401   2.314   7.668 -0.0215 -0.2029  1.6596
  422MOL0     O55596   7.274   2.368   7.619 -0.3957 -0.0294 -0.3231
  422MOL0     C55597   7.169   2.286   7.646  0.4125 -0.0090  0.1381
  422MOL0     C55598   7.044   2.346   7.641  0.7600  0.6164 -0.5041
  422MOL0     C55599   6.925   2.272   7.657  0.0751 -0.3229  0.1069
  422MOL0     C55600   6.930   2.131   7.665  1.2931 -0.2530 -0.0215
  422MOL0     C55601   6.807   2.049   7.659 -0.2800  0.1340  1.0327
  422MOL0     O55602   6.826   1.916   7.662  0.9762  1.0653 -0.1215
  422MOL0     C55603   6.718   1.836   7.687 -0.0198 -0.4086  0.1302
  422MOL0     C55604   6.636   1.788   7.589 -0.0167 -0.1824  0.1027
  422MOL0     C55605   6.519   1.721   7.612  0.1474  0.7417 -0.4299
  422MOL0     C55606   6.476   1.702   7.738 -0.2225  0.7413  0.5615
  422MOL0     O55607   6.367   1.632   7.762  0.6145  0.1097 -0.0967
  422MOL0     C55608   6.277   1.685   7.867  0.0508  0.4314 -0.3306
  422MOL0     C55609   6.143   1.609   7.861 -0.4331 -0.8925  0.6687
  422MOL0     C55610   6.072   1.636   7.719  0.3642  0.6408 -0.1103
  422MOL0     C55611   5.920   1.594   7.721  0.0109  0.6835 -0.5980
  422MOL0     C55612   5.886   1.478   7.819  0.7336  0.3380  0.2313
  422MOL0     C55613   5.736   1.442   7.808  0.5982 -0.2047  0.4129
  422MOL0     C55614   5.717   1.317   7.883  0.2711 -0.5044  0.1318
  422MOL0     C55615   5.569   1.269   7.883 -0.6286 -0.5750  0.5188
  422MOL0    Cl55616   5.502   1.235   7.712 -0.4389  0.5407  0.2866
  422MOL0     C55617   6.559   1.748   7.843 -0.4637  0.6430  0.9563
  422MOL0     C55618   6.683   1.814   7.818 -0.4143  0.5792 -0.0127
  422MOL0     O55619   6.703   2.109   7.632 -0.3782 -0.0245  1.3316
  422MOL0     C55620   7.053   2.071   7.662  0.5845 -0.0923  0.2077
  422MOL0     C55621   7.168   2.147   7.653 -0.6808  0.2678  0.2027
  422MOL0     N55622   7.736   2.195   8.087  0.5579 -0.6224  0.1625
  422MOL0     N55623   7.859   2.161   8.076 -0.5126 -0.2975  0.4788
  422MOL0     C55624   9.006   2.138   8.009  0.0520  0.2011 -0.2097
  422MOL0     C55625   9.141   2.128   7.970  0.5745  0.1372 -0.6526
  422MOL0     C55626   9.592   2.144   7.995 -0.1800 -0.6438  0.0694
  422MOL0     C55627   9.695   2.107   8.078  0.4726 -0.0953 -0.2755
  422MOL0     C55628   9.828   2.115   8.039 -0.1236 -0.5110 -1.0236
  422MOL0     C55629   9.862   2.152   7.903 -0.0188 -0.0064  0.1390
  422MOL0     O55630  10.002   2.145   7.870  0.8799 -0.0041  0.1233
  422MOL0     C55631  10.028   2.167   7.727  0.1103  0.1872  0.5100
  422MOL0     C55632  10.175   2.177   7.702  0.7136 -1.1325 -0.7388
  422MOL0     C55633  10.202   2.230   7.564 -0.2746  0.4302  0.6134
  422MOL0     C55634  10.344   2.200   7.524 -0.3465  0.4006 -0.1035
  422MOL0     C55635  10.438   2.265   7.619  0.1844 -0.3992 -0.5522
  422MOL0     C55636  10.510   2.317   7.701  0.5961 -0.7696  0.6270
  422MOL0     C55637   9.757   2.176   7.814 -0.8211 -0.5903 -0.1707
  422MOL0     C55638   9.626   2.173   7.865 -1.2926 -0.4896  0.4534
  422MOL0     H55639   9.277   2.363   8.166 -2.3763  1.2324  0.8064
  422MOL0     H55640   9.054   2.379   8.249 -3.0865  1.0739 -1.8764
  422MOL0     H55641   8.829   2.434   8.198  1.5027 -1.5245  1.9194
  422MOL0     H55642   8.691   2.339   8.218 -0.5550 -1.5531 -0.4863
  422MOL0     H55643   8.799   2.386   7.937  1.0600  0.2459  1.5399
  422MOL0     H55644   8.732   2.512   8.029  4.2198 -0.4125  2.1593
  422MOL0     H55645   8.576   2.252   8.045  1.0023 -0.7418 -0.5157
  422MOL0     H55646   8.602   2.312   7.882  1.6281  3.8339 -1.3103
  422MOL0     H55647   8.501   2.497   8.095  0.2921  0.1614  0.1508
  422MOL0     H55648   8.501   2.531   7.923 -0.9159 -0.7023 -0.5374
  422MOL0     H55649   8.325   2.350   7.898 -0.1644 -1.9427  1.5573
  422MOL0     H55650   8.272   2.483   8.009 -1.1420 -0.3640 -1.8066
  422MOL0     H55651   8.353   2.327   8.209 -1.3895  2.8864  0.8641
  422MOL0     H55652   8.336   2.197   8.093 -1.1268  0.5120  0.2415
  422MOL0     H55653   8.133   2.221   8.218  1.5093  1.4274  2.1933
  422MOL0     H55654   8.113   2.384   8.187 -1.9912 -2.2336  2.0533
  422MOL0     H55655   8.097   2.156   7.980  0.6824 -0.5136  1.9055
  422MOL0     H55656   8.103   2.328   7.937 -1.2011  1.2459  0.9443
  422MOL0     H55657   7.868   2.460   7.944 -1.2849 -1.4034 -2.5546
  422MOL0     H55658   7.573   2.473   8.032 -2.4383 -0.3935 -1.4340
  422MOL0     H55659   7.525   2.314   8.062 -2.2196  0.7829 -0.3118
  422MOL0     H55660   7.607   2.240   7.833  0.3445 -0.9776  3.9030
  422MOL0     H55661   7.641   2.408   7.802  0.0355  0.6719  1.3152
  422MOL0     H55662   7.360   2.309   7.880 -0.1793 -0.8300 -1.1377
  422MOL0     H55663   7.408   2.470   7.819 -1.1898 -0.7488  1.0349
  422MOL0     H55664   7.410   2.210   7.637  0.4246  0.3074 -0.0719
  422MOL0     H55665   7.484   2.361   7.613  0.6587  0.0355  2.8557
  422MOL0     H55666   7.035   2.454   7.637 -1.3055  0.4883 -0.2928
  422MOL0     H55667   6.827   2.317   7.659 -0.1961 -0.9046  1.1747
  422MOL0     H55668   6.665   1.805   7.486 -0.1435  1.8632  0.3483
  422MOL0     H55669   6.457   1.675   7.536 -0.2654  1.8671 -0.8014
  422MOL0     H55670   6.258   1.791   7.849  1.2768  0.3903 -2.2223
  422MOL0     H55671   6.320   1.662   7.965 -0.3870 -3.9002 -0.9690
  422MOL0     H55672   6.080   1.641   7.944 -1.1607  0.8762 -0.4973
  422MOL0     H55673   6.177   1.507   7.880 -0.4592 -0.9387  0.4757
  422MOL0     H55674   6.106   1.566   7.641 -3.9318 -1.3740 -0.4465
  422MOL0     H55675   6.082   1.739   7.685  1.2496  0.8888  0.8537
  422MOL0     H55676   5.861   1.682   7.750 -0.8341  0.0595 -0.3593
  422MOL0     H55677   5.887   1.569   7.620 -0.8053 -0.8818  0.0162
  422MOL0     H55678   5.914   1.509   7.920  1.0824  1.0307 -0.0729
  422MOL0     H55679   5.945   1.389   7.798 -0.1647 -0.5419  1.2677
  422MOL0     H55680   5.714   1.418   7.703 -0.0243  1.1148  0.2188
  422MOL0     H55681   5.662   1.516   7.838  0.9530 -1.0436  3.7384
  422MOL0     H55682   5.777   1.237   7.838  4.8117  2.3084  0.5366
  422MOL0     H55683   5.764   1.325   7.982 -0.4458 -0.5294  0.4792
  422MOL0     H55684   5.506   1.351   7.921  2.6392  2.3992  0.0868
  422MOL0     H55685   5.550   1.179   7.941 -2.1959 -0.8028 -0.2945
  422MOL0     H55686   6.523   1.736   7.945 -1.6913 -1.6957  0.3467
  422MOL0     H55687   6.740   1.846   7.904 -0.0075  2.3394 -0.9017
  422MOL0     H55688   7.060   1.963   7.667 -2.6695 -0.3875  0.4738
  422MOL0     H55689   7.259   2.088   7.646  0.0458  1.2630  0.9633
  422MOL0     H55690   8.927   2.074   7.971 -1.7817  0.7422  2.3626
  422MOL0     H55691   9.171   2.071   7.882 -0.6429 -0.5109 -0.6789
  422MOL0     H55692   9.677   2.069   8.178  1.7891 -3.0806 -1.0608
  422MOL0     H55693   9.896   2.093   8.120 -1.4045  3.3495  1.3826
  422MOL0     H55694   9.977   2.259   7.697 -2.0630 -0.3530  2.3210
  422MOL0     H55695   9.980   2.091   7.665  1.0138  0.1685 -0.1911
  422MOL0     H55696  10.222   2.245   7.774 -0.0043 -3.1524  1.7853
  422MOL0     H55697  10.216   2.075   7.704  3.1446 -0.2497 -1.5254
  422MOL0     H55698  10.185   2.338   7.565 -0.9808  0.3162  1.0117
  422MOL0     H55699  10.136   2.186   7.489 -1.1010  1.6355  0.6025
  422MOL0     H55700  10.365   2.093   7.524 -1.5714  0.1171  1.5027
  422MOL0     H55701  10.370   2.235   7.424 -0.4125  1.9761  0.4092
  422MOL0     H55702  10.573   2.371   7.768  1.8846  0.8187 -1.7160
  422MOL0     H55703   9.778   2.194   7.709 -0.6589 -1.0525 -0.2216
  422MOL0     H55704   9.550   2.187   7.790 -0.9259 -1.2591 -0.0735
  423MOL0     O55705   4.939   1.350  10.117 -0.2560 -0.2651  0.4557
  423MOL0     C55706   4.955   1.374  10.237 -0.1331  0.5760 -0.1648
  423MOL0     O55707   4.869   1.349  10.341  0.5228 -0.2540  0.1334
  423MOL0     C55708   4.765   1.270  10.307  0.0684  0.6753  0.8747
  423MOL0     C55709   4.760   1.137  10.342  0.6027  0.9413 -0.1405
  423MOL0     C55710   4.644   1.064  10.336  0.2792 -1.0033 -0.9140
  423MOL0     C55711   4.530   1.122  10.277  0.3051  0.1725 -0.0248
  423MOL0     O55712   4.435   1.032  10.253  0.5245  0.0445  0.4831
  423MOL0     C55713   4.302   1.077  10.213 -0.6431  0.2134 -0.6016
  423MOL0     C55714   4.203   0.964  10.241 -1.1488 -0.2019 -0.1857
  423MOL0     C55715   4.072   0.998  10.176 -0.3879 -0.2148 -0.8467
  423MOL0     C55716   3.964   0.894  10.201 -0.1179 -0.2825  0.1318
  423MOL0     C55717   3.821   0.947  10.204 -0.7048  0.4464  0.1376
  423MOL0     C55718   3.723   0.828  10.188  0.6433 -0.1928  0.5456
  423MOL0     C55719   3.583   0.871  10.166 -0.1739 -0.7185 -0.1317
  423MOL0     C55720   3.497   0.740  10.153  0.3791  0.4196  1.0833
  423MOL0     N55721   3.413   0.723  10.279  0.8712 -0.3922  0.1992
  423MOL0     C55722   3.440   0.704  10.412 -0.0429 -0.3210 -0.0228
  423MOL0     C55723   3.318   0.707  10.472  0.5283 -0.2601 -0.0085
  423MOL0     C55724   3.289   0.673  10.613  1.0478  0.2365 -0.4811
  423MOL0     C55725   3.237   0.794  10.689  0.3658  0.2573 -0.6979
  423MOL0     C55726   3.090   0.820  10.668  0.4709 -0.3034 -0.2437
  423MOL0     C55727   2.988   0.727  10.745 -0.1098 -0.7642  0.5486
  423MOL0     O55728   2.857   0.780  10.732  0.0698 -0.4271  1.0855
  423MOL0     C55729   2.761   0.687  10.765 -0.8916  0.2980  0.2178
  423MOL0     C55730   2.777   0.549  10.806 -0.4966 -0.6751 -0.0130
  423MOL0     C55731   2.662   0.470  10.803  0.4031  0.9521  0.0684
  423MOL0     C55732   2.534   0.523  10.795 -0.3231 -1.3214 -1.4043
  423MOL0     C55733   2.417   0.440  10.811 -1.1376  0.7853 -0.4354
  423MOL0     O55734   2.297   0.499  10.808 -0.0480  0.1312  0.2103
  423MOL0     C55735   2.187   0.416  10.810 -0.3306  0.7491 -0.0723
  423MOL0     C55736   2.109   0.417  10.930  0.1504 -0.0122 -0.1515
  423MOL0     C55737   1.992   0.346  10.941 -1.4817  0.4788 -0.3850
  423MOL0     C55738   1.968   0.251  10.848 -0.0070 -0.1448 -0.5218
  423MOL0     O55739   1.854   0.178  10.863  0.7486  0.2602  0.3937
  423MOL0     C55740   1.734   0.245  10.830  0.2789 -0.8077  0.2957
  423MOL0     C55741   1.623   0.196  10.923  0.3332  0.0039  0.5213
  423MOL0     C55742   1.630   0.051  10.982 -0.1821  0.0257  0.7010
  423MOL0     C55743   1.511   0.024  11.070  0.0161  0.1496  0.2118
  423MOL0     C55744   1.513  -0.117  11.131  0.6004 -0.3108 -0.5809
  423MOL0     C55745   1.375  -0.188  11.155 -0.3730  0.2157 -0.1776
  423MOL0     C55746   1.317  -0.149  11.292 -0.2747 -0.2927 -1.1362
  423MOL0     C55747   1.185  -0.214  11.312  0.4268 -0.1374  0.6906
  423MOL0    Cl55748   1.064  -0.113  11.222  0.3312 -0.1343  0.0100
  423MOL0     C55749   2.038   0.251  10.724 -0.9684  0.5138 -0.4268
  423MOL0     C55750   2.144   0.333  10.702  0.5799  0.8964  0.3456
  423MOL0     O55751   2.437   0.320  10.816  0.0673 -0.2673  0.0403
  423MOL0     C55752   2.516   0.659  10.775  0.0486  0.0291 -0.6644
  423MOL0     C55753   2.631   0.742  10.761  0.0418  0.5916  1.0019
  423MOL0     N55754   3.218   0.729  10.373 -0.5621 -0.3132 -0.7892
  423MOL0     N55755   3.279   0.749  10.266  0.0145 -0.4336 -0.2255
  423MOL0     C55756   4.532   1.253  10.240  0.3442  0.1318 -0.4189
  423MOL0     C55757   4.646   1.329  10.262  0.2549 -0.0646  0.5572
  423MOL0     C55758   5.082   1.442  10.276 -0.3301  0.6941 -0.4028
  423MOL0     C55759   5.124   1.466  10.411 -0.5146  0.0558 -0.1119
  423MOL0     C55760   5.251   1.522  10.433 -0.7831  0.1572 -0.0673
  423MOL0     C55761   5.329   1.568  10.335  0.1940 -0.0802  0.5365
  423MOL0     O55762   5.455   1.617  10.360  0.1401  0.1065 -0.0439
  423MOL0     C55763   5.544   1.568  10.468 -0.2436  0.0355 -0.0587
  423MOL0     C55764   5.695   1.608  10.449 -0.5159  0.2235  0.3547
  423MOL0     C55765   5.769   1.540  10.568 -1.3809  0.3087 -0.0395
  423MOL0     C55766   5.918   1.514  10.536  0.7389 -0.2054  0.6597
  423MOL0     C55767   5.984   1.458  10.651 -0.0173  0.3073 -0.0834
  423MOL0     C55768   6.044   1.419  10.751 -1.3327  0.0336  0.0521
  423MOL0     C55769   5.292   1.551  10.199  0.0992  0.0897 -0.1954
  423MOL0     C55770   5.166   1.482  10.171 -1.2686 -0.2403  0.2901
  423MOL0     H55771   4.853   1.095  10.380  0.3293  0.4734  0.0210
  423MOL0     H55772   4.640   0.957  10.354  1.9112 -1.1112 -1.0062
  423MOL0     H55773   4.297   1.107  10.108  1.1280  1.8891 -0.2696
  423MOL0     H55774   4.274   1.166  10.271  0.4979  0.6086 -0.6304
  423MOL0     H55775   4.179   0.955  10.348  1.0110  0.3270  0.3999
  423MOL0     H55776   4.235   0.862  10.215 -2.8862 -1.0237  0.7091
  423MOL0     H55777   4.092   0.999  10.068  0.5383 -0.4621 -0.6877
  423MOL0     H55778   4.034   1.094  10.210  0.2812 -1.1066  2.8230
  423MOL0     H55779   3.973   0.816  10.124  1.9917 -0.6549  0.6933
  423MOL0     H55780   3.993   0.855  10.299  1.8734  1.2705  0.2345
  423MOL0     H55781   3.820   1.012  10.116  0.6494 -0.3089 -0.4693
  423MOL0     H55782   3.813   1.005  10.296 -1.3075  0.7764 -0.1194
  423MOL0     H55783   3.730   0.767  10.278 -0.9803  1.9545  2.2330
  423MOL0     H55784   3.757   0.769  10.102  0.5412 -0.2316  0.5310
  423MOL0     H55785   3.559   0.936  10.250  0.5708 -0.2724 -0.2581
  423MOL0     H55786   3.568   0.914  10.067 -0.7301 -4.0832 -1.6689
  423MOL0     H55787   3.560   0.654  10.128  1.1467  0.7011  1.9885
  423MOL0     H55788   3.433   0.751  10.064  3.3409  0.8260 -1.1445
  423MOL0     H55789   3.538   0.698  10.459  0.2131  0.5118 -0.4276
  423MOL0     H55790   3.385   0.654  10.662  1.0356  1.9799  0.2806
  423MOL0     H55791   3.222   0.588  10.625  1.9092 -0.2094  1.5669
  423MOL0     H55792   3.283   0.891  10.669 -0.3914  0.2897 -2.4855
  423MOL0     H55793   3.259   0.782  10.795  0.1310  3.3125 -0.2067
  423MOL0     H55794   3.078   0.926  10.690 -0.1335 -0.1173 -1.3673
  423MOL0     H55795   3.072   0.814  10.560 -1.0464  0.8600 -0.0781
  423MOL0     H55796   3.015   0.725  10.851 -0.0001  1.7158  0.6335
  423MOL0     H55797   2.996   0.636  10.686 -0.9762  1.0145 -2.5660
  423MOL0     H55798   2.880   0.515  10.811  0.6036  2.1890 -1.0172
  423MOL0     H55799   2.681   0.364  10.821  4.5858  1.3029 -1.3423
  423MOL0     H55800   2.143   0.484  11.009 -2.6398 -0.3994  1.5150
  423MOL0     H55801   1.940   0.341  11.036 -1.4930 -0.1382 -0.4211
  423MOL0     H55802   1.713   0.217  10.726  3.2338  2.8340 -1.4951
  423MOL0     H55803   1.751   0.353  10.833 -0.1772 -0.6722 -1.3149
  423MOL0     H55804   1.535   0.218  10.862  1.3289 -0.0141 -0.9676
  423MOL0     H55805   1.619   0.260  11.012  0.2144 -2.7404  2.6065
  423MOL0     H55806   1.716   0.048  11.049  0.3218  0.1367  0.0694
  423MOL0     H55807   1.646  -0.031  10.912  0.0413 -0.1943  1.0065
  423MOL0     H55808   1.495   0.100  11.147  1.9484  2.4549 -1.5068
  423MOL0     H55809   1.417   0.030  11.013 -0.3400  1.2402  0.8894
  423MOL0     H55810   1.551  -0.099  11.232 -2.8848 -2.2148  1.2639
  423MOL0     H55811   1.569  -0.186  11.067  1.4642  0.9422 -1.2130
  423MOL0     H55812   1.379  -0.297  11.160 -0.0365  0.1209 -1.9378
  423MOL0     H55813   1.310  -0.172  11.068 -1.1642 -1.4381  0.0803
  423MOL0     H55814   1.384  -0.182  11.372 -0.4061  3.1957  0.5930
  423MOL0     H55815   1.297  -0.042  11.303  0.7744 -0.2854  1.4307
  423MOL0     H55816   1.159  -0.209  11.418 -0.2635  2.9689  0.4594
  423MOL0     H55817   1.176  -0.315  11.269 -1.3139  0.3225 -0.1501
  423MOL0     H55818   2.017   0.177  10.648  0.1204 -0.2387 -0.0202
  423MOL0     H55819   2.196   0.339  10.607 -1.6053  0.7368 -0.9223
  423MOL0     H55820   2.418   0.702  10.762 -0.2388  0.2658  1.7449
  423MOL0     H55821   2.624   0.845  10.729  0.8855  0.4072  0.1771
  423MOL0     H55822   4.442   1.300  10.201 -0.7122 -2.3954 -1.2409
  423MOL0     H55823   4.638   1.435  10.243 -3.8313 -0.0665  1.5567
  423MOL0     H55824   5.071   1.413  10.490 -0.2526 -0.6516 -0.4006
  423MOL0     H55825   5.297   1.520  10.532  4.2948  3.0456 -1.9836
  423MOL0     H55826   5.536   1.459  10.469 -2.0105  0.1404  0.6005
  423MOL0     H55827   5.512   1.599  10.568 -3.8032  1.8080 -1.5765
  423MOL0     H55828   5.729   1.564  10.354 -0.4985 -1.7940  1.2365
  423MOL0     H55829   5.705   1.716  10.437 -0.3606  0.7422  3.9979
  423MOL0     H55830   5.743   1.435  10.587  1.9784 -0.6177  0.0704
  423MOL0     H55831   5.763   1.606  10.655  1.6870 -0.4597  0.8802
  423MOL0     H55832   5.916   1.458  10.442 -2.2771  1.9143 -0.6882
  423MOL0     H55833   5.965   1.608  10.503 -2.6246  1.4501  0.1591
  423MOL0     H55834   6.096   1.393  10.840 -1.0351  1.5890  0.3543
  423MOL0     H55835   5.354   1.573  10.112 -1.2795 -1.4870 -1.6506
  423MOL0     H55836   5.133   1.459  10.070 -0.9614 -0.7448  0.3032
  424MOL0     O55837   3.275   8.108   9.400  0.4579  0.7044 -0.3684
  424MOL0     C55838   3.348   8.089   9.299  0.3746  0.3293  0.4448
  424MOL0     O55839   3.316   8.113   9.172 -0.3238  0.0028  0.1157
  424MOL0     C55840   3.196   8.076   9.113 -0.0804 -1.4717 -0.2055
  424MOL0     C55841   3.185   8.070   8.976 -0.0655  0.1122  0.0134
  424MOL0     C55842   3.060   8.039   8.910  0.6447  0.4714 -0.0503
  424MOL0     C55843   2.943   8.001   8.982 -1.3742 -0.3854  0.3419
  424MOL0     O55844   2.832   7.971   8.920 -0.3401  0.8787 -0.1103
  424MOL0     C55845   2.719   8.000   9.005  0.3010  0.1489  0.2525
  424MOL0     C55846   2.595   7.983   8.907  0.7269 -0.0253 -0.4557
  424MOL0     C55847   2.563   7.835   8.866  0.0913  0.2177 -0.1662
  424MOL0     C55848   2.487   7.825   8.736 -0.2185  0.0628  0.2850
  424MOL0     C55849   2.350   7.880   8.740 -0.5626  0.8482 -0.1508
  424MOL0     C55850   2.243   7.802   8.825 -0.4667 -0.2489  0.2407
  424MOL0     C55851   2.228   7.656   8.792 -0.3747  0.4805 -0.4291
  424MOL0     C55852   2.115   7.584   8.874  0.4287  0.1426  0.2340
  424MOL0     N55853   1.975   7.619   8.835 -0.2251  0.8062  0.3655
  424MOL0     C55854   1.922   7.603   8.711 -0.6092 -0.0813 -1.1980
  424MOL0     C55855   1.789   7.622   8.739 -0.4259 -0.4566 -0.2133
  424MOL0     C55856   1.670   7.627   8.652 -1.3435  0.5242 -0.3564
  424MOL0     C55857   1.711   7.630   8.499  0.0943 -0.0515 -0.0303
  424MOL0     C55858   1.610   7.670   8.393  0.0450 -0.2776  0.6972
  424MOL0     C55859   1.561   7.819   8.426  1.2006 -0.3278  0.2045
  424MOL0     O55860   1.455   7.853   8.342 -0.4119 -0.3478 -0.1312
  424MOL0     C55861   1.318   7.832   8.383 -1.1451  0.8448  0.1322
  424MOL0     C55862   1.273   7.803   8.521  0.5648 -0.4133  0.6131
  424MOL0     C55863   1.131   7.780   8.541 -0.0098  0.4543  0.1368
  424MOL0     C55864   1.040   7.775   8.437  0.7205 -0.4383 -0.3406
  424MOL0     C55865   0.888   7.761   8.461 -0.1944 -0.1319  0.3972
  424MOL0     O55866   0.848   7.750   8.594  0.6944 -0.2984 -0.3307
  424MOL0     C55867   0.713   7.744   8.608 -0.7811 -0.1440  0.2729
  424MOL0     C55868   0.641   7.631   8.624 -0.4210  0.2223  0.3917
  424MOL0     C55869   0.505   7.629   8.653 -0.0767  1.3782 -0.2728
  424MOL0     C55870   0.437   7.752   8.682 -0.0001  0.1446 -0.2268
  424MOL0     O55871   0.307   7.752   8.715 -0.2701 -0.1844 -0.6086
  424MOL0     C55872   0.219   7.795   8.607 -0.3008  0.4028  0.4751
  424MOL0     C55873   0.071   7.795   8.654  0.0292  0.1580 -0.5091
  424MOL0     C55874   0.046   7.924   8.754  0.0703 -0.2501 -1.3442
  424MOL0     C55875  -0.107   7.959   8.768 -1.0509  0.5417  0.0135
  424MOL0     C55876  -0.178   7.866   8.859  0.3132  0.9012  0.4118
  424MOL0     C55877  -0.326   7.878   8.819 -0.9630 -0.6705 -0.0065
  424MOL0     C55878  -0.420   7.803   8.918  0.2503 -0.2506  0.4013
  424MOL0     C55879  -0.441   7.866   9.051 -0.3037  0.0003 -0.6984
  424MOL0    Cl55880  -0.574   7.787   9.142  0.0002 -0.3963 -0.4459
  424MOL0     C55881   0.512   7.871   8.675  0.4427 -0.0485 -0.2954
  424MOL0     C55882   0.646   7.861   8.632  0.0128  0.3164  0.2602
  424MOL0     O55883   0.815   7.749   8.365  0.3603  0.1668  0.0645
  424MOL0     C55884   1.088   7.795   8.308  0.5807 -0.8729 -0.1117
  424MOL0     C55885   1.225   7.822   8.284 -0.3118  0.9194 -0.2986
  424MOL0     N55886   1.770   7.648   8.881 -0.4814 -1.3698  0.6941
  424MOL0     N55887   1.888   7.644   8.937  0.8947  0.3438 -0.7712
  424MOL0     C55888   2.966   7.992   9.122 -0.8210 -0.7010 -0.6281
  424MOL0     C55889   3.087   8.031   9.187 -0.4711 -0.3353 -0.1040
  424MOL0     C55890   3.488   8.057   9.314  0.1379 -0.1077  0.3420
  424MOL0     C55891   3.562   8.097   9.432  0.2347  0.3346 -0.2266
  424MOL0     C55892   3.698   8.072   9.444  1.1460  0.2091 -0.0759
  424MOL0     C55893   3.762   8.009   9.339 -0.7092 -0.9943 -0.3354
  424MOL0     O55894   3.899   7.996   9.352 -0.3395 -0.1457 -0.0553
  424MOL0     C55895   3.939   7.906   9.461 -0.3768  0.1487  0.4795
  424MOL0     C55896   4.090   7.942   9.511 -0.0336  0.0994 -0.9100
  424MOL0     C55897   4.098   8.071   9.594  0.7349  0.3497 -0.1328
  424MOL0     C55898   4.230   8.070   9.680 -0.1212 -0.1281  0.3955
  424MOL0     C55899   4.216   8.188   9.779  0.2001  0.8060 -0.5510
  424MOL0     C55900   4.210   8.274   9.860 -0.4481  0.3890 -0.3514
  424MOL0     C55901   3.691   7.965   9.227  0.0155  0.8757  0.2377
  424MOL0     C55902   3.557   7.984   9.215 -0.4192 -0.5957 -0.5279
  424MOL0     H55903   3.276   8.091   8.921  1.3961  1.7780  2.8345
  424MOL0     H55904   3.055   8.048   8.802  1.4958 -1.1114 -0.2458
  424MOL0     H55905   2.722   8.100   9.050 -2.1762 -0.1681  1.3124
  424MOL0     H55906   2.708   7.932   9.090 -0.8603  1.9699  1.6276
  424MOL0     H55907   2.606   8.045   8.817  0.7429  1.7355  0.7248
  424MOL0     H55908   2.507   8.009   8.967  1.2861 -0.9988  0.8316
  424MOL0     H55909   2.514   7.782   8.949  3.2841 -0.1246  1.6936
  424MOL0     H55910   2.657   7.782   8.847 -0.4751 -1.2451  0.9255
  424MOL0     H55911   2.543   7.866   8.652  2.0529 -4.4801 -0.7595
  424MOL0     H55912   2.486   7.720   8.704 -0.8777  0.0852  0.2173
  424MOL0     H55913   2.325   7.886   8.633 -0.4122 -0.2691 -0.2509
  424MOL0     H55914   2.336   7.985   8.769 -0.1118  0.0845  3.2036
  424MOL0     H55915   2.153   7.850   8.785 -2.0725 -2.9026  0.4107
  424MOL0     H55916   2.260   7.823   8.931  0.5226  0.6767 -0.0879
  424MOL0     H55917   2.213   7.646   8.684 -0.4415 -0.0895 -0.3684
  424MOL0     H55918   2.314   7.593   8.817 -2.5265 -3.8670 -2.8776
  424MOL0     H55919   2.126   7.617   8.978  0.0897  0.5850  0.1303
  424MOL0     H55920   2.109   7.476   8.862  0.8709  0.0079  1.0917
  424MOL0     H55921   1.967   7.585   8.614  2.4826 -0.9924  0.2539
  424MOL0     H55922   1.616   7.719   8.678 -0.4907  0.8676  0.2031
  424MOL0     H55923   1.612   7.536   8.671 -3.8590  1.9644 -0.5864
  424MOL0     H55924   1.747   7.529   8.477 -1.1564 -0.5690  0.2160
  424MOL0     H55925   1.790   7.705   8.494  0.4980 -0.2532  2.1220
  424MOL0     H55926   1.660   7.665   8.296  0.3183 -0.3673  0.8392
  424MOL0     H55927   1.524   7.603   8.403 -0.7715  0.5019 -0.7543
  424MOL0     H55928   1.637   7.894   8.404  0.0269  0.7190 -0.4067
  424MOL0     H55929   1.532   7.830   8.531  0.3627 -1.5226  0.1138
  424MOL0     H55930   1.345   7.825   8.599  1.7288 -1.5575 -0.0947
  424MOL0     H55931   1.098   7.754   8.641  0.8165 -2.9594 -0.3359
  424MOL0     H55932   0.704   7.542   8.627  0.1909  0.6458  0.1693
  424MOL0     H55933   0.440   7.543   8.646 -2.0497  2.7557  0.2499
  424MOL0     H55934   0.233   7.719   8.529  2.2308  3.2844 -2.1195
  424MOL0     H55935   0.248   7.887   8.556 -0.5051 -0.7108 -1.7685
  424MOL0     H55936   0.059   7.699   8.705  2.7895  0.3265  0.5963
  424MOL0     H55937  -0.000   7.798   8.571 -2.1629  1.0505  1.2866
  424MOL0     H55938   0.085   8.014   8.705 -1.6221 -0.2369 -2.8033
  424MOL0     H55939   0.103   7.915   8.846 -0.2107  1.2275 -1.0053
  424MOL0     H55940  -0.118   8.052   8.824 -1.1976  0.2000  0.5584
  424MOL0     H55941  -0.153   7.976   8.670 -0.6261  0.6085 -0.1780
  424MOL0     H55942  -0.154   7.896   8.961  3.4841  0.0805 -0.0047
  424MOL0     H55943  -0.138   7.765   8.859 -1.9100 -0.0686  1.9447
  424MOL0     H55944  -0.350   7.838   8.720 -0.5670  2.2095 -1.3503
  424MOL0     H55945  -0.347   7.985   8.815  3.6646  0.4085 -2.8057
  424MOL0     H55946  -0.524   7.811   8.886 -0.2038  0.5802  1.9502
  424MOL0     H55947  -0.398   7.696   8.925  0.9161 -0.0376  4.4462
  424MOL0     H55948  -0.445   7.976   9.054  1.5865  0.0721  1.7615
  424MOL0     H55949  -0.347   7.838   9.098  0.3853  1.0036 -1.4084
  424MOL0     H55950   0.463   7.966   8.691 -1.5532 -1.3570  1.9595
  424MOL0     H55951   0.705   7.952   8.624 -1.1235  1.3164  2.3458
  424MOL0     H55952   1.020   7.791   8.223 -0.3719 -1.4449  0.6533
  424MOL0     H55953   1.252   7.844   8.181 -0.3232  1.3005 -0.2198
  424MOL0     H55954   2.896   7.976   9.204  0.2678  1.6809  0.9120
  424MOL0     H55955   3.083   8.020   9.295 -0.1402  1.9230  0.1978
  424MOL0     H55956   3.509   8.143   9.514  2.7382 -0.2722  1.8702
  424MOL0     H55957   3.747   8.100   9.536  3.4523 -0.6161 -1.0013
  424MOL0     H55958   3.945   7.805   9.419  1.3007  1.0736 -1.7261
  424MOL0     H55959   3.872   7.924   9.546 -1.2402  2.3196 -0.5930
  424MOL0     H55960   4.139   7.866   9.572 -0.0809  1.1349  0.4581
  424MOL0     H55961   4.151   7.958   9.421  0.4141 -0.4417 -0.7067
  424MOL0     H55962   4.014   8.078   9.665  0.4623 -2.1777 -0.1273
  424MOL0     H55963   4.090   8.149   9.517  2.3681  1.5167  0.8088
  424MOL0     H55964   4.235   7.983   9.747 -0.5518  0.1039  0.7327
  424MOL0     H55965   4.321   8.074   9.619  0.9826 -0.7756  1.9243
  424MOL0     H55966   4.207   8.361   9.923 -1.8592  1.8556 -2.3281
  424MOL0     H55967   3.748   7.899   9.162 -1.4439  0.1762 -0.3730
  424MOL0     H55968   3.502   7.945   9.129 -1.0886  2.0251 -1.3793
  425MOL0     O55969   1.871   1.131  10.207  1.1466 -0.6272 -0.3785
  425MOL0     C55970   1.852   1.062  10.111 -1.2681 -0.3671  0.8950
  425MOL0     O55971   1.732   1.026  10.066  0.7802  0.5939 -0.4396
  425MOL0     C55972   1.611   1.055  10.137 -0.2028  1.1592  0.7495
  425MOL0     C55973   1.597   1.093  10.271 -0.6347  0.7383 -0.5278
  425MOL0     C55974   1.475   1.110  10.324  0.1559 -0.4326  0.8172
  425MOL0     C55975   1.360   1.107  10.249  0.2636  0.0519  0.4070
  425MOL0     O55976   1.231   1.114  10.299 -0.1867  0.2105 -0.0023
  425MOL0     C55977   1.210   1.203  10.406  0.7701  0.3714  1.2641
  425MOL0     C55978   1.058   1.212  10.442  0.8231 -0.1661  0.4884
  425MOL0     C55979   0.966   1.265  10.327  0.4432  1.2582  0.4107
  425MOL0     C55980   0.820   1.202  10.335 -0.1970 -0.3823 -0.5634
  425MOL0     C55981   0.826   1.069  10.263 -0.4912  0.0243  0.9484
  425MOL0     C55982   0.816   1.085  10.107  0.1762 -0.4874  0.6811
  425MOL0     C55983   0.823   0.946  10.028 -0.3932 -0.7958  0.0870
  425MOL0     C55984   0.859   0.967   9.882  0.0091  0.7747 -1.4295
  425MOL0     N55985   0.773   1.055   9.813  0.3183 -1.0102 -0.1280
  425MOL0     C55986   0.641   1.035   9.783  0.1807  0.0513  0.3160
  425MOL0     C55987   0.613   1.143   9.707 -0.0920 -0.0926 -0.1276
  425MOL0     C55988   0.471   1.196   9.683 -0.3232  0.1626 -0.1006
  425MOL0     C55989   0.400   1.259   9.799  0.0834  0.4058  0.4485
  425MOL0     C55990   0.469   1.392   9.832  0.7319 -1.9982 -0.4802
  425MOL0     C55991   0.348   1.490   9.874  0.8603 -0.0269  0.5408
  425MOL0     O55992   0.271   1.444   9.988  0.0192  0.9775  0.2246
  425MOL0     C55993   0.171   1.522  10.042 -0.4312 -0.2619  0.0461
  425MOL0     C55994   0.084   1.466  10.132 -0.4863 -0.3645  0.4185
  425MOL0     C55995  -0.022   1.530  10.187 -0.0347 -0.5160  0.1961
  425MOL0     C55996  -0.050   1.661  10.148 -0.4033 -0.3352 -0.4775
  425MOL0     C55997  -0.176   1.718  10.190 -0.0706  0.3423  0.0836
  425MOL0     O55998  -0.276   1.636  10.247  0.5851 -0.0676 -0.0533
  425MOL0     C55999  -0.401   1.693  10.291  0.2740  0.1121 -0.8902
  425MOL0     C56000  -0.471   1.781  10.206  0.0847 -0.0729 -1.0041
  425MOL0     C56001  -0.595   1.826  10.246  1.2940  0.2482 -0.1226
  425MOL0     C56002  -0.641   1.802  10.370 -0.6051  0.2066  0.1246
  425MOL0     O56003  -0.758   1.851  10.422  0.5368 -0.7126 -0.0858
  425MOL0     C56004  -0.777   1.988  10.399 -0.2590  0.2814 -0.5401
  425MOL0     C56005  -0.915   2.027  10.444 -0.4323  0.0440 -0.2171
  425MOL0     C56006  -0.939   1.978  10.590 -0.2216  0.5360 -0.0690
  425MOL0     C56007  -1.083   1.945  10.605 -0.6749 -0.4754 -0.4270
  425MOL0     C56008  -1.112   1.888  10.750  0.0508  0.8695 -0.1934
  425MOL0     C56009  -1.265   1.900  10.777 -0.0552  0.2607  0.2024
  425MOL0     C56010  -1.289   1.853  10.911  0.1534 -0.6260  0.4788
  425MOL0     C56011  -1.439   1.839  10.962 -0.5299  0.2875  0.4917
  425MOL0    Cl56012  -1.456   1.768  11.126 -0.1436  0.0467  0.1403
  425MOL0     C56013  -0.578   1.709  10.451 -0.3069 -1.0747 -0.9226
  425MOL0     C56014  -0.456   1.655  10.414  0.2022  0.1954 -0.4513
  425MOL0     O56015  -0.188   1.836  10.163  0.5833  0.2960  0.3593
  425MOL0     C56016   0.042   1.724  10.066  0.4505  0.0458 -0.1761
  425MOL0     C56017   0.151   1.657  10.014 -0.7973 -0.4452 -0.0801
  425MOL0     N56018   0.723   1.218   9.683 -0.2580  0.0393 -0.6811
  425MOL0     N56019   0.824   1.175   9.753 -0.0487  0.5434  0.4707
  425MOL0     C56020   1.368   1.082  10.114 -0.1685  0.3177 -0.7098
  425MOL0     C56021   1.492   1.037  10.063  0.7472  0.1208  0.1133
  425MOL0     C56022   1.965   1.023  10.030  0.0650 -0.6215  0.3433
  425MOL0     C56023   2.088   0.974  10.078  0.0875 -0.1265  0.2640
  425MOL0     C56024   2.197   0.976   9.997 -0.0262 -0.7862  0.4294
  425MOL0     C56025   2.183   1.001   9.862 -0.1903 -0.0097 -0.0473
  425MOL0     O56026   2.290   1.010   9.776  0.4615 -0.4754  0.0746
  425MOL0     C56027   2.393   0.910   9.792 -1.0772 -0.2863 -0.3050
  425MOL0     C56028   2.484   0.892   9.664  0.1871 -0.7581 -0.0209
  425MOL0     C56029   2.561   1.020   9.622 -0.2127  0.2480  0.0340
  425MOL0     C56030   2.701   1.050   9.668  1.1548  0.6480 -0.0076
  425MOL0     C56031   2.787   0.955   9.601  0.3348  0.0808  0.1976
  425MOL0     C56032   2.856   0.868   9.548  0.0952 -0.3228  1.2924
  425MOL0     C56033   2.057   1.023   9.810 -0.0209  0.6257  0.0090
  425MOL0     C56034   1.948   1.037   9.891  0.1837  0.2954  0.4293
  425MOL0     H56035   1.678   1.107  10.342  0.6756 -2.6439 -1.1614
  425MOL0     H56036   1.469   1.139  10.429  5.7507  1.7008  0.8877
  425MOL0     H56037   1.246   1.303  10.379 -3.4564  2.1439  1.3706
  425MOL0     H56038   1.266   1.164  10.491 -2.1551  1.1362  3.7003
  425MOL0     H56039   1.053   1.288  10.521 -3.0732  0.8995 -0.5686
  425MOL0     H56040   1.015   1.116  10.472  0.4955 -1.5111 -3.6606
  425MOL0     H56041   1.007   1.234  10.231  2.9468 -1.7640  2.2484
  425MOL0     H56042   0.960   1.374  10.331  0.2240  1.4319 -2.5747
  425MOL0     H56043   0.799   1.189  10.441  0.2939 -2.3230 -0.6678
  425MOL0     H56044   0.743   1.261  10.285  1.3066  2.4480  0.2263
  425MOL0     H56045   0.739   1.007  10.286 -2.2278  1.1392 -2.0310
  425MOL0     H56046   0.916   1.020  10.301  0.2227  1.2362  0.8692
  425MOL0     H56047   0.905   1.140  10.076 -0.3453  1.1758  1.9955
  425MOL0     H56048   0.726   1.138  10.075  0.2346 -0.4107  0.6471
  425MOL0     H56049   0.898   0.878  10.069 -2.7418 -2.7055  1.5043
  425MOL0     H56050   0.732   0.885  10.033 -1.2581  0.4423 -0.0748
  425MOL0     H56051   0.856   0.868   9.836 -1.0316 -0.5479  1.2612
  425MOL0     H56052   0.964   0.999   9.876 -0.3499  2.4233  0.2071
  425MOL0     H56053   0.575   0.968   9.838  2.2501 -3.9094 -1.5893
  425MOL0     H56054   0.412   1.111   9.649 -5.6059  0.9595  5.3756
  425MOL0     H56055   0.474   1.273   9.605 -0.6520 -1.9816 -2.3738
  425MOL0     H56056   0.399   1.186   9.881 -2.4639 -0.5186 -0.3210
  425MOL0     H56057   0.298   1.270   9.760 -0.2606 -1.1750  0.8211
  425MOL0     H56058   0.529   1.383   9.923 -0.8079 -1.1319  0.6743
  425MOL0     H56059   0.524   1.443   9.752  0.7275 -1.6645 -0.2765
  425MOL0     H56060   0.290   1.501   9.782  1.3930  2.6098  0.4383
  425MOL0     H56061   0.378   1.593   9.896  1.3921 -0.2049  0.6668
  425MOL0     H56062   0.095   1.358  10.132 -0.6530 -0.4261 -1.7055
  425MOL0     H56063  -0.079   1.473  10.260 -1.8645 -1.5252 -1.9247
  425MOL0     H56064  -0.442   1.812  10.106  0.3565  3.0169 -0.0786
  425MOL0     H56065  -0.656   1.884  10.177  2.0615  0.3530 -0.7325
  425MOL0     H56066  -0.772   2.025  10.296  0.4373  0.4081 -0.4634
  425MOL0     H56067  -0.707   2.050  10.456 -2.3020  2.3757 -0.1579
  425MOL0     H56068  -0.994   1.994  10.376 -0.3116  0.0521 -0.3617
  425MOL0     H56069  -0.931   2.136  10.442 -3.8173 -0.3280  0.2785
  425MOL0     H56070  -0.903   2.056  10.658  1.7985  0.8447 -1.4158
  425MOL0     H56071  -0.890   1.882  10.612 -1.3963 -0.2262 -0.6564
  425MOL0     H56072  -1.153   2.027  10.587 -2.6455 -1.6730  1.2383
  425MOL0     H56073  -1.099   1.871  10.526  0.2397  0.2442 -1.3138
  425MOL0     H56074  -1.043   1.936  10.820  1.1465  1.3465 -1.5489
  425MOL0     H56075  -1.077   1.786  10.733 -0.2892  1.1175 -2.7686
  425MOL0     H56076  -1.318   1.837  10.705  1.1303  1.8136 -2.1401
  425MOL0     H56077  -1.302   2.002  10.762  0.0715  0.5479  1.6904
  425MOL0     H56078  -1.251   1.752  10.926 -1.4392 -1.3404 -0.0259
  425MOL0     H56079  -1.240   1.924  10.977 -0.5917 -1.4786  2.0062
  425MOL0     H56080  -1.497   1.794  10.881 -0.2235 -0.3401  0.6214
  425MOL0     H56081  -1.487   1.937  10.974 -3.7217 -1.2240  1.1807
  425MOL0     H56082  -0.622   1.676  10.545  0.0950  0.4033 -0.1704
  425MOL0     H56083  -0.395   1.588  10.474  0.1859  0.5866 -0.0001
  425MOL0     H56084   0.023   1.827  10.037  1.1783  0.5034  0.8795
  425MOL0     H56085   0.212   1.708   9.940 -1.6537  1.0364  0.1887
  425MOL0     H56086   1.280   1.061  10.055 -1.2767 -1.1401  1.3415
  425MOL0     H56087   1.518   0.994   9.967  0.0164  1.3973 -0.6934
  425MOL0     H56088   2.116   0.953  10.180  0.4450  0.7662  0.3606
  425MOL0     H56089   2.295   0.954  10.037  0.4689 -0.4207 -0.5407
  425MOL0     H56090   2.335   0.817   9.803 -0.9754 -0.1545  1.7579
  425MOL0     H56091   2.460   0.918   9.878 -2.7749 -1.7931  1.2591
  425MOL0     H56092   2.547   0.803   9.677  1.3345 -0.6486 -3.6609
  425MOL0     H56093   2.415   0.880   9.580 -2.2520  0.1994  1.7358
  425MOL0     H56094   2.492   1.098   9.655 -0.5720 -1.4017  3.7635
  425MOL0     H56095   2.566   1.007   9.514 -3.0231 -0.3021 -0.0861
  425MOL0     H56096   2.732   1.150   9.636  0.6251  1.0369  0.6636
  425MOL0     H56097   2.706   1.032   9.776 -0.0537 -1.6745 -0.2842
  425MOL0     H56098   2.928   0.802   9.504  0.5285 -1.2511  3.2726
  425MOL0     H56099   2.052   1.029   9.701  0.8029 -1.3445 -0.1880
  425MOL0     H56100   1.853   1.042   9.839 -0.4561 -3.5153  0.9406
  426MOL0     O56101   2.400   5.954   6.347  0.4966 -0.0318 -0.1743
  426MOL0     C56102   2.435   5.921   6.236 -1.3245 -0.0214 -0.6025
  426MOL0     O56103   2.360   5.881   6.129  0.1411 -0.5111  0.2449
  426MOL0     C56104   2.232   5.920   6.116  0.6073 -0.1700  0.1310
  426MOL0     C56105   2.133   5.882   6.204  1.3874 -0.0334  0.2030
  426MOL0     C56106   2.000   5.917   6.182  0.1030  0.1398  0.1662
  426MOL0     C56107   1.959   5.991   6.065  0.7769 -0.2267  0.2513
  426MOL0     O56108   1.821   5.998   6.040  0.2915 -0.8966 -0.0439
  426MOL0     C56109   1.778   6.089   5.941  0.2662  0.2475  0.2970
  426MOL0     C56110   1.629   6.095   5.929  0.5245 -0.3909 -0.1329
  426MOL0     C56111   1.564   6.184   6.040  0.3183  0.1908  0.5814
  426MOL0     C56112   1.419   6.172   6.030  0.3358 -0.5271 -0.8087
  426MOL0     C56113   1.341   6.290   6.093  0.4163 -0.1715 -0.3222
  426MOL0     C56114   1.194   6.254   6.072 -0.0395 -0.4453  0.6237
  426MOL0     C56115   1.108   6.374   6.113 -0.1904 -0.3296 -0.7581
  426MOL0     C56116   0.960   6.327   6.123 -0.6490 -0.1905 -0.2934
  426MOL0     N56117   0.926   6.252   5.998  1.0076 -0.2125  0.5871
  426MOL0     C56118   0.833   6.156   5.983  0.1478 -0.8805  0.4441
  426MOL0     C56119   0.800   6.146   5.851  0.1540 -0.4775  0.4194
  426MOL0     C56120   0.700   6.052   5.779 -0.0472  0.5863 -0.3837
  426MOL0     C56121   0.553   6.115   5.790  0.2134  0.1068  0.0843
  426MOL0     C56122   0.536   6.244   5.705  1.3276  0.0677 -1.2205
  426MOL0     C56123   0.550   6.235   5.555  0.3329  0.7709  0.8543
  426MOL0     O56124   0.550   6.368   5.497 -0.8163  0.0841 -0.7058
  426MOL0     C56125   0.430   6.417   5.448  0.5732  0.0443  0.1008
  426MOL0     C56126   0.428   6.551   5.397 -0.0359  0.5895  0.0446
  426MOL0     C56127   0.318   6.612   5.349  1.0038 -0.1464 -1.2382
  426MOL0     C56128   0.197   6.551   5.360  0.0337 -1.1171  0.8844
  426MOL0     C56129   0.077   6.625   5.324 -0.1186 -0.0827  0.6221
  426MOL0     O56130  -0.038   6.573   5.365 -0.4398  0.5447 -0.0478
  426MOL0     C56131  -0.157   6.629   5.338  0.8206  0.3725  0.1835
  426MOL0     C56132  -0.274   6.545   5.328  0.3354  0.0078  0.2972
  426MOL0     C56133  -0.407   6.599   5.334 -0.1019  0.3990  0.1649
  426MOL0     C56134  -0.427   6.732   5.361 -0.2889 -0.3151  0.3620
  426MOL0     O56135  -0.541   6.798   5.391 -0.4074 -0.4584  0.0774
  426MOL0     C56136  -0.665   6.738   5.377 -0.2787  0.3681  0.8543
  426MOL0     C56137  -0.774   6.822   5.445  0.4815 -0.3704 -0.5143
  426MOL0     C56138  -0.912   6.748   5.449  0.8794 -0.1250  1.1542
  426MOL0     C56139  -1.006   6.836   5.527 -0.2542  0.0522  0.1896
  426MOL0     C56140  -1.152   6.801   5.500 -0.3234 -0.0735  0.1590
  426MOL0     C56141  -1.179   6.651   5.517  0.5043 -0.0046  0.9654
  426MOL0     C56142  -1.324   6.602   5.468 -0.8210 -0.0562  0.5680
  426MOL0     C56143  -1.430   6.653   5.558  0.0297 -0.4818  0.0856
  426MOL0    Cl56144  -1.584   6.578   5.524  0.0141  0.2417  0.1718
  426MOL0     C56145  -0.314   6.811   5.364  0.7215  0.5064  0.0454
  426MOL0     C56146  -0.184   6.767   5.350  0.5265 -0.3695  0.0252
  426MOL0     O56147   0.087   6.714   5.241  0.5060  0.1002  0.2972
  426MOL0     C56148   0.192   6.414   5.395  0.2817 -0.8130 -1.4481
  426MOL0     C56149   0.310   6.350   5.450  0.5285 -0.6424  0.7840
  426MOL0     N56150   0.878   6.238   5.788  0.1003 -0.4636 -0.0544
  426MOL0     N56151   0.955   6.299   5.874 -0.3492  0.6988  0.3551
  426MOL0     C56152   2.063   6.031   5.979 -0.0551 -0.0667  0.2495
  426MOL0     C56153   2.199   5.993   6.002  0.2644  0.1152 -0.2392
  426MOL0     C56154   2.577   5.885   6.226  0.1123 -0.6300 -1.0379
  426MOL0     C56155   2.638   5.816   6.333 -0.5929 -0.4073 -0.1576
  426MOL0     C56156   2.776   5.771   6.324  0.0098 -0.4212  0.6546
  426MOL0     C56157   2.851   5.794   6.212 -0.1858  1.2867  0.2115
  426MOL0     O56158   2.980   5.749   6.227 -0.5272  0.9370  0.4468
  426MOL0     C56159   3.088   5.810   6.152 -0.2652 -0.5486  0.0919
  426MOL0     C56160   3.171   5.909   6.232  0.1857 -0.2873 -0.0544
  426MOL0     C56161   3.086   6.028   6.277  0.0168  0.4031  0.9028
  426MOL0     C56162   3.181   6.121   6.355  1.0149  0.7779 -0.9598
  426MOL0     C56163   3.091   6.207   6.434  0.7038  0.9725 -0.1406
  426MOL0     C56164   3.015   6.260   6.527  0.3307  0.0375  0.3735
  426MOL0     C56165   2.788   5.859   6.104  0.6996  0.6607  0.0497
  426MOL0     C56166   2.655   5.910   6.110  0.4000 -0.1318 -0.4632
  426MOL0     H56167   2.156   5.833   6.298  3.4258  3.1977  1.5678
  426MOL0     H56168   1.927   5.878   6.251 -0.4659 -0.1288 -0.5740
  426MOL0     H56169   1.829   6.059   5.849 -0.8097  1.7872 -0.8428
  426MOL0     H56170   1.822   6.187   5.967  1.5210 -0.6409  1.7151
  426MOL0     H56171   1.587   5.994   5.937  0.2017 -0.6403 -3.4605
  426MOL0     H56172   1.591   6.124   5.831 -0.7476 -2.1176 -0.2029
  426MOL0     H56173   1.588   6.289   6.026  1.0284 -0.0551 -0.1371
  426MOL0     H56174   1.591   6.169   6.145 -1.3044 -0.8810  0.8820
  426MOL0     H56175   1.392   6.171   5.924 -0.4644  0.1734 -0.6245
  426MOL0     H56176   1.389   6.074   6.068  1.5533 -0.4168  0.5275
  426MOL0     H56177   1.350   6.387   6.044 -0.9745 -1.8275 -4.3307
  426MOL0     H56178   1.358   6.291   6.201  0.0925  1.2852 -0.2667
  426MOL0     H56179   1.170   6.168   6.135 -0.2131  1.0566  2.7323
  426MOL0     H56180   1.177   6.232   5.967 -1.6249 -0.8712  0.9363
  426MOL0     H56181   1.134   6.436   6.199  0.1756 -3.0537  1.2314
  426MOL0     H56182   1.123   6.432   6.021  0.2785 -0.3364 -0.6887
  426MOL0     H56183   0.890   6.412   6.127 -1.6582 -0.8997 -2.0482
  426MOL0     H56184   0.937   6.257   6.204 -0.9450  1.9018  1.5423
  426MOL0     H56185   0.805   6.088   6.063  0.5859  0.8535  2.1431
  426MOL0     H56186   0.702   5.949   5.817 -0.1692 -0.2568 -2.5309
  426MOL0     H56187   0.724   6.052   5.672 -1.8127  2.7761 -0.8528
  426MOL0     H56188   0.523   6.127   5.895 -2.5558 -1.8638 -0.3721
  426MOL0     H56189   0.478   6.051   5.744  0.2681  2.2515 -3.2836
  426MOL0     H56190   0.430   6.266   5.717  1.4271 -0.0421 -0.0625
  426MOL0     H56191   0.594   6.326   5.748  0.0511  1.6959 -2.4407
  426MOL0     H56192   0.483   6.163   5.507  1.7414  1.0241 -1.6606
  426MOL0     H56193   0.645   6.191   5.526 -0.7829 -1.1384 -0.1316
  426MOL0     H56194   0.526   6.599   5.399  1.8419 -2.8407 -1.0951
  426MOL0     H56195   0.329   6.714   5.317  1.6276  0.3150  0.3591
  426MOL0     H56196  -0.263   6.437   5.317  1.7526  0.2061 -0.3512
  426MOL0     H56197  -0.487   6.526   5.325  0.7238 -0.6111  0.8305
  426MOL0     H56198  -0.677   6.638   5.421  0.6491 -0.0067  0.2756
  426MOL0     H56199  -0.690   6.727   5.271 -1.7254  2.9157  0.8378
  426MOL0     H56200  -0.776   6.915   5.387 -0.9271  0.1619  0.3319
  426MOL0     H56201  -0.746   6.837   5.549  0.5269 -0.5623 -0.5001
  426MOL0     H56202  -0.909   6.648   5.492 -0.5638 -0.2999  0.9186
  426MOL0     H56203  -0.947   6.734   5.346  1.6671 -0.6079  0.9495
  426MOL0     H56204  -0.989   6.832   5.635  1.9533 -0.1079 -0.1101
  426MOL0     H56205  -0.983   6.942   5.511 -1.6404  0.2613 -0.5711
  426MOL0     H56206  -1.160   6.827   5.394  1.3329 -0.6488 -0.1383
  426MOL0     H56207  -1.222   6.860   5.559 -3.3149 -1.8186 -1.3980
  426MOL0     H56208  -1.151   6.617   5.617  0.0165  2.2790  1.9461
  426MOL0     H56209  -1.117   6.590   5.451 -0.4190  1.5423 -1.4822
  426MOL0     H56210  -1.338   6.636   5.365  0.6693 -1.6843 -0.2314
  426MOL0     H56211  -1.322   6.492   5.464  1.1939 -0.0250 -1.5452
  426MOL0     H56212  -1.449   6.760   5.548  2.1265 -0.2153 -1.8198
  426MOL0     H56213  -1.396   6.632   5.660  2.7571  1.7747 -0.2109
  426MOL0     H56214  -0.333   6.916   5.380 -0.8060  0.1802  0.5704
  426MOL0     H56215  -0.104   6.839   5.362  0.7215 -0.3444 -1.2995
  426MOL0     H56216   0.096   6.364   5.408  0.4644 -0.5132  1.7652
  426MOL0     H56217   0.297   6.246   5.477  3.7292 -1.3290  0.1393
  426MOL0     H56218   2.050   6.096   5.893  2.9082 -0.8378 -0.9127
  426MOL0     H56219   2.278   6.024   5.935 -1.2763  1.8064 -1.3428
  426MOL0     H56220   2.585   5.796   6.425 -1.0673 -0.2529 -0.3936
  426MOL0     H56221   2.824   5.731   6.412 -0.4936 -3.0893 -0.2080
  426MOL0     H56222   3.050   5.861   6.063  0.2222 -2.5203 -1.3075
  426MOL0     H56223   3.150   5.728   6.115  2.3877  1.6351 -0.6601
  426MOL0     H56224   3.218   5.851   6.312 -0.4268 -3.2279 -1.6858
  426MOL0     H56225   3.247   5.945   6.163 -0.1017 -0.4081 -0.4402
  426MOL0     H56226   3.001   6.006   6.342  0.9476  2.5162  3.0106
  426MOL0     H56227   3.048   6.094   6.198  1.2148  0.6876  0.5446
  426MOL0     H56228   3.226   6.058   6.433 -0.6018  1.4247  0.5657
  426MOL0     H56229   3.253   6.176   6.293  1.8097 -1.1365 -1.8212
  426MOL0     H56230   2.959   6.324   6.592 -0.5309  0.7434 -1.0218
  426MOL0     H56231   2.847   5.878   6.015 -0.0257 -2.2758 -1.1462
  426MOL0     H56232   2.614   5.980   6.037  0.7555  0.4890 -0.0738
  427MOL0     O56233   7.883   4.971   4.898 -0.0046 -0.2495 -0.5804
  427MOL0     C56234   7.862   4.877   4.832 -0.4476  0.2872 -0.7043
  427MOL0     O56235   7.748   4.837   4.772  1.3198 -1.3306 -0.1198
  427MOL0     C56236   7.634   4.902   4.813 -0.1939  0.2778  0.6001
  427MOL0     C56237   7.602   5.037   4.831 -0.3520  0.0898 -0.5034
  427MOL0     C56238   7.477   5.088   4.865 -0.3156 -0.7155  0.0677
  427MOL0     C56239   7.371   4.999   4.898 -0.8789 -0.5643  1.0387
  427MOL0     O56240   7.240   5.034   4.935  0.2642  0.0950 -0.8342
  427MOL0     C56241   7.198   5.161   4.908 -0.7013 -0.4730  0.7556
  427MOL0     C56242   7.045   5.185   4.934  0.1025 -0.0601  0.3677
  427MOL0     C56243   6.991   5.325   4.907 -0.4758  0.6342  0.1098
  427MOL0     C56244   6.841   5.312   4.926  0.2034 -1.1802  0.1364
  427MOL0     C56245   6.787   5.456   4.889  0.1301  0.3491  0.0769
  427MOL0     C56246   6.637   5.471   4.895  0.4256 -0.1098 -1.0609
  427MOL0     C56247   6.592   5.610   4.844  0.0682 -0.3406  0.6782
  427MOL0     C56248   6.585   5.641   4.697  0.2076  0.2545 -0.4819
  427MOL0     N56249   6.464   5.595   4.626 -0.2690  0.5560  0.6020
  427MOL0     C56250   6.413   5.466   4.633  0.7554 -1.0585  0.1599
  427MOL0     C56251   6.315   5.468   4.545  0.0322  0.3050  0.8011
  427MOL0     C56252   6.232   5.347   4.511 -0.4547  0.5623 -0.9358
  427MOL0     C56253   6.109   5.343   4.596  0.2441 -0.1313  0.2745
  427MOL0     C56254   6.017   5.225   4.551 -1.2678  0.2560 -0.3307
  427MOL0     C56255   5.903   5.190   4.646  0.4217  0.1904  1.0783
  427MOL0     O56256   5.812   5.105   4.575 -0.3080  0.2391 -0.3575
  427MOL0     C56257   5.711   5.060   4.651  0.4468 -0.3279  0.4542
  427MOL0     C56258   5.646   5.138   4.748 -0.1518 -0.4855  0.2432
  427MOL0     C56259   5.564   5.080   4.834  0.1799 -0.9133 -0.2741
  427MOL0     C56260   5.534   4.942   4.829 -0.5026 -0.3547 -0.1445
  427MOL0     C56261   5.426   4.881   4.916 -0.7033  0.2849 -0.4508
  427MOL0     O56262   5.395   4.753   4.912  0.7435 -0.2969  0.3282
  427MOL0     C56263   5.298   4.704   4.991  0.6620 -0.6942  0.0481
  427MOL0     C56264   5.165   4.748   4.978 -0.5551  0.0677  0.0080
  427MOL0     C56265   5.060   4.682   5.039 -0.0637  0.4418  1.2047
  427MOL0     C56266   5.086   4.570   5.132  0.3392  0.0611  0.4020
  427MOL0     O56267   4.979   4.505   5.198  0.5680 -0.8323  0.1691
  427MOL0     C56268   4.893   4.593   5.283  0.5129  0.8511  0.9835
  427MOL0     C56269   4.749   4.587   5.215 -0.2475  0.5113 -0.1153
  427MOL0     C56270   4.646   4.637   5.317  0.8993  0.2405 -0.5003
  427MOL0     C56271   4.628   4.551   5.446  0.5290 -0.0651  0.0415
  427MOL0     C56272   4.497   4.596   5.516 -0.2823 -0.1255 -0.2663
  427MOL0     C56273   4.441   4.501   5.628 -1.0471 -0.2334  0.4692
  427MOL0     C56274   4.362   4.380   5.556 -0.2067 -0.6874  0.4273
  427MOL0     C56275   4.318   4.291   5.663  0.3621  0.6836  0.4668
  427MOL0    Cl56276   4.201   4.180   5.588 -0.0373 -0.0431 -0.3568
  427MOL0     C56277   5.216   4.527   5.143 -0.1989  0.2334  0.5602
  427MOL0     C56278   5.321   4.606   5.091 -0.5793  0.4066 -0.1262
  427MOL0     O56279   5.375   4.963   4.992  0.2789 -0.2902  0.6569
  427MOL0     C56280   5.597   4.866   4.730  1.3474 -0.2626 -0.7985
  427MOL0     C56281   5.677   4.923   4.635 -0.1910  0.1297  1.0671
  427MOL0     N56282   6.300   5.595   4.489  0.6520 -0.3230 -0.0157
  427MOL0     N56283   6.385   5.672   4.538 -0.9397 -0.3288  0.0439
  427MOL0     C56284   7.397   4.862   4.877 -0.3566 -0.3569 -0.8134
  427MOL0     C56285   7.520   4.816   4.831  0.1829 -0.4220 -0.3991
  427MOL0     C56286   7.975   4.782   4.823 -0.4524  0.0426  0.1590
  427MOL0     C56287   8.108   4.817   4.867 -0.1552 -0.0690 -0.2189
  427MOL0     C56288   8.207   4.721   4.865  0.8871 -0.2863  0.5209
  427MOL0     C56289   8.176   4.588   4.823  0.6432  0.1621 -0.5413
  427MOL0     O56290   8.274   4.488   4.825  0.5979 -0.2903 -0.3638
  427MOL0     C56291   8.416   4.518   4.847 -0.3707  0.4330 -0.7405
  427MOL0     C56292   8.501   4.389   4.830 -0.4952 -0.3228  0.8548
  427MOL0     C56293   8.443   4.277   4.734 -0.3008 -0.1157 -0.9574
  427MOL0     C56294   8.420   4.327   4.589  0.1657  0.4395 -0.0066
  427MOL0     C56295   8.370   4.224   4.492  0.2272 -0.3840 -0.9165
  427MOL0     C56296   8.336   4.155   4.392  0.5900  0.1765  0.2891
  427MOL0     C56297   8.051   4.559   4.781  0.2695  0.0768 -0.0595
  427MOL0     C56298   7.947   4.650   4.777  0.0844 -0.3193  0.4100
  427MOL0     H56299   7.683   5.106   4.811  0.1283 -0.0564  0.8638
  427MOL0     H56300   7.459   5.196   4.864  1.2176 -0.4210 -1.4202
  427MOL0     H56301   7.226   5.184   4.805  0.0910 -0.7082  0.9100
  427MOL0     H56302   7.241   5.234   4.977 -0.1555  0.2170 -0.2824
  427MOL0     H56303   7.040   5.156   5.039  1.8663 -0.5218  0.3605
  427MOL0     H56304   6.989   5.113   4.873  1.6916  0.1136 -1.4120
  427MOL0     H56305   7.010   5.341   4.800 -1.9561 -2.0294 -0.6412
  427MOL0     H56306   7.035   5.403   4.970  1.2539 -0.3998  0.2268
  427MOL0     H56307   6.790   5.231   4.872 -1.4890  0.0074 -0.1342
  427MOL0     H56308   6.824   5.317   5.034  0.7136  2.8446  0.1963
  427MOL0     H56309   6.811   5.470   4.784 -1.7384 -2.3952 -0.8084
  427MOL0     H56310   6.825   5.541   4.947  1.7498 -1.0240  1.1497
  427MOL0     H56311   6.606   5.461   5.000  1.3330  1.6653 -0.5986
  427MOL0     H56312   6.581   5.387   4.851  1.7319 -0.7434 -1.5761
  427MOL0     H56313   6.489   5.628   4.878 -0.0148  1.1359 -0.2426
  427MOL0     H56314   6.661   5.687   4.880  1.8515 -1.2936 -0.5319
  427MOL0     H56315   6.673   5.590   4.659  0.6923  0.1712  0.7307
  427MOL0     H56316   6.611   5.747   4.684  0.8881  0.1035 -0.3573
  427MOL0     H56317   6.434   5.389   4.707  0.2521  2.0669  3.9288
  427MOL0     H56318   6.289   5.257   4.536 -1.5914  0.5061  1.7861
  427MOL0     H56319   6.212   5.347   4.403 -0.2370  0.2936 -0.9780
  427MOL0     H56320   6.053   5.436   4.583 -2.6416 -1.9541 -1.5860
  427MOL0     H56321   6.139   5.333   4.701  1.7996 -3.1487 -0.3398
  427MOL0     H56322   5.976   5.249   4.452 -0.8970  3.8608  0.2392
  427MOL0     H56323   6.077   5.135   4.541  0.5424  1.1710  1.6652
  427MOL0     H56324   5.857   5.289   4.650  1.4819  1.1435 -3.7979
  427MOL0     H56325   5.939   5.141   4.737  1.3678 -1.1704  0.0023
  427MOL0     H56326   5.662   5.245   4.756 -5.0683  0.4239  1.0535
  427MOL0     H56327   5.506   5.137   4.906 -0.4325 -0.0890 -1.3903
  427MOL0     H56328   5.157   4.834   4.914  2.4529 -0.4310 -1.1656
  427MOL0     H56329   4.959   4.721   5.037  0.5101  1.9590  0.3018
  427MOL0     H56330   4.926   4.697   5.271  0.2384  0.7278 -1.2932
  427MOL0     H56331   4.892   4.554   5.385 -2.5756  0.4139  0.8924
  427MOL0     H56332   4.721   4.484   5.191  0.1441  0.6038 -1.0504
  427MOL0     H56333   4.745   4.643   5.121  0.2411 -0.3108 -0.6385
  427MOL0     H56334   4.552   4.646   5.262  0.0828  0.4513  0.8830
  427MOL0     H56335   4.675   4.734   5.359  2.2638 -1.2582  2.2585
  427MOL0     H56336   4.625   4.445   5.417 -3.3398 -0.5928  1.7787
  427MOL0     H56337   4.712   4.559   5.516 -0.3374 -1.9778  1.4018
  427MOL0     H56338   4.418   4.612   5.442 -0.1985 -0.9774 -0.5529
  427MOL0     H56339   4.522   4.694   5.558 -2.4001  0.4287 -0.1619
  427MOL0     H56340   4.367   4.553   5.689 -1.6898 -0.7415  0.1445
  427MOL0     H56341   4.523   4.472   5.693 -1.6350 -0.8450  0.9531
  427MOL0     H56342   4.273   4.427   5.511  0.0236 -0.2928  0.3834
  427MOL0     H56343   4.423   4.325   5.484 -1.4975 -0.6462 -0.7420
  427MOL0     H56344   4.262   4.358   5.728  0.8050  1.3883  0.1266
  427MOL0     H56345   4.405   4.238   5.703  3.4203  2.5371 -3.1214
  427MOL0     H56346   5.239   4.439   5.202  1.3423  2.2214  3.1823
  427MOL0     H56347   5.423   4.576   5.114 -0.4531  0.7061 -0.2831
  427MOL0     H56348   5.576   4.760   4.724 -0.1513 -0.0047 -0.5039
  427MOL0     H56349   5.707   4.875   4.542 -2.3667 -0.0449  0.3981
  427MOL0     H56350   7.325   4.787   4.907  2.6500 -2.3628  2.0973
  427MOL0     H56351   7.523   4.710   4.805 -0.7538 -0.1903 -1.5114
  427MOL0     H56352   8.128   4.918   4.903  0.4374  0.3959 -1.7702
  427MOL0     H56353   8.305   4.732   4.909  0.6454 -2.1492  1.6334
  427MOL0     H56354   8.433   4.568   4.943 -1.2908  1.9849 -1.3470
  427MOL0     H56355   8.453   4.587   4.770  0.4264  0.3702 -0.4278
  427MOL0     H56356   8.596   4.433   4.797 -0.2030 -0.0813  1.9985
  427MOL0     H56357   8.525   4.343   4.926  0.7188 -1.0265  0.2419
  427MOL0     H56358   8.343   4.244   4.764 -0.4318  0.4035 -0.8267
  427MOL0     H56359   8.513   4.193   4.730  2.0916  1.7397 -0.4176
  427MOL0     H56360   8.348   4.410   4.595 -1.1271 -0.6479 -0.1322
  427MOL0     H56361   8.520   4.358   4.556  0.7589 -0.6529  0.7039
  427MOL0     H56362   8.311   4.096   4.307  0.6874  2.2459 -1.2402
  427MOL0     H56363   8.037   4.454   4.756 -0.1956 -0.3507  1.8494
  427MOL0     H56364   7.851   4.606   4.752  0.3259 -0.4052 -0.3920
  428MOL0     O56365   5.211  10.095   2.052  0.3241 -0.6709  0.1587
  428MOL0     C56366   5.163  10.008   1.987 -0.2958  0.2339  0.6994
  428MOL0     O56367   5.248   9.918   1.916  0.2549  0.1053 -0.6368
  428MOL0     C56368   5.379   9.912   1.931 -0.8412 -0.3635  0.6266
  428MOL0     C56369   5.446   9.835   1.831  0.3863 -0.2604  0.5484
  428MOL0     C56370   5.581   9.815   1.834 -0.0168  0.1502 -0.5355
  428MOL0     C56371   5.664   9.868   1.941  0.4987 -0.4659  0.2026
  428MOL0     O56372   5.797   9.835   1.963 -0.0631 -0.7968 -0.4576
  428MOL0     C56373   5.881   9.871   1.857 -0.1810  1.0271  0.0910
  428MOL0     C56374   6.028   9.873   1.905 -0.0442 -0.0150 -0.1395
  428MOL0     C56375   6.084   9.730   1.943 -0.3183 -0.3627 -0.2709
  428MOL0     C56376   6.234   9.740   1.983  0.4476  0.0495 -0.6384
  428MOL0     C56377   6.323   9.747   1.855  0.4735  0.5351 -0.6344
  428MOL0     C56378   6.471   9.774   1.900 -0.5916 -0.0723 -0.4825
  428MOL0     C56379   6.540   9.652   1.962  0.3137 -0.0633 -0.0611
  428MOL0     C56380   6.686   9.679   2.004  0.3760 -0.9083  0.3726
  428MOL0     N56381   6.775   9.695   1.889 -0.1755 -0.1802  0.1663
  428MOL0     C56382   6.795   9.597   1.797  0.3511  0.3946 -0.2870
  428MOL0     C56383   6.903   9.637   1.729  0.2980 -0.3891 -0.7692
  428MOL0     C56384   6.988   9.561   1.629  0.0131 -0.6622 -0.4736
  428MOL0     C56385   6.960   9.611   1.488  0.6894 -0.2093  0.0554
  428MOL0     C56386   6.867   9.530   1.397 -0.1620 -0.2566 -0.1369
  428MOL0     C56387   6.727   9.502   1.452  0.0676 -0.8673 -0.4367
  428MOL0     O56388   6.736   9.379   1.534 -0.2095 -0.4638  0.0237
  428MOL0     C56389   6.624   9.348   1.608 -0.0912 -0.9524  0.2020
  428MOL0     C56390   6.647   9.236   1.683  0.0656 -0.0950  0.8244
  428MOL0     C56391   6.545   9.184   1.766  0.4660 -0.0016  0.7987
  428MOL0     C56392   6.416   9.242   1.767 -0.8159 -1.0501 -0.2631
  428MOL0     C56393   6.306   9.180   1.846  0.3396  0.6048 -0.4017
  428MOL0     O56394   6.176   9.228   1.821  0.2157  0.2476 -0.4651
  428MOL0     C56395   6.067   9.202   1.901  0.0963  0.0544 -0.0866
  428MOL0     C56396   6.074   9.163   2.036  0.4956  0.5154  0.2902
  428MOL0     C56397   5.955   9.136   2.100  1.3485  0.3808 -0.1054
  428MOL0     C56398   5.830   9.145   2.034 -0.6373  0.7266  0.7590
  428MOL0     O56399   5.727   9.107   2.109  0.8373 -0.4944  0.3047
  428MOL0     C56400   5.596   9.141   2.062  0.1594 -0.2336 -0.4816
  428MOL0     C56401   5.496   9.109   2.181  0.0663 -0.6634 -0.0663
  428MOL0     C56402   5.516   8.974   2.246 -0.7643  0.3269 -0.2763
  428MOL0     C56403   5.498   8.862   2.146 -0.4733  0.1448 -0.3523
  428MOL0     C56404   5.497   8.733   2.227 -0.0141 -0.0580 -0.4302
  428MOL0     C56405   5.484   8.610   2.141  0.3144 -0.0838 -0.6604
  428MOL0     C56406   5.496   8.487   2.237  0.4449  0.0108 -0.3497
  428MOL0     C56407   5.471   8.367   2.144  0.3051  0.3641 -0.1046
  428MOL0    Cl56408   5.291   8.340   2.125 -0.5140 -0.1645  0.1653
  428MOL0     C56409   5.827   9.196   1.896  0.2272  0.0224  0.8207
  428MOL0     C56410   5.945   9.223   1.838 -0.1948 -0.5007  0.1223
  428MOL0     O56411   6.337   9.087   1.922  0.0762  0.4357  0.6247
  428MOL0     C56412   6.401   9.366   1.700 -0.4392  0.5542 -0.6874
  428MOL0     C56413   6.499   9.414   1.614 -0.0069  0.0842 -0.1111
  428MOL0     N56414   6.942   9.759   1.779 -0.4035  0.3393  0.4976
  428MOL0     N56415   6.852   9.799   1.856 -0.4283 -0.0725  0.0722
  428MOL0     C56416   5.600   9.945   2.042  0.0930  0.7135 -0.3331
  428MOL0     C56417   5.460   9.970   2.034  0.4667  0.3439  1.0516
  428MOL0     C56418   5.013   9.993   1.969 -0.9665 -0.2220 -0.2271
  428MOL0     C56419   4.922  10.087   2.014  0.2090 -0.9157 -0.5880
  428MOL0     C56420   4.783  10.059   1.999  0.2657  0.1443 -0.2375
  428MOL0     C56421   4.745   9.935   1.944 -0.4089  0.6780  0.6273
  428MOL0     O56422   4.609   9.916   1.944  0.0272 -0.1718  0.2791
  428MOL0     C56423   4.560   9.815   2.025 -0.1611 -0.2195  0.6750
  428MOL0     C56424   4.421   9.854   2.067  0.4526 -0.0491 -0.5573
  428MOL0     C56425   4.311   9.787   1.975 -0.6988 -0.3317  0.0644
  428MOL0     C56426   4.189   9.875   2.000 -0.2603 -0.8489 -0.5909
  428MOL0     C56427   4.063   9.803   1.977 -0.2962  0.5509 -0.4005
  428MOL0     C56428   3.966   9.725   1.958  0.3813  0.0342 -0.0533
  428MOL0     C56429   4.836   9.838   1.903 -0.3956  0.6518 -0.0743
  428MOL0     C56430   4.968   9.877   1.908  0.4302  0.6963  0.9844
  428MOL0     H56431   5.384   9.792   1.753 -1.1799  0.8605  1.1247
  428MOL0     H56432   5.626   9.768   1.747 -0.3945 -0.3328 -0.4685
  428MOL0     H56433   5.853   9.971   1.822  0.4081  1.9751  2.1715
  428MOL0     H56434   5.883   9.789   1.785 -0.7732 -0.7144  1.9252
  428MOL0     H56435   6.046   9.935   1.994  2.9399  0.9562 -1.2980
  428MOL0     H56436   6.087   9.910   1.821  0.1385 -0.9704 -0.4402
  428MOL0     H56437   6.089   9.662   1.857  0.2255  1.3095 -1.6102
  428MOL0     H56438   6.030   9.685   2.027  1.7992  1.2680  2.1053
  428MOL0     H56439   6.241   9.825   2.050 -1.7305  1.6398 -2.2844
  428MOL0     H56440   6.259   9.646   2.034  1.3355  0.7797  0.2974
  428MOL0     H56441   6.272   9.821   1.791 -0.8579  0.2067  0.0056
  428MOL0     H56442   6.314   9.651   1.804  2.7327 -1.4941  2.4749
  428MOL0     H56443   6.474   9.856   1.972 -1.5378 -0.4451  0.0105
  428MOL0     H56444   6.524   9.798   1.807  1.9631 -3.2134 -0.0222
  428MOL0     H56445   6.488   9.609   2.049 -0.9340 -1.1388 -1.2916
  428MOL0     H56446   6.537   9.574   1.886 -0.9053 -0.7586  0.6648
  428MOL0     H56447   6.707   9.591   2.066 -0.5873 -0.5962  1.1552
  428MOL0     H56448   6.689   9.768   2.068 -3.2301 -0.9694  0.7999
  428MOL0     H56449   6.751   9.498   1.792  2.0495 -0.5620  1.7673
  428MOL0     H56450   6.988   9.452   1.628  1.4947 -0.8147 -4.9323
  428MOL0     H56451   7.087   9.592   1.665  0.2396 -2.3795  0.5169
  428MOL0     H56452   7.053   9.621   1.431  0.7555 -1.3415 -0.0638
  428MOL0     H56453   6.924   9.714   1.489 -0.2345 -0.5114 -0.6036
  428MOL0     H56454   6.869   9.585   1.303  1.7392 -1.6246 -0.9536
  428MOL0     H56455   6.918   9.437   1.372 -0.7866 -0.1100 -2.0685
  428MOL0     H56456   6.652   9.493   1.373 -0.4176 -2.0829  0.1413
  428MOL0     H56457   6.699   9.591   1.509 -1.6297 -0.2759 -2.0547
  428MOL0     H56458   6.741   9.183   1.673  0.1123 -0.1159  1.3663
  428MOL0     H56459   6.559   9.087   1.812 -2.3304 -2.5815 -3.1189
  428MOL0     H56460   6.167   9.154   2.091  0.6658 -0.1426 -0.0829
  428MOL0     H56461   5.956   9.129   2.208  1.5706 -4.4387 -0.1837
  428MOL0     H56462   5.586   9.100   1.961  1.4908 -1.2147 -0.2413
  428MOL0     H56463   5.587   9.249   2.054 -2.3935  0.0336  3.4086
  428MOL0     H56464   5.394   9.120   2.144  0.3043 -0.3431 -0.6350
  428MOL0     H56465   5.515   9.170   2.270 -0.1844 -1.0901  0.2872
  428MOL0     H56466   5.459   8.959   2.339 -0.7200  0.4670 -0.2274
  428MOL0     H56467   5.622   8.975   2.273 -1.5651  0.5238  3.5584
  428MOL0     H56468   5.411   8.872   2.081  0.6828  1.0172 -1.8312
  428MOL0     H56469   5.584   8.872   2.079  0.3205  1.2044  0.7720
  428MOL0     H56470   5.409   8.739   2.290 -0.8376  1.4287 -1.6437
  428MOL0     H56471   5.584   8.726   2.294  0.3768 -4.2422 -1.1012
  428MOL0     H56472   5.571   8.601   2.075  0.3159  0.6314 -0.7566
  428MOL0     H56473   5.399   8.603   2.073 -0.6359 -1.7619  0.6402
  428MOL0     H56474   5.596   8.477   2.280 -0.1733 -3.7705  0.5881
  428MOL0     H56475   5.423   8.488   2.318  0.9469 -3.7065  0.3326
  428MOL0     H56476   5.521   8.281   2.189  1.1523  0.0563 -1.5773
  428MOL0     H56477   5.512   8.380   2.044 -0.6527  2.1804 -0.3089
  428MOL0     H56478   5.736   9.234   1.850 -0.1911  0.7287  2.1892
  428MOL0     H56479   5.949   9.260   1.736  0.6500 -2.1784 -0.4932
  428MOL0     H56480   6.307   9.420   1.715  0.2986  1.4581  0.8480
  428MOL0     H56481   6.465   9.506   1.568 -4.4582 -1.2714 -0.0848
  428MOL0     H56482   5.655   9.999   2.118  1.2177 -3.0350  1.8024
  428MOL0     H56483   5.425  10.047   2.102 -2.0697  0.0522  0.1884
  428MOL0     H56484   4.949  10.178   2.066  0.6636 -0.9493 -0.7702
  428MOL0     H56485   4.707  10.125   2.040  0.5823  0.2274  0.2135
  428MOL0     H56486   4.621   9.787   2.112  2.7986 -1.1234 -1.5294
  428MOL0     H56487   4.566   9.723   1.966  0.3190 -1.3123  2.3597
  428MOL0     H56488   4.414   9.810   2.167  1.5251  0.7600 -0.1063
  428MOL0     H56489   4.411   9.962   2.082  0.2510 -0.3928  2.3975
  428MOL0     H56490   4.291   9.682   1.996 -1.1596 -0.7284 -2.1642
  428MOL0     H56491   4.341   9.786   1.870 -2.9924  0.2900 -0.6565
  428MOL0     H56492   4.183   9.906   2.105 -0.6398  0.2231 -0.9171
  428MOL0     H56493   4.192   9.964   1.936 -0.9933 -0.5061 -0.1690
  428MOL0     H56494   3.887   9.662   1.923 -0.0699  0.7103 -0.2721
  428MOL0     H56495   4.805   9.737   1.879  0.2526  0.2964  0.5300
  428MOL0     H56496   5.033   9.803   1.864  1.6388  0.4210  3.0653
  429MOL0     O56497   8.224   2.233   6.113  0.4494 -0.1691 -1.3019
  429MOL0     C56498   8.219   2.353   6.137 -0.1549  0.3580 -0.0761
  429MOL0     O56499   8.108   2.421   6.165  0.1558  0.3128  0.1237
  429MOL0     C56500   7.996   2.347   6.182  0.7360  0.0066  0.0145
  429MOL0     C56501   7.957   2.319   6.313 -0.0076 -0.4180  0.2016
  429MOL0     C56502   7.843   2.240   6.328 -0.3403 -0.5353  0.3743
  429MOL0     C56503   7.764   2.200   6.226 -0.4440 -0.3023  1.3764
  429MOL0     O56504   7.641   2.147   6.254 -0.7813  0.4321  0.3616
  429MOL0     C56505   7.520   2.189   6.188  0.3608 -0.5449  0.0453
  429MOL0     C56506   7.397   2.123   6.248  0.1692  0.5181  0.2132
  429MOL0     C56507   7.252   2.145   6.181  0.0738  0.1615  0.2469
  429MOL0     C56508   7.150   2.036   6.229 -1.3020  0.2419  0.4906
  429MOL0     C56509   7.001   2.054   6.195  0.4385 -0.4825  1.0746
  429MOL0     C56510   6.912   1.972   6.283  0.4507 -0.4529  0.0059
  429MOL0     C56511   6.775   1.955   6.219 -0.0592 -0.4625 -0.2645
  429MOL0     C56512   6.682   1.872   6.298  0.5040  0.2978  0.1564
  429MOL0     N56513   6.558   1.844   6.220 -0.6021  0.1787  0.5473
  429MOL0     C56514   6.532   1.863   6.081  0.1657 -0.9058 -0.2370
  429MOL0     C56515   6.413   1.820   6.061  1.3489 -0.1400 -0.5442
  429MOL0     C56516   6.342   1.798   5.927  0.9815 -0.1580  0.6770
  429MOL0     C56517   6.188   1.824   5.930  0.0075  0.0274  0.6030
  429MOL0     C56518   6.113   1.790   5.807 -0.3577 -0.3441 -1.0205
  429MOL0     C56519   5.964   1.798   5.832 -1.2874  0.1047  0.8440
  429MOL0     O56520   5.903   1.720   5.728 -0.0097 -0.1577  0.5429
  429MOL0     C56521   5.767   1.729   5.713  0.7579 -0.1445 -0.6845
  429MOL0     C56522   5.715   1.660   5.604  0.4141  0.4711 -0.1505
  429MOL0     C56523   5.580   1.678   5.557 -0.5100 -0.5341  0.3342
  429MOL0     C56524   5.496   1.778   5.621 -0.1961  0.6181  0.0765
  429MOL0     C56525   5.363   1.806   5.568 -0.5657 -1.0954  0.1606
  429MOL0     O56526   5.330   1.752   5.450  0.5561  0.4476 -0.4223
  429MOL0     C56527   5.200   1.736   5.410 -0.2112 -0.3583 -0.2165
  429MOL0     C56528   5.105   1.826   5.430  0.7369  0.6271  0.1137
  429MOL0     C56529   4.984   1.809   5.369 -0.6663  0.3327 -0.0137
  429MOL0     C56530   4.951   1.679   5.311 -0.6810 -0.8246 -0.1348
  429MOL0     O56531   4.824   1.665   5.284 -0.2284 -0.4207  0.0149
  429MOL0     C56532   4.774   1.532   5.259 -0.0833 -0.5243  0.1095
  429MOL0     C56533   4.621   1.529   5.232 -0.9706 -0.7821 -0.7339
  429MOL0     C56534   4.582   1.394   5.165 -0.2063 -0.6942  0.1296
  429MOL0     C56535   4.578   1.279   5.263 -0.6268 -0.1036 -0.4289
  429MOL0     C56536   4.519   1.156   5.215 -0.7673 -1.0603  0.2742
  429MOL0     C56537   4.569   1.090   5.088  0.6952 -0.1287 -0.4704
  429MOL0     C56538   4.502   0.955   5.069 -0.5303  0.9811 -0.1956
  429MOL0     C56539   4.527   0.890   4.934  0.2228 -0.9218  0.0311
  429MOL0    Cl56540   4.692   0.909   4.881 -0.6062 -0.0054 -0.1574
  429MOL0     C56541   5.052   1.583   5.305  0.1391  0.2448  0.0764
  429MOL0     C56542   5.177   1.614   5.347 -0.1624  0.8755  0.0092
  429MOL0     O56543   5.301   1.886   5.635 -0.3546  0.5366  0.0077
  429MOL0     C56544   5.551   1.845   5.733  1.1788 -0.1588  0.2005
  429MOL0     C56545   5.680   1.816   5.785  0.2401 -0.1747  0.1851
  429MOL0     N56546   6.343   1.793   6.180 -0.6131  0.4060  0.2136
  429MOL0     N56547   6.437   1.802   6.275 -0.0717  0.1525  0.3466
  429MOL0     C56548   7.796   2.232   6.090 -0.6574  0.0263  0.1648
  429MOL0     C56549   7.919   2.298   6.073 -0.3749  0.8118 -0.5574
  429MOL0     C56550   8.348   2.423   6.127 -0.9740  0.3417  0.6075
  429MOL0     C56551   8.465   2.363   6.090 -0.2364  0.8276  0.3945
  429MOL0     C56552   8.586   2.423   6.063  0.1863  0.8903 -0.2186
  429MOL0     C56553   8.587   2.564   6.079 -0.7079  0.2469 -0.4353
  429MOL0     O56554   8.692   2.639   6.028  0.7345 -0.3286  0.5600
  429MOL0     C56555   8.687   2.675   5.886  0.1217  0.1989  0.5850
  429MOL0     C56556   8.747   2.814   5.845  0.4464 -0.3893  1.1065
  429MOL0     C56557   8.894   2.825   5.880 -1.2075 -0.5731  0.4793
  429MOL0     C56558   8.955   2.972   5.887 -0.1187 -1.0780  0.7845
  429MOL0     C56559   8.928   3.031   5.756  1.0157 -0.3131 -0.0699
  429MOL0     C56560   8.908   3.090   5.649 -0.5268  0.0155 -0.1514
  429MOL0     C56561   8.472   2.631   6.126 -0.2262 -0.0230 -0.1463
  429MOL0     C56562   8.346   2.561   6.143  0.0491  0.1388  0.3007
  429MOL0     H56563   8.022   2.350   6.395  0.9164  0.6334 -0.8716
  429MOL0     H56564   7.813   2.217   6.430  0.2984  0.9466  0.9272
  429MOL0     H56565   7.513   2.156   6.084 -1.6193  1.2213 -0.4475
  429MOL0     H56566   7.516   2.298   6.195 -2.2205 -0.2283 -3.7444
  429MOL0     H56567   7.399   2.155   6.353  1.7478 -0.9049  0.6711
  429MOL0     H56568   7.419   2.016   6.259  3.6033  1.0787 -0.2632
  429MOL0     H56569   7.267   2.142   6.073  1.5989 -0.6240  0.4641
  429MOL0     H56570   7.220   2.248   6.201  0.6084  0.4636 -0.4071
  429MOL0     H56571   7.181   1.935   6.201  0.8217  0.4262  1.9619
  429MOL0     H56572   7.151   2.040   6.338 -0.7320 -0.5042  0.5153
  429MOL0     H56573   6.994   2.024   6.090 -1.5518  1.7043  0.5169
  429MOL0     H56574   6.964   2.155   6.210 -1.4568 -1.0409  0.3684
  429MOL0     H56575   6.906   2.031   6.375  0.2673 -0.1350 -0.2085
  429MOL0     H56576   6.964   1.878   6.301  1.9169 -1.1200 -5.6448
  429MOL0     H56577   6.727   2.052   6.202 -1.8417 -1.3960 -0.8154
  429MOL0     H56578   6.799   1.903   6.125  1.2618  1.1432 -0.8806
  429MOL0     H56579   6.650   1.910   6.396  3.2554  1.9205  0.5404
  429MOL0     H56580   6.732   1.776   6.313  1.1344  0.6905  0.5840
  429MOL0     H56581   6.611   1.898   6.015  1.2130 -2.7146 -0.0139
  429MOL0     H56582   6.344   1.696   5.888 -0.7910 -0.5589  1.5428
  429MOL0     H56583   6.389   1.865   5.854 -4.1387  2.5716 -0.5650
  429MOL0     H56584   6.172   1.931   5.944 -1.1073  0.5721 -3.4683
  429MOL0     H56585   6.141   1.776   6.016  0.4060 -1.2546  0.1329
  429MOL0     H56586   6.153   1.854   5.728 -0.9648  1.2577 -0.0796
  429MOL0     H56587   6.136   1.683   5.795 -1.0223 -0.7073  0.5530
  429MOL0     H56588   5.925   1.899   5.821 -1.2483 -0.1607 -3.3179
  429MOL0     H56589   5.929   1.766   5.931  1.1203  0.2890  1.8316
  429MOL0     H56590   5.781   1.603   5.538  2.3570  2.8847 -0.4386
  429MOL0     H56591   5.548   1.634   5.463 -2.0540  0.1727  0.5089
  429MOL0     H56592   5.123   1.911   5.494 -0.5019  1.7572 -0.9719
  429MOL0     H56593   4.911   1.890   5.371 -0.4264  0.6219 -1.6172
  429MOL0     H56594   4.801   1.473   5.348 -0.3587 -0.7784  0.0239
  429MOL0     H56595   4.828   1.497   5.171  0.8597  0.2903  0.3413
  429MOL0     H56596   4.595   1.606   5.159 -0.4019 -0.0260 -0.1446
  429MOL0     H56597   4.566   1.543   5.325  0.7290 -0.9954  0.3308
  429MOL0     H56598   4.648   1.372   5.081 -1.7556 -1.7557 -0.8604
  429MOL0     H56599   4.485   1.423   5.124  0.2136  0.6086  0.0315
  429MOL0     H56600   4.677   1.251   5.300 -1.6148 -2.0045  0.9162
  429MOL0     H56601   4.516   1.302   5.350 -1.8357 -0.7229 -1.1010
  429MOL0     H56602   4.415   1.183   5.192  0.1310  2.8301 -0.0239
  429MOL0     H56603   4.518   1.084   5.297 -2.0705 -0.6613  0.6484
  429MOL0     H56604   4.678   1.079   5.083  0.6109 -2.8475  1.3980
  429MOL0     H56605   4.536   1.158   5.009 -1.1792  0.1136  0.4713
  429MOL0     H56606   4.545   0.882   5.138 -0.1826  0.3981 -1.0167
  429MOL0     H56607   4.396   0.976   5.086 -0.5795  0.8904 -0.3957
  429MOL0     H56608   4.472   0.946   4.858  0.4826 -0.4036  0.2203
  429MOL0     H56609   4.510   0.782   4.924  1.7878 -0.9509 -4.6330
  429MOL0     H56610   5.033   1.484   5.266  0.1325 -1.2913  3.5593
  429MOL0     H56611   5.258   1.541   5.347 -1.2179 -0.3610  0.7904
  429MOL0     H56612   5.496   1.931   5.768  1.2713 -0.3864  0.9114
  429MOL0     H56613   5.726   1.875   5.863  2.0600  1.3215 -1.8694
  429MOL0     H56614   7.742   2.205   6.000  0.3061  1.6561 -0.9589
  429MOL0     H56615   7.955   2.326   5.974 -0.0493 -0.8445 -0.9401
  429MOL0     H56616   8.455   2.259   6.062 -2.2308  0.6867  1.4363
  429MOL0     H56617   8.680   2.382   6.029  0.1941  0.9418 -0.2594
  429MOL0     H56618   8.583   2.675   5.853  0.0477  0.9877  0.7833
  429MOL0     H56619   8.737   2.596   5.830  0.6967  1.2107 -0.3751
  429MOL0     H56620   8.744   2.831   5.737  1.2743  4.3927  1.6231
  429MOL0     H56621   8.695   2.895   5.897 -1.3955  1.6879 -3.4410
  429MOL0     H56622   8.950   2.765   5.809 -1.3501 -3.5268  2.6932
  429MOL0     H56623   8.904   2.786   5.982 -3.6983 -1.6786  0.3879
  429MOL0     H56624   8.910   3.032   5.966 -0.3477  3.0912 -2.1732
  429MOL0     H56625   9.060   2.970   5.919 -0.2509 -1.9934  1.1927
  429MOL0     H56626   8.895   3.122   5.548 -1.2765 -0.6572 -0.2837
  429MOL0     H56627   8.472   2.737   6.148 -0.9125 -0.5697  2.9230
  429MOL0     H56628   8.264   2.620   6.183  0.6649 -0.6239  2.8448
  430MOL0     O56629   2.825   0.495   5.302  0.4014  0.2704 -0.1590
  430MOL0     C56630   2.839   0.557   5.410 -0.5743 -0.4274 -0.0007
  430MOL0     O56631   2.742   0.628   5.467 -0.3405  0.6095  0.5353
  430MOL0     C56632   2.616   0.649   5.409  0.2916  0.3078 -0.1014
  430MOL0     C56633   2.607   0.740   5.297  0.9257 -0.0127 -0.9278
  430MOL0     C56634   2.479   0.782   5.253 -0.1320  0.3766 -0.6128
  430MOL0     C56635   2.368   0.748   5.325 -0.3450  0.0479  0.6913
  430MOL0     O56636   2.257   0.783   5.259 -0.6023 -0.5041 -0.8353
  430MOL0     C56637   2.130   0.741   5.314  0.7004  0.9670 -1.0066
  430MOL0     C56638   2.071   0.835   5.421  0.5696 -0.6354 -0.1799
  430MOL0     C56639   1.932   0.803   5.473 -0.3247 -0.3722 -0.3191
  430MOL0     C56640   1.818   0.824   5.370  1.3063  0.0379  0.0158
  430MOL0     C56641   1.676   0.860   5.423 -0.2405 -0.6275 -0.6316
  430MOL0     C56642   1.638   0.771   5.549  0.5005 -0.1099  0.9248
  430MOL0     C56643   1.506   0.828   5.610 -0.1440  0.3123  0.1614
  430MOL0     C56644   1.392   0.734   5.609 -0.0100  0.5007 -0.0279
  430MOL0     N56645   1.254   0.792   5.602 -0.4394  0.2176 -0.6493
  430MOL0     C56646   1.218   0.918   5.652  0.1701 -0.0621  0.2141
  430MOL0     C56647   1.089   0.934   5.610  0.5965 -0.6073 -0.2520
  430MOL0     C56648   0.987   1.044   5.631  0.0826  0.6241  0.5190
  430MOL0     C56649   1.044   1.150   5.721 -0.7813  0.0663  0.4705
  430MOL0     C56650   1.006   1.139   5.859  0.2622  0.2972 -0.0417
  430MOL0     C56651   0.853   1.175   5.885 -0.6455  0.1886 -0.0790
  430MOL0     O56652   0.816   1.173   6.016  0.4372  0.5949  0.0185
  430MOL0     C56653   0.684   1.204   6.048  0.6579  0.2397  0.8934
  430MOL0     C56654   0.580   1.218   5.956 -0.2413  0.1699 -0.1888
  430MOL0     C56655   0.448   1.257   6.001 -0.0102  1.2245  0.6187
  430MOL0     C56656   0.428   1.285   6.131 -0.0504 -0.7626 -1.0750
  430MOL0     C56657   0.291   1.319   6.181 -0.6140  0.1661 -0.1625
  430MOL0     O56658   0.179   1.274   6.110 -0.3703 -0.2525  0.1574
  430MOL0     C56659   0.061   1.263   6.175  0.1240  0.1626  0.7079
  430MOL0     C56660   0.009   1.367   6.255  0.0940  0.7238  0.0690
  430MOL0     C56661  -0.103   1.353   6.343 -0.3805 -0.4948 -0.7443
  430MOL0     C56662  -0.164   1.224   6.340 -0.2411 -0.0158  0.6011
  430MOL0     O56663  -0.285   1.225   6.418 -0.6324  0.5807  0.4551
  430MOL0     C56664  -0.377   1.122   6.401  0.6262  0.0295 -1.2068
  430MOL0     C56665  -0.515   1.181   6.456  0.4422 -0.4325  0.3016
  430MOL0     C56666  -0.585   1.286   6.382  0.6876 -0.3531 -0.2068
  430MOL0     C56667  -0.737   1.310   6.435 -0.5256 -0.2452  0.3678
  430MOL0     C56668  -0.797   1.430   6.353  0.0867 -0.0240  0.2120
  430MOL0     C56669  -0.944   1.462   6.390 -0.4084  0.3643  1.0647
  430MOL0     C56670  -1.045   1.365   6.330  0.1998  0.2472 -0.4117
  430MOL0     C56671  -1.180   1.427   6.349  0.5617  0.3263  0.4687
  430MOL0    Cl56672  -1.298   1.305   6.282 -0.3439  0.4458  0.0696
  430MOL0     C56673  -0.118   1.122   6.255  0.7638  0.0135  0.2324
  430MOL0     C56674  -0.006   1.142   6.174  0.0835 -0.1405 -0.2305
  430MOL0     O56675   0.282   1.370   6.295  0.2052  1.0483 -0.3944
  430MOL0     C56676   0.538   1.291   6.214 -0.1591  0.4742  0.2044
  430MOL0     C56677   0.660   1.242   6.176 -0.2556  0.0920  0.3791
  430MOL0     N56678   1.045   0.810   5.564  0.5598 -0.0779 -0.0709
  430MOL0     N56679   1.148   0.728   5.549  0.5549 -0.1838  0.0974
  430MOL0     C56680   2.373   0.663   5.438 -0.1972 -0.0121 -0.1590
  430MOL0     C56681   2.502   0.620   5.479  0.1124 -1.1263 -0.2854
  430MOL0     C56682   2.983   0.555   5.474 -0.1205  0.0085  0.2986
  430MOL0     C56683   3.038   0.645   5.567 -0.1188  0.2252  0.5181
  430MOL0     C56684   3.172   0.658   5.584 -0.3902 -0.3897 -0.2082
  430MOL0     C56685   3.267   0.563   5.536  0.2092  0.6888  0.1716
  430MOL0     O56686   3.403   0.574   5.563  0.3858 -0.0110  0.6314
  430MOL0     C56687   3.495   0.498   5.478 -0.5555  0.3310 -0.5517
  430MOL0     C56688   3.638   0.522   5.524  0.4339  0.2342  0.1515
  430MOL0     C56689   3.657   0.496   5.672  1.3566 -0.3487 -0.8205
  430MOL0     C56690   3.714   0.616   5.745 -0.2017 -0.3453  1.0115
  430MOL0     C56691   3.845   0.649   5.687 -0.1250  0.1725  0.0827
  430MOL0     C56692   3.963   0.656   5.648 -0.4984 -0.4497 -0.4488
  430MOL0     C56693   3.207   0.467   5.453 -0.5107 -0.0365  0.5550
  430MOL0     C56694   3.077   0.477   5.408  0.1053  0.3862  0.8282
  430MOL0     H56695   2.703   0.763   5.251  1.5639 -2.3295 -0.8503
  430MOL0     H56696   2.466   0.840   5.163  0.2605 -1.9892 -2.2765
  430MOL0     H56697   2.138   0.640   5.356  0.8858  1.1537 -0.5856
  430MOL0     H56698   2.061   0.727   5.231 -0.3635  2.1148 -0.3555
  430MOL0     H56699   2.070   0.925   5.359  0.8191 -1.5933 -1.6467
  430MOL0     H56700   2.133   0.862   5.506 -2.0376  1.2977  1.2413
  430MOL0     H56701   1.924   0.880   5.550  2.0187  0.3578 -0.7058
  430MOL0     H56702   1.941   0.699   5.507  0.7240 -0.3911 -0.5886
  430MOL0     H56703   1.853   0.893   5.293 -0.9288  1.6818  0.3725
  430MOL0     H56704   1.806   0.731   5.314  2.2296 -0.7205  1.0173
  430MOL0     H56705   1.610   0.840   5.339  0.7631 -2.5150 -1.0414
  430MOL0     H56706   1.675   0.967   5.443 -0.6197 -0.6291 -0.6355
  430MOL0     H56707   1.723   0.781   5.618  0.6247  3.0908  0.4597
  430MOL0     H56708   1.626   0.665   5.526 -0.5818  0.1997  0.0029
  430MOL0     H56709   1.522   0.859   5.714  1.8014 -1.3046  0.4204
  430MOL0     H56710   1.487   0.921   5.556 -1.0662  1.2469  1.9935
  430MOL0     H56711   1.388   0.672   5.699  1.8483 -1.5272 -1.2456
  430MOL0     H56712   1.399   0.663   5.526 -3.0389  1.2427 -1.0346
  430MOL0     H56713   1.294   0.983   5.694 -0.8216  1.7667 -0.6967
  430MOL0     H56714   0.896   0.995   5.666  0.4799 -1.5199 -1.1918
  430MOL0     H56715   0.961   1.085   5.533 -0.5612 -0.8604  0.0393
  430MOL0     H56716   0.998   1.243   5.686 -1.9915 -0.3204  0.9990
  430MOL0     H56717   1.151   1.168   5.706 -0.7248  0.9563  1.7653
  430MOL0     H56718   1.028   1.041   5.903 -0.4919  1.1795  2.4425
  430MOL0     H56719   1.057   1.212   5.921 -1.5832  1.4819  0.1425
  430MOL0     H56720   0.794   1.107   5.823 -1.9476  0.7755  0.4818
  430MOL0     H56721   0.826   1.272   5.841 -1.5182  0.3735  0.8327
  430MOL0     H56722   0.606   1.190   5.855  0.9542  3.0602 -0.7681
  430MOL0     H56723   0.369   1.254   5.927  1.2932  1.6764 -0.8329
  430MOL0     H56724   0.059   1.463   6.257  2.4898 -0.3500  4.1568
  430MOL0     H56725  -0.144   1.436   6.400 -0.4120 -0.1277 -1.2921
  430MOL0     H56726  -0.342   1.033   6.454  2.4327  0.7553 -1.0960
  430MOL0     H56727  -0.397   1.100   6.296 -1.8940  1.7515 -1.1675
  430MOL0     H56728  -0.504   1.197   6.563 -1.0025 -3.0119  0.9273
  430MOL0     H56729  -0.581   1.094   6.452 -1.6563  1.0859  0.3871
  430MOL0     H56730  -0.593   1.258   6.276  1.1489 -0.1044 -0.3102
  430MOL0     H56731  -0.530   1.380   6.388  2.6275 -1.3260 -1.7213
  430MOL0     H56732  -0.792   1.219   6.411 -0.2758 -1.2272  3.2493
  430MOL0     H56733  -0.754   1.317   6.542 -4.9172  0.4982 -0.1931
  430MOL0     H56734  -0.786   1.408   6.247  0.8623 -0.5522  0.3906
  430MOL0     H56735  -0.739   1.521   6.371 -0.9982  0.5327  1.0194
  430MOL0     H56736  -0.962   1.559   6.344  1.0780 -0.3598 -1.2086
  430MOL0     H56737  -0.956   1.462   6.499  1.8401  0.9976  1.3585
  430MOL0     H56738  -1.034   1.350   6.222  3.4612 -1.7280  0.0558
  430MOL0     H56739  -1.041   1.270   6.383 -1.5644  0.2577 -0.2012
  430MOL0     H56740  -1.197   1.515   6.286 -2.9214 -0.2476  0.4066
  430MOL0     H56741  -1.213   1.447   6.451  1.4115  0.4684  0.7218
  430MOL0     H56742  -0.158   1.021   6.258  1.0334 -0.1403 -0.8906
  430MOL0     H56743   0.021   1.057   6.113 -1.2760 -0.2119 -0.7748
  430MOL0     H56744   0.533   1.328   6.316  3.7796 -0.1374  0.7832
  430MOL0     H56745   0.739   1.241   6.250 -0.0028 -0.0354  0.1102
  430MOL0     H56746   2.297   0.634   5.510  0.3261 -0.0640  0.3791
  430MOL0     H56747   2.511   0.576   5.578  4.9176 -0.2513 -0.0973
  430MOL0     H56748   2.968   0.714   5.613 -0.5633  1.5024 -1.9220
  430MOL0     H56749   3.196   0.729   5.663  1.1801 -0.5139 -0.5378
  430MOL0     H56750   3.489   0.525   5.372  4.5147  0.5448 -1.0607
  430MOL0     H56751   3.473   0.392   5.496  2.7734 -0.2769  0.6736
  430MOL0     H56752   3.712   0.466   5.465 -1.1052 -0.8891 -0.7785
  430MOL0     H56753   3.667   0.625   5.501 -0.0493 -0.1064 -2.2878
  430MOL0     H56754   3.730   0.414   5.672  1.6797 -0.0777  0.2665
  430MOL0     H56755   3.564   0.459   5.717  0.7328 -0.7487 -2.3663
  430MOL0     H56756   3.646   0.701   5.739  0.4087  0.0608 -0.4621
  430MOL0     H56757   3.729   0.589   5.850  1.3344  0.7842  1.1163
  430MOL0     H56758   4.068   0.670   5.631 -0.4056  1.6884  1.3368
  430MOL0     H56759   3.268   0.382   5.427 -2.9740 -2.1067  1.1363
  430MOL0     H56760   3.039   0.399   5.343 -2.8610  0.1884  2.6210
  431MOL0     O56761   5.917   6.573   6.767 -0.2354 -0.1831  0.0550
  431MOL0     C56762   6.013   6.652   6.784 -0.5682  0.5527 -0.1445
  431MOL0     O56763   6.007   6.785   6.816  0.0133 -0.0719 -0.2743
  431MOL0     C56764   5.893   6.858   6.832  0.1225  1.2740 -0.5227
  431MOL0     C56765   5.906   6.971   6.912 -0.1041  0.2038 -0.3032
  431MOL0     C56766   5.794   7.048   6.940  0.0137  0.3564  1.8089
  431MOL0     C56767   5.667   7.007   6.901 -0.1353  0.1924  0.4607
  431MOL0     O56768   5.567   7.070   6.952 -0.0208  0.0933  0.0188
  431MOL0     C56769   5.464   6.991   7.002 -0.6795  0.4875  0.4587
  431MOL0     C56770   5.340   7.079   7.013  0.5311 -0.0554 -0.0841
  431MOL0     C56771   5.224   7.001   7.082  0.0559  0.3624 -0.2736
  431MOL0     C56772   5.096   7.063   7.119 -0.9070 -0.3896 -0.5610
  431MOL0     C56773   4.971   6.979   7.102  0.0950  0.0204  0.7783
  431MOL0     C56774   4.852   7.034   7.173  0.1204  0.0902 -0.1712
  431MOL0     C56775   4.726   6.955   7.153  0.3003  0.7247  0.1113
  431MOL0     C56776   4.629   7.034   7.053 -0.1299 -0.1170  0.1370
  431MOL0     N56777   4.506   6.954   7.036  0.7652 -0.1678  0.0945
  431MOL0     C56778   4.386   6.956   7.102 -0.2355 -0.2199  0.4913
  431MOL0     C56779   4.303   6.870   7.036 -0.3143  0.5269 -0.1857
  431MOL0     C56780   4.170   6.818   7.074  0.5773  0.0123 -0.3444
  431MOL0     C56781   4.084   6.763   6.955 -0.1694 -0.1814 -0.6381
  431MOL0     C56782   3.975   6.674   7.009  0.5085  1.0541 -0.6365
  431MOL0     C56783   3.845   6.671   6.922  0.7706 -0.2587 -0.9120
  431MOL0     O56784   3.762   6.568   6.967  0.2088 -0.5846 -0.7957
  431MOL0     C56785   3.631   6.568   6.917  1.3606 -0.1273  0.2366
  431MOL0     C56786   3.586   6.632   6.799  0.3292  0.5694  0.0168
  431MOL0     C56787   3.451   6.627   6.763 -0.0331 -0.4636  0.2974
  431MOL0     C56788   3.357   6.561   6.843  0.2415 -1.0828 -0.1785
  431MOL0     C56789   3.206   6.567   6.809  0.8231 -0.4800 -0.5014
  431MOL0     O56790   3.152   6.641   6.706 -0.5099  0.2490  0.5904
  431MOL0     C56791   3.014   6.647   6.697 -1.0091 -0.0675  0.4550
  431MOL0     C56792   2.965   6.631   6.565 -0.3078  0.3590  0.2970
  431MOL0     C56793   2.826   6.614   6.547  0.2218 -0.9114  0.0024
  431MOL0     C56794   2.735   6.625   6.663  0.4316 -0.7630 -0.2050
  431MOL0     O56795   2.592   6.624   6.658 -1.2305 -0.2487  0.3428
  431MOL0     C56796   2.540   6.596   6.527 -0.0554 -1.0790 -0.1995
  431MOL0     C56797   2.386   6.578   6.524  0.1495 -0.6084 -0.1750
  431MOL0     C56798   2.328   6.449   6.588  0.1845 -0.7307 -0.2392
  431MOL0     C56799   2.364   6.433   6.741  0.7122 -0.0361 -0.5046
  431MOL0     C56800   2.312   6.298   6.789  0.4034 -0.7215  0.9491
  431MOL0     C56801   2.350   6.280   6.939 -0.0755 -0.5802 -0.4403
  431MOL0     C56802   2.263   6.172   7.005 -0.3111  0.2222 -0.1596
  431MOL0     C56803   2.282   6.188   7.158 -0.1188  0.1567 -0.5740
  431MOL0    Cl56804   2.447   6.123   7.197  0.1451 -0.3666 -0.0937
  431MOL0     C56805   2.792   6.649   6.784 -0.7567  0.8684 -0.1826
  431MOL0     C56806   2.926   6.651   6.810 -0.3520 -0.4327 -0.2211
  431MOL0     O56807   3.142   6.496   6.892  0.5172  0.6078  0.3307
  431MOL0     C56808   3.403   6.503   6.963  0.1503 -0.1504 -0.0072
  431MOL0     C56809   3.539   6.507   6.997 -0.1243  0.2841  0.5294
  431MOL0     N56810   4.376   6.815   6.935 -0.6485  0.3991  0.1683
  431MOL0     N56811   4.493   6.870   6.933  0.2040  0.4290  0.1299
  431MOL0     C56812   5.659   6.902   6.806 -0.4677 -0.4808 -0.3942
  431MOL0     C56813   5.766   6.828   6.780 -0.1927  0.4737  0.7313
  431MOL0     C56814   6.143   6.590   6.777 -0.1552  0.6928 -0.3459
  431MOL0     C56815   6.154   6.451   6.766 -0.3101 -0.4786  0.0336
  431MOL0     C56816   6.286   6.395   6.749  0.0680  0.4488 -0.4683
  431MOL0     C56817   6.405   6.468   6.755  0.6621 -0.1059 -0.6259
  431MOL0     O56818   6.527   6.407   6.742 -1.0546  0.1717  0.2935
  431MOL0     C56819   6.646   6.489   6.737 -0.2595 -0.1076 -0.9863
  431MOL0     C56820   6.767   6.391   6.746 -0.1038  0.3862 -0.1402
  431MOL0     C56821   6.896   6.478   6.765  0.0913  0.4042 -0.0059
  431MOL0     C56822   7.028   6.396   6.796  0.7147 -0.2988 -0.1587
  431MOL0     C56823   7.131   6.484   6.850 -0.4997  0.7364 -0.1075
  431MOL0     C56824   7.229   6.555   6.890  0.1482 -1.0124  0.0580
  431MOL0     C56825   6.387   6.608   6.768  0.0116 -0.4066  0.5349
  431MOL0     C56826   6.257   6.664   6.781  0.7798 -0.9331 -0.1697
  431MOL0     H56827   5.999   6.993   6.963  0.6413  1.2162 -2.0145
  431MOL0     H56828   5.800   7.131   7.009  0.4583  1.7061  0.2018
  431MOL0     H56829   5.494   6.959   7.102  0.4282  0.4642  0.1276
  431MOL0     H56830   5.452   6.898   6.947  0.1601  0.4438  0.3439
  431MOL0     H56831   5.303   7.118   6.917  0.7400  2.7954  0.8767
  431MOL0     H56832   5.374   7.171   7.063  3.1922  0.8991 -3.2139
  431MOL0     H56833   5.268   6.982   7.180 -0.1488 -0.1498 -0.2735
  431MOL0     H56834   5.204   6.903   7.038 -0.6709 -0.2044  1.2520
  431MOL0     H56835   5.098   7.080   7.227 -0.6456 -1.6083 -0.3513
  431MOL0     H56836   5.095   7.160   7.070 -0.9367  0.2774  0.7251
  431MOL0     H56837   5.005   6.877   7.121  3.6205  0.8130 -0.5474
  431MOL0     H56838   4.940   6.979   6.997  1.2036 -0.6239  0.4324
  431MOL0     H56839   4.826   7.138   7.150 -1.9825 -0.1967  0.6590
  431MOL0     H56840   4.882   7.027   7.278  1.9717 -1.0900 -0.7397
  431MOL0     H56841   4.750   6.859   7.107  0.5284  2.6302 -4.2051
  431MOL0     H56842   4.679   6.940   7.250 -1.1686  1.3956 -0.4658
  431MOL0     H56843   4.668   7.044   6.952 -3.9932  0.4444 -1.4689
  431MOL0     H56844   4.602   7.136   7.083  1.5820  1.2048 -2.4392
  431MOL0     H56845   4.368   7.017   7.190  2.1652 -0.9299  1.5714
  431MOL0     H56846   4.106   6.890   7.125 -1.8785 -0.5666 -2.3938
  431MOL0     H56847   4.197   6.730   7.132 -2.0773 -2.3818 -2.4943
  431MOL0     H56848   4.146   6.694   6.897  0.8630 -1.2377  1.5902
  431MOL0     H56849   4.052   6.846   6.890  0.2499 -0.5614 -1.3459
  431MOL0     H56850   4.018   6.574   7.015  1.0418  1.1472 -2.4111
  431MOL0     H56851   3.946   6.708   7.109  1.4019 -2.3577  0.9532
  431MOL0     H56852   3.860   6.671   6.814  0.5973 -0.7638 -0.9392
  431MOL0     H56853   3.788   6.759   6.952  0.1657 -0.1782 -2.2536
  431MOL0     H56854   3.661   6.693   6.749 -0.9697  1.0878 -1.3854
  431MOL0     H56855   3.416   6.682   6.676 -0.8801  0.0678  0.9677
  431MOL0     H56856   3.044   6.611   6.493 -0.5056  1.5612 -0.2840
  431MOL0     H56857   2.799   6.594   6.444  0.1362  1.2059 -0.4350
  431MOL0     H56858   2.587   6.504   6.489  2.3356 -0.2999  0.6484
  431MOL0     H56859   2.558   6.681   6.461 -1.2720 -1.4680 -1.0638
  431MOL0     H56860   2.340   6.577   6.425  1.9290 -1.6894 -1.0442
  431MOL0     H56861   2.343   6.662   6.579 -1.9908 -0.2065 -2.3142
  431MOL0     H56862   2.360   6.363   6.528 -1.4933 -0.4824 -1.5844
  431MOL0     H56863   2.220   6.455   6.572  0.2603  0.1907 -0.4422
  431MOL0     H56864   2.473   6.427   6.754  0.8352  4.4941  2.4337
  431MOL0     H56865   2.330   6.521   6.796 -0.2440  0.8799 -2.4406
  431MOL0     H56866   2.366   6.218   6.737 -0.3113 -0.8004  0.3164
  431MOL0     H56867   2.203   6.301   6.777  0.4351  0.0614  0.8101
  431MOL0     H56868   2.343   6.374   6.993  1.6048 -0.8421  0.3050
  431MOL0     H56869   2.456   6.253   6.947  0.0361  0.2559  1.2368
  431MOL0     H56870   2.163   6.192   6.965 -0.8587  0.3337  1.2108
  431MOL0     H56871   2.289   6.070   6.973 -1.4022 -0.2441  0.4002
  431MOL0     H56872   2.212   6.121   7.209  0.7063 -0.3680 -0.1095
  431MOL0     H56873   2.279   6.293   7.189  1.6495  0.0694  0.0132
  431MOL0     H56874   2.723   6.648   6.869 -3.9412 -2.5193 -2.4739
  431MOL0     H56875   2.973   6.664   6.908  0.2002 -0.2064 -0.5113
  431MOL0     H56876   3.331   6.457   7.030 -0.7076 -0.9567 -1.4327
  431MOL0     H56877   3.577   6.448   7.079  0.7695  1.4248  0.9585
  431MOL0     H56878   5.559   6.875   6.773 -0.4136 -0.9768 -0.1604
  431MOL0     H56879   5.738   6.757   6.702 -2.0558  2.4615 -0.5272
  431MOL0     H56880   6.062   6.395   6.774 -1.0983  0.4905 -1.7326
  431MOL0     H56881   6.295   6.288   6.734  0.4487  0.6110 -1.4449
  431MOL0     H56882   6.644   6.552   6.826 -2.6434  0.8783 -1.6518
  431MOL0     H56883   6.641   6.547   6.644 -0.7283  0.6574 -0.4969
  431MOL0     H56884   6.745   6.323   6.829  2.9921 -2.3273 -1.3398
  431MOL0     H56885   6.784   6.329   6.658  2.1213 -0.1360  0.5852
  431MOL0     H56886   6.878   6.538   6.854 -0.8197 -1.9545  1.5039
  431MOL0     H56887   6.904   6.541   6.676  0.7196 -1.3459 -1.2427
  431MOL0     H56888   7.004   6.333   6.881 -1.4699 -1.5636 -1.6126
  431MOL0     H56889   7.064   6.325   6.720  3.0715  1.1129 -0.4791
  431MOL0     H56890   7.317   6.610   6.917 -1.7519  2.5922 -0.3890
  431MOL0     H56891   6.472   6.675   6.771  0.2490 -0.3367 -3.2276
  431MOL0     H56892   6.258   6.771   6.797 -3.3918 -0.7239 -0.2840
  432MOL0     O56893   4.263   6.516  10.485 -0.4500 -0.5625 -0.1590
  432MOL0     C56894   4.255   6.511  10.363 -0.4931 -1.7647  0.5757
  432MOL0     O56895   4.204   6.401  10.296  0.3318 -0.1273 -0.3314
  432MOL0     C56896   4.152   6.292  10.371  0.2241 -0.5658  0.9317
  432MOL0     C56897   4.197   6.162  10.334  0.4275 -0.3701 -0.8988
  432MOL0     C56898   4.139   6.042  10.398 -0.6120 -0.1147  0.2374
  432MOL0     C56899   4.033   6.056  10.490  0.6349  0.7842 -0.4927
  432MOL0     O56900   3.968   5.944  10.546 -0.4551 -1.4907 -0.0914
  432MOL0     C56901   3.827   5.947  10.562  0.1021  0.3067  0.1179
  432MOL0     C56902   3.778   5.810  10.514  0.2584  0.7570  0.5195
  432MOL0     C56903   3.628   5.797  10.480 -0.1165 -0.0661  0.0409
  432MOL0     C56904   3.606   5.884  10.361 -0.1836  0.7470  1.0976
  432MOL0     C56905   3.491   5.826  10.286 -0.7239  0.2996 -0.2072
  432MOL0     C56906   3.435   5.921  10.180 -0.1346 -0.7128 -0.1015
  432MOL0     C56907   3.333   5.845  10.095 -0.9230 -0.3656 -0.3467
  432MOL0     C56908   3.194   5.848  10.151  0.2784  0.7696 -0.8626
  432MOL0     N56909   3.094   5.760  10.086 -0.6099 -1.1032  0.8723
  432MOL0     C56910   3.032   5.778   9.963  0.0495 -0.8290 -0.1098
  432MOL0     C56911   2.933   5.686   9.950  0.4508  0.5990  0.7566
  432MOL0     C56912   2.850   5.642   9.830 -1.4145 -0.2199 -0.7712
  432MOL0     C56913   2.778   5.511   9.854  0.5518  0.2854 -0.1768
  432MOL0     C56914   2.697   5.471   9.729 -0.3248  0.3141 -0.1456
  432MOL0     C56915   2.629   5.332   9.748 -0.3830  0.2184 -1.3560
  432MOL0     O56916   2.528   5.326   9.646  0.4479  0.4479  0.2521
  432MOL0     C56917   2.397   5.378   9.670  0.6216 -0.2431 -0.4290
  432MOL0     C56918   2.292   5.334   9.586  0.2393 -0.0717  0.5275
  432MOL0     C56919   2.164   5.376   9.605 -0.1090  0.2876  0.2349
  432MOL0     C56920   2.127   5.466   9.712  0.0995  0.2729 -0.4194
  432MOL0     C56921   1.981   5.483   9.754 -0.0658 -0.4178 -0.9305
  432MOL0     O56922   1.893   5.468   9.653 -0.1285 -0.8505 -0.2887
  432MOL0     C56923   1.759   5.470   9.684  0.4076 -0.0603  0.5232
  432MOL0     C56924   1.688   5.586   9.716 -0.1769  0.4688  0.3561
  432MOL0     C56925   1.547   5.578   9.739 -0.5046 -0.1128  0.6448
  432MOL0     C56926   1.476   5.454   9.723 -0.3162 -1.1225  0.6904
  432MOL0     O56927   1.340   5.466   9.746 -0.5280 -0.2807 -0.0709
  432MOL0     C56928   1.271   5.338   9.778 -0.5745  0.1741 -0.0880
  432MOL0     C56929   1.120   5.361   9.803  0.0458  0.8067  0.0935
  432MOL0     C56930   1.038   5.455   9.705  0.3789  1.5418 -0.2865
  432MOL0     C56931   0.884   5.446   9.737  0.3879 -0.2003  0.1059
  432MOL0     C56932   0.823   5.584   9.782 -0.4835  0.5884 -0.3980
  432MOL0     C56933   0.664   5.557   9.765  0.0443  0.3978 -0.3939
  432MOL0     C56934   0.579   5.673   9.781  1.2880 -1.4070 -0.2122
  432MOL0     C56935   0.426   5.651   9.767  0.1339  0.6683  0.5584
  432MOL0    Cl56936   0.342   5.807   9.794  0.1037  0.2108 -0.1954
  432MOL0     C56937   1.551   5.345   9.683  0.4155 -0.1844 -0.0442
  432MOL0     C56938   1.683   5.352   9.671 -0.5009 -0.6754  0.1097
  432MOL0     O56939   1.949   5.511   9.871 -0.5098  0.1416  0.0284
  432MOL0     C56940   2.232   5.519   9.790 -0.0973  0.5881 -0.2987
  432MOL0     C56941   2.365   5.474   9.771  0.0910 -0.4991  0.3650
  432MOL0     N56942   2.926   5.626  10.074 -0.2014  0.4667 -0.0354
  432MOL0     N56943   3.016   5.673  10.157 -0.7246  0.3576  0.1111
  432MOL0     C56944   4.004   6.185  10.532  0.2120  0.9165  0.1202
  432MOL0     C56945   4.059   6.297  10.472  0.4909  0.2954 -0.0340
  432MOL0     C56946   4.291   6.627  10.282 -0.1559  0.7200  1.1887
  432MOL0     C56947   4.265   6.631  10.151  0.0736 -0.0213  0.0224
  432MOL0     C56948   4.293   6.736  10.069  0.7937  0.0349  0.4772
  432MOL0     C56949   4.358   6.852  10.114 -0.4381  0.4232  0.0946
  432MOL0     O56950   4.379   6.956  10.025  0.7734  0.0026 -0.2851
  432MOL0     C56951   4.419   7.083  10.073 -0.7924 -0.3125 -0.4558
  432MOL0     C56952   4.573   7.099  10.078  0.5833  0.1365  0.3253
  432MOL0     C56953   4.626   7.244  10.117 -0.5663 -0.1181  0.4637
  432MOL0     C56954   4.609   7.268  10.267 -0.2096  0.5818 -0.5035
  432MOL0     C56955   4.642   7.403  10.315 -0.2107  1.3492 -0.1104
  432MOL0     C56956   4.655   7.510  10.362 -0.0301 -0.1849 -0.0656
  432MOL0     C56957   4.374   6.854  10.253 -0.1693  0.5289 -0.3287
  432MOL0     C56958   4.349   6.744  10.331  0.6303  0.0880  0.2456
  432MOL0     H56959   4.280   6.164  10.264  0.6921 -1.1438 -0.6171
  432MOL0     H56960   4.188   5.950  10.370 -0.1621 -0.4915  2.1528
  432MOL0     H56961   3.787   6.022  10.492  1.9171  0.4414 -0.8317
  432MOL0     H56962   3.796   5.980  10.661 -3.4005  1.5832 -1.2070
  432MOL0     H56963   3.802   5.735  10.590 -0.2944 -0.8763 -0.8657
  432MOL0     H56964   3.840   5.787  10.427 -1.5507  3.0616 -1.5258
  432MOL0     H56965   3.553   5.832  10.552 -1.1768  2.0025 -1.9501
  432MOL0     H56966   3.616   5.692  10.451 -2.9985  0.0989  0.3142
  432MOL0     H56967   3.590   5.988  10.389 -0.9826  0.2356  2.6350
  432MOL0     H56968   3.692   5.874  10.293 -0.1803  0.6656  1.1141
  432MOL0     H56969   3.412   5.794  10.355 -3.4485 -0.2567 -3.3438
  432MOL0     H56970   3.517   5.727  10.246 -1.2452 -0.4609  1.2566
  432MOL0     H56971   3.517   5.967  10.124 -1.3954 -0.7784 -2.1117
  432MOL0     H56972   3.377   6.003  10.224  0.3436  0.5141 -1.6726
  432MOL0     H56973   3.343   5.885   9.994  2.5715  2.4541  0.9182
  432MOL0     H56974   3.372   5.743  10.086  2.3662  0.8269 -0.6638
  432MOL0     H56975   3.154   5.949  10.152  0.2109  0.7710  1.5036
  432MOL0     H56976   3.202   5.806  10.252  0.6136  0.8645 -0.8475
  432MOL0     H56977   3.059   5.844   9.881  0.2116  0.4763  0.9547
  432MOL0     H56978   2.920   5.635   9.746 -1.7153  1.8089 -1.2438
  432MOL0     H56979   2.777   5.720   9.807 -4.4814 -1.9364  2.2685
  432MOL0     H56980   2.720   5.502   9.946  0.3759 -2.1494 -0.4610
  432MOL0     H56981   2.860   5.441   9.874 -2.1855 -2.6856  1.5941
  432MOL0     H56982   2.607   5.533   9.718 -0.1819  0.4821 -0.3591
  432MOL0     H56983   2.766   5.457   9.646  0.1246 -0.5146  0.3513
  432MOL0     H56984   2.574   5.331   9.843  0.2616 -2.1515 -0.9432
  432MOL0     H56985   2.706   5.255   9.750  0.2124  0.7456  1.7294
  432MOL0     H56986   2.311   5.264   9.506 -0.9982 -0.2743  0.3875
  432MOL0     H56987   2.092   5.336   9.534  2.0446 -1.1722 -1.2409
  432MOL0     H56988   1.736   5.682   9.729 -0.3225  0.5661  0.1833
  432MOL0     H56989   1.497   5.665   9.781 -1.0202  0.8042 -1.7342
  432MOL0     H56990   1.321   5.289   9.862 -2.8823  0.4474  1.5487
  432MOL0     H56991   1.280   5.277   9.688  1.5862  0.0941  0.1305
  432MOL0     H56992   1.108   5.409   9.900 -0.0026 -0.3213  0.6612
  432MOL0     H56993   1.073   5.262   9.796  1.5426  0.0028  0.9588
  432MOL0     H56994   1.044   5.426   9.600  1.0792 -0.3602  0.2295
  432MOL0     H56995   1.071   5.557   9.725  0.7266  0.9613  2.4554
  432MOL0     H56996   0.822   5.415   9.652 -0.9147  0.5941  0.7383
  432MOL0     H56997   0.864   5.384   9.825 -0.6090  2.0982  1.5973
  432MOL0     H56998   0.840   5.669   9.714 -0.2636  0.1241 -0.9348
  432MOL0     H56999   0.848   5.619   9.882 -1.3732 -0.9129  0.3766
  432MOL0     H57000   0.641   5.481   9.841 -0.6015  0.4576 -0.5222
  432MOL0     H57001   0.634   5.507   9.673 -0.6185  0.3617 -0.1686
  432MOL0     H57002   0.591   5.708   9.884 -1.9592 -3.8323  1.1680
  432MOL0     H57003   0.600   5.747   9.703 -0.9882 -1.0016 -0.5147
  432MOL0     H57004   0.391   5.590   9.851 -1.6325  1.4956  0.4650
  432MOL0     H57005   0.393   5.599   9.677  2.7407 -2.8176  1.3894
  432MOL0     H57006   1.497   5.256   9.650 -3.4254  2.0353 -0.3274
  432MOL0     H57007   1.742   5.269   9.631  1.5516  1.2317 -1.0435
  432MOL0     H57008   2.214   5.591   9.869  0.4061  1.1425 -0.6741
  432MOL0     H57009   2.443   5.504   9.840  1.6233 -0.7532 -1.1954
  432MOL0     H57010   3.928   6.196  10.608 -0.8815  0.5410 -0.8955
  432MOL0     H57011   4.015   6.391  10.505 -0.6282 -0.5217  0.9094
  432MOL0     H57012   4.207   6.546  10.116 -1.9664 -0.1870  3.3493
  432MOL0     H57013   4.267   6.730   9.964  0.0424 -2.1523  0.7496
  432MOL0     H57014   4.372   7.112  10.168  1.2439 -1.1333  0.8847
  432MOL0     H57015   4.383   7.160  10.004 -1.7065 -0.1133  0.2242
  432MOL0     H57016   4.603   7.029  10.157  0.9762  1.2551  1.1961
  432MOL0     H57017   4.622   7.065   9.986  0.8175  1.3923 -0.0306
  432MOL0     H57018   4.585   7.317  10.047  0.4751 -0.8095 -0.9157
  432MOL0     H57019   4.734   7.246  10.106 -0.4864  1.1725  1.2891
  432MOL0     H57020   4.507   7.238  10.295 -0.2127  1.3980  0.4188
  432MOL0     H57021   4.666   7.189  10.316 -0.7929  0.8597  0.6797
  432MOL0     H57022   4.676   7.608  10.398 -0.2243 -0.5707  1.1511
  432MOL0     H57023   4.401   6.948  10.300 -0.8198  0.7621 -0.4013
  432MOL0     H57024   4.359   6.754  10.439 -1.0034  1.7675  0.3018
  433MOL0     O57025   9.210   5.519   4.833 -0.4312 -0.5527  0.3467
  433MOL0     C57026   9.257   5.631   4.816 -0.3142 -0.1285  0.6565
  433MOL0     O57027   9.203   5.731   4.751  0.6974  0.2426 -0.2882
  433MOL0     C57028   9.071   5.711   4.717 -0.5914 -0.9050  0.4755
  433MOL0     C57029   9.041   5.666   4.591  0.0276  0.1198  0.0539
  433MOL0     C57030   8.906   5.662   4.554  0.5273  0.4932 -0.5853
  433MOL0     C57031   8.799   5.701   4.652  0.2393  0.3349 -0.3538
  433MOL0     O57032   8.665   5.701   4.630  0.0086 -0.0402 -0.0979
  433MOL0     C57033   8.612   5.650   4.502  0.1728 -0.2555 -0.2672
  433MOL0     C57034   8.622   5.753   4.392 -0.3905 -0.6102 -0.8096
  433MOL0     C57035   8.519   5.859   4.386  0.7777  0.1500 -0.4726
  433MOL0     C57036   8.528   5.943   4.258 -0.3873 -0.7431 -0.3491
  433MOL0     C57037   8.441   6.069   4.268 -0.1368 -0.2767 -0.8872
  433MOL0     C57038   8.289   6.036   4.260 -0.5198 -0.1456  0.0096
  433MOL0     C57039   8.209   6.162   4.237 -0.0416  0.2372  0.0091
  433MOL0     C57040   8.168   6.206   4.374 -0.2017 -0.6408 -0.6320
  433MOL0     N57041   8.082   6.320   4.379 -0.1723 -0.1535  0.5723
  433MOL0     C57042   7.951   6.326   4.321  1.3347 -0.0223  0.0293
  433MOL0     C57043   7.916   6.451   4.362 -0.7375 -0.8284  0.0587
  433MOL0     C57044   7.789   6.531   4.336  0.3379  0.1778 -0.0987
  433MOL0     C57045   7.706   6.547   4.473 -0.3857 -0.0857  0.6652
  433MOL0     C57046   7.656   6.413   4.515  0.0316  0.5823 -0.3354
  433MOL0     C57047   7.539   6.425   4.613 -0.4583 -0.1706 -0.0833
  433MOL0     O57048   7.505   6.291   4.653  0.0528 -0.7781 -0.4194
  433MOL0     C57049   7.407   6.224   4.576 -0.5538 -0.0542 -0.0421
  433MOL0     C57050   7.348   6.107   4.622 -0.8945  0.3214  0.6253
  433MOL0     C57051   7.238   6.045   4.572  0.1007 -0.1322 -0.4552
  433MOL0     C57052   7.196   6.096   4.443 -0.3364 -0.4406  1.1752
  433MOL0     C57053   7.083   6.037   4.369 -0.4794  0.2845 -0.0516
  433MOL0     O57054   7.019   5.925   4.428 -0.0465 -0.1776  0.1182
  433MOL0     C57055   6.920   5.868   4.353  1.1369  0.1958  0.9532
  433MOL0     C57056   6.918   5.731   4.341  0.0047  0.2354 -0.5172
  433MOL0     C57057   6.825   5.665   4.255 -0.1437 -0.0989 -0.1377
  433MOL0     C57058   6.724   5.737   4.187  0.0580  0.2045  0.2109
  433MOL0     O57059   6.658   5.667   4.094 -0.1014  1.0754 -0.1433
  433MOL0     C57060   6.530   5.718   4.055  0.4003 -0.2853  0.1413
  433MOL0     C57061   6.456   5.588   4.008  0.1037 -0.9157 -0.2085
  433MOL0     C57062   6.311   5.618   3.966  0.1082  0.4172 -0.2028
  433MOL0     C57063   6.215   5.502   3.980  0.7872  0.1975 -0.6487
  433MOL0     C57064   6.071   5.518   3.935  0.3190 -0.0719  0.1558
  433MOL0     C57065   6.068   5.536   3.780 -0.5753  0.0667  0.6699
  433MOL0     C57066   5.929   5.514   3.721 -0.3540 -0.7121 -0.7686
  433MOL0     C57067   5.935   5.468   3.571  0.5143 -0.0712  0.2522
  433MOL0    Cl57068   5.783   5.393   3.535 -0.3834 -0.1329  0.0303
  433MOL0     C57069   6.714   5.879   4.212 -0.3684 -0.2548  0.3224
  433MOL0     C57070   6.805   5.943   4.303  0.6726  0.3471  0.1204
  433MOL0     O57071   7.047   6.085   4.270  0.1570  0.3912  0.2991
  433MOL0     C57072   7.266   6.208   4.383  0.5658  0.3734  1.0284
  433MOL0     C57073   7.372   6.274   4.450  0.3566  0.3006 -0.1640
  433MOL0     N57074   8.017   6.510   4.431  0.4455  0.1772  0.1546
  433MOL0     N57075   8.119   6.426   4.447  0.6154 -0.1144  0.4129
  433MOL0     C57076   8.834   5.747   4.778  0.0590  0.2806  0.4976
  433MOL0     C57077   8.973   5.743   4.810  0.7163  0.7007  0.2328
  433MOL0     C57078   9.403   5.646   4.846  0.5041 -0.6537  0.3274
  433MOL0     C57079   9.473   5.772   4.820 -0.7424 -0.0872  0.0610
  433MOL0     C57080   9.615   5.775   4.835 -0.5193  0.4757  0.3543
  433MOL0     C57081   9.687   5.653   4.861 -0.5748 -0.6326  0.1661
  433MOL0     O57082   9.824   5.637   4.877 -0.4683  0.3590  0.6500
  433MOL0     C57083   9.900   5.753   4.856  0.0156 -0.1116  0.2179
  433MOL0     C57084  10.040   5.711   4.824 -0.4694 -0.3182  1.0939
  433MOL0     C57085  10.108   5.630   4.941  0.1097  0.0642 -0.3146
  433MOL0     C57086  10.254   5.594   4.918  0.4808  0.5250  0.5414
  433MOL0     C57087  10.278   5.458   4.869  0.1062  0.6923 -0.7614
  433MOL0     C57088  10.285   5.347   4.825 -0.0267  0.0507 -0.3628
  433MOL0     C57089   9.617   5.527   4.868 -0.3447 -0.2059 -0.6248
  433MOL0     C57090   9.470   5.529   4.878 -0.9886  0.1397 -0.6419
  433MOL0     H57091   9.115   5.631   4.520  1.3529  2.0223  0.4223
  433MOL0     H57092   8.873   5.632   4.455 -2.8257 -0.9926  0.8395
  433MOL0     H57093   8.509   5.615   4.506  0.1927 -0.2939 -0.0631
  433MOL0     H57094   8.671   5.563   4.474 -0.9333 -1.2056  0.2960
  433MOL0     H57095   8.629   5.692   4.302  4.1805 -3.6804  1.2737
  433MOL0     H57096   8.722   5.797   4.393  0.3689 -2.2125 -1.8498
  433MOL0     H57097   8.527   5.912   4.481 -0.2116 -4.7391  2.7032
  433MOL0     H57098   8.419   5.817   4.397  1.1192 -0.0006  4.0376
  433MOL0     H57099   8.634   5.969   4.247 -0.6628  0.0495 -1.2400
  433MOL0     H57100   8.498   5.885   4.170 -2.3063 -1.3724  0.6621
  433MOL0     H57101   8.476   6.150   4.205  0.2740  1.6893  1.6902
  433MOL0     H57102   8.454   6.101   4.372 -1.6084 -1.7010 -0.2207
  433MOL0     H57103   8.258   5.966   4.338  2.3832 -0.3055  1.1295
  433MOL0     H57104   8.289   5.970   4.172 -0.6734 -0.9004  0.5620
  433MOL0     H57105   8.271   6.237   4.187  0.2742  0.9088  1.3713
  433MOL0     H57106   8.126   6.140   4.170 -0.8703  0.8827  0.7904
  433MOL0     H57107   8.253   6.217   4.442 -0.5978 -0.7291 -0.1105
  433MOL0     H57108   8.103   6.131   4.421 -1.1801 -0.4842 -1.6941
  433MOL0     H57109   7.895   6.258   4.257  3.0228 -0.3226 -1.1858
  433MOL0     H57110   7.718   6.480   4.271 -1.4645 -1.4680  2.9517
  433MOL0     H57111   7.815   6.627   4.290  2.0611  0.2675  0.9554
  433MOL0     H57112   7.619   6.608   4.445 -1.8406 -2.5656 -0.4973
  433MOL0     H57113   7.761   6.592   4.556 -0.3688  1.6055 -0.2088
  433MOL0     H57114   7.632   6.354   4.427 -1.3697  0.0663  0.3534
  433MOL0     H57115   7.734   6.365   4.575 -2.1451 -0.5237  1.7790
  433MOL0     H57116   7.449   6.473   4.574 -1.2668  1.6955  3.6832
  433MOL0     H57117   7.580   6.481   4.697  0.1825  1.1391 -1.2302
  433MOL0     H57118   7.393   6.063   4.711  1.0823 -1.0002 -0.9259
  433MOL0     H57119   7.181   5.961   4.612 -0.3358  1.1660  1.8435
  433MOL0     H57120   6.981   5.669   4.405 -0.1170  0.2163 -0.4169
  433MOL0     H57121   6.811   5.558   4.247  0.1964 -0.0921 -0.9494
  433MOL0     H57122   6.547   5.788   3.972  0.9827  0.9832  1.2812
  433MOL0     H57123   6.480   5.771   4.136 -1.0601  0.3584 -1.1324
  433MOL0     H57124   6.440   5.522   4.093 -2.5055  1.1730  1.0714
  433MOL0     H57125   6.523   5.544   3.933 -0.4711 -0.4508 -1.0112
  433MOL0     H57126   6.324   5.648   3.861  2.5056 -0.2197 -0.1483
  433MOL0     H57127   6.281   5.705   4.025  1.8972  0.8126  0.1636
  433MOL0     H57128   6.257   5.414   3.931 -0.0489 -0.4572 -0.2268
  433MOL0     H57129   6.214   5.479   4.087 -0.7862  0.9094 -0.4838
  433MOL0     H57130   6.031   5.612   3.975 -1.4774 -0.4329 -0.7051
  433MOL0     H57131   6.006   5.437   3.968 -0.9962  0.6761 -0.5150
  433MOL0     H57132   6.139   5.464   3.739 -0.8032  1.1580 -1.8508
  433MOL0     H57133   6.100   5.637   3.752  1.1166 -0.3933  0.8061
  433MOL0     H57134   5.882   5.440   3.787 -1.8679 -0.6493 -1.7495
  433MOL0     H57135   5.867   5.602   3.739 -0.3101 -1.1800  2.2039
  433MOL0     H57136   6.013   5.391   3.571  0.1276 -0.5079  2.0123
  433MOL0     H57137   5.951   5.550   3.501  0.7248  0.4405  0.8842
  433MOL0     H57138   6.641   5.944   4.165 -2.1147 -0.0265  3.0867
  433MOL0     H57139   6.807   6.049   4.327 -0.4882 -0.2314  3.2434
  433MOL0     H57140   7.238   6.241   4.283  1.9783  0.4884  0.6469
  433MOL0     H57141   7.423   6.353   4.395 -2.3039  0.2586 -2.9359
  433MOL0     H57142   8.764   5.776   4.856  0.5123  3.3041 -0.0796
  433MOL0     H57143   9.001   5.771   4.911  0.8175  0.4338  0.2803
  433MOL0     H57144   9.417   5.862   4.796 -2.3290 -0.1701  2.9945
  433MOL0     H57145   9.658   5.873   4.821  1.1420 -0.0710  1.2659
  433MOL0     H57146   9.895   5.823   4.941 -0.0489  2.4966 -1.8091
  433MOL0     H57147   9.878   5.823   4.774 -0.4850 -0.3757  0.1219
  433MOL0     H57148  10.049   5.662   4.726  1.6656  2.5692 -0.3330
  433MOL0     H57149  10.104   5.799   4.816  0.0453 -0.7141  0.7643
  433MOL0     H57150  10.055   5.538   4.968  1.5194  0.0392  2.8807
  433MOL0     H57151  10.119   5.700   5.024  1.8677 -2.7069  1.9946
  433MOL0     H57152  10.305   5.660   4.847 -0.3631 -0.9962 -1.5738
  433MOL0     H57153  10.304   5.601   5.015  0.0035  0.0651  0.8274
  433MOL0     H57154  10.310   5.251   4.785  3.7807  0.9642 -0.5344
  433MOL0     H57155   9.665   5.435   4.898 -0.4420  0.5814  2.2303
  433MOL0     H57156   9.422   5.434   4.899  0.9203 -0.6276  0.4631
  434MOL0     O57157   0.367   8.139   3.673 -0.1700 -0.0122 -0.4354
  434MOL0     C57158   0.380   8.040   3.748 -0.2883 -0.3138 -0.3949
  434MOL0     O57159   0.279   7.959   3.790 -0.1744  0.2492 -0.1526
  434MOL0     C57160   0.153   8.007   3.766  0.7608  0.4942 -0.0018
  434MOL0     C57161   0.087   7.983   3.647  0.0958  0.2223  0.4416
  434MOL0     C57162  -0.046   8.012   3.633  0.0068  0.1318 -0.3287
  434MOL0     C57163  -0.122   8.066   3.736  0.0600  0.7026  0.4116
  434MOL0     O57164  -0.252   8.092   3.719  0.2171  0.5739 -1.0610
  434MOL0     C57165  -0.329   8.024   3.617  0.7945  0.6303 -0.6907
  434MOL0     C57166  -0.341   7.874   3.626 -0.2594 -0.2941  0.9084
  434MOL0     C57167  -0.409   7.826   3.750 -0.6351  0.0482 -0.0033
  434MOL0     C57168  -0.423   7.669   3.755 -0.4705 -1.0619 -0.5213
  434MOL0     C57169  -0.496   7.633   3.886  1.0256 -0.0684  1.1276
  434MOL0     C57170  -0.481   7.486   3.917 -0.4546 -0.3762 -0.4933
  434MOL0     C57171  -0.554   7.395   3.824 -0.0191 -0.2294  0.7135
  434MOL0     C57172  -0.521   7.245   3.862  0.2977 -0.0033  0.1686
  434MOL0     N57173  -0.566   7.143   3.765 -0.1242  0.3342  0.0039
  434MOL0     C57174  -0.684   7.087   3.777 -0.3531  0.8695 -0.6865
  434MOL0     C57175  -0.691   7.015   3.662  0.4647 -0.3369 -0.1173
  434MOL0     C57176  -0.812   6.925   3.623 -0.4817  0.4232  0.3705
  434MOL0     C57177  -0.936   7.014   3.639  0.9426  0.5621  0.1460
  434MOL0     C57178  -1.060   6.934   3.596 -0.2562  0.2876  0.6748
  434MOL0     C57179  -1.193   7.002   3.620 -0.6939  0.1481  0.6911
  434MOL0     O57180  -1.283   6.901   3.580  0.6690  0.9517  0.2480
  434MOL0     C57181  -1.418   6.927   3.592  0.1546 -0.5004  0.1268
  434MOL0     C57182  -1.476   7.034   3.663  0.1358 -0.0568 -0.0440
  434MOL0     C57183  -1.610   7.063   3.656 -0.2499 -1.1218 -1.0189
  434MOL0     C57184  -1.691   6.972   3.584  0.6030  0.4081 -0.3846
  434MOL0     C57185  -1.836   6.980   3.610  0.3171  0.0741  0.5303
  434MOL0     O57186  -1.876   7.067   3.709 -0.4912 -0.3012 -0.1158
  434MOL0     C57187  -1.985   7.054   3.789  0.5923  0.2328 -0.6078
  434MOL0     C57188  -2.034   7.166   3.859  0.1381 -0.2186 -0.1637
  434MOL0     C57189  -2.134   7.163   3.949  0.3423 -0.0546 -0.3566
  434MOL0     C57190  -2.196   7.041   3.982  0.1203 -0.2006  0.2393
  434MOL0     O57191  -2.283   7.011   4.082 -0.4630  0.5385 -0.8341
  434MOL0     C57192  -2.361   7.125   4.129 -0.3885 -0.2219  0.6388
  434MOL0     C57193  -2.481   7.085   4.205  0.1341 -0.4118 -0.7491
  434MOL0     C57194  -2.567   7.206   4.237 -0.3703  0.6641  0.3202
  434MOL0     C57195  -2.695   7.153   4.308 -0.4512  0.1623 -0.7285
  434MOL0     C57196  -2.797   7.266   4.329 -0.1590  0.5730 -0.7491
  434MOL0     C57197  -2.857   7.328   4.201  0.5410 -0.0925  0.1768
  434MOL0     C57198  -2.999   7.390   4.227 -0.2354 -0.4788  0.1804
  434MOL0     C57199  -3.039   7.485   4.111  0.7777 -0.4475  0.0924
  434MOL0    Cl57200  -3.093   7.377   3.978  0.0653 -0.0584  0.5095
  434MOL0     C57201  -2.153   6.927   3.915 -1.0362 -0.3086 -0.3240
  434MOL0     C57202  -2.048   6.928   3.819 -0.5084 -0.1407 -0.5555
  434MOL0     O57203  -1.912   6.906   3.545 -0.1614 -0.2426  0.5981
  434MOL0     C57204  -1.634   6.853   3.528  0.0718 -0.2409  0.8908
  434MOL0     C57205  -1.497   6.838   3.523 -0.0301  0.3200 -0.2067
  434MOL0     N57206  -0.568   7.017   3.591  0.8797  0.1770 -0.1755
  434MOL0     N57207  -0.497   7.107   3.654  0.7887  0.4629  1.0333
  434MOL0     C57208  -0.065   8.074   3.856  0.5526  0.0543  0.1467
  434MOL0     C57209   0.075   8.051   3.872 -0.6241 -0.5744  0.3589
  434MOL0     C57210   0.523   8.005   3.783 -0.0069  0.2694  0.8446
  434MOL0     C57211   0.626   8.099   3.746  0.4641  0.2072  0.4983
  434MOL0     C57212   0.759   8.073   3.786  0.7177 -0.2477 -0.1253
  434MOL0     C57213   0.799   7.944   3.829 -0.4351  0.4203 -0.0005
  434MOL0     O57214   0.924   7.907   3.862 -0.7220 -0.1378 -0.0367
  434MOL0     C57215   1.036   7.998   3.836 -0.3096  0.1578  0.0983
  434MOL0     C57216   1.169   7.929   3.860 -0.0652  0.8089  0.0088
  434MOL0     C57217   1.282   8.021   3.853 -0.3288  0.1791 -0.5283
  434MOL0     C57218   1.426   7.959   3.869  0.8452  0.0319  0.1565
  434MOL0     C57219   1.527   8.057   3.863 -0.7601  0.2872  0.5023
  434MOL0     C57220   1.608   8.144   3.861  0.0935  0.2318  0.3399
  434MOL0     C57221   0.695   7.856   3.853 -0.0980  0.5110 -0.3946
  434MOL0     C57222   0.566   7.880   3.829  0.1977  0.1279  0.2213
  434MOL0     H57223   0.148   7.943   3.566  0.2232  1.5541 -0.1351
  434MOL0     H57224  -0.096   7.991   3.539 -2.2902  0.4217  0.7587
  434MOL0     H57225  -0.295   8.057   3.519  3.0887 -1.0582 -0.5363
  434MOL0     H57226  -0.431   8.064   3.629  0.7362  0.3350 -0.1592
  434MOL0     H57227  -0.244   7.826   3.641 -0.2998  0.4289  4.1064
  434MOL0     H57228  -0.392   7.847   3.533  0.3480  0.3474  0.3797
  434MOL0     H57229  -0.506   7.876   3.749 -0.6565  0.0398  0.8976
  434MOL0     H57230  -0.350   7.857   3.837  1.6706 -3.3877 -0.1327
  434MOL0     H57231  -0.481   7.639   3.667 -0.2237 -0.1356 -1.0205
  434MOL0     H57232  -0.322   7.629   3.744 -0.3265 -0.8145 -0.1087
  434MOL0     H57233  -0.602   7.657   3.878  1.2373  1.2641  2.0119
  434MOL0     H57234  -0.455   7.691   3.968  1.1744  0.8039  0.4509
  434MOL0     H57235  -0.519   7.453   4.014  1.8209 -0.7319  0.3333
  434MOL0     H57236  -0.376   7.455   3.913 -0.2955  0.1227 -0.3258
  434MOL0     H57237  -0.659   7.426   3.833 -0.0874  1.3745 -3.5800
  434MOL0     H57238  -0.528   7.417   3.721  1.1918  2.3044  1.4907
  434MOL0     H57239  -0.583   7.229   3.951 -0.7144 -0.4443 -0.5922
  434MOL0     H57240  -0.415   7.222   3.874  0.4244  0.3812 -0.2112
  434MOL0     H57241  -0.750   7.100   3.863 -0.2771  0.4397 -0.5615
  434MOL0     H57242  -0.814   6.835   3.685  0.5423 -0.3904 -0.7626
  434MOL0     H57243  -0.790   6.889   3.522  1.3525  1.9143  0.1807
  434MOL0     H57244  -0.937   7.098   3.570 -0.9851 -0.0401 -0.6149
  434MOL0     H57245  -0.956   7.053   3.739  1.3634  0.4436  0.2817
  434MOL0     H57246  -1.054   6.917   3.488 -1.3861 -4.6340  1.1504
  434MOL0     H57247  -1.061   6.832   3.635  1.6289 -0.0538 -0.0824
  434MOL0     H57248  -1.205   7.094   3.563  0.1562  1.5424  2.6255
  434MOL0     H57249  -1.203   7.017   3.728 -3.6277  0.7364  0.4222
  434MOL0     H57250  -1.417   7.095   3.731 -0.3911  0.9631 -0.4821
  434MOL0     H57251  -1.644   7.139   3.725  3.3213  1.7885 -2.1334
  434MOL0     H57252  -1.988   7.256   3.818  1.5531 -1.2808 -1.0350
  434MOL0     H57253  -2.168   7.258   3.989 -2.5139 -1.2296  0.2250
  434MOL0     H57254  -2.399   7.185   4.044  0.7840  0.0342  0.2819
  434MOL0     H57255  -2.298   7.190   4.190  1.2026 -1.4241  0.3158
  434MOL0     H57256  -2.460   7.032   4.298  0.3268  1.0759  0.0740
  434MOL0     H57257  -2.540   7.018   4.142 -3.1196  1.4257  0.1191
  434MOL0     H57258  -2.591   7.256   4.144 -2.4113 -1.7579 -0.5804
  434MOL0     H57259  -2.516   7.275   4.305 -0.6779  0.8698  0.3440
  434MOL0     H57260  -2.741   7.077   4.243 -0.0369 -1.6648  1.0088
  434MOL0     H57261  -2.675   7.097   4.400  0.4882 -0.4478 -1.2871
  434MOL0     H57262  -2.743   7.341   4.388 -0.7042  1.4262 -1.3098
  434MOL0     H57263  -2.883   7.234   4.389  0.8850 -0.6387  0.1598
  434MOL0     H57264  -2.865   7.252   4.123 -2.0388 -0.0658  0.3188
  434MOL0     H57265  -2.802   7.410   4.154 -1.9703  0.0079 -2.9223
  434MOL0     H57266  -3.076   7.314   4.241  0.1397 -0.8716  0.1156
  434MOL0     H57267  -2.993   7.452   4.317  1.6983  0.1165 -0.3094
  434MOL0     H57268  -2.956   7.544   4.072  0.6192 -1.1464 -1.3895
  434MOL0     H57269  -3.119   7.556   4.133  0.4145 -0.2834 -1.6083
  434MOL0     H57270  -2.210   6.838   3.941 -0.8516 -0.5298 -0.6641
  434MOL0     H57271  -2.034   6.834   3.768 -2.6932 -0.2964 -0.9812
  434MOL0     H57272  -1.705   6.779   3.490 -1.7576  1.9073 -0.1258
  434MOL0     H57273  -1.453   6.746   3.486 -4.1905 -2.2709  0.6206
  434MOL0     H57274  -0.131   8.128   3.924 -1.1908 -1.2709 -0.4061
  434MOL0     H57275   0.125   8.091   3.959  1.6807  0.0348 -1.1757
  434MOL0     H57276   0.589   8.196   3.716 -2.1677  0.1072  2.9396
  434MOL0     H57277   0.832   8.152   3.778  0.4066  0.0259 -0.2578
  434MOL0     H57278   1.027   8.092   3.892 -1.4520  0.9726 -1.3785
  434MOL0     H57279   1.024   8.029   3.732 -2.8679  0.6496  0.4689
  434MOL0     H57280   1.163   7.879   3.958  0.0646  2.0587  0.6761
  434MOL0     H57281   1.193   7.851   3.787  2.2337  0.7131  0.7812
  434MOL0     H57282   1.265   8.103   3.922  0.0555  0.3507 -0.6323
  434MOL0     H57283   1.268   8.075   3.759  1.7567  2.7480  0.5054
  434MOL0     H57284   1.427   7.900   3.961 -1.2003 -0.9425 -0.3668
  434MOL0     H57285   1.437   7.885   3.789  3.3459 -2.1013  2.2783
  434MOL0     H57286   1.674   8.224   3.890  1.1731 -0.6507  0.3952
  434MOL0     H57287   0.728   7.754   3.873 -1.6320  0.2233  0.8213
  434MOL0     H57288   0.492   7.811   3.869  0.4819 -0.2011  0.1823
  435MOL0     O57289   0.717   7.251   9.091 -0.0279  0.3290  0.0134
  435MOL0     C57290   0.762   7.363   9.067  0.3690 -0.9761 -0.6608
  435MOL0     O57291   0.692   7.480   9.068  0.7453 -0.2064 -0.1389
  435MOL0     C57292   0.562   7.482   9.095  0.5744  0.3530  0.1648
  435MOL0     C57293   0.491   7.565   9.011 -0.3853  0.5920  0.0756
  435MOL0     C57294   0.353   7.582   9.018 -0.3495  0.2123  0.0448
  435MOL0     C57295   0.289   7.511   9.120  0.3861  0.7744 -0.6986
  435MOL0     O57296   0.155   7.504   9.141 -0.4427  0.4447  0.0419
  435MOL0     C57297   0.090   7.627   9.140 -0.1028 -0.0952 -0.1487
  435MOL0     C57298   0.115   7.701   9.274  0.5316 -0.1703  0.2912
  435MOL0     C57299   0.033   7.827   9.288 -1.0498  0.2005  0.2076
  435MOL0     C57300  -0.097   7.801   9.346  0.1982 -0.5319 -0.3712
  435MOL0     C57301  -0.180   7.926   9.366  0.3456 -0.2347 -0.4121
  435MOL0     C57302  -0.334   7.900   9.404 -0.6138  0.2078  0.3504
  435MOL0     C57303  -0.402   8.027   9.365  0.5680  0.3634 -0.3433
  435MOL0     C57304  -0.553   8.016   9.393  0.7136 -0.3116 -0.1064
  435MOL0     N57305  -0.593   8.148   9.441 -0.7133 -1.4143 -0.7788
  435MOL0     C57306  -0.656   8.239   9.364 -0.3350 -0.2813 -0.1409
  435MOL0     C57307  -0.711   8.326   9.455  0.2535  0.3695 -0.4240
  435MOL0     C57308  -0.794   8.437   9.414 -1.7157  0.2062  0.4523
  435MOL0     C57309  -0.931   8.448   9.468  0.1763  0.7240  0.1729
  435MOL0     C57310  -1.025   8.331   9.423 -0.0381  0.3000 -0.1918
  435MOL0     C57311  -1.165   8.356   9.464  0.0736  0.9052  0.6786
  435MOL0     O57312  -1.249   8.247   9.418 -0.2371  0.4456  0.1590
  435MOL0     C57313  -1.377   8.223   9.459 -0.2584 -0.8051 -0.3434
  435MOL0     C57314  -1.433   8.093   9.442 -0.5585 -0.7447  0.5599
  435MOL0     C57315  -1.561   8.068   9.487  0.4557 -0.2624  0.0542
  435MOL0     C57316  -1.636   8.163   9.553  0.1655 -0.3454 -0.1672
  435MOL0     C57317  -1.773   8.131   9.598  0.8890  0.1662  0.2193
  435MOL0     O57318  -1.827   8.005   9.571 -0.2798 -0.0611 -0.3466
  435MOL0     C57319  -1.954   7.982   9.608  0.0519 -0.6567 -0.3245
  435MOL0     C57320  -1.989   7.892   9.714  0.5724 -0.2369  0.2613
  435MOL0     C57321  -2.128   7.872   9.741 -0.3752 -0.3020  0.0829
  435MOL0     C57322  -2.223   7.938   9.658  0.5269 -0.4081 -0.3741
  435MOL0     O57323  -2.352   7.901   9.692  0.4561  0.8605 -0.0735
  435MOL0     C57324  -2.428   8.002   9.759 -0.2009 -0.2005  0.0688
  435MOL0     C57325  -2.562   7.940   9.781 -1.3255  0.7792  1.0927
  435MOL0     C57326  -2.645   8.059   9.833 -0.3616  0.0814 -0.0433
  435MOL0     C57327  -2.791   8.020   9.873  0.0543  0.0946  0.5080
  435MOL0     C57328  -2.886   8.125   9.875 -0.2187 -1.7386 -0.4633
  435MOL0     C57329  -2.968   8.137   9.759  0.2318  0.2814  0.2045
  435MOL0     C57330  -3.079   8.240   9.770  0.3940 -0.0491  0.2479
  435MOL0     C57331  -3.174   8.231   9.649  0.2500  0.0113 -0.2622
  435MOL0    Cl57332  -3.296   8.353   9.678  0.0156 -0.2892 -0.3405
  435MOL0     C57333  -2.190   8.018   9.555  0.0234  0.1361  0.6015
  435MOL0     C57334  -2.052   8.045   9.534 -0.3742 -0.3523 -0.2749
  435MOL0     O57335  -1.834   8.226   9.646 -0.1636  0.9911  0.0811
  435MOL0     C57336  -1.589   8.294   9.554  0.7138 -0.4113  0.1714
  435MOL0     C57337  -1.458   8.328   9.509  1.0545 -0.0214  0.1539
  435MOL0     N57338  -0.681   8.284   9.582 -0.6316  0.1542  0.3941
  435MOL0     N57339  -0.611   8.184   9.571 -0.6138 -0.1209  0.2485
  435MOL0     C57340   0.358   7.421   9.197  1.0438 -1.0637  0.5989
  435MOL0     C57341   0.497   7.406   9.189  0.9189  0.6418 -0.5498
  435MOL0     C57342   0.910   7.378   9.058 -0.3574 -0.3016  0.0809
  435MOL0     C57343   0.964   7.499   8.999 -0.0119  0.4000 -0.4683
  435MOL0     C57344   1.098   7.522   8.974 -0.5761  0.4221 -0.4572
  435MOL0     C57345   1.191   7.415   9.006 -0.0674  0.6116  0.7186
  435MOL0     O57346   1.332   7.412   8.991  0.1607  0.2187 -0.3556
  435MOL0     C57347   1.405   7.534   8.956  0.0089  0.0205  0.0898
  435MOL0     C57348   1.509   7.551   9.068 -0.4281  0.2778 -0.1602
  435MOL0     C57349   1.441   7.571   9.195 -0.6959 -0.2694  0.1297
  435MOL0     C57350   1.530   7.656   9.292 -0.4824  0.5211  0.6189
  435MOL0     C57351   1.635   7.583   9.351 -1.1906  0.7021 -1.6157
  435MOL0     C57352   1.739   7.536   9.400  0.3588  0.1280  0.4381
  435MOL0     C57353   1.133   7.296   9.054 -0.1258 -0.0018  0.3089
  435MOL0     C57354   0.999   7.281   9.083  0.6979 -0.6486  0.2082
  435MOL0     H57355   0.547   7.619   8.935 -2.4897  0.1050 -1.9221
  435MOL0     H57356   0.297   7.637   8.943 -0.9113  0.9060  0.9379
  435MOL0     H57357  -0.015   7.596   9.135  0.7738 -3.2446 -1.4950
  435MOL0     H57358   0.100   7.693   9.053  1.5658  1.6376  1.2694
  435MOL0     H57359   0.218   7.738   9.272 -0.2053  2.0406 -2.3288
  435MOL0     H57360   0.107   7.621   9.348 -1.3727  0.7730  1.1932
  435MOL0     H57361   0.031   7.893   9.201  1.8414 -0.2777 -0.2937
  435MOL0     H57362   0.091   7.884   9.361  0.2071 -0.3518 -0.3399
  435MOL0     H57363  -0.143   7.721   9.286 -1.3997 -0.9240  1.2788
  435MOL0     H57364  -0.092   7.760   9.447 -3.4484  0.3185  0.2944
  435MOL0     H57365  -0.171   7.982   9.273 -2.2295 -1.4210 -1.4749
  435MOL0     H57366  -0.141   7.983   9.451  0.8887 -0.4319 -0.5253
  435MOL0     H57367  -0.352   7.876   9.509  0.0274  0.0441  0.4282
  435MOL0     H57368  -0.380   7.813   9.354 -0.1892 -0.1899  0.6466
  435MOL0     H57369  -0.361   8.114   9.418 -0.7998  0.5044  0.5337
  435MOL0     H57370  -0.387   8.041   9.258  1.9473 -1.9857 -0.5392
  435MOL0     H57371  -0.561   7.946   9.476  0.0326  1.7905  1.7113
  435MOL0     H57372  -0.610   7.976   9.309  1.2629  0.3502 -0.8111
  435MOL0     H57373  -0.661   8.253   9.256 -0.4286 -2.3027 -0.4237
  435MOL0     H57374  -0.813   8.434   9.306 -0.5704 -0.7104  0.2553
  435MOL0     H57375  -0.738   8.528   9.440  1.0864 -0.1899 -3.3950
  435MOL0     H57376  -0.979   8.544   9.446  3.5605  2.7238  0.7145
  435MOL0     H57377  -0.919   8.448   9.576  0.6120  0.2745  0.1293
  435MOL0     H57378  -1.022   8.310   9.316  0.1987 -1.6144  0.1615
  435MOL0     H57379  -0.994   8.235   9.465  3.2219 -0.0358 -2.9887
  435MOL0     H57380  -1.202   8.441   9.406 -1.2812 -0.0261  0.1104
  435MOL0     H57381  -1.176   8.371   9.571 -0.1689 -0.7799  0.9169
  435MOL0     H57382  -1.369   8.025   9.387  1.4878 -0.6294  2.6589
  435MOL0     H57383  -1.591   7.965   9.468  1.2140 -0.8056  1.6095
  435MOL0     H57384  -1.913   7.838   9.769 -0.3972 -2.2696 -0.2722
  435MOL0     H57385  -2.170   7.808   9.818 -2.6844 -0.5114 -1.2598
  435MOL0     H57386  -2.434   8.087   9.690  4.0321 -0.5908 -1.0375
  435MOL0     H57387  -2.387   8.029   9.857  0.8760 -3.6954  0.7124
  435MOL0     H57388  -2.552   7.853   9.847  2.7121 -1.3003 -1.8674
  435MOL0     H57389  -2.595   7.906   9.683 -1.2112  1.7959  0.6921
  435MOL0     H57390  -2.653   8.134   9.754 -0.0542  0.8700  0.6641
  435MOL0     H57391  -2.602   8.104   9.922 -1.7449 -0.2214  0.8107
  435MOL0     H57392  -2.815   7.935   9.808  0.7298 -0.7287  1.3146
  435MOL0     H57393  -2.787   7.985   9.976 -1.9667  0.5359  0.7808
  435MOL0     H57394  -2.826   8.216   9.886 -0.5929 -1.5072 -0.3325
  435MOL0     H57395  -2.952   8.121   9.962  0.1522 -0.8741 -0.1277
  435MOL0     H57396  -3.016   8.041   9.738  0.0594  0.3091  0.4630
  435MOL0     H57397  -2.908   8.160   9.671 -2.2281  0.8715 -1.4180
  435MOL0     H57398  -3.137   8.218   9.860  0.1153 -2.4920 -0.4336
  435MOL0     H57399  -3.020   8.332   9.766 -0.0387  0.2169 -0.1954
  435MOL0     H57400  -3.210   8.130   9.629 -0.6032  0.7385 -2.8617
  435MOL0     H57401  -3.126   8.252   9.553  3.0325 -0.5718  0.9201
  435MOL0     H57402  -2.266   8.063   9.492 -0.8535 -0.9983  0.8165
  435MOL0     H57403  -2.022   8.109   9.451  1.1991  0.9415  1.2133
  435MOL0     H57404  -1.643   8.372   9.607 -0.4049 -0.7827 -0.3842
  435MOL0     H57405  -1.415   8.424   9.533 -0.3538  0.2225  1.9249
  435MOL0     H57406   0.297   7.363   9.265 -2.4394  2.1331  0.6181
  435MOL0     H57407   0.541   7.334   9.257  0.6452  0.5632 -0.4541
  435MOL0     H57408   0.895   7.578   8.970  1.1757  1.5764 -0.1800
  435MOL0     H57409   1.132   7.612   8.924 -0.5438  0.1409 -0.9465
  435MOL0     H57410   1.345   7.625   8.950 -0.9444 -0.3913  2.4018
  435MOL0     H57411   1.464   7.523   8.864 -2.1704 -0.1535 -1.3669
  435MOL0     H57412   1.564   7.456   9.062  0.3493  0.7128 -0.0688
  435MOL0     H57413   1.578   7.631   9.040 -0.7993  0.4697 -0.5254
  435MOL0     H57414   1.409   7.477   9.242 -0.1514  0.0886  1.2751
  435MOL0     H57415   1.347   7.625   9.181 -1.3480 -1.2476  0.5940
  435MOL0     H57416   1.578   7.742   9.244 -2.9517 -0.1492 -3.6024
  435MOL0     H57417   1.466   7.698   9.370 -2.4537 -3.6699  1.5218
  435MOL0     H57418   1.831   7.496   9.436 -0.1704 -0.8741  0.7283
  435MOL0     H57419   1.205   7.224   9.092  0.9595  1.3205  0.8232
  435MOL0     H57420   0.975   7.184   9.127  1.0054 -1.5635 -1.5746
  436MOL0     O57421   8.280   2.247   0.681  0.2006 -0.0650  0.5150
  436MOL0     C57422   8.320   2.163   0.601  0.6762  0.3230 -1.4530
  436MOL0     O57423   8.243   2.068   0.544  0.7520  0.2569 -0.6523
  436MOL0     C57424   8.132   2.039   0.618  0.1703  0.7785  0.4221
  436MOL0     C57425   8.009   2.082   0.563 -0.6060 -0.4184  0.4391
  436MOL0     C57426   7.890   2.034   0.603  0.0841  0.0498 -0.8510
  436MOL0     C57427   7.882   1.942   0.707  0.2235  0.3316 -0.4675
  436MOL0     O57428   7.770   1.887   0.758  0.1205 -0.0825  0.7642
  436MOL0     C57429   7.648   1.901   0.671 -0.4660 -0.9413  0.4877
  436MOL0     C57430   7.540   1.799   0.703 -0.8333  1.1180 -0.7549
  436MOL0     C57431   7.424   1.868   0.772 -1.0668 -0.0358 -0.2982
  436MOL0     C57432   7.323   1.763   0.820 -1.4309 -0.3854  0.6087
  436MOL0     C57433   7.220   1.845   0.899 -0.4988 -0.6216  0.0355
  436MOL0     C57434   7.102   1.760   0.955 -0.7304  0.1451 -0.0050
  436MOL0     C57435   6.989   1.843   1.010 -0.4365 -0.6149 -0.0424
  436MOL0     C57436   6.873   1.768   1.081 -0.0060 -0.2619 -0.1944
  436MOL0     N57437   6.798   1.684   0.990 -0.6617  0.0622  0.0623
  436MOL0     C57438   6.732   1.729   0.875 -0.0940 -0.1582  0.3375
  436MOL0     C57439   6.731   1.626   0.788 -0.3360  0.3484 -0.2565
  436MOL0     C57440   6.685   1.637   0.645  0.2692  0.3201  0.1192
  436MOL0     C57441   6.529   1.607   0.622  0.4427 -0.2283  0.4160
  436MOL0     C57442   6.448   1.714   0.702  0.1909 -0.0973 -0.1356
  436MOL0     C57443   6.298   1.690   0.682  0.5713  0.6589 -0.0751
  436MOL0     O57444   6.221   1.792   0.754  0.8439  0.1716  0.2100
  436MOL0     C57445   6.081   1.788   0.761 -0.8274 -0.7839  0.0775
  436MOL0     C57446   6.009   1.700   0.687 -1.0546  0.4981 -0.6315
  436MOL0     C57447   5.875   1.694   0.700  0.6195 -0.8678  0.5045
  436MOL0     C57448   5.807   1.786   0.778 -0.4733  0.0333  1.0861
  436MOL0     C57449   5.665   1.781   0.771  0.5063  0.2078 -0.1429
  436MOL0     O57450   5.617   1.669   0.722 -0.0571  0.3570  0.1307
  436MOL0     C57451   5.486   1.635   0.755 -0.0230 -0.5018 -0.3908
  436MOL0     C57452   5.383   1.651   0.666  0.0079 -0.0366  0.1547
  436MOL0     C57453   5.254   1.611   0.693  0.4347  0.0485  0.0976
  436MOL0     C57454   5.219   1.583   0.826  0.0317  0.1326  0.3281
  436MOL0     O57455   5.093   1.554   0.859  0.3260 -0.4046 -0.2773
  436MOL0     C57456   5.057   1.416   0.848  0.3674  0.7405  0.0221
  436MOL0     C57457   4.930   1.371   0.929  0.1766 -0.3433  0.0308
  436MOL0     C57458   4.810   1.459   0.882  0.6792  0.2212  0.5475
  436MOL0     C57459   4.673   1.431   0.963 -0.9402 -0.3957 -0.1796
  436MOL0     C57460   4.623   1.290   0.948 -0.4438 -0.2831  0.3913
  436MOL0     C57461   4.468   1.288   0.976 -0.5628 -0.0271  0.0099
  436MOL0     C57462   4.414   1.141   0.967  0.6564  0.0140 -0.6155
  436MOL0     C57463   4.259   1.131   0.955 -1.0110 -0.6895 -0.3862
  436MOL0    Cl57464   4.176   1.247   1.051 -0.1249 -0.4300 -0.4907
  436MOL0     C57465   5.318   1.567   0.919  0.6126  0.3918  0.5485
  436MOL0     C57466   5.450   1.595   0.889  0.6615 -0.2715 -0.2955
  436MOL0     O57467   5.598   1.874   0.813  0.0057  0.3613 -0.0365
  436MOL0     C57468   5.883   1.888   0.847 -0.4065 -0.2184 -0.0376
  436MOL0     C57469   6.020   1.894   0.835  0.4041  0.9263 -0.4793
  436MOL0     N57470   6.782   1.515   0.854 -0.1529  0.2547 -0.0793
  436MOL0     N57471   6.822   1.548   0.967 -0.0117  0.7722  0.4500
  436MOL0     C57472   8.003   1.893   0.767 -0.2298 -0.1247  0.1407
  436MOL0     C57473   8.125   1.938   0.716 -0.2591 -1.0794 -0.0610
  436MOL0     C57474   8.461   2.163   0.549  0.6668 -0.3940 -0.0091
  436MOL0     C57475   8.519   2.290   0.523 -0.0746 -0.2760  0.2142
  436MOL0     C57476   8.646   2.295   0.456  0.3704 -0.0769  0.9395
  436MOL0     C57477   8.715   2.174   0.437  0.0444 -0.5288 -1.3076
  436MOL0     O57478   8.847   2.170   0.415 -0.0083  0.2266 -0.1609
  436MOL0     C57479   8.925   2.275   0.471 -0.7379 -0.9548 -0.5907
  436MOL0     C57480   9.079   2.232   0.479  0.1290  0.7189 -0.3909
  436MOL0     C57481   9.167   2.235   0.350 -0.1904  0.1965  0.9303
  436MOL0     C57482   9.314   2.263   0.382  1.0290  0.3517 -0.3523
  436MOL0     C57483   9.341   2.400   0.433 -0.1508 -0.1305 -0.3788
  436MOL0     C57484   9.364   2.507   0.481  1.0330 -0.0142  0.8495
  436MOL0     C57485   8.650   2.059   0.466 -0.5793 -0.2357  0.4793
  436MOL0     C57486   8.521   2.045   0.519 -0.2409 -0.5394  0.0966
  436MOL0     H57487   8.015   2.147   0.476  1.9969 -0.4314  0.5418
  436MOL0     H57488   7.796   2.057   0.554 -1.1216 -0.1178  1.2527
  436MOL0     H57489   7.674   1.890   0.566  1.0018  1.0553  0.5847
  436MOL0     H57490   7.605   2.002   0.673  1.6287  0.0458 -0.8109
  436MOL0     H57491   7.575   1.707   0.752 -1.2606  1.0979 -0.4744
  436MOL0     H57492   7.510   1.760   0.606 -0.5482  0.3343 -0.5379
  436MOL0     H57493   7.374   1.936   0.702  1.8260  0.6859 -1.8477
  436MOL0     H57494   7.459   1.928   0.857  2.4174 -1.6412 -0.4320
  436MOL0     H57495   7.275   1.725   0.729 -1.0976  1.4049 -0.3778
  436MOL0     H57496   7.379   1.700   0.889 -1.2774 -2.2506 -1.1180
  436MOL0     H57497   7.177   1.920   0.832 -2.1990 -1.7597 -0.1853
  436MOL0     H57498   7.268   1.896   0.984 -2.1717 -1.1504  1.3476
  436MOL0     H57499   7.152   1.697   1.029  1.0933 -2.5348 -3.2229
  436MOL0     H57500   7.066   1.697   0.873 -0.2457  2.2660 -1.9463
  436MOL0     H57501   7.024   1.920   1.079  0.2421 -0.1019 -0.9380
  436MOL0     H57502   6.936   1.901   0.933 -1.9836  1.5331  2.4534
  436MOL0     H57503   6.808   1.837   1.135  2.0158  3.0469 -1.6730
  436MOL0     H57504   6.919   1.710   1.162 -0.4123  0.0143  0.2340
  436MOL0     H57505   6.690   1.827   0.855 -0.1521 -0.2443  0.0381
  436MOL0     H57506   6.744   1.567   0.585  1.3720  1.2243  0.1110
  436MOL0     H57507   6.716   1.733   0.604 -0.3183  0.6586  0.4624
  436MOL0     H57508   6.505   1.504   0.650  0.3137 -0.9082 -1.9848
  436MOL0     H57509   6.514   1.607   0.513 -0.4208 -2.1215  0.5073
  436MOL0     H57510   6.462   1.719   0.810  2.8878  1.0649 -0.4446
  436MOL0     H57511   6.483   1.810   0.661  4.3263 -1.5662 -0.4680
  436MOL0     H57512   6.276   1.588   0.715 -0.8058  1.6541  2.3437
  436MOL0     H57513   6.279   1.699   0.575  0.1298 -1.4636 -0.2217
  436MOL0     H57514   6.056   1.618   0.633 -3.1200 -2.0172  1.0899
  436MOL0     H57515   5.825   1.617   0.643  0.9114  1.0680 -2.6151
  436MOL0     H57516   5.407   1.676   0.563  0.3117 -1.5560 -0.1760
  436MOL0     H57517   5.163   1.622   0.634 -1.0486  1.3306  2.4693
  436MOL0     H57518   5.138   1.348   0.872 -0.3708  0.7815  3.0107
  436MOL0     H57519   5.037   1.390   0.743  0.0351  0.4322  0.1562
  436MOL0     H57520   4.939   1.403   1.033  0.0334 -0.6628  0.1435
  436MOL0     H57521   4.924   1.262   0.920  2.1281 -0.4926  0.0074
  436MOL0     H57522   4.774   1.450   0.779 -1.1004 -2.6861  1.2983
  436MOL0     H57523   4.836   1.564   0.898  2.7244 -0.2537  0.6803
  436MOL0     H57524   4.700   1.449   1.068  1.3520 -2.3404 -0.3482
  436MOL0     H57525   4.605   1.505   0.921 -2.1856 -1.1067  0.5246
  436MOL0     H57526   4.675   1.218   1.012 -0.1591 -0.1509  0.3089
  436MOL0     H57527   4.645   1.266   0.844 -1.8784 -3.4769  0.6926
  436MOL0     H57528   4.419   1.341   0.893  0.3253  1.8720  0.6474
  436MOL0     H57529   4.445   1.342   1.068 -1.4776 -1.0663  0.4167
  436MOL0     H57530   4.455   1.095   0.877  2.1939 -0.2775  0.1952
  436MOL0     H57531   4.456   1.077   1.045 -0.1094  0.6982  0.3903
  436MOL0     H57532   4.227   1.031   0.984  1.8726 -1.2967  0.9962
  436MOL0     H57533   4.220   1.151   0.854 -2.4172  1.2474  0.4794
  436MOL0     H57534   5.286   1.542   1.020  1.5588 -0.4793  0.6537
  436MOL0     H57535   5.525   1.580   0.967 -0.1144 -2.0235  0.1685
  436MOL0     H57536   5.829   1.965   0.900 -0.9211 -0.4412 -0.2352
  436MOL0     H57537   6.072   1.972   0.890 -1.0118 -1.0598  4.0682
  436MOL0     H57538   7.990   1.811   0.838  1.0619  1.1260  1.9103
  436MOL0     H57539   8.230   1.918   0.736 -0.2129  0.2865  1.2390
  436MOL0     H57540   8.465   2.384   0.524  0.4784  0.1322 -2.0630
  436MOL0     H57541   8.699   2.386   0.428  0.7201 -0.5283  0.1249
  436MOL0     H57542   8.884   2.310   0.566  1.4426 -1.5959  0.6819
  436MOL0     H57543   8.920   2.364   0.409  0.0537 -0.7041 -0.3117
  436MOL0     H57544   9.119   2.309   0.545 -0.5006  1.6658 -1.0891
  436MOL0     H57545   9.086   2.136   0.530 -1.2910  1.5475  1.5033
  436MOL0     H57546   9.123   2.296   0.271 -1.5163 -4.3180 -2.2724
  436MOL0     H57547   9.165   2.134   0.306  1.1455  1.3993 -2.2223
  436MOL0     H57548   9.340   2.186   0.455  1.2701 -1.5758 -2.3650
  436MOL0     H57549   9.382   2.240   0.299 -0.6475  1.2498 -2.0359
  436MOL0     H57550   9.403   2.597   0.523 -1.3868  0.9308  1.2530
  436MOL0     H57551   8.713   1.971   0.467 -0.1486  0.0736  0.7367
  436MOL0     H57552   8.492   1.950   0.563  0.5557 -1.0719 -0.5003
  437MOL0     O57553   6.183   0.781   9.570 -0.1222  0.2130  0.2082
  437MOL0     C57554   6.256   0.689   9.607 -0.3083 -0.1270 -0.7811
  437MOL0     O57555   6.250   0.561   9.557 -0.0851  0.6519 -0.0912
  437MOL0     C57556   6.144   0.530   9.469 -0.5909 -0.8345 -0.0846
  437MOL0     C57557   6.015   0.537   9.514  1.1828  0.3888  0.0307
  437MOL0     C57558   5.905   0.495   9.424  0.4947 -0.0446 -0.3730
  437MOL0     C57559   5.937   0.443   9.298 -0.0662 -0.0588  0.2027
  437MOL0     O57560   5.847   0.381   9.214 -0.6021 -0.1563 -0.1592
  437MOL0     C57561   5.722   0.324   9.266  0.2353 -0.0729 -0.2517
  437MOL0     C57562   5.636   0.254   9.158 -0.1779  0.6375  0.3130
  437MOL0     C57563   5.507   0.195   9.220  0.1476 -0.1884 -0.1280
  437MOL0     C57564   5.424   0.128   9.112  0.4210 -0.2244  0.2052
  437MOL0     C57565   5.277   0.126   9.159 -0.3102  1.0458  0.0147
  437MOL0     C57566   5.191   0.072   9.042  0.0920 -0.2381 -0.8265
  437MOL0     C57567   5.147   0.168   8.937 -0.2292 -0.6840  0.3816
  437MOL0     C57568   5.073   0.290   8.998 -0.2623 -0.6726  0.3631
  437MOL0     N57569   4.965   0.276   9.099 -0.2271  0.0155  0.5512
  437MOL0     C57570   4.874   0.181   9.086  0.2888 -0.3000  0.7594
  437MOL0     C57571   4.822   0.159   9.207  0.3489 -1.1125 -0.5269
  437MOL0     C57572   4.730   0.047   9.255 -0.2199  0.3693 -0.5183
  437MOL0     C57573   4.590   0.083   9.197 -0.0321  0.6794 -0.5810
  437MOL0     C57574   4.532  -0.003   9.088 -0.4690 -0.1270 -1.0485
  437MOL0     C57575   4.390   0.061   9.061 -0.9118  0.3556  0.2167
  437MOL0     O57576   4.305   0.046   9.179 -0.4953 -0.0500 -0.3965
  437MOL0     C57577   4.171   0.077   9.162  0.2145  0.2286  0.1256
  437MOL0     C57578   4.118   0.153   9.057  0.0039  0.1768  0.4484
  437MOL0     C57579   3.980   0.168   9.031 -0.5789  0.5467 -0.3341
  437MOL0     C57580   3.891   0.115   9.128 -1.6802  0.2829  0.3355
  437MOL0     C57581   3.745   0.136   9.104 -0.9464 -1.0775  0.4262
  437MOL0     O57582   3.658   0.053   9.151 -0.4802 -0.1508  0.6146
  437MOL0     C57583   3.518   0.083   9.133 -1.0054  0.2619  0.4314
  437MOL0     C57584   3.441  -0.019   9.076  0.4636  0.2541 -0.2804
  437MOL0     C57585   3.303  -0.004   9.055 -1.0011  0.3617 -0.4577
  437MOL0     C57586   3.241   0.108   9.098 -0.3708 -0.5519  0.5927
  437MOL0     O57587   3.111   0.138   9.078  0.2768  0.4130 -0.1280
  437MOL0     C57588   3.010   0.057   9.142  0.3839 -0.2126  0.3058
  437MOL0     C57589   2.952   0.121   9.269  0.1287  0.2120 -0.5050
  437MOL0     C57590   2.893   0.008   9.355  0.1330  0.0912  0.0372
  437MOL0     C57591   2.831   0.061   9.488 -0.4171  0.5565  1.0581
  437MOL0     C57592   2.717  -0.026   9.526  0.9158 -0.2282 -0.7107
  437MOL0     C57593   2.765  -0.174   9.550  1.6789  0.4459 -1.1515
  437MOL0     C57594   2.657  -0.254   9.619  0.2714 -0.2409  0.3550
  437MOL0     C57595   2.537  -0.288   9.531  0.5346 -0.4836 -0.0678
  437MOL0    Cl57596   2.404  -0.382   9.612  0.1071  0.3487  0.1960
  437MOL0     C57597   3.319   0.215   9.147 -0.5604  0.3505  0.7770
  437MOL0     C57598   3.457   0.206   9.166  0.6446 -0.2709 -0.7116
  437MOL0     O57599   3.724   0.240   9.040  0.2481 -0.6648 -0.0344
  437MOL0     C57600   3.946   0.051   9.241  0.9608 -0.1372 -0.2563
  437MOL0     C57601   4.081   0.028   9.253 -0.6096 -0.1533  0.0557
  437MOL0     N57602   4.870   0.261   9.289  0.8263  0.2090 -0.2530
  437MOL0     N57603   4.954   0.334   9.223 -0.5939  0.3293  0.3359
  437MOL0     C57604   6.075   0.439   9.262 -0.1106 -0.4271  0.2569
  437MOL0     C57605   6.173   0.501   9.336 -0.0297 -1.0231 -0.0866
  437MOL0     C57606   6.375   0.722   9.691 -0.7716 -0.2212 -1.1497
  437MOL0     C57607   6.456   0.626   9.751  0.4834  0.4196 -0.4733
  437MOL0     C57608   6.553   0.647   9.844  0.0569 -0.1374  0.7110
  437MOL0     C57609   6.583   0.786   9.882  0.5880 -0.8262 -0.3673
  437MOL0     O57610   6.679   0.817   9.974  0.6614 -0.0977  0.0988
  437MOL0     C57611   6.810   0.766   9.951  0.4958 -0.1962 -1.1359
  437MOL0     C57612   6.883   0.865   9.876 -1.0163 -0.1733  0.6333
  437MOL0     C57613   7.026   0.809   9.878  0.1130 -0.1888  0.5646
  437MOL0     C57614   7.116   0.895   9.787  1.0478 -1.0803  0.4808
  437MOL0     C57615   7.250   0.848   9.781  0.1957  0.3195 -0.5982
  437MOL0     C57616   7.358   0.791   9.779 -0.2711  0.1351  0.1664
  437MOL0     C57617   6.508   0.888   9.813  0.2117 -0.0345  0.0161
  437MOL0     C57618   6.414   0.856   9.717 -0.3076  0.1078  0.0128
  437MOL0     H57619   5.984   0.574   9.611 -0.4441 -1.3720  0.2463
  437MOL0     H57620   5.804   0.493   9.464  0.0880 -2.5460 -1.3622
  437MOL0     H57621   5.658   0.391   9.324 -0.7583 -2.4468  1.5736
  437MOL0     H57622   5.757   0.248   9.336 -0.4863  1.0421  1.3861
  437MOL0     H57623   5.690   0.169   9.115  1.5868 -0.1360  3.6842
  437MOL0     H57624   5.615   0.321   9.075  1.4064 -1.4903 -1.9488
  437MOL0     H57625   5.447   0.268   9.277 -1.4948 -0.8751 -0.9194
  437MOL0     H57626   5.524   0.123   9.301 -1.6378 -1.3319 -0.7115
  437MOL0     H57627   5.432   0.189   9.021  0.5543 -0.4347  0.0768
  437MOL0     H57628   5.442   0.025   9.083 -1.2860 -0.6401  0.4732
  437MOL0     H57629   5.253   0.225   9.200 -0.0798 -0.9648  6.0529
  437MOL0     H57630   5.275   0.059   9.246  1.4080  0.2695 -0.5188
  437MOL0     H57631   5.102   0.036   9.094  0.9911 -1.7073 -0.2437
  437MOL0     H57632   5.233  -0.019   8.998  1.9659 -0.8219  1.9491
  437MOL0     H57633   5.230   0.200   8.873 -4.0227  3.6490 -3.0901
  437MOL0     H57634   5.082   0.111   8.870  1.8131 -2.2393 -0.3857
  437MOL0     H57635   5.029   0.342   8.913 -0.7527 -2.2105 -0.3571
  437MOL0     H57636   5.155   0.346   9.044  0.6184 -2.3754  0.9810
  437MOL0     H57637   4.847   0.135   8.991  0.2388  0.6140  0.3136
  437MOL0     H57638   4.741   0.039   9.364 -0.1051  0.1359 -0.5462
  437MOL0     H57639   4.753  -0.049   9.208 -0.5715  0.9213 -1.8532
  437MOL0     H57640   4.579   0.190   9.178 -2.4912  0.7072  0.7353
  437MOL0     H57641   4.540   0.079   9.294  2.6725 -0.5518  0.8858
  437MOL0     H57642   4.593   0.001   8.997  0.2868 -2.2979 -0.7063
  437MOL0     H57643   4.527  -0.112   9.090  3.3680 -0.4851 -2.0073
  437MOL0     H57644   4.353  -0.012   8.988  0.3999  0.3884 -0.5071
  437MOL0     H57645   4.394   0.161   9.018 -2.9746  1.1110  1.6230
  437MOL0     H57646   4.190   0.209   8.998  1.3216 -1.1602  0.7209
  437MOL0     H57647   3.953   0.236   8.950  0.0102  1.5750  0.3179
  437MOL0     H57648   3.492  -0.110   9.044  0.0853  0.0965 -0.4481
  437MOL0     H57649   3.237  -0.080   9.015  1.2228 -1.5640 -0.6870
  437MOL0     H57650   3.050  -0.041   9.171  0.8560 -0.1581 -0.1443
  437MOL0     H57651   2.928   0.043   9.072 -0.9016  0.5739  1.5987
  437MOL0     H57652   2.881   0.199   9.237  1.6234  0.7866 -2.6157
  437MOL0     H57653   3.034   0.174   9.319  0.4704  0.8889 -1.7364
  437MOL0     H57654   2.971  -0.067   9.372  1.3178  1.2504 -0.1454
  437MOL0     H57655   2.814  -0.043   9.299  1.6237 -0.8767 -1.2770
  437MOL0     H57656   2.910   0.057   9.564 -0.9421  0.5860  1.6161
  437MOL0     H57657   2.798   0.165   9.485  0.6560  0.8837 -1.3159
  437MOL0     H57658   2.640  -0.024   9.448 -1.6250  0.7207  1.6833
  437MOL0     H57659   2.683   0.013   9.621  0.8532 -0.7275 -0.5242
  437MOL0     H57660   2.854  -0.167   9.613  0.2481  1.0969  0.8905
  437MOL0     H57661   2.804  -0.224   9.461  2.1856  1.1477 -1.3305
  437MOL0     H57662   2.695  -0.349   9.656 -0.7672 -1.2101 -0.9736
  437MOL0     H57663   2.627  -0.196   9.707  0.5169 -0.5075  0.6177
  437MOL0     H57664   2.583  -0.337   9.445  0.1792 -0.5391 -0.2267
  437MOL0     H57665   2.495  -0.195   9.491  0.8751  0.0582  0.7976
  437MOL0     H57666   3.270   0.299   9.195  0.2142  0.1883  1.9102
  437MOL0     H57667   3.512   0.277   9.227  2.1022 -1.0074 -1.1428
  437MOL0     H57668   3.883   0.009   9.319  1.1558  0.5556  0.2786
  437MOL0     H57669   4.124  -0.037   9.328  2.3775  1.6842  0.1118
  437MOL0     H57670   6.104   0.402   9.164 -0.7365 -1.8532  0.5778
  437MOL0     H57671   6.273   0.499   9.294  0.2052  0.8310  0.3167
  437MOL0     H57672   6.446   0.524   9.713  0.5297  0.1827  0.1416
  437MOL0     H57673   6.609   0.560   9.877  1.0449  0.7075  1.3638
  437MOL0     H57674   6.808   0.673   9.893  2.8841 -1.5389  0.7484
  437MOL0     H57675   6.843   0.736  10.051 -1.1532  0.5504 -0.3205
  437MOL0     H57676   6.849   0.865   9.772  2.8879  1.1505 -0.8480
  437MOL0     H57677   6.884   0.964   9.921 -0.3025 -0.0284  0.3102
  437MOL0     H57678   7.017   0.710   9.834  2.5860  0.8601 -2.7546
  437MOL0     H57679   7.068   0.792   9.977 -0.5478  2.5000  1.4027
  437MOL0     H57680   7.076   0.889   9.685 -0.6710  0.2435  1.0299
  437MOL0     H57681   7.110   1.002   9.812 -0.8469 -0.5269 -1.9542
  437MOL0     H57682   7.456   0.746   9.780  0.1346  0.9362  1.9463
  437MOL0     H57683   6.524   0.991   9.844  2.5457  0.1040 -1.3649
  437MOL0     H57684   6.363   0.939   9.667 -1.7207 -0.5485  0.3032
  438MOL0     O57685   2.257  10.594   3.096 -0.5264  0.6553  0.2637
  438MOL0     C57686   2.339  10.687   3.087 -0.5474 -0.5922 -0.2955
  438MOL0     O57687   2.357  10.764   2.978 -0.4667 -0.5526 -0.0941
  438MOL0     C57688   2.306  10.719   2.860  0.5776 -0.3348  0.1958
  438MOL0     C57689   2.381  10.679   2.750 -1.1750 -0.3278 -1.3893
  438MOL0     C57690   2.332  10.649   2.626  0.2435 -0.1529 -0.3627
  438MOL0     C57691   2.195  10.651   2.604  0.4912  1.1561  0.4567
  438MOL0     O57692   2.138  10.609   2.487 -0.1836  0.5788  0.2567
  438MOL0     C57693   2.023  10.521   2.495 -0.0688  0.4269 -0.4658
  438MOL0     C57694   2.000  10.431   2.378  0.5220  0.5989  0.2820
  438MOL0     C57695   1.869  10.361   2.393  0.3612 -0.4568 -0.0157
  438MOL0     C57696   1.745  10.454   2.392  0.4456 -0.2207  0.4611
  438MOL0     C57697   1.619  10.369   2.386 -0.2239  0.2963  0.3315
  438MOL0     C57698   1.498  10.446   2.388  0.8489  0.5266 -1.0879
  438MOL0     C57699   1.368  10.360   2.414 -0.8644  0.3791 -0.3315
  438MOL0     C57700   1.254  10.420   2.496  0.2502  0.1290 -0.1440
  438MOL0     N57701   1.207  10.538   2.432 -0.7193  1.2326  0.0382
  438MOL0     C57702   1.094  10.554   2.354  0.2408  1.0406  0.4539
  438MOL0     C57703   1.060  10.682   2.375 -0.2881 -0.0655  0.4060
  438MOL0     C57704   0.935  10.747   2.338 -0.2797 -0.3598 -0.1836
  438MOL0     C57705   0.893  10.869   2.429  0.1882  0.6111  0.0747
  438MOL0     C57706   0.785  10.961   2.378  0.3468  0.1026  0.0036
  438MOL0     C57707   0.760  11.071   2.482 -0.2907  0.8273 -0.1000
  438MOL0     O57708   0.653  11.157   2.441 -0.0411  0.4769 -0.5649
  438MOL0     C57709   0.521  11.128   2.481  0.0268  0.4919  1.0712
  438MOL0     C57710   0.482  11.012   2.553  0.2120 -0.6248 -0.3269
  438MOL0     C57711   0.348  10.994   2.589  0.9125 -0.4121 -0.5286
  438MOL0     C57712   0.254  11.097   2.568  0.4729  0.1521  1.0141
  438MOL0     C57713   0.110  11.070   2.596  1.2109 -0.1084 -0.1619
  438MOL0     O57714   0.009  11.157   2.570 -0.3081  0.2824  0.1942
  438MOL0     C57715  -0.122  11.135   2.608  0.5125 -0.2349  0.3864
  438MOL0     C57716  -0.227  11.110   2.508 -0.2116 -0.6236 -0.0848
  438MOL0     C57717  -0.354  11.088   2.551 -0.8851  0.2425  0.9814
  438MOL0     C57718  -0.392  11.104   2.682  0.2638  0.2250 -0.6109
  438MOL0     O57719  -0.522  11.099   2.709 -0.3392  0.0223  0.4803
  438MOL0     C57720  -0.565  11.121   2.845 -0.0341 -0.7864  0.2792
  438MOL0     C57721  -0.717  11.099   2.841  0.4976 -1.9232 -0.1818
  438MOL0     C57722  -0.762  11.104   2.987 -0.0207 -0.2576  0.5347
  438MOL0     C57723  -0.911  11.097   2.991 -0.1745  0.2033 -0.2527
  438MOL0     C57724  -0.937  11.042   3.136 -0.7958 -0.2563 -0.0420
  438MOL0     C57725  -1.080  11.010   3.164  0.6565  0.5502 -0.4307
  438MOL0     C57726  -1.113  10.972   3.308 -0.2510 -0.3808 -0.4136
  438MOL0     C57727  -1.248  11.027   3.340  0.1386 -0.3494  0.4938
  438MOL0    Cl57728  -1.378  10.941   3.229  0.2662  0.1490 -0.1028
  438MOL0     C57729  -0.291  11.119   2.777  0.2358 -0.3322  0.0286
  438MOL0     C57730  -0.164  11.141   2.737 -0.1392  0.1617 -0.2081
  438MOL0     O57731   0.093  10.976   2.670 -0.3492  0.4989 -0.6067
  438MOL0     C57732   0.295  11.222   2.508  0.3813  0.6404 -0.1120
  438MOL0     C57733   0.430  11.230   2.460  0.5658 -0.2175 -0.7152
  438MOL0     N57734   1.160  10.739   2.453  0.2679  0.5891 -0.5638
  438MOL0     N57735   1.247  10.656   2.485  0.0371 -0.0256 -0.8250
  438MOL0     C57736   2.113  10.693   2.714 -0.7603 -0.1301  0.2885
  438MOL0     C57737   2.169  10.721   2.842  0.4088  0.0032 -0.0332
  438MOL0     C57738   2.418  10.730   3.203 -0.5826 -0.2772 -0.0789
  438MOL0     C57739   2.424  10.650   3.319 -0.3292 -0.0187 -0.3344
  438MOL0     C57740   2.499  10.685   3.427  0.5452  0.1042 -0.1806
  438MOL0     C57741   2.566  10.807   3.433 -0.4839  0.6110 -0.1648
  438MOL0     O57742   2.646  10.834   3.547  0.0563  0.1289  0.2994
  438MOL0     C57743   2.724  10.954   3.557  0.0327  0.7106  0.4065
  438MOL0     C57744   2.860  10.921   3.485  0.5760 -0.3353  0.2599
  438MOL0     C57745   2.946  10.804   3.527 -0.1393  0.8846 -0.6618
  438MOL0     C57746   3.093  10.808   3.462 -0.5258  0.4484 -0.2101
  438MOL0     C57747   3.206  10.750   3.541  0.1772 -0.3024  0.0506
  438MOL0     C57748   3.277  10.681   3.615 -0.1177  0.1950  0.0926
  438MOL0     C57749   2.554  10.899   3.322 -0.8296  0.6064 -0.7167
  438MOL0     C57750   2.483  10.851   3.209  0.0146 -0.7874 -0.0820
  438MOL0     H57751   2.488  10.684   2.769 -1.2672 -1.5545 -0.4609
  438MOL0     H57752   2.392  10.615   2.542  0.2864  0.9074 -0.7705
  438MOL0     H57753   1.937  10.589   2.501 -1.2576 -1.0667  0.1732
  438MOL0     H57754   2.015  10.455   2.582 -2.9330 -0.4683 -1.2878
  438MOL0     H57755   2.088  10.367   2.374  0.3771  0.3815  0.5055
  438MOL0     H57756   1.999  10.491   2.287  1.0645  0.3606  0.1142
  438MOL0     H57757   1.876  10.305   2.486  2.0782  0.8821  0.7162
  438MOL0     H57758   1.851  10.294   2.308 -1.2180 -0.1166  0.0197
  438MOL0     H57759   1.742  10.522   2.477  2.1214  0.0731  0.3124
  438MOL0     H57760   1.749  10.517   2.303 -2.4231  0.5123  0.7282
  438MOL0     H57761   1.625  10.298   2.469 -1.1291  0.5528  0.6355
  438MOL0     H57762   1.607  10.321   2.288 -1.2880  1.4032 -0.1167
  438MOL0     H57763   1.481  10.500   2.295  0.5770 -0.8231 -1.8477
  438MOL0     H57764   1.503  10.530   2.458  0.2739 -0.4028  0.0935
  438MOL0     H57765   1.327  10.334   2.316 -0.1257 -0.5913 -0.4016
  438MOL0     H57766   1.400  10.269   2.466 -0.9294  0.0034 -0.9360
  438MOL0     H57767   1.279  10.452   2.598 -2.6125 -1.7897  1.2943
  438MOL0     H57768   1.175  10.346   2.507  0.5980 -0.1837  0.2961
  438MOL0     H57769   1.020  10.487   2.312  0.3676  1.0712  0.1762
  438MOL0     H57770   0.851  10.684   2.367 -0.1312  0.1199  1.3378
  438MOL0     H57771   0.932  10.785   2.235 -0.2256  2.2203  0.6829
  438MOL0     H57772   0.986  10.926   2.430  1.1751 -0.7967  3.4747
  438MOL0     H57773   0.858  10.843   2.530 -2.0721  1.0081 -0.5715
  438MOL0     H57774   0.807  11.000   2.279  0.2576  0.2333  0.0355
  438MOL0     H57775   0.700  10.893   2.375  2.4399 -2.7853  0.9659
  438MOL0     H57776   0.842  11.143   2.495  1.1473 -0.3885 -1.9759
  438MOL0     H57777   0.755  11.026   2.581 -0.3487 -0.2454 -0.5760
  438MOL0     H57778   0.554  10.939   2.585  1.0777  0.5332  0.4434
  438MOL0     H57779   0.312  10.904   2.638  1.2320  1.0920  2.8051
  438MOL0     H57780  -0.211  11.106   2.400  0.3224 -0.2396 -0.0236
  438MOL0     H57781  -0.426  11.070   2.471 -0.8443  2.9777  0.2165
  438MOL0     H57782  -0.539  11.222   2.880 -0.0037 -0.4686 -0.6152
  438MOL0     H57783  -0.524  11.049   2.915 -0.2258 -0.6030  0.5816
  438MOL0     H57784  -0.721  10.997   2.801  5.6735 -2.6196  0.3133
  438MOL0     H57785  -0.767  11.180   2.788  3.9825 -0.0255 -0.8865
  438MOL0     H57786  -0.739  11.209   3.006 -0.5669 -0.4179  2.2520
  438MOL0     H57787  -0.718  11.031   3.057 -1.8814 -1.0078  0.9771
  438MOL0     H57788  -0.956  11.196   2.978 -0.2551  0.0483 -1.1891
  438MOL0     H57789  -0.958  11.039   2.912 -1.1646  0.9877 -0.2711
  438MOL0     H57790  -0.897  11.120   3.201  1.9059 -0.4556 -1.3150
  438MOL0     H57791  -0.884  10.947   3.153  0.0375  0.6303  2.7356
  438MOL0     H57792  -1.115  10.925   3.103 -3.5483  1.7998 -0.1249
  438MOL0     H57793  -1.140  11.097   3.136 -1.8651 -0.8889  0.1253
  438MOL0     H57794  -1.102  10.865   3.326  3.2539 -0.6349 -3.0468
  438MOL0     H57795  -1.047  11.027   3.376  0.3242  0.1811 -1.4201
  438MOL0     H57796  -1.263  11.132   3.317  0.4012 -0.0085  1.7998
  438MOL0     H57797  -1.279  11.013   3.444 -0.3546 -0.6625  0.3132
  438MOL0     H57798  -0.304  11.126   2.885  1.9481 -1.9987  0.3772
  438MOL0     H57799  -0.084  11.151   2.810  0.1863 -1.3877 -0.3079
  438MOL0     H57800   0.222  11.303   2.504  0.9209  1.0804 -1.7782
  438MOL0     H57801   0.470  11.326   2.430  0.2965 -0.3977 -1.6682
  438MOL0     H57802   2.006  10.674   2.712 -0.3243 -3.4023  1.7559
  438MOL0     H57803   2.114  10.759   2.927  1.0603  0.2639  0.2822
  438MOL0     H57804   2.370  10.556   3.307 -2.6268  1.2462 -0.4325
  438MOL0     H57805   2.497  10.621   3.514 -1.1364  0.8613  0.3729
  438MOL0     H57806   2.733  10.982   3.662 -0.2639 -0.4594  0.7636
  438MOL0     H57807   2.674  11.036   3.505  0.8583 -0.0813 -1.7787
  438MOL0     H57808   2.846  10.915   3.376 -1.4156  0.2509  0.4292
  438MOL0     H57809   2.918  11.011   3.507 -3.8345  3.0803 -0.4905
  438MOL0     H57810   2.903  10.706   3.503  1.6080  0.2544 -1.4103
  438MOL0     H57811   2.940  10.804   3.636 -1.6676  0.0681 -0.7150
  438MOL0     H57812   3.088  10.759   3.365  1.1219 -0.7583  0.2758
  438MOL0     H57813   3.112  10.915   3.450  0.6762  0.4628  1.5225
  438MOL0     H57814   3.329  10.628   3.692 -1.9017 -1.3606  0.3000
  438MOL0     H57815   2.611  10.991   3.324 -1.4013  1.0124 -2.0568
  438MOL0     H57816   2.468  10.921   3.126 -0.0163  0.0819  0.6399
  439MOL0     O57817   3.578   8.064   2.435 -0.0445  0.8903  0.5922
  439MOL0     C57818   3.673   7.999   2.378  1.0936  0.6042  0.6743
  439MOL0     O57819   3.662   7.896   2.293  0.6877  0.3860 -0.1416
  439MOL0     C57820   3.536   7.846   2.264 -0.0768  0.4236 -0.6902
  439MOL0     C57821   3.409   7.910   2.265 -0.1313  0.1740  0.1490
  439MOL0     C57822   3.290   7.843   2.239 -0.0602 -0.0042  0.2208
  439MOL0     C57823   3.286   7.708   2.203  0.1724 -0.7160  0.3502
  439MOL0     O57824   3.167   7.645   2.169 -0.4506  0.1059  0.1594
  439MOL0     C57825   3.087   7.614   2.290  0.1948  0.0462  0.3257
  439MOL0     C57826   2.967   7.541   2.248  0.1927  0.9634  1.1292
  439MOL0     C57827   2.886   7.630   2.148  0.3848  0.1279  0.0981
  439MOL0     C57828   2.742   7.581   2.152 -0.2245  0.2677 -0.4722
  439MOL0     C57829   2.728   7.441   2.094  0.3456  0.1172 -0.0922
  439MOL0     C57830   2.591   7.375   2.109  0.3318 -0.9816  0.4854
  439MOL0     C57831   2.578   7.229   2.047 -0.3872 -0.1894 -0.5387
  439MOL0     C57832   2.451   7.172   2.100 -0.1185 -0.0362  0.5693
  439MOL0     N57833   2.327   7.243   2.077 -0.2578  0.3903 -0.6473
  439MOL0     C57834   2.284   7.307   1.963 -0.3952 -0.1936  0.1697
  439MOL0     C57835   2.159   7.360   1.999  0.4860  0.1087  0.2527
  439MOL0     C57836   2.088   7.454   1.908 -0.0239 -0.2301 -0.2317
  439MOL0     C57837   1.940   7.439   1.905  0.5295  0.4078  0.6515
  439MOL0     C57838   1.874   7.427   1.766 -0.1807 -0.2792 -0.0339
  439MOL0     C57839   1.723   7.404   1.790 -0.4853 -0.1834  0.1505
  439MOL0     O57840   1.648   7.414   1.670 -0.7805  0.5011  0.7931
  439MOL0     C57841   1.512   7.423   1.689  0.6901 -0.5771  0.4765
  439MOL0     C57842   1.432   7.406   1.801 -0.3966  0.2752  0.4019
  439MOL0     C57843   1.288   7.419   1.782 -0.2395 -0.1871  0.9954
  439MOL0     C57844   1.232   7.452   1.663 -0.0607  0.5691 -0.0360
  439MOL0     C57845   1.090   7.458   1.658  0.2211 -0.1362 -0.0022
  439MOL0     O57846   1.035   7.523   1.769  0.0624 -0.1843  0.1389
  439MOL0     C57847   0.901   7.536   1.790  0.0682 -0.0731  0.6668
  439MOL0     C57848   0.857   7.658   1.853 -0.2184  0.3653 -0.1714
  439MOL0     C57849   0.732   7.683   1.892  0.2786  0.1595 -0.3588
  439MOL0     C57850   0.639   7.592   1.853  1.0237 -0.1870  0.4468
  439MOL0     O57851   0.510   7.597   1.891 -0.4210 -0.8040  0.2493
  439MOL0     C57852   0.447   7.726   1.883 -1.0663 -0.5200 -0.6020
  439MOL0     C57853   0.291   7.704   1.904  0.1061  0.2125  0.5225
  439MOL0     C57854   0.226   7.834   1.930  0.1752 -0.0794  0.2620
  439MOL0     C57855   0.070   7.833   1.967 -0.9061 -0.2013  0.4718
  439MOL0     C57856   0.037   7.972   2.024  0.0854 -0.8372 -0.9155
  439MOL0     C57857  -0.102   8.017   2.027 -0.5004 -0.3545  0.2773
  439MOL0     C57858  -0.122   8.169   2.065  0.2545 -0.5633  1.3384
  439MOL0     C57859  -0.240   8.234   1.980 -0.5700  0.7657  0.8659
  439MOL0    Cl57860  -0.243   8.403   2.021  0.3065 -0.1758  0.3619
  439MOL0     C57861   0.671   7.471   1.794  0.7294  0.3497 -1.0900
  439MOL0     C57862   0.803   7.435   1.768 -0.2879 -0.5581 -0.1598
  439MOL0     O57863   1.024   7.412   1.565 -0.0332 -0.1311  0.1487
  439MOL0     C57864   1.310   7.478   1.547  0.1019 -0.2098 -0.1924
  439MOL0     C57865   1.448   7.462   1.568  0.6966 -0.1097 -0.1562
  439MOL0     N57866   2.133   7.315   2.134 -0.5168  0.0609  0.1103
  439MOL0     N57867   2.231   7.250   2.178 -0.2341  0.4360  0.0834
  439MOL0     C57868   3.408   7.633   2.201  0.3323 -0.6070  1.0199
  439MOL0     C57869   3.528   7.705   2.232  0.3501 -0.9418  0.3747
  439MOL0     C57870   3.807   8.037   2.429 -0.1775 -0.0558 -0.2340
  439MOL0     C57871   3.836   8.131   2.528 -0.3460  0.1304 -0.4041
  439MOL0     C57872   3.970   8.163   2.559  0.1948  0.6074  0.7556
  439MOL0     C57873   4.080   8.099   2.485 -0.7468 -0.6578 -0.1668
  439MOL0     O57874   4.211   8.120   2.515 -0.0731  0.2723 -0.2601
  439MOL0     C57875   4.244   8.230   2.598  0.3484  0.4994  0.6831
  439MOL0     C57876   4.381   8.289   2.556  0.8328  0.3922  0.1072
  439MOL0     C57877   4.379   8.381   2.438  0.3405  0.5807 -0.0422
  439MOL0     C57878   4.508   8.407   2.372  0.3398 -0.0881  0.5166
  439MOL0     C57879   4.503   8.527   2.288 -0.2184  0.6466 -0.7308
  439MOL0     C57880   4.496   8.624   2.216  0.4901 -0.4990 -0.2375
  439MOL0     C57881   4.045   8.020   2.375  0.3864  0.4080 -0.0284
  439MOL0     C57882   3.917   7.990   2.348  0.7538  0.2013  0.1367
  439MOL0     H57883   3.379   8.014   2.266 -1.3130 -0.1396  1.2254
  439MOL0     H57884   3.201   7.906   2.238 -0.6318 -0.7746  0.8445
  439MOL0     H57885   3.056   7.704   2.344  1.9281 -0.6324  2.5845
  439MOL0     H57886   3.148   7.555   2.359 -1.7112  1.0331  3.0659
  439MOL0     H57887   2.908   7.507   2.334  3.1257 -1.4894  2.3561
  439MOL0     H57888   2.991   7.446   2.199  1.9184 -0.2082  4.0435
  439MOL0     H57889   2.917   7.616   2.044  1.7974  0.6217  0.4220
  439MOL0     H57890   2.880   7.736   2.176 -0.4431 -0.3305  1.7886
  439MOL0     H57891   2.698   7.577   2.252  0.5255  1.2270 -0.0929
  439MOL0     H57892   2.684   7.655   2.096  1.4996  1.7123 -0.4271
  439MOL0     H57893   2.798   7.373   2.145  0.4944 -2.0012 -2.8656
  439MOL0     H57894   2.765   7.447   1.992  0.3601 -0.4922 -0.1273
  439MOL0     H57895   2.520   7.439   2.057  1.3495  1.7490  2.2513
  439MOL0     H57896   2.555   7.376   2.213 -0.1769  0.2406  0.3080
  439MOL0     H57897   2.572   7.238   1.938 -4.1877 -0.3371 -0.4526
  439MOL0     H57898   2.655   7.157   2.076 -0.4145  0.4898  1.3663
  439MOL0     H57899   2.471   7.161   2.207 -0.6050  1.7983  0.8723
  439MOL0     H57900   2.435   7.074   2.053 -0.7617  0.9746 -1.4191
  439MOL0     H57901   2.349   7.322   1.877  1.0572  0.1132  1.2952
  439MOL0     H57902   2.129   7.445   1.807  1.3005 -2.0423  0.4178
  439MOL0     H57903   2.122   7.555   1.931  1.3240 -0.7617  0.2529
  439MOL0     H57904   1.896   7.513   1.973  0.1164 -0.1892  1.0346
  439MOL0     H57905   1.914   7.345   1.955  0.4766  0.5828  0.9616
  439MOL0     H57906   1.878   7.517   1.703  0.3564  1.7739  2.7003
  439MOL0     H57907   1.916   7.336   1.723 -0.0606  0.2164 -0.9906
  439MOL0     H57908   1.681   7.477   1.859 -0.3432 -2.4311  2.7759
  439MOL0     H57909   1.717   7.305   1.837 -0.4687  0.3432  1.2885
  439MOL0     H57910   1.474   7.395   1.900  0.9709  2.7056  0.1880
  439MOL0     H57911   1.229   7.411   1.873 -1.2105  1.0626  0.5144
  439MOL0     H57912   0.926   7.734   1.888 -2.2143  2.8846 -1.2868
  439MOL0     H57913   0.705   7.764   1.959  1.3977  0.4542 -0.2424
  439MOL0     H57914   0.472   7.786   1.794  1.3663  1.3893  1.1949
  439MOL0     H57915   0.482   7.793   1.963  0.1020 -0.5724 -1.0370
  439MOL0     H57916   0.270   7.647   1.996 -1.5017  2.1384  1.4362
  439MOL0     H57917   0.245   7.649   1.821 -2.3085  0.2499  1.7240
  439MOL0     H57918   0.233   7.895   1.840  1.6108 -1.5436 -0.6823
  439MOL0     H57919   0.283   7.885   2.008  0.6302 -0.5390  0.2356
  439MOL0     H57920   0.008   7.812   1.879 -0.3108  0.3329 -0.0914
  439MOL0     H57921   0.042   7.767   2.049 -2.8704 -1.4072 -1.0792
  439MOL0     H57922   0.100   8.041   1.967  0.3307  0.0775  0.4083
  439MOL0     H57923   0.084   7.991   2.121  2.4959 -2.0660 -1.7788
  439MOL0     H57924  -0.156   7.957   2.101 -1.5828 -0.0970 -0.2765
  439MOL0     H57925  -0.144   7.993   1.929 -1.9755 -2.3442  1.3231
  439MOL0     H57926  -0.130   8.191   2.171  0.6645  1.0486  1.0622
  439MOL0     H57927  -0.029   8.222   2.042  0.6989 -1.5468  0.8060
  439MOL0     H57928  -0.332   8.180   2.003 -0.4490  0.7291  1.2639
  439MOL0     H57929  -0.218   8.240   1.873 -2.1024  0.1887  0.4934
  439MOL0     H57930   0.602   7.390   1.773 -1.4203  2.1122 -1.3310
  439MOL0     H57931   0.823   7.344   1.712  1.1901  0.3285 -1.1302
  439MOL0     H57932   1.256   7.503   1.456 -1.9022  2.4441  1.5988
  439MOL0     H57933   1.521   7.484   1.492  1.0916  2.7180  0.9264
  439MOL0     H57934   3.392   7.531   2.169 -0.3142  0.4245 -2.2801
  439MOL0     H57935   3.619   7.646   2.228  0.7735 -0.2274 -0.9604
  439MOL0     H57936   3.760   8.168   2.596 -1.7931 -2.8857 -0.2335
  439MOL0     H57937   3.984   8.231   2.643 -3.4363  1.1337  1.0988
  439MOL0     H57938   4.249   8.184   2.697 -0.9144 -1.7191 -0.1979
  439MOL0     H57939   4.162   8.301   2.602 -2.0689 -2.0610 -0.1761
  439MOL0     H57940   4.412   8.343   2.646  1.8154  0.1421 -0.0688
  439MOL0     H57941   4.447   8.206   2.529  0.7457  0.9094 -1.7941
  439MOL0     H57942   4.349   8.479   2.476  0.4914  0.8746 -0.6523
  439MOL0     H57943   4.311   8.340   2.362 -0.7794 -0.5472  1.5182
  439MOL0     H57944   4.591   8.406   2.444 -0.0315 -0.8934  0.9409
  439MOL0     H57945   4.532   8.327   2.302 -0.4117 -0.5333  0.7623
  439MOL0     H57946   4.497   8.722   2.172  1.3725 -0.0142  0.8234
  439MOL0     H57947   4.124   7.973   2.316 -1.0796 -2.8645  0.4523
  439MOL0     H57948   3.893   7.937   2.257  0.6680  3.7918 -2.1359
  440MOL0     O57949   4.922   6.781   4.373 -0.1224 -0.4860 -0.1793
  440MOL0     C57950   4.936   6.737   4.483  0.1549  0.6804 -0.0740
  440MOL0     O57951   4.859   6.632   4.525  0.3015 -0.3034  0.0600
  440MOL0     C57952   4.764   6.573   4.446 -0.3372 -0.3977  0.4714
  440MOL0     C57953   4.797   6.522   4.319  0.1835 -0.5473 -1.6950
  440MOL0     C57954   4.693   6.465   4.237  0.4275 -0.0221  0.1588
  440MOL0     C57955   4.568   6.448   4.290  0.0284  0.3852  0.3903
  440MOL0     O57956   4.492   6.371   4.205 -0.3516 -0.3906  0.1605
  440MOL0     C57957   4.385   6.295   4.254 -0.7111  0.1040 -0.2398
  440MOL0     C57958   4.340   6.186   4.148  0.1897 -0.7385 -0.0078
  440MOL0     C57959   4.275   6.251   4.024  0.1333 -0.4918 -0.1118
  440MOL0     C57960   4.231   6.137   3.941  0.6556 -0.9752  0.4273
  440MOL0     C57961   4.174   6.196   3.820  0.3027 -0.6606  0.2417
  440MOL0     C57962   4.137   6.082   3.726 -0.7390  0.0001 -0.8636
  440MOL0     C57963   4.023   6.115   3.630  0.3882  0.5337 -0.6967
  440MOL0     C57964   4.074   6.211   3.522 -0.8290 -0.2823  0.0820
  440MOL0     N57965   4.162   6.145   3.430  0.1333  0.3353 -0.3381
  440MOL0     C57966   4.121   6.059   3.328  0.2648  0.1761  0.7703
  440MOL0     C57967   4.235   6.029   3.258 -0.4663  1.1875 -0.8270
  440MOL0     C57968   4.252   5.949   3.140  0.2661 -1.0130  0.3627
  440MOL0     C57969   4.242   6.017   3.003 -0.6097  0.6219 -0.7353
  440MOL0     C57970   4.357   6.116   2.980  0.5682  0.6246 -0.2813
  440MOL0     C57971   4.479   6.040   2.930 -0.5266  0.7295  0.4377
  440MOL0     O57972   4.576   6.142   2.897 -0.3054  0.1254  0.5007
  440MOL0     C57973   4.690   6.098   2.830 -0.2419  0.3652  0.2035
  440MOL0     C57974   4.717   5.963   2.807 -0.3631  0.3906  0.7666
  440MOL0     C57975   4.839   5.934   2.750 -0.3996  0.1021 -0.6480
  440MOL0     C57976   4.938   6.029   2.721 -0.0694 -0.3785 -0.0278
  440MOL0     C57977   5.066   5.984   2.665 -0.2243 -0.0155  0.6556
  440MOL0     O57978   5.076   5.851   2.640 -0.0793  0.6888  0.2638
  440MOL0     C57979   5.191   5.797   2.599 -0.4346  0.1008  0.9476
  440MOL0     C57980   5.222   5.679   2.656  0.2278  0.3939  0.2215
  440MOL0     C57981   5.341   5.619   2.623  0.3871  0.3819  0.5362
  440MOL0     C57982   5.437   5.672   2.530 -0.5961 -0.0965 -0.9318
  440MOL0     O57983   5.562   5.605   2.512  0.6045 -0.8327  0.4563
  440MOL0     C57984   5.639   5.575   2.630 -0.2926 -0.8354  0.0342
  440MOL0     C57985   5.759   5.492   2.584  0.2545  0.4231  0.5950
  440MOL0     C57986   5.823   5.426   2.710 -0.8685  1.2042 -0.2045
  440MOL0     C57987   5.926   5.312   2.686  0.5463  0.1501  0.0410
  440MOL0     C57988   6.051   5.373   2.631  0.8330 -0.5498  0.6840
  440MOL0     C57989   6.165   5.274   2.609  0.5125  0.3726  0.0419
  440MOL0     C57990   6.276   5.305   2.717  0.3423 -0.2279 -0.1350
  440MOL0     C57991   6.391   5.211   2.689 -0.2749 -0.0204 -0.2466
  440MOL0    Cl57992   6.532   5.239   2.792 -0.0484  0.2765  0.4097
  440MOL0     C57993   5.398   5.789   2.472  0.2866 -0.4038  0.1455
  440MOL0     C57994   5.273   5.847   2.495 -0.0182 -0.4655 -0.4460
  440MOL0     O57995   5.143   6.071   2.637 -0.4148  0.5809  0.0785
  440MOL0     C57996   4.907   6.166   2.739  0.2202  0.0739 -0.7476
  440MOL0     C57997   4.789   6.194   2.808  0.1079 -0.2883  1.8423
  440MOL0     N57998   4.344   6.093   3.306  0.0224 -0.3618  0.2802
  440MOL0     N57999   4.295   6.167   3.406 -0.9385 -0.3461  0.6061
  440MOL0     C58000   4.529   6.496   4.410 -1.3505 -0.6608 -0.3889
  440MOL0     C58001   4.628   6.553   4.494 -0.2426  0.1567  0.6420
  440MOL0     C58002   5.040   6.786   4.572  0.2095 -0.2892  0.0119
  440MOL0     C58003   5.035   6.766   4.711  0.5060 -0.4697 -0.2050
  440MOL0     C58004   5.132   6.808   4.803 -0.1748  0.3499  0.3945
  440MOL0     C58005   5.248   6.874   4.762 -0.5579  0.4880  0.4472
  440MOL0     O58006   5.333   6.915   4.858 -0.1983  0.9087 -0.0002
  440MOL0     C58007   5.463   6.951   4.819 -0.3981 -0.0036 -0.0218
  440MOL0     C58008   5.560   6.967   4.947  0.0934 -0.1210 -0.6214
  440MOL0     C58009   5.587   6.818   4.997 -0.0132  0.1248  1.3585
  440MOL0     C58010   5.610   6.810   5.147  0.8291 -0.6657  0.3624
  440MOL0     C58011   5.636   6.673   5.185  0.1680  0.1628 -0.1288
  440MOL0     C58012   5.670   6.562   5.230 -0.0535  0.1612  0.0254
  440MOL0     C58013   5.253   6.905   4.624 -0.3647  0.3118 -0.3881
  440MOL0     C58014   5.154   6.860   4.532 -0.9008 -0.2698 -0.0078
  440MOL0     H58015   4.888   6.555   4.270  1.0243 -0.8622 -0.3797
  440MOL0     H58016   4.720   6.438   4.136  1.8665 -1.7917  0.9664
  440MOL0     H58017   4.301   6.357   4.286 -1.1882 -1.2080  1.1379
  440MOL0     H58018   4.428   6.242   4.340 -1.2319  0.8637  0.4992
  440MOL0     H58019   4.271   6.123   4.205  1.0847  0.0156  1.9835
  440MOL0     H58020   4.425   6.124   4.118 -1.1333 -1.9925 -1.4187
  440MOL0     H58021   4.345   6.322   3.978  1.0360  2.2729  4.8028
  440MOL0     H58022   4.196   6.314   4.066  0.6630  1.1947 -1.5266
  440MOL0     H58023   4.322   6.082   3.916  0.7800  0.2694 -2.2431
  440MOL0     H58024   4.158   6.071   3.989 -1.0956  0.2765 -0.3867
  440MOL0     H58025   4.243   6.261   3.766 -0.2103 -1.1724 -1.0658
  440MOL0     H58026   4.089   6.257   3.849  1.6000  1.3166  0.0522
  440MOL0     H58027   4.107   5.992   3.781 -3.2006  1.1012 -0.2624
  440MOL0     H58028   4.232   6.056   3.678  0.1477  2.1000 -0.3606
  440MOL0     H58029   3.983   6.021   3.589 -0.7838  0.5583  0.3218
  440MOL0     H58030   3.946   6.165   3.691 -0.7850 -0.7005 -1.1087
  440MOL0     H58031   4.135   6.287   3.571 -3.0427  0.9132  1.1089
  440MOL0     H58032   3.988   6.260   3.475  0.8937  1.0648 -1.8901
  440MOL0     H58033   4.022   6.024   3.301  0.3035 -0.3139  1.2603
  440MOL0     H58034   4.179   5.869   3.154 -3.2801  2.2423  2.9757
  440MOL0     H58035   4.350   5.902   3.152  1.1584  0.4053 -0.9258
  440MOL0     H58036   4.154   6.082   3.002 -1.8838 -1.0236 -0.4571
  440MOL0     H58037   4.249   5.952   2.916 -0.2520 -2.6212  1.5391
  440MOL0     H58038   4.337   6.179   2.893  1.4436  1.4059  0.0653
  440MOL0     H58039   4.384   6.174   3.068 -1.3148  1.4074 -0.1844
  440MOL0     H58040   4.466   5.980   2.839 -0.4636  0.4283  0.6258
  440MOL0     H58041   4.518   5.973   3.008 -3.3023 -1.4727  0.1236
  440MOL0     H58042   4.650   5.881   2.831  0.0421  0.7674  3.5554
  440MOL0     H58043   4.857   5.830   2.723  0.2305  0.2542 -0.8349
  440MOL0     H58044   5.160   5.630   2.730 -0.0871 -0.5067 -0.6112
  440MOL0     H58045   5.365   5.527   2.676  0.0147 -0.4758 -0.7504
  440MOL0     H58046   5.603   5.508   2.709  3.0399 -0.5222  2.0302
  440MOL0     H58047   5.667   5.672   2.671 -0.8799 -0.2319 -0.9671
  440MOL0     H58048   5.835   5.555   2.538  1.6714 -0.7416  1.2523
  440MOL0     H58049   5.721   5.416   2.516 -1.3914  1.6437  0.0814
  440MOL0     H58050   5.749   5.380   2.776  0.2405  0.6911  0.7084
  440MOL0     H58051   5.869   5.503   2.772 -0.3613 -0.8633  2.1640
  440MOL0     H58052   5.952   5.262   2.779 -0.2698 -1.9906 -0.8275
  440MOL0     H58053   5.873   5.246   2.617 -1.2584 -0.0884  1.5816
  440MOL0     H58054   6.078   5.450   2.703 -0.5925  0.9168 -0.2698
  440MOL0     H58055   6.027   5.421   2.536 -3.2449  1.5766  2.5203
  440MOL0     H58056   6.215   5.292   2.513  1.0782  3.7170  0.8559
  440MOL0     H58057   6.122   5.174   2.610 -1.0738  1.0322  1.6767
  440MOL0     H58058   6.309   5.409   2.712  3.2173 -0.9490  1.4628
  440MOL0     H58059   6.231   5.309   2.817 -0.1671 -3.3495 -0.1391
  440MOL0     H58060   6.428   5.235   2.589 -0.3237  1.7876  0.1186
  440MOL0     H58061   6.357   5.108   2.702 -2.7230  0.6766 -0.4596
  440MOL0     H58062   5.473   5.836   2.409  0.8371 -0.5404  0.6961
  440MOL0     H58063   5.250   5.933   2.434 -1.5798  0.4762  1.3514
  440MOL0     H58064   4.968   6.251   2.711 -0.2190  0.8331  0.5279
  440MOL0     H58065   4.779   6.300   2.826 -0.1545  0.0023  0.1845
  440MOL0     H58066   4.428   6.491   4.450 -1.2127  0.3165  0.1112
  440MOL0     H58067   4.603   6.579   4.597  0.4825  0.1864  0.8171
  440MOL0     H58068   4.939   6.733   4.749  0.1819 -1.0655 -1.4857
  440MOL0     H58069   5.112   6.792   4.909 -1.1955  2.6686  0.6309
  440MOL0     H58070   5.455   7.050   4.773  1.3841  0.4093  0.4648
  440MOL0     H58071   5.506   6.884   4.744  1.3513  0.5217  0.4546
  440MOL0     H58072   5.659   7.007   4.921  0.3436 -0.5349 -0.3245
  440MOL0     H58073   5.508   7.032   5.018 -0.8048 -1.6084  0.1354
  440MOL0     H58074   5.667   6.770   4.939 -1.2974  0.9612 -1.2660
  440MOL0     H58075   5.507   6.750   4.968  0.1972 -0.2005  1.5286
  440MOL0     H58076   5.688   6.881   5.176 -0.4570  0.6546  0.7056
  440MOL0     H58077   5.519   6.834   5.202  0.3934 -4.6498  1.6775
  440MOL0     H58078   5.703   6.468   5.269 -1.2794  0.4981  1.9869
  440MOL0     H58079   5.332   6.969   4.584 -0.6078  0.6455 -0.3396
  440MOL0     H58080   5.153   6.886   4.426 -0.9787 -0.0070  0.0574
  441MOL0     O58081   5.634   6.451   3.320 -0.7901 -0.3674  0.5609
  441MOL0     C58082   5.679   6.477   3.432  0.1632 -0.3279 -0.1919
  441MOL0     O58083   5.626   6.424   3.555  0.2136  0.1796 -0.0712
  441MOL0     C58084   5.547   6.310   3.548 -0.6177 -0.4979 -0.1174
  441MOL0     C58085   5.434   6.307   3.464  0.6211  0.0950 -0.1271
  441MOL0     C58086   5.351   6.193   3.456 -0.0958 -0.5179  0.1245
  441MOL0     C58087   5.372   6.083   3.544 -0.6500 -0.2817 -1.0661
  441MOL0     O58088   5.273   5.990   3.537 -0.2273  0.3411 -0.7777
  441MOL0     C58089   5.254   5.916   3.656  0.8380 -0.0387  0.8574
  441MOL0     C58090   5.160   5.805   3.624  0.1666 -0.0548 -0.3467
  441MOL0     C58091   5.145   5.718   3.746 -0.8034  0.4529 -0.2191
  441MOL0     C58092   5.040   5.608   3.732 -0.9315 -0.3769  0.3290
  441MOL0     C58093   5.040   5.523   3.858  0.1750 -0.2364  0.7902
  441MOL0     C58094   4.926   5.429   3.886  0.1185  0.2082 -0.1085
  441MOL0     C58095   4.782   5.462   3.897 -0.2160  0.0799 -0.2267
  441MOL0     C58096   4.753   5.549   4.023  0.0969  0.2592  0.4722
  441MOL0     N58097   4.613   5.546   4.061  0.6084  0.2120 -0.3634
  441MOL0     C58098   4.563   5.595   4.180 -0.0813 -0.0497 -0.2916
  441MOL0     C58099   4.442   5.542   4.189 -0.3752 -0.4076 -0.2551
  441MOL0     C58100   4.351   5.548   4.306 -0.2441  0.6764 -0.0498
  441MOL0     C58101   4.198   5.566   4.281 -0.0974 -0.1572 -0.4070
  441MOL0     C58102   4.168   5.694   4.194 -0.1827 -0.3711 -0.7538
  441MOL0     C58103   4.024   5.742   4.177  0.7432  0.4389 -0.1666
  441MOL0     O58104   3.942   5.691   4.285  0.7769 -0.2910 -0.7921
  441MOL0     C58105   3.808   5.679   4.266 -0.3186  0.4458 -0.1560
  441MOL0     C58106   3.737   5.675   4.383 -0.9546 -0.4146  0.1277
  441MOL0     C58107   3.597   5.648   4.383 -0.0334  0.3432 -0.4259
  441MOL0     C58108   3.525   5.653   4.261  1.1334 -0.6432  0.1234
  441MOL0     C58109   3.372   5.654   4.265  0.3418 -0.2704 -0.8179
  441MOL0     O58110   3.292   5.688   4.378  0.2599 -0.1410 -0.3259
  441MOL0     C58111   3.152   5.687   4.372 -0.3479  0.3190 -0.6749
  441MOL0     C58112   3.078   5.793   4.318  0.1244  0.4022  0.3637
  441MOL0     C58113   2.948   5.778   4.295  0.1219 -0.1122 -0.7313
  441MOL0     C58114   2.871   5.666   4.338 -0.8115 -0.7350 -0.0971
  441MOL0     O58115   2.737   5.659   4.311  0.1286 -0.1296  0.2118
  441MOL0     C58116   2.644   5.765   4.357  0.4205  0.2057  0.0663
  441MOL0     C58117   2.508   5.711   4.329 -0.3169  0.3601 -0.6495
  441MOL0     C58118   2.410   5.816   4.375  0.1693  0.0161 -0.3904
  441MOL0     C58119   2.269   5.772   4.345  1.1109  0.0505  0.3478
  441MOL0     C58120   2.164   5.857   4.414 -0.0035 -0.0302 -0.8479
  441MOL0     C58121   2.024   5.818   4.366 -0.1309  1.3318  0.2447
  441MOL0     C58122   1.914   5.912   4.406 -0.1236  0.8091 -0.1846
  441MOL0     C58123   1.784   5.856   4.347  0.2471 -0.0986  0.5108
  441MOL0    Cl58124   1.635   5.949   4.383  0.1905  0.3232 -0.4026
  441MOL0     C58125   2.947   5.567   4.399  0.6254 -0.6560 -0.0177
  441MOL0     C58126   3.082   5.577   4.421 -1.1116 -0.0795  0.0558
  441MOL0     O58127   3.327   5.636   4.157  0.4735  0.2647 -0.3538
  441MOL0     C58128   3.595   5.667   4.144  0.1149 -0.3011 -0.2384
  441MOL0     C58129   3.741   5.681   4.142 -0.1416  0.3888  0.8477
  441MOL0     N58130   4.413   5.456   4.083  0.0411  0.4532  0.0252
  441MOL0     N58131   4.518   5.458   4.012  0.6879  0.1814  0.5671
  441MOL0     C58132   5.480   6.095   3.642 -0.6266 -0.1988 -0.3324
  441MOL0     C58133   5.573   6.205   3.637  0.2398  1.1150 -0.5394
  441MOL0     C58134   5.786   6.577   3.443 -0.1725  0.5643  0.6364
  441MOL0     C58135   5.822   6.647   3.332 -0.0870  0.1616 -0.4806
  441MOL0     C58136   5.917   6.753   3.331 -0.2705  0.6681  0.9871
  441MOL0     C58137   5.983   6.792   3.447 -0.0140  0.3251  1.2090
  441MOL0     O58138   6.087   6.887   3.452  0.3367  0.7111  0.2547
  441MOL0     C58139   6.221   6.851   3.423  0.1446 -0.2665 -0.1493
  441MOL0     C58140   6.257   6.845   3.276  0.7232  0.2397  0.3502
  441MOL0     C58141   6.207   6.960   3.181  0.4574  0.3887 -0.2052
  441MOL0     C58142   6.244   7.102   3.216  0.3108 -0.7089  0.1786
  441MOL0     C58143   6.391   7.112   3.224 -0.2081  0.5105  0.5918
  441MOL0     C58144   6.510   7.131   3.252  0.5707 -0.4365  0.7986
  441MOL0     C58145   5.953   6.714   3.559  0.2569 -0.6643  0.2898
  441MOL0     C58146   5.859   6.608   3.562  0.1295 -0.2215  0.2448
  441MOL0     H58147   5.397   6.385   3.399 -1.7396  0.8974  1.9891
  441MOL0     H58148   5.270   6.179   3.385 -3.3816 -2.1678  3.8046
  441MOL0     H58149   5.202   5.987   3.721 -0.9055  1.2506 -1.7381
  441MOL0     H58150   5.350   5.877   3.690  1.8324  1.9688  0.4709
  441MOL0     H58151   5.205   5.741   3.548 -0.7368 -1.4512  0.2389
  441MOL0     H58152   5.060   5.842   3.598 -0.0668 -1.0657 -0.9478
  441MOL0     H58153   5.121   5.777   3.835  2.5521  2.9606 -0.7710
  441MOL0     H58154   5.237   5.661   3.763 -0.2468  1.1825 -0.7323
  441MOL0     H58155   4.945   5.659   3.716 -1.2080 -1.1371 -0.5533
  441MOL0     H58156   5.040   5.547   3.641  0.7394 -2.7811  1.8047
  441MOL0     H58157   5.062   5.580   3.948  2.4295  0.6465 -0.2381
  441MOL0     H58158   5.124   5.454   3.846 -0.7468 -1.3884  0.7607
  441MOL0     H58159   4.951   5.379   3.980 -0.3034  1.1098  0.5049
  441MOL0     H58160   4.926   5.346   3.815  0.9072 -0.7926  1.0221
  441MOL0     H58161   4.740   5.518   3.813  0.6486  0.2446 -0.5576
  441MOL0     H58162   4.736   5.364   3.913  0.1585  0.0181  0.5314
  441MOL0     H58163   4.790   5.648   3.997  0.9850  0.2428  1.6085
  441MOL0     H58164   4.815   5.505   4.101 -0.3989 -0.1975  0.6207
  441MOL0     H58165   4.612   5.662   4.250 -1.5016 -0.1941  0.9001
  441MOL0     H58166   4.379   5.634   4.368 -4.3487  1.1543  1.4552
  441MOL0     H58167   4.366   5.453   4.358 -3.4734  0.1247  0.0841
  441MOL0     H58168   4.147   5.578   4.377 -0.1396  0.3505 -0.4870
  441MOL0     H58169   4.155   5.477   4.235 -0.3411  0.1879 -0.8606
  441MOL0     H58170   4.219   5.777   4.245 -0.6628 -0.8018  0.4739
  441MOL0     H58171   4.215   5.684   4.096 -0.8027  3.5450 -1.6415
  441MOL0     H58172   3.994   5.701   4.080 -2.1952  0.5604  0.6062
  441MOL0     H58173   4.013   5.850   4.170  3.0630  0.7258 -0.3669
  441MOL0     H58174   3.803   5.672   4.469  2.4205 -1.0513 -2.2648
  441MOL0     H58175   3.553   5.623   4.478  1.5294  1.3764  0.6142
  441MOL0     H58176   3.136   5.869   4.267  1.1782 -2.6993 -3.5727
  441MOL0     H58177   2.904   5.853   4.230 -1.4245 -1.3896 -1.2413
  441MOL0     H58178   2.660   5.848   4.289  1.5384 -1.1775 -1.4416
  441MOL0     H58179   2.661   5.799   4.460  1.1247  0.5569 -0.1647
  441MOL0     H58180   2.491   5.615   4.379  1.2407 -1.1346 -2.7925
  441MOL0     H58181   2.500   5.695   4.221 -0.5748 -1.1115 -0.4314
  441MOL0     H58182   2.432   5.916   4.336 -1.5853  2.6970  4.6205
  441MOL0     H58183   2.408   5.835   4.482 -0.8660  0.1340 -0.4205
  441MOL0     H58184   2.253   5.764   4.237 -0.2476 -1.6995  0.6404
  441MOL0     H58185   2.252   5.669   4.378 -4.1356  0.2908 -0.7213
  441MOL0     H58186   2.188   5.960   4.385  2.5874  0.2784  1.8975
  441MOL0     H58187   2.192   5.861   4.520  2.4519  0.8170 -1.4628
  441MOL0     H58188   2.002   5.717   4.403  2.0516 -0.0517 -1.9484
  441MOL0     H58189   2.026   5.822   4.257 -1.3509 -0.7724  0.0927
  441MOL0     H58190   1.906   5.929   4.513  1.3290 -1.1750  0.3069
  441MOL0     H58191   1.938   6.004   4.352  3.0257 -0.0166 -0.3513
  441MOL0     H58192   1.768   5.755   4.385 -1.1030 -0.6452 -1.3408
  441MOL0     H58193   1.793   5.857   4.238 -3.9339  1.8634 -0.0165
  441MOL0     H58194   2.902   5.476   4.438  0.1841 -2.3342 -3.9823
  441MOL0     H58195   3.139   5.498   4.469 -2.7784 -0.5922  1.2833
  441MOL0     H58196   3.540   5.672   4.050  0.6173  2.2137 -0.4832
  441MOL0     H58197   3.797   5.710   4.054  1.0744 -0.0091  1.4585
  441MOL0     H58198   5.490   6.011   3.710 -1.3857 -1.0379 -1.2314
  441MOL0     H58199   5.663   6.208   3.699  1.2939 -0.0839 -1.9499
  441MOL0     H58200   5.791   6.599   3.239 -2.3638 -1.9182  1.2145
  441MOL0     H58201   5.958   6.809   3.248  0.9960 -0.2224  0.9889
  441MOL0     H58202   6.243   6.752   3.465 -3.1459 -1.1198 -0.2132
  441MOL0     H58203   6.285   6.924   3.473  0.3003  0.6641 -1.6310
  441MOL0     H58204   6.366   6.840   3.286  0.7079  2.9868  4.8057
  441MOL0     H58205   6.232   6.745   3.239  0.5465  0.2252  0.5055
  441MOL0     H58206   6.101   6.944   3.165  0.4567  0.3127 -0.1279
  441MOL0     H58207   6.255   6.953   3.083 -1.8544 -2.3316 -1.2723
  441MOL0     H58208   6.220   7.165   3.130 -3.1790 -3.8018 -1.3836
  441MOL0     H58209   6.203   7.138   3.311  0.6936  1.1344 -0.3116
  441MOL0     H58210   6.616   7.134   3.268  0.5508  2.2210  0.9373
  441MOL0     H58211   6.006   6.736   3.652  1.1991 -1.8301  0.0514
  441MOL0     H58212   5.840   6.557   3.656 -0.4356  0.4254  0.4883
  442MOL0     O58213   8.197   1.939   7.859 -0.3237 -0.4454  0.7562
  442MOL0     C58214   8.186   1.838   7.784  0.3014  0.2907 -0.1640
  442MOL0     O58215   8.098   1.823   7.667  0.1921 -0.0988 -0.0815
  442MOL0     C58216   8.000   1.911   7.630 -0.3129  0.1314 -0.1849
  442MOL0     C58217   7.926   2.004   7.713 -0.2930  0.1165 -0.2860
  442MOL0     C58218   7.823   2.080   7.664 -0.7829 -0.2456  0.2241
  442MOL0     C58219   7.778   2.075   7.534 -0.1123 -0.2331  0.9647
  442MOL0     O58220   7.675   2.162   7.500 -0.4426 -0.6157 -0.0792
  442MOL0     C58221   7.652   2.156   7.351  0.2376 -0.6184 -0.5711
  442MOL0     C58222   7.532   2.254   7.329  0.1076 -0.9971 -1.1887
  442MOL0     C58223   7.488   2.249   7.179 -0.1312  0.1912  0.1265
  442MOL0     C58224   7.401   2.367   7.137  0.1629  0.3131  1.0183
  442MOL0     C58225   7.338   2.343   7.002  0.1953  0.2459  0.3998
  442MOL0     C58226   7.280   2.472   6.959  0.9899  0.0051 -0.1672
  442MOL0     C58227   7.176   2.472   6.838  0.2946 -0.1553  0.1511
  442MOL0     C58228   7.065   2.369   6.839  0.5162  0.7541  0.3276
  442MOL0     N58229   6.978   2.366   6.713 -0.2008  0.0964 -0.6065
  442MOL0     C58230   6.887   2.459   6.672  0.6808  0.5818  0.3934
  442MOL0     C58231   6.833   2.417   6.553 -0.5528  0.2279 -0.1978
  442MOL0     C58232   6.726   2.469   6.470  0.6594 -1.0572 -0.5866
  442MOL0     C58233   6.625   2.366   6.442 -0.8345 -0.0703  0.0770
  442MOL0     C58234   6.497   2.426   6.393  0.1272  0.2471  1.0582
  442MOL0     C58235   6.483   2.398   6.237  0.8416 -0.2632  0.4512
  442MOL0     O58236   6.348   2.411   6.186 -0.3709  0.7041 -0.2197
  442MOL0     C58237   6.325   2.348   6.073 -0.0944 -0.2207 -0.6962
  442MOL0     C58238   6.197   2.302   6.042 -0.8331  0.1497  0.1892
  442MOL0     C58239   6.155   2.256   5.921 -0.3277  0.5519 -0.5637
  442MOL0     C58240   6.251   2.254   5.815 -0.2090 -0.4828 -0.5089
  442MOL0     C58241   6.216   2.188   5.689  0.2151 -0.4476  0.0534
  442MOL0     O58242   6.088   2.154   5.672 -0.2436 -0.2840  0.4432
  442MOL0     C58243   6.037   2.083   5.565 -0.6377  0.3786 -0.0436
  442MOL0     C58244   6.094   1.980   5.492 -0.6848 -0.2601  0.5164
  442MOL0     C58245   6.025   1.928   5.388  0.1889  0.0801  0.7387
  442MOL0     C58246   5.896   1.972   5.351  0.6589  1.1118 -0.7960
  442MOL0     O58247   5.819   1.895   5.260  0.0356  0.1808 -0.1365
  442MOL0     C58248   5.673   1.907   5.264  0.1511  0.0706 -0.5251
  442MOL0     C58249   5.612   1.813   5.170  0.4330 -1.0056  0.1589
  442MOL0     C58250   5.469   1.853   5.119 -0.3678  0.4503 -0.7552
  442MOL0     C58251   5.419   1.747   5.021  0.1232 -0.6554 -0.0276
  442MOL0     C58252   5.268   1.737   5.009 -0.6526  0.1538 -0.0176
  442MOL0     C58253   5.206   1.862   4.941  0.4708 -0.2604  0.3060
  442MOL0     C58254   5.053   1.857   4.937  0.2492  0.2972  0.1837
  442MOL0     C58255   4.994   1.740   4.861  0.0944 -0.1482 -0.1059
  442MOL0    Cl58256   5.005   1.759   4.689 -0.2842 -0.4713  0.4549
  442MOL0     C58257   5.842   2.077   5.431 -0.4680  0.2312  1.2084
  442MOL0     C58258   5.917   2.137   5.528  0.9376 -0.0571  0.1662
  442MOL0     O58259   6.302   2.162   5.602 -0.3761  0.3747 -0.9104
  442MOL0     C58260   6.379   2.311   5.838  0.1278  0.4310  0.4942
  442MOL0     C58261   6.409   2.359   5.961 -0.3445  0.1385  0.2027
  442MOL0     N58262   6.899   2.293   6.524  0.9282 -0.3422  0.5631
  442MOL0     N58263   6.983   2.268   6.620 -0.4795 -0.1579 -0.0262
  442MOL0     C58264   7.847   1.983   7.450 -1.5047 -0.5004  0.1628
  442MOL0     C58265   7.959   1.907   7.498  0.1710 -0.5239  0.7671
  442MOL0     C58266   8.293   1.735   7.802 -0.7081  0.3329 -0.4496
  442MOL0     C58267   8.297   1.629   7.721  1.0989 -0.1937  0.1608
  442MOL0     C58268   8.376   1.518   7.738  0.0797  0.2407  0.2318
  442MOL0     C58269   8.477   1.518   7.829 -0.0699 -0.7851  0.1675
  442MOL0     O58270   8.558   1.417   7.844 -0.2741 -0.4020  0.8311
  442MOL0     C58271   8.699   1.445   7.838 -0.1175  0.2361  0.1145
  442MOL0     C58272   8.761   1.341   7.738 -1.0395 -1.2535  0.0715
  442MOL0     C58273   8.744   1.200   7.792  0.5539 -0.3578 -0.6529
  442MOL0     C58274   8.781   1.102   7.689  0.2067 -0.2018  0.0397
  442MOL0     C58275   8.752   0.970   7.741  0.4257  0.3167 -0.0983
  442MOL0     C58276   8.728   0.851   7.773  0.5311  0.7051 -0.9703
  442MOL0     C58277   8.479   1.627   7.918 -0.0699  0.6768  0.7719
  442MOL0     C58278   8.384   1.733   7.906 -0.1135  0.2249 -0.6347
  442MOL0     H58279   7.947   2.020   7.818 -2.3531  0.5933  0.0902
  442MOL0     H58280   7.765   2.147   7.726  2.3136  4.4266 -1.3771
  442MOL0     H58281   7.622   2.057   7.314  1.7872 -1.0525 -0.7100
  442MOL0     H58282   7.744   2.193   7.305 -1.3890  2.6804 -1.4884
  442MOL0     H58283   7.570   2.353   7.356 -0.2084 -1.1365 -0.2037
  442MOL0     H58284   7.443   2.234   7.388 -0.6935  2.9358 -0.7615
  442MOL0     H58285   7.437   2.154   7.164 -1.2389  0.8025 -0.0915
  442MOL0     H58286   7.582   2.250   7.123  0.3879  1.1809  0.9642
  442MOL0     H58287   7.330   2.383   7.219 -1.7141  1.3105 -0.7384
  442MOL0     H58288   7.456   2.462   7.129 -1.6921  1.3619  0.2197
  442MOL0     H58289   7.258   2.270   7.021  1.5191 -1.4662 -0.2717
  442MOL0     H58290   7.401   2.305   6.921 -2.8393 -0.1457 -1.9684
  442MOL0     H58291   7.357   2.550   6.946 -0.0382  0.8463 -1.4555
  442MOL0     H58292   7.206   2.509   7.030 -1.4995  0.6585 -2.8989
  442MOL0     H58293   7.133   2.572   6.830  1.9909  0.6255  0.3745
  442MOL0     H58294   7.235   2.461   6.746 -0.2615  0.6386 -0.3140
  442MOL0     H58295   7.003   2.385   6.928  1.0070 -0.6517  0.9447
  442MOL0     H58296   7.108   2.269   6.846 -0.0681  0.5650  1.4671
  442MOL0     H58297   6.856   2.538   6.740 -1.0948 -0.8711  1.3772
  442MOL0     H58298   6.762   2.489   6.368 -1.6471  0.3657 -1.2048
  442MOL0     H58299   6.685   2.562   6.511  1.0380 -0.0851 -2.2886
  442MOL0     H58300   6.616   2.327   6.544  3.4997 -2.2025 -0.1366
  442MOL0     H58301   6.674   2.292   6.378  1.9307  1.1693  0.6080
  442MOL0     H58302   6.417   2.378   6.449  0.2093 -0.7717  0.3297
  442MOL0     H58303   6.493   2.533   6.416  0.5905  1.9067 -4.9290
  442MOL0     H58304   6.521   2.300   6.206 -1.0193 -0.6820 -0.6473
  442MOL0     H58305   6.544   2.475   6.188  0.3062  0.0558  0.2797
  442MOL0     H58306   6.132   2.297   6.129  0.1616  0.1970  0.9610
  442MOL0     H58307   6.049   2.237   5.909 -0.0832 -0.2707 -1.4823
  442MOL0     H58308   6.194   1.943   5.515 -0.3288 -1.0893 -2.1260
  442MOL0     H58309   6.077   1.856   5.327  2.2196  1.9092  0.1737
  442MOL0     H58310   5.653   2.009   5.229  0.0421  0.2721  0.1187
  442MOL0     H58311   5.640   1.877   5.364 -0.3082 -2.5966 -1.3819
  442MOL0     H58312   5.593   1.715   5.216  2.1409 -0.8528  1.2610
  442MOL0     H58313   5.673   1.803   5.080  4.2640  1.3116  2.2455
  442MOL0     H58314   5.479   1.940   5.053  0.3322 -0.6042 -2.0905
  442MOL0     H58315   5.400   1.870   5.201  0.9929  5.4777 -0.3051
  442MOL0     H58316   5.462   1.765   4.922  1.0745  0.8056  0.6189
  442MOL0     H58317   5.449   1.650   5.063  0.0076 -0.8812 -0.4525
  442MOL0     H58318   5.221   1.715   5.105 -3.6978  0.3579 -1.3636
  442MOL0     H58319   5.243   1.650   4.948 -1.0948  0.4277 -0.2284
  442MOL0     H58320   5.256   1.866   4.843  1.8857 -2.4279  0.8809
  442MOL0     H58321   5.225   1.950   5.003 -1.5569  0.5560 -0.1537
  442MOL0     H58322   5.020   1.858   5.042  2.7143  3.7378  1.1389
  442MOL0     H58323   5.009   1.947   4.893 -1.7652 -0.5319  0.3861
  442MOL0     H58324   4.886   1.734   4.881 -0.5159 -1.5095 -3.1983
  442MOL0     H58325   5.042   1.651   4.900 -0.4846  0.5590  2.3853
  442MOL0     H58326   5.736   2.098   5.427 -1.1065 -2.3848  2.2550
  442MOL0     H58327   5.878   2.209   5.599  1.0348  0.0532  0.1076
  442MOL0     H58328   6.445   2.334   5.754 -1.3168  1.0050 -0.5243
  442MOL0     H58329   6.502   2.412   5.974  1.5674 -2.3809 -1.9699
  442MOL0     H58330   7.827   1.973   7.344  0.2502  1.1160 -0.3760
  442MOL0     H58331   8.010   1.826   7.446 -1.6711  0.2991 -2.6254
  442MOL0     H58332   8.221   1.627   7.644 -1.1145  1.4582  2.1477
  442MOL0     H58333   8.368   1.425   7.682  0.4983 -0.0015  0.5707
  442MOL0     H58334   8.732   1.444   7.942 -0.5204  0.3395  0.2451
  442MOL0     H58335   8.717   1.537   7.783 -3.0557  0.1431 -1.1925
  442MOL0     H58336   8.713   1.355   7.641  0.0573 -0.0137 -0.3315
  442MOL0     H58337   8.868   1.362   7.731 -1.1762 -0.8836 -1.0199
  442MOL0     H58338   8.642   1.182   7.827  0.8425 -0.2774  0.2621
  442MOL0     H58339   8.812   1.190   7.878 -1.5284 -1.1171  0.9923
  442MOL0     H58340   8.712   1.122   7.606  0.3452  1.4931  0.2841
  442MOL0     H58341   8.886   1.119   7.665 -0.1394 -0.0886 -1.4857
  442MOL0     H58342   8.695   0.757   7.812 -0.0582  1.9767  1.7993
  442MOL0     H58343   8.559   1.624   7.992  1.5841  0.6583 -0.9372
  442MOL0     H58344   8.393   1.822   7.967  1.2234 -0.0559 -0.3788
  443MOL0     O58345   5.566   6.698   7.104 -0.5500 -0.2169  0.1459
  443MOL0     C58346   5.602   6.652   7.211  0.5893  0.0207 -0.6236
  443MOL0     O58347   5.515   6.586   7.303 -0.1937  0.1834  0.4421
  443MOL0     C58348   5.391   6.558   7.253  0.6352 -0.0004 -0.1731
  443MOL0     C58349   5.361   6.426   7.217 -0.5921 -0.3565 -1.1717
  443MOL0     C58350   5.220   6.405   7.200 -0.5236  0.7486  1.2037
  443MOL0     C58351   5.118   6.497   7.189 -0.0511 -0.0642  0.3091
  443MOL0     O58352   4.988   6.458   7.165 -0.0433 -0.6842 -0.4903
  443MOL0     C58353   4.886   6.553   7.132  0.3845 -0.2518 -1.2776
  443MOL0     C58354   4.770   6.484   7.078 -0.3333  0.1896  0.3316
  443MOL0     C58355   4.679   6.575   6.996  0.3507 -0.7598  0.1226
  443MOL0     C58356   4.581   6.514   6.890  0.1558  0.8042 -0.8591
  443MOL0     C58357   4.460   6.438   6.965 -0.7140  0.1784  0.1092
  443MOL0     C58358   4.393   6.349   6.867 -0.0686 -0.0329 -1.0216
  443MOL0     C58359   4.320   6.433   6.762  0.3521 -0.4131  0.1980
  443MOL0     C58360   4.182   6.379   6.740  0.8237  0.7332  0.4000
  443MOL0     N58361   4.119   6.418   6.610  0.3005  0.4260  0.7301
  443MOL0     C58362   4.185   6.445   6.488  0.7887  0.5488 -0.8288
  443MOL0     C58363   4.085   6.503   6.420  0.3454  0.0726 -1.0472
  443MOL0     C58364   4.113   6.562   6.288 -0.0225 -0.6029 -0.3894
  443MOL0     C58365   3.982   6.585   6.198 -0.3551  0.1759 -0.1735
  443MOL0     C58366   3.923   6.448   6.156 -0.2093 -0.2799 -0.1241
  443MOL0     C58367   3.786   6.464   6.080 -0.6749 -0.8002 -0.1340
  443MOL0     O58368   3.802   6.521   5.952  0.0267  0.0703  0.0789
  443MOL0     C58369   3.686   6.525   5.879  0.4214 -0.1248 -0.1212
  443MOL0     C58370   3.687   6.468   5.749  0.3620  0.1169  0.8063
  443MOL0     C58371   3.569   6.485   5.670 -0.0191 -0.0430  0.7559
  443MOL0     C58372   3.455   6.548   5.727  0.1431  0.7868  1.0301
  443MOL0     C58373   3.320   6.535   5.657 -0.5254 -0.6494 -0.3916
  443MOL0     O58374   3.220   6.602   5.720  0.6611  0.2464 -0.2736
  443MOL0     C58375   3.087   6.606   5.672 -0.5981  0.9091 -0.5945
  443MOL0     C58376   3.025   6.526   5.568  0.5570 -0.5051 -0.4683
  443MOL0     C58377   2.896   6.538   5.540 -0.4404 -0.2600 -0.3167
  443MOL0     C58378   2.811   6.627   5.599 -0.0285 -0.1820 -0.6662
  443MOL0     O58379   2.680   6.609   5.563  0.1224  0.3062  0.1146
  443MOL0     C58380   2.591   6.717   5.606 -0.1065 -0.1646  0.4232
  443MOL0     C58381   2.515   6.663   5.721 -0.2346 -0.1190  0.7878
  443MOL0     C58382   2.399   6.751   5.770 -0.7864  0.3485 -0.1657
  443MOL0     C58383   2.329   6.664   5.883  0.7480 -0.3282  0.3699
  443MOL0     C58384   2.231   6.746   5.962  1.1271 -0.5495 -0.3113
  443MOL0     C58385   2.129   6.832   5.878  0.8531  0.0028  0.7058
  443MOL0     C58386   2.045   6.935   5.965  1.0546  0.5175 -0.2449
  443MOL0     C58387   1.927   7.005   5.902  0.8365  0.5840  0.9309
  443MOL0    Cl58388   1.799   6.888   5.856 -0.0081  0.4746  0.1096
  443MOL0     C58389   2.864   6.709   5.697 -0.3784  0.1548 -0.0774
  443MOL0     C58390   2.998   6.696   5.741  0.0564 -0.1960  0.6015
  443MOL0     O58391   3.321   6.480   5.549  0.0459 -0.1011 -0.9135
  443MOL0     C58392   3.461   6.614   5.850 -0.2786 -0.9634  0.7671
  443MOL0     C58393   3.578   6.610   5.919  0.2236 -1.2445 -0.6923
  443MOL0     N58394   3.968   6.506   6.492 -0.1739  0.0644 -0.3459
  443MOL0     N58395   3.997   6.475   6.613 -0.5503  0.8108  0.4762
  443MOL0     C58396   5.158   6.627   7.201 -0.2576 -0.4396  0.3233
  443MOL0     C58397   5.292   6.662   7.231 -0.0762 -0.7551  0.6741
  443MOL0     C58398   5.742   6.672   7.247  0.2972 -0.2351  0.2495
  443MOL0     C58399   5.838   6.728   7.162  0.2359  0.1014  0.8743
  443MOL0     C58400   5.971   6.727   7.187  0.1966 -0.0677  0.7872
  443MOL0     C58401   6.012   6.681   7.312  0.0060  0.0779  0.6384
  443MOL0     O58402   6.146   6.687   7.355 -0.0773  0.2728  0.7018
  443MOL0     C58403   6.252   6.704   7.256  0.4852  0.1173  0.7384
  443MOL0     C58404   6.374   6.643   7.308  0.0194 -0.3638 -0.2339
  443MOL0     C58405   6.490   6.633   7.205  0.2415  0.5694 -0.2949
  443MOL0     C58406   6.615   6.565   7.277 -0.1563  0.5134  0.8186
  443MOL0     C58407   6.739   6.592   7.202 -0.6852 -1.1511 -1.1217
  443MOL0     C58408   6.853   6.599   7.157 -0.0215 -1.4946 -0.4117
  443MOL0     C58409   5.919   6.629   7.404  0.2660 -0.3567  0.7366
  443MOL0     C58410   5.788   6.621   7.368 -0.6719  0.2104  0.4181
  443MOL0     H58411   5.423   6.337   7.225 -2.0738 -1.5236 -1.9816
  443MOL0     H58412   5.188   6.302   7.205 -0.4629  0.7495  1.6221
  443MOL0     H58413   4.918   6.634   7.066 -0.3442  1.7126  0.6590
  443MOL0     H58414   4.851   6.602   7.224  0.2152 -2.2028 -0.2386
  443MOL0     H58415   4.712   6.430   7.153  1.0415 -1.1834  0.4359
  443MOL0     H58416   4.810   6.405   7.015  1.8031  1.8109 -0.4742
  443MOL0     H58417   4.748   6.638   6.941  2.4378 -2.2463  0.8720
  443MOL0     H58418   4.625   6.636   7.068  2.6537  0.7019  0.7154
  443MOL0     H58419   4.554   6.593   6.820  0.9787  1.3945 -0.5228
  443MOL0     H58420   4.638   6.443   6.828 -1.0011 -1.3217  0.3965
  443MOL0     H58421   4.388   6.514   6.994 -2.7480 -1.1104 -1.3214
  443MOL0     H58422   4.500   6.369   7.041  1.8716  0.3191 -1.0037
  443MOL0     H58423   4.333   6.280   6.926 -1.0323  0.9142 -0.8723
  443MOL0     H58424   4.476   6.290   6.827 -0.2951 -1.1732  0.1287
  443MOL0     H58425   4.323   6.539   6.790 -0.3900  0.0072 -1.2090
  443MOL0     H58426   4.379   6.426   6.670  0.9830  2.3130  0.2791
  443MOL0     H58427   4.111   6.406   6.819  0.3896  0.4477  0.1106
  443MOL0     H58428   4.182   6.270   6.728 -1.9729  0.9183 -3.1006
  443MOL0     H58429   4.286   6.444   6.451 -0.0406  1.8363 -3.3034
  443MOL0     H58430   4.178   6.488   6.241  0.4356 -0.4650  0.0146
  443MOL0     H58431   4.166   6.657   6.292  1.0438 -1.1991 -0.0888
  443MOL0     H58432   4.015   6.644   6.112  0.6606  1.9167  1.3225
  443MOL0     H58433   3.901   6.639   6.248 -0.6138  0.0404 -0.4427
  443MOL0     H58434   3.992   6.385   6.099 -1.0366 -1.9130  0.5994
  443MOL0     H58435   3.891   6.385   6.240  0.0544  0.0675  0.2428
  443MOL0     H58436   3.718   6.524   6.141  1.3502  0.7666  0.7323
  443MOL0     H58437   3.747   6.363   6.070  1.2367 -1.6099  0.1544
  443MOL0     H58438   3.782   6.422   5.721  0.2945  0.7588 -0.5347
  443MOL0     H58439   3.572   6.434   5.574  1.9827 -1.0714  1.3109
  443MOL0     H58440   3.086   6.449   5.520  1.6356  0.8561 -1.3547
  443MOL0     H58441   2.853   6.474   5.464 -2.3250  2.4428 -1.7285
  443MOL0     H58442   2.517   6.742   5.530 -1.4598  0.8544  1.9941
  443MOL0     H58443   2.643   6.813   5.616 -0.7710  0.9651 -4.3779
  443MOL0     H58444   2.580   6.638   5.806 -0.4386 -2.4542  0.3330
  443MOL0     H58445   2.466   6.576   5.676 -1.7259  0.0607  1.9738
  443MOL0     H58446   2.342   6.781   5.682 -0.6653 -0.9125 -0.7036
  443MOL0     H58447   2.438   6.844   5.812  0.6267 -0.7555  1.1007
  443MOL0     H58448   2.275   6.580   5.838 -3.6182  1.4765  1.7039
  443MOL0     H58449   2.406   6.621   5.947  1.0472  0.8883  0.8652
  443MOL0     H58450   2.286   6.824   6.016 -0.0791  2.2487 -2.8033
  443MOL0     H58451   2.169   6.680   6.023  2.3070 -0.9246  0.5020
  443MOL0     H58452   2.051   6.769   5.834  1.8276  0.7674 -2.4042
  443MOL0     H58453   2.179   6.885   5.796  3.4950  0.0297  2.2351
  443MOL0     H58454   2.002   6.892   6.056  1.1667  1.3130  0.1841
  443MOL0     H58455   2.105   7.018   6.002  1.2434 -0.6042  2.1322
  443MOL0     H58456   1.952   7.069   5.816 -1.6594  0.2180 -0.1600
  443MOL0     H58457   1.876   7.064   5.978 -1.7432 -3.0838  2.3054
  443MOL0     H58458   2.801   6.785   5.745  0.1854  0.2923  0.4631
  443MOL0     H58459   3.030   6.762   5.821  0.9669 -1.8946  1.6987
  443MOL0     H58460   3.388   6.673   5.905  1.0222 -2.2528  4.1604
  443MOL0     H58461   3.587   6.666   6.011 -3.3569  0.7350 -1.3582
  443MOL0     H58462   5.081   6.703   7.203  1.0340  0.8951  1.9741
  443MOL0     H58463   5.332   6.763   7.234  2.3811 -1.6201 -0.3468
  443MOL0     H58464   5.809   6.784   7.073  0.0685 -0.5727  0.4969
  443MOL0     H58465   6.046   6.764   7.117 -0.2636 -2.4313 -1.1341
  443MOL0     H58466   6.277   6.807   7.231  2.3742 -0.4804  0.0225
  443MOL0     H58467   6.232   6.655   7.161  0.7136  1.6632 -0.1277
  443MOL0     H58468   6.420   6.699   7.389  1.3328  1.3620 -2.0581
  443MOL0     H58469   6.346   6.539   7.327 -3.0385  0.4798  0.4172
  443MOL0     H58470   6.518   6.733   7.169  0.9750 -1.2401 -5.8122
  443MOL0     H58471   6.458   6.580   7.115  0.1959  1.9037 -1.0950
  443MOL0     H58472   6.621   6.605   7.378 -2.2781  1.6506  0.5605
  443MOL0     H58473   6.593   6.459   7.295  0.9738 -0.2703 -1.8514
  443MOL0     H58474   6.957   6.592   7.133  0.2946  0.6200  0.1542
  443MOL0     H58475   5.959   6.585   7.495 -0.3093  0.2844  1.3091
  443MOL0     H58476   5.719   6.576   7.438 -3.8494  0.5204 -2.2892
  444MOL0     O58477   0.806   8.410   3.860  0.5600 -0.0936 -0.4878
  444MOL0     C58478   0.829   8.374   3.975  0.1196  0.7682 -0.9855
  444MOL0     O58479   0.745   8.358   4.077  1.0944 -0.4167  1.1343
  444MOL0     C58480   0.611   8.354   4.049  0.5410  0.2607 -0.0011
  444MOL0     C58481   0.545   8.227   4.044 -0.3551 -0.4933 -0.2143
  444MOL0     C58482   0.407   8.228   4.048 -0.1495  0.1758  0.2533
  444MOL0     C58483   0.331   8.346   4.029  0.1672  0.8976 -0.0159
  444MOL0     O58484   0.196   8.344   4.025  0.2616 -0.2036  0.5684
  444MOL0     C58485   0.133   8.409   3.913 -0.7357 -0.0233 -0.3897
  444MOL0     C58486   0.078   8.554   3.946 -0.1647  0.8848  0.7233
  444MOL0     C58487  -0.056   8.547   4.018  0.0889 -0.5312  0.5284
  444MOL0     C58488  -0.171   8.481   3.946 -0.5186 -0.2194  1.2357
  444MOL0     C58489  -0.306   8.529   4.003 -0.0163  0.0051  0.3375
  444MOL0     C58490  -0.422   8.472   3.929  1.2556 -0.5078  0.0393
  444MOL0     C58491  -0.549   8.507   4.014  0.0668  0.6379  0.5524
  444MOL0     C58492  -0.682   8.493   3.933  0.1567 -1.2446 -0.9606
  444MOL0     N58493  -0.809   8.505   4.016  0.0795 -0.2448  0.6207
  444MOL0     C58494  -0.845   8.598   4.106 -0.5324 -0.2270  0.4958
  444MOL0     C58495  -0.971   8.555   4.151 -0.4759 -0.3434  0.1794
  444MOL0     C58496  -1.031   8.627   4.268 -0.2174  0.4766  0.9728
  444MOL0     C58497  -1.132   8.549   4.354 -0.1336 -0.6886 -0.0515
  444MOL0     C58498  -1.204   8.642   4.452  0.3422  0.3528  0.7173
  444MOL0     C58499  -1.298   8.753   4.397 -0.1830 -0.2566  1.0322
  444MOL0     O58500  -1.383   8.696   4.300 -0.3060  0.4181  0.3102
  444MOL0     C58501  -1.482   8.766   4.233 -0.5330  0.6887 -0.3608
  444MOL0     C58502  -1.511   8.905   4.248  0.0149  0.4202  0.5517
  444MOL0     C58503  -1.599   8.971   4.167  0.6098  0.2503 -0.2366
  444MOL0     C58504  -1.684   8.894   4.085 -0.2147 -0.5706  0.2816
  444MOL0     C58505  -1.781   8.965   4.001  0.1975 -0.5107  0.2773
  444MOL0     O58506  -1.852   8.897   3.906 -0.9917  0.2363 -0.1688
  444MOL0     C58507  -1.926   8.961   3.817  0.7164 -1.1091 -1.2709
  444MOL0     C58508  -1.876   8.998   3.692 -0.1698  0.6970  1.0239
  444MOL0     C58509  -1.965   9.043   3.594 -0.0154 -0.0890 -0.1870
  444MOL0     C58510  -2.098   9.076   3.630  0.2712 -0.0603 -0.3248
  444MOL0     O58511  -2.182   9.135   3.543  0.7372 -0.2109 -0.1057
  444MOL0     C58512  -2.177   9.276   3.553  0.1587 -1.1641 -0.7683
  444MOL0     C58513  -2.257   9.333   3.671  0.5827  0.1638 -0.0229
  444MOL0     C58514  -2.408   9.295   3.651 -0.3234 -0.3974  1.1573
  444MOL0     C58515  -2.482   9.386   3.750  0.6208 -0.3704  0.0217
  444MOL0     C58516  -2.629   9.418   3.718  0.8048 -0.0211 -0.2831
  444MOL0     C58517  -2.703   9.471   3.845  0.7811  0.0272 -0.4818
  444MOL0     C58518  -2.837   9.542   3.820  0.2889 -0.1380 -0.7235
  444MOL0     C58519  -2.894   9.622   3.937 -0.2288 -0.8051  0.5869
  444MOL0    Cl58520  -3.067   9.672   3.927 -0.7133  0.2704  0.1695
  444MOL0     C58521  -2.147   9.032   3.752  0.4155 -0.3982  0.4320
  444MOL0     C58522  -2.068   8.976   3.853 -0.3374 -0.0751  1.0926
  444MOL0     O58523  -1.791   9.088   4.021  0.2317 -0.1719  0.4371
  444MOL0     C58524  -1.667   8.755   4.076  0.3655  0.3178 -0.6747
  444MOL0     C58525  -1.567   8.692   4.147 -0.3492  0.8530  0.6203
  444MOL0     N58526  -0.996   8.431   4.089  0.7967  0.2730  0.0707
  444MOL0     N58527  -0.901   8.409   4.003 -0.1852 -1.2254  0.1139
  444MOL0     C58528   0.400   8.465   4.039  0.1354 -0.1072 -0.6453
  444MOL0     C58529   0.535   8.470   4.057 -1.0676  0.1450  0.3410
  444MOL0     C58530   0.971   8.374   4.011 -0.2382  0.4958  0.2379
  444MOL0     C58531   1.067   8.443   3.929  0.1104 -0.0539 -0.4787
  444MOL0     C58532   1.202   8.436   3.974  0.1787 -0.2881 -0.3719
  444MOL0     C58533   1.247   8.368   4.085 -0.9451  0.2063 -0.7471
  444MOL0     O58534   1.377   8.390   4.116 -0.0623 -0.4057  0.6642
  444MOL0     C58535   1.454   8.288   4.190  0.3044 -0.1620  0.2289
  444MOL0     C58536   1.541   8.361   4.291  0.8530  0.0337 -1.2337
  444MOL0     C58537   1.647   8.431   4.219 -0.0032 -0.3535  0.1524
  444MOL0     C58538   1.753   8.470   4.315  0.0830 -0.6667  0.4724
  444MOL0     C58539   1.711   8.581   4.404 -0.0319  1.0229  0.5402
  444MOL0     C58540   1.676   8.671   4.478 -0.5780  0.4440  0.1889
  444MOL0     C58541   1.145   8.300   4.163 -0.6696 -0.3279 -0.4438
  444MOL0     C58542   1.008   8.306   4.129  0.5092  0.5262  0.3648
  444MOL0     H58543   0.603   8.136   4.032  1.3764  0.5600 -0.2403
  444MOL0     H58544   0.360   8.130   4.050 -2.6692  1.2264 -1.4631
  444MOL0     H58545   0.058   8.344   3.865  1.9131 -0.7557 -3.9243
  444MOL0     H58546   0.210   8.422   3.837 -1.5564  2.7106 -0.8436
  444MOL0     H58547   0.056   8.612   3.856  0.0322  1.1779  0.8647
  444MOL0     H58548   0.146   8.616   4.005 -0.4517  0.4056  1.5796
  444MOL0     H58549  -0.077   8.652   4.040  3.8358  0.7916 -1.2613
  444MOL0     H58550  -0.037   8.494   4.112 -1.0365 -0.3773  0.8617
  444MOL0     H58551  -0.162   8.497   3.839  0.0344 -4.5408  0.4871
  444MOL0     H58552  -0.144   8.376   3.941 -2.0737 -0.6209  0.7060
  444MOL0     H58553  -0.324   8.633   3.977 -1.2030 -0.7973 -2.5125
  444MOL0     H58554  -0.306   8.519   4.112 -0.5907 -2.2961  0.1981
  444MOL0     H58555  -0.417   8.364   3.913 -0.0252 -0.5296 -0.3280
  444MOL0     H58556  -0.424   8.518   3.830 -2.2756  1.2620  0.7650
  444MOL0     H58557  -0.556   8.440   4.100 -1.2003 -0.6676 -0.5062
  444MOL0     H58558  -0.546   8.611   4.047  2.9088  1.2261 -1.2037
  444MOL0     H58559  -0.684   8.398   3.878  1.7469 -2.0265  0.2223
  444MOL0     H58560  -0.688   8.567   3.854  0.9840 -0.8927 -0.7117
  444MOL0     H58561  -0.779   8.676   4.142  1.3663 -1.6726  0.2865
  444MOL0     H58562  -1.089   8.714   4.237  0.9783  1.0195  0.1507
  444MOL0     H58563  -0.946   8.656   4.330 -1.7205  0.9547  2.8941
  444MOL0     H58564  -1.081   8.473   4.414 -1.4671  1.1013  3.5968
  444MOL0     H58565  -1.202   8.499   4.285  3.3156 -2.8557 -2.3028
  444MOL0     H58566  -1.260   8.591   4.530  0.3329 -1.8366 -0.6453
  444MOL0     H58567  -1.116   8.691   4.494  1.5666  1.0691 -2.4103
  444MOL0     H58568  -1.250   8.843   4.358  0.4943 -1.2536 -0.5428
  444MOL0     H58569  -1.359   8.789   4.480 -0.9020  0.1557  0.3412
  444MOL0     H58570  -1.442   8.967   4.304  0.1484 -1.0106  2.0302
  444MOL0     H58571  -1.611   9.079   4.171  0.6877  0.4784 -3.4568
  444MOL0     H58572  -1.770   8.982   3.672  0.5275  4.4011  1.0350
  444MOL0     H58573  -1.919   9.065   3.499  0.0662 -1.0922 -0.3970
  444MOL0     H58574  -2.206   9.323   3.459  4.2361  2.0307 -0.6915
  444MOL0     H58575  -2.074   9.311   3.561 -0.7414  1.3433  1.1263
  444MOL0     H58576  -2.241   9.441   3.660  0.6993  0.3802  1.8340
  444MOL0     H58577  -2.212   9.308   3.768  0.5170 -0.7921 -0.2338
  444MOL0     H58578  -2.430   9.191   3.676 -0.1175 -0.8510 -0.4052
  444MOL0     H58579  -2.427   9.304   3.543 -0.1137 -0.0342  1.1469
  444MOL0     H58580  -2.472   9.341   3.849  2.7909 -2.5238 -1.0721
  444MOL0     H58581  -2.435   9.485   3.755  0.5048 -0.3881  4.1417
  444MOL0     H58582  -2.692   9.332   3.693 -1.5832  1.8395 -1.1223
  444MOL0     H58583  -2.633   9.494   3.640 -2.1885  0.0255 -0.1989
  444MOL0     H58584  -2.644   9.544   3.901 -0.5600  0.1892  0.7732
  444MOL0     H58585  -2.729   9.390   3.914 -1.3338 -0.8868 -2.2326
  444MOL0     H58586  -2.838   9.615   3.739 -0.0366  2.2512  1.3275
  444MOL0     H58587  -2.899   9.452   3.807 -0.7358  0.6174 -1.1629
  444MOL0     H58588  -2.827   9.707   3.954 -2.7362  1.0717  1.6231
  444MOL0     H58589  -2.886   9.557   4.025 -1.4766 -2.6059 -0.5589
  444MOL0     H58590  -2.248   9.062   3.776  1.5154  2.2618  2.2006
  444MOL0     H58591  -2.101   8.952   3.954 -2.1504  0.2924  0.6305
  444MOL0     H58592  -1.722   8.706   3.996  0.4009 -0.5512 -0.1849
  444MOL0     H58593  -1.556   8.585   4.140  1.1628  1.0635 -0.5584
  444MOL0     H58594   0.346   8.558   4.030  0.5370  0.5516  2.5077
  444MOL0     H58595   0.593   8.559   4.077 -1.8143  0.9044 -0.7542
  444MOL0     H58596   1.056   8.497   3.836 -2.3375 -0.1087 -0.2640
  444MOL0     H58597   1.271   8.504   3.925  2.3425  0.0442  2.8481
  444MOL0     H58598   1.489   8.204   4.129 -0.2318 -1.7225  1.9881
  444MOL0     H58599   1.380   8.240   4.254 -0.3502 -0.2207 -0.5597
  444MOL0     H58600   1.483   8.430   4.353  1.0320 -0.6135 -0.3241
  444MOL0     H58601   1.583   8.294   4.367  1.0543  1.7211  0.2257
  444MOL0     H58602   1.608   8.520   4.168 -1.3463 -0.4820  0.9056
  444MOL0     H58603   1.680   8.362   4.140  1.7675 -0.6605  1.1245
  444MOL0     H58604   1.792   8.385   4.373 -2.4893 -0.8122  2.1386
  444MOL0     H58605   1.842   8.504   4.260 -0.3482 -1.6475 -0.8780
  444MOL0     H58606   1.631   8.753   4.531  2.5440  3.3109 -1.1417
  444MOL0     H58607   1.168   8.231   4.243 -0.4038 -0.0390 -0.2709
  444MOL0     H58608   0.929   8.251   4.179  2.3443 -1.1293  1.5778
  445MOL0     O58609   8.736   8.138   6.543 -0.0180  1.0009  0.2298
  445MOL0     C58610   8.834   8.157   6.615  0.1894 -0.1083  0.1365
  445MOL0     O58611   8.832   8.228   6.731  0.1442 -0.1228  0.1609
  445MOL0     C58612   8.720   8.293   6.777  0.0652 -0.2222 -0.1576
  445MOL0     C58613   8.696   8.297   6.915 -1.2741 -0.3823 -0.6843
  445MOL0     C58614   8.576   8.360   6.962 -0.6257  0.7127  0.1767
  445MOL0     C58615   8.488   8.419   6.874  0.5887 -1.4297  0.1779
  445MOL0     O58616   8.372   8.480   6.933 -0.8700 -1.0305  0.1699
  445MOL0     C58617   8.284   8.544   6.837  0.5106  0.2198  0.6957
  445MOL0     C58618   8.166   8.612   6.912  0.6669 -0.9589 -0.5077
  445MOL0     C58619   8.063   8.654   6.796 -0.7877 -0.1731  0.4144
  445MOL0     C58620   7.915   8.650   6.834 -0.1069  0.0189  0.1684
  445MOL0     C58621   7.827   8.678   6.707 -0.0653  0.1414 -0.2777
  445MOL0     C58622   7.675   8.671   6.735 -0.7682 -0.2634 -0.2753
  445MOL0     C58623   7.632   8.785   6.828  0.2179 -0.0555 -0.6525
  445MOL0     C58624   7.645   8.916   6.774 -0.6138 -0.2083 -0.1129
  445MOL0     N58625   7.527   8.947   6.691  1.2879  0.3581 -0.4191
  445MOL0     C58626   7.519   8.926   6.554 -1.0909  0.1121 -0.2116
  445MOL0     C58627   7.387   8.953   6.528 -0.9587 -1.3920  0.1856
  445MOL0     C58628   7.324   8.937   6.394  0.3790  0.6288 -0.6012
  445MOL0     C58629   7.296   9.079   6.350 -0.3601  0.3252  0.0598
  445MOL0     C58630   7.254   9.084   6.201  0.2912  0.1140 -1.0590
  445MOL0     C58631   7.102   9.054   6.179 -0.7348  0.0422  0.3821
  445MOL0     O58632   7.076   9.081   6.048 -0.3081 -0.1690  0.3523
  445MOL0     C58633   6.951   9.116   6.006 -0.5626  0.1489  0.1375
  445MOL0     C58634   6.833   9.097   6.077  0.6495  0.6492 -0.9163
  445MOL0     C58635   6.707   9.126   6.017 -0.4674  0.6945  0.0035
  445MOL0     C58636   6.704   9.169   5.889 -0.5881 -0.2024  0.2845
  445MOL0     C58637   6.575   9.194   5.820 -0.7562  0.2507 -1.6070
  445MOL0     O58638   6.574   9.174   5.683  0.2955 -0.0584  0.5820
  445MOL0     C58639   6.460   9.226   5.624 -0.2198  0.1217  0.1229
  445MOL0     C58640   6.408   9.351   5.643 -0.7364  0.1316  0.0117
  445MOL0     C58641   6.296   9.392   5.576  0.3760  0.5056 -0.0208
  445MOL0     C58642   6.227   9.303   5.490 -0.6529  0.2321 -0.1617
  445MOL0     O58643   6.140   9.361   5.405 -0.2378 -0.3365 -0.4679
  445MOL0     C58644   6.099   9.288   5.287  0.5740  0.5765  0.1069
  445MOL0     C58645   5.989   9.184   5.319 -0.9004  0.2795 -0.1455
  445MOL0     C58646   5.856   9.241   5.354 -0.1124 -0.0383  0.1691
  445MOL0     C58647   5.769   9.260   5.224  0.3026 -0.7303  0.1966
  445MOL0     C58648   5.626   9.277   5.264  0.8477 -0.1196  0.4516
  445MOL0     C58649   5.599   9.411   5.341 -0.1672 -0.3539 -0.6555
  445MOL0     C58650   5.441   9.433   5.350 -0.1425 -0.1455 -0.0266
  445MOL0     C58651   5.393   9.562   5.412 -0.9092 -0.0708  0.2033
  445MOL0    Cl58652   5.431   9.702   5.302  0.1167 -0.5647 -0.3862
  445MOL0     C58653   6.276   9.173   5.478 -0.5048  0.7502  0.5997
  445MOL0     C58654   6.394   9.136   5.549 -0.3077 -0.3078 -0.2103
  445MOL0     O58655   6.487   9.219   5.895  0.3415  0.1559 -0.5186
  445MOL0     C58656   6.826   9.189   5.816  0.0105  0.6712  0.3162
  445MOL0     C58657   6.947   9.155   5.881  0.7033 -0.2228 -0.1144
  445MOL0     N58658   7.322   8.982   6.645  0.0891  0.7376  0.1200
  445MOL0     N58659   7.408   8.998   6.735 -0.2024 -0.1222 -0.3189
  445MOL0     C58660   8.511   8.414   6.738  0.0230 -0.2325 -0.5583
  445MOL0     C58661   8.632   8.360   6.687 -0.3669 -0.6482 -0.5159
  445MOL0     C58662   8.968   8.113   6.576 -0.7811  0.1773  0.0016
  445MOL0     C58663   8.990   8.033   6.459  0.0375 -0.3852 -0.1980
  445MOL0     C58664   9.108   7.997   6.415  0.0766 -0.0407  0.4676
  445MOL0     C58665   9.226   8.033   6.482  0.9274  0.6692  0.1294
  445MOL0     O58666   9.353   7.991   6.439 -0.4721  0.7527  0.2863
  445MOL0     C58667   9.387   8.036   6.307  0.3535 -0.1722 -0.2900
  445MOL0     C58668   9.531   7.988   6.302  0.2057 -0.4846  0.7786
  445MOL0     C58669   9.620   8.083   6.375  0.4724 -0.4132 -1.0603
  445MOL0     C58670   9.768   8.041   6.368  0.1513  0.8227 -0.0959
  445MOL0     C58671   9.868   8.152   6.370  0.6958  1.0977 -0.1311
  445MOL0     C58672  10.002   8.287   6.386 -0.4859 -0.2717  0.0499
  445MOL0     C58673   9.206   8.105   6.603  0.2899  0.3814 -0.3146
  445MOL0     C58674   9.077   8.139   6.654  0.4892 -0.0808  0.4406
  445MOL0     H58675   8.761   8.256   6.992 -0.6392  0.2410 -0.8781
  445MOL0     H58676   8.559   8.370   7.069 -1.9287  3.2686 -0.1967
  445MOL0     H58677   8.244   8.471   6.766  0.5001 -0.8575  1.7806
  445MOL0     H58678   8.336   8.618   6.776 -0.3263 -0.0702 -0.3920
  445MOL0     H58679   8.193   8.703   6.966 -0.2097  0.0084 -1.6267
  445MOL0     H58680   8.106   8.543   6.972 -0.3904  0.3004 -0.0624
  445MOL0     H58681   8.084   8.593   6.707 -1.1776  1.3174 -0.7589
  445MOL0     H58682   8.079   8.758   6.767 -2.0307  1.1758  4.0977
  445MOL0     H58683   7.898   8.549   6.871  1.3918 -0.3588 -0.0702
  445MOL0     H58684   7.896   8.718   6.917  1.6569 -0.0118  0.6474
  445MOL0     H58685   7.848   8.608   6.626  1.3844  0.1607  0.0484
  445MOL0     H58686   7.863   8.774   6.670  1.9269 -0.4517 -0.0055
  445MOL0     H58687   7.660   8.576   6.786  1.8458 -0.8401 -0.4084
  445MOL0     H58688   7.622   8.672   6.639  1.0854  0.2004 -1.3564
  445MOL0     H58689   7.527   8.773   6.858  0.7216  0.6892  1.6218
  445MOL0     H58690   7.694   8.782   6.918  2.8987  1.5472 -2.3282
  445MOL0     H58691   7.733   8.933   6.711  0.2164 -3.3499  0.0586
  445MOL0     H58692   7.635   8.986   6.858 -2.9371  1.1767 -1.4393
  445MOL0     H58693   7.594   8.888   6.485 -1.8841 -1.0730 -0.4508
  445MOL0     H58694   7.234   8.878   6.413  0.2119  1.4273  1.4025
  445MOL0     H58695   7.396   8.885   6.331  0.0082 -0.3340 -0.2555
  445MOL0     H58696   7.393   9.130   6.352  0.3574 -0.9745  2.5245
  445MOL0     H58697   7.225   9.131   6.415 -2.4234 -1.7850 -0.4040
  445MOL0     H58698   7.291   9.179   6.161  0.4631  0.7165  0.4678
  445MOL0     H58699   7.307   9.008   6.142 -1.1423 -0.8875 -1.1258
  445MOL0     H58700   7.053   9.134   6.236  0.1993  0.9261 -0.0390
  445MOL0     H58701   7.062   8.959   6.215 -1.8814 -0.4003 -1.8897
  445MOL0     H58702   6.839   9.055   6.177  2.0304 -1.2041 -1.7151
  445MOL0     H58703   6.617   9.124   6.077 -0.2561  1.9384  0.3738
  445MOL0     H58704   6.463   9.415   5.711 -2.5671 -0.0470  1.7665
  445MOL0     H58705   6.262   9.493   5.597 -2.3853 -0.4330  0.3358
  445MOL0     H58706   6.183   9.245   5.232  1.2383  0.7879  0.9387
  445MOL0     H58707   6.050   9.353   5.213  0.1599 -1.7723 -1.8337
  445MOL0     H58708   6.024   9.122   5.402 -0.9738  1.2506  0.6287
  445MOL0     H58709   5.973   9.114   5.238 -1.0534 -0.3373  0.4091
  445MOL0     H58710   5.878   9.333   5.408 -0.0867  0.0357  0.0321
  445MOL0     H58711   5.804   9.174   5.424 -1.0851  0.4555 -0.0548
  445MOL0     H58712   5.791   9.350   5.166 -1.2891 -0.6219 -0.2870
  445MOL0     H58713   5.768   9.173   5.158 -3.6317  0.8227 -2.1467
  445MOL0     H58714   5.604   9.192   5.329  0.1840  0.7529  1.4077
  445MOL0     H58715   5.564   9.264   5.175  1.2986 -1.1217  0.2728
  445MOL0     H58716   5.658   9.488   5.291 -0.7796  0.0916 -0.7057
  445MOL0     H58717   5.641   9.399   5.441  0.6298  0.7759 -0.8428
  445MOL0     H58718   5.406   9.431   5.247 -2.2064 -1.1259  0.6397
  445MOL0     H58719   5.400   9.359   5.420  0.4835 -0.0703  0.4263
  445MOL0     H58720   5.432   9.572   5.514 -1.5559 -2.0689  0.6959
  445MOL0     H58721   5.284   9.559   5.419 -0.9471  1.2395  0.3987
  445MOL0     H58722   6.229   9.090   5.425 -0.8830  0.9739  0.5801
  445MOL0     H58723   6.431   9.034   5.549  2.9865  0.7582 -1.5382
  445MOL0     H58724   6.822   9.218   5.711 -0.1503 -1.1012 -0.2029
  445MOL0     H58725   7.036   9.168   5.820 -1.2064 -0.1736 -3.1436
  445MOL0     H58726   8.439   8.450   6.665  0.1413 -0.4357 -0.7744
  445MOL0     H58727   8.656   8.352   6.581 -3.0826 -1.3545 -1.1757
  445MOL0     H58728   8.910   8.002   6.393  0.3562 -2.1902  0.2172
  445MOL0     H58729   9.123   7.947   6.320 -2.4933  0.3560 -0.2389
  445MOL0     H58730   9.359   8.141   6.302  0.7609  0.3593  4.2901
  445MOL0     H58731   9.327   7.982   6.233 -0.4220 -0.7565  0.7339
  445MOL0     H58732   9.540   7.888   6.343 -0.0627 -0.8874 -0.1155
  445MOL0     H58733   9.569   7.989   6.199  0.2745  2.5383  0.7435
  445MOL0     H58734   9.599   8.079   6.482 -0.8493  0.8823 -1.2513
  445MOL0     H58735   9.611   8.187   6.342  2.3438  0.2034  0.2085
  445MOL0     H58736   9.790   7.968   6.446  0.8014  1.2686  0.1484
  445MOL0     H58737   9.786   7.989   6.274  1.5445 -1.0185  1.1201
  445MOL0     H58738  10.078   8.362   6.392  1.6313 -2.3028  0.0632
  445MOL0     H58739   9.300   8.116   6.657  0.5153 -1.2733 -0.3269
  445MOL0     H58740   9.077   8.192   6.749  1.9055  0.3788  0.2053
  446MOL0     O58741   4.725   8.459   3.276  0.0333 -0.7085 -0.4403
  446MOL0     C58742   4.735   8.561   3.347  0.3066  0.5664 -0.0507
  446MOL0     O58743   4.625   8.627   3.400 -0.1166  0.0669  0.1774
  446MOL0     C58744   4.498   8.583   3.370 -0.9732  0.3691 -0.2624
  446MOL0     C58745   4.442   8.626   3.248 -0.1808 -0.2297  0.4396
  446MOL0     C58746   4.315   8.582   3.216 -0.7350  0.9454 -0.0707
  446MOL0     C58747   4.240   8.492   3.304  0.3151 -0.4349 -0.2992
  446MOL0     O58748   4.119   8.443   3.276 -0.1700  0.2041  0.0576
  446MOL0     C58749   4.031   8.553   3.270  0.0255  0.3772 -1.1500
  446MOL0     C58750   3.889   8.484   3.248  0.4009  1.1685  0.3925
  446MOL0     C58751   3.775   8.574   3.269  0.8526  0.1923  0.4783
  446MOL0     C58752   3.754   8.558   3.417  0.7934 -0.3111  0.4140
  446MOL0     C58753   3.613   8.625   3.456 -0.0292 -0.1109  0.2209
  446MOL0     C58754   3.595   8.596   3.601 -0.3738  0.3544 -0.6278
  446MOL0     C58755   3.474   8.669   3.648  0.4049  1.0669 -0.2130
  446MOL0     C58756   3.456   8.656   3.801 -0.7370 -0.0976  0.9188
  446MOL0     N58757   3.331   8.715   3.843  0.7259  0.2521  0.5059
  446MOL0     C58758   3.202   8.680   3.802 -0.8271  0.6235  0.6674
  446MOL0     C58759   3.120   8.779   3.839  0.4389  0.1389  0.7108
  446MOL0     C58760   2.963   8.784   3.819 -0.0443 -0.1755  0.1356
  446MOL0     C58761   2.900   8.872   3.923 -0.5268  0.0983 -0.0106
  446MOL0     C58762   2.745   8.866   3.896  0.1727  0.0040 -1.2082
  446MOL0     C58763   2.682   8.952   4.000 -0.1474  0.2947  0.3775
  446MOL0     O58764   2.555   8.898   4.006 -0.2571  0.4946 -0.0197
  446MOL0     C58765   2.437   8.969   3.971  0.1305 -1.0264  0.1327
  446MOL0     C58766   2.314   8.905   3.996 -0.4701  0.1880 -0.1781
  446MOL0     C58767   2.194   8.956   3.965 -0.4269 -0.5301  0.4916
  446MOL0     C58768   2.192   9.087   3.911 -0.6210  0.5336 -0.1012
  446MOL0     C58769   2.064   9.138   3.876  0.7213 -0.5763  0.6842
  446MOL0     O58770   1.956   9.052   3.876 -0.3386 -0.7267 -0.6641
  446MOL0     C58771   1.830   9.088   3.833 -0.4815  0.3622  1.0039
  446MOL0     C58772   1.783   9.071   3.700 -0.1398  0.3813 -0.4813
  446MOL0     C58773   1.656   9.111   3.667  0.2780 -0.0152  0.5423
  446MOL0     C58774   1.569   9.162   3.755 -0.0723  0.4487 -0.0060
  446MOL0     O58775   1.451   9.203   3.704  0.5285  0.2768 -0.7876
  446MOL0     C58776   1.363   9.288   3.780  0.4182  0.0188  0.6159
  446MOL0     C58777   1.272   9.205   3.876  0.6296  0.1982  0.1438
  446MOL0     C58778   1.179   9.293   3.962 -0.5765  0.6300  0.1798
  446MOL0     C58779   1.117   9.213   4.076  0.0130 -0.1034  0.2395
  446MOL0     C58780   0.975   9.270   4.108  0.1895  1.0066 -0.3285
  446MOL0     C58781   0.883   9.163   4.178 -0.0507  0.6542  0.0928
  446MOL0     C58782   0.747   9.203   4.229 -0.2795 -0.1354  0.6493
  446MOL0     C58783   0.749   9.287   4.354 -0.6539 -0.5296 -0.7644
  446MOL0    Cl58784   0.804   9.193   4.489  0.1450 -0.2217 -0.5892
  446MOL0     C58785   1.620   9.198   3.884 -0.3572 -0.6824  0.0564
  446MOL0     C58786   1.747   9.158   3.929  0.1224  0.1259 -0.0141
  446MOL0     O58787   2.056   9.260   3.857 -0.2417  0.9175 -0.4029
  446MOL0     C58788   2.316   9.158   3.884 -0.9302 -0.6965  0.2657
  446MOL0     C58789   2.441   9.102   3.908 -0.0083  0.9287 -0.1120
  446MOL0     N58790   3.206   8.883   3.878  0.0998 -0.7613  0.7961
  446MOL0     N58791   3.327   8.842   3.888  0.1132  0.6542  0.2172
  446MOL0     C58792   4.307   8.447   3.425  0.0827 -0.2017  0.4966
  446MOL0     C58793   4.431   8.494   3.457 -0.3985 -0.0553 -0.3948
  446MOL0     C58794   4.875   8.598   3.377 -0.1086 -0.5528 -0.5888
  446MOL0     C58795   4.983   8.531   3.323 -0.2668 -0.5131  0.0395
  446MOL0     C58796   5.113   8.580   3.325  1.0241 -0.2144 -0.2148
  446MOL0     C58797   5.141   8.700   3.394 -0.0138 -0.3608  0.1705
  446MOL0     O58798   5.274   8.727   3.412  0.0942 -0.9115  0.4935
  446MOL0     C58799   5.321   8.846   3.478 -0.1991  0.3957 -0.5684
  446MOL0     C58800   5.475   8.826   3.481 -0.0415  0.3117 -0.1648
  446MOL0     C58801   5.555   8.949   3.508  0.0297 -0.4958  0.1291
  446MOL0     C58802   5.560   8.992   3.648 -0.6286  0.0243 -0.0194
  446MOL0     C58803   5.436   9.030   3.709 -0.5679  0.5621  1.4338
  446MOL0     C58804   5.332   9.071   3.758  0.8825  0.2601  0.1134
  446MOL0     C58805   5.039   8.763   3.463  0.0750 -1.1287 -0.2827
  446MOL0     C58806   4.906   8.721   3.449  0.0991 -0.3719 -0.1299
  446MOL0     H58807   4.506   8.695   3.193 -0.0424  0.5282  1.5028
  446MOL0     H58808   4.270   8.607   3.121 -3.2078 -1.7795  0.2617
  446MOL0     H58809   4.047   8.622   3.187  0.6051  0.2236 -1.1726
  446MOL0     H58810   4.028   8.612   3.362  1.0019  1.7852 -1.9905
  446MOL0     H58811   3.876   8.392   3.304 -1.9763  0.8616 -0.5348
  446MOL0     H58812   3.876   8.456   3.143 -4.1780  0.5956  0.8987
  446MOL0     H58813   3.690   8.542   3.208  0.9943 -0.3065  0.5372
  446MOL0     H58814   3.800   8.678   3.245  1.5725  0.5369  2.5093
  446MOL0     H58815   3.756   8.453   3.446  0.3460 -0.6202 -0.6507
  446MOL0     H58816   3.833   8.613   3.470 -0.5378  2.4453 -0.2680
  446MOL0     H58817   3.529   8.571   3.411 -0.2865  0.2935  0.2107
  446MOL0     H58818   3.592   8.729   3.429 -0.0310 -0.3705 -0.8442
  446MOL0     H58819   3.676   8.649   3.653  0.3674 -1.7282  0.4350
  446MOL0     H58820   3.587   8.493   3.635 -2.2861  1.4667  2.7739
  446MOL0     H58821   3.486   8.773   3.615 -2.2163  1.9419  1.2482
  446MOL0     H58822   3.384   8.636   3.595  0.0752  0.6118  0.5989
  446MOL0     H58823   3.544   8.693   3.854  0.2538 -1.6629  0.4205
  446MOL0     H58824   3.455   8.548   3.816 -0.8024 -0.3850 -0.9680
  446MOL0     H58825   3.183   8.586   3.751  3.4163  0.2252 -0.5308
  446MOL0     H58826   2.927   8.681   3.824  1.7580 -0.8558 -0.0620
  446MOL0     H58827   2.951   8.825   3.718  0.3026  0.0224  0.1741
  446MOL0     H58828   2.931   8.976   3.909 -0.9682  0.2070 -0.1958
  446MOL0     H58829   2.930   8.841   4.023  2.3683 -0.1698 -0.8779
  446MOL0     H58830   2.726   8.904   3.795  2.1340  1.4166 -1.1006
  446MOL0     H58831   2.714   8.762   3.906  1.4776 -0.2142  1.2444
  446MOL0     H58832   2.684   9.058   3.973 -0.4194  0.0804 -0.5320
  446MOL0     H58833   2.730   8.937   4.097 -0.6219 -1.8215  0.3305
  446MOL0     H58834   2.324   8.806   4.039 -2.8105  0.3546  0.8758
  446MOL0     H58835   2.105   8.903   3.998 -0.6884  0.1845  0.9623
  446MOL0     H58836   1.848   9.041   3.619  1.0746  3.3883 -0.7686
  446MOL0     H58837   1.635   9.087   3.563  3.2103 -1.7085  0.2161
  446MOL0     H58838   1.294   9.352   3.724 -1.0036  0.3804  2.6373
  446MOL0     H58839   1.413   9.361   3.846 -1.9804  0.5465  1.9924
  446MOL0     H58840   1.335   9.137   3.935  1.3979  1.4336  0.8090
  446MOL0     H58841   1.217   9.136   3.812  0.3382  0.5540  0.0056
  446MOL0     H58842   1.103   9.337   3.896 -1.1507  1.5300  1.3984
  446MOL0     H58843   1.236   9.375   4.006 -1.4090  2.4276 -1.8732
  446MOL0     H58844   1.104   9.115   4.029 -0.8593  0.7417 -1.3936
  446MOL0     H58845   1.172   9.216   4.170  0.6343 -0.1785 -0.1153
  446MOL0     H58846   0.919   9.319   4.028 -0.9531  2.1670  1.1294
  446MOL0     H58847   0.988   9.342   4.190  0.1602  0.2051  0.3922
  446MOL0     H58848   0.940   9.115   4.258 -1.1467 -0.6867  0.1059
  446MOL0     H58849   0.849   9.083   4.111  0.5314 -0.5006  1.1312
  446MOL0     H58850   0.697   9.255   4.147  0.0702  1.6845  1.5239
  446MOL0     H58851   0.683   9.124   4.268 -1.5609  0.7700  0.4452
  446MOL0     H58852   0.654   9.337   4.374 -0.5998 -0.4272 -0.7596
  446MOL0     H58853   0.829   9.358   4.331 -1.2035  0.0598 -0.8703
  446MOL0     H58854   1.561   9.259   3.953  0.0164  0.0285 -0.2429
  446MOL0     H58855   1.789   9.176   4.027  1.6563 -0.3688 -0.5572
  446MOL0     H58856   2.320   9.259   3.843  0.6642 -0.8835 -0.1010
  446MOL0     H58857   2.530   9.158   3.883  1.3277 -1.0904 -0.1089
  446MOL0     H58858   4.258   8.383   3.498 -0.3782  2.9237  3.1723
  446MOL0     H58859   4.472   8.470   3.554 -0.0625 -2.6129 -1.1120
  446MOL0     H58860   4.968   8.449   3.254  0.5168 -0.0418 -0.7164
  446MOL0     H58861   5.196   8.528   3.277  0.4378  0.4732 -2.0627
  446MOL0     H58862   5.276   8.846   3.578  1.0209 -2.4527  0.0828
  446MOL0     H58863   5.292   8.933   3.419 -0.3530  0.7351 -0.0057
  446MOL0     H58864   5.507   8.746   3.548 -2.2868  0.1167  0.7796
  446MOL0     H58865   5.500   8.799   3.378 -0.6584  2.0639 -0.8096
  446MOL0     H58866   5.523   9.039   3.455  1.4473  0.0430  0.1341
  446MOL0     H58867   5.656   8.925   3.473 -0.4458 -3.0452  0.2640
  446MOL0     H58868   5.611   8.921   3.714  1.8009  0.4491 -1.3209
  446MOL0     H58869   5.629   9.077   3.652 -0.3115 -0.2793  1.9861
  446MOL0     H58870   5.246   9.100   3.815  0.2211 -1.9741  0.3592
  446MOL0     H58871   5.060   8.855   3.516 -0.5460 -0.1844 -1.6319
  446MOL0     H58872   4.825   8.777   3.495  1.3954  1.5286 -0.0685
  447MOL0     O58873   7.836   3.017   7.883  0.2775 -0.3528 -0.5259
  447MOL0     C58874   7.906   2.931   7.942  0.5076 -0.5801  0.7105
  447MOL0     O58875   7.855   2.827   8.019 -0.1172 -0.3931  0.1132
  447MOL0     C58876   7.721   2.807   8.006 -0.6023  0.6569  0.0703
  447MOL0     C58877   7.646   2.826   8.121  0.2545 -0.4531  0.3742
  447MOL0     C58878   7.509   2.788   8.122  0.3252  0.8232 -0.3621
  447MOL0     C58879   7.445   2.744   8.004  0.1100 -0.7120  0.1302
  447MOL0     O58880   7.321   2.699   8.019 -0.2317 -0.1050 -0.4352
  447MOL0     C58881   7.229   2.703   7.905  0.0688 -0.1460 -0.0038
  447MOL0     C58882   7.089   2.712   7.961 -0.4211  0.7625  0.1198
  447MOL0     C58883   6.976   2.671   7.875 -0.5251 -0.6748 -1.0629
  447MOL0     C58884   6.846   2.687   7.957  0.2289 -0.2657  0.5187
  447MOL0     C58885   6.730   2.591   7.917 -0.5831 -0.0948 -0.1062
  447MOL0     C58886   6.688   2.603   7.777  0.2513 -0.1233  0.3031
  447MOL0     C58887   6.590   2.496   7.731  0.4784 -0.0056 -0.6877
  447MOL0     C58888   6.561   2.521   7.581 -0.8040  0.1807 -0.5945
  447MOL0     N58889   6.465   2.413   7.539 -1.3650 -0.0759  0.1917
  447MOL0     C58890   6.482   2.290   7.479  0.0108 -0.6689 -0.4493
  447MOL0     C58891   6.358   2.245   7.454  0.0487  0.5799 -1.2881
  447MOL0     C58892   6.304   2.110   7.420  0.3265 -0.0814  0.9447
  447MOL0     C58893   6.272   2.112   7.265  0.7803 -0.4158  0.0581
  447MOL0     C58894   6.151   2.202   7.219 -0.6474 -0.0325 -0.4245
  447MOL0     C58895   6.009   2.166   7.273  0.5082  0.1408  0.3862
  447MOL0     O58896   6.003   2.022   7.272  0.7253 -0.1067  0.8074
  447MOL0     C58897   5.881   1.978   7.319 -1.1023 -0.4232 -1.0496
  447MOL0     C58898   5.880   1.876   7.417  0.4589 -0.4057 -0.2300
  447MOL0     C58899   5.764   1.820   7.470 -0.1902  0.0136 -0.3979
  447MOL0     C58900   5.643   1.865   7.438  0.6328  0.3257 -0.9869
  447MOL0     C58901   5.523   1.806   7.509  0.4607 -0.6240 -0.2077
  447MOL0     O58902   5.544   1.699   7.595 -0.7145 -0.3290 -0.7431
  447MOL0     C58903   5.437   1.618   7.616  0.2734 -0.2485  0.5085
  447MOL0     C58904   5.382   1.536   7.514  0.3040 -0.4376 -0.3797
  447MOL0     C58905   5.269   1.447   7.537 -0.1711  0.0867  0.1135
  447MOL0     C58906   5.223   1.443   7.665 -0.0345 -0.1579 -0.3160
  447MOL0     O58907   5.117   1.368   7.691  0.3312  0.6265 -0.0788
  447MOL0     C58908   4.997   1.408   7.620 -0.1415  0.0308  0.1813
  447MOL0     C58909   4.938   1.280   7.583 -0.1105  0.1229 -0.7383
  447MOL0     C58910   4.831   1.298   7.475 -0.4827  0.1598 -0.1186
  447MOL0     C58911   4.795   1.167   7.411  0.2129  0.4948 -0.6916
  447MOL0     C58912   4.693   1.193   7.301 -0.6161  0.0225  0.3970
  447MOL0     C58913   4.655   1.059   7.244 -0.0058 -0.9349  0.2260
  447MOL0     C58914   4.514   1.074   7.166 -0.4714  0.8288 -0.1651
  447MOL0     C58915   4.478   0.943   7.100  0.2652  0.4647 -0.1236
  447MOL0    Cl58916   4.592   0.900   6.972  0.3017 -0.3419 -0.4768
  447MOL0     C58917   5.269   1.520   7.763  0.1937 -1.4402  0.3362
  447MOL0     C58918   5.376   1.608   7.741 -0.4317 -0.2105 -0.8621
  447MOL0     O58919   5.416   1.851   7.480 -0.1790 -0.1741  0.2035
  447MOL0     C58920   5.643   1.975   7.346 -0.1704  0.1138  0.5928
  447MOL0     C58921   5.754   2.032   7.287 -0.7830 -0.8873 -0.5234
  447MOL0     N58922   6.271   2.345   7.504  0.9193  0.3270  0.0786
  447MOL0     N58923   6.338   2.436   7.561  0.7446 -0.3333  0.0498
  447MOL0     C58924   7.514   2.744   7.884 -0.1439  0.3749 -0.0766
  447MOL0     C58925   7.649   2.767   7.883  0.0391  0.5104 -0.0654
  447MOL0     C58926   8.051   2.948   7.942 -0.6337 -0.4522  0.1190
  447MOL0     C58927   8.131   2.856   8.018 -0.5856 -0.1088 -0.6361
  447MOL0     C58928   8.271   2.883   8.030  0.3084  0.1728  0.2244
  447MOL0     C58929   8.320   3.008   7.986  0.2278 -0.6384  0.8076
  447MOL0     O58930   8.454   3.027   7.992 -0.5808  0.1626  0.3791
  447MOL0     C58931   8.506   3.145   8.048  0.1337 -0.3574 -0.6923
  447MOL0     C58932   8.654   3.164   8.021 -0.2639  0.6375  0.8785
  447MOL0     C58933   8.720   3.278   8.092 -0.0543 -0.2303  0.0776
  447MOL0     C58934   8.859   3.317   8.044  0.0386 -0.2692 -0.9340
  447MOL0     C58935   8.962   3.231   8.111 -0.2267 -0.4455  0.1312
  447MOL0     C58936   9.047   3.159   8.150 -1.1587  0.5952  0.3782
  447MOL0     C58937   8.232   3.098   7.913 -0.6873  0.4870  0.3783
  447MOL0     C58938   8.100   3.073   7.894 -0.1774 -0.6600  0.8937
  447MOL0     H58939   7.693   2.847   8.216 -1.9851 -0.8671  1.6585
  447MOL0     H58940   7.447   2.792   8.211 -1.1141 -1.8885 -1.1419
  447MOL0     H58941   7.235   2.609   7.849  0.9836  1.4163 -2.7286
  447MOL0     H58942   7.244   2.790   7.839  0.2605  2.4137  3.1680
  447MOL0     H58943   7.076   2.816   7.991 -1.1278  0.2514  1.7030
  447MOL0     H58944   7.088   2.654   8.054 -2.4033 -1.7027 -1.3187
  447MOL0     H58945   7.006   2.574   7.834 -0.2782 -0.5606 -1.1547
  447MOL0     H58946   6.966   2.741   7.792  2.1784  1.1146 -0.0336
  447MOL0     H58947   6.866   2.670   8.063 -2.6480 -1.4200  0.9705
  447MOL0     H58948   6.819   2.791   7.940  1.8325  0.2437  0.8626
  447MOL0     H58949   6.642   2.612   7.978 -0.9641 -0.4602 -0.5285
  447MOL0     H58950   6.759   2.487   7.929 -1.6713 -0.4580 -0.5461
  447MOL0     H58951   6.778   2.602   7.715  1.7265  2.2145  2.1988
  447MOL0     H58952   6.631   2.696   7.767 -3.2159 -1.8001  2.3759
  447MOL0     H58953   6.636   2.398   7.747 -0.6116 -0.1592  2.0783
  447MOL0     H58954   6.495   2.502   7.786 -0.7084  0.0078 -2.6688
  447MOL0     H58955   6.651   2.523   7.519  0.6258 -0.8766  1.3204
  447MOL0     H58956   6.510   2.617   7.566 -1.7520 -0.6140 -2.7347
  447MOL0     H58957   6.570   2.231   7.455  1.6009  1.3774  0.0371
  447MOL0     H58958   6.210   2.091   7.473 -1.6073  2.3537 -1.3471
  447MOL0     H58959   6.381   2.035   7.438  1.5654  1.2947  1.5417
  447MOL0     H58960   6.252   2.012   7.226 -5.5486  0.9255 -1.2191
  447MOL0     H58961   6.364   2.147   7.218  0.4774 -0.4486 -0.5669
  447MOL0     H58962   6.172   2.306   7.245  0.3748 -0.9963  3.1189
  447MOL0     H58963   6.163   2.192   7.111  0.1026 -0.9956 -0.2625
  447MOL0     H58964   5.925   2.205   7.214  0.7005  1.6801  1.0772
  447MOL0     H58965   5.985   2.201   7.373  1.4493  0.5152  0.4867
  447MOL0     H58966   5.975   1.830   7.444  0.8079 -0.7278 -1.8896
  447MOL0     H58967   5.784   1.743   7.543 -1.2208 -0.5346 -0.6676
  447MOL0     H58968   5.432   1.538   7.417 -0.4313 -1.4629 -0.7946
  447MOL0     H58969   5.239   1.372   7.465 -3.2136 -0.5874  1.9007
  447MOL0     H58970   5.024   1.475   7.538  2.9326 -0.0285  1.0105
  447MOL0     H58971   4.930   1.466   7.683 -0.3824  1.8896 -1.6855
  447MOL0     H58972   4.886   1.248   7.674  0.7388  0.5623 -0.0881
  447MOL0     H58973   5.018   1.211   7.554  0.8279  1.5393 -1.6382
  447MOL0     H58974   4.860   1.373   7.401  2.4755  0.1437  0.8905
  447MOL0     H58975   4.744   1.334   7.532  1.5144  0.9517  2.6552
  447MOL0     H58976   4.884   1.121   7.366 -0.8794 -3.0323  0.3931
  447MOL0     H58977   4.749   1.107   7.490 -1.7652  0.9122 -1.4678
  447MOL0     H58978   4.750   1.258   7.233 -0.9519 -0.7578 -0.6632
  447MOL0     H58979   4.616   1.259   7.341  0.3022 -0.5249  3.2964
  447MOL0     H58980   4.672   0.981   7.318 -0.8883  0.7588  2.2980
  447MOL0     H58981   4.726   1.032   7.164 -0.0946  0.6961 -0.4335
  447MOL0     H58982   4.435   1.118   7.227  0.7982  2.6406  0.2734
  447MOL0     H58983   4.538   1.141   7.083  1.9257 -0.6541 -0.7795
  447MOL0     H58984   4.382   0.950   7.048  0.5067  0.9010 -0.5251
  447MOL0     H58985   4.471   0.877   7.187  2.3647  1.0702  0.5851
  447MOL0     H58986   5.224   1.515   7.862 -2.0189  1.8738 -0.3397
  447MOL0     H58987   5.413   1.677   7.816  0.0194 -0.7944 -0.5457
  447MOL0     H58988   5.549   2.010   7.304 -0.9685 -0.7938  1.5574
  447MOL0     H58989   5.738   2.100   7.204 -0.2690 -0.3380 -0.1846
  447MOL0     H58990   7.471   2.719   7.787  2.7518  1.3174 -1.7156
  447MOL0     H58991   7.700   2.750   7.789  1.2091 -0.2898  0.6818
  447MOL0     H58992   8.091   2.770   8.069  2.5152  0.3270  3.0382
  447MOL0     H58993   8.339   2.812   8.077 -1.7539 -0.0324  3.1727
  447MOL0     H58994   8.491   3.141   8.157 -0.0963  1.9272 -0.5851
  447MOL0     H58995   8.458   3.236   8.012  3.6606  1.1558 -2.0373
  447MOL0     H58996   8.707   3.074   8.054  0.2085  0.1831 -0.9777
  447MOL0     H58997   8.671   3.172   7.913 -0.1443  1.8409  0.9764
  447MOL0     H58998   8.716   3.254   8.199  0.1795 -1.8182 -0.2485
  447MOL0     H58999   8.660   3.369   8.085 -0.4583 -0.3431  1.6630
  447MOL0     H59000   8.870   3.328   7.936 -1.7065  3.0330 -0.9021
  447MOL0     H59001   8.875   3.418   8.083  0.0189 -1.1684  1.6055
  447MOL0     H59002   9.120   3.093   8.191 -0.4578  0.4668 -1.0461
  447MOL0     H59003   8.278   3.186   7.870  0.5326  1.0004  2.5692
  447MOL0     H59004   8.031   3.139   7.843 -2.2078 -4.2480 -1.4245
  448MOL0     O59005   1.689  10.508   8.909 -0.5906  0.2263  0.4773
  448MOL0     C59006   1.681  10.622   8.849 -0.0102  0.7903 -0.2587
  448MOL0     O59007   1.565  10.680   8.788 -0.0070  0.7383 -0.7033
  448MOL0     C59008   1.443  10.626   8.828 -0.1139 -0.0812  0.3115
  448MOL0     C59009   1.400  10.600   8.953  0.6866  0.6322 -1.4610
  448MOL0     C59010   1.279  10.538   8.970  0.4505  0.1324 -0.2050
  448MOL0     C59011   1.187  10.502   8.859 -0.7758 -0.2980 -0.5744
  448MOL0     O59012   1.066  10.438   8.885 -0.8375 -0.6703 -0.5786
  448MOL0     C59013   0.960  10.522   8.930 -0.5285 -0.2285  1.1198
  448MOL0     C59014   0.820  10.451   8.897 -0.2494  0.4946 -0.6745
  448MOL0     C59015   0.806  10.430   8.749  0.3403  0.1560  0.5651
  448MOL0     C59016   0.663  10.380   8.710  0.7356  0.7317 -0.3584
  448MOL0     C59017   0.553  10.494   8.716 -0.0124  0.9775 -0.3392
  448MOL0     C59018   0.413  10.446   8.680  0.8095  0.2340 -0.5848
  448MOL0     C59019   0.299  10.541   8.726 -1.1096 -0.4558  0.6524
  448MOL0     C59020   0.167  10.467   8.692  0.0474 -0.0250 -0.1336
  448MOL0     N59021   0.135  10.450   8.548 -0.1122 -0.6214 -0.0625
  448MOL0     C59022   0.205  10.373   8.454  0.1028 -1.2370  0.0242
  448MOL0     C59023   0.132  10.395   8.343  0.4560 -0.3851  0.4334
  448MOL0     C59024   0.169  10.329   8.215 -0.7127  0.5297  0.0991
  448MOL0     C59025   0.215  10.420   8.101 -0.3222  0.0496 -0.0467
  448MOL0     C59026   0.231  10.341   7.966 -1.0771  0.1333  0.0541
  448MOL0     C59027   0.289  10.436   7.854 -0.0855 -0.3878 -0.0630
  448MOL0     O59028   0.178  10.522   7.831  0.0444 -0.1314 -0.4207
  448MOL0     C59029   0.173  10.564   7.703  0.5529  0.6194 -0.7457
  448MOL0     C59030   0.184  10.703   7.673 -0.4919  0.4642  0.5444
  448MOL0     C59031   0.144  10.751   7.547 -0.0726  0.0046  0.6939
  448MOL0     C59032   0.100  10.661   7.437 -0.8017 -1.1797 -0.7026
  448MOL0     C59033   0.053  10.709   7.315  0.6463  0.1350 -0.0911
  448MOL0     O59034   0.049  10.845   7.291 -0.1443 -0.0193 -0.3948
  448MOL0     C59035   0.040  10.896   7.162 -0.8505  0.1603 -0.0253
  448MOL0     C59036   0.159  10.933   7.100 -0.5564  0.7791  0.0755
  448MOL0     C59037   0.156  10.988   6.969  0.7075 -0.3783  0.4135
  448MOL0     C59038   0.036  11.017   6.904 -0.5903  0.5109 -0.3112
  448MOL0     O59039   0.045  11.077   6.777  0.5789  0.5210 -0.2764
  448MOL0     C59040   0.034  10.997   6.664 -0.2297 -0.1055  0.3886
  448MOL0     C59041   0.082  11.058   6.537 -0.2623  0.0476  0.3769
  448MOL0     C59042   0.027  10.988   6.415 -0.4438  0.2306 -0.5991
  448MOL0     C59043  -0.113  11.057   6.396  0.4479 -0.3912  0.4707
  448MOL0     C59044  -0.191  10.994   6.281 -0.8562 -0.5367  0.1714
  448MOL0     C59045  -0.139  11.023   6.135 -0.5345  0.0673  0.5103
  448MOL0     C59046  -0.192  10.920   6.034 -0.6898 -1.0149  0.3764
  448MOL0     C59047  -0.093  10.925   5.915 -0.3936 -0.1483  0.4295
  448MOL0    Cl59048  -0.055  11.095   5.877 -0.0863  0.0084 -0.5549
  448MOL0     C59049  -0.087  10.978   6.961 -0.0587 -1.2811 -0.3850
  448MOL0     C59050  -0.084  10.923   7.091  0.4681 -0.0480 -0.0715
  448MOL0     O59051  -0.007  10.627   7.247 -0.0923  0.2336 -0.3443
  448MOL0     C59052   0.114  10.526   7.471  0.4318 -0.2405  0.3775
  448MOL0     C59053   0.148  10.474   7.601 -0.0591 -0.1620  1.1629
  448MOL0     N59054   0.018  10.475   8.369  0.9173  0.3515 -0.5095
  448MOL0     N59055   0.018  10.498   8.498 -0.4570  0.3326  0.0612
  448MOL0     C59056   1.237  10.528   8.730  0.2128 -0.2764 -0.4305
  448MOL0     C59057   1.363  10.590   8.719  0.3736  0.2503  0.2928
  448MOL0     C59058   1.807  10.698   8.848  0.2617  0.3158 -0.2591
  448MOL0     C59059   1.927  10.663   8.923 -0.2984  0.7198  0.2383
  448MOL0     C59060   2.050  10.720   8.885  0.2407  0.5353 -0.5715
  448MOL0     C59061   2.059  10.816   8.776  1.4925  0.9451 -1.5050
  448MOL0     O59062   2.186  10.846   8.743 -0.3607  0.5966 -0.1355
  448MOL0     C59063   2.197  10.915   8.619 -0.2669  0.2992  0.5691
  448MOL0     C59064   2.342  10.947   8.585  0.4028 -0.8361 -0.0684
  448MOL0     C59065   2.333  10.982   8.431  0.3241  0.9789  0.1367
  448MOL0     C59066   2.458  11.037   8.378 -0.2523  0.2095 -0.3891
  448MOL0     C59067   2.502  11.147   8.459  0.1928 -0.3008  0.3693
  448MOL0     C59068   2.537  11.248   8.523  0.6379  0.7309 -0.5913
  448MOL0     C59069   1.941  10.859   8.718  1.4054 -0.5056 -0.1144
  448MOL0     C59070   1.820  10.808   8.758  0.2494 -0.1303 -0.2186
  448MOL0     H59071   1.459  10.628   9.039 -0.5094 -0.9759 -0.0681
  448MOL0     H59072   1.234  10.517   9.067 -2.3408  0.6606 -1.2978
  448MOL0     H59073   0.954  10.621   8.884  0.2842 -0.4380  0.5293
  448MOL0     H59074   0.955  10.532   9.039 -0.9883  0.7717  1.0141
  448MOL0     H59075   0.738  10.508   8.941 -0.5891  0.9411 -1.8699
  448MOL0     H59076   0.813  10.350   8.939  1.6671  0.4226 -0.4390
  448MOL0     H59077   0.883  10.361   8.713  1.7337  0.7604  2.2485
  448MOL0     H59078   0.832  10.526   8.704  0.0969  0.9643  2.0941
  448MOL0     H59079   0.662  10.353   8.604  3.6952  1.6490 -0.7345
  448MOL0     H59080   0.637  10.301   8.781 -1.0169  2.3859  0.9385
  448MOL0     H59081   0.581  10.572   8.645  1.5077  0.9041  0.1513
  448MOL0     H59082   0.557  10.530   8.819 -1.4983  0.4694 -0.0819
  448MOL0     H59083   0.404  10.349   8.729  0.5795  1.0597  1.0781
  448MOL0     H59084   0.394  10.427   8.574  1.1563  0.2921 -0.6583
  448MOL0     H59085   0.318  10.556   8.833  0.2885 -4.6626  1.1446
  448MOL0     H59086   0.293  10.644   8.689 -2.4485 -0.0521  1.8917
  448MOL0     H59087   0.082  10.523   8.734  1.7368  2.4154  0.2554
  448MOL0     H59088   0.165  10.372   8.745 -2.4915  0.9579  1.7412
  448MOL0     H59089   0.287  10.304   8.466  1.3295  0.3130  0.8811
  448MOL0     H59090   0.089  10.265   8.176 -1.0461 -0.5342  2.4123
  448MOL0     H59091   0.244  10.249   8.221 -0.3129  0.1380 -5.1580
  448MOL0     H59092   0.314  10.461   8.126  0.6108 -1.1984 -1.4527
  448MOL0     H59093   0.144  10.501   8.085  0.7056  0.7989 -1.0556
  448MOL0     H59094   0.301  10.260   7.986  3.2536  3.6647  0.8829
  448MOL0     H59095   0.140  10.307   7.917 -1.3867  0.7430  0.1904
  448MOL0     H59096   0.317  10.378   7.765 -1.5358 -3.9382  1.6018
  448MOL0     H59097   0.383  10.485   7.883  0.3462 -1.2688  0.0736
  448MOL0     H59098   0.228  10.772   7.743  0.9721 -0.7754  0.9080
  448MOL0     H59099   0.156  10.858   7.528 -1.9113 -0.1650 -2.1576
  448MOL0     H59100   0.247  10.940   7.162  0.9760 -2.9867 -1.3740
  448MOL0     H59101   0.242  11.023   6.911 -0.7082  1.8318 -0.4856
  448MOL0     H59102  -0.070  10.970   6.648 -0.1460 -0.4783  0.4699
  448MOL0     H59103   0.095  10.908   6.681  1.3358  0.5452 -1.4577
  448MOL0     H59104   0.190  11.041   6.543 -0.1475  0.6613  0.2164
  448MOL0     H59105   0.063  11.166   6.537 -4.4564 -0.5318  1.5173
  448MOL0     H59106   0.022  10.880   6.432  1.5484  0.1023 -0.6712
  448MOL0     H59107   0.082  11.001   6.321 -0.4164  2.8606 -0.2926
  448MOL0     H59108  -0.173  11.054   6.488 -3.1231  0.8100 -1.6182
  448MOL0     H59109  -0.103  11.164   6.378 -2.7526  0.1308  1.0613
  448MOL0     H59110  -0.298  11.016   6.272 -1.2365 -1.7499  1.4036
  448MOL0     H59111  -0.197  10.886   6.291  0.0296 -0.4275  2.5481
  448MOL0     H59112  -0.030  11.027   6.139 -0.4719  0.1089 -0.7895
  448MOL0     H59113  -0.173  11.124   6.111 -0.3522  0.3075  1.2484
  448MOL0     H59114  -0.203  10.816   6.068 -3.5310 -1.7692 -2.3522
  448MOL0     H59115  -0.285  10.957   5.990  0.5881 -1.4172 -2.9000
  448MOL0     H59116  -0.135  10.882   5.823  0.9845  0.6736 -0.6341
  448MOL0     H59117  -0.000  10.873   5.941 -0.5074  0.7584  2.9213
  448MOL0     H59118  -0.172  10.994   6.895  0.7329  1.3839 -0.8865
  448MOL0     H59119  -0.173  10.883   7.138 -0.0048 -0.3117 -1.1378
  448MOL0     H59120   0.094  10.447   7.400  0.6048 -2.1085  2.3315
  448MOL0     H59121   0.164  10.368   7.612  3.0802  0.2327  1.3357
  448MOL0     H59122   1.185  10.504   8.638 -1.4943 -1.6859  0.8060
  448MOL0     H59123   1.399  10.615   8.620 -0.3682  0.8545  0.1620
  448MOL0     H59124   1.932  10.593   9.006 -1.5121  0.1383 -0.1566
  448MOL0     H59125   2.141  10.687   8.933 -0.7382 -0.7375  0.5181
  448MOL0     H59126   2.152  11.015   8.621 -1.0779 -0.0655  0.8348
  448MOL0     H59127   2.141  10.857   8.545  2.6803 -2.8181  0.5220
  448MOL0     H59128   2.376  11.028   8.651 -0.7706 -0.4328  0.0683
  448MOL0     H59129   2.409  10.865   8.611  2.5865  1.4484  2.0984
  448MOL0     H59130   2.251  11.049   8.406 -0.7712  0.1610  1.4129
  448MOL0     H59131   2.312  10.896   8.366 -1.8179  2.9811 -2.0036
  448MOL0     H59132   2.531  10.956   8.377 -0.1431 -0.0230 -5.6703
  448MOL0     H59133   2.446  11.061   8.272 -3.1080 -1.5478 -0.5639
  448MOL0     H59134   2.574  11.324   8.588 -2.8902 -0.9344  3.9073
  448MOL0     H59135   1.933  10.928   8.635  0.5975  1.9226  1.8690
  448MOL0     H59136   1.737  10.846   8.699 -0.9766 -4.4928 -1.7358
  449MOL0     O59137   1.651   1.745   8.084  0.1378 -1.0565 -0.0493
  449MOL0     C59138   1.687   1.854   8.133  0.0199  1.0139  0.1921
  449MOL0     O59139   1.635   1.914   8.246  0.2048 -0.8485 -0.5548
  449MOL0     C59140   1.512   1.864   8.287 -0.4519  0.9306  0.4161
  449MOL0     C59141   1.508   1.792   8.405  0.2493  0.0753  0.5997
  449MOL0     C59142   1.383   1.734   8.448 -0.7048  0.1658 -0.2153
  449MOL0     C59143   1.265   1.743   8.367  0.3585 -0.4988 -0.1443
  449MOL0     O59144   1.152   1.666   8.401 -0.3221  0.6125  0.2821
  449MOL0     C59145   1.025   1.734   8.372  0.2841  0.2782  0.1968
  449MOL0     C59146   0.909   1.667   8.457  0.7952 -0.0941  0.8114
  449MOL0     C59147   0.778   1.756   8.432  0.1554 -0.5540  0.4869
  449MOL0     C59148   0.755   1.779   8.280 -0.2002  0.7954  1.5966
  449MOL0     C59149   0.616   1.818   8.241  0.4572  0.2621 -0.2212
  449MOL0     C59150   0.538   1.679   8.250  0.7864 -0.1909 -0.1743
  449MOL0     C59151   0.382   1.701   8.233 -0.6473 -0.0564 -0.3295
  449MOL0     C59152   0.298   1.577   8.266  0.0957 -0.2608  0.4424
  449MOL0     N59153   0.155   1.609   8.245 -0.2453 -1.3721 -0.4386
  449MOL0     C59154   0.070   1.629   8.348 -0.8237  0.3133 -0.5824
  449MOL0     C59155  -0.043   1.655   8.278 -0.8740  0.2347 -0.0559
  449MOL0     C59156  -0.174   1.674   8.342  0.2148 -0.0360  0.5621
  449MOL0     C59157  -0.233   1.531   8.377  0.0570 -0.3836 -1.1840
  449MOL0     C59158  -0.356   1.543   8.464  0.3506  0.0929  0.2521
  449MOL0     C59159  -0.353   1.624   8.595 -0.4952  0.2080 -0.8399
  449MOL0     O59160  -0.451   1.568   8.686 -0.1017 -0.1101  0.8245
  449MOL0     C59161  -0.503   1.651   8.783  0.3835 -0.7775 -0.8593
  449MOL0     C59162  -0.626   1.617   8.849 -0.4136 -0.0694  0.6149
  449MOL0     C59163  -0.673   1.692   8.961  0.4665 -0.1165 -0.2322
  449MOL0     C59164  -0.604   1.799   9.019  0.8422  0.3768  0.0783
  449MOL0     C59165  -0.654   1.870   9.145  0.5845  0.1605  0.7288
  449MOL0     O59166  -0.582   1.977   9.195 -0.3969  0.5141 -0.0953
  449MOL0     C59167  -0.598   2.014   9.318 -0.5712  0.5498 -0.0795
  449MOL0     C59168  -0.722   2.045   9.368  0.4616  0.4200 -0.2368
  449MOL0     C59169  -0.746   2.108   9.488 -0.5192  0.1883 -0.3840
  449MOL0     C59170  -0.637   2.140   9.570  0.7495 -0.4078 -0.9210
  449MOL0     O59171  -0.677   2.182   9.689 -0.5963  0.0244  0.1800
  449MOL0     C59172  -0.640   2.096   9.791 -0.5977 -0.1639  0.0454
  449MOL0     C59173  -0.705   2.148   9.918  1.1634 -1.2122 -0.2271
  449MOL0     C59174  -0.859   2.142   9.909  0.9892  0.3271 -0.5064
  449MOL0     C59175  -0.921   2.209  10.028  0.2822 -0.4226  0.2253
  449MOL0     C59176  -1.072   2.177  10.035  1.1409 -0.0484  0.5868
  449MOL0     C59177  -1.146   2.246  10.153 -0.1199 -0.1079  0.8104
  449MOL0     C59178  -1.300   2.248  10.144  0.2817  0.0650  0.3342
  449MOL0     C59179  -1.349   2.234  10.290 -0.3504 -1.0362 -0.0960
  449MOL0    Cl59180  -1.531   2.225  10.306 -0.2797  0.2203 -0.0822
  449MOL0     C59181  -0.510   2.113   9.523 -0.1711 -0.5457  0.6077
  449MOL0     C59182  -0.493   2.054   9.397  0.1403 -0.3145  0.3835
  449MOL0     O59183  -0.752   1.811   9.199 -0.1938 -0.1574 -0.2306
  449MOL0     C59184  -0.482   1.840   8.949  0.4376  0.2760  0.1653
  449MOL0     C59185  -0.438   1.768   8.834 -0.2754 -1.0547 -0.6115
  449MOL0     N59186  -0.027   1.651   8.139 -0.1710  0.5386 -0.0328
  449MOL0     N59187   0.100   1.624   8.121  1.1452  1.1131  0.2465
  449MOL0     C59188   1.270   1.826   8.253 -0.5377 -0.4613  0.9684
  449MOL0     C59189   1.393   1.880   8.208 -0.3383  0.2879 -0.0060
  449MOL0     C59190   1.796   1.929   8.069  0.7790  0.9687 -0.5802
  449MOL0     C59191   1.820   2.067   8.107 -0.2616  0.9087  0.3667
  449MOL0     C59192   1.924   2.135   8.045  0.9982 -0.8880  0.8190
  449MOL0     C59193   1.996   2.084   7.940  0.0784 -0.1002  0.4614
  449MOL0     O59194   2.102   2.161   7.899 -0.2618 -0.6130  0.2449
  449MOL0     C59195   2.180   2.123   7.788 -0.1690 -0.8058  0.3065
  449MOL0     C59196   2.290   2.222   7.761  0.7615  0.5657  0.3466
  449MOL0     C59197   2.390   2.241   7.870 -0.4084  0.1030 -0.3815
  449MOL0     C59198   2.529   2.310   7.829  0.7753  0.3929  0.0120
  449MOL0     C59199   2.607   2.216   7.745 -0.0511 -0.5407 -1.0080
  449MOL0     C59200   2.671   2.141   7.674  1.1895 -0.4486 -0.3088
  449MOL0     C59201   1.965   1.953   7.897 -0.2123  0.4588 -0.0647
  449MOL0     C59202   1.871   1.877   7.963 -0.3761  0.2930  0.1292
  449MOL0     H59203   1.604   1.777   8.453  1.3677  2.7670 -0.6048
  449MOL0     H59204   1.375   1.665   8.531 -1.2653  1.0411  0.4700
  449MOL0     H59205   1.002   1.716   8.266 -2.3491 -3.5241  1.2132
  449MOL0     H59206   1.024   1.843   8.380  1.7359  0.6592 -2.9716
  449MOL0     H59207   0.937   1.659   8.562  2.0122  1.0443  0.5897
  449MOL0     H59208   0.899   1.566   8.416 -0.0788 -1.3899  3.9204
  449MOL0     H59209   0.792   1.850   8.485  1.2523 -0.1471 -0.4611
  449MOL0     H59210   0.693   1.702   8.474  0.3543  1.1786  3.3366
  449MOL0     H59211   0.827   1.854   8.245  1.9814 -1.8804  0.0197
  449MOL0     H59212   0.788   1.691   8.225 -2.8454 -0.4979  1.9421
  449MOL0     H59213   0.619   1.860   8.140  1.0051 -2.2419 -1.3109
  449MOL0     H59214   0.573   1.890   8.311  0.0182 -0.9085  0.7395
  449MOL0     H59215   0.565   1.627   8.343 -1.5157  0.5662  0.9978
  449MOL0     H59216   0.576   1.623   8.164  0.9642  2.7328 -2.1587
  449MOL0     H59217   0.360   1.774   8.311 -1.9879 -2.6158  1.9041
  449MOL0     H59218   0.353   1.735   8.133 -3.0473 -0.0254  0.3266
  449MOL0     H59219   0.327   1.538   8.364 -0.3397  2.1560  1.6103
  449MOL0     H59220   0.322   1.503   8.188 -1.8135 -0.8416  0.3513
  449MOL0     H59221   0.075   1.619   8.456 -1.4695 -0.0983 -0.5882
  449MOL0     H59222  -0.246   1.727   8.278  1.2614  1.8836  0.8969
  449MOL0     H59223  -0.176   1.737   8.432 -0.6386  0.9993 -0.1557
  449MOL0     H59224  -0.155   1.480   8.434 -2.3908 -2.9463  0.1065
  449MOL0     H59225  -0.240   1.468   8.288 -1.0487  0.3069 -1.6081
  449MOL0     H59226  -0.428   1.595   8.399  0.8168  0.1649 -0.2128
  449MOL0     H59227  -0.386   1.439   8.482  1.0026  0.0457  1.0728
  449MOL0     H59228  -0.376   1.728   8.574  1.3600  0.8850  0.1849
  449MOL0     H59229  -0.256   1.620   8.646 -1.1142 -1.1155  0.3181
  449MOL0     H59230  -0.678   1.536   8.800  0.8687  0.6127 -2.0247
  449MOL0     H59231  -0.766   1.666   9.010 -0.8911  2.7169 -1.1264
  449MOL0     H59232  -0.812   2.018   9.313 -1.9265  1.6424  2.7594
  449MOL0     H59233  -0.852   2.111   9.512 -0.7771  0.6326 -1.5136
  449MOL0     H59234  -0.534   2.106   9.815 -0.1955 -2.5073 -0.5140
  449MOL0     H59235  -0.673   1.994   9.773 -1.1252 -0.2512  1.3665
  449MOL0     H59236  -0.669   2.251   9.919 -1.1204 -0.3499 -0.0370
  449MOL0     H59237  -0.661   2.099  10.005  1.3320 -1.6047 -0.5316
  449MOL0     H59238  -0.884   2.035   9.915  3.1095 -0.1465  3.6183
  449MOL0     H59239  -0.896   2.186   9.816  2.3885  0.7952 -0.8715
  449MOL0     H59240  -0.879   2.165  10.119 -1.0140  0.0011  1.0785
  449MOL0     H59241  -0.899   2.316  10.020  2.1210 -0.8434 -0.7272
  449MOL0     H59242  -1.091   2.070  10.044  4.2599 -0.6383  1.1085
  449MOL0     H59243  -1.117   2.222   9.945  0.5323  0.3151  1.0625
  449MOL0     H59244  -1.104   2.347  10.150  3.3644 -1.4103 -2.1185
  449MOL0     H59245  -1.115   2.213  10.252 -1.6568 -0.8051  1.0989
  449MOL0     H59246  -1.329   2.339  10.091  1.5688  0.5243  0.3992
  449MOL0     H59247  -1.342   2.162  10.089 -1.7983 -0.2532  2.2650
  449MOL0     H59248  -1.308   2.318  10.347  2.6970 -2.2362 -0.3413
  449MOL0     H59249  -1.311   2.150  10.349  0.3958  0.1610  1.1822
  449MOL0     H59250  -0.415   2.136   9.569  0.3076 -1.8479  0.3182
  449MOL0     H59251  -0.392   2.043   9.360 -0.1278 -1.4097 -0.0487
  449MOL0     H59252  -0.426   1.923   8.991 -1.1133  3.2540 -3.0937
  449MOL0     H59253  -0.342   1.802   8.796 -0.5370  2.6079  1.5470
  449MOL0     H59254   1.187   1.848   8.187  1.0048  0.0667 -0.9049
  449MOL0     H59255   1.408   1.937   8.117 -0.1755  3.1743  1.6791
  449MOL0     H59256   1.767   2.121   8.185 -1.9932  0.6189 -0.5874
  449MOL0     H59257   1.948   2.230   8.092  1.3181 -1.4713  1.8709
  449MOL0     H59258   2.119   2.134   7.698  0.9910 -0.6149 -0.4787
  449MOL0     H59259   2.224   2.024   7.801  0.9639 -0.1633  1.6107
  449MOL0     H59260   2.335   2.184   7.669 -0.5649 -2.1548  0.7492
  449MOL0     H59261   2.243   2.318   7.737 -0.4248  0.0132  0.4249
  449MOL0     H59262   2.418   2.147   7.917  3.2033  0.1001 -2.2457
  449MOL0     H59263   2.334   2.311   7.933 -0.6364  4.0261 -4.4253
  449MOL0     H59264   2.513   2.397   7.765  4.0485 -1.1514 -3.3316
  449MOL0     H59265   2.582   2.330   7.923 -0.0432  2.0414  0.1514
  449MOL0     H59266   2.715   2.075   7.603 -2.8895 -0.3110 -3.3266
  449MOL0     H59267   2.031   1.898   7.831  2.3783 -0.3242  2.9597
  449MOL0     H59268   1.865   1.780   7.915 -1.8468  0.1352  0.5660
  450MOL0     O59269   5.572  10.186   8.725  0.3264  0.3070  0.1830
  450MOL0     C59270   5.633  10.209   8.621  0.3252 -0.4392 -0.0853
  450MOL0     O59271   5.582  10.226   8.503  1.0096 -0.1703  0.4201
  450MOL0     C59272   5.448  10.211   8.472  0.1081  0.5050 -0.2453
  450MOL0     C59273   5.349  10.253   8.562 -0.2650  0.5912 -0.6392
  450MOL0     C59274   5.211  10.224   8.542 -0.5147 -0.0521  0.5163
  450MOL0     C59275   5.168  10.165   8.423  0.8822 -0.9041  0.2557
  450MOL0     O59276   5.035  10.162   8.390 -0.5801  0.1993 -0.1776
  450MOL0     C59277   4.989  10.063   8.301 -0.1095  0.8600 -0.1633
  450MOL0     C59278   4.840  10.031   8.308  0.7684 -0.4958 -0.5171
  450MOL0     C59279   4.754  10.164   8.321 -0.0496 -0.0264  0.0476
  450MOL0     C59280   4.604  10.123   8.306 -0.4020  0.5071  0.0038
  450MOL0     C59281   4.497  10.229   8.344  0.6823  0.0075  0.1230
  450MOL0     C59282   4.360  10.167   8.356  1.0995 -0.5407  0.1035
  450MOL0     C59283   4.260  10.278   8.397 -0.5543 -0.9466 -0.3220
  450MOL0     C59284   4.132  10.230   8.458  0.2261  0.0814 -0.4408
  450MOL0     N59285   4.063  10.330   8.530  0.1637  0.3011  1.0621
  450MOL0     C59286   4.100  10.377   8.650 -0.6637  0.4902  0.3113
  450MOL0     C59287   4.012  10.476   8.681  0.0293  0.0655 -0.8079
  450MOL0     C59288   3.989  10.553   8.813 -0.2078  0.7878  0.7665
  450MOL0     C59289   3.858  10.511   8.877 -0.3547 -0.9101 -0.2149
  450MOL0     C59290   3.827  10.588   9.000  0.0302  0.4728 -0.7859
  450MOL0     C59291   3.679  10.573   9.022  0.6061  0.0512 -0.0658
  450MOL0     O59292   3.628  10.445   9.010 -0.2014  0.6118 -0.0896
  450MOL0     C59293   3.500  10.431   9.044  0.5542  0.1625  0.3620
  450MOL0     C59294   3.466  10.347   9.150 -0.5329 -0.8006 -0.9612
  450MOL0     C59295   3.337  10.312   9.180 -0.6116 -0.2796 -0.1829
  450MOL0     C59296   3.239  10.357   9.094  0.5288  1.1590  0.1729
  450MOL0     C59297   3.096  10.309   9.123  1.2405  0.3111  0.1329
  450MOL0     O59298   3.069  10.239   9.242 -0.3542 -0.6217 -0.5777
  450MOL0     C59299   2.950  10.177   9.267  0.2611 -0.3552  0.5173
  450MOL0     C59300   2.953  10.059   9.338  0.5606  0.7895 -0.2971
  450MOL0     C59301   2.841   9.974   9.341  0.4201 -0.3262 -0.3826
  450MOL0     C59302   2.720  10.022   9.294 -0.2988  0.2663  0.2596
  450MOL0     O59303   2.609   9.948   9.300 -0.3171  0.1342 -0.0686
  450MOL0     C59304   2.605   9.837   9.397  1.4654  0.8066  0.2288
  450MOL0     C59305   2.458   9.782   9.401 -0.0708 -0.1354 -0.3141
  450MOL0     C59306   2.425   9.687   9.516 -0.1458 -0.4858  0.8182
  450MOL0     C59307   2.296   9.732   9.596 -0.4560  0.2464 -0.0607
  450MOL0     C59308   2.261   9.657   9.717 -0.0916 -0.2022  0.6264
  450MOL0     C59309   2.239   9.514   9.676 -0.2652  0.4547 -0.2875
  450MOL0     C59310   2.162   9.436   9.782 -0.2609  0.6126 -0.0455
  450MOL0     C59311   2.013   9.467   9.790  0.1286 -0.5446 -0.9084
  450MOL0    Cl59312   1.931   9.386   9.656  0.5064  0.0237  0.0885
  450MOL0     C59313   2.716  10.149   9.234 -0.1343  0.3751  0.1906
  450MOL0     C59314   2.829  10.232   9.219 -0.8514  0.1270  0.4452
  450MOL0     O59315   3.010  10.325   9.037  0.1014  0.5543  0.1621
  450MOL0     C59316   3.270  10.432   8.975 -0.0154  0.0072  1.0450
  450MOL0     C59317   3.402  10.471   8.955 -0.0317 -0.3258  0.0817
  450MOL0     N59318   3.926  10.494   8.570  0.0428  0.1882  0.1943
  450MOL0     N59319   3.955  10.407   8.477 -0.1721  0.8521  0.4240
  450MOL0     C59320   5.266  10.136   8.332  0.7027  0.2019 -0.1748
  450MOL0     C59321   5.402  10.142   8.362  0.8069  0.4184 -0.9726
  450MOL0     C59322   5.778  10.220   8.628  0.1916  0.2686 -0.2406
  450MOL0     C59323   5.852  10.245   8.756  0.1194  0.3265  0.2724
  450MOL0     C59324   5.989  10.257   8.760 -0.7766 -0.3752 -0.7441
  450MOL0     C59325   6.060  10.269   8.635  0.2208  0.4516 -0.0992
  450MOL0     O59326   6.192  10.299   8.622 -0.3317 -0.2451 -0.2440
  450MOL0     C59327   6.293  10.225   8.687 -0.0258 -0.0190 -0.7509
  450MOL0     C59328   6.410  10.203   8.586  0.5990  0.7743  0.0925
  450MOL0     C59329   6.527  10.136   8.663  0.3908 -0.1674  0.4006
  450MOL0     C59330   6.656  10.139   8.578 -0.3279  0.4135 -0.3548
  450MOL0     C59331   6.693  10.284   8.586  0.1664 -0.2914 -0.7570
  450MOL0     C59332   6.731  10.405   8.586  0.5761  0.4617  0.0795
  450MOL0     C59333   5.992  10.269   8.512  0.4484  0.2751 -0.0719
  450MOL0     C59334   5.854  10.244   8.511 -0.3307 -0.3380  0.1142
  450MOL0     H59335   5.367  10.308   8.654  0.5590 -2.1459  0.9517
  450MOL0     H59336   5.128  10.254   8.605 -1.2833 -0.9749 -0.0367
  450MOL0     H59337   5.040   9.968   8.283 -1.7309  0.4368 -3.4111
  450MOL0     H59338   5.001  10.112   8.204 -0.5204 -0.9895 -1.2004
  450MOL0     H59339   4.819   9.968   8.394 -1.4145  0.7437 -0.0691
  450MOL0     H59340   4.801   9.978   8.220  2.3029  0.2962 -1.7386
  450MOL0     H59341   4.771  10.235   8.240 -1.7293  0.2920 -0.0487
  450MOL0     H59342   4.770  10.217   8.415 -1.3146  1.3760 -0.5067
  450MOL0     H59343   4.593  10.077   8.208  3.2215 -2.9499  0.9400
  450MOL0     H59344   4.588  10.038   8.374  3.8486  0.5111  1.2789
  450MOL0     H59345   4.482  10.312   8.275 -3.0797 -2.3369 -2.1935
  450MOL0     H59346   4.513  10.262   8.448  3.3301 -1.2402  0.2031
  450MOL0     H59347   4.358  10.093   8.437 -1.7673  2.3969  3.0080
  450MOL0     H59348   4.327  10.119   8.263  0.0520  0.3398  0.0113
  450MOL0     H59349   4.307  10.329   8.482  1.6938 -2.2117 -0.7453
  450MOL0     H59350   4.241  10.351   8.318  1.0869 -0.5174 -0.3546
  450MOL0     H59351   4.158  10.146   8.522 -3.1272 -1.0915 -0.4159
  450MOL0     H59352   4.076  10.191   8.373  2.0599 -0.9019 -1.2544
  450MOL0     H59353   4.173  10.340   8.720  1.5650  1.0898 -1.5802
  450MOL0     H59354   4.004  10.660   8.803  1.6031  0.4522 -0.5000
  450MOL0     H59355   4.074  10.517   8.872  2.6925  0.1268 -3.3669
  450MOL0     H59356   3.864  10.403   8.894 -0.0099 -1.2571 -2.2758
  450MOL0     H59357   3.775  10.523   8.806  0.2006 -2.1990 -1.1190
  450MOL0     H59358   3.885  10.554   9.086  1.4713  2.0239 -1.0835
  450MOL0     H59359   3.854  10.694   8.997  2.8826 -0.2080 -1.0854
  450MOL0     H59360   3.634  10.639   8.947 -0.6170 -0.6135  0.0573
  450MOL0     H59361   3.650  10.608   9.121  0.8663  1.1123 -0.3532
  450MOL0     H59362   3.547  10.305   9.208  2.5864  2.0959 -2.9071
  450MOL0     H59363   3.333  10.265   9.277 -0.5467 -0.0986 -0.0921
  450MOL0     H59364   3.055  10.042   9.370 -0.1403  1.3316  2.5097
  450MOL0     H59365   2.855   9.878   9.391  2.1542  0.1537  0.0966
  450MOL0     H59366   2.638   9.853   9.500  5.0343 -2.6165 -0.1573
  450MOL0     H59367   2.675   9.758   9.368  0.9537  0.3567  0.1809
  450MOL0     H59368   2.447   9.733   9.303 -0.4845  0.8325 -0.7663
  450MOL0     H59369   2.380   9.858   9.400 -1.6903 -1.7381 -0.4925
  450MOL0     H59370   2.513   9.691   9.581  1.5682  0.8698 -1.4423
  450MOL0     H59371   2.422   9.587   9.471  0.9889 -0.2173  0.0995
  450MOL0     H59372   2.308   9.836   9.626  0.3988 -0.3910  1.9598
  450MOL0     H59373   2.221   9.726   9.516  3.1116  0.1309 -3.6789
  450MOL0     H59374   2.165   9.699   9.749  0.1235 -1.1100  2.5575
  450MOL0     H59375   2.340   9.668   9.792  3.3129  1.2824 -2.8166
  450MOL0     H59376   2.341   9.474   9.674  1.2352  3.9100  0.7307
  450MOL0     H59377   2.193   9.504   9.577  0.3836 -3.6600 -0.3812
  450MOL0     H59378   2.185   9.330   9.769  1.4497  0.8279  0.9270
  450MOL0     H59379   2.211   9.467   9.875 -0.2152 -1.7902  0.7895
  450MOL0     H59380   1.993   9.574   9.793 -1.1337 -0.7902  0.0966
  450MOL0     H59381   1.975   9.424   9.883 -0.7858  0.9257 -0.5809
  450MOL0     H59382   2.613  10.167   9.204 -0.6258 -3.4367 -0.9925
  450MOL0     H59383   2.820  10.324   9.163  0.4196 -1.1854 -2.1313
  450MOL0     H59384   3.191  10.461   8.907 -2.6812 -0.4214  3.7384
  450MOL0     H59385   3.412  10.520   8.858  0.5392 -0.4093  0.0952
  450MOL0     H59386   5.235  10.124   8.229  0.0930  1.2848 -0.1304
  450MOL0     H59387   5.467  10.101   8.285 -0.0104  0.5976 -1.7655
  450MOL0     H59388   5.798  10.239   8.850  1.1074  1.7729  0.9630
  450MOL0     H59389   6.045  10.271   8.852  1.2978  0.2336 -2.0103
  450MOL0     H59390   6.257  10.129   8.724  2.5486 -0.5841  0.5957
  450MOL0     H59391   6.322  10.284   8.775 -1.7114 -1.8622  1.1230
  450MOL0     H59392   6.385  10.131   8.507 -2.4354 -2.1263  3.3157
  450MOL0     H59393   6.445  10.296   8.540  2.5487  0.2189  0.3553
  450MOL0     H59394   6.493  10.034   8.684 -1.0190  0.3431  0.7020
  450MOL0     H59395   6.545  10.178   8.763  0.9991 -2.7533  1.4681
  450MOL0     H59396   6.728  10.070   8.624  1.0553  1.8318 -0.2751
  450MOL0     H59397   6.630  10.097   8.481 -0.6473  0.7226 -0.4041
  450MOL0     H59398   6.771  10.503   8.575  1.8747  0.0464  0.9728
  450MOL0     H59399   6.056  10.273   8.424  0.0825 -2.5099 -0.5832
  450MOL0     H59400   5.809  10.247   8.413 -1.5303  0.5472  0.6710
  451MOL0     O59401   5.890   0.579   4.879 -0.3437  0.4966  0.4596
  451MOL0     C59402   5.967   0.583   4.970 -0.4334  0.5411 -0.3200
  451MOL0     O59403   5.948   0.510   5.086  1.0134  0.4299 -0.1216
  451MOL0     C59404   5.832   0.435   5.111 -0.6430  1.2234 -0.4150
  451MOL0     C59405   5.700   0.485   5.092 -0.1600  0.4375 -0.2724
  451MOL0     C59406   5.599   0.402   5.135  0.1892  0.3089  0.0026
  451MOL0     C59407   5.615   0.283   5.205 -0.0870 -0.0335  0.3661
  451MOL0     O59408   5.511   0.199   5.231  0.3426  0.4929  0.6622
  451MOL0     C59409   5.390   0.232   5.179 -0.3851  0.2140 -0.8201
  451MOL0     C59410   5.279   0.142   5.231 -0.5696  0.1582  0.0933
  451MOL0     C59411   5.152   0.162   5.151  0.3757 -0.1095  0.4154
  451MOL0     C59412   5.056   0.044   5.180  1.3930  0.9616 -1.0352
  451MOL0     C59413   4.912   0.068   5.144 -0.3283  0.2111  1.1535
  451MOL0     C59414   4.846  -0.069   5.112  0.2502 -0.4500  0.0440
  451MOL0     C59415   4.700  -0.040   5.056 -0.5068 -0.5979 -0.2764
  451MOL0     C59416   4.609  -0.164   5.044  0.0158 -0.0698 -0.7698
  451MOL0     N59417   4.471  -0.141   5.018  0.3663 -0.5843  0.4079
  451MOL0     C59418   4.380  -0.108   5.114  0.1278  0.2962 -0.4307
  451MOL0     C59419   4.273  -0.073   5.038 -0.6200 -0.4467 -0.6088
  451MOL0     C59420   4.139  -0.049   5.097 -0.2162 -0.0015  0.3192
  451MOL0     C59421   4.037  -0.145   5.039 -1.6660  0.3566  0.0640
  451MOL0     C59422   3.897  -0.099   5.090  0.0078  0.5939 -0.8184
  451MOL0     C59423   3.795  -0.212   5.123 -0.1256  0.6342  0.2691
  451MOL0     O59424   3.811  -0.319   5.018  0.0688  0.2281 -0.0975
  451MOL0     C59425   3.766  -0.285   4.892  0.3409 -0.4097  0.5475
  451MOL0     C59426   3.819  -0.358   4.780  0.0912  0.2147  0.2525
  451MOL0     C59427   3.796  -0.318   4.649 -0.2912 -0.6752 -0.4200
  451MOL0     C59428   3.701  -0.210   4.625  0.2009  0.1477  0.3598
  451MOL0     C59429   3.656  -0.181   4.484  1.1874  0.0101  0.6254
  451MOL0     O59430   3.730  -0.242   4.386 -0.0775  0.4546 -0.4551
  451MOL0     C59431   3.723  -0.191   4.261  0.9663  1.1021 -0.3262
  451MOL0     C59432   3.829  -0.129   4.205 -0.4467 -0.3782  0.4454
  451MOL0     C59433   3.823  -0.062   4.087  1.4943 -0.5966  1.4579
  451MOL0     C59434   3.696  -0.050   4.016  0.2945 -0.2821 -0.4447
  451MOL0     O59435   3.694   0.034   3.905  0.5697 -0.6498  0.1201
  451MOL0     C59436   3.567   0.077   3.858 -0.3610 -0.2082  0.2477
  451MOL0     C59437   3.574   0.179   3.746 -0.2455  0.8371  0.1480
  451MOL0     C59438   3.442   0.252   3.720 -0.7604 -0.3342  0.0997
  451MOL0     C59439   3.458   0.346   3.601 -0.0329 -0.0462 -0.0824
  451MOL0     C59440   3.386   0.478   3.617  0.7483  0.1196  0.6287
  451MOL0     C59441   3.406   0.576   3.494  0.4974 -0.6000  0.0221
  451MOL0     C59442   3.390   0.532   3.354  0.0209  0.0152 -0.6473
  451MOL0     C59443   3.391   0.644   3.250  0.8722  0.3261 -0.3396
  451MOL0    Cl59444   3.408   0.577   3.084  0.4845  0.2670  0.1907
  451MOL0     C59445   3.581  -0.114   4.072  0.9512 -0.3809  0.2411
  451MOL0     C59446   3.599  -0.187   4.187  0.1842 -0.1690 -0.3684
  451MOL0     O59447   3.561  -0.106   4.465  0.0702  0.3373  0.5494
  451MOL0     C59448   3.641  -0.153   4.740 -0.0281 -0.0151  0.2006
  451MOL0     C59449   3.678  -0.188   4.870 -0.1201 -0.1891  0.2123
  451MOL0     N59450   4.298  -0.068   4.904 -0.4432 -0.2717  0.2975
  451MOL0     N59451   4.422  -0.116   4.890  0.2688 -0.4846 -0.5941
  451MOL0     C59452   5.745   0.237   5.224 -0.8273 -0.4292  0.2145
  451MOL0     C59453   5.855   0.311   5.169  0.4856 -0.2410 -0.4892
  451MOL0     C59454   6.103   0.638   4.956 -1.1717  0.4882 -0.3317
  451MOL0     C59455   6.155   0.684   4.834  0.2971  0.3183  0.0465
  451MOL0     C59456   6.279   0.754   4.826  0.4159  0.0801  0.5804
  451MOL0     C59457   6.353   0.767   4.937  0.8492 -0.0637 -0.0464
  451MOL0     O59458   6.475   0.827   4.944 -0.1174 -0.5839 -0.0650
  451MOL0     C59459   6.526   0.888   4.819  0.4981  0.6223  0.7716
  451MOL0     C59460   6.655   0.952   4.865  0.3844 -0.2428  0.8959
  451MOL0     C59461   6.718   1.034   4.751 -0.5876  0.2503  0.4551
  451MOL0     C59462   6.777   0.971   4.629  0.2423 -0.7079  1.1637
  451MOL0     C59463   6.902   0.899   4.658  0.8218 -0.1670  0.0744
  451MOL0     C59464   7.006   0.841   4.677 -0.2714 -0.0012 -0.2927
  451MOL0     C59465   6.312   0.713   5.054  0.3951 -1.1226 -0.4411
  451MOL0     C59466   6.191   0.650   5.069  0.1792  0.1115  0.3665
  451MOL0     H59467   5.676   0.578   5.040 -2.0032 -1.3117 -2.7914
  451MOL0     H59468   5.500   0.441   5.114 -0.0120  1.1506  2.2673
  451MOL0     H59469   5.392   0.216   5.071  1.8802  0.7583 -0.9027
  451MOL0     H59470   5.360   0.335   5.197  1.8523  0.8004 -0.1489
  451MOL0     H59471   5.264   0.159   5.338  0.5304 -1.6416  0.5925
  451MOL0     H59472   5.325   0.044   5.212 -1.4979 -0.4359  0.8130
  451MOL0     H59473   5.171   0.147   5.044 -0.7256 -2.3655  0.4777
  451MOL0     H59474   5.115   0.260   5.181 -1.3994 -0.9621  1.1274
  451MOL0     H59475   5.095  -0.051   5.142  1.6190  0.1856  1.0381
  451MOL0     H59476   5.054   0.022   5.287  0.3910 -1.7280 -1.5246
  451MOL0     H59477   4.912   0.115   5.045 -0.4381 -0.7284  0.6969
  451MOL0     H59478   4.848   0.119   5.216 -3.4137 -0.0357 -1.2040
  451MOL0     H59479   4.830  -0.128   5.203 -1.2919 -0.0530  0.0592
  451MOL0     H59480   4.909  -0.116   5.035 -0.1452 -0.0767 -0.5112
  451MOL0     H59481   4.645   0.033   5.116  1.1459  1.0057 -0.5976
  451MOL0     H59482   4.702   0.001   4.954  0.2971 -0.7326 -0.3226
  451MOL0     H59483   4.618  -0.220   5.138 -0.6253  0.1758 -0.5595
  451MOL0     H59484   4.645  -0.235   4.969  0.0113 -0.8593 -0.0390
  451MOL0     H59485   4.393  -0.124   5.221 -0.7205  0.6509 -0.2691
  451MOL0     H59486   4.124   0.053   5.060  7.5330  1.8391  0.5786
  451MOL0     H59487   4.136  -0.057   5.206 -0.9764  1.4606  0.4288
  451MOL0     H59488   4.055  -0.246   5.076  1.5572  0.7808 -0.0493
  451MOL0     H59489   4.041  -0.144   4.930  2.7609 -0.2841  0.0225
  451MOL0     H59490   3.903  -0.024   5.169  0.2709 -0.7769  0.5231
  451MOL0     H59491   3.840  -0.049   5.011  0.8928 -0.6279 -2.3219
  451MOL0     H59492   3.693  -0.172   5.121 -2.4677 -4.5044  0.4222
  451MOL0     H59493   3.814  -0.243   5.226 -2.7686 -1.8987  0.1224
  451MOL0     H59494   3.903  -0.424   4.799  1.5284  1.7516 -0.5317
  451MOL0     H59495   3.842  -0.379   4.571  0.5283 -2.2411  1.2053
  451MOL0     H59496   3.923  -0.131   4.259  0.0485 -1.0542 -0.4103
  451MOL0     H59497   3.907  -0.007   4.046  0.3773  1.3496  1.6619
  451MOL0     H59498   3.508   0.109   3.945 -0.2371  1.7335 -0.3253
  451MOL0     H59499   3.505  -0.003   3.816  1.8227 -2.2139  0.6684
  451MOL0     H59500   3.617   0.125   3.661  2.4191  0.4931  1.6071
  451MOL0     H59501   3.644   0.257   3.778  0.6460 -0.1028  0.5531
  451MOL0     H59502   3.432   0.321   3.804  4.2592 -0.0607  0.7435
  451MOL0     H59503   3.363   0.180   3.695 -2.6288  1.3392  0.9032
  451MOL0     H59504   3.564   0.365   3.586 -0.0170  1.0372  1.3093
  451MOL0     H59505   3.414   0.308   3.508 -0.7423 -2.3270  1.1084
  451MOL0     H59506   3.420   0.535   3.704  2.0775  2.0063 -1.0420
  451MOL0     H59507   3.278   0.461   3.621  0.7017  0.3001  0.2515
  451MOL0     H59508   3.509   0.611   3.496  0.1220  0.8089 -2.2305
  451MOL0     H59509   3.340   0.662   3.511  0.0427 -0.3640 -2.5674
  451MOL0     H59510   3.465   0.459   3.323 -1.3929 -0.8162 -2.2903
  451MOL0     H59511   3.289   0.492   3.340 -0.0180 -0.1674  0.1433
  451MOL0     H59512   3.470   0.715   3.275 -1.0613  2.3368  0.5138
  451MOL0     H59513   3.298   0.700   3.268  0.5406 -0.5827  0.8624
  451MOL0     H59514   3.487  -0.117   4.019  1.4877  0.4786 -0.8070
  451MOL0     H59515   3.508  -0.230   4.228  1.1444 -2.4583 -0.5047
  451MOL0     H59516   3.577  -0.066   4.725 -0.6205 -0.4134  0.4313
  451MOL0     H59517   3.626  -0.123   4.940  3.0413  0.3664  2.2510
  451MOL0     H59518   5.751   0.143   5.278  1.2365 -0.0648  0.6787
  451MOL0     H59519   5.955   0.270   5.169 -0.8807 -4.0264 -1.2883
  451MOL0     H59520   6.090   0.691   4.748  2.9484 -0.4439 -2.1579
  451MOL0     H59521   6.304   0.791   4.727  0.7301  0.0400  0.6445
  451MOL0     H59522   6.462   0.967   4.779 -0.2994  1.1559  2.9960
  451MOL0     H59523   6.535   0.814   4.739 -0.6542  0.7832  0.4707
  451MOL0     H59524   6.637   1.019   4.949 -0.0466  2.0514 -0.9004
  451MOL0     H59525   6.728   0.876   4.894  0.5662 -0.2450  0.4503
  451MOL0     H59526   6.808   1.089   4.783  1.6781 -1.7526 -2.0149
  451MOL0     H59527   6.640   1.106   4.728 -2.5330 -0.8538  3.0997
  451MOL0     H59528   6.712   0.906   4.570  2.3244 -0.4497 -1.6705
  451MOL0     H59529   6.811   1.044   4.554 -0.4260  0.1719  1.7103
  451MOL0     H59530   7.104   0.798   4.681 -0.2246 -0.1509 -2.2438
  451MOL0     H59531   6.370   0.718   5.146 -1.3505 -0.9409  0.7018
  451MOL0     H59532   6.165   0.614   5.169 -3.0922  0.8108 -0.1123
  452MOL0     O59533  11.096   8.533   4.580  0.4882 -0.1589  0.1081
  452MOL0     C59534  11.103   8.579   4.464 -0.5696  0.0444  0.3845
  452MOL0     O59535  11.001   8.595   4.372  0.4108 -0.0840  0.0699
  452MOL0     C59536  10.888   8.522   4.390 -0.2243  0.3545 -0.1594
  452MOL0     C59537  10.889   8.385   4.411  0.3101  0.1536  0.4920
  452MOL0     C59538  10.768   8.323   4.438  0.2409 -0.0400  0.8130
  452MOL0     C59539  10.647   8.397   4.442  0.4980  0.0776  0.2854
  452MOL0     O59540  10.524   8.341   4.478  0.5578  0.2368  0.5697
  452MOL0     C59541  10.472   8.236   4.398 -0.7686 -0.3825 -0.1544
  452MOL0     C59542  10.381   8.155   4.495  0.0921 -0.3252 -0.1060
  452MOL0     C59543  10.248   8.222   4.534 -0.1145 -0.2111 -0.2928
  452MOL0     C59544  10.182   8.142   4.644 -0.6394  0.1346 -0.2409
  452MOL0     C59545  10.071   8.226   4.708 -0.2047 -0.1220 -0.9639
  452MOL0     C59546   9.955   8.269   4.625  0.0627  0.1853  0.2624
  452MOL0     C59547   9.852   8.173   4.572 -0.1327  0.2793  0.4666
  452MOL0     C59548   9.761   8.251   4.475  0.4188 -0.1339  0.1923
  452MOL0     N59549   9.665   8.333   4.546 -0.2701 -0.2693 -0.7450
  452MOL0     C59550   9.613   8.449   4.486  0.1908 -0.1099 -0.0655
  452MOL0     C59551   9.531   8.505   4.572  0.0766  0.1701 -0.3058
  452MOL0     C59552   9.448   8.632   4.573 -0.1158 -0.1608  0.2611
  452MOL0     C59553   9.391   8.667   4.427 -0.1674  0.0567 -0.1933
  452MOL0     C59554   9.311   8.551   4.352 -0.5340 -0.3322 -0.7557
  452MOL0     C59555   9.165   8.589   4.309 -1.1648  0.8544  0.5860
  452MOL0     O59556   9.088   8.634   4.424  0.0970  0.7412 -0.0139
  452MOL0     C59557   8.956   8.674   4.411 -1.0393 -1.1605  0.8855
  452MOL0     C59558   8.884   8.705   4.531 -0.5493  0.5445  0.0092
  452MOL0     C59559   8.752   8.755   4.531  0.3618 -0.2833  1.0954
  452MOL0     C59560   8.682   8.751   4.408  0.1625  0.4134 -0.2749
  452MOL0     C59561   8.543   8.795   4.403 -0.0431  0.6071  0.0595
  452MOL0     O59562   8.481   8.819   4.284  0.5733 -0.5110 -0.0879
  452MOL0     C59563   8.345   8.833   4.284  0.4250  0.2070 -0.7488
  452MOL0     C59564   8.287   8.960   4.293 -0.2360 -0.1938 -0.0299
  452MOL0     C59565   8.147   8.977   4.290  0.1556 -0.5841  0.2881
  452MOL0     C59566   8.061   8.870   4.277 -0.1540  0.0158  0.4886
  452MOL0     O59567   7.927   8.876   4.269 -0.3731 -0.3022 -0.3511
  452MOL0     C59568   7.863   8.998   4.242 -0.2659  0.0471 -0.2845
  452MOL0     C59569   7.728   8.972   4.170  0.1752 -0.2714  0.5272
  452MOL0     C59570   7.663   9.110   4.143 -0.2606  0.3508  0.9879
  452MOL0     C59571   7.526   9.082   4.078 -0.4509  0.7342 -0.2445
  452MOL0     C59572   7.450   9.209   4.084  0.5099  0.6064 -0.2777
  452MOL0     C59573   7.301   9.196   4.053  0.3796  0.2300 -0.7266
  452MOL0     C59574   7.220   9.138   4.175  0.2942  0.3590 -1.0035
  452MOL0     C59575   7.076   9.108   4.132  0.1026  0.4217 -0.3980
  452MOL0    Cl59576   7.066   8.953   4.017 -0.0865  0.1140 -0.4231
  452MOL0     C59577   8.119   8.744   4.267 -0.6915 -0.8317 -0.1689
  452MOL0     C59578   8.252   8.722   4.271  0.5626  0.1038 -0.4142
  452MOL0     O59579   8.486   8.790   4.508  0.6066  0.6111 -0.3211
  452MOL0     C59580   8.753   8.720   4.289  0.3548  0.6412  0.2071
  452MOL0     C59581   8.889   8.686   4.292 -0.1569  0.3392  0.7124
  452MOL0     N59582   9.531   8.419   4.680 -0.1110 -0.4400 -0.3790
  452MOL0     N59583   9.612   8.321   4.664  0.2027 -0.2033 -0.4007
  452MOL0     C59584  10.647   8.533   4.413 -0.0454  0.8271 -0.0003
  452MOL0     C59585  10.766   8.591   4.387 -0.0779 -0.5719  0.3517
  452MOL0     C59586  11.239   8.620   4.429 -0.7202 -0.9569 -0.5660
  452MOL0     C59587  11.268   8.697   4.312 -0.3582  1.3296 -0.5182
  452MOL0     C59588  11.394   8.737   4.275 -0.6899 -0.3838 -0.5478
  452MOL0     C59589  11.504   8.686   4.341 -0.3768 -0.1078 -0.4978
  452MOL0     O59590  11.624   8.713   4.296 -0.1259 -0.5579  0.5383
  452MOL0     C59591  11.742   8.715   4.383  0.0329 -0.4263 -0.4106
  452MOL0     C59592  11.852   8.761   4.276  0.4555 -0.6512 -0.6071
  452MOL0     C59593  11.981   8.705   4.327 -0.4568 -0.0925  0.3545
  452MOL0     C59594  12.103   8.790   4.268  0.0751  0.6517  0.4771
  452MOL0     C59595  12.129   8.753   4.130 -0.3592 -0.5140 -0.0782
  452MOL0     C59596  12.147   8.717   4.020  0.4794 -0.8212  0.3612
  452MOL0     C59597  11.482   8.603   4.454  0.0444  0.2429 -0.3675
  452MOL0     C59598  11.353   8.583   4.507 -0.0945 -0.0676  0.7295
  452MOL0     H59599  10.978   8.323   4.406  0.1633 -0.0033 -2.4546
  452MOL0     H59600  10.749   8.218   4.457 -0.7849 -0.4205 -1.8487
  452MOL0     H59601  10.550   8.170   4.357 -1.3427  0.7374 -3.3036
  452MOL0     H59602  10.417   8.275   4.313 -0.5833  2.5752  0.9612
  452MOL0     H59603  10.432   8.142   4.591  0.4453 -0.9542 -0.3731
  452MOL0     H59604  10.358   8.060   4.446 -1.7305 -0.3866  0.8071
  452MOL0     H59605  10.179   8.239   4.451  0.6502  2.0606 -0.5292
  452MOL0     H59606  10.269   8.314   4.589 -0.9288  0.4025 -0.9791
  452MOL0     H59607  10.150   8.050   4.594 -1.2822 -0.0624  0.5129
  452MOL0     H59608  10.258   8.117   4.720  1.5916  0.2529 -2.3097
  452MOL0     H59609  10.125   8.314   4.745 -1.5559 -0.1550  1.2655
  452MOL0     H59610  10.039   8.170   4.796  1.9679 -2.0650 -1.3187
  452MOL0     H59611  10.010   8.316   4.543  0.2255 -0.0064  0.2597
  452MOL0     H59612   9.903   8.345   4.684 -1.3118 -0.7530  0.3065
  452MOL0     H59613   9.891   8.087   4.518  1.0765  0.7641  0.5475
  452MOL0     H59614   9.796   8.135   4.658  1.8931 -0.6161  1.4496
  452MOL0     H59615   9.701   8.184   4.414 -2.5118  1.3352  1.2456
  452MOL0     H59616   9.825   8.316   4.415 -0.3156 -0.5610 -1.0833
  452MOL0     H59617   9.647   8.477   4.387  0.1650 -0.4972 -0.1888
  452MOL0     H59618   9.508   8.719   4.601  1.3526 -1.5260  1.5359
  452MOL0     H59619   9.369   8.611   4.646 -2.1047 -0.2811 -1.8252
  452MOL0     H59620   9.475   8.686   4.360  1.7790 -1.8217  1.5653
  452MOL0     H59621   9.329   8.757   4.437  1.5335  1.3456 -0.6548
  452MOL0     H59622   9.362   8.522   4.260 -0.3260  1.3374 -1.2109
  452MOL0     H59623   9.308   8.461   4.414  1.4120 -1.0365 -1.6088
  452MOL0     H59624   9.124   8.503   4.256  1.5969  1.1738 -2.4550
  452MOL0     H59625   9.170   8.663   4.229 -0.4028 -1.1902 -1.3584
  452MOL0     H59626   8.936   8.704   4.627  1.4464  0.9220 -1.0258
  452MOL0     H59627   8.699   8.772   4.624  0.0559 -0.6389  0.9929
  452MOL0     H59628   8.349   9.049   4.300 -1.3337  0.7877 -2.0411
  452MOL0     H59629   8.112   9.079   4.302 -2.5294 -1.2222 -1.2334
  452MOL0     H59630   7.923   9.065   4.180  0.5401  0.3305  0.7591
  452MOL0     H59631   7.859   9.044   4.341  1.9052  0.7588 -0.4712
  452MOL0     H59632   7.670   8.909   4.239  0.2551  0.1494  0.9842
  452MOL0     H59633   7.745   8.911   4.081  0.2891  0.7891 -0.1943
  452MOL0     H59634   7.725   9.173   4.079  0.6246 -1.3651  0.0988
  452MOL0     H59635   7.652   9.153   4.243  2.8420  0.3950  1.4250
  452MOL0     H59636   7.540   9.048   3.975  1.4271  0.8111 -0.0589
  452MOL0     H59637   7.463   9.003   4.121  1.1079 -0.9172 -0.8292
  452MOL0     H59638   7.492   9.275   4.007 -0.9324 -1.1718 -2.7366
  452MOL0     H59639   7.456   9.254   4.183  0.8071 -1.2738  0.6029
  452MOL0     H59640   7.289   9.138   3.962  2.0452 -0.4913 -0.5209
  452MOL0     H59641   7.259   9.295   4.030  1.1666  0.8297  0.3060
  452MOL0     H59642   7.259   9.044   4.216  0.1123  0.0820 -1.4462
  452MOL0     H59643   7.221   9.200   4.265  3.8259  0.0121 -0.6664
  452MOL0     H59644   7.040   9.195   4.077 -1.3029 -0.3898 -0.8135
  452MOL0     H59645   7.020   9.097   4.225  0.9264 -0.4224  0.0208
  452MOL0     H59646   8.055   8.659   4.247 -0.7121 -0.6150 -1.0707
  452MOL0     H59647   8.295   8.623   4.270 -2.2118 -1.2992  2.3031
  452MOL0     H59648   8.710   8.720   4.190 -0.2517 -1.6561  0.4112
  452MOL0     H59649   8.936   8.672   4.195  1.8294  0.9775  1.5256
  452MOL0     H59650  10.551   8.583   4.400 -1.3157 -1.4295  0.1452
  452MOL0     H59651  10.771   8.694   4.355 -1.3296 -0.7971 -0.6318
  452MOL0     H59652  11.179   8.737   4.265  0.4142  2.2183 -1.2816
  452MOL0     H59653  11.397   8.792   4.182 -0.5384 -2.1643 -1.6462
  452MOL0     H59654  11.762   8.615   4.422  2.5770  0.6504  1.3096
  452MOL0     H59655  11.725   8.795   4.455  0.3789 -2.3950  1.9691
  452MOL0     H59656  11.834   8.746   4.169  2.8491  2.1750 -1.5528
  452MOL0     H59657  11.851   8.869   4.289 -2.2063 -0.7718  0.7384
  452MOL0     H59658  12.001   8.599   4.306  1.8804 -0.0195  1.7873
  452MOL0     H59659  11.982   8.719   4.436 -2.9003  0.9631  0.2961
  452MOL0     H59660  12.072   8.895   4.260  2.8209  1.3830 -2.8355
  452MOL0     H59661  12.199   8.785   4.322  0.0174  1.1581  0.6315
  452MOL0     H59662  12.157   8.679   3.920 -1.8171 -4.9525  1.4482
  452MOL0     H59663  11.562   8.556   4.511 -0.1440 -1.4953 -1.4553
  452MOL0     H59664  11.342   8.523   4.596 -0.5659  0.8326  1.2958
  453MOL0     O59665   0.401   7.881   7.786 -0.5216  0.2223 -0.3507
  453MOL0     C59666   0.396   7.998   7.752  0.8483  0.4561 -0.4330
  453MOL0     O59667   0.340   8.043   7.638 -0.4387 -0.0349 -0.5018
  453MOL0     C59668   0.271   7.954   7.556  0.3222  0.3432  0.1614
  453MOL0     C59669   0.334   7.893   7.438  0.4046 -0.3516  0.0777
  453MOL0     C59670   0.261   7.804   7.363  0.1836  0.8526 -0.5140
  453MOL0     C59671   0.125   7.780   7.390  0.8203  0.6085 -0.0287
  453MOL0     O59672   0.065   7.681   7.315 -0.7392  0.2083  0.2424
  453MOL0     C59673  -0.075   7.688   7.272 -0.5711 -0.0266 -0.1056
  453MOL0     C59674  -0.158   7.590   7.348 -0.3219  0.6707 -0.1158
  453MOL0     C59675  -0.130   7.445   7.302  0.7314  0.1160 -0.2721
  453MOL0     C59676  -0.246   7.349   7.319  0.9412  0.4304  0.2512
  453MOL0     C59677  -0.370   7.383   7.238  0.5619  0.2084  0.5207
  453MOL0     C59678  -0.451   7.236   7.212 -0.9657 -0.4490  0.5094
  453MOL0     C59679  -0.598   7.266   7.177  0.5976  0.1856 -0.0980
  453MOL0     C59680  -0.602   7.342   7.040 -0.4475  1.1560 -0.3636
  453MOL0     N59681  -0.745   7.369   6.994 -0.0420 -0.6770 -0.1179
  453MOL0     C59682  -0.856   7.302   7.041 -0.6874  0.4271  0.7227
  453MOL0     C59683  -0.961   7.359   6.975 -0.0095 -0.2676 -0.3434
  453MOL0     C59684  -1.109   7.322   7.014  0.3128  0.0819  0.6818
  453MOL0     C59685  -1.186   7.443   7.063  0.3377  1.0201 -0.8620
  453MOL0     C59686  -1.303   7.403   7.156  0.4260 -0.0929  0.6036
  453MOL0     C59687  -1.418   7.341   7.074  0.2535  0.1827 -0.4319
  453MOL0     O59688  -1.513   7.281   7.168 -0.3069 -0.0687  0.3579
  453MOL0     C59689  -1.626   7.353   7.210  0.1662 -0.5365 -1.0255
  453MOL0     C59690  -1.634   7.496   7.196 -0.0078 -0.0664  0.6250
  453MOL0     C59691  -1.735   7.575   7.236  0.2658 -0.5544 -0.1890
  453MOL0     C59692  -1.836   7.514   7.310  0.1637  0.2789  0.6213
  453MOL0     C59693  -1.949   7.598   7.352  0.3124 -0.3943  0.5817
  453MOL0     O59694  -1.952   7.726   7.317  0.0781 -0.3311 -0.7454
  453MOL0     C59695  -2.071   7.797   7.324  0.1082  0.5332  0.3207
  453MOL0     C59696  -2.196   7.749   7.308  0.1755  0.1240 -0.0615
  453MOL0     C59697  -2.307   7.840   7.305 -0.0985  0.3665  0.0547
  453MOL0     C59698  -2.297   7.980   7.319 -0.7179 -0.0702 -0.0944
  453MOL0     O59699  -2.399   8.062   7.293  0.9612 -0.2711  0.3371
  453MOL0     C59700  -2.532   8.012   7.328  0.8108 -0.2271 -0.8366
  453MOL0     C59701  -2.628   8.120   7.290 -0.1780 -0.4772 -0.4786
  453MOL0     C59702  -2.775   8.078   7.307 -0.5336  0.5995 -0.5120
  453MOL0     C59703  -2.857   8.198   7.269 -0.0431 -0.0584 -0.0234
  453MOL0     C59704  -3.002   8.178   7.317  1.3816 -0.8485 -0.1870
  453MOL0     C59705  -3.086   8.297   7.251 -0.3780 -0.3452  0.1159
  453MOL0     C59706  -3.238   8.303   7.272  0.3705  0.2132  0.0744
  453MOL0     C59707  -3.322   8.173   7.272  1.0493  0.1297  0.3490
  453MOL0    Cl59708  -3.499   8.211   7.262  0.0524 -0.1612  0.5515
  453MOL0     C59709  -2.178   8.026   7.362  0.2288  0.2937  0.3651
  453MOL0     C59710  -2.066   7.933   7.366  0.1021 -0.8523 -0.1699
  453MOL0     O59711  -2.042   7.531   7.408  0.6301 -0.1511 -0.3598
  453MOL0     C59712  -1.832   7.368   7.331 -1.1166 -0.5223 -0.3411
  453MOL0     C59713  -1.729   7.289   7.276 -0.9569  0.2481 -1.1485
  453MOL0     N59714  -0.915   7.457   6.902 -0.5732 -0.6349  0.0795
  453MOL0     N59715  -0.783   7.471   6.915 -0.0900  0.0176 -0.8248
  453MOL0     C59716   0.064   7.842   7.497  0.5904 -0.3677  0.5211
  453MOL0     C59717   0.136   7.921   7.585 -0.1044 -0.4897  0.4073
  453MOL0     C59718   0.465   8.097   7.839  0.4236  0.0105  0.2609
  453MOL0     C59719   0.583   8.062   7.911 -0.3049 -0.8018 -0.4958
  453MOL0     C59720   0.654   8.163   7.982 -0.0755 -0.6482  0.5541
  453MOL0     C59721   0.620   8.299   7.984  0.5059  0.3401  1.1804
  453MOL0     O59722   0.697   8.372   8.063 -0.4038 -0.4766  0.1606
  453MOL0     C59723   0.697   8.511   8.024  0.3786 -0.6859 -0.1735
  453MOL0     C59724   0.816   8.583   8.098  0.3853  0.7722  0.3540
  453MOL0     C59725   0.948   8.551   8.036 -0.5141  0.1376  0.0012
  453MOL0     C59726   1.055   8.649   8.073 -0.0514 -0.5227 -0.5215
  453MOL0     C59727   1.081   8.661   8.217 -0.3852  0.2944 -0.4712
  453MOL0     C59728   1.093   8.675   8.338  0.8604  0.0665 -0.0815
  453MOL0     C59729   0.501   8.331   7.912  0.0614 -1.2259 -0.3591
  453MOL0     C59730   0.428   8.235   7.839 -0.6854  0.8138  0.5258
  453MOL0     H59731   0.436   7.928   7.430 -0.1428  2.0183  2.2338
  453MOL0     H59732   0.311   7.754   7.281  1.1793 -1.6688  1.5018
  453MOL0     H59733  -0.067   7.666   7.165  2.6516  2.2573 -0.4816
  453MOL0     H59734  -0.118   7.787   7.283 -1.8605 -0.3701 -1.5819
  453MOL0     H59735  -0.261   7.615   7.322 -1.5099 -2.0854  1.5256
  453MOL0     H59736  -0.130   7.600   7.453 -0.4021 -0.3763  0.0178
  453MOL0     H59737  -0.042   7.407   7.353  0.9912 -1.6723 -1.9137
  453MOL0     H59738  -0.100   7.438   7.197  1.6340  0.9569 -0.0806
  453MOL0     H59739  -0.214   7.251   7.281  0.3097  0.1339  0.4505
  453MOL0     H59740  -0.255   7.329   7.427  2.8290  0.1598  0.3942
  453MOL0     H59741  -0.326   7.428   7.148  0.3371  0.6460  0.6279
  453MOL0     H59742  -0.425   7.454   7.300  2.2312  1.2160  0.8995
  453MOL0     H59743  -0.435   7.163   7.292 -0.1941 -1.1450 -0.2697
  453MOL0     H59744  -0.404   7.178   7.133 -0.0392  1.9953 -0.8374
  453MOL0     H59745  -0.631   7.162   7.180  1.7634 -0.2040 -0.2243
  453MOL0     H59746  -0.650   7.331   7.248 -0.0347 -2.5319  2.0715
  453MOL0     H59747  -0.557   7.280   6.962 -2.7197 -2.1864  0.7076
  453MOL0     H59748  -0.554   7.440   7.038 -0.5745  1.2339  0.0640
  453MOL0     H59749  -0.864   7.208   7.095  0.0291 -0.1261 -0.0866
  453MOL0     H59750  -1.099   7.247   7.092 -1.8571 -0.6063  0.3701
  453MOL0     H59751  -1.173   7.264   6.946 -1.2838 -0.7326  2.7868
  453MOL0     H59752  -1.226   7.491   6.973 -0.8013  0.6420 -0.5705
  453MOL0     H59753  -1.112   7.503   7.117  0.7996 -0.4633  0.2070
  453MOL0     H59754  -1.263   7.325   7.221  3.0341  2.3906  2.2729
  453MOL0     H59755  -1.324   7.483   7.227  1.2732 -1.0234  1.9534
  453MOL0     H59756  -1.384   7.266   7.003 -0.6118  3.4793 -4.7491
  453MOL0     H59757  -1.468   7.413   7.008 -0.3179 -0.7406 -1.0299
  453MOL0     H59758  -1.553   7.544   7.142  1.8518 -1.5114  1.9559
  453MOL0     H59759  -1.737   7.683   7.223 -3.5671 -0.6035 -1.1587
  453MOL0     H59760  -2.209   7.643   7.286  1.4070 -0.4967  1.8980
  453MOL0     H59761  -2.401   7.789   7.285 -0.8902  1.4352  0.9287
  453MOL0     H59762  -2.546   7.986   7.434 -1.8910 -1.4359 -1.3956
  453MOL0     H59763  -2.562   7.919   7.279  0.2362 -0.3986 -0.1736
  453MOL0     H59764  -2.618   8.146   7.184 -2.6934 -2.0243 -1.1724
  453MOL0     H59765  -2.610   8.213   7.345 -0.2019 -0.9110  0.2738
  453MOL0     H59766  -2.788   8.044   7.410  0.0998  1.0342 -0.2829
  453MOL0     H59767  -2.796   7.992   7.244  0.2210 -3.1182  3.8122
  453MOL0     H59768  -2.819   8.291   7.312 -1.4108  0.4993  0.0347
  453MOL0     H59769  -2.852   8.203   7.160 -0.2714 -1.5124 -0.1278
  453MOL0     H59770  -3.013   8.191   7.425  0.5945 -0.5067 -0.3016
  453MOL0     H59771  -3.044   8.080   7.296 -0.1080 -0.0555 -1.1013
  453MOL0     H59772  -3.068   8.293   7.144  0.4987 -0.3128  0.2607
  453MOL0     H59773  -3.055   8.396   7.287 -4.8090  0.6004  2.0727
  453MOL0     H59774  -3.252   8.342   7.373  1.7562 -1.3842  0.9471
  453MOL0     H59775  -3.279   8.377   7.203 -0.5355 -0.1170  0.2384
  453MOL0     H59776  -3.292   8.115   7.360  1.2718 -2.5438 -1.3572
  453MOL0     H59777  -3.283   8.117   7.186  0.3915  1.3844 -0.7933
  453MOL0     H59778  -2.160   8.132   7.374 -1.8413  1.1017 -2.6584
  453MOL0     H59779  -1.972   7.985   7.381 -1.1066  1.6153 -0.5629
  453MOL0     H59780  -1.910   7.320   7.388 -3.1849 -0.4228 -2.8743
  453MOL0     H59781  -1.724   7.181   7.282 -2.1282  0.1827 -1.0830
  453MOL0     H59782  -0.043   7.830   7.509  0.3336  2.7722  2.2743
  453MOL0     H59783   0.093   7.972   7.671 -0.2780 -1.5413  0.9676
  453MOL0     H59784   0.615   7.958   7.910 -1.2019 -1.2383  2.6126
  453MOL0     H59785   0.742   8.146   8.042  0.5531  3.8967  1.2752
  453MOL0     H59786   0.603   8.562   8.044  2.1107  3.8779 -2.3137
  453MOL0     H59787   0.688   8.524   7.916  0.8141  0.2394 -0.1110
  453MOL0     H59788   0.804   8.692   8.090  0.0767  0.6396 -1.3268
  453MOL0     H59789   0.804   8.555   8.203  2.0968 -1.7014 -0.0244
  453MOL0     H59790   0.931   8.560   7.928  2.5517 -0.4559 -0.6138
  453MOL0     H59791   0.973   8.448   8.063 -1.8932 -1.0595 -2.8526
  453MOL0     H59792   1.147   8.604   8.036 -0.1830 -0.6605 -0.6855
  453MOL0     H59793   1.030   8.741   8.019  0.6875 -0.7330 -1.2484
  453MOL0     H59794   1.102   8.699   8.442 -1.9775 -1.8959  0.7195
  453MOL0     H59795   0.466   8.434   7.905  2.2084 -0.1763  2.2969
  453MOL0     H59796   0.345   8.263   7.774  1.4901  3.1337 -1.4900
  454MOL0     O59797   2.794   5.353   4.953 -0.0323 -0.1881  0.2652
  454MOL0     C59798   2.755   5.355   5.073 -0.3986  0.9285 -0.2807
  454MOL0     O59799   2.842   5.362   5.175  0.2071 -0.1948 -0.0446
  454MOL0     C59800   2.964   5.301   5.165 -0.2887 -1.3562 -0.6635
  454MOL0     C59801   2.980   5.168   5.194 -0.2483 -0.1048 -0.7439
  454MOL0     C59802   3.108   5.112   5.179 -0.6371 -0.5624 -0.1632
  454MOL0     C59803   3.218   5.189   5.149 -0.9942  0.9002  0.6123
  454MOL0     O59804   3.347   5.133   5.114 -0.3265  0.0906 -0.6719
  454MOL0     C59805   3.367   4.991   5.145  0.3297  0.3667  0.5753
  454MOL0     C59806   3.505   4.953   5.084 -0.7108 -0.5836 -0.2475
  454MOL0     C59807   3.477   4.936   4.932 -0.5488  1.4556 -0.0827
  454MOL0     C59808   3.617   4.915   4.863 -0.1751 -0.7505  0.3147
  454MOL0     C59809   3.612   4.905   4.710 -0.4913  0.5083  0.2244
  454MOL0     C59810   3.541   4.784   4.659  0.3083  0.9423 -0.6399
  454MOL0     C59811   3.511   4.790   4.514  0.8366  0.2570 -0.4217
  454MOL0     C59812   3.627   4.762   4.428 -0.1151 -0.5001  1.1476
  454MOL0     N59813   3.600   4.786   4.285 -0.2041 -0.7923  0.5044
  454MOL0     C59814   3.577   4.900   4.211 -0.7998  0.2017 -0.4253
  454MOL0     C59815   3.554   4.857   4.087 -1.3969  1.8597  0.6034
  454MOL0     C59816   3.524   4.938   3.969 -0.6933  0.0934  0.1590
  454MOL0     C59817   3.370   4.945   3.949  0.0708 -0.0493 -0.2664
  454MOL0     C59818   3.361   5.051   3.832  0.3223 -0.8964 -0.3755
  454MOL0     C59819   3.217   5.095   3.826  0.0551  0.0971  0.6322
  454MOL0     O59820   3.127   4.985   3.803 -0.6356  0.1250  0.4766
  454MOL0     C59821   2.992   4.999   3.783  0.3700 -0.2958 -0.3845
  454MOL0     C59822   2.904   4.889   3.769 -0.0661  0.5144 -0.1598
  454MOL0     C59823   2.768   4.894   3.749 -0.5353  0.6933 -0.3526
  454MOL0     C59824   2.702   5.013   3.760  0.0245  0.6247 -1.3502
  454MOL0     C59825   2.563   5.030   3.747 -0.0320 -0.0887  1.1681
  454MOL0     O59826   2.518   5.157   3.754 -0.2198 -0.6543 -0.2167
  454MOL0     C59827   2.382   5.177   3.751 -1.2220  0.3673 -1.0170
  454MOL0     C59828   2.311   5.217   3.645  0.3244  0.0041  0.1035
  454MOL0     C59829   2.172   5.203   3.639  0.7517 -0.3488  0.0254
  454MOL0     C59830   2.104   5.146   3.746 -0.4916 -0.1949  0.2406
  454MOL0     O59831   1.965   5.140   3.729  0.0460  0.4295  0.1856
  454MOL0     C59832   1.903   5.273   3.761  0.2006  0.2245  0.2616
  454MOL0     C59833   1.755   5.256   3.742  0.2511  0.2908 -0.5738
  454MOL0     C59834   1.675   5.387   3.742  0.9275 -0.0208  0.6443
  454MOL0     C59835   1.679   5.458   3.610 -0.2496 -0.6102 -1.0502
  454MOL0     C59836   1.596   5.579   3.608  0.6138 -0.3080 -0.5242
  454MOL0     C59837   1.451   5.547   3.630 -0.6195  0.0127 -0.1446
  454MOL0     C59838   1.364   5.666   3.603 -0.4777 -0.4853  0.1701
  454MOL0     C59839   1.219   5.637   3.634 -0.4630 -0.2484 -0.8418
  454MOL0    Cl59840   1.195   5.643   3.807 -0.1099 -0.4111 -0.1276
  454MOL0     C59841   2.175   5.105   3.855  0.0051  0.1326  1.2391
  454MOL0     C59842   2.311   5.129   3.858 -0.4804  0.1875  0.4885
  454MOL0     O59843   2.490   4.934   3.729  0.6169 -0.3348  0.7338
  454MOL0     C59844   2.787   5.126   3.788 -0.9803 -0.7608  1.0463
  454MOL0     C59845   2.929   5.126   3.803 -0.1764  0.5291  1.0486
  454MOL0     N59846   3.547   4.722   4.090 -0.4552  0.6756 -0.0100
  454MOL0     N59847   3.579   4.682   4.207 -0.1911  1.4304 -0.3544
  454MOL0     C59848   3.204   5.325   5.108 -0.8511 -0.0766 -0.5442
  454MOL0     C59849   3.072   5.384   5.127  0.2742  0.3179 -0.1781
  454MOL0     C59850   2.611   5.374   5.100 -0.5682  0.1923  0.9469
  454MOL0     C59851   2.525   5.379   4.996 -0.5203  0.6601  0.3165
  454MOL0     C59852   2.393   5.382   5.024  0.2270 -0.3515 -0.3161
  454MOL0     C59853   2.341   5.384   5.158  0.0219 -0.1064 -0.3109
  454MOL0     O59854   2.208   5.377   5.195 -0.5599  1.0744 -0.1283
  454MOL0     C59855   2.111   5.366   5.094 -0.2742  0.3185 -0.9330
  454MOL0     C59856   1.979   5.326   5.165 -0.4579 -0.3345 -1.4611
  454MOL0     C59857   1.845   5.347   5.091 -0.0141  0.6840  0.7204
  454MOL0     C59858   1.818   5.495   5.074  0.9578 -0.5534 -0.1723
  454MOL0     C59859   1.692   5.515   5.001 -0.0455 -0.3040  0.1907
  454MOL0     C59860   1.581   5.522   4.947  0.1951 -0.1426  0.0542
  454MOL0     C59861   2.437   5.372   5.259 -0.3116 -0.4163 -0.7398
  454MOL0     C59862   2.573   5.360   5.235 -0.3942 -0.1126  0.2604
  454MOL0     H59863   2.894   5.103   5.209 -1.6648  1.8979  0.1794
  454MOL0     H59864   3.111   5.004   5.190 -0.9767 -0.4547  1.0892
  454MOL0     H59865   3.289   4.937   5.091 -0.0578  1.5476 -0.0678
  454MOL0     H59866   3.363   4.985   5.254 -0.0744  0.1134  0.5523
  454MOL0     H59867   3.524   4.856   5.130  4.2488  0.9760  1.5777
  454MOL0     H59868   3.576   5.033   5.106 -1.7540  0.9797 -2.1558
  454MOL0     H59869   3.442   5.029   4.887  1.8018  1.2133 -2.6418
  454MOL0     H59870   3.417   4.847   4.912  1.7865  0.2057 -2.0764
  454MOL0     H59871   3.671   5.009   4.877 -1.8291  0.3139 -0.1596
  454MOL0     H59872   3.667   4.828   4.906 -0.1044 -0.9510 -0.1754
  454MOL0     H59873   3.715   4.898   4.674 -0.3574 -2.2618  0.9215
  454MOL0     H59874   3.566   4.999   4.677  1.3999  2.2438  2.1743
  454MOL0     H59875   3.445   4.775   4.710 -0.2458  0.4914 -1.7362
  454MOL0     H59876   3.582   4.687   4.688 -1.7946 -0.3759 -1.8554
  454MOL0     H59877   3.434   4.717   4.487  0.3818  1.0284 -1.2904
  454MOL0     H59878   3.472   4.891   4.501  4.6251  2.7718  4.5467
  454MOL0     H59879   3.659   4.658   4.432  1.4565 -0.0822  0.3989
  454MOL0     H59880   3.711   4.826   4.458 -1.7610  1.5235  1.7008
  454MOL0     H59881   3.584   5.002   4.247  1.9580  0.6072 -1.7819
  454MOL0     H59882   3.564   4.894   3.878 -3.4205  0.4354 -1.3367
  454MOL0     H59883   3.568   5.037   3.983  1.1865 -0.8501  1.2306
  454MOL0     H59884   3.317   4.972   4.041  0.3040 -0.0561 -0.1282
  454MOL0     H59885   3.328   4.852   3.909 -0.4353  0.5183 -1.0804
  454MOL0     H59886   3.420   5.140   3.858 -1.7139 -0.0508  1.6781
  454MOL0     H59887   3.382   5.007   3.734 -1.4273  4.4117 -3.5368
  454MOL0     H59888   3.210   5.170   3.747  3.2903  2.1322  2.0423
  454MOL0     H59889   3.191   5.141   3.921  0.6034  1.1061  0.3114
  454MOL0     H59890   2.947   4.790   3.773 -2.0125 -0.5456 -2.4578
  454MOL0     H59891   2.717   4.800   3.732 -0.0605  0.1050  1.2611
  454MOL0     H59892   2.372   5.249   3.561  0.1397 -2.1344 -0.9069
  454MOL0     H59893   2.115   5.236   3.552  0.4310  2.2655  1.1374
  454MOL0     H59894   1.936   5.342   3.683 -1.9547  0.5722 -0.4235
  454MOL0     H59895   1.925   5.321   3.856 -0.1605  0.2946  0.3123
  454MOL0     H59896   1.711   5.196   3.822  0.6379 -1.3812 -1.5756
  454MOL0     H59897   1.733   5.204   3.648  0.1823 -2.5878  0.9469
  454MOL0     H59898   1.711   5.458   3.818 -1.9861  3.0072 -0.6112
  454MOL0     H59899   1.574   5.367   3.779  1.1083  0.0520  1.1873
  454MOL0     H59900   1.785   5.473   3.586 -0.1281  1.5602  0.5297
  454MOL0     H59901   1.641   5.381   3.542  0.2985 -1.2919 -0.5893
  454MOL0     H59902   1.602   5.622   3.507 -1.2148 -2.3857 -1.5903
  454MOL0     H59903   1.637   5.659   3.670  1.1659  1.3307 -2.8507
  454MOL0     H59904   1.435   5.513   3.733  1.9671  0.2184  0.3985
  454MOL0     H59905   1.416   5.480   3.550  2.4075 -0.8510 -0.8784
  454MOL0     H59906   1.405   5.752   3.656  1.7204 -0.5062 -1.3413
  454MOL0     H59907   1.377   5.685   3.496  2.8644  0.7330  0.6775
  454MOL0     H59908   1.186   5.541   3.594 -1.7047 -0.4821  0.6378
  454MOL0     H59909   1.160   5.720   3.594  0.3427  0.1810 -1.1612
  454MOL0     H59910   2.129   5.049   3.936 -2.4872 -0.5928 -0.5330
  454MOL0     H59911   2.365   5.102   3.949 -0.0355 -1.7496 -0.3006
  454MOL0     H59912   2.744   5.225   3.800  2.2852  1.0919 -0.9987
  454MOL0     H59913   2.971   5.224   3.825  1.2286  0.2365 -0.1887
  454MOL0     H59914   3.281   5.385   5.060 -2.3989  1.9506 -0.6123
  454MOL0     H59915   3.042   5.487   5.112 -3.1106 -0.5039  0.1740
  454MOL0     H59916   2.564   5.373   4.895  0.1801 -0.3222  0.6302
  454MOL0     H59917   2.332   5.391   4.935  0.2788  0.0959 -0.3122
  454MOL0     H59918   2.143   5.284   5.029  2.4911 -0.2287  0.9417
  454MOL0     H59919   2.100   5.466   5.051 -0.8715 -0.7838 -3.5116
  454MOL0     H59920   1.978   5.220   5.193  1.8706 -0.9667 -3.3980
  454MOL0     H59921   1.957   5.386   5.254 -1.7742 -0.2583 -1.8233
  454MOL0     H59922   1.765   5.299   5.148 -0.4743  2.2558  1.4471
  454MOL0     H59923   1.850   5.302   4.991 -0.4183 -0.7259  1.3106
  454MOL0     H59924   1.812   5.547   5.170  0.5219  1.1051 -1.0637
  454MOL0     H59925   1.891   5.556   5.021  0.9095  1.4058  1.8592
  454MOL0     H59926   1.486   5.518   4.896  0.4757  2.6523 -0.8337
  454MOL0     H59927   2.407   5.372   5.364  0.4836  2.2772 -0.4249
  454MOL0     H59928   2.642   5.347   5.318 -0.3983 -2.1103 -0.0048
  455MOL0     O59929   9.637   4.244   7.967  0.0383  0.2682  1.0504
  455MOL0     C59930   9.652   4.133   8.016  0.0252  0.4140 -0.3981
  455MOL0     O59931   9.548   4.040   8.047  0.0186 -0.0329 -0.0280
  455MOL0     C59932   9.416   4.068   8.034 -0.0043  0.0386  0.4257
  455MOL0     C59933   9.352   4.158   7.945  0.7263 -0.2528  0.1200
  455MOL0     C59934   9.212   4.172   7.968  0.4616  0.8885 -0.1419
  455MOL0     C59935   9.142   4.104   8.069 -0.5186  0.5481 -0.0470
  455MOL0     O59936   9.009   4.103   8.077 -0.4585 -0.7878 -0.4016
  455MOL0     C59937   8.941   4.053   8.196  0.8801  0.8308 -0.3076
  455MOL0     C59938   8.801   4.106   8.209  0.1519  0.9081  0.2831
  455MOL0     C59939   8.735   4.095   8.066 -0.0270 -0.9055 -0.3940
  455MOL0     C59940   8.584   4.097   8.075 -0.4551  0.0688 -0.4777
  455MOL0     C59941   8.527   4.135   7.939  0.7934 -0.3277 -0.0963
  455MOL0     C59942   8.374   4.116   7.939  0.7433 -0.2722  0.9794
  455MOL0     C59943   8.330   3.973   7.971  0.4199  0.3745  0.0907
  455MOL0     C59944   8.184   3.959   7.927  0.2823  0.0859 -0.6189
  455MOL0     N59945   8.147   3.818   7.932  0.8197 -0.2579 -0.1284
  455MOL0     C59946   8.112   3.754   8.049 -0.4670 -0.1091 -0.0509
  455MOL0     C59947   8.069   3.634   8.007  0.0570  0.1950 -0.1136
  455MOL0     C59948   8.046   3.516   8.101 -0.8272  0.2699  0.3566
  455MOL0     C59949   7.906   3.457   8.096  0.8892 -0.5377  0.1458
  455MOL0     C59950   7.892   3.406   7.951  0.6290 -0.1421 -0.3842
  455MOL0     C59951   7.770   3.314   7.941 -0.2460 -0.5423  0.6517
  455MOL0     O59952   7.646   3.385   7.956 -0.0493  0.5725 -0.2904
  455MOL0     C59953   7.526   3.327   7.939  0.4296  0.5255 -0.2884
  455MOL0     C59954   7.418   3.415   7.942 -0.5139  0.1637 -0.4727
  455MOL0     C59955   7.287   3.377   7.902 -0.2317  0.4923  0.2393
  455MOL0     C59956   7.271   3.238   7.880  0.0055  0.7782 -0.4971
  455MOL0     C59957   7.133   3.185   7.867 -0.5552  0.0967  1.0247
  455MOL0     O59958   7.031   3.272   7.872 -0.2148 -0.3244  0.1948
  455MOL0     C59959   6.900   3.228   7.862  0.8034  0.2549  0.4056
  455MOL0     C59960   6.831   3.254   7.743 -0.7962 -0.3142  0.2490
  455MOL0     C59961   6.692   3.212   7.732 -0.0514  0.1989 -0.0874
  455MOL0     C59962   6.617   3.165   7.843  0.2616 -0.7195 -1.6929
  455MOL0     O59963   6.480   3.141   7.842 -0.3506 -0.1536 -0.1711
  455MOL0     C59964   6.445   3.004   7.843 -0.5579  1.0339  0.0171
  455MOL0     C59965   6.291   2.989   7.826 -0.2208  0.8999 -0.3468
  455MOL0     C59966   6.208   3.084   7.915 -0.1061 -0.4635  0.0311
  455MOL0     C59967   6.063   3.075   7.892 -0.3289 -0.7338  0.1299
  455MOL0     C59968   5.985   3.139   8.001  1.4160  0.8857 -0.7360
  455MOL0     C59969   5.833   3.108   7.967 -0.1123  0.3433  0.4536
  455MOL0     C59970   5.736   3.146   8.084 -0.6456  0.2320 -0.5700
  455MOL0     C59971   5.585   3.175   8.039  0.3198  0.4208 -0.7410
  455MOL0    Cl59972   5.584   3.336   7.959 -0.0410  0.3474 -0.2902
  455MOL0     C59973   6.688   3.147   7.962  0.1370 -0.0827  0.6447
  455MOL0     C59974   6.832   3.169   7.965  0.1694 -1.2228 -0.1344
  455MOL0     O59975   7.118   3.067   7.845 -0.2300 -0.1152  0.4910
  455MOL0     C59976   7.378   3.144   7.883 -0.2109  0.2256 -0.0857
  455MOL0     C59977   7.508   3.189   7.908  0.1475 -0.1461 -0.9226
  455MOL0     N59978   8.083   3.624   7.877  0.8168 -0.7817 -0.6447
  455MOL0     N59979   8.131   3.736   7.828 -0.3694 -0.3335 -0.6722
  455MOL0     C59980   9.212   4.019   8.151 -0.3973  0.5422  0.6349
  455MOL0     C59981   9.349   3.997   8.128  0.5268 -0.2725  0.4288
  455MOL0     C59982   9.798   4.094   8.024 -0.4327 -0.0903 -0.3705
  455MOL0     C59983   9.895   4.189   7.990 -0.9019  0.4277 -0.4673
  455MOL0     C59984  10.028   4.140   7.977 -0.4938 -0.2343 -0.7759
  455MOL0     C59985  10.073   4.009   8.002  0.1129 -0.3560 -0.7033
  455MOL0     O59986  10.193   3.949   7.978 -0.0740 -0.2041  0.1392
  455MOL0     C59987  10.291   4.020   7.897 -0.3018 -0.0443  0.4340
  455MOL0     C59988  10.430   3.987   7.952  0.2190  0.0986  0.1264
  455MOL0     C59989  10.543   4.045   7.866 -0.6338 -0.3279  0.0224
  455MOL0     C59990  10.676   4.039   7.943  0.2997 -0.4066  0.6825
  455MOL0     C59991  10.773   4.128   7.884 -0.1858  0.2053 -0.1795
  455MOL0     C59992  10.854   4.196   7.824  0.7150 -0.3933 -0.0003
  455MOL0     C59993   9.975   3.922   8.043  0.1288 -0.6760  1.1504
  455MOL0     C59994   9.837   3.960   8.050  0.0888  0.0135 -0.4787
  455MOL0     H59995   9.405   4.202   7.860  0.1130 -2.2931 -1.3891
  455MOL0     H59996   9.164   4.241   7.900  2.5834 -1.2028 -4.2034
  455MOL0     H59997   8.987   4.076   8.293 -0.1614 -1.7663  0.9086
  455MOL0     H59998   8.933   3.944   8.186  0.6190  0.5964  1.9789
  455MOL0     H59999   8.802   4.208   8.250  1.6553  0.2648  1.9802
  455MOL0     H60000   8.739   4.041   8.271 -1.7106  0.5201 -1.8564
  455MOL0     H60001   8.767   4.006   8.009  0.6663 -0.7845 -0.2093
  455MOL0     H60002   8.767   4.183   8.009  0.3547 -1.2054 -0.6601
  455MOL0     H60003   8.556   3.997   8.110 -0.1249  0.8804  2.3792
  455MOL0     H60004   8.536   4.155   8.154 -2.3845  1.4262 -2.5215
  455MOL0     H60005   8.577   4.076   7.861  1.7796  0.8024 -0.3510
  455MOL0     H60006   8.542   4.239   7.908 -3.0578 -0.4809 -3.2075
  455MOL0     H60007   8.332   4.147   7.842  0.8266  0.9932  1.3365
  455MOL0     H60008   8.329   4.186   8.010 -2.9779 -1.8693  0.4436
  455MOL0     H60009   8.389   3.896   7.921 -0.6839 -1.1076  0.9886
  455MOL0     H60010   8.323   3.949   8.078 -0.5995 -0.1161 -0.0731
  455MOL0     H60011   8.162   3.992   7.825 -1.8520 -3.5836 -1.5544
  455MOL0     H60012   8.120   4.013   7.996 -0.0284  1.6624 -2.0905
  455MOL0     H60013   8.118   3.811   8.141  0.6475 -1.6271  0.8672
  455MOL0     H60014   8.059   3.563   8.199 -0.2319 -0.8297  0.8190
  455MOL0     H60015   8.118   3.438   8.075 -0.2893  0.7159  0.4830
  455MOL0     H60016   7.842   3.540   8.126  0.7312 -0.4883 -0.3193
  455MOL0     H60017   7.888   3.383   8.175  0.1022 -1.3663 -0.7788
  455MOL0     H60018   7.877   3.492   7.886 -0.2171 -1.6085 -2.2187
  455MOL0     H60019   7.975   3.352   7.906 -1.0401  0.1833 -4.2056
  455MOL0     H60020   7.782   3.230   8.010 -0.5010 -1.4078 -0.3292
  455MOL0     H60021   7.789   3.271   7.842 -1.4270 -1.0136  0.6154
  455MOL0     H60022   7.435   3.521   7.960 -1.6997  0.3856 -0.6015
  455MOL0     H60023   7.203   3.446   7.907 -0.9994 -0.4887  3.6437
  455MOL0     H60024   6.888   3.298   7.662  2.4847 -2.0976  1.4018
  455MOL0     H60025   6.636   3.212   7.639 -0.8984 -0.0814  0.4173
  455MOL0     H60026   6.480   2.965   7.939  0.9131  1.6971 -0.2241
  455MOL0     H60027   6.495   2.956   7.759 -1.7662  2.7004 -1.7485
  455MOL0     H60028   6.262   2.884   7.834  0.3114  0.8489  1.2210
  455MOL0     H60029   6.280   3.005   7.718  4.8759  1.4577 -1.0398
  455MOL0     H60030   6.239   3.187   7.894  1.1711 -1.1480 -1.7426
  455MOL0     H60031   6.243   3.062   8.016  0.3040 -0.9772 -0.2163
  455MOL0     H60032   6.031   3.112   7.794  0.7437 -1.5485 -0.5468
  455MOL0     H60033   6.050   2.967   7.883  1.4986 -0.9061 -0.8686
  455MOL0     H60034   6.017   3.243   8.005  2.3181  0.6224 -0.9239
  455MOL0     H60035   6.007   3.094   8.098  1.4984  0.2617 -1.0395
  455MOL0     H60036   5.817   3.002   7.946  0.2077 -0.1119  2.2956
  455MOL0     H60037   5.801   3.160   7.876 -1.3737 -0.8062  0.1977
  455MOL0     H60038   5.725   3.061   8.152  0.8621 -0.9771 -1.7772
  455MOL0     H60039   5.774   3.228   8.145 -1.6314  0.8510 -0.7629
  455MOL0     H60040   5.519   3.171   8.127 -1.0850 -0.9791 -1.8070
  455MOL0     H60041   5.552   3.104   7.963  0.1803 -1.8625  1.3174
  455MOL0     H60042   6.619   3.135   8.044  0.9601  0.4179  1.4283
  455MOL0     H60043   6.882   3.155   8.061 -0.1382  2.9553  0.8441
  455MOL0     H60044   7.349   3.040   7.876  0.4649 -0.2429  2.7271
  455MOL0     H60045   7.595   3.125   7.914  1.3779  1.4150 -1.3034
  455MOL0     H60046   9.170   3.951   8.225 -0.2852 -1.9851 -1.4872
  455MOL0     H60047   9.403   3.920   8.182 -1.2092 -0.7950  1.4918
  455MOL0     H60048   9.879   4.294   7.964 -0.2275  1.4825  2.8970
  455MOL0     H60049  10.098   4.219   7.949  0.2973 -0.3367  0.7909
  455MOL0     H60050  10.283   4.129   7.906  1.9641  0.2369 -0.3526
  455MOL0     H60051  10.288   3.989   7.792 -1.5242 -1.0822  0.7470
  455MOL0     H60052  10.433   4.043   8.046  0.2473 -1.6378  1.2047
  455MOL0     H60053  10.444   3.880   7.971 -0.4795 -0.1389 -0.6494
  455MOL0     H60054  10.526   4.149   7.834 -0.0189  0.1598  1.2313
  455MOL0     H60055  10.538   3.982   7.776  0.3571  1.1929 -1.1560
  455MOL0     H60056  10.660   4.070   8.047  1.2642  1.0282  0.4337
  455MOL0     H60057  10.729   3.945   7.930  2.1950  0.6636  0.3779
  455MOL0     H60058  10.931   4.266   7.796 -2.0172  2.8995  0.0880
  455MOL0     H60059  10.024   3.827   8.063  3.5152  1.0806  2.0786
  455MOL0     H60060   9.768   3.878   8.069 -2.9697  2.1449 -1.5607
  456MOL0     O60061   2.269   6.894   0.969  0.3624 -0.1890  0.1528
  456MOL0     C60062   2.302   6.787   1.024  0.5610  0.3019 -0.4474
  456MOL0     O60063   2.250   6.658   1.014  0.6381 -0.1300  0.2326
  456MOL0     C60064   2.134   6.644   0.942  0.0049  0.2459 -1.2585
  456MOL0     C60065   2.127   6.519   0.875  1.1185 -0.3443  0.7151
  456MOL0     C60066   2.005   6.462   0.821 -0.7052  0.1461 -0.3264
  456MOL0     C60067   1.894   6.560   0.813 -0.4591  0.0461  0.6234
  456MOL0     O60068   1.781   6.525   0.740 -0.3775  0.1764 -0.6405
  456MOL0     C60069   1.662   6.593   0.758  0.5291 -0.7280  1.3320
  456MOL0     C60070   1.549   6.504   0.694 -0.4592 -0.4919  0.0142
  456MOL0     C60071   1.490   6.393   0.789  0.2062  0.0574  0.1067
  456MOL0     C60072   1.371   6.318   0.732 -0.3351  0.4490  0.3215
  456MOL0     C60073   1.293   6.235   0.835 -0.9612 -0.1648  0.0312
  456MOL0     C60074   1.173   6.179   0.766  0.0864 -0.6290  0.1648
  456MOL0     C60075   1.082   6.096   0.856 -0.9298  0.7999 -0.5667
  456MOL0     C60076   1.004   5.989   0.782  0.1020  0.3106  0.4481
  456MOL0     N60077   0.909   5.918   0.863  0.4216  0.1072  0.1533
  456MOL0     C60078   0.819   5.968   0.962 -0.5039 -0.3464  0.9266
  456MOL0     C60079   0.748   5.861   1.010  0.0537  0.5834 -0.4239
  456MOL0     C60080   0.627   5.860   1.095  0.8405 -0.6357 -0.9269
  456MOL0     C60081   0.513   5.920   1.021  0.0604 -0.5263  0.0391
  456MOL0     C60082   0.386   5.883   1.094  0.3983  0.0015  1.0475
  456MOL0     C60083   0.265   5.981   1.062  0.1247  1.0489  0.1480
  456MOL0     O60084   0.141   5.929   1.119 -0.6014 -0.2698 -0.2271
  456MOL0     C60085   0.041   6.020   1.117  0.3491  0.4925 -0.4983
  456MOL0     C60086  -0.084   5.966   1.152  0.4983  0.1483 -0.1035
  456MOL0     C60087  -0.200   6.040   1.165  1.0384  0.3921  0.8329
  456MOL0     C60088  -0.194   6.178   1.130 -0.0840 -0.4820  0.3531
  456MOL0     C60089  -0.318   6.265   1.146  0.1852 -0.1882  0.1054
  456MOL0     O60090  -0.434   6.205   1.188  0.0502 -0.7290 -0.1012
  456MOL0     C60091  -0.547   6.279   1.219 -0.2843 -0.2047  0.0215
  456MOL0     C60092  -0.623   6.246   1.331  0.7907  0.4108 -0.0690
  456MOL0     C60093  -0.756   6.302   1.346  0.3170 -0.4317  0.1130
  456MOL0     C60094  -0.808   6.389   1.258  0.0913 -0.1521 -0.4160
  456MOL0     O60095  -0.934   6.436   1.290  0.3451 -0.2113 -0.1501
  456MOL0     C60096  -0.966   6.576   1.265  0.2958 -0.7658  0.6459
  456MOL0     C60097  -1.112   6.589   1.272  1.1815 -0.1864  0.1037
  456MOL0     C60098  -1.170   6.723   1.224 -0.7154  0.7109  1.0538
  456MOL0     C60099  -1.315   6.747   1.282 -0.3297  0.5585 -0.3254
  456MOL0     C60100  -1.351   6.895   1.261  0.7446 -0.5218 -0.7807
  456MOL0     C60101  -1.471   6.941   1.354  0.0228  0.0391 -0.3554
  456MOL0     C60102  -1.603   6.872   1.302  0.2863  0.0617 -0.3028
  456MOL0     C60103  -1.704   6.875   1.411  0.0552 -0.4297  0.2110
  456MOL0    Cl60104  -1.869   6.863   1.344  0.5011  0.3349 -0.2475
  456MOL0     C60105  -0.726   6.436   1.160  0.5092 -0.8298  0.0556
  456MOL0     C60106  -0.600   6.373   1.136  0.1804  0.3745  0.1619
  456MOL0     O60107  -0.307   6.385   1.118 -0.1224  0.8419  0.4552
  456MOL0     C60108  -0.081   6.234   1.079  0.0007  0.8737 -0.5436
  456MOL0     C60109   0.045   6.156   1.076 -0.4926 -0.3869  1.0840
  456MOL0     N60110   0.800   5.754   0.940 -0.0679  0.7651  0.2616
  456MOL0     N60111   0.898   5.783   0.868 -0.5510  0.6802  0.4723
  456MOL0     C60112   1.914   6.691   0.865 -0.6950  0.6417  0.0180
  456MOL0     C60113   2.028   6.726   0.936  0.2420  0.5654  0.4307
  456MOL0     C60114   2.422   6.811   1.120 -0.4421 -0.8921  0.2194
  456MOL0     C60115   2.488   6.933   1.147  0.7225  0.1152  0.1897
  456MOL0     C60116   2.605   6.946   1.227 -0.0271  0.5556  0.1957
  456MOL0     C60117   2.669   6.830   1.272  0.5139  0.8866 -0.5727
  456MOL0     O60118   2.781   6.846   1.350 -0.0289  0.3646  0.0643
  456MOL0     C60119   2.798   6.744   1.446 -0.1874  0.5705  0.2716
  456MOL0     C60120   2.895   6.791   1.550  0.4947  1.8261 -0.0615
  456MOL0     C60121   3.039   6.817   1.495  0.2130 -0.2675 -0.0146
  456MOL0     C60122   3.116   6.905   1.589  0.7813 -0.3436  0.3564
  456MOL0     C60123   3.248   6.906   1.530  0.5062 -0.1173  0.2949
  456MOL0     C60124   3.355   6.904   1.478 -0.8661 -0.1547  0.1072
  456MOL0     C60125   2.609   6.706   1.227 -0.2967  0.4610 -0.6219
  456MOL0     C60126   2.481   6.696   1.176 -0.1778  0.1696  0.1403
  456MOL0     H60127   2.208   6.447   0.874  0.8430 -0.6555  0.1521
  456MOL0     H60128   2.002   6.364   0.775  0.3954 -1.0158  1.9275
  456MOL0     H60129   1.667   6.691   0.710  2.9414 -0.9129  1.1234
  456MOL0     H60130   1.624   6.610   0.859 -2.8119  2.5025 -0.2072
  456MOL0     H60131   1.583   6.466   0.598 -1.7305 -1.2264 -0.1777
  456MOL0     H60132   1.464   6.567   0.665 -0.7972 -0.6888  0.5649
  456MOL0     H60133   1.463   6.444   0.882  2.6507  3.0666 -0.6541
  456MOL0     H60134   1.565   6.317   0.815  2.4530  1.8674 -0.7172
  456MOL0     H60135   1.309   6.397   0.689 -1.2119 -0.4582 -0.1178
  456MOL0     H60136   1.401   6.242   0.660 -0.5556  0.5827  0.0853
  456MOL0     H60137   1.271   6.297   0.923 -1.4509  1.8593 -1.4401
  456MOL0     H60138   1.350   6.152   0.876  0.1486  1.8318  2.8761
  456MOL0     H60139   1.205   6.116   0.683  0.1711 -1.0409  0.5087
  456MOL0     H60140   1.111   6.253   0.714 -1.5981 -2.3292 -0.3760
  456MOL0     H60141   1.153   6.048   0.924  0.7850  0.6744 -2.3694
  456MOL0     H60142   1.020   6.156   0.923 -1.3886 -0.1433 -0.1255
  456MOL0     H60143   1.068   5.912   0.736 -0.9673 -1.3100  1.5758
  456MOL0     H60144   0.947   6.038   0.702  0.5818 -0.3504 -0.3217
  456MOL0     H60145   0.801   6.070   0.992 -1.0770  0.4826 -1.9534
  456MOL0     H60146   0.659   5.926   1.177 -1.0674 -2.5554  1.5113
  456MOL0     H60147   0.607   5.757   1.125 -4.6514  0.2121 -0.7723
  456MOL0     H60148   0.498   5.892   0.916  2.2120  2.3925 -1.1451
  456MOL0     H60149   0.520   6.028   1.011 -0.0337 -0.3850  1.3344
  456MOL0     H60150   0.373   5.776   1.077  1.1670 -0.2683  2.0154
  456MOL0     H60151   0.391   5.891   1.203 -0.9853 -0.7050  1.1868
  456MOL0     H60152   0.266   5.999   0.954  1.5472  1.3076  0.1848
  456MOL0     H60153   0.281   6.073   1.120 -0.9447 -0.6297  3.3416
  456MOL0     H60154  -0.071   5.860   1.173 -0.8144  0.0569  0.3493
  456MOL0     H60155  -0.299   6.004   1.194  0.3478  2.6263  1.4329
  456MOL0     H60156  -0.592   6.164   1.395  0.3502 -0.6933 -1.2527
  456MOL0     H60157  -0.823   6.278   1.427 -2.6127  0.4658 -1.8921
  456MOL0     H60158  -0.938   6.613   1.166 -0.2033 -1.4420  0.2424
  456MOL0     H60159  -0.921   6.643   1.339 -0.0758 -0.5274  0.6597
  456MOL0     H60160  -1.127   6.569   1.378  3.7007 -3.1857  0.0402
  456MOL0     H60161  -1.165   6.512   1.215 -1.9717  3.4204 -2.3413
  456MOL0     H60162  -1.168   6.733   1.115  3.1762 -0.9298  0.8182
  456MOL0     H60163  -1.110   6.797   1.278 -1.2378  0.6303  1.7687
  456MOL0     H60164  -1.383   6.673   1.240  0.4084 -0.2317 -0.1680
  456MOL0     H60165  -1.306   6.726   1.389  0.8792  0.3748 -0.4474
  456MOL0     H60166  -1.377   6.920   1.158 -0.0960 -0.9196 -0.6771
  456MOL0     H60167  -1.260   6.954   1.275  0.0349  0.3291  0.4916
  456MOL0     H60168  -1.481   7.050   1.352 -0.8989 -0.0351 -2.2547
  456MOL0     H60169  -1.453   6.907   1.456 -2.2323 -2.0361 -0.5478
  456MOL0     H60170  -1.645   6.932   1.221 -2.2795 -0.7100  0.3524
  456MOL0     H60171  -1.585   6.772   1.262  3.6417 -0.2467  1.5929
  456MOL0     H60172  -1.700   6.964   1.475 -0.0660 -0.2015 -0.0963
  456MOL0     H60173  -1.686   6.792   1.481 -1.0858 -1.2290 -0.4185
  456MOL0     H60174  -0.764   6.509   1.090 -1.9018 -1.7419  0.3299
  456MOL0     H60175  -0.553   6.395   1.041 -2.4757 -0.3902 -1.4208
  456MOL0     H60176  -0.085   6.335   1.041  2.5752  1.4613  0.4936
  456MOL0     H60177   0.133   6.198   1.030 -0.1855 -1.4275  0.6782
  456MOL0     H60178   1.830   6.758   0.851 -1.6494 -0.4149  0.5246
  456MOL0     H60179   2.037   6.817   0.995  0.2183  0.9380 -0.1268
  456MOL0     H60180   2.449   7.022   1.097  1.3828 -1.6627 -3.9359
  456MOL0     H60181   2.653   7.042   1.245 -0.9137  1.0676 -0.0987
  456MOL0     H60182   2.840   6.657   1.395 -0.1017  0.2673  0.8439
  456MOL0     H60183   2.703   6.713   1.491  0.4068 -1.6415  0.0945
  456MOL0     H60184   2.854   6.878   1.603 -3.0639 -0.5956  1.5877
  456MOL0     H60185   2.894   6.709   1.623 -3.3192  3.0896  1.5630
  456MOL0     H60186   3.042   6.852   1.391 -1.2090 -1.5866 -0.5281
  456MOL0     H60187   3.090   6.720   1.493 -1.3461 -1.1066 -0.0067
  456MOL0     H60188   3.072   7.005   1.586 -0.1287 -0.7050  1.2014
  456MOL0     H60189   3.102   6.861   1.688 -2.4742  1.2060  0.7045
  456MOL0     H60190   3.446   6.897   1.421 -2.6638 -0.1533 -2.9944
  456MOL0     H60191   2.658   6.616   1.263  0.4091  2.2333  3.4141
  456MOL0     H60192   2.441   6.595   1.169 -3.6103  1.4835 -1.7109
  457MOL0     O60193  10.176   4.664   9.555  1.1324  0.0987 -0.4548
  457MOL0     C60194  10.199   4.542   9.557  0.4200 -0.8118 -0.5620
  457MOL0     O60195  10.108   4.449   9.515  0.5258  0.3576  0.9028
  457MOL0     C60196   9.987   4.490   9.475 -0.4769  0.4163 -0.6796
  457MOL0     C60197   9.905   4.535   9.568 -0.0316 -0.0600  0.7275
  457MOL0     C60198   9.776   4.571   9.537  0.3159 -0.1120  0.4620
  457MOL0     C60199   9.728   4.544   9.409 -0.6398  0.1546 -0.4084
  457MOL0     O60200   9.608   4.571   9.364  0.2790 -0.3698 -0.3499
  457MOL0     C60201   9.517   4.643   9.460 -0.6783 -0.4090  0.0189
  457MOL0     C60202   9.381   4.663   9.409 -0.4231 -0.0409 -0.0826
  457MOL0     C60203   9.295   4.733   9.519 -0.1005  0.5615  0.1804
  457MOL0     C60204   9.287   4.887   9.495 -0.5089 -0.1411  0.2380
  457MOL0     C60205   9.204   4.959   9.597  1.0179 -0.5648 -0.4559
  457MOL0     C60206   9.169   5.114   9.560  0.7832 -0.1050  0.6043
  457MOL0     C60207   9.297   5.188   9.544  0.0493 -0.6931  0.2303
  457MOL0     C60208   9.378   5.199   9.674  0.0199  0.0336 -0.0648
  457MOL0     N60209   9.492   5.105   9.670  0.8611 -0.0706  0.4813
  457MOL0     C60210   9.612   5.137   9.605 -0.0833  0.1743  0.9253
  457MOL0     C60211   9.696   5.032   9.640  0.1104 -0.0307  0.4098
  457MOL0     C60212   9.842   5.023   9.592  0.1846  0.1927 -0.7881
  457MOL0     C60213   9.848   4.900   9.495  0.0878 -0.2124  0.4584
  457MOL0     C60214   9.972   4.913   9.414  0.0014  0.4176 -0.5719
  457MOL0     C60215   9.980   4.825   9.287  0.3850  0.3868  0.3563
  457MOL0     O60216   9.940   4.890   9.162 -0.2850  0.4243 -0.3318
  457MOL0     C60217   9.809   4.924   9.164 -0.2011  0.3652 -0.1410
  457MOL0     C60218   9.720   4.820   9.155 -0.0652 -0.1105  0.8350
  457MOL0     C60219   9.584   4.852   9.145 -0.0658 -0.8810  0.0008
  457MOL0     C60220   9.544   4.987   9.148 -0.1392  0.0024 -1.0046
  457MOL0     C60221   9.400   5.018   9.132  1.0656  0.1493  0.3644
  457MOL0     O60222   9.320   4.921   9.079 -0.0318 -0.0800 -0.3740
  457MOL0     C60223   9.179   4.938   9.086 -0.1157  0.7910 -0.3276
  457MOL0     C60224   9.087   4.849   9.148  0.5046  0.1375  0.2989
  457MOL0     C60225   8.946   4.873   9.150 -0.3148 -0.3163 -0.8311
  457MOL0     C60226   8.894   4.991   9.082 -0.1907  0.1168 -0.4133
  457MOL0     O60227   8.761   5.016   9.064  0.3841 -0.1890 -0.6413
  457MOL0     C60228   8.677   4.982   9.175  0.0026  0.1505 -0.0831
  457MOL0     C60229   8.556   5.069   9.187  0.3510  0.3829 -0.2816
  457MOL0     C60230   8.452   5.011   9.084 -1.1894  0.9635 -0.2133
  457MOL0     C60231   8.318   5.072   9.102 -0.3830  0.1986  0.4568
  457MOL0     C60232   8.225   5.017   8.994 -0.8315  0.0651 -0.4456
  457MOL0     C60233   8.093   5.092   8.978  0.0113 -0.2323 -0.1927
  457MOL0     C60234   8.020   5.050   8.847 -0.0282 -0.2847 -0.7335
  457MOL0     C60235   7.892   5.140   8.832 -0.0554  0.2919  0.0152
  457MOL0    Cl60236   7.803   5.128   8.676 -0.2106  0.0764 -0.1602
  457MOL0     C60237   8.986   5.067   9.013  0.0819 -0.3852  0.4586
  457MOL0     C60238   9.126   5.045   9.018 -0.5525 -0.1915  0.7178
  457MOL0     O60239   9.359   5.130   9.165  0.0452  0.4324  0.0346
  457MOL0     C60240   9.635   5.088   9.159  0.4856 -0.4421 -0.3561
  457MOL0     C60241   9.770   5.054   9.175  0.5214 -0.0328 -0.6252
  457MOL0     N60242   9.633   4.949   9.728 -0.3156  0.0585 -0.1004
  457MOL0     N60243   9.516   4.999   9.746  0.6743  0.9947  1.0995
  457MOL0     C60244   9.807   4.472   9.318  0.0738 -0.5949  0.0473
  457MOL0     C60245   9.942   4.454   9.349  0.1792  0.4453  0.0821
  457MOL0     C60246  10.345   4.497   9.581  0.4733 -0.7031 -1.0371
  457MOL0     C60247  10.443   4.584   9.637 -0.4374 -0.2595  0.1704
  457MOL0     C60248  10.575   4.542   9.657 -0.2852  0.3472  0.2887
  457MOL0     C60249  10.606   4.405   9.622 -0.2592 -0.2410  0.2636
  457MOL0     O60250  10.732   4.353   9.614 -1.3214 -0.4170  0.1950
  457MOL0     C60251  10.843   4.450   9.628 -0.0242 -0.8332  0.4733
  457MOL0     C60252  10.989   4.403   9.608  0.2717  0.1871  0.2346
  457MOL0     C60253  11.027   4.434   9.461  0.0434  0.2059  1.2076
  457MOL0     C60254  11.167   4.379   9.410  0.1962 -1.2486  0.2310
  457MOL0     C60255  11.189   4.240   9.440 -0.3559  0.1714 -0.2868
  457MOL0     C60256  11.232   4.130   9.462  0.1231 -0.5093  0.3596
  457MOL0     C60257  10.505   4.320   9.571 -0.0981 -0.1006  0.0975
  457MOL0     C60258  10.377   4.365   9.552 -0.7183 -0.4599  0.9296
  457MOL0     H60259   9.939   4.566   9.666 -0.5754 -0.2658  0.9848
  457MOL0     H60260   9.707   4.620   9.605 -3.1254 -0.5071 -2.4470
  457MOL0     H60261   9.555   4.744   9.475 -0.1187 -0.7813  1.2958
  457MOL0     H60262   9.506   4.594   9.557 -3.7849  1.4362  0.7178
  457MOL0     H60263   9.336   4.565   9.390  0.0229 -0.1341 -0.6563
  457MOL0     H60264   9.385   4.718   9.315 -1.3846  1.5239  0.7538
  457MOL0     H60265   9.342   4.718   9.617  0.2460 -1.4802 -0.2663
  457MOL0     H60266   9.192   4.696   9.525 -0.2788  1.2253  2.9191
  457MOL0     H60267   9.389   4.928   9.494 -0.5110 -0.1340  0.3157
  457MOL0     H60268   9.245   4.912   9.397 -3.9208  0.0537  1.6102
  457MOL0     H60269   9.266   4.959   9.687  0.5904  4.2995  0.0918
  457MOL0     H60270   9.115   4.898   9.617  0.3099  0.6238  0.1170
  457MOL0     H60271   9.106   5.147   9.643  1.2791  4.6197 -0.6236
  457MOL0     H60272   9.110   5.131   9.469  0.3338  0.5475  1.0083
  457MOL0     H60273   9.354   5.149   9.459  2.6904  1.9233  0.6509
  457MOL0     H60274   9.267   5.291   9.527  2.2710 -0.1836 -0.9878
  457MOL0     H60275   9.326   5.192   9.769 -1.1913  0.3161 -0.6907
  457MOL0     H60276   9.430   5.295   9.676  2.5193 -1.1627 -1.7095
  457MOL0     H60277   9.640   5.212   9.532  2.5688 -0.3201  1.3136
  457MOL0     H60278   9.900   4.999   9.681  0.4074  1.5025 -0.5512
  457MOL0     H60279   9.873   5.115   9.542  3.0905 -0.3852 -0.2340
  457MOL0     H60280   9.756   4.895   9.437  0.6015  1.2412 -0.5494
  457MOL0     H60281   9.855   4.813   9.561 -0.0582 -0.2965  0.3623
  457MOL0     H60282   9.981   5.015   9.375 -3.5453  1.1016  0.0723
  457MOL0     H60283  10.059   4.889   9.475  2.0497  0.4139 -3.2926
  457MOL0     H60284   9.927   4.731   9.305 -0.9108  0.8580 -0.7662
  457MOL0     H60285  10.084   4.792   9.288  0.1713 -0.2689  1.6389
  457MOL0     H60286   9.757   4.718   9.145  0.8368  0.4076 -1.9010
  457MOL0     H60287   9.517   4.768   9.129 -0.0301 -0.8645 -0.2313
  457MOL0     H60288   9.125   4.759   9.195 -1.0696 -0.8310 -0.2147
  457MOL0     H60289   8.880   4.809   9.207 -2.3212  2.1527 -0.1609
  457MOL0     H60290   8.726   5.000   9.271 -3.7552 -0.5727  2.1762
  457MOL0     H60291   8.648   4.877   9.172  1.1623 -0.2247  1.0604
  457MOL0     H60292   8.583   5.171   9.158 -0.0373  0.7256  0.5100
  457MOL0     H60293   8.505   5.071   9.284 -2.7022  0.0634 -1.7743
  457MOL0     H60294   8.442   4.907   9.118  1.2408  0.6231 -0.3916
  457MOL0     H60295   8.490   5.009   8.982 -0.0504  0.0804  0.2108
  457MOL0     H60296   8.285   5.055   9.204  0.7044  1.3178  1.0221
  457MOL0     H60297   8.336   5.180   9.091 -0.1589  0.0756 -0.4669
  457MOL0     H60298   8.202   4.912   9.016  2.7263 -0.7700 -0.0716
  457MOL0     H60299   8.277   5.014   8.897  0.2965 -3.9940  0.0725
  457MOL0     H60300   8.110   5.200   8.979 -0.4925 -0.0935  2.6692
  457MOL0     H60301   8.034   5.067   9.067  0.2156  4.7637  1.6223
  457MOL0     H60302   8.082   5.070   8.759 -0.0306  0.8908 -0.4859
  457MOL0     H60303   7.982   4.948   8.857  1.1449 -0.4663  4.6076
  457MOL0     H60304   7.937   5.239   8.827 -0.1461  0.3244 -0.2020
  457MOL0     H60305   7.831   5.141   8.922  1.9625 -0.8440  1.4737
  457MOL0     H60306   8.953   5.156   8.959 -4.1346 -0.8235  1.9288
  457MOL0     H60307   9.194   5.118   8.974  2.1608 -0.1651  4.4278
  457MOL0     H60308   9.624   5.195   9.167  5.4089  0.4931 -2.7315
  457MOL0     H60309   9.850   5.127   9.168  0.0471  0.5308 -0.1936
  457MOL0     H60310   9.786   4.440   9.216  1.2027  1.1773 -0.7914
  457MOL0     H60311  10.013   4.399   9.288 -0.0972 -0.5399  0.6194
  457MOL0     H60312  10.410   4.683   9.667  1.1206  0.4415 -0.3317
  457MOL0     H60313  10.641   4.616   9.702 -0.0317  0.0183  0.4627
  457MOL0     H60314  10.850   4.509   9.720 -0.5186  0.9260 -0.5727
  457MOL0     H60315  10.823   4.523   9.549 -2.9446 -0.0157  1.8174
  457MOL0     H60316  11.045   4.461   9.681 -1.7053  2.1176  0.3230
  457MOL0     H60317  11.002   4.299   9.641  4.3568  0.7993  1.1300
  457MOL0     H60318  11.016   4.538   9.431  0.8579 -0.3780 -1.4187
  457MOL0     H60319  10.961   4.374   9.396  0.7917  0.3666  0.2843
  457MOL0     H60320  11.168   4.395   9.302  0.9794 -2.9590 -0.0507
  457MOL0     H60321  11.245   4.448   9.445 -0.9645  1.1040 -1.5902
  457MOL0     H60322  11.276   4.036   9.488  2.0522  0.0590 -0.6247
  457MOL0     H60323  10.550   4.229   9.533  1.5543  0.5900  0.2903
  457MOL0     H60324  10.308   4.291   9.510 -1.4895  0.5394  0.3861
  458MOL0     O60325   1.845   3.757   1.372  0.2147  0.5431 -0.6400
  458MOL0     C60326   1.791   3.852   1.428  0.3529 -0.2263 -0.8571
  458MOL0     O60327   1.821   3.989   1.416  0.2892 -0.5171  0.0416
  458MOL0     C60328   1.934   4.032   1.355  0.6406 -0.0355  0.1149
  458MOL0     C60329   1.929   4.113   1.245  0.0754 -0.2203  0.2377
  458MOL0     C60330   2.042   4.142   1.166 -1.3018 -0.2009 -0.2949
  458MOL0     C60331   2.163   4.089   1.213 -0.3596  0.8497 -0.4693
  458MOL0     O60332   2.292   4.100   1.162  0.0491  0.5417 -0.2210
  458MOL0     C60333   2.301   4.201   1.061 -0.0406  0.7654  0.6814
  458MOL0     C60334   2.444   4.251   1.052 -0.3007 -0.5158  0.1222
  458MOL0     C60335   2.542   4.137   1.016 -0.3155 -0.5382  1.1078
  458MOL0     C60336   2.686   4.175   0.959 -0.3264  0.6156 -0.9390
  458MOL0     C60337   2.771   4.261   1.062  0.6462  0.7613  0.4142
  458MOL0     C60338   2.816   4.173   1.182  0.4944 -0.8217  0.3799
  458MOL0     C60339   2.917   4.240   1.271 -0.7166 -1.0506 -0.3286
  458MOL0     C60340   2.882   4.381   1.309  0.0171 -0.3743 -0.3548
  458MOL0     N60341   2.749   4.380   1.375  0.2778 -0.6883  0.8451
  458MOL0     C60342   2.708   4.291   1.470  0.3907 -0.1306  0.3746
  458MOL0     C60343   2.584   4.329   1.490  1.0745 -0.0997  0.3076
  458MOL0     C60344   2.484   4.262   1.579  1.3119  0.8128  0.3155
  458MOL0     C60345   2.340   4.291   1.531 -0.5653  0.0964  0.1709
  458MOL0     C60346   2.229   4.208   1.596 -0.7568 -0.8150  0.4763
  458MOL0     C60347   2.200   4.234   1.743 -0.2940 -0.4512  0.1442
  458MOL0     O60348   2.078   4.313   1.743 -0.4260 -0.4564 -0.0812
  458MOL0     C60349   1.970   4.253   1.789 -0.1755  0.0755  0.0097
  458MOL0     C60350   1.896   4.333   1.874  0.1594 -0.5482 -0.0439
  458MOL0     C60351   1.793   4.284   1.950 -0.1678  0.1948  0.7360
  458MOL0     C60352   1.741   4.155   1.921  0.4290  0.0665 -0.7056
  458MOL0     C60353   1.621   4.100   1.998 -0.0085 -0.4969  0.0654
  458MOL0     O60354   1.543   4.201   2.049 -0.3502  0.1317  0.2304
  458MOL0     C60355   1.446   4.167   2.135  0.5185  0.0065  0.0166
  458MOL0     C60356   1.323   4.151   2.092 -0.2186 -0.0441  0.3449
  458MOL0     C60357   1.211   4.153   2.181  0.4308  0.4319 -0.6495
  458MOL0     C60358   1.228   4.168   2.319  0.0523 -0.1316  0.3198
  458MOL0     O60359   1.133   4.175   2.413  0.1573  0.1719  0.2265
  458MOL0     C60360   1.093   4.304   2.460  0.2969 -0.2297 -0.0927
  458MOL0     C60361   0.951   4.310   2.507  0.1367 -0.9011  0.3561
  458MOL0     C60362   0.851   4.282   2.395 -0.7507 -1.2380 -0.3424
  458MOL0     C60363   0.713   4.298   2.440  0.8087  0.2125 -0.0940
  458MOL0     C60364   0.624   4.222   2.341  0.0494 -0.1078 -0.4426
  458MOL0     C60365   0.474   4.226   2.398  0.1848  0.1529  0.3083
  458MOL0     C60366   0.375   4.139   2.311  0.6156  0.5558 -0.8772
  458MOL0     C60367   0.234   4.156   2.366  0.6035 -0.0697 -0.4958
  458MOL0    Cl60368   0.160   4.323   2.336 -0.2212 -0.1862  0.5174
  458MOL0     C60369   1.364   4.174   2.362  0.3822  0.3547 -0.5959
  458MOL0     C60370   1.466   4.173   2.266  0.1905 -1.4089  0.0695
  458MOL0     O60371   1.603   3.979   2.010  0.2421  0.4678  0.0954
  458MOL0     C60372   1.820   4.076   1.828  0.3616 -0.3233 -1.1936
  458MOL0     C60373   1.927   4.125   1.759 -0.0201 -0.1026 -0.1729
  458MOL0     N60374   2.554   4.443   1.411 -0.7011  0.6878 -0.4524
  458MOL0     N60375   2.652   4.458   1.337  0.7199 -0.4326 -0.6602
  458MOL0     C60376   2.169   4.007   1.333  0.1475 -0.1488  0.8145
  458MOL0     C60377   2.053   3.974   1.390 -0.1084  0.3602 -0.7913
  458MOL0     C60378   1.671   3.823   1.505  0.5044 -0.2607  0.4452
  458MOL0     C60379   1.615   3.692   1.507  0.1186  0.7335 -0.0009
  458MOL0     C60380   1.497   3.672   1.584  0.3874 -0.7317 -0.8657
  458MOL0     C60381   1.429   3.779   1.638 -0.0910  0.7867  0.0509
  458MOL0     O60382   1.308   3.749   1.698  0.0373  0.1555 -0.5671
  458MOL0     C60383   1.271   3.835   1.806 -0.3870 -0.5418  0.3286
  458MOL0     C60384   1.154   3.783   1.890 -0.1294  0.4543  0.2699
  458MOL0     C60385   1.127   3.875   2.008 -0.7319 -0.7437 -0.8282
  458MOL0     C60386   0.994   3.851   2.093  0.2093 -0.3787  1.1884
  458MOL0     C60387   1.006   3.730   2.175 -0.5392 -0.3839 -0.2795
  458MOL0     C60388   0.994   3.627   2.241  0.3418  1.1219  0.8243
  458MOL0     C60389   1.496   3.901   1.643 -0.1204 -0.2571 -0.8665
  458MOL0     C60390   1.607   3.920   1.580  0.5603  0.4472 -0.7124
  458MOL0     H60391   1.837   4.164   1.217  1.8427  3.0910 -0.1337
  458MOL0     H60392   2.029   4.202   1.077 -1.4221  1.0589  0.5424
  458MOL0     H60393   2.238   4.287   1.086  1.9211  1.5736  3.3080
  458MOL0     H60394   2.282   4.152   0.965  0.8954  0.2467  0.7453
  458MOL0     H60395   2.487   4.285   1.147 -0.5313  0.4584 -0.1090
  458MOL0     H60396   2.449   4.327   0.974  1.0105 -1.9379 -1.2365
  458MOL0     H60397   2.499   4.075   0.936 -0.0469  0.4559  0.1558
  458MOL0     H60398   2.549   4.066   1.098 -0.0569 -1.3855  0.3661
  458MOL0     H60399   2.730   4.078   0.934 -2.1089 -0.9359  1.4270
  458MOL0     H60400   2.676   4.227   0.864 -0.8760  1.9338 -0.1868
  458MOL0     H60401   2.709   4.345   1.092 -0.7328 -0.2548  0.4801
  458MOL0     H60402   2.853   4.305   1.003 -0.9259  1.5041 -1.3130
  458MOL0     H60403   2.866   4.084   1.143  1.1355  0.7888 -2.7953
  458MOL0     H60404   2.722   4.142   1.227 -0.1234  0.5370  0.0678
  458MOL0     H60405   2.936   4.193   1.368 -1.1797  1.7606  1.2359
  458MOL0     H60406   3.006   4.256   1.209 -2.6408  1.5796 -2.6502
  458MOL0     H60407   2.864   4.443   1.221  0.8655 -0.0248 -0.2886
  458MOL0     H60408   2.963   4.429   1.364  1.4233 -1.4038 -1.4380
  458MOL0     H60409   2.760   4.212   1.524 -2.0398 -1.6298  0.6443
  458MOL0     H60410   2.494   4.278   1.687 -1.1980 -4.6764  1.7185
  458MOL0     H60411   2.505   4.155   1.582 -0.1942  0.4536 -0.5241
  458MOL0     H60412   2.336   4.276   1.422 -3.3341 -1.4430  0.4127
  458MOL0     H60413   2.319   4.397   1.547  1.0454  0.2071  1.8898
  458MOL0     H60414   2.139   4.236   1.540  0.3149  0.5519 -0.6449
  458MOL0     H60415   2.242   4.102   1.571  1.1207  0.3922 -5.0863
  458MOL0     H60416   2.285   4.275   1.799 -2.4948  1.9061  2.0022
  458MOL0     H60417   2.175   4.142   1.796 -1.4412 -1.7314 -2.4564
  458MOL0     H60418   1.931   4.435   1.880  2.1843 -1.0864 -1.6156
  458MOL0     H60419   1.738   4.351   2.016 -0.3628  0.5167  0.2543
  458MOL0     H60420   1.317   4.143   1.984  2.4663  1.9055 -0.0402
  458MOL0     H60421   1.112   4.141   2.139  1.5205 -3.5289 -2.4932
  458MOL0     H60422   1.103   4.381   2.383  1.7948 -2.3380 -2.1589
  458MOL0     H60423   1.157   4.328   2.546 -0.0212 -2.1011  0.7131
  458MOL0     H60424   0.939   4.410   2.549  4.0791  0.1420 -0.5208
  458MOL0     H60425   0.928   4.227   2.575 -0.0365 -0.3840  0.9464
  458MOL0     H60426   0.878   4.185   2.354  1.5538 -0.6582 -0.3453
  458MOL0     H60427   0.880   4.355   2.318  1.1430 -1.7205 -0.1502
  458MOL0     H60428   0.706   4.258   2.542  2.5430  2.9367  1.1920
  458MOL0     H60429   0.676   4.401   2.444 -0.2906 -0.1799  0.4770
  458MOL0     H60430   0.655   4.117   2.340  0.9231  0.0491  2.0282
  458MOL0     H60431   0.628   4.262   2.240 -1.2628  3.0271  0.6121
  458MOL0     H60432   0.446   4.332   2.407 -0.2362  0.2686 -1.8550
  458MOL0     H60433   0.482   4.182   2.498 -2.0715 -0.9873  0.0297
  458MOL0     H60434   0.376   4.178   2.208 -0.5692  3.1038 -0.0122
  458MOL0     H60435   0.399   4.033   2.323 -1.5380  0.2641  1.6770
  458MOL0     H60436   0.230   4.136   2.474 -0.6397  1.4080 -0.2252
  458MOL0     H60437   0.173   4.076   2.322 -0.4691 -1.0514  2.5203
  458MOL0     H60438   1.386   4.179   2.469 -1.3991 -0.0072 -0.1713
  458MOL0     H60439   1.568   4.194   2.297  0.4184 -0.9945 -0.9147
  458MOL0     H60440   1.784   3.974   1.818 -1.8132  0.3562 -0.8235
  458MOL0     H60441   1.978   4.062   1.687 -1.6050 -1.0948 -0.4682
  458MOL0     H60442   2.262   3.963   1.369  0.7404  1.6019  1.5137
  458MOL0     H60443   2.069   3.900   1.467  1.2936  0.1445 -1.2592
  458MOL0     H60444   1.664   3.606   1.462  0.6598  0.2064  1.5396
  458MOL0     H60445   1.472   3.567   1.593  0.5120 -0.6232  1.2652
  458MOL0     H60446   1.237   3.935   1.777  1.6175  0.6788  1.9083
  458MOL0     H60447   1.359   3.855   1.868 -0.2316  0.2371 -0.1302
  458MOL0     H60448   1.077   3.766   1.815 -0.4092 -1.6084  0.9701
  458MOL0     H60449   1.181   3.687   1.934 -0.6973 -0.4242 -1.2193
  458MOL0     H60450   1.117   3.974   1.963 -2.8194 -0.7173 -0.4016
  458MOL0     H60451   1.206   3.882   2.083 -2.3491  1.4677  0.8350
  458MOL0     H60452   0.980   3.935   2.162 -0.9028 -0.8080  1.5032
  458MOL0     H60453   0.915   3.836   2.019  1.2413  0.0096 -0.0393
  458MOL0     H60454   0.966   3.544   2.303 -0.1027  1.2965  0.8563
  458MOL0     H60455   1.444   3.981   1.695 -0.4575  0.3393 -2.0910
  458MOL0     H60456   1.651   4.017   1.599  0.5856  0.2375  0.3567
  459MOL0     O60457   4.309   2.769   5.302  0.4873  0.2268  0.1450
  459MOL0     C60458   4.425   2.766   5.257  0.0740  0.3760 -0.2019
  459MOL0     O60459   4.484   2.665   5.186  0.3040  0.3214  0.0728
  459MOL0     C60460   4.392   2.566   5.157 -0.6021  0.0925  0.2777
  459MOL0     C60461   4.378   2.450   5.238  0.3938  0.6901 -0.5421
  459MOL0     C60462   4.290   2.344   5.194  0.7898 -1.0017  0.6915
  459MOL0     C60463   4.238   2.352   5.064  0.6319 -0.4194 -0.0026
  459MOL0     O60464   4.169   2.246   5.018 -0.2386  0.3668  0.2039
  459MOL0     C60465   4.057   2.212   5.093  0.0335  0.0094  0.4238
  459MOL0     C60466   3.974   2.115   5.002  0.2525 -0.8989 -0.2699
  459MOL0     C60467   3.890   2.191   4.897  0.3270  1.1041 -0.2833
  459MOL0     C60468   3.780   2.275   4.941  0.0176 -0.5940 -0.2949
  459MOL0     C60469   3.728   2.361   4.826 -0.8964 -0.9688 -0.2505
  459MOL0     C60470   3.617   2.448   4.878 -0.1843  0.3716 -0.4361
  459MOL0     C60471   3.667   2.576   4.958 -0.2566  0.2765  0.2368
  459MOL0     C60472   3.560   2.659   5.012  0.2112  0.0913 -0.4789
  459MOL0     N60473   3.485   2.722   4.907 -0.1782  0.4505 -0.1461
  459MOL0     C60474   3.357   2.678   4.879  0.2008  0.0480 -0.3312
  459MOL0     C60475   3.315   2.748   4.779 -1.2193  0.0981  1.0412
  459MOL0     C60476   3.182   2.761   4.724 -0.0125  0.7193 -0.4759
  459MOL0     C60477   3.113   2.888   4.778 -0.1127 -0.6625  0.4729
  459MOL0     C60478   2.969   2.886   4.751 -0.0010 -0.7764  0.0632
  459MOL0     C60479   2.910   3.021   4.813  0.6857 -0.6235  0.3963
  459MOL0     O60480   2.773   3.006   4.864  0.0749 -0.5114  0.1550
  459MOL0     C60481   2.661   3.018   4.785 -0.3422  0.1996  0.0236
  459MOL0     C60482   2.671   3.044   4.647 -0.0700 -0.0583 -0.1545
  459MOL0     C60483   2.551   3.046   4.581 -0.8245 -0.3646 -0.4375
  459MOL0     C60484   2.424   3.042   4.647  0.2162  0.3870 -0.2736
  459MOL0     C60485   2.306   3.054   4.562  1.0265  0.6676  0.0083
  459MOL0     O60486   2.186   3.019   4.616  0.3781 -0.7827 -0.2473
  459MOL0     C60487   2.066   3.049   4.559  0.7762 -0.0915  0.0324
  459MOL0     C60488   1.956   3.080   4.643  0.0138  0.1785 -0.0241
  459MOL0     C60489   1.829   3.115   4.591 -0.4395  0.0559  0.5411
  459MOL0     C60490   1.806   3.126   4.457  0.1107  0.0049  0.0063
  459MOL0     O60491   1.671   3.138   4.424  0.1645  0.6712  0.2188
  459MOL0     C60492   1.646   3.167   4.293 -0.4285 -0.4307 -0.0143
  459MOL0     C60493   1.494   3.167   4.268 -1.2359  0.6842 -0.2417
  459MOL0     C60494   1.419   3.034   4.313  0.4549 -0.1780  0.1699
  459MOL0     C60495   1.266   3.045   4.288  0.3859 -0.1115  0.1184
  459MOL0     C60496   1.191   2.915   4.276  0.4451  0.1143  0.0768
  459MOL0     C60497   1.034   2.942   4.242  0.0471 -0.3163  0.0272
  459MOL0     C60498   0.959   2.815   4.255  0.8058  0.6027  0.0535
  459MOL0     C60499   0.806   2.827   4.275 -0.3248  0.2329  1.1245
  459MOL0    Cl60500   0.738   2.915   4.125  0.0798 -0.0878  0.2980
  459MOL0     C60501   1.913   3.103   4.371 -0.0823  0.3344 -0.1590
  459MOL0     C60502   2.038   3.054   4.426  1.9722  0.5874  0.0887
  459MOL0     O60503   2.321   3.105   4.450 -0.0362 -0.2492 -0.5092
  459MOL0     C60504   2.419   3.005   4.783 -1.0557 -0.4234 -0.3514
  459MOL0     C60505   2.544   3.002   4.848  0.1565 -0.4261 -0.6789
  459MOL0     N60506   3.424   2.831   4.733  0.4510 -0.3181 -0.4757
  459MOL0     N60507   3.516   2.816   4.822 -0.1056 -0.2259 -0.7962
  459MOL0     C60508   4.250   2.458   4.983  0.9111  0.7632  0.2255
  459MOL0     C60509   4.323   2.565   5.032 -0.8942 -0.6381  0.6916
  459MOL0     C60510   4.508   2.887   5.275  0.1622 -0.3927  0.7737
  459MOL0     C60511   4.641   2.887   5.231  0.6258  0.1118 -0.0947
  459MOL0     C60512   4.727   2.998   5.249 -0.7648 -0.0480  0.1620
  459MOL0     C60513   4.671   3.123   5.299  0.6708 -0.8339  1.0273
  459MOL0     O60514   4.732   3.248   5.319  0.2577 -0.3356  0.1478
  459MOL0     C60515   4.878   3.257   5.293 -0.3185  0.0670  0.9126
  459MOL0     C60516   4.910   3.276   5.146 -0.6911  1.3574 -0.0966
  459MOL0     C60517   4.852   3.405   5.096 -0.8836  0.7370  0.1896
  459MOL0     C60518   4.906   3.436   4.955  0.8797 -0.3860  0.4640
  459MOL0     C60519   4.857   3.559   4.904 -0.2391 -0.9616 -0.7835
  459MOL0     C60520   4.795   3.659   4.859  0.2642 -0.4773  0.2146
  459MOL0     C60521   4.536   3.121   5.330  0.2818  0.0816 -0.0427
  459MOL0     C60522   4.450   3.009   5.320  0.1631  0.2647 -0.7888
  459MOL0     H60523   4.441   2.447   5.326 -0.6125 -0.5307  0.1836
  459MOL0     H60524   4.271   2.263   5.264 -2.9998 -2.0938 -1.2923
  459MOL0     H60525   4.014   2.309   5.118  1.9735  0.7812  0.9219
  459MOL0     H60526   4.092   2.156   5.181 -3.8353 -3.5382  0.0202
  459MOL0     H60527   3.919   2.043   5.063  1.3160  0.6019  2.6517
  459MOL0     H60528   4.045   2.052   4.947  1.1542 -0.7669  0.7200
  459MOL0     H60529   3.851   2.115   4.828  1.2717  0.3757 -0.0305
  459MOL0     H60530   3.952   2.250   4.828  2.0652 -0.6481 -0.3007
  459MOL0     H60531   3.704   2.207   4.981  0.5915 -1.5815 -0.8504
  459MOL0     H60532   3.820   2.345   5.015  0.0982  0.4302 -1.2731
  459MOL0     H60533   3.693   2.291   4.751 -1.3710  2.0325 -3.0655
  459MOL0     H60534   3.802   2.417   4.768 -1.8404 -2.3527 -2.9294
  459MOL0     H60535   3.554   2.392   4.948  1.8325 -0.8167  0.5162
  459MOL0     H60536   3.543   2.480   4.804 -2.2522 -2.1328  0.4300
  459MOL0     H60537   3.736   2.545   5.037  0.2924  1.7821  0.3834
  459MOL0     H60538   3.726   2.635   4.887  0.2349 -0.2326  0.2147
  459MOL0     H60539   3.607   2.735   5.076  2.4551 -0.9350 -0.8129
  459MOL0     H60540   3.495   2.606   5.082 -2.2680 -0.2256 -2.8697
  459MOL0     H60541   3.292   2.610   4.932 -0.7351 -1.0497 -2.7544
  459MOL0     H60542   3.115   2.690   4.772 -1.3603  2.4174  0.2798
  459MOL0     H60543   3.190   2.759   4.615  2.5334  3.0234 -0.4623
  459MOL0     H60544   3.166   2.974   4.736 -0.2643 -1.6041 -1.7642
  459MOL0     H60545   3.124   2.890   4.887 -0.3043 -1.2209  0.5064
  459MOL0     H60546   2.940   2.880   4.646 -1.0874 -3.5774  0.4401
  459MOL0     H60547   2.920   2.799   4.795  1.3396 -1.9095 -0.6200
  459MOL0     H60548   2.909   3.100   4.737  0.2450 -0.0025  1.0399
  459MOL0     H60549   2.971   3.048   4.899  2.3240 -1.5603 -0.4040
  459MOL0     H60550   2.768   3.056   4.601  0.2014 -0.1139  0.3947
  459MOL0     H60551   2.559   3.056   4.474  1.6931  0.4617 -0.2154
  459MOL0     H60552   1.967   3.074   4.751 -0.3114  0.0374  0.0037
  459MOL0     H60553   1.754   3.126   4.669 -2.4860 -0.8324 -1.2015
  459MOL0     H60554   1.693   3.096   4.225  0.6436 -1.2350  1.4914
  459MOL0     H60555   1.696   3.258   4.260  0.2141 -0.6207  0.4201
  459MOL0     H60556   1.482   3.188   4.161  3.0467 -1.2869 -1.3047
  459MOL0     H60557   1.445   3.241   4.331 -0.1786 -0.8047  2.4722
  459MOL0     H60558   1.448   3.010   4.416 -0.1211  0.8637  0.5981
  459MOL0     H60559   1.453   2.955   4.246 -1.1367 -2.1751  1.5621
  459MOL0     H60560   1.231   3.097   4.378  1.2176  1.2478 -0.3100
  459MOL0     H60561   1.248   3.108   4.200 -0.3410  0.1035  0.4136
  459MOL0     H60562   1.200   2.873   4.376  3.4287  1.7626  0.6346
  459MOL0     H60563   1.231   2.849   4.197  0.3674  0.0301  0.1082
  459MOL0     H60564   1.034   2.989   4.144  1.2821  3.3576  1.5895
  459MOL0     H60565   1.003   3.010   4.322  0.0162 -2.9592  2.4459
  459MOL0     H60566   0.973   2.761   4.161  1.1928  1.6731 -0.5192
  459MOL0     H60567   1.003   2.749   4.330 -0.1877  0.2640  0.3583
  459MOL0     H60568   0.796   2.878   4.371  3.0472 -0.5018  2.0027
  459MOL0     H60569   0.769   2.724   4.276 -1.4856  0.5477 -1.3427
  459MOL0     H60570   1.895   3.098   4.264 -0.5357 -0.7103 -0.0390
  459MOL0     H60571   2.102   3.014   4.348  1.2612  0.0096 -0.2062
  459MOL0     H60572   2.328   2.990   4.841 -0.2246  0.6384  1.3226
  459MOL0     H60573   2.543   2.980   4.954  0.8617  0.3605 -0.4954
  459MOL0     H60574   4.193   2.450   4.891 -1.4778 -1.9064  1.7754
  459MOL0     H60575   4.341   2.649   4.965 -2.3739 -1.0608 -0.2685
  459MOL0     H60576   4.669   2.793   5.183 -2.3999 -0.9284 -0.0884
  459MOL0     H60577   4.830   2.989   5.218 -1.4626  0.6581 -2.6504
  459MOL0     H60578   4.931   3.172   5.337  0.1074 -1.5610 -2.4635
  459MOL0     H60579   4.916   3.344   5.347  1.0239 -0.3670  0.6821
  459MOL0     H60580   5.019   3.279   5.134 -0.1417 -1.1523  2.7848
  459MOL0     H60581   4.863   3.194   5.092 -0.5663  0.9305  0.4274
  459MOL0     H60582   4.889   3.479   5.169  1.0814 -1.4058  1.4993
  459MOL0     H60583   4.744   3.416   5.106 -0.9798 -0.9880  1.5032
  459MOL0     H60584   5.016   3.442   4.953  0.8223  0.5749 -0.5031
  459MOL0     H60585   4.879   3.357   4.885 -1.6450 -1.2398  2.2373
  459MOL0     H60586   4.753   3.745   4.811  5.4048  0.6491 -3.1176
  459MOL0     H60587   4.494   3.217   5.357  0.8042  0.8822 -1.9110
  459MOL0     H60588   4.349   3.019   5.358  0.3237  2.4372 -0.7910
  460MOL0     O60589   8.578   2.385   4.513 -0.1116 -0.5578  0.3073
  460MOL0     C60590   8.571   2.392   4.393  0.6470 -0.1599  0.5793
  460MOL0     O60591   8.484   2.470   4.327 -0.5115 -0.0136 -0.6683
  460MOL0     C60592   8.374   2.529   4.389  0.9502  0.1812  0.3141
  460MOL0     C60593   8.381   2.629   4.488 -0.5587 -0.4766 -0.4981
  460MOL0     C60594   8.263   2.688   4.534  0.9224  0.3130  0.5302
  460MOL0     C60595   8.135   2.651   4.484 -0.1595 -0.3592  0.7654
  460MOL0     O60596   8.029   2.723   4.528 -0.3391 -0.0600  0.2450
  460MOL0     C60597   8.031   2.869   4.501 -0.0990 -0.3237  0.2836
  460MOL0     C60598   7.963   2.953   4.611  0.4711 -0.0235 -0.1605
  460MOL0     C60599   7.804   2.944   4.584 -0.4079 -0.0762  1.0231
  460MOL0     C60600   7.742   2.803   4.583 -0.5346  0.0370 -0.7571
  460MOL0     C60601   7.587   2.799   4.565  0.6510 -0.1147  0.1113
  460MOL0     C60602   7.503   2.845   4.689 -0.5321  0.2058  0.4443
  460MOL0     C60603   7.357   2.861   4.659  0.4084 -0.3557  0.2937
  460MOL0     C60604   7.265   2.883   4.788 -0.2732  0.5884  0.0091
  460MOL0     N60605   7.123   2.898   4.754 -0.8294  0.7320 -0.9030
  460MOL0     C60606   7.020   2.865   4.836  0.2599  0.4519 -0.2548
  460MOL0     C60607   6.906   2.894   4.780  0.3812  0.3954  0.5016
  460MOL0     C60608   6.768   2.865   4.841  0.5697 -0.3199  0.6289
  460MOL0     C60609   6.684   2.802   4.730  0.3344 -0.4948 -0.3575
  460MOL0     C60610   6.555   2.774   4.800  0.2385  0.3160  0.0544
  460MOL0     C60611   6.466   2.691   4.709  0.0261 -0.3331 -0.1782
  460MOL0     O60612   6.361   2.776   4.660  0.0894 -0.1167 -0.1758
  460MOL0     C60613   6.237   2.718   4.619 -0.6840 -0.1090  0.0591
  460MOL0     C60614   6.127   2.800   4.593  0.5052  0.0019  0.4803
  460MOL0     C60615   6.002   2.744   4.548  0.5431  0.0389 -0.7793
  460MOL0     C60616   5.983   2.611   4.528 -0.5404  0.5045  0.0858
  460MOL0     C60617   5.851   2.568   4.463 -0.2752  0.3085  0.6792
  460MOL0     O60618   5.767   2.659   4.412 -0.2094  0.1928  0.4731
  460MOL0     C60619   5.646   2.617   4.363 -0.6426 -0.4815  0.0396
  460MOL0     C60620   5.619   2.626   4.221  0.2090 -0.7688  0.1547
  460MOL0     C60621   5.488   2.597   4.176  0.2827 -1.0589  0.1982
  460MOL0     C60622   5.381   2.561   4.265 -0.7123 -0.3733 -0.4181
  460MOL0     O60623   5.261   2.553   4.203  0.0110  0.1921 -0.2151
  460MOL0     C60624   5.142   2.560   4.290 -0.8836  0.5095  0.2426
  460MOL0     C60625   5.021   2.537   4.192 -0.6304  0.0228 -0.4979
  460MOL0     C60626   4.892   2.533   4.275  0.8536  0.6363 -0.7592
  460MOL0     C60627   4.778   2.515   4.177 -0.5340 -0.1563 -0.7338
  460MOL0     C60628   4.659   2.549   4.254  0.6072  0.0368  0.1761
  460MOL0     C60629   4.529   2.548   4.171  0.2158 -0.1389 -0.7855
  460MOL0     C60630   4.416   2.610   4.251 -0.3642 -0.4407  0.0013
  460MOL0     C60631   4.285   2.524   4.289  0.3963  0.2268  0.5210
  460MOL0    Cl60632   4.310   2.367   4.383 -0.2628  0.1057  0.0085
  460MOL0     C60633   5.419   2.532   4.395  0.5833 -0.9505 -0.0230
  460MOL0     C60634   5.545   2.570   4.447  0.6067 -0.0288  0.8477
  460MOL0     O60635   5.832   2.450   4.470 -0.3268 -0.0920 -0.1787
  460MOL0     C60636   6.086   2.523   4.560 -1.1495  0.3208 -0.1678
  460MOL0     C60637   6.218   2.581   4.593  0.6049 -0.2978  0.6644
  460MOL0     N60638   6.947   2.952   4.652 -0.2479 -0.0953  0.4728
  460MOL0     N60639   7.076   2.953   4.637  0.0187 -0.8284 -0.2685
  460MOL0     C60640   8.128   2.545   4.393 -0.8270 -0.0349  0.1954
  460MOL0     C60641   8.246   2.485   4.348  0.1923  0.2823  0.3515
  460MOL0     C60642   8.667   2.311   4.309 -0.0781  0.0600 -0.4368
  460MOL0     C60643   8.660   2.322   4.172  0.5123 -0.9919 -0.2219
  460MOL0     C60644   8.748   2.254   4.087  0.3952  0.4536 -0.5276
  460MOL0     C60645   8.855   2.179   4.139  0.2661  0.4524 -0.8143
  460MOL0     O60646   8.934   2.106   4.045 -0.1611 -0.4078 -0.3143
  460MOL0     C60647   8.972   1.964   4.059  0.3870 -0.3076  0.3218
  460MOL0     C60648   8.891   1.856   3.982 -0.5329 -0.0583 -0.7021
  460MOL0     C60649   8.742   1.855   4.018 -0.1436 -0.2306  0.1544
  460MOL0     C60650   8.653   1.786   3.919 -0.5891  0.0145 -0.1440
  460MOL0     C60651   8.511   1.834   3.927 -0.7383 -0.1784 -0.6791
  460MOL0     C60652   8.400   1.864   3.953  0.3161 -0.6952  0.3209
  460MOL0     C60653   8.869   2.178   4.280  0.1889  0.4717  0.1967
  460MOL0     C60654   8.772   2.237   4.363  0.0441 -0.0542  0.5633
  460MOL0     H60655   8.476   2.666   4.526  0.9104 -0.1690 -4.0537
  460MOL0     H60656   8.266   2.765   4.610  0.9554  0.9420 -0.1011
  460MOL0     H60657   7.981   2.896   4.407  0.8551  1.0906  0.1509
  460MOL0     H60658   8.133   2.906   4.484 -0.4062 -0.1443 -1.4336
  460MOL0     H60659   7.992   3.056   4.592  0.6128 -0.4774 -2.8782
  460MOL0     H60660   7.990   2.914   4.710  2.7859  2.0773  0.1253
  460MOL0     H60661   7.777   2.992   4.489 -0.5782 -0.4532  0.8796
  460MOL0     H60662   7.759   3.002   4.664  0.5273  1.2248  0.6484
  460MOL0     H60663   7.787   2.761   4.493 -1.1153  2.2771 -2.1668
  460MOL0     H60664   7.775   2.755   4.675  3.0057 -1.0926 -2.4440
  460MOL0     H60665   7.559   2.695   4.545  0.9512 -0.3358  0.7984
  460MOL0     H60666   7.562   2.860   4.478  0.7268  3.3530  2.3288
  460MOL0     H60667   7.534   2.942   4.731  2.2605  1.5627 -4.0005
  460MOL0     H60668   7.504   2.760   4.757  0.0143 -0.4730 -0.3899
  460MOL0     H60669   7.362   2.951   4.597  2.7117 -1.2289 -0.9121
  460MOL0     H60670   7.317   2.782   4.595  2.1134 -1.4128  0.4906
  460MOL0     H60671   7.296   2.971   4.844 -0.2954  0.4440  0.2497
  460MOL0     H60672   7.266   2.794   4.852 -0.3542  1.2080  0.8880
  460MOL0     H60673   7.028   2.822   4.935  1.3431 -0.3563 -0.6816
  460MOL0     H60674   6.716   2.953   4.880  1.1271 -0.3192  1.3828
  460MOL0     H60675   6.778   2.789   4.919  1.2486 -1.8045 -0.8488
  460MOL0     H60676   6.727   2.706   4.701  0.7789 -0.0803 -1.0944
  460MOL0     H60677   6.678   2.876   4.649 -2.3971 -0.0570  0.1481
  460MOL0     H60678   6.571   2.712   4.889  1.1929  2.6377  1.5915
  460MOL0     H60679   6.497   2.862   4.830 -1.9837 -1.5861  1.6997
  460MOL0     H60680   6.430   2.606   4.768 -2.2729  0.4895 -0.3056
  460MOL0     H60681   6.529   2.657   4.626  0.0307 -0.2469 -0.2093
  460MOL0     H60682   6.130   2.904   4.626 -0.1891  1.1740 -2.7703
  460MOL0     H60683   5.923   2.817   4.530  1.8785  1.8673  0.3752
  460MOL0     H60684   5.699   2.653   4.154  2.0004 -1.2711  2.0029
  460MOL0     H60685   5.470   2.623   4.072  1.2981  1.2043  0.5291
  460MOL0     H60686   5.134   2.660   4.334 -1.0726  0.5918  0.0222
  460MOL0     H60687   5.149   2.482   4.366 -1.4809  0.0382 -0.1840
  460MOL0     H60688   5.039   2.451   4.126 -0.7750 -0.1861 -0.2676
  460MOL0     H60689   5.010   2.629   4.134 -1.7059  0.0182 -0.3213
  460MOL0     H60690   4.885   2.616   4.346 -0.2030 -0.7538  0.8537
  460MOL0     H60691   4.900   2.450   4.346  0.0634  1.6023  0.5016
  460MOL0     H60692   4.785   2.595   4.103 -1.3301  0.5692 -0.0386
  460MOL0     H60693   4.774   2.419   4.125 -1.5783  0.8389 -2.6373
  460MOL0     H60694   4.672   2.654   4.284  1.8182 -0.7658  2.7562
  460MOL0     H60695   4.636   2.482   4.337 -0.7872  0.4805  0.1615
  460MOL0     H60696   4.509   2.445   4.140  0.6679 -1.2358  2.2376
  460MOL0     H60697   4.552   2.606   4.081  0.8758  0.4160 -0.2769
  460MOL0     H60698   4.458   2.649   4.344 -1.0570  0.9414 -0.2480
  460MOL0     H60699   4.381   2.700   4.200  0.8240  0.5990  0.9712
  460MOL0     H60700   4.236   2.500   4.194 -0.3690  2.8719  0.1759
  460MOL0     H60701   4.209   2.579   4.344 -0.7547 -1.7468  1.0049
  460MOL0     H60702   5.351   2.474   4.457 -1.3383  0.4326 -0.7543
  460MOL0     H60703   5.561   2.546   4.552 -0.0158 -2.2178  0.5082
  460MOL0     H60704   6.085   2.416   4.540 -1.7565 -0.5238  3.5260
  460MOL0     H60705   6.294   2.505   4.611  0.7140 -0.5271 -0.6840
  460MOL0     H60706   8.028   2.516   4.363 -0.4534 -2.1897  0.8908
  460MOL0     H60707   8.252   2.419   4.262  5.4499  1.8291 -0.8873
  460MOL0     H60708   8.580   2.381   4.129 -0.8387 -0.9037  2.2221
  460MOL0     H60709   8.725   2.230   3.984 -0.8282 -2.8093  0.3855
  460MOL0     H60710   8.959   1.947   4.167  0.5639  0.4188  0.4595
  460MOL0     H60711   9.079   1.957   4.040  0.4344  0.6832  0.2001
  460MOL0     H60712   8.902   1.880   3.876 -1.5484 -0.2944 -0.8655
  460MOL0     H60713   8.951   1.766   3.997 -1.0011 -0.1571  0.7727
  460MOL0     H60714   8.714   1.961   4.019  0.8149  0.1025  3.4460
  460MOL0     H60715   8.724   1.820   4.120  1.4883  1.4268  1.0983
  460MOL0     H60716   8.684   1.803   3.815  0.6576 -0.6853  0.0953
  460MOL0     H60717   8.656   1.677   3.929  2.9940  0.0959  0.8504
  460MOL0     H60718   8.294   1.872   3.970  0.2644  2.3887 -0.6873
  460MOL0     H60719   8.953   2.135   4.335  0.1138 -0.4624 -0.3852
  460MOL0     H60720   8.784   2.243   4.471  0.6183  1.0064  0.4596
  461MOL0     O60721   1.386   8.533   2.182 -0.3388 -0.2651 -0.4766
  461MOL0     C60722   1.489   8.609   2.184  0.7254 -0.4435  0.6679
  461MOL0     O60723   1.520   8.696   2.282  0.1253  0.0142 -0.5942
  461MOL0     C60724   1.440   8.706   2.394 -0.0865 -0.2292  0.6896
  461MOL0     C60725   1.389   8.833   2.423  0.9908 -0.3096  0.6541
  461MOL0     C60726   1.306   8.857   2.525  0.1658  0.6725 -0.5010
  461MOL0     C60727   1.273   8.757   2.616 -0.1509 -0.7620  0.1726
  461MOL0     O60728   1.181   8.758   2.715 -0.2875 -0.0793  0.6732
  461MOL0     C60729   1.196   8.876   2.794 -0.0120 -0.2887 -0.5880
  461MOL0     C60730   1.107   8.863   2.914 -0.1832  0.0769 -0.1830
  461MOL0     C60731   1.161   8.773   3.022 -0.8367 -0.0427  0.1750
  461MOL0     C60732   1.095   8.788   3.154  0.8751 -0.6875 -0.0227
  461MOL0     C60733   1.154   8.696   3.262  0.2798 -0.3328 -0.0830
  461MOL0     C60734   1.291   8.734   3.313  0.5837  1.0620  0.7164
  461MOL0     C60735   1.303   8.883   3.355  0.6876 -0.2642 -1.4410
  461MOL0     C60736   1.416   8.923   3.451  0.3678  0.6308  0.0398
  461MOL0     N60737   1.544   8.872   3.399  0.5566 -0.4277 -0.0992
  461MOL0     C60738   1.625   8.942   3.313  0.0885 -0.3194 -0.8179
  461MOL0     C60739   1.744   8.882   3.330 -1.0306  0.5356 -0.5057
  461MOL0     C60740   1.870   8.949   3.267 -0.3491 -0.0922 -0.2173
  461MOL0     C60741   1.910   8.920   3.125 -0.1483  0.2346 -0.1823
  461MOL0     C60742   2.004   9.016   3.065 -0.2578 -0.2106  0.0911
  461MOL0     C60743   2.129   9.058   3.138  0.1545  0.4608 -0.2078
  461MOL0     O60744   2.213   9.130   3.050  0.0468 -0.3719  0.0455
  461MOL0     C60745   2.346   9.106   3.080 -0.2443  0.4310 -0.2220
  461MOL0     C60746   2.403   8.979   3.041  0.5816  0.3806 -0.7597
  461MOL0     C60747   2.534   8.953   3.084  0.8054 -0.1370 -0.1921
  461MOL0     C60748   2.610   9.055   3.143 -0.4198 -0.9493 -0.3626
  461MOL0     C60749   2.756   9.037   3.190  0.3632  0.0550  0.5246
  461MOL0     O60750   2.809   8.907   3.196  0.0589  0.0428 -0.5856
  461MOL0     C60751   2.935   8.898   3.253 -0.4779 -0.0997  0.2863
  461MOL0     C60752   2.954   8.867   3.391  1.3652 -0.2314 -0.0036
  461MOL0     C60753   3.081   8.845   3.447  0.7124 -0.4046 -0.5717
  461MOL0     C60754   3.191   8.877   3.375  0.6961  0.4650  0.6578
  461MOL0     O60755   3.317   8.863   3.429 -0.1970  0.0924 -0.8310
  461MOL0     C60756   3.418   8.958   3.413  0.3749  0.7596  0.5370
  461MOL0     C60757   3.368   9.098   3.450  0.6224 -0.3721  0.4849
  461MOL0     C60758   3.296   9.113   3.589 -0.5072 -1.2725  0.5299
  461MOL0     C60759   3.290   9.266   3.631 -0.3537 -0.2345  0.4262
  461MOL0     C60760   3.181   9.300   3.735 -0.4650  0.1951  0.1103
  461MOL0     C60761   3.036   9.248   3.699  0.2276 -0.3620  0.5010
  461MOL0     C60762   2.979   9.315   3.573 -1.1576 -0.2290  0.2367
  461MOL0     C60763   2.848   9.260   3.550  0.4989  0.7016 -0.2706
  461MOL0    Cl60764   2.745   9.281   3.699 -0.0541 -0.0813  0.2846
  461MOL0     C60765   3.177   8.931   3.247 -0.3842  0.5684 -0.2795
  461MOL0     C60766   3.049   8.943   3.186  0.3267 -1.0391 -0.1135
  461MOL0     O60767   2.825   9.138   3.206 -0.1109 -0.2753 -0.9094
  461MOL0     C60768   2.560   9.186   3.156  0.7995  0.0245 -0.1715
  461MOL0     C60769   2.427   9.204   3.135  0.1101 -0.0256 -0.5136
  461MOL0     N60770   1.737   8.786   3.430  0.3348  0.3959 -0.4515
  461MOL0     N60771   1.611   8.776   3.470 -0.3020 -0.0323  0.0893
  461MOL0     C60772   1.331   8.630   2.586 -0.0232  0.0483 -0.3630
  461MOL0     C60773   1.416   8.607   2.479  1.3854 -0.3753 -0.6225
  461MOL0     C60774   1.562   8.635   2.054  0.2932  0.0617 -0.1080
  461MOL0     C60775   1.537   8.561   1.931 -0.2368  0.1946 -0.2448
  461MOL0     C60776   1.599   8.606   1.818  0.2112 -0.2499  0.2545
  461MOL0     C60777   1.686   8.712   1.823 -0.3311  0.8292 -0.1071
  461MOL0     O60778   1.752   8.745   1.704 -0.4115  0.7496 -0.1452
  461MOL0     C60779   1.844   8.858   1.700 -0.9000 -0.0087  0.0308
  461MOL0     C60780   1.893   8.872   1.558  0.4318  0.0612 -0.2277
  461MOL0     C60781   1.971   8.754   1.500 -0.4176  0.2627 -0.4382
  461MOL0     C60782   2.105   8.730   1.573  0.2595 -0.1924 -0.3680
  461MOL0     C60783   2.203   8.839   1.557 -0.3751 -0.3755  0.1762
  461MOL0     C60784   2.290   8.926   1.544  0.0953  0.1871  0.0317
  461MOL0     C60785   1.709   8.787   1.940 -0.4768  0.3512  0.0141
  461MOL0     C60786   1.641   8.757   2.050  0.2956  0.2434 -0.5106
  461MOL0     H60787   1.413   8.922   2.365 -2.3877  0.3873  0.1225
  461MOL0     H60788   1.261   8.955   2.539  4.2465  2.4831  1.5323
  461MOL0     H60789   1.169   8.972   2.749  0.4490  1.1889  2.0666
  461MOL0     H60790   1.299   8.889   2.828 -0.3042  1.3421 -0.2137
  461MOL0     H60791   1.009   8.824   2.883 -0.5225  1.4001 -0.8724
  461MOL0     H60792   1.106   8.962   2.960  0.3242 -1.0105  2.3421
  461MOL0     H60793   1.269   8.790   3.029 -0.9407  0.5656  0.3604
  461MOL0     H60794   1.149   8.667   2.996  0.9456 -1.0983  3.0863
  461MOL0     H60795   1.092   8.893   3.185  1.3201 -1.3376  2.3542
  461MOL0     H60796   0.993   8.754   3.134  0.1035  1.0941  0.6159
  461MOL0     H60797   1.149   8.592   3.226 -0.8188 -1.3172  2.6560
  461MOL0     H60798   1.083   8.697   3.345  1.7240  0.6412  1.1961
  461MOL0     H60799   1.371   8.699   3.247 -0.7894  0.5609 -0.7257
  461MOL0     H60800   1.308   8.660   3.393  0.9757 -2.9377 -2.7274
  461MOL0     H60801   1.306   8.958   3.275  0.3072  3.8745  2.0414
  461MOL0     H60802   1.214   8.910   3.413  2.4319  1.5455  0.5758
  461MOL0     H60803   1.386   8.881   3.548  2.1051  0.2842  0.4779
  461MOL0     H60804   1.428   9.031   3.454 -1.0571  0.7901  0.6976
  461MOL0     H60805   1.608   9.031   3.253  1.3507  0.1933 -0.4624
  461MOL0     H60806   1.960   8.911   3.317 -0.6274 -2.5007 -1.4029
  461MOL0     H60807   1.843   9.052   3.291 -1.7424 -0.8405  1.7075
  461MOL0     H60808   1.818   8.933   3.068 -0.2322 -1.9238 -0.6069
  461MOL0     H60809   1.929   8.812   3.119 -1.5275 -0.2338  2.6158
  461MOL0     H60810   2.033   8.975   2.968 -0.7589  2.9516 -1.5515
  461MOL0     H60811   1.957   9.109   3.031  1.9714  0.5310 -1.2352
  461MOL0     H60812   2.173   8.963   3.169 -0.1995 -0.0689 -1.2558
  461MOL0     H60813   2.105   9.117   3.227 -1.1774  0.3346 -0.4564
  461MOL0     H60814   2.340   8.906   2.992 -1.0238  1.5369 -0.4950
  461MOL0     H60815   2.587   8.859   3.071 -1.3552 -1.3400 -0.8303
  461MOL0     H60816   2.865   8.844   3.449  1.8469  2.4667  1.9823
  461MOL0     H60817   3.093   8.823   3.553 -0.9743  2.8050  0.4488
  461MOL0     H60818   3.441   8.968   3.307 -2.1675 -0.3213 -0.1960
  461MOL0     H60819   3.509   8.924   3.463  0.4319 -0.4908 -0.3823
  461MOL0     H60820   3.302   9.141   3.374  1.5398  0.3049  0.0560
  461MOL0     H60821   3.460   9.157   3.444  0.6041 -0.4844 -4.4324
  461MOL0     H60822   3.344   9.058   3.670  2.5776 -1.9527 -1.5578
  461MOL0     H60823   3.198   9.071   3.564 -0.1944 -1.2994 -0.7331
  461MOL0     H60824   3.386   9.296   3.674 -0.5745 -0.2311  0.9248
  461MOL0     H60825   3.284   9.336   3.547 -1.1082  1.2497  1.6623
  461MOL0     H60826   3.187   9.409   3.749  0.3196  0.5012 -2.1978
  461MOL0     H60827   3.212   9.250   3.827  0.8800  1.2689  0.2758
  461MOL0     H60828   2.974   9.291   3.779  0.4144  3.6649 -1.3159
  461MOL0     H60829   3.030   9.138   3.697 -2.6826 -0.3028 -1.7480
  461MOL0     H60830   2.963   9.422   3.587 -2.0961 -0.2359 -0.6469
  461MOL0     H60831   3.045   9.294   3.488 -0.0543  1.9138  0.5005
  461MOL0     H60832   2.863   9.155   3.523  2.8949  1.0114 -0.3260
  461MOL0     H60833   2.806   9.304   3.459 -1.1356 -0.5285 -0.1605
  461MOL0     H60834   3.273   8.959   3.205  0.3192  0.2632  1.0648
  461MOL0     H60835   3.042   8.984   3.086 -3.5287 -1.0173  0.0033
  461MOL0     H60836   2.609   9.267   3.208 -0.4310  0.3977  0.4600
  461MOL0     H60837   2.379   9.301   3.144 -1.3268 -0.6474 -1.2223
  461MOL0     H60838   1.330   8.555   2.664 -0.1608  0.6990  0.2782
  461MOL0     H60839   1.454   8.507   2.459  0.2718 -1.1071  0.7242
  461MOL0     H60840   1.478   8.470   1.934  1.0729 -0.6596  0.6524
  461MOL0     H60841   1.575   8.554   1.726 -0.2747 -1.1607  0.8800
  461MOL0     H60842   1.935   8.857   1.761 -0.1031 -0.1933 -1.1163
  461MOL0     H60843   1.792   8.951   1.724  2.2132  1.7951  0.2852
  461MOL0     H60844   1.805   8.895   1.498  0.3915  0.9079  0.1300
  461MOL0     H60845   1.950   8.964   1.572  0.9381 -0.2950  0.0691
  461MOL0     H60846   2.008   8.786   1.402  0.1260  0.4698 -0.1693
  461MOL0     H60847   1.915   8.660   1.494  1.4779 -0.9380 -0.0926
  461MOL0     H60848   2.088   8.726   1.681 -0.8391 -1.0956 -0.5568
  461MOL0     H60849   2.157   8.641   1.535 -2.1801 -0.1454 -4.4375
  461MOL0     H60850   2.360   9.003   1.521 -1.0119  0.5957 -2.2670
  461MOL0     H60851   1.778   8.871   1.944  2.8479 -2.2487  1.9801
  461MOL0     H60852   1.654   8.822   2.136  0.0407 -0.8714  0.3972
  462MOL0     O60853   7.101   3.014   1.251 -0.7240 -0.2089  0.4687
  462MOL0     C60854   7.060   3.128   1.247 -0.5111 -0.0154  0.0419
  462MOL0     O60855   7.099   3.232   1.321  0.1719  0.0711 -0.8377
  462MOL0     C60856   7.208   3.206   1.396  0.2063 -0.0574 -0.3942
  462MOL0     C60857   7.327   3.200   1.325 -0.6828  0.4723  0.3023
  462MOL0     C60858   7.446   3.171   1.397 -0.9173  0.4701  0.1473
  462MOL0     C60859   7.441   3.141   1.536  0.6506 -0.5018 -0.2187
  462MOL0     O60860   7.564   3.132   1.599  0.2579 -0.1138 -0.5584
  462MOL0     C60861   7.555   3.149   1.751 -0.7633 -0.4790  0.7532
  462MOL0     C60862   7.553   3.299   1.790  0.5839 -1.2128 -0.3182
  462MOL0     C60863   7.680   3.384   1.745 -0.3880  0.6132  0.3410
  462MOL0     C60864   7.823   3.328   1.787  0.3180 -0.0786 -0.8835
  462MOL0     C60865   7.937   3.424   1.755 -0.2266  0.4606  0.2903
  462MOL0     C60866   8.042   3.402   1.864 -0.2182  0.2483  0.0772
  462MOL0     C60867   8.178   3.481   1.843  0.0852 -0.0173 -0.2481
  462MOL0     C60868   8.263   3.422   1.732 -0.0537  0.8066  0.5528
  462MOL0     N60869   8.397   3.488   1.739 -0.0319 -0.7952  0.3376
  462MOL0     C60870   8.508   3.451   1.815  0.6037 -0.0437  0.5229
  462MOL0     C60871   8.605   3.537   1.783 -0.7920  0.5446  0.2473
  462MOL0     C60872   8.749   3.536   1.830 -0.0602 -1.3841  0.0389
  462MOL0     C60873   8.777   3.630   1.951  0.0112  0.4101 -0.0482
  462MOL0     C60874   8.721   3.556   2.067  0.7577 -1.1997 -0.2881
  462MOL0     C60875   8.710   3.657   2.185  0.6152 -0.0124  0.8879
  462MOL0     O60876   8.610   3.746   2.167  0.5524 -0.3160  0.6643
  462MOL0     C60877   8.478   3.702   2.178  0.2433  0.2072  0.4230
  462MOL0     C60878   8.431   3.574   2.224 -0.2005 -0.1152 -0.6399
  462MOL0     C60879   8.296   3.542   2.209 -0.5126 -0.2282 -0.2202
  462MOL0     C60880   8.202   3.632   2.164  0.3745 -0.0495  0.3874
  462MOL0     C60881   8.055   3.601   2.191  0.2725  0.0640 -0.7817
  462MOL0     O60882   8.021   3.487   2.261  0.4524 -0.6130 -0.0602
  462MOL0     C60883   7.892   3.466   2.299  0.1009  0.6583 -0.1735
  462MOL0     C60884   7.870   3.409   2.427 -1.2518  0.0083 -0.3649
  462MOL0     C60885   7.742   3.358   2.469 -0.6153  0.8579  0.4732
  462MOL0     C60886   7.635   3.358   2.382  0.2928  0.3657 -0.7976
  462MOL0     O60887   7.501   3.325   2.421 -0.3844  0.3604 -0.4160
  462MOL0     C60888   7.489   3.249   2.543  0.3783  0.1951 -0.0641
  462MOL0     C60889   7.356   3.182   2.556 -0.6043 -0.0939  0.3100
  462MOL0     C60890   7.247   3.286   2.534 -0.0527  0.7228  0.0775
  462MOL0     C60891   7.109   3.221   2.577  0.5081 -0.0656 -0.1133
  462MOL0     C60892   6.984   3.300   2.530 -0.5798 -0.6911 -0.0705
  462MOL0     C60893   6.861   3.205   2.540 -0.1709 -0.2871 -0.3521
  462MOL0     C60894   6.837   3.159   2.686 -0.5928  0.5758  0.4783
  462MOL0     C60895   6.704   3.081   2.701 -0.0612 -0.3499  0.1876
  462MOL0    Cl60896   6.718   2.920   2.619  0.0918  0.2031  0.3617
  462MOL0     C60897   7.650   3.416   2.260 -0.2902  0.2076  0.5722
  462MOL0     C60898   7.776   3.468   2.222  0.2201 -0.4021  0.5330
  462MOL0     O60899   7.975   3.687   2.150  0.2165 -0.0253 -0.6651
  462MOL0     C60900   8.244   3.746   2.104  0.0925 -0.6581  1.1375
  462MOL0     C60901   8.377   3.777   2.107  0.1547  0.5986  0.8926
  462MOL0     N60902   8.554   3.618   1.692  0.1398  0.1296 -0.1635
  462MOL0     N60903   8.434   3.600   1.671  0.6278 -0.0462  0.6376
  462MOL0     C60904   7.316   3.138   1.598 -0.2611 -0.0689  0.9769
  462MOL0     C60905   7.207   3.183   1.528 -0.2973 -0.4888 -0.7151
  462MOL0     C60906   6.956   3.146   1.151  0.1152 -0.4166 -0.4760
  462MOL0     C60907   6.880   3.032   1.097 -0.7187 -0.8276  0.0211
  462MOL0     C60908   6.766   3.053   1.011  0.3252 -0.2729 -0.9640
  462MOL0     C60909   6.722   3.184   0.991  0.6922 -0.4225  1.3193
  462MOL0     O60910   6.607   3.210   0.922  0.0926 -0.4040  0.5889
  462MOL0     C60911   6.491   3.128   0.969  0.8601  0.3431 -0.4709
  462MOL0     C60912   6.384   3.209   1.055  0.2828 -0.1670  1.0140
  462MOL0     C60913   6.361   3.356   1.008  0.1546  0.6537 -0.5215
  462MOL0     C60914   6.325   3.361   0.861  0.5753 -0.0983 -0.2680
  462MOL0     C60915   6.205   3.285   0.824 -0.0086 -0.3901 -0.5314
  462MOL0     C60916   6.106   3.234   0.793  0.2207 -0.8173  0.2229
  462MOL0     C60917   6.792   3.295   1.036  0.4978  0.0709 -0.1838
  462MOL0     C60918   6.900   3.268   1.123  0.4333  0.2939 -0.3000
  462MOL0     H60919   7.330   3.227   1.220 -1.7869  1.8114  0.5864
  462MOL0     H60920   7.539   3.181   1.341 -1.5740  0.3204 -1.0075
  462MOL0     H60921   7.655   3.125   1.790  0.0840  0.2268 -0.8747
  462MOL0     H60922   7.482   3.083   1.799 -0.3065 -1.1987  0.4791
  462MOL0     H60923   7.531   3.311   1.897 -1.4055 -1.3859 -0.6875
  462MOL0     H60924   7.462   3.338   1.745 -0.6479 -2.7746  0.6794
  462MOL0     H60925   7.677   3.489   1.773 -0.9296  0.1267  2.2050
  462MOL0     H60926   7.680   3.373   1.636  0.6240  0.2104  0.3708
  462MOL0     H60927   7.820   3.305   1.893 -2.4670 -1.0236 -1.1070
  462MOL0     H60928   7.843   3.236   1.732 -0.8621 -2.1186  1.8888
  462MOL0     H60929   7.896   3.526   1.758 -0.2444  0.5467 -1.5096
  462MOL0     H60930   7.978   3.406   1.655 -0.6532 -2.7127  0.5984
  462MOL0     H60931   8.054   3.293   1.859 -1.3696 -0.0516  2.4078
  462MOL0     H60932   8.006   3.427   1.965  0.1073  0.5634  0.1148
  462MOL0     H60933   8.162   3.589   1.851  1.9822  0.2400  0.7021
  462MOL0     H60934   8.246   3.462   1.927  4.0928 -1.2954 -3.4836
  462MOL0     H60935   8.209   3.422   1.637  1.0863 -3.1950 -0.2814
  462MOL0     H60936   8.283   3.316   1.749 -4.0345 -0.3861 -1.0988
  462MOL0     H60937   8.519   3.374   1.890 -0.2451  2.0092  2.8838
  462MOL0     H60938   8.810   3.573   1.748  2.0019  0.8040  2.3867
  462MOL0     H60939   8.782   3.436   1.860  0.2019 -1.1452  0.5595
  462MOL0     H60940   8.716   3.720   1.937  1.0271  1.1180 -0.0009
  462MOL0     H60941   8.885   3.641   1.965  0.6131 -3.3950 -0.6167
  462MOL0     H60942   8.622   3.514   2.050 -0.5086  0.2269  2.7896
  462MOL0     H60943   8.804   3.490   2.095  4.1787  2.9565  0.3862
  462MOL0     H60944   8.803   3.713   2.198  0.1625  0.3226  3.1479
  462MOL0     H60945   8.697   3.594   2.274 -1.4729  0.6174  1.0855
  462MOL0     H60946   8.500   3.501   2.266 -0.4732  0.5497  1.0467
  462MOL0     H60947   8.268   3.441   2.236 -1.2092 -1.0756 -3.7224
  462MOL0     H60948   7.952   3.405   2.497 -1.8284 -2.0021  0.2747
  462MOL0     H60949   7.740   3.311   2.567 -0.9429 -0.7582 -0.2849
  462MOL0     H60950   7.488   3.313   2.632  0.9032  0.7874 -0.4790
  462MOL0     H60951   7.569   3.176   2.548  0.3074  0.1315  0.1634
  462MOL0     H60952   7.340   3.133   2.652 -0.6310 -1.8682 -0.5643
  462MOL0     H60953   7.357   3.101   2.483  0.4697  1.9953 -2.1632
  462MOL0     H60954   7.259   3.318   2.430  0.4115 -2.2247 -0.8650
  462MOL0     H60955   7.261   3.377   2.594 -0.9117 -0.8176  2.7764
  462MOL0     H60956   7.106   3.116   2.548  0.1286 -0.3046  0.7493
  462MOL0     H60957   7.110   3.227   2.686 -0.6858  1.5733 -0.1391
  462MOL0     H60958   7.002   3.335   2.428 -1.6488  6.1047  1.5482
  462MOL0     H60959   6.961   3.390   2.587  2.1236  1.1184 -1.6180
  462MOL0     H60960   6.885   3.116   2.481  3.0451  0.7165 -0.7687
  462MOL0     H60961   6.767   3.256   2.515  0.5167  1.5765  0.6331
  462MOL0     H60962   6.919   3.091   2.712 -1.1337 -0.9471 -1.5096
  462MOL0     H60963   6.846   3.238   2.761 -1.2049  2.4065 -1.2993
  462MOL0     H60964   6.620   3.135   2.657 -0.4382  1.3202  2.7111
  462MOL0     H60965   6.680   3.056   2.805  0.4804 -2.4678 -0.1496
  462MOL0     H60966   7.565   3.417   2.192 -0.5885  0.7916  0.9488
  462MOL0     H60967   7.788   3.507   2.121 -2.3809  1.1477  0.7340
  462MOL0     H60968   8.176   3.804   2.042 -0.6271 -3.0698 -0.4518
  462MOL0     H60969   8.404   3.872   2.062  2.1407 -1.4665 -2.7975
  462MOL0     H60970   7.307   3.127   1.706 -3.4348  1.9966  1.0528
  462MOL0     H60971   7.112   3.188   1.580  0.5880  0.0183  0.9078
  462MOL0     H60972   6.901   2.926   1.106  0.4132 -0.9996 -3.3607
  462MOL0     H60973   6.706   2.970   0.976 -2.4718  1.8812 -1.6245
  462MOL0     H60974   6.522   3.046   1.034 -0.3405  0.8461  0.7828
  462MOL0     H60975   6.452   3.068   0.886  1.7184 -1.5774  0.4375
  462MOL0     H60976   6.291   3.152   1.045 -0.9468  1.5842  1.9854
  462MOL0     H60977   6.415   3.206   1.159  2.6148 -0.3075  0.3782
  462MOL0     H60978   6.448   3.421   1.014  1.3668 -0.9057 -0.4987
  462MOL0     H60979   6.281   3.411   1.058  1.4600  1.4793  0.7417
  462MOL0     H60980   6.301   3.466   0.838  3.0164  0.9283  1.5031
  462MOL0     H60981   6.419   3.337   0.811  1.5533 -0.2268  1.5695
  462MOL0     H60982   6.011   3.190   0.768 -0.3472  0.8133 -0.5975
  462MOL0     H60983   6.765   3.399   1.018  3.2097  0.4326 -3.2562
  462MOL0     H60984   6.956   3.355   1.154  0.7193  0.2461 -0.6719
  463MOL0     O60985   0.025   4.859   4.457 -0.7103 -0.4985 -0.1850
  463MOL0     C60986   0.074   4.744   4.461  0.8773 -0.2606  0.7976
  463MOL0     O60987   0.008   4.627   4.440 -0.3745 -0.5573 -1.1329
  463MOL0     C60988  -0.123   4.651   4.410 -0.1600  0.7165  0.7656
  463MOL0     C60989  -0.157   4.613   4.280  0.7532 -0.8217  0.1598
  463MOL0     C60990  -0.291   4.631   4.230 -0.1963  0.0642 -0.9050
  463MOL0     C60991  -0.385   4.675   4.320 -0.6119  0.3554  0.0132
  463MOL0     O60992  -0.518   4.671   4.273 -0.1108 -0.0756 -0.2171
  463MOL0     C60993  -0.556   4.776   4.182 -0.1766 -0.1216 -0.1428
  463MOL0     C60994  -0.593   4.726   4.043 -0.1744  0.2655  0.0841
  463MOL0     C60995  -0.600   4.834   3.937  0.5814  0.3349  0.2687
  463MOL0     C60996  -0.628   4.789   3.792 -0.3769 -0.2035 -0.4704
  463MOL0     C60997  -0.770   4.723   3.773 -0.1179 -0.3636  0.8704
  463MOL0     C60998  -0.881   4.809   3.826  0.0132 -0.8537 -0.4804
  463MOL0     C60999  -1.022   4.761   3.796 -0.2260 -0.2846 -0.7094
  463MOL0     C61000  -1.123   4.815   3.900  0.1336  0.1176  0.1097
  463MOL0     N61001  -1.254   4.856   3.848  0.1839  0.0724 -0.2315
  463MOL0     C61002  -1.339   4.783   3.778  0.1818  0.0238  0.4575
  463MOL0     C61003  -1.449   4.864   3.744 -1.2679 -0.1777  0.1232
  463MOL0     C61004  -1.554   4.835   3.642 -0.7785 -0.6677 -0.0016
  463MOL0     C61005  -1.592   4.951   3.557  0.0753  0.5957  0.3865
  463MOL0     C61006  -1.698   4.911   3.452 -0.4819 -0.0872  0.2810
  463MOL0     C61007  -1.843   4.903   3.502 -0.6266 -0.2832  0.0382
  463MOL0     O61008  -1.918   4.839   3.397  0.6246  0.2774  0.0519
  463MOL0     C61009  -2.054   4.855   3.373 -0.9004 -0.4052 -0.1351
  463MOL0     C61010  -2.105   4.819   3.246  0.3257  0.1264  0.2995
  463MOL0     C61011  -2.237   4.839   3.213 -0.8197 -0.0967 -0.6723
  463MOL0     C61012  -2.333   4.875   3.307  0.0090  0.0819  0.8295
  463MOL0     C61013  -2.480   4.895   3.273 -0.9030  0.1436  0.4085
  463MOL0     O61014  -2.563   4.904   3.378 -0.0233  0.5314 -0.1826
  463MOL0     C61015  -2.700   4.910   3.373  0.8240 -0.7411  0.2915
  463MOL0     C61016  -2.786   4.812   3.310 -0.0300  0.3665 -0.8486
  463MOL0     C61017  -2.920   4.843   3.289 -0.3120  0.1691 -0.1508
  463MOL0     C61018  -2.982   4.953   3.345 -0.4041 -0.2165 -0.2928
  463MOL0     O61019  -3.117   4.974   3.320  0.0489  0.1171 -0.5462
  463MOL0     C61020  -3.173   5.100   3.357  0.1859 -0.2508 -0.2747
  463MOL0     C61021  -3.315   5.099   3.323  1.0843 -0.6039  0.3976
  463MOL0     C61022  -3.389   5.221   3.387  0.4288  0.3470 -0.0443
  463MOL0     C61023  -3.546   5.219   3.373  0.1465 -0.5047 -0.0749
  463MOL0     C61024  -3.613   5.365   3.371  1.3858  0.8982 -0.2687
  463MOL0     C61025  -3.753   5.363   3.442  0.1530 -0.7336 -0.0386
  463MOL0     C61026  -3.864   5.297   3.365 -0.5586 -0.1325 -0.4282
  463MOL0     C61027  -3.958   5.241   3.473 -0.0164 -0.1399 -0.1837
  463MOL0    Cl61028  -4.070   5.114   3.405 -0.0795  0.3659  0.0050
  463MOL0     C61029  -2.896   5.043   3.419  1.2633  0.3545 -0.3502
  463MOL0     C61030  -2.760   5.022   3.433  0.3995  0.2297 -0.1427
  463MOL0     O61031  -2.512   4.885   3.156 -0.2826 -1.4425 -0.9369
  463MOL0     C61032  -2.285   4.902   3.436  0.3204 -0.4598 -0.0701
  463MOL0     C61033  -2.150   4.895   3.467 -1.1443 -0.6228 -0.9157
  463MOL0     N61034  -1.421   4.986   3.807 -0.5024  0.5877 -0.3385
  463MOL0     N61035  -1.313   4.979   3.866 -0.2159  0.0424 -0.4382
  463MOL0     C61036  -0.357   4.706   4.463  0.2657 -0.1634 -0.1896
  463MOL0     C61037  -0.221   4.702   4.498 -0.8136  0.3515 -0.8251
  463MOL0     C61038   0.211   4.737   4.507 -0.4553  0.4978  0.3925
  463MOL0     C61039   0.272   4.841   4.573 -0.5438 -0.0246 -0.5851
  463MOL0     C61040   0.408   4.830   4.608  0.2150 -0.0129  0.3870
  463MOL0     C61041   0.485   4.715   4.588  1.3934  0.1743 -0.4444
  463MOL0     O61042   0.601   4.683   4.647 -0.6034 -0.7863  0.0591
  463MOL0     C61043   0.716   4.756   4.598 -0.1529 -0.2869  0.4125
  463MOL0     C61044   0.842   4.709   4.661  0.9094  0.1994 -0.1532
  463MOL0     C61045   0.968   4.778   4.616 -0.3188 -0.9896 -0.7124
  463MOL0     C61046   1.087   4.736   4.707  0.8459 -0.5864 -0.5365
  463MOL0     C61047   1.208   4.794   4.658 -0.3789  0.4542 -1.1342
  463MOL0     C61048   1.315   4.848   4.624  0.0163  0.0472 -0.5697
  463MOL0     C61049   0.420   4.606   4.528  0.1614  0.6835 -0.7551
  463MOL0     C61050   0.289   4.618   4.480 -0.3348 -0.3627 -0.4189
  463MOL0     H61051  -0.083   4.555   4.226 -0.6154 -3.3484  0.8410
  463MOL0     H61052  -0.317   4.609   4.127  1.5364 -5.0873 -0.4897
  463MOL0     H61053  -0.479   4.854   4.189  0.9164 -1.2719  1.5810
  463MOL0     H61054  -0.650   4.813   4.224  0.4777 -0.3171  1.5708
  463MOL0     H61055  -0.686   4.670   4.041 -0.0322  0.0472 -1.6395
  463MOL0     H61056  -0.510   4.661   4.013  2.4094  3.0214  0.7407
  463MOL0     H61057  -0.505   4.888   3.928  0.5283  0.5901  1.1493
  463MOL0     H61058  -0.664   4.914   3.975  1.0089  0.3574  0.9642
  463MOL0     H61059  -0.624   4.880   3.731 -1.6449 -0.3611 -0.8175
  463MOL0     H61060  -0.550   4.728   3.747 -1.7035 -0.5361 -2.4596
  463MOL0     H61061  -0.766   4.625   3.821  1.6445  0.1830  1.9525
  463MOL0     H61062  -0.782   4.698   3.668  3.2353 -2.6036  0.8521
  463MOL0     H61063  -0.872   4.913   3.792 -1.1060 -1.4878 -2.9771
  463MOL0     H61064  -0.880   4.804   3.935 -0.7921  0.7621 -0.3668
  463MOL0     H61065  -1.042   4.804   3.697  2.8795  3.6625  0.1321
  463MOL0     H61066  -1.024   4.652   3.796 -2.4960 -0.2948 -1.2351
  463MOL0     H61067  -1.078   4.905   3.945  0.5770  1.3499 -2.5780
  463MOL0     H61068  -1.143   4.742   3.979 -6.6106  1.7667  0.4923
  463MOL0     H61069  -1.331   4.681   3.742  0.6190  0.5181 -0.9246
  463MOL0     H61070  -1.643   4.809   3.701 -0.6860  0.7768  0.8256
  463MOL0     H61071  -1.510   4.757   3.580  0.0234 -0.0409 -0.2293
  463MOL0     H61072  -1.506   4.983   3.498  1.2362 -3.0170 -0.1196
  463MOL0     H61073  -1.620   5.040   3.615 -3.0155  1.6806 -2.4033
  463MOL0     H61074  -1.693   4.991   3.377 -1.8244 -1.1285 -0.9830
  463MOL0     H61075  -1.662   4.817   3.409  1.0245 -1.0469  3.3546
  463MOL0     H61076  -1.891   4.996   3.534  0.8470  0.6793 -0.4428
  463MOL0     H61077  -1.835   4.838   3.589 -1.7462 -0.2604  0.1675
  463MOL0     H61078  -2.039   4.765   3.178 -0.4306  0.4421 -0.7008
  463MOL0     H61079  -2.252   4.841   3.105  0.4613  1.5350 -0.8506
  463MOL0     H61080  -2.747   4.723   3.262 -0.9710 -0.0533 -0.8587
  463MOL0     H61081  -2.980   4.769   3.237  0.0822 -0.6792  0.5736
  463MOL0     H61082  -3.131   5.190   3.310  1.5873 -0.3237  0.7824
  463MOL0     H61083  -3.170   5.121   3.464  0.4709  2.2552 -0.7155
  463MOL0     H61084  -3.360   5.006   3.359 -3.5252  0.5746 -1.5434
  463MOL0     H61085  -3.327   5.109   3.214 -0.1546  1.6997  0.6673
  463MOL0     H61086  -3.360   5.313   3.335 -1.1805 -0.8317 -3.2937
  463MOL0     H61087  -3.369   5.227   3.495 -1.7731 -3.1529  0.7254
  463MOL0     H61088  -3.567   5.169   3.278  2.2555  3.7942 -3.1290
  463MOL0     H61089  -3.598   5.162   3.451 -1.3980 -1.2533 -1.5919
  463MOL0     H61090  -3.623   5.417   3.275 -0.2438  0.4945 -0.3607
  463MOL0     H61091  -3.553   5.423   3.440  3.2651 -1.3336  0.0823
  463MOL0     H61092  -3.786   5.467   3.437 -2.1493 -1.3358  1.2751
  463MOL0     H61093  -3.751   5.332   3.547 -0.8610 -0.1073  0.1767
  463MOL0     H61094  -3.911   5.360   3.290 -1.2684  1.5301  1.3424
  463MOL0     H61095  -3.806   5.219   3.314  0.1501  1.5314 -2.3130
  463MOL0     H61096  -4.016   5.324   3.513  0.1174 -0.7802  1.3809
  463MOL0     H61097  -3.893   5.196   3.548  2.4141  0.6513 -1.7083
  463MOL0     H61098  -2.937   5.137   3.455 -0.5165  0.3539 -2.1496
  463MOL0     H61099  -2.706   5.104   3.478  0.7102 -0.3389  0.5560
  463MOL0     H61100  -2.355   4.943   3.508  0.8988 -0.5095  0.5349
  463MOL0     H61101  -2.114   4.924   3.565  0.1840 -0.2143 -1.5023
  463MOL0     H61102  -0.429   4.729   4.541  2.7551  3.1041  1.3613
  463MOL0     H61103  -0.190   4.712   4.602 -1.4975  1.4478 -0.7085
  463MOL0     H61104   0.211   4.928   4.594  0.6792  0.3416  1.7809
  463MOL0     H61105   0.450   4.905   4.674 -0.9592  0.9113  0.1226
  463MOL0     H61106   0.697   4.863   4.611  0.8842  0.2225 -1.7075
  463MOL0     H61107   0.714   4.748   4.489 -0.5496  0.8494  0.3217
  463MOL0     H61108   0.841   4.723   4.770  0.8743  0.6818 -0.2145
  463MOL0     H61109   0.844   4.600   4.649 -1.3586 -0.0333  1.0411
  463MOL0     H61110   0.956   4.887   4.623  1.8226 -0.8265  1.7623
  463MOL0     H61111   0.991   4.750   4.512  0.8385  3.5118 -1.9317
  463MOL0     H61112   1.073   4.783   4.805 -0.5837  0.9558 -1.4094
  463MOL0     H61113   1.104   4.629   4.711  0.6531 -0.6033 -0.1505
  463MOL0     H61114   1.400   4.895   4.580 -1.0226  0.8084 -1.8688
  463MOL0     H61115   0.470   4.510   4.522  1.9094  1.4472  0.8800
  463MOL0     H61116   0.234   4.538   4.432 -0.8471 -0.1608 -0.1830
  464MOL0     O61117   1.159   3.765   7.682  0.1840  0.3428  0.0439
  464MOL0     C61118   1.187   3.797   7.795 -0.2533  0.8897  0.2051
  464MOL0     O61119   1.097   3.850   7.876  0.0173 -0.3195  0.0834
  464MOL0     C61120   0.960   3.846   7.852 -0.5461  0.2801  0.3225
  464MOL0     C61121   0.877   3.792   7.950 -0.5041 -0.1873  0.1183
  464MOL0     C61122   0.740   3.779   7.928 -0.0056  0.1889  0.1592
  464MOL0     C61123   0.683   3.829   7.814  0.6653 -0.4550  0.1932
  464MOL0     O61124   0.544   3.830   7.800  0.4818  1.1007 -0.1219
  464MOL0     C61125   0.451   3.779   7.899 -0.1859 -0.0584  0.5217
  464MOL0     C61126   0.312   3.791   7.847 -0.6002  0.3891  0.2705
  464MOL0     C61127   0.281   3.944   7.809 -0.3264  0.3890  0.5125
  464MOL0     C61128   0.148   3.962   7.737 -0.2780 -0.8141 -0.4333
  464MOL0     C61129   0.025   3.921   7.811  0.6934  0.9448 -0.2276
  464MOL0     C61130   0.008   4.012   7.937 -0.1103 -0.4972 -0.9992
  464MOL0     C61131  -0.129   4.016   7.997 -0.4741  0.4070 -0.1324
  464MOL0     C61132  -0.167   3.888   8.066  0.7718 -0.2857  0.4016
  464MOL0     N61133  -0.194   3.774   7.972  0.0503  0.4166 -0.6941
  464MOL0     C61134  -0.260   3.776   7.853 -0.4479 -0.5677 -0.0296
  464MOL0     C61135  -0.246   3.654   7.795 -0.7774  0.1743 -0.0730
  464MOL0     C61136  -0.306   3.604   7.669 -0.4727 -0.2535  0.6024
  464MOL0     C61137  -0.452   3.573   7.683  0.5794  0.1300 -0.0928
  464MOL0     C61138  -0.474   3.497   7.814  0.0253  0.4668 -0.2528
  464MOL0     C61139  -0.627   3.466   7.830  0.0680  0.0833 -0.7106
  464MOL0     O61140  -0.714   3.589   7.835 -0.1647 -0.3644  0.2032
  464MOL0     C61141  -0.851   3.575   7.843 -0.1357 -0.1646 -0.5272
  464MOL0     C61142  -0.911   3.454   7.883 -0.8093 -0.2870  0.1705
  464MOL0     C61143  -1.050   3.444   7.881 -0.3112  0.1306 -0.1068
  464MOL0     C61144  -1.134   3.549   7.839  0.5518 -0.0416 -0.1061
  464MOL0     C61145  -1.283   3.535   7.836  0.1771 -0.5063  0.4805
  464MOL0     O61146  -1.359   3.648   7.853  0.9057  0.6798  0.3227
  464MOL0     C61147  -1.497   3.655   7.844 -0.3223  0.6125  0.0524
  464MOL0     C61148  -1.555   3.752   7.764 -0.0878  0.9973 -0.1634
  464MOL0     C61149  -1.685   3.765   7.740  0.2781  0.6967  0.6042
  464MOL0     C61150  -1.775   3.673   7.799  0.3350  0.1115 -0.0901
  464MOL0     O61151  -1.911   3.691   7.790 -0.7565 -0.4136 -0.0011
  464MOL0     C61152  -1.958   3.828   7.806  0.0786  0.8706 -0.9269
  464MOL0     C61153  -2.107   3.853   7.773 -0.2694 -0.1287  0.2025
  464MOL0     C61154  -2.188   3.731   7.786 -0.4432 -0.1912 -0.2960
  464MOL0     C61155  -2.318   3.747   7.716  0.7186  0.5553 -0.1710
  464MOL0     C61156  -2.386   3.610   7.741 -0.2812  0.0749 -0.1815
  464MOL0     C61157  -2.538   3.599   7.709 -0.8520 -0.4553  0.6880
  464MOL0     C61158  -2.626   3.717   7.741 -0.5127 -0.2933 -0.4447
  464MOL0     C61159  -2.761   3.703   7.672 -0.2919  0.3752 -0.8979
  464MOL0    Cl61160  -2.835   3.553   7.749 -0.1680 -0.0571 -0.0951
  464MOL0     C61161  -1.721   3.572   7.883 -0.0499 -0.0791  0.2768
  464MOL0     C61162  -1.579   3.565   7.907  0.4063 -0.4441 -0.4610
  464MOL0     O61163  -1.325   3.417   7.812  0.2668  0.2879  0.3691
  464MOL0     C61164  -1.075   3.668   7.796  0.0849  0.0320  0.8161
  464MOL0     C61165  -0.936   3.670   7.793 -0.0309  0.7203 -0.3973
  464MOL0     N61166  -0.188   3.570   7.886 -0.8062  0.2519  0.1867
  464MOL0     N61167  -0.156   3.642   7.984  1.5069 -0.3674  0.4539
  464MOL0     C61168   0.760   3.873   7.707 -0.0693 -0.7930  0.6128
  464MOL0     C61169   0.899   3.888   7.730 -0.5039  0.0709  0.1843
  464MOL0     C61170   1.334   3.787   7.839  0.2195  0.0822  0.6205
  464MOL0     C61171   1.380   3.841   7.966  0.1392 -0.1150  0.6464
  464MOL0     C61172   1.512   3.828   8.012 -0.4064  0.2139  0.2458
  464MOL0     C61173   1.608   3.764   7.941  0.0567  0.1566 -0.5482
  464MOL0     O61174   1.728   3.751   7.995 -0.0340  0.2567 -0.3708
  464MOL0     C61175   1.828   3.843   7.958  0.4979  0.3151  0.6031
  464MOL0     C61176   1.917   3.773   7.854  0.0894 -0.4128 -0.6039
  464MOL0     C61177   2.023   3.880   7.803  0.6029  0.9571 -0.2417
  464MOL0     C61178   2.128   3.918   7.904  0.1763 -0.5984 -0.0827
  464MOL0     C61179   2.238   3.992   7.831  0.0636  0.2066  0.1197
  464MOL0     C61180   2.311   4.057   7.764 -0.5472 -0.1071  0.4246
  464MOL0     C61181   1.572   3.717   7.812 -0.8348 -0.7164  0.3353
  464MOL0     C61182   1.439   3.726   7.766 -0.6427  0.2114  0.3078
  464MOL0     H61183   0.925   3.755   8.039  1.8210 -2.9994 -2.1281
  464MOL0     H61184   0.684   3.743   8.013  2.6523 -1.0528  1.4944
  464MOL0     H61185   0.451   3.829   7.996 -1.4827  1.0727 -0.0272
  464MOL0     H61186   0.473   3.672   7.900 -2.5662 -0.6557 -1.4420
  464MOL0     H61187   0.246   3.771   7.933  0.2127 -1.1881  0.5681
  464MOL0     H61188   0.288   3.719   7.769 -1.4777  0.8700  0.0832
  464MOL0     H61189   0.360   3.988   7.748  1.3074 -2.6081  0.3149
  464MOL0     H61190   0.279   3.999   7.904  2.7250 -0.3531  1.1024
  464MOL0     H61191   0.138   4.069   7.717 -0.9610 -1.1752 -2.2651
  464MOL0     H61192   0.148   3.915   7.638 -0.1095  1.0246 -1.3498
  464MOL0     H61193   0.040   3.815   7.832 -0.6298  0.7558 -0.1822
  464MOL0     H61194  -0.056   3.924   7.738  0.0362 -3.7038  0.0651
  464MOL0     H61195   0.026   4.117   7.914 -0.5915 -0.4476 -1.1634
  464MOL0     H61196   0.079   3.973   8.010  1.1204  1.5765 -1.0241
  464MOL0     H61197  -0.136   4.101   8.066 -0.9468 -0.6637  1.1831
  464MOL0     H61198  -0.195   4.039   7.912  1.5361  1.1472 -1.5585
  464MOL0     H61199  -0.244   3.908   8.141  1.6183  0.6652  1.0511
  464MOL0     H61200  -0.078   3.869   8.127  0.7798 -0.0671  0.4609
  464MOL0     H61201  -0.297   3.867   7.808 -1.4114 -0.5308  0.8199
  464MOL0     H61202  -0.245   3.518   7.638 -3.0121 -1.5699 -1.1772
  464MOL0     H61203  -0.291   3.695   7.610  1.8704  0.4021  2.0445
  464MOL0     H61204  -0.488   3.517   7.597  0.8794 -0.3112  0.0663
  464MOL0     H61205  -0.507   3.668   7.684 -0.3724 -0.3822 -1.3549
  464MOL0     H61206  -0.415   3.404   7.812  0.2406  0.5781  0.8143
  464MOL0     H61207  -0.450   3.553   7.904 -3.5685 -0.3196  1.3412
  464MOL0     H61208  -0.631   3.396   7.914  2.1854 -1.0810 -1.5003
  464MOL0     H61209  -0.663   3.398   7.753 -1.8060  2.0720 -1.6625
  464MOL0     H61210  -0.849   3.370   7.912  1.5727  1.1544 -0.4556
  464MOL0     H61211  -1.087   3.344   7.899  0.8232 -0.6277 -1.6781
  464MOL0     H61212  -1.482   3.823   7.724 -0.5604  1.7546  0.2887
  464MOL0     H61213  -1.726   3.850   7.688 -1.0100 -0.3074 -0.0985
  464MOL0     H61214  -1.904   3.909   7.755  2.7345  2.2419  3.5542
  464MOL0     H61215  -1.942   3.844   7.913 -2.1828  2.7559 -0.7784
  464MOL0     H61216  -2.119   3.892   7.671  2.2378  1.6382  0.4938
  464MOL0     H61217  -2.149   3.937   7.830 -0.5960  0.4693 -0.8844
  464MOL0     H61218  -2.187   3.705   7.892  0.7573 -0.1878 -0.2906
  464MOL0     H61219  -2.145   3.648   7.728  1.0651  0.0632  0.3918
  464MOL0     H61220  -2.382   3.820   7.766 -1.0399 -1.2321  0.3300
  464MOL0     H61221  -2.326   3.774   7.610  0.5999  1.2080  0.0007
  464MOL0     H61222  -2.368   3.574   7.843  0.9167 -0.1565 -0.4540
  464MOL0     H61223  -2.329   3.545   7.674  0.7515  0.9823 -0.2161
  464MOL0     H61224  -2.567   3.506   7.759 -0.5548 -0.3035  1.1567
  464MOL0     H61225  -2.552   3.587   7.601  0.5200 -0.1786  0.4561
  464MOL0     H61226  -2.637   3.721   7.849 -1.3309  2.9866 -0.5422
  464MOL0     H61227  -2.586   3.816   7.717  0.7874 -1.1750 -2.1305
  464MOL0     H61228  -2.752   3.703   7.563 -1.9519 -0.4761 -1.0792
  464MOL0     H61229  -2.821   3.790   7.701 -1.3956 -0.4674 -0.5689
  464MOL0     H61230  -1.789   3.497   7.922 -0.7815  0.3863 -0.0887
  464MOL0     H61231  -1.527   3.490   7.967  5.3606  1.4587 -1.8406
  464MOL0     H61232  -1.122   3.750   7.744  3.7713  0.6647 -1.9216
  464MOL0     H61233  -0.895   3.762   7.754  0.9885 -0.8790 -3.3279
  464MOL0     H61234   0.721   3.897   7.609 -0.5148  1.3987  1.2782
  464MOL0     H61235   0.977   3.927   7.665  1.5110 -1.0402  1.8128
  464MOL0     H61236   1.301   3.881   8.030  0.2045 -1.6400  1.7462
  464MOL0     H61237   1.546   3.867   8.108  0.6952  0.9217 -0.4107
  464MOL0     H61238   1.892   3.864   8.044  0.3710  1.0763  0.5198
  464MOL0     H61239   1.781   3.936   7.924 -1.2066 -0.5778  0.3960
  464MOL0     H61240   1.973   3.691   7.900  0.3930 -1.5750 -2.8642
  464MOL0     H61241   1.855   3.714   7.786  0.3214 -2.8698  1.1732
  464MOL0     H61242   1.986   3.974   7.760  0.3883  1.4271  0.9322
  464MOL0     H61243   2.076   3.830   7.722 -0.5213 -0.1123 -0.3463
  464MOL0     H61244   2.069   3.988   7.964 -3.7670 -0.7626 -3.3138
  464MOL0     H61245   2.168   3.835   7.962 -0.0030 -0.9309 -0.4291
  464MOL0     H61246   2.383   4.121   7.717 -1.3920 -1.3217 -2.7719
  464MOL0     H61247   1.650   3.661   7.761  0.2948 -0.7762  2.0367
  464MOL0     H61248   1.411   3.688   7.668 -1.6983 -1.0596  1.0622
  465MOL0     O61249   2.022  10.199   8.698 -0.3985 -0.2425  0.0164
  465MOL0     C61250   2.061  10.318   8.669  0.0106  1.2974 -0.2410
  465MOL0     O61251   1.984  10.415   8.614  0.3221  0.2602  0.2913
  465MOL0     C61252   1.854  10.380   8.580 -0.2618 -0.9757  0.1637
  465MOL0     C61253   1.818  10.409   8.444  0.3143 -0.6715 -1.4341
  465MOL0     C61254   1.683  10.394   8.404  0.8496  0.1830 -0.4232
  465MOL0     C61255   1.586  10.363   8.500  0.2197  0.3252 -0.2208
  465MOL0     O61256   1.457  10.360   8.446  0.2565 -0.7423 -0.6791
  465MOL0     C61257   1.365  10.272   8.512  0.1250 -0.1700  0.3329
  465MOL0     C61258   1.255  10.208   8.423  0.0323  0.2866  0.6803
  465MOL0     C61259   1.123  10.290   8.415  0.3795 -0.0358 -0.1853
  465MOL0     C61260   1.010  10.219   8.344 -0.0214  0.5183 -0.9884
  465MOL0     C61261   0.894  10.317   8.335 -0.4529  0.5011 -0.3794
  465MOL0     C61262   0.790  10.234   8.255  0.2430  0.0696  0.7067
  465MOL0     C61263   0.651  10.299   8.255  0.7426 -0.1442  1.1385
  465MOL0     C61264   0.551  10.227   8.164 -0.3412  0.2465  0.7979
  465MOL0     N61265   0.578  10.233   8.023  0.1378  0.5262  0.5754
  465MOL0     C61266   0.617  10.348   7.956 -0.1130 -0.5945  0.0559
  465MOL0     C61267   0.628  10.315   7.827  0.5842 -0.4069 -0.6650
  465MOL0     C61268   0.640  10.407   7.708 -0.3278  0.8824  0.0943
  465MOL0     C61269   0.762  10.387   7.623 -0.1662 -0.0661  0.0680
  465MOL0     C61270   0.900  10.408   7.687 -0.4828  0.1889 -0.5466
  465MOL0     C61271   0.903  10.560   7.722 -0.4778  0.7500  0.1012
  465MOL0     O61272   1.036  10.593   7.766  0.0077 -0.4387 -0.8153
  465MOL0     C61273   1.147  10.614   7.686  0.1402  0.5818  0.1185
  465MOL0     C61274   1.266  10.609   7.741 -1.2878 -0.2736 -0.4160
  465MOL0     C61275   1.383  10.632   7.672  0.1360  0.0254 -0.3630
  465MOL0     C61276   1.385  10.633   7.532  0.2572 -0.4121  0.7221
  465MOL0     C61277   1.514  10.654   7.452 -0.6614 -0.3069 -0.1503
  465MOL0     O61278   1.496  10.664   7.319 -0.1642  0.3774  0.3931
  465MOL0     C61279   1.607  10.673   7.239  0.3430  0.4536  0.5026
  465MOL0     C61280   1.618  10.785   7.171 -0.6754  0.1884  0.5936
  465MOL0     C61281   1.732  10.807   7.087  0.3931 -0.7512  0.2912
  465MOL0     C61282   1.833  10.704   7.068  0.6916  0.1035  0.2319
  465MOL0     O61283   1.936  10.721   6.988 -0.4854 -0.1595  0.3532
  465MOL0     C61284   2.034  10.618   6.979  0.2701 -0.5466 -0.1191
  465MOL0     C61285   2.141  10.672   6.892  0.0807 -0.1782  0.2109
  465MOL0     C61286   2.222  10.558   6.843  0.3940  0.3542 -0.2497
  465MOL0     C61287   2.359  10.581   6.790 -0.5235 -1.0759 -0.4992
  465MOL0     C61288   2.416  10.466   6.709 -0.3335  0.2028  0.2197
  465MOL0     C61289   2.566  10.494   6.659  0.8019  0.0317 -0.8239
  465MOL0     C61290   2.602  10.430   6.522 -0.2286 -0.0479 -0.9678
  465MOL0     C61291   2.703  10.520   6.445  0.5655  1.1243 -0.0897
  465MOL0    Cl61292   2.714  10.418   6.294  0.0130  0.3090  0.0011
  465MOL0     C61293   1.812  10.594   7.149 -0.1943  0.2577 -0.7379
  465MOL0     C61294   1.701  10.580   7.237  0.9971 -0.7499  0.6455
  465MOL0     O61295   1.616  10.665   7.514  0.2809  0.7815 -0.1008
  465MOL0     C61296   1.257  10.646   7.470 -0.1650 -0.3224 -0.1570
  465MOL0     C61297   1.138  10.635   7.545  0.7583  0.4157 -0.2924
  465MOL0     N61298   0.610  10.177   7.818  0.2207 -0.0385 -0.3726
  465MOL0     N61299   0.563  10.133   7.929  0.2000  0.4837 -0.6544
  465MOL0     C61300   1.625  10.325   8.632  0.7900  0.7558  0.9018
  465MOL0     C61301   1.762  10.326   8.666  0.8040  0.0819 -0.4352
  465MOL0     C61302   2.201  10.352   8.688  0.0927 -0.4186 -1.6645
  465MOL0     C61303   2.299  10.251   8.706 -0.7508  0.7738 -0.1638
  465MOL0     C61304   2.428  10.298   8.743 -0.0327  0.7659  0.0243
  465MOL0     C61305   2.464  10.432   8.766  0.3452  0.5085  0.2974
  465MOL0     O61306   2.573  10.471   8.834  0.0060  0.0592  0.2682
  465MOL0     C61307   2.658  10.367   8.897  0.9450 -0.3071  0.0572
  465MOL0     C61308   2.768  10.307   8.809  0.0692  0.0991  0.2417
  465MOL0     C61309   2.861  10.422   8.778 -0.1900 -0.4943  1.5334
  465MOL0     C61310   2.960  10.374   8.663 -0.4098 -0.7614  0.4325
  465MOL0     C61311   3.053  10.489   8.629 -0.6227  0.0893  0.2649
  465MOL0     C61312   3.132  10.578   8.619  0.1722  0.6078 -0.0406
  465MOL0     C61313   2.373  10.529   8.733  0.4982 -0.4671  0.3175
  465MOL0     C61314   2.240  10.491   8.692 -0.0693  1.2391 -0.1275
  465MOL0     H61315   1.899  10.431   8.376  0.5219  0.2814 -0.8859
  465MOL0     H61316   1.652  10.411   8.301 -2.1891  1.8373  0.6349
  465MOL0     H61317   1.320  10.310   8.604  0.4860 -0.4139  0.6151
  465MOL0     H61318   1.428  10.186   8.539  0.0671 -0.3702 -0.1602
  465MOL0     H61319   1.225  10.116   8.473 -2.3060  1.0399  0.7831
  465MOL0     H61320   1.299  10.184   8.326  0.0235 -1.4735  1.0903
  465MOL0     H61321   1.133  10.386   8.364 -1.8329  0.3012 -0.0829
  465MOL0     H61322   1.087  10.308   8.517 -1.1958  1.8782 -1.0058
  465MOL0     H61323   1.058  10.193   8.249  3.6919  1.4775  0.4241
  465MOL0     H61324   0.979  10.138   8.410  1.2653 -0.4043 -1.4741
  465MOL0     H61325   0.922  10.410   8.284  1.7380  0.0879 -0.0138
  465MOL0     H61326   0.860  10.336   8.437 -0.1150  1.0914 -0.3723
  465MOL0     H61327   0.784  10.134   8.300 -0.2233  0.2804  1.1308
  465MOL0     H61328   0.827  10.228   8.153 -3.7301 -2.4985 -0.8004
  465MOL0     H61329   0.615  10.297   8.358  1.8349 -2.1123  1.5433
  465MOL0     H61330   0.670  10.402   8.223 -0.2956 -1.0098 -2.8684
  465MOL0     H61331   0.457  10.279   8.186 -0.6833 -1.3065  3.5337
  465MOL0     H61332   0.550  10.122   8.193 -3.0995  0.1047  0.4646
  465MOL0     H61333   0.630  10.451   7.989  0.8291  0.1173 -2.2741
  465MOL0     H61334   0.626  10.511   7.740 -0.4751  1.0744 -0.5747
  465MOL0     H61335   0.552  10.387   7.648  0.6107  0.7535 -1.2844
  465MOL0     H61336   0.754  10.453   7.536 -1.1425  0.4413  0.5303
  465MOL0     H61337   0.771  10.286   7.583  1.6901 -1.1919  2.9440
  465MOL0     H61338   0.918  10.344   7.774  2.2301 -0.7425 -1.6885
  465MOL0     H61339   0.977  10.379   7.615 -0.7191 -0.5411 -0.5150
  465MOL0     H61340   0.840  10.566   7.811 -2.0410 -1.5768 -0.7507
  465MOL0     H61341   0.863  10.620   7.639  0.2988  1.9781  0.5813
  465MOL0     H61342   1.271  10.614   7.849  0.7009  2.0096 -0.5221
  465MOL0     H61343   1.475  10.662   7.722 -0.1267  1.6129 -0.7753
  465MOL0     H61344   1.550  10.869   7.186 -2.3577 -0.9221 -0.3723
  465MOL0     H61345   1.753  10.895   7.028 -1.1396 -0.8843 -0.4911
  465MOL0     H61346   1.988  10.533   6.928  0.0281  1.1245 -2.9062
  465MOL0     H61347   2.073  10.584   7.075 -1.9783 -0.3560  0.9366
  465MOL0     H61348   2.188  10.745   6.959  2.0508  1.8000 -3.0280
  465MOL0     H61349   2.085  10.730   6.818  0.6500  1.2811  0.8927
  465MOL0     H61350   2.166  10.515   6.759 -0.4643  0.3926  0.2874
  465MOL0     H61351   2.230  10.477   6.916  0.6522 -1.0340 -1.7451
  465MOL0     H61352   2.353  10.665   6.720  2.0519 -1.6653 -1.5498
  465MOL0     H61353   2.425  10.600   6.876 -1.4162 -0.6830  0.1132
  465MOL0     H61354   2.346  10.461   6.626 -0.5108 -2.3194  0.4246
  465MOL0     H61355   2.416  10.386   6.784  1.8659  3.6358  4.3812
  465MOL0     H61356   2.634  10.454   6.736  1.2133  0.1101 -1.1434
  465MOL0     H61357   2.580  10.601   6.647 -1.0156  0.2099 -1.6292
  465MOL0     H61358   2.652  10.336   6.547 -1.7060 -0.9965 -1.4475
  465MOL0     H61359   2.516  10.420   6.456 -0.9930  3.6295 -0.7070
  465MOL0     H61360   2.801  10.534   6.491  0.5922  0.4463  0.0723
  465MOL0     H61361   2.666  10.620   6.420  1.3297  1.3366 -0.3652
  465MOL0     H61362   1.889  10.518   7.154 -0.8886 -0.4445 -0.3897
  465MOL0     H61363   1.691  10.494   7.303 -0.2537 -0.2013  1.2079
  465MOL0     H61364   1.262  10.661   7.363  0.6305  0.8687  0.0291
  465MOL0     H61365   1.039  10.639   7.502  1.0082 -1.2075 -1.1271
  465MOL0     H61366   1.545  10.290   8.696  0.1298  0.8492  0.1497
  465MOL0     H61367   1.795  10.291   8.763  0.2324  0.0215 -0.2567
  465MOL0     H61368   2.271  10.147   8.691  0.1690  0.5701 -0.5445
  465MOL0     H61369   2.505  10.222   8.749 -0.4642  0.2590 -0.6704
  465MOL0     H61370   2.598  10.283   8.934 -0.9104  0.3636 -1.2753
  465MOL0     H61371   2.711  10.415   8.980 -0.6761  0.6036  0.6219
  465MOL0     H61372   2.819  10.223   8.857  1.1646  0.2042 -0.6797
  465MOL0     H61373   2.724  10.258   8.721 -0.4418  0.6968  0.1603
  465MOL0     H61374   2.916  10.464   8.863  1.1264  0.1361  0.4235
  465MOL0     H61375   2.812  10.513   8.741  2.2594  0.5954  0.7392
  465MOL0     H61376   3.028  10.296   8.700  3.2743  2.3516  0.9118
  465MOL0     H61377   2.917  10.332   8.572  0.2912 -0.9948  0.2033
  465MOL0     H61378   3.207  10.654   8.607 -1.9826  3.1872  1.6753
  465MOL0     H61379   2.412  10.629   8.749 -0.1230 -0.2369  0.4242
  465MOL0     H61380   2.165  10.567   8.673 -2.1124 -0.3439  1.1915
  466MOL0     O61381   3.770   8.540   3.918 -0.6236 -0.8243 -0.2849
  466MOL0     C61382   3.829   8.434   3.947 -0.6885  0.3394  0.9340
  466MOL0     O61383   3.772   8.311   3.965  0.0549 -0.0816 -0.4323
  466MOL0     C61384   3.644   8.308   3.936 -0.5409  0.0958  0.3281
  466MOL0     C61385   3.545   8.349   4.022 -0.2443  0.1476 -0.2068
  466MOL0     C61386   3.401   8.342   3.995  0.6340 -0.3103 -0.7354
  466MOL0     C61387   3.349   8.295   3.882  0.4790  0.2399 -0.2878
  466MOL0     O61388   3.216   8.284   3.848 -0.1881 -0.1933  0.1246
  466MOL0     C61389   3.114   8.300   3.956 -0.2895  0.2004  0.4625
  466MOL0     C61390   2.985   8.326   3.885 -0.2950 -0.0706 -0.2275
  466MOL0     C61391   2.940   8.190   3.831  0.0194  0.6114  0.0320
  466MOL0     C61392   2.806   8.196   3.753 -0.1025 -0.0407 -1.5628
  466MOL0     C61393   2.693   8.110   3.817  0.1309  0.7256  0.2631
  466MOL0     C61394   2.565   8.126   3.737  0.6037  0.5785  1.1437
  466MOL0     C61395   2.559   8.062   3.595  0.4320  0.4573 -0.0323
  466MOL0     C61396   2.431   8.053   3.520  0.4422 -0.6724  0.1071
  466MOL0     N61397   2.362   8.184   3.500 -0.2010  0.1954 -0.0256
  466MOL0     C61398   2.244   8.213   3.564  0.3485  0.4004 -0.4775
  466MOL0     C61399   2.204   8.326   3.505  1.2144 -0.3943  0.2721
  466MOL0     C61400   2.074   8.400   3.539 -0.1679  0.3476  0.1582
  466MOL0     C61401   1.949   8.348   3.476  0.2617 -0.6954  0.6350
  466MOL0     C61402   1.826   8.417   3.551 -0.7165 -0.2761 -0.1159
  466MOL0     C61403   1.717   8.463   3.462 -0.2982 -0.3213 -0.1013
  466MOL0     O61404   1.655   8.358   3.381 -0.4872  0.7163  0.2812
  466MOL0     C61405   1.523   8.338   3.389  0.4244 -0.3857 -0.1207
  466MOL0     C61406   1.472   8.321   3.522 -0.0279  0.4230  1.0767
  466MOL0     C61407   1.344   8.300   3.539 -0.2315 -0.0737  0.2714
  466MOL0     C61408   1.254   8.286   3.430  0.4507 -0.0687  1.0977
  466MOL0     C61409   1.108   8.253   3.456 -0.3922 -0.4069 -0.6422
  466MOL0     O61410   1.056   8.193   3.349 -0.1735  0.5663  0.7553
  466MOL0     C61411   0.940   8.113   3.350  0.0458 -0.3263 -0.2740
  466MOL0     C61412   0.823   8.127   3.438 -0.2335 -0.5518 -0.1382
  466MOL0     C61413   0.719   8.032   3.423  0.2727 -0.2052  0.5738
  466MOL0     C61414   0.706   7.939   3.317  0.0184 -0.7191  0.0606
  466MOL0     O61415   0.594   7.865   3.299 -0.0796 -0.2743 -0.1274
  466MOL0     C61416   0.515   7.836   3.413  0.1199 -0.9186 -1.1934
  466MOL0     C61417   0.403   7.743   3.374  0.6495  0.0605  0.0448
  466MOL0     C61418   0.310   7.794   3.260 -0.0574  0.8090 -1.2554
  466MOL0     C61419   0.201   7.687   3.242  0.5262 -0.3152 -0.8091
  466MOL0     C61420   0.094   7.745   3.148  0.1073 -0.2683 -0.2840
  466MOL0     C61421   0.010   7.860   3.199 -0.1235  0.7357 -0.1923
  466MOL0     C61422  -0.096   7.908   3.098 -0.1418  0.2287  0.7357
  466MOL0     C61423  -0.172   8.026   3.154  0.3289 -0.4504 -1.3330
  466MOL0    Cl61424  -0.303   7.958   3.264 -0.4081  0.3155 -0.0184
  466MOL0     C61425   0.813   7.924   3.236 -0.0693  0.0505  0.2164
  466MOL0     C61426   0.928   8.010   3.254 -0.1670 -0.6463  0.7822
  466MOL0     O61427   1.056   8.264   3.564 -0.0485 -0.2839  0.0265
  466MOL0     C61428   1.304   8.315   3.298 -0.8017  0.0252  0.8944
  466MOL0     C61429   1.439   8.335   3.282  0.1584  0.5575  0.4436
  466MOL0     N61430   2.288   8.362   3.399 -0.5584 -0.2325 -0.0286
  466MOL0     N61431   2.383   8.279   3.404 -0.1340  0.5319  0.0210
  466MOL0     C61432   3.448   8.247   3.784 -0.0299 -0.0068 -0.7144
  466MOL0     C61433   3.588   8.251   3.816 -1.0528  0.4757 -0.5136
  466MOL0     C61434   3.978   8.436   3.919 -0.5120  0.2471  0.4278
  466MOL0     C61435   4.053   8.550   3.947 -0.1443 -0.2549  0.6790
  466MOL0     C61436   4.194   8.536   3.946  0.8979 -0.2540  0.0682
  466MOL0     C61437   4.259   8.412   3.927  0.2161 -0.8432  1.2899
  466MOL0     O61438   4.388   8.388   3.946  0.3777  0.8967 -0.4724
  466MOL0     C61439   4.492   8.483   3.962 -0.2846 -1.0318 -0.0529
  466MOL0     C61440   4.602   8.494   3.861  0.2254 -0.0964  0.3331
  466MOL0     C61441   4.699   8.605   3.880  0.1319  0.1136  0.3555
  466MOL0     C61442   4.778   8.647   3.755  0.3326 -0.7423  0.4293
  466MOL0     C61443   4.888   8.741   3.779  1.1198 -0.6808  0.3919
  466MOL0     C61444   4.978   8.814   3.792  0.4877 -0.6026  1.0477
  466MOL0     C61445   4.178   8.301   3.890 -0.8551 -0.4462  0.3209
  466MOL0     C61446   4.036   8.316   3.883 -0.7649  0.9040  0.1230
  466MOL0     H61447   3.571   8.380   4.122  1.5476 -0.3861 -0.4806
  466MOL0     H61448   3.342   8.376   4.080  1.8410 -1.2647  0.5164
  466MOL0     H61449   3.140   8.389   4.014 -0.9666 -0.9810  2.6923
  466MOL0     H61450   3.103   8.219   4.028  0.9539 -1.1603 -0.8082
  466MOL0     H61451   3.003   8.390   3.799 -2.9713 -1.6250 -2.0852
  466MOL0     H61452   2.914   8.381   3.948  0.6256 -0.1291  0.9173
  466MOL0     H61453   2.923   8.130   3.921  1.4894  1.8209  1.1859
  466MOL0     H61454   3.018   8.146   3.769  0.0991 -2.7449  2.2488
  466MOL0     H61455   2.760   8.294   3.754  0.4880  0.2570  0.1065
  466MOL0     H61456   2.815   8.152   3.653  0.5805  0.8557 -1.9075
  466MOL0     H61457   2.672   8.142   3.920  2.7071 -0.1685  1.1600
  466MOL0     H61458   2.723   8.005   3.825 -0.9120  0.4902  1.3371
  466MOL0     H61459   2.541   8.233   3.733  1.1985  0.7081  0.8418
  466MOL0     H61460   2.480   8.085   3.792 -0.1550 -0.1694 -0.5108
  466MOL0     H61461   2.635   8.116   3.537 -0.5393  0.3666 -1.4127
  466MOL0     H61462   2.586   7.956   3.602  2.8051  0.8222 -2.2805
  466MOL0     H61463   2.361   7.988   3.574 -0.5003  0.1489 -0.0929
  466MOL0     H61464   2.443   8.001   3.425 -2.0592 -1.0395 -0.0849
  466MOL0     H61465   2.190   8.151   3.634 -1.2826 -0.6903 -2.5875
  466MOL0     H61466   2.076   8.500   3.497  0.6881 -0.4021 -1.7004
  466MOL0     H61467   2.063   8.395   3.648  2.2438 -2.3464  0.4144
  466MOL0     H61468   1.933   8.241   3.494 -1.6489 -0.8065 -1.3258
  466MOL0     H61469   1.961   8.381   3.372  0.5594 -0.8711  0.6121
  466MOL0     H61470   1.787   8.361   3.637 -0.4775  2.2966  1.7991
  466MOL0     H61471   1.862   8.511   3.592 -0.7302  0.5044 -1.8211
  466MOL0     H61472   1.758   8.531   3.386 -2.9213  0.0580 -1.2953
  466MOL0     H61473   1.637   8.513   3.517 -1.3677 -2.3161  0.2421
  466MOL0     H61474   1.542   8.295   3.601  4.1717 -0.0412 -2.4206
  466MOL0     H61475   1.313   8.279   3.641  2.5449  0.2761  1.2620
  466MOL0     H61476   0.831   8.199   3.518  1.2275 -0.6319 -0.1846
  466MOL0     H61477   0.632   8.054   3.485  0.5328 -0.0431  0.8882
  466MOL0     H61478   0.451   7.912   3.460  0.1881 -1.1900 -0.6443
  466MOL0     H61479   0.584   7.797   3.489 -0.3365  2.0735  0.9387
  466MOL0     H61480   0.334   7.733   3.458  1.2747  2.2722  0.8801
  466MOL0     H61481   0.447   7.648   3.342 -1.2018  0.3423 -3.8788
  466MOL0     H61482   0.356   7.812   3.163  4.2280  0.8935  0.5524
  466MOL0     H61483   0.270   7.892   3.285  2.9191  1.9487 -0.5743
  466MOL0     H61484   0.251   7.603   3.194 -2.0101 -2.2549 -0.2300
  466MOL0     H61485   0.162   7.649   3.337  3.9075  1.4035  1.4902
  466MOL0     H61486   0.022   7.664   3.135  1.3336 -1.2563 -1.1617
  466MOL0     H61487   0.129   7.765   3.047  0.8963 -1.9660 -0.3764
  466MOL0     H61488   0.075   7.946   3.220 -0.0330  0.7963 -0.6875
  466MOL0     H61489  -0.039   7.823   3.289  1.0259 -0.8182 -0.1680
  466MOL0     H61490  -0.026   7.929   3.017  1.6307 -1.2090  1.8010
  466MOL0     H61491  -0.168   7.829   3.076  1.1921 -2.4510  4.7570
  466MOL0     H61492  -0.205   8.103   3.084 -0.7559 -1.5052 -2.0452
  466MOL0     H61493  -0.105   8.084   3.218  0.8470 -0.0338 -2.2454
  466MOL0     H61494   0.811   7.844   3.163  1.8487  2.0792 -2.2656
  466MOL0     H61495   1.012   7.997   3.186  0.1228  1.9883  0.5214
  466MOL0     H61496   1.235   8.320   3.215 -1.5893  1.8227  1.5989
  466MOL0     H61497   1.478   8.337   3.181 -2.0188  2.4673 -0.4363
  466MOL0     H61498   3.422   8.206   3.687 -0.1529 -2.6065  0.3471
  466MOL0     H61499   3.662   8.211   3.747 -0.7638 -2.8374  1.5328
  466MOL0     H61500   4.001   8.642   3.970 -0.8013 -0.5699  0.4600
  466MOL0     H61501   4.255   8.626   3.950  3.4402 -1.8599 -0.0759
  466MOL0     H61502   4.545   8.463   4.056  0.7963  3.1429  0.4603
  466MOL0     H61503   4.454   8.584   3.983  1.5376  0.2199 -2.3589
  466MOL0     H61504   4.663   8.404   3.850 -0.4550 -0.5992  0.5533
  466MOL0     H61505   4.553   8.515   3.765 -1.0372 -0.9610  0.7605
  466MOL0     H61506   4.759   8.568   3.964 -0.1521 -0.2817  0.3886
  466MOL0     H61507   4.660   8.699   3.919  1.4191  0.1349  1.6967
  466MOL0     H61508   4.806   8.564   3.690  1.4286  0.2542 -0.4164
  466MOL0     H61509   4.705   8.690   3.686  0.9858 -0.4281 -0.0748
  466MOL0     H61510   5.067   8.872   3.803  0.2863 -0.3012  1.1042
  466MOL0     H61511   4.222   8.202   3.884  1.4386  0.5773 -1.8704
  466MOL0     H61512   3.981   8.228   3.853  0.9858  0.8180 -3.2879
  467MOL0     O61513   7.271   2.934   2.742  0.7453 -0.3561 -0.3079
  467MOL0     C61514   7.275   2.861   2.836 -0.5570  0.2923 -0.2470
  467MOL0     O61515   7.393   2.805   2.873 -0.3722  0.0838 -0.7118
  467MOL0     C61516   7.508   2.858   2.822  0.2842 -0.6439  0.3080
  467MOL0     C61517   7.535   2.994   2.823  0.2392 -0.8013 -0.1114
  467MOL0     C61518   7.656   3.047   2.772 -0.3583 -0.0066 -0.4425
  467MOL0     C61519   7.742   2.961   2.705 -0.3728 -0.2351  0.8044
  467MOL0     O61520   7.857   3.009   2.647 -0.1958  0.3724  0.6525
  467MOL0     C61521   7.974   2.928   2.677 -0.2147 -0.3599 -0.7074
  467MOL0     C61522   8.111   2.994   2.672 -0.3554 -0.0788 -0.2149
  467MOL0     C61523   8.146   3.032   2.525  0.7789  0.9467  0.2193
  467MOL0     C61524   8.289   3.077   2.497  0.0779  0.0505 -0.7861
  467MOL0     C61525   8.310   3.221   2.475  0.1306  0.5172 -0.0808
  467MOL0     C61526   8.276   3.311   2.602 -1.0069 -0.5416  0.4647
  467MOL0     C61527   8.381   3.284   2.699  0.2543 -0.6327  0.0843
  467MOL0     C61528   8.413   3.409   2.785 -0.2481  0.2081 -0.6066
  467MOL0     N61529   8.494   3.364   2.896  0.2241 -0.2510 -0.1475
  467MOL0     C61530   8.441   3.297   3.005  0.4902  0.5164  0.7986
  467MOL0     C61531   8.543   3.282   3.093  0.0658 -0.4990  0.6824
  467MOL0     C61532   8.534   3.224   3.232  0.6709 -0.9778  0.3873
  467MOL0     C61533   8.556   3.334   3.334  0.0568 -0.5213 -0.0738
  467MOL0     C61534   8.511   3.278   3.476 -0.1702  0.0922  0.1447
  467MOL0     C61535   8.362   3.237   3.493  0.1856  0.4490  0.6677
  467MOL0     O61536   8.286   3.323   3.408  0.9797 -0.2559 -0.8126
  467MOL0     C61537   8.161   3.349   3.458  0.3584 -1.0017 -0.2115
  467MOL0     C61538   8.084   3.263   3.548 -0.6715 -0.4436  0.5424
  467MOL0     C61539   7.950   3.298   3.558 -0.1576 -0.0929  0.5026
  467MOL0     C61540   7.888   3.408   3.501 -0.4207  0.1680  0.0082
  467MOL0     C61541   7.746   3.435   3.504  1.4124  0.0953 -0.3261
  467MOL0     O61542   7.665   3.326   3.527  0.0398  0.3353  0.0307
  467MOL0     C61543   7.531   3.337   3.531 -0.4468  0.5386 -0.4051
  467MOL0     C61544   7.450   3.332   3.417  0.0604  0.6642 -0.5795
  467MOL0     C61545   7.310   3.329   3.428  0.4158 -0.1380 -0.5039
  467MOL0     C61546   7.255   3.329   3.559  0.4134 -0.7547 -0.1277
  467MOL0     O61547   7.116   3.327   3.581 -0.0777 -0.4064  0.1157
  467MOL0     C61548   7.027   3.326   3.474  0.6108  0.0108  0.2093
  467MOL0     C61549   6.891   3.342   3.544  0.7335  0.3290 -0.3957
  467MOL0     C61550   6.774   3.335   3.448 -0.3031 -0.3466  0.4105
  467MOL0     C61551   6.647   3.374   3.519 -0.7783 -0.0496 -0.3198
  467MOL0     C61552   6.522   3.333   3.432 -0.5049  0.0317 -0.2857
  467MOL0     C61553   6.385   3.350   3.497 -0.3392 -0.8868 -0.5795
  467MOL0     C61554   6.259   3.306   3.419 -0.1220 -0.0710 -0.9020
  467MOL0     C61555   6.237   3.383   3.297  0.6417  0.3054  0.2402
  467MOL0    Cl61556   6.070   3.378   3.246  0.0506 -0.3033  0.1195
  467MOL0     C61557   7.341   3.333   3.670 -0.5839  0.2125  1.2519
  467MOL0     C61558   7.478   3.331   3.657  0.2476  0.0355 -1.1132
  467MOL0     O61559   7.711   3.555   3.516 -0.4393 -0.1596 -0.3820
  467MOL0     C61560   7.974   3.500   3.432  0.3396  0.1449  0.0570
  467MOL0     C61561   8.103   3.468   3.403 -1.1584  1.0185  0.1556
  467MOL0     N61562   8.654   3.331   3.023 -0.3648 -0.8627 -0.5316
  467MOL0     N61563   8.630   3.368   2.912  0.2180 -0.1739 -0.5490
  467MOL0     C61564   7.714   2.820   2.703  0.4918 -0.1934  0.7173
  467MOL0     C61565   7.591   2.778   2.747  0.6424 -0.0335 -0.2236
  467MOL0     C61566   7.157   2.835   2.908  0.2503  1.0509 -0.3287
  467MOL0     C61567   7.051   2.924   2.902  0.1842 -0.1620  0.0275
  467MOL0     C61568   6.932   2.905   2.962  0.5713  0.3123  0.7936
  467MOL0     C61569   6.905   2.785   3.031 -0.5134  0.2185  0.2555
  467MOL0     O61570   6.781   2.765   3.084  0.1940  0.2333  0.8966
  467MOL0     C61571   6.667   2.743   2.989 -0.0590 -0.4533 -0.2626
  467MOL0     C61572   6.630   2.595   2.988 -0.2919 -0.6691  0.0645
  467MOL0     C61573   6.601   2.517   3.115 -0.5104 -0.7354  0.0592
  467MOL0     C61574   6.517   2.393   3.092  0.3945  1.0399 -0.3007
  467MOL0     C61575   6.447   2.354   3.217  0.6436 -0.4182  0.4881
  467MOL0     C61576   6.376   2.324   3.305  0.0881 -0.5273  0.4873
  467MOL0     C61577   7.009   2.685   3.035 -0.4812  0.1219  0.4055
  467MOL0     C61578   7.133   2.717   2.973 -0.2569 -0.2241 -0.5880
  467MOL0     H61579   7.475   3.060   2.885  0.1086 -2.5895  1.8023
  467MOL0     H61580   7.683   3.152   2.781  0.1015  0.0221 -1.9198
  467MOL0     H61581   7.965   2.841   2.611  0.0676  0.3033 -1.6400
  467MOL0     H61582   7.964   2.895   2.781  1.3916  1.0859 -0.0494
  467MOL0     H61583   8.193   2.930   2.708 -1.3294 -0.6616  1.0765
  467MOL0     H61584   8.106   3.085   2.732  0.6405  1.0348 -1.7603
  467MOL0     H61585   8.075   3.104   2.481 -0.8283 -0.5739  0.2003
  467MOL0     H61586   8.130   2.938   2.471 -1.1326  0.6618  1.1832
  467MOL0     H61587   8.366   3.045   2.568 -0.1609  0.8322 -0.1624
  467MOL0     H61588   8.319   3.017   2.411  2.6415 -3.3403  2.1785
  467MOL0     H61589   8.247   3.257   2.392  1.5928  3.3829 -0.0644
  467MOL0     H61590   8.412   3.240   2.441  0.5789 -1.1083  0.2694
  467MOL0     H61591   8.174   3.295   2.636 -1.2963  1.1504  0.4814
  467MOL0     H61592   8.282   3.412   2.559  0.1755 -2.3214 -4.1730
  467MOL0     H61593   8.349   3.202   2.764 -3.3615  1.2645  0.9851
  467MOL0     H61594   8.475   3.271   2.644  1.3532  2.0808  1.1366
  467MOL0     H61595   8.320   3.458   2.817  0.4715  0.3106  1.4147
  467MOL0     H61596   8.478   3.474   2.725 -1.4170  1.7079 -0.3215
  467MOL0     H61597   8.343   3.250   3.010  1.6787 -2.3176 -0.4485
  467MOL0     H61598   8.613   3.150   3.245  3.8489  1.9480 -0.6197
  467MOL0     H61599   8.434   3.182   3.248 -0.5085  0.9523 -1.3507
  467MOL0     H61600   8.491   3.419   3.313  1.9198  1.0173  0.1266
  467MOL0     H61601   8.659   3.372   3.333  0.0585 -0.2907  2.4411
  467MOL0     H61602   8.579   3.198   3.506  0.2333  1.6761  3.8869
  467MOL0     H61603   8.538   3.356   3.547 -0.2832 -0.6406  1.0102
  467MOL0     H61604   8.342   3.251   3.599  3.8524  2.1023  1.2744
  467MOL0     H61605   8.342   3.134   3.460 -0.6642  1.5362 -2.5453
  467MOL0     H61606   8.126   3.169   3.580 -0.6944  0.1098  2.2808
  467MOL0     H61607   7.881   3.240   3.619  0.1018  0.1591  1.0529
  467MOL0     H61608   7.488   3.339   3.316 -1.8923  4.0429 -1.2110
  467MOL0     H61609   7.249   3.327   3.339 -1.7428  0.8666  0.8703
  467MOL0     H61610   7.037   3.238   3.409 -0.4822 -0.7258  1.0006
  467MOL0     H61611   7.027   3.419   3.417 -1.2855 -0.3941 -0.5392
  467MOL0     H61612   6.907   3.440   3.590 -0.0202 -0.7349  2.3739
  467MOL0     H61613   6.879   3.263   3.619  0.6996 -0.4607 -1.2214
  467MOL0     H61614   6.767   3.229   3.419  1.0668  0.0143 -1.4447
  467MOL0     H61615   6.793   3.389   3.355  0.5461  1.4374  1.5749
  467MOL0     H61616   6.649   3.326   3.618  1.2851  1.8679  0.6650
  467MOL0     H61617   6.640   3.481   3.538 -1.7492 -0.5599  2.9272
  467MOL0     H61618   6.530   3.230   3.396  0.7736 -0.8069  2.1982
  467MOL0     H61619   6.532   3.394   3.342  0.9543  0.3217  0.0604
  467MOL0     H61620   6.380   3.458   3.512 -1.8903 -0.7208 -1.9619
  467MOL0     H61621   6.385   3.301   3.594  0.9462  1.5212  0.7307
  467MOL0     H61622   6.254   3.197   3.407  0.8322 -0.0049 -2.1116
  467MOL0     H61623   6.183   3.346   3.486 -0.8676  1.0078 -2.3485
  467MOL0     H61624   6.294   3.339   3.214 -2.5218 -0.7418 -1.5518
  467MOL0     H61625   6.260   3.489   3.303 -1.3271  0.9816 -2.1728
  467MOL0     H61626   7.284   3.320   3.761  0.4614  0.5718  1.9782
  467MOL0     H61627   7.536   3.313   3.747 -0.2532  0.1516 -0.7624
  467MOL0     H61628   7.926   3.582   3.379 -0.9219 -0.2203  0.5937
  467MOL0     H61629   8.152   3.528   3.328 -1.1061 -0.1666 -0.8003
  467MOL0     H61630   7.775   2.743   2.657 -0.8190 -0.6652 -0.2847
  467MOL0     H61631   7.565   2.673   2.737 -1.7742  0.4469  0.3197
  467MOL0     H61632   7.057   3.014   2.842 -3.4060 -0.6944 -1.4288
  467MOL0     H61633   6.849   2.974   2.950  1.9858  2.2996  1.9843
  467MOL0     H61634   6.686   2.791   2.893  1.3494  0.1923  0.3028
  467MOL0     H61635   6.580   2.799   3.025 -0.6899 -0.8556 -1.1402
  467MOL0     H61636   6.542   2.588   2.924 -1.9182  0.0076  2.1011
  467MOL0     H61637   6.712   2.543   2.938  0.6545  1.1285 -0.3493
  467MOL0     H61638   6.546   2.586   3.179  0.1610  0.6023 -0.7435
  467MOL0     H61639   6.695   2.479   3.156 -0.0270  0.5136  0.1594
  467MOL0     H61640   6.444   2.417   3.014  0.2983  3.7407  0.5196
  467MOL0     H61641   6.570   2.306   3.053 -0.5389 -0.5622  1.8197
  467MOL0     H61642   6.306   2.310   3.385 -2.2823 -0.2905 -1.4250
  467MOL0     H61643   6.988   2.585   3.070 -2.4512  0.2100 -0.3987
  467MOL0     H61644   7.204   2.635   2.973  0.0676  0.0474 -1.5375
  468MOL0     O61645   0.285   5.986   5.494 -0.3957 -1.2418 -0.5342
  468MOL0     C61646   0.245   5.879   5.450 -0.2772 -0.4906 -0.5034
  468MOL0     O61647   0.114   5.850   5.417  0.2935 -0.3260 -0.2064
  468MOL0     C61648   0.020   5.949   5.452  0.7990 -0.7171  0.0069
  468MOL0     C61649  -0.011   6.053   5.362  0.3339 -0.0988 -0.0428
  468MOL0     C61650  -0.116   6.137   5.389  0.4540 -0.3337  0.5685
  468MOL0     C61651  -0.181   6.139   5.512  0.0062  0.4509  0.0580
  468MOL0     O61652  -0.276   6.232   5.529  0.0136  0.3660  0.2818
  468MOL0     C61653  -0.393   6.196   5.611 -0.9761  1.2753 -0.7655
  468MOL0     C61654  -0.499   6.303   5.569 -0.6911 -0.3671 -0.3476
  468MOL0     C61655  -0.610   6.301   5.670  0.3706  0.7947  0.4966
  468MOL0     C61656  -0.720   6.410   5.648  0.1033  0.0323  0.5912
  468MOL0     C61657  -0.807   6.429   5.776 -0.9143 -0.2423  0.0449
  468MOL0     C61658  -0.954   6.373   5.768 -0.0708  0.4206 -0.0477
  468MOL0     C61659  -1.043   6.440   5.869  0.6477  0.2133 -0.3672
  468MOL0     C61660  -1.174   6.370   5.857 -0.4628 -0.3446  0.2002
  468MOL0     N61661  -1.184   6.252   5.938  0.2246  0.3379 -0.9220
  468MOL0     C61662  -1.186   6.244   6.077  0.0151 -1.1325  0.6798
  468MOL0     C61663  -1.214   6.116   6.101  0.3141 -0.3741 -0.9219
  468MOL0     C61664  -1.260   6.058   6.236  0.1725 -0.7714 -0.0608
  468MOL0     C61665  -1.151   5.980   6.302  0.4033  0.3076  1.1154
  468MOL0     C61666  -1.138   5.831   6.250  0.4110 -0.3471 -0.4123
  468MOL0     C61667  -1.272   5.759   6.220  0.7424 -0.1455  1.0158
  468MOL0     O61668  -1.357   5.752   6.339 -0.2093 -0.1364 -0.1798
  468MOL0     C61669  -1.489   5.722   6.313 -0.0140 -0.1137  0.5380
  468MOL0     C61670  -1.522   5.655   6.193 -0.2847  0.2325  0.7734
  468MOL0     C61671  -1.652   5.628   6.156  0.3759 -0.1236  0.1711
  468MOL0     C61672  -1.758   5.646   6.254 -0.6160  0.3865  0.6331
  468MOL0     C61673  -1.894   5.591   6.238  0.1011  0.0501 -0.6879
  468MOL0     O61674  -1.960   5.559   6.353  1.2941 -0.0986  0.4469
  468MOL0     C61675  -2.096   5.522   6.337 -0.3034  0.9854 -0.0930
  468MOL0     C61676  -2.190   5.624   6.341  0.7249 -0.2666  0.2042
  468MOL0     C61677  -2.322   5.598   6.308 -0.8067 -0.1188  0.1877
  468MOL0     C61678  -2.366   5.468   6.287 -0.5667 -0.2364  0.6608
  468MOL0     O61679  -2.497   5.426   6.285  0.3781  0.0013 -0.2097
  468MOL0     C61680  -2.597   5.526   6.264 -0.2615 -0.7280  0.2273
  468MOL0     C61681  -2.734   5.453   6.279  0.5498  0.4999  1.0967
  468MOL0     C61682  -2.842   5.556   6.301  0.2462  0.0854  0.1683
  468MOL0     C61683  -2.975   5.489   6.347 -0.0025  0.3172 -1.3456
  468MOL0     C61684  -3.086   5.595   6.321 -0.7338  0.2331 -1.2584
  468MOL0     C61685  -3.218   5.552   6.383  0.6912 -0.2501  0.4209
  468MOL0     C61686  -3.330   5.651   6.348  0.6243 -0.4121  0.4531
  468MOL0     C61687  -3.470   5.586   6.373  0.4533  0.5273  0.6995
  468MOL0    Cl61688  -3.599   5.709   6.387 -0.0281  0.0480  0.5195
  468MOL0     C61689  -2.269   5.369   6.283  1.0694  0.0249 -0.3615
  468MOL0     C61690  -2.133   5.391   6.306  0.0046  0.4747  0.2768
  468MOL0     O61691  -1.937   5.584   6.123 -0.1685  0.3548  0.0881
  468MOL0     C61692  -1.724   5.709   6.371  0.4641 -0.7453  1.1920
  468MOL0     C61693  -1.586   5.751   6.399  0.4296  1.2618 -0.6670
  468MOL0     N61694  -1.209   6.043   5.986 -0.6020  1.1054 -0.8598
  468MOL0     N61695  -1.189   6.125   5.883 -0.1482 -0.3521  0.1764
  468MOL0     C61696  -0.147   6.037   5.612 -0.3319  1.0095  0.2014
  468MOL0     C61697  -0.050   5.939   5.578 -0.2639 -0.9851  0.9231
  468MOL0     C61698   0.356   5.778   5.419  0.0125 -0.6470 -0.1704
  468MOL0     C61699   0.323   5.662   5.337 -0.2180  0.0503 -0.5736
  468MOL0     C61700   0.428   5.570   5.313 -0.5528 -0.3116 -0.3538
  468MOL0     C61701   0.546   5.577   5.378  0.4399  0.5569  0.1366
  468MOL0     O61702   0.632   5.479   5.348 -0.4074  0.2486  0.1443
  468MOL0     C61703   0.768   5.476   5.396  0.5800  0.3424  0.2248
  468MOL0     C61704   0.843   5.369   5.312 -0.5075  0.3459 -0.6965
  468MOL0     C61705   0.991   5.366   5.349  0.2587 -0.4255 -0.1131
  468MOL0     C61706   1.080   5.254   5.282  0.1647 -0.1790 -0.3270
  468MOL0     C61707   1.227   5.286   5.266 -0.4701  0.5327  0.1717
  468MOL0     C61708   1.347   5.309   5.280  0.3193  0.1236 -0.3941
  468MOL0     C61709   0.578   5.689   5.457 -0.1126 -0.2681 -0.6488
  468MOL0     C61710   0.484   5.791   5.475  0.1782 -0.4214  1.1083
  468MOL0     H61711   0.040   6.065   5.267 -2.2589  0.7377 -1.4438
  468MOL0     H61712  -0.137   6.220   5.322  0.8348  1.6030  2.7305
  468MOL0     H61713  -0.362   6.198   5.715 -0.1510 -2.0816 -0.8579
  468MOL0     H61714  -0.422   6.093   5.590  1.1295  0.7325 -1.1657
  468MOL0     H61715  -0.541   6.286   5.469 -2.5107  1.4732  0.0457
  468MOL0     H61716  -0.453   6.402   5.575 -2.7936  0.7538 -1.3676
  468MOL0     H61717  -0.562   6.323   5.766 -0.7537  2.7045  0.6687
  468MOL0     H61718  -0.653   6.201   5.664  1.3919  0.4025 -0.5870
  468MOL0     H61719  -0.677   6.505   5.615  0.1348 -0.0689  0.3397
  468MOL0     H61720  -0.781   6.372   5.565 -0.0253 -0.6672  0.9952
  468MOL0     H61721  -0.815   6.538   5.785  0.5235  0.1169 -2.2711
  468MOL0     H61722  -0.761   6.384   5.864 -0.5398 -0.9533 -0.5073
  468MOL0     H61723  -0.934   6.270   5.799  0.0992  0.3047 -0.5437
  468MOL0     H61724  -0.993   6.398   5.669  1.1512  0.9287 -0.4137
  468MOL0     H61725  -1.002   6.439   5.970 -1.5567 -0.5005  0.5648
  468MOL0     H61726  -1.042   6.546   5.839 -0.4695  0.1356 -0.7101
  468MOL0     H61727  -1.196   6.349   5.752 -1.2381 -3.3078  0.8772
  468MOL0     H61728  -1.243   6.446   5.895  0.9220  0.8012  0.5303
  468MOL0     H61729  -1.189   6.324   6.150 -0.6802 -0.2875 -0.2586
  468MOL0     H61730  -1.360   6.015   6.239 -0.4286  0.5070 -0.7424
  468MOL0     H61731  -1.270   6.149   6.296  0.6460 -0.2984 -0.6722
  468MOL0     H61732  -1.164   5.977   6.411  0.8092 -1.5034  1.1398
  468MOL0     H61733  -1.063   6.040   6.279 -0.3145  1.2414  0.7341
  468MOL0     H61734  -1.069   5.831   6.166  2.4377 -0.1783  1.1642
  468MOL0     H61735  -1.093   5.764   6.323  1.8203 -1.6688 -2.4011
  468MOL0     H61736  -1.256   5.657   6.185 -2.3365  0.2457 -2.1069
  468MOL0     H61737  -1.317   5.812   6.135 -0.0701  0.7573  1.9732
  468MOL0     H61738  -1.455   5.627   6.112 -1.9517  2.2324 -1.3955
  468MOL0     H61739  -1.668   5.588   6.057  0.9532  0.3342 -0.1125
  468MOL0     H61740  -2.139   5.719   6.351  0.1764  0.0118  0.4274
  468MOL0     H61741  -2.381   5.688   6.322  0.5535  0.7480  0.5686
  468MOL0     H61742  -2.579   5.579   6.169  2.5153  1.5732  1.8514
  468MOL0     H61743  -2.591   5.595   6.348 -0.6190 -0.2140 -0.1555
  468MOL0     H61744  -2.729   5.388   6.367  4.3927 -1.3402 -0.2349
  468MOL0     H61745  -2.751   5.392   6.190  0.8390  1.0305  0.6630
  468MOL0     H61746  -2.853   5.614   6.209 -0.0870  2.2670  1.4960
  468MOL0     H61747  -2.809   5.630   6.376  1.4546  2.4792 -2.5402
  468MOL0     H61748  -2.997   5.398   6.290  0.0932 -1.6024  1.5242
  468MOL0     H61749  -2.966   5.464   6.453  2.7413  0.3076 -1.5315
  468MOL0     H61750  -3.096   5.613   6.214  1.5845  3.4880 -1.0713
  468MOL0     H61751  -3.056   5.686   6.373  1.5035 -1.7624  1.2685
  468MOL0     H61752  -3.211   5.533   6.491 -3.5355 -1.7556  0.6101
  468MOL0     H61753  -3.246   5.461   6.329 -0.0160  1.2456 -1.8906
  468MOL0     H61754  -3.309   5.747   6.396 -0.0034 -0.1283  0.1646
  468MOL0     H61755  -3.327   5.690   6.246  1.0965 -0.7057  0.3500
  468MOL0     H61756  -3.470   5.544   6.474 -0.4206 -1.5786 -0.1210
  468MOL0     H61757  -3.484   5.509   6.297 -0.3497  0.1426  1.2198
  468MOL0     H61758  -2.301   5.269   6.255  1.6973 -1.0643  2.4235
  468MOL0     H61759  -2.065   5.307   6.295 -0.5573  0.2110 -1.4076
  468MOL0     H61760  -1.810   5.736   6.432 -1.7380  0.7127 -2.2276
  468MOL0     H61761  -1.569   5.794   6.497  1.8980 -1.5491  0.4277
  468MOL0     H61762  -0.205   6.031   5.703 -2.1908  1.8548 -0.8839
  468MOL0     H61763  -0.016   5.865   5.650 -0.8350 -0.8961  1.2896
  468MOL0     H61764   0.221   5.635   5.312 -1.1188  1.0335  1.6868
  468MOL0     H61765   0.413   5.486   5.245  2.4946  0.6518 -2.4377
  468MOL0     H61766   0.764   5.444   5.501 -0.2495 -1.0740 -0.2179
  468MOL0     H61767   0.813   5.575   5.385 -0.6094  1.1407  1.9705
  468MOL0     H61768   0.801   5.270   5.336 -1.2475  0.9633  0.6944
  468MOL0     H61769   0.836   5.393   5.206 -0.1766  1.5527 -0.4535
  468MOL0     H61770   1.005   5.356   5.457  1.1527  0.2279 -0.1601
  468MOL0     H61771   1.022   5.467   5.319 -0.6068  0.5302  2.0544
  468MOL0     H61772   1.074   5.161   5.340 -1.0107  1.3368  2.1391
  468MOL0     H61773   1.040   5.239   5.181  2.2547 -0.4983 -1.1764
  468MOL0     H61774   1.447   5.341   5.299 -0.2367  1.1811  0.8093
  468MOL0     H61775   0.672   5.699   5.511  0.1422  0.3125 -1.1900
  468MOL0     H61776   0.502   5.878   5.536  0.0585  0.8380 -0.5699
  469MOL0     O61777   2.304  10.713   6.403  0.1307 -0.7735  0.6967
  469MOL0     C61778   2.271  10.760   6.299  0.8787  0.4193  0.7123
  469MOL0     O61779   2.148  10.817   6.266 -0.0183 -0.8302 -0.0361
  469MOL0     C61780   2.037  10.826   6.345  0.2043  0.6978 -0.0839
  469MOL0     C61781   1.945  10.926   6.320 -1.2400 -1.0834 -0.1449
  469MOL0     C61782   1.833  10.946   6.409  0.4118  0.3979  0.9390
  469MOL0     C61783   1.817  10.871   6.529 -0.1320  0.6982 -0.2167
  469MOL0     O61784   1.695  10.894   6.596  0.0336 -0.6707  0.0230
  469MOL0     C61785   1.636  10.804   6.690  0.4509  0.3410  1.0491
  469MOL0     C61786   1.482  10.846   6.718 -0.1151  0.6320  0.0638
  469MOL0     C61787   1.482  10.968   6.802 -0.0515 -0.4365 -0.0315
  469MOL0     C61788   1.344  11.033   6.828  0.6494  0.4894 -0.4792
  469MOL0     C61789   1.283  10.948   6.939 -0.0753  0.1940 -0.6971
  469MOL0     C61790   1.134  10.960   6.949  0.4119 -0.6650  0.1631
  469MOL0     C61791   1.069  10.841   7.032 -0.2417 -0.1321  0.5178
  469MOL0     C61792   0.950  10.886   7.129  0.4590 -0.0012  0.3774
  469MOL0     N61793   0.881  10.774   7.193 -0.2654 -0.6856  0.7199
  469MOL0     C61794   0.785  10.694   7.132  0.3765  1.3664 -0.3743
  469MOL0     C61795   0.731  10.609   7.225 -0.3705 -0.1903  0.7356
  469MOL0     C61796   0.603  10.522   7.215 -0.0968  0.8141 -0.8579
  469MOL0     C61797   0.475  10.590   7.260  0.2291  0.1833 -0.7936
  469MOL0     C61798   0.420  10.695   7.156  0.7902  0.1370 -0.0131
  469MOL0     C61799   0.371  10.639   7.023 -0.0440  0.5247  0.2241
  469MOL0     O61800   0.476  10.623   6.924 -0.6335 -0.3887 -0.7518
  469MOL0     C61801   0.486  10.714   6.819 -0.3727  0.2934 -0.1388
  469MOL0     C61802   0.462  10.852   6.838  0.6334  0.0999  0.8333
  469MOL0     C61803   0.473  10.938   6.730 -0.3467 -0.6861  1.0936
  469MOL0     C61804   0.503  10.890   6.599 -0.4497 -1.4136 -0.2504
  469MOL0     C61805   0.516  10.982   6.486  0.8392  0.2422 -0.6509
  469MOL0     O61806   0.496  10.922   6.361 -0.6629  0.4299  0.5041
  469MOL0     C61807   0.501  11.002   6.249  0.9181 -0.7210 -0.1303
  469MOL0     C61808   0.398  11.091   6.222 -0.0546  0.3608 -0.3620
  469MOL0     C61809   0.394  11.178   6.110  0.1276  0.3123 -0.0204
  469MOL0     C61810   0.495  11.170   6.015 -0.4189  0.2603 -0.0469
  469MOL0     O61811   0.488  11.252   5.902  0.6505  0.1230 -0.0626
  469MOL0     C61812   0.556  11.197   5.779  1.0154 -0.0549 -0.2988
  469MOL0     C61813   0.538  11.288   5.656 -0.1442  0.2712 -0.1628
  469MOL0     C61814   0.643  11.278   5.547 -0.3211  0.0299 -0.8523
  469MOL0     C61815   0.766  11.361   5.577  0.2836  0.1206  0.0663
  469MOL0     C61816   0.868  11.384   5.469  0.0290 -0.2981  0.3042
  469MOL0     C61817   0.974  11.476   5.529  0.2636  0.4613  0.7009
  469MOL0     C61818   1.093  11.485   5.431  0.5813 -0.1193  0.0141
  469MOL0     C61819   1.198  11.571   5.490  0.1541 -0.0963 -0.0552
  469MOL0    Cl61820   1.347  11.552   5.406  0.0996  0.2078  0.5218
  469MOL0     C61821   0.586  11.061   6.028  0.3285  0.7008 -0.2981
  469MOL0     C61822   0.596  10.989   6.154  0.2467 -0.0178 -0.2679
  469MOL0     O61823   0.546  11.099   6.501 -0.1896  0.0499 -0.4257
  469MOL0     C61824   0.520  10.753   6.584  0.0417 -0.4199 -0.4801
  469MOL0     C61825   0.511  10.661   6.689 -0.5994 -0.9275 -0.1689
  469MOL0     N61826   0.808  10.626   7.336 -0.0791 -0.6697 -0.3771
  469MOL0     N61827   0.895  10.727   7.318 -0.4302  0.2251  0.1106
  469MOL0     C61828   1.922  10.783   6.553 -0.0756  0.1622 -0.4870
  469MOL0     C61829   2.023  10.752   6.460  0.6089  0.8188  0.0556
  469MOL0     C61830   2.361  10.740   6.179  0.4213  0.7212 -0.6978
  469MOL0     C61831   2.489  10.704   6.212 -0.5195  0.1255 -0.0677
  469MOL0     C61832   2.585  10.693   6.105  0.5479 -0.4732  0.7642
  469MOL0     C61833   2.547  10.702   5.964 -0.5996 -0.2533 -0.1926
  469MOL0     O61834   2.647  10.711   5.870  0.3512 -0.2097  0.1516
  469MOL0     C61835   2.785  10.681   5.899  0.1068 -0.9550 -0.8024
  469MOL0     C61836   2.847  10.650   5.768  0.3018  0.4497 -0.2971
  469MOL0     C61837   3.003  10.657   5.783  0.2104 -0.8300 -0.7238
  469MOL0     C61838   3.063  10.629   5.648  0.3568  0.4959  0.3229
  469MOL0     C61839   3.019  10.721   5.544  0.9875 -0.6047 -1.1885
  469MOL0     C61840   2.983  10.802   5.456  0.3072  0.2975  0.1942
  469MOL0     C61841   2.417  10.739   5.934 -0.1550 -0.5029 -0.3531
  469MOL0     C61842   2.325  10.756   6.043  0.8952 -0.0170  0.4369
  469MOL0     H61843   1.976  11.000   6.247 -3.5353  0.4355  0.3392
  469MOL0     H61844   1.757  11.015   6.375  0.9516  0.5097 -0.0847
  469MOL0     H61845   1.699  10.805   6.780 -0.6942  2.6695  1.9012
  469MOL0     H61846   1.629  10.702   6.650  1.5382  0.1446  1.3105
  469MOL0     H61847   1.434  10.760   6.765  4.1727 -1.0548  1.9597
  469MOL0     H61848   1.428  10.872   6.626  1.3219  0.2026 -0.9426
  469MOL0     H61849   1.548  11.043   6.758  1.5617  0.0122  2.9065
  469MOL0     H61850   1.528  10.941   6.897 -0.3357  1.8626  0.8172
  469MOL0     H61851   1.354  11.139   6.856 -0.5488 -0.3420  3.8176
  469MOL0     H61852   1.289  11.031   6.733  0.0575  0.1584 -0.1287
  469MOL0     H61853   1.331  10.950   7.037 -0.2386 -1.1618 -0.5629
  469MOL0     H61854   1.294  10.841   6.916  1.1547 -0.1069  1.0761
  469MOL0     H61855   1.095  10.951   6.848  0.0037 -3.3958  0.4735
  469MOL0     H61856   1.110  11.051   7.004  1.4283  0.6123 -1.4172
  469MOL0     H61857   1.042  10.761   6.962 -2.1454  1.2402 -0.4227
  469MOL0     H61858   1.155  10.813   7.093 -0.3061  0.9603  1.1221
  469MOL0     H61859   0.874  10.931   7.064 -2.3015 -1.6336  2.2721
  469MOL0     H61860   0.988  10.956   7.204  3.1200  1.7563 -2.3443
  469MOL0     H61861   0.739  10.703   7.034  1.3528 -1.2939 -1.1456
  469MOL0     H61862   0.609  10.433   7.277  1.1338  2.9034  2.2641
  469MOL0     H61863   0.604  10.493   7.110 -0.4791 -1.7264 -0.2215
  469MOL0     H61864   0.499  10.626   7.361  2.0138  0.4317 -1.2746
  469MOL0     H61865   0.396  10.516   7.275  0.2100 -0.2559 -2.7451
  469MOL0     H61866   0.332  10.736   7.206 -0.7519 -0.4671 -2.0877
  469MOL0     H61867   0.500  10.766   7.135 -0.6331  1.0346 -2.8041
  469MOL0     H61868   0.287  10.702   6.991  0.6271  2.4919  2.0460
  469MOL0     H61869   0.331  10.538   7.026 -2.0391  1.2201 -0.8131
  469MOL0     H61870   0.447  10.897   6.936  4.3912  2.8132  0.3923
  469MOL0     H61871   0.459  11.045   6.742  2.6230  0.0450 -0.9487
  469MOL0     H61872   0.333  11.106   6.307 -0.6998 -1.0347 -0.5800
  469MOL0     H61873   0.322  11.259   6.099  1.5366  1.4479 -1.3895
  469MOL0     H61874   0.520  11.094   5.764  1.2651 -0.1555 -0.2162
  469MOL0     H61875   0.662  11.183   5.801  0.8534 -1.6843 -0.3900
  469MOL0     H61876   0.527  11.389   5.696  5.5750  1.6323 -1.2033
  469MOL0     H61877   0.445  11.256   5.608  0.8249 -3.3692  0.1183
  469MOL0     H61878   0.597  11.324   5.460  2.1699  3.5381 -0.5139
  469MOL0     H61879   0.670  11.172   5.535  1.5201  0.4886 -1.0255
  469MOL0     H61880   0.733  11.457   5.618  0.5987  1.2415 -2.1901
  469MOL0     H61881   0.822  11.319   5.662  0.3974  1.7248  0.8315
  469MOL0     H61882   0.831  11.434   5.379 -1.8502 -1.6598  0.2491
  469MOL0     H61883   0.913  11.292   5.430 -0.3154  0.1340 -1.1961
  469MOL0     H61884   1.019  11.430   5.617  2.7239 -5.3146 -2.9525
  469MOL0     H61885   0.931  11.574   5.548  0.3123  0.9797 -1.6027
  469MOL0     H61886   1.140  11.387   5.415 -1.6111 -1.0769 -1.1102
  469MOL0     H61887   1.051  11.523   5.338 -1.2313  0.5565  1.0595
  469MOL0     H61888   1.214  11.557   5.597 -1.0998  1.1686  0.3292
  469MOL0     H61889   1.174  11.677   5.479  1.0917  0.0344 -1.0019
  469MOL0     H61890   0.666  11.033   5.960  0.1860  0.6795 -0.4609
  469MOL0     H61891   0.669  10.912   6.177 -1.0190 -1.0834  0.3757
  469MOL0     H61892   0.564  10.721   6.489  4.3656  0.2012  1.0706
  469MOL0     H61893   0.540  10.557   6.678  1.5047 -0.2295 -1.7163
  469MOL0     H61894   1.922  10.730   6.648  2.5184  0.5713 -0.1933
  469MOL0     H61895   2.090  10.668   6.476 -2.3584 -1.6622  0.6060
  469MOL0     H61896   2.526  10.686   6.312 -2.5680  1.1311  0.9347
  469MOL0     H61897   2.691  10.685   6.129  1.1205 -1.8441 -1.8684
  469MOL0     H61898   2.794  10.596   5.966  0.6882 -0.4684 -0.2409
  469MOL0     H61899   2.828  10.762   5.959 -1.8927 -1.0889  0.9218
  469MOL0     H61900   2.806  10.553   5.738  2.6601 -0.0397 -2.2635
  469MOL0     H61901   2.826  10.725   5.691  1.3356  1.9696  0.8238
  469MOL0     H61902   3.024  10.577   5.855  0.9159  3.0093  3.8739
  469MOL0     H61903   3.031  10.753   5.828 -1.0972 -0.8268  0.1238
  469MOL0     H61904   3.172  10.626   5.653  0.4125 -0.2990 -0.9310
  469MOL0     H61905   3.030  10.531   5.610 -3.2099  1.8057 -0.3822
  469MOL0     H61906   2.958  10.877   5.384 -1.8970 -1.4821 -1.0390
  469MOL0     H61907   2.401  10.758   5.828  1.9897  1.1549 -0.4747
  469MOL0     H61908   2.220  10.779   6.025  0.7420 -1.9876 -1.7155
  470MOL0     O61909   0.417   7.818   7.042  0.2749  0.0195 -0.4164
  470MOL0     C61910   0.505   7.742   7.008  0.2565 -0.2396  0.6617
  470MOL0     O61911   0.489   7.638   6.913 -0.3858  0.0316  0.2900
  470MOL0     C61912   0.360   7.596   6.898  0.4578 -0.6338 -0.1920
  470MOL0     C61913   0.288   7.624   6.779 -0.2478  0.7866  0.1993
  470MOL0     C61914   0.157   7.578   6.759  0.2938 -0.2466 -0.4940
  470MOL0     C61915   0.092   7.504   6.855 -0.2252  0.9263 -0.6042
  470MOL0     O61916  -0.036   7.452   6.822 -0.5181 -0.0282 -0.1690
  470MOL0     C61917  -0.119   7.408   6.926 -0.8350 -0.2763  0.7325
  470MOL0     C61918  -0.235   7.353   6.844  0.5426  0.3378 -0.7180
  470MOL0     C61919  -0.305   7.466   6.761 -0.4251  0.2151  0.3142
  470MOL0     C61920  -0.457   7.435   6.724 -0.0073 -0.6475 -0.1315
  470MOL0     C61921  -0.464   7.302   6.648  0.4486  0.6425 -0.1681
  470MOL0     C61922  -0.608   7.270   6.584 -0.0413 -1.3496 -1.0444
  470MOL0     C61923  -0.602   7.140   6.498  0.1404 -0.4347 -0.2318
  470MOL0     C61924  -0.525   7.141   6.371 -0.6138  0.8359  0.1800
  470MOL0     N61925  -0.579   7.245   6.282 -0.3564 -0.4287  0.7582
  470MOL0     C61926  -0.691   7.242   6.203  0.7292 -0.1122  0.2388
  470MOL0     C61927  -0.678   7.326   6.095 -0.2405  0.1115 -0.0240
  470MOL0     C61928  -0.787   7.341   5.997 -0.7743 -0.4352 -0.4855
  470MOL0     C61929  -0.769   7.478   5.920  0.2786  0.1664  0.0450
  470MOL0     C61930  -0.882   7.489   5.814 -0.2354  0.3438  0.4048
  470MOL0     C61931  -1.020   7.487   5.870 -0.6326  0.0777  0.4981
  470MOL0     O61932  -1.033   7.586   5.970 -0.5043 -0.1147 -0.2479
  470MOL0     C61933  -1.151   7.592   6.046  0.0776 -0.4529  0.1579
  470MOL0     C61934  -1.160   7.693   6.145  0.3058  0.1727 -0.1447
  470MOL0     C61935  -1.281   7.713   6.214  0.5029  0.3334  0.9843
  470MOL0     C61936  -1.393   7.625   6.189 -0.6768  0.4822  0.8569
  470MOL0     C61937  -1.520   7.638   6.257 -1.0401 -0.0046 -0.4448
  470MOL0     O61938  -1.617   7.548   6.231 -0.1260  0.4439  1.1767
  470MOL0     C61939  -1.713   7.522   6.319 -0.2359  0.2557  0.1130
  470MOL0     C61940  -1.728   7.388   6.349 -0.4618 -0.5945  0.4323
  470MOL0     C61941  -1.822   7.349   6.437 -0.7190 -0.0533  0.2514
  470MOL0     C61942  -1.928   7.436   6.465 -0.2074 -0.5427 -0.2873
  470MOL0     O61943  -2.034   7.387   6.540 -0.6542 -0.0411 -0.6220
  470MOL0     C61944  -2.132   7.476   6.592  0.1778 -0.7632  0.1757
  470MOL0     C61945  -2.249   7.396   6.653 -0.1143 -0.3491 -0.7378
  470MOL0     C61946  -2.361   7.490   6.700  0.7711 -0.6918 -0.2643
  470MOL0     C61947  -2.482   7.407   6.760 -0.4010 -0.7641 -0.6192
  470MOL0     C61948  -2.590   7.519   6.780  0.4551  1.5331 -0.1478
  470MOL0     C61949  -2.734   7.467   6.827 -0.0163  0.2622  0.4331
  470MOL0     C61950  -2.847   7.568   6.829  1.1585  0.6635 -0.7930
  470MOL0     C61951  -2.978   7.486   6.796 -0.0072  0.5124 -0.5580
  470MOL0    Cl61952  -3.038   7.391   6.932 -0.1089 -0.0410 -0.1183
  470MOL0     C61953  -1.925   7.571   6.415 -0.3591 -0.3795  0.3780
  470MOL0     C61954  -1.814   7.613   6.343  0.7799  0.2217  0.0703
  470MOL0     O61955  -1.524   7.714   6.355  0.3865  0.1385  0.4553
  470MOL0     C61956  -1.381   7.517   6.093  0.0557 -0.7752 -0.9934
  470MOL0     C61957  -1.262   7.505   6.033 -0.4179 -0.0518  0.3154
  470MOL0     N61958  -0.563   7.395   6.119 -0.1358 -0.9800  0.2301
  470MOL0     N61959  -0.500   7.336   6.222 -0.5814 -0.1759  0.2147
  470MOL0     C61960   0.154   7.493   6.981  0.4720 -0.1004  0.0546
  470MOL0     C61961   0.290   7.534   6.998  0.1738  0.9673 -0.3592
  470MOL0     C61962   0.641   7.768   7.051  0.6111 -0.7093  0.3437
  470MOL0     C61963   0.662   7.850   7.165 -0.3267  0.7453 -0.3192
  470MOL0     C61964   0.795   7.875   7.204  0.5927  0.1337  0.5805
  470MOL0     C61965   0.898   7.815   7.131  0.1422  0.5092  0.3686
  470MOL0     O61966   1.028   7.811   7.174 -0.8688  0.5784 -0.2056
  470MOL0     C61967   1.051   7.877   7.295 -0.4324  0.5546 -0.0962
  470MOL0     C61968   1.190   7.862   7.355 -0.9667  0.5482  0.0166
  470MOL0     C61969   1.201   7.922   7.497 -0.6066 -0.2123 -0.0923
  470MOL0     C61970   1.344   7.925   7.546  0.2419  1.1131 -0.5660
  470MOL0     C61971   1.387   7.781   7.550 -0.1033 -0.3393  0.0464
  470MOL0     C61972   1.427   7.664   7.569  0.9071  0.5351 -0.2101
  470MOL0     C61973   0.871   7.734   7.023  0.5728  0.1833  0.2575
  470MOL0     C61974   0.747   7.719   6.973 -0.2350 -0.3681  0.6728
  470MOL0     H61975   0.344   7.673   6.700 -0.2778  2.1259  0.9636
  470MOL0     H61976   0.110   7.582   6.661 -2.7319  2.1138  0.8861
  470MOL0     H61977  -0.157   7.490   6.987  1.8794  0.5632  1.4551
  470MOL0     H61978  -0.071   7.331   6.987  0.2247 -0.6077 -0.4632
  470MOL0     H61979  -0.306   7.313   6.917  2.6380 -4.8087 -1.0703
  470MOL0     H61980  -0.204   7.261   6.795 -1.1410 -1.8032  1.9765
  470MOL0     H61981  -0.241   7.491   6.676 -2.1572 -1.2547 -1.5258
  470MOL0     H61982  -0.311   7.558   6.821  1.2657  2.3597 -2.5701
  470MOL0     H61983  -0.518   7.422   6.814  0.6495 -2.9554  0.0426
  470MOL0     H61984  -0.510   7.505   6.658 -0.3805  0.6154  1.4379
  470MOL0     H61985  -0.438   7.216   6.710 -0.5110 -0.7445 -1.6236
  470MOL0     H61986  -0.390   7.296   6.568  1.0190 -1.6791  0.4704
  470MOL0     H61987  -0.638   7.359   6.528  0.0203 -2.4003 -2.8242
  470MOL0     H61988  -0.679   7.256   6.667  0.9839  0.8555  0.2971
  470MOL0     H61989  -0.560   7.069   6.570 -0.8692  0.6838  1.5366
  470MOL0     H61990  -0.705   7.109   6.479  0.1929 -0.4958 -0.4188
  470MOL0     H61991  -0.530   7.041   6.327 -0.7604  0.3732  1.2118
  470MOL0     H61992  -0.423   7.169   6.399  0.3520 -1.0384 -1.2555
  470MOL0     H61993  -0.778   7.179   6.220 -0.1868  0.5382 -1.8274
  470MOL0     H61994  -0.881   7.340   6.053 -1.3616  0.4859 -1.4264
  470MOL0     H61995  -0.793   7.257   5.927  0.8017 -0.2841 -0.8424
  470MOL0     H61996  -0.669   7.484   5.876  0.3902 -1.9146 -0.0966
  470MOL0     H61997  -0.774   7.568   5.983  3.0140  0.2909  0.2142
  470MOL0     H61998  -0.872   7.584   5.760 -1.3271  0.2926  0.0810
  470MOL0     H61999  -0.862   7.411   5.740  0.5545 -0.9067  1.8968
  470MOL0     H62000  -1.038   7.388   5.913 -1.6060 -0.0040 -0.0816
  470MOL0     H62001  -1.096   7.495   5.792 -2.1233 -4.4090  1.1919
  470MOL0     H62002  -1.069   7.741   6.179  0.4774 -0.5369  0.4346
  470MOL0     H62003  -1.288   7.788   6.291 -0.1093  3.9168 -2.2482
  470MOL0     H62004  -1.657   7.312   6.318  0.2789  0.6771 -1.1121
  470MOL0     H62005  -1.827   7.251   6.483 -1.5952 -0.4623 -0.6577
  470MOL0     H62006  -2.172   7.540   6.512 -0.2748 -0.7682  0.3975
  470MOL0     H62007  -2.085   7.548   6.660 -1.9050 -0.1372  1.0226
  470MOL0     H62008  -2.203   7.349   6.741 -0.2514  0.8702  0.0186
  470MOL0     H62009  -2.302   7.327   6.588  0.0714  0.4260 -1.7394
  470MOL0     H62010  -2.400   7.540   6.611  0.6242 -2.3808 -1.1929
  470MOL0     H62011  -2.325   7.567   6.769 -1.0400 -0.6605  0.7248
  470MOL0     H62012  -2.520   7.332   6.690 -2.4472  1.0214 -1.5653
  470MOL0     H62013  -2.454   7.365   6.857  0.1277 -2.1498 -1.3470
  470MOL0     H62014  -2.604   7.581   6.691  0.2430 -0.4790 -1.5752
  470MOL0     H62015  -2.548   7.575   6.864  2.8400 -0.2471 -0.0641
  470MOL0     H62016  -2.712   7.425   6.926  0.1898  1.0564  0.7387
  470MOL0     H62017  -2.761   7.386   6.759  3.3011  0.7435 -1.7107
  470MOL0     H62018  -2.833   7.616   6.926  0.3910  0.7179 -0.6965
  470MOL0     H62019  -2.836   7.637   6.745  1.9001 -0.9249 -2.0684
  470MOL0     H62020  -2.960   7.418   6.712 -1.1239  0.6270 -0.8989
  470MOL0     H62021  -3.061   7.552   6.771 -1.5792 -1.5581 -1.1441
  470MOL0     H62022  -1.997   7.651   6.425  2.0652  2.3617 -2.2473
  470MOL0     H62023  -1.825   7.703   6.283 -2.0168 -0.2748 -0.2909
  470MOL0     H62024  -1.468   7.455   6.071 -1.8621  0.4940  2.2998
  470MOL0     H62025  -1.264   7.430   5.954  2.8635  0.1010 -0.0529
  470MOL0     H62026   0.097   7.430   7.049  0.5236  0.1354  0.3164
  470MOL0     H62027   0.340   7.510   7.091  1.2580  2.8420 -0.4033
  470MOL0     H62028   0.586   7.887   7.233 -0.0301  0.0042  0.4367
  470MOL0     H62029   0.805   7.931   7.296  0.4884  0.9651  0.0876
  470MOL0     H62030   0.989   7.830   7.372 -0.3757  1.5415  0.5699
  470MOL0     H62031   1.019   7.982   7.297 -1.1098  0.3492  0.4878
  470MOL0     H62032   1.200   7.753   7.358  1.2488  0.7103  0.8016
  470MOL0     H62033   1.265   7.908   7.290 -0.1468 -1.7177 -0.7287
  470MOL0     H62034   1.133   7.870   7.566 -0.5233 -0.3074 -0.0812
  470MOL0     H62035   1.164   8.024   7.485 -1.4183 -0.6532 -1.7184
  470MOL0     H62036   1.404   7.966   7.465  1.3204 -0.3836 -0.5588
  470MOL0     H62037   1.366   7.969   7.644  0.2301 -0.0164 -0.0419
  470MOL0     H62038   1.449   7.564   7.602  0.4658  0.1936 -0.9203
  470MOL0     H62039   0.949   7.668   6.986  0.0088 -0.9196  0.9723
  470MOL0     H62040   0.744   7.659   6.882  4.4746  0.6075 -0.3827
  471MOL0     O62041   6.091   3.634   5.923 -1.1747  0.2400  0.4589
  471MOL0     C62042   6.157   3.536   5.893 -0.6262  0.1911  0.5976
  471MOL0     O62043   6.107   3.412   5.843  0.1218  0.9324 -0.5857
  471MOL0     C62044   5.981   3.375   5.811 -0.4950  0.7984  0.1214
  471MOL0     C62045   5.933   3.239   5.825 -0.5849  0.3107 -0.2027
  471MOL0     C62046   5.816   3.206   5.767  0.2077 -0.6035 -0.0990
  471MOL0     C62047   5.740   3.298   5.697 -0.7677 -0.3559 -0.4259
  471MOL0     O62048   5.625   3.247   5.635 -0.6457  0.6201 -0.6943
  471MOL0     C62049   5.533   3.332   5.572  0.7752 -0.0525 -0.1269
  471MOL0     C62050   5.428   3.247   5.501 -0.3948 -0.2689  1.0678
  471MOL0     C62051   5.308   3.219   5.588  0.6279 -0.6080  0.4425
  471MOL0     C62052   5.211   3.141   5.506 -0.0509 -0.8332 -0.3876
  471MOL0     C62053   5.099   3.088   5.591  0.2796  0.2077 -0.0042
  471MOL0     C62054   5.017   3.194   5.663  0.0703 -0.3620  0.0366
  471MOL0     C62055   4.878   3.151   5.722 -0.3483 -0.6350  0.3998
  471MOL0     C62056   4.875   3.016   5.792 -1.0608  0.3985  0.5236
  471MOL0     N62057   4.764   2.977   5.878  1.0821 -0.5988  0.4912
  471MOL0     C62058   4.630   2.972   5.845  0.3996 -0.4691  0.6309
  471MOL0     C62059   4.567   2.950   5.962 -0.1751  0.0842 -0.8912
  471MOL0     C62060   4.431   2.897   5.976  0.2357  0.3110 -0.6158
  471MOL0     C62061   4.352   2.959   6.082  0.3937 -0.3640  0.0672
  471MOL0     C62062   4.230   2.877   6.112  0.0548  0.4165 -0.2367
  471MOL0     C62063   4.138   2.952   6.199 -0.1363  0.4369  0.4704
  471MOL0     O62064   4.209   2.986   6.318  0.2452  0.4064 -0.3451
  471MOL0     C62065   4.167   2.921   6.436  0.2538 -0.9635 -1.2601
  471MOL0     C62066   4.039   2.943   6.481  0.1183 -0.1437 -0.3519
  471MOL0     C62067   3.991   2.896   6.601 -0.0676 -0.4305 -0.3227
  471MOL0     C62068   4.069   2.801   6.674 -0.0662 -0.2880  0.4093
  471MOL0     C62069   4.033   2.731   6.795  0.6174 -0.1042  0.5265
  471MOL0     O62070   3.931   2.791   6.862 -0.3668 -0.3542  0.2720
  471MOL0     C62071   3.903   2.729   6.984  0.2252  1.0179  0.2864
  471MOL0     C62072   3.801   2.635   6.994 -0.7111  0.5372 -0.3629
  471MOL0     C62073   3.766   2.575   7.115  0.9003 -0.1440  0.6331
  471MOL0     C62074   3.829   2.614   7.227  0.5461  0.2376  0.5780
  471MOL0     O62075   3.807   2.572   7.357 -0.4512  0.5097 -0.0824
  471MOL0     C62076   3.693   2.626   7.430 -0.4357 -0.2216 -0.6907
  471MOL0     C62077   3.580   2.514   7.441  0.5409 -0.3625  0.3407
  471MOL0     C62078   3.455   2.576   7.492  0.5840 -0.2551 -0.4405
  471MOL0     C62079   3.342   2.472   7.499 -0.3683 -0.0037 -0.7092
  471MOL0     C62080   3.215   2.555   7.532 -0.0169  0.3848  0.9953
  471MOL0     C62081   3.080   2.465   7.516  0.0892 -0.5963 -0.2725
  471MOL0     C62082   3.089   2.349   7.616  0.2012 -0.7229  0.7800
  471MOL0     C62083   2.956   2.266   7.617 -0.0736  0.3506 -1.2113
  471MOL0    Cl62084   2.960   2.137   7.493  0.0936 -0.2173  0.5499
  471MOL0     C62085   3.928   2.709   7.215 -0.1588  0.0900  0.2998
  471MOL0     C62086   3.963   2.769   7.098  1.1321  0.5226 -0.0507
  471MOL0     O62087   4.090   2.622   6.828 -1.1707  0.2008  0.4870
  471MOL0     C62088   4.194   2.770   6.624 -0.0413  0.1538  0.4007
  471MOL0     C62089   4.243   2.826   6.509 -0.5465 -0.1302  0.2674
  471MOL0     N62090   4.666   2.948   6.060 -0.6143  0.6318  0.3461
  471MOL0     N62091   4.779   2.959   6.010  0.1269 -0.5091  0.5308
  471MOL0     C62092   5.779   3.435   5.693  0.6438 -0.2599 -0.2556
  471MOL0     C62093   5.901   3.467   5.752  0.4993  0.5310  0.0881
  471MOL0     C62094   6.301   3.557   5.894  0.6729  0.0362  0.1198
  471MOL0     C62095   6.358   3.649   5.986 -0.8248  0.5192 -0.2329
  471MOL0     C62096   6.492   3.687   5.988  0.3847  0.1994 -0.0271
  471MOL0     C62097   6.579   3.632   5.899  0.3122 -0.0235 -0.1629
  471MOL0     O62098   6.705   3.654   5.928 -0.1316  0.1578  0.6952
  471MOL0     C62099   6.797   3.652   5.816  0.4007 -0.5703 -0.1887
  471MOL0     C62100   6.936   3.725   5.846 -0.4081 -1.0211 -0.8735
  471MOL0     C62101   6.993   3.694   5.984 -0.4936  0.2267  1.0054
  471MOL0     C62102   7.092   3.575   5.983 -0.4589 -0.5090 -0.0590
  471MOL0     C62103   7.142   3.547   6.118  0.9940 -1.0485 -0.5486
  471MOL0     C62104   7.167   3.529   6.238 -0.5686 -0.0448  0.2806
  471MOL0     C62105   6.528   3.545   5.800 -0.0687  0.0002 -0.2578
  471MOL0     C62106   6.390   3.503   5.794 -1.0394 -0.1413 -0.8789
  471MOL0     H62107   5.985   3.154   5.870 -0.6748  0.2415 -0.2310
  471MOL0     H62108   5.778   3.105   5.760  0.9706 -1.0352  1.6916
  471MOL0     H62109   5.591   3.375   5.490  1.8177 -2.7700 -0.9293
  471MOL0     H62110   5.486   3.407   5.636  0.6108 -0.0485 -0.2526
  471MOL0     H62111   5.480   3.162   5.455 -0.7972  0.8344 -1.6688
  471MOL0     H62112   5.400   3.309   5.415  0.6273 -1.1869  0.0388
  471MOL0     H62113   5.271   3.306   5.643  0.8300  0.2017 -0.6783
  471MOL0     H62114   5.346   3.152   5.665 -2.0457 -1.2004  1.3615
  471MOL0     H62115   5.151   3.209   5.446  0.1519  1.4421  1.8174
  471MOL0     H62116   5.248   3.068   5.434 -1.6310 -0.2517 -1.8585
  471MOL0     H62117   5.144   3.018   5.662  2.0752 -2.3732 -3.3986
  471MOL0     H62118   5.027   3.031   5.532  0.7487  2.9007 -3.5109
  471MOL0     H62119   4.990   3.279   5.600 -2.1292  0.5802  2.0852
  471MOL0     H62120   5.071   3.225   5.753 -2.6990  2.4113  0.9404
  471MOL0     H62121   4.830   3.225   5.787 -1.6475 -0.7377 -0.4001
  471MOL0     H62122   4.810   3.134   5.637  1.3117 -0.8179 -0.9399
  471MOL0     H62123   4.968   2.999   5.847 -0.6101 -0.2533 -0.4108
  471MOL0     H62124   4.872   2.947   5.707  3.8185 -1.1456  1.3199
  471MOL0     H62125   4.580   2.981   5.750  1.9885 -0.0622 -0.2030
  471MOL0     H62126   4.424   2.790   5.994 -6.2765  0.0108 -2.4866
  471MOL0     H62127   4.369   2.912   5.887 -2.4580  0.5737  1.1832
  471MOL0     H62128   4.327   3.064   6.062 -0.7105 -0.4718  0.7882
  471MOL0     H62129   4.416   2.958   6.170  0.1753 -2.8898  0.2751
  471MOL0     H62130   4.178   2.851   6.019 -1.3793  0.0867  0.6299
  471MOL0     H62131   4.266   2.781   6.148 -3.4799 -0.5991  0.9864
  471MOL0     H62132   4.052   2.888   6.220  0.2743 -0.7674 -1.3008
  471MOL0     H62133   4.100   3.042   6.149 -3.2432 -1.1109 -0.1593
  471MOL0     H62134   3.978   3.015   6.426 -0.9144 -1.5911 -1.1740
  471MOL0     H62135   3.896   2.930   6.642 -0.3145 -0.7087 -0.6533
  471MOL0     H62136   3.755   2.609   6.899  1.2857  2.0663 -1.8347
  471MOL0     H62137   3.688   2.500   7.121 -1.4752  1.9644 -1.3571
  471MOL0     H62138   3.656   2.718   7.386 -1.6455  0.6541  1.9705
  471MOL0     H62139   3.710   2.657   7.533 -3.2083  1.1571 -0.5915
  471MOL0     H62140   3.611   2.442   7.518 -4.3824  1.4769  4.6492
  471MOL0     H62141   3.563   2.462   7.347 -1.7327 -0.7397  0.9008
  471MOL0     H62142   3.424   2.661   7.431 -1.5672  1.1915  2.4365
  471MOL0     H62143   3.473   2.613   7.593 -0.3155  0.1694 -0.4305
  471MOL0     H62144   3.338   2.404   7.413  1.8846 -1.3545  0.1493
  471MOL0     H62145   3.365   2.400   7.579  5.5361  0.0806 -1.8536
  471MOL0     H62146   3.209   2.626   7.449 -0.4484 -1.8173 -0.9825
  471MOL0     H62147   3.224   2.612   7.624  1.9960  2.1145 -0.1556
  471MOL0     H62148   3.060   2.432   7.413 -0.9556  0.6220 -0.4879
  471MOL0     H62149   2.997   2.525   7.554  0.0681  0.1693 -1.4640
  471MOL0     H62150   3.165   2.274   7.598 -0.7462 -1.7626  1.0038
  471MOL0     H62151   3.110   2.393   7.715 -2.1115 -0.3786  1.1824
  471MOL0     H62152   2.874   2.339   7.612 -0.1815  0.3272 -0.1595
  471MOL0     H62153   2.944   2.220   7.716 -0.2889  0.4657 -1.1841
  471MOL0     H62154   3.983   2.730   7.306  1.1615 -2.1719  0.1192
  471MOL0     H62155   4.046   2.839   7.105  2.7819 -1.5071  3.8826
  471MOL0     H62156   4.258   2.690   6.662  0.0160 -0.5153 -1.0382
  471MOL0     H62157   4.336   2.788   6.467 -0.7286 -0.3783  0.0847
  471MOL0     H62158   5.709   3.503   5.646 -2.4686 -2.9643  0.0984
  471MOL0     H62159   5.934   3.570   5.740  4.1985 -0.3442  1.5170
  471MOL0     H62160   6.299   3.707   6.056 -0.1592  1.7708 -0.6825
  471MOL0     H62161   6.523   3.743   6.076 -1.1318  0.8728  0.1140
  471MOL0     H62162   6.740   3.701   5.736  0.1265 -0.7206 -0.0876
  471MOL0     H62163   6.823   3.550   5.787  0.8549 -0.8426  1.1075
  471MOL0     H62164   7.009   3.714   5.764  0.2887  0.1204 -0.4320
  471MOL0     H62165   6.921   3.833   5.851  2.4962 -0.5692  0.1794
  471MOL0     H62166   6.917   3.685   6.062  0.5302 -0.8109  1.9262
  471MOL0     H62167   7.052   3.783   6.007  0.4800  0.3408 -1.6475
  471MOL0     H62168   7.041   3.488   5.939 -2.0399  1.4737 -2.3598
  471MOL0     H62169   7.178   3.602   5.923 -0.0732 -1.7854 -0.1113
  471MOL0     H62170   7.188   3.521   6.342  0.7671 -0.2407  0.0124
  471MOL0     H62171   6.587   3.500   5.721 -0.8962  0.3750 -1.1037
  471MOL0     H62172   6.355   3.439   5.713 -1.5884 -1.5864  0.4389
  472MOL0     O62173   9.826   4.258   8.892  0.9261 -0.1260 -0.1863
  472MOL0     C62174   9.771   4.351   8.950 -0.0766  0.0800 -0.1449
  472MOL0     O62175   9.819   4.489   8.944  0.4126 -0.0868  0.3763
  472MOL0     C62176   9.950   4.519   8.907 -0.5313  0.0733  0.1198
  472MOL0     C62177  10.035   4.610   8.973  0.1387 -0.1405  0.1386
  472MOL0     C62178  10.149   4.669   8.924 -0.6999  0.4319 -0.3558
  472MOL0     C62179  10.195   4.625   8.800  0.2499  0.9930  0.2255
  472MOL0     O62180  10.316   4.667   8.759 -0.8068  0.3935  0.4247
  472MOL0     C62181  10.367   4.630   8.626  0.6868 -0.4465  0.8849
  472MOL0     C62182  10.488   4.723   8.600  0.4322 -1.2027  0.1642
  472MOL0     C62183  10.546   4.696   8.458  0.2217 -0.1697 -0.4535
  472MOL0     C62184  10.686   4.751   8.422 -0.7541 -0.4314  0.4005
  472MOL0     C62185  10.682   4.896   8.364  0.4162  0.1402  0.0482
  472MOL0     C62186  10.816   4.952   8.308 -1.1477 -1.4413  0.0667
  472MOL0     C62187  10.787   5.071   8.216 -0.7519 -0.1636  0.0091
  472MOL0     C62188  10.891   5.104   8.112  0.0233  0.3351  0.2713
  472MOL0     N62189  11.021   5.121   8.172  0.0871  0.0383 -0.3041
  472MOL0     C62190  11.064   5.217   8.255 -0.4786 -0.2011  0.3254
  472MOL0     C62191  11.183   5.183   8.301 -1.0194  0.7182 -0.5314
  472MOL0     C62192  11.271   5.246   8.407  1.4772  0.0989  0.2413
  472MOL0     C62193  11.221   5.202   8.547  0.3550  0.7131  0.0276
  472MOL0     C62194  11.320   5.248   8.663  0.1580 -0.1264  0.6852
  472MOL0     C62195  11.349   5.399   8.664  0.8565  0.5453  0.2574
  472MOL0     O62196  11.233   5.480   8.636 -0.2807  0.1009 -0.1894
  472MOL0     C62197  11.161   5.533   8.736  0.0407  0.0933  0.4149
  472MOL0     C62198  11.215   5.584   8.854  0.3793 -0.4618  0.0476
  472MOL0     C62199  11.133   5.613   8.963 -0.5787 -0.1567 -0.4312
  472MOL0     C62200  10.995   5.620   8.943 -0.0299  0.0010 -0.6606
  472MOL0     C62201  10.913   5.675   9.047 -0.3302  0.1291  0.4264
  472MOL0     O62202  10.972   5.711   9.164 -0.1984  0.8179  0.4320
  472MOL0     C62203  10.903   5.771   9.264  0.0432  0.0765  0.3099
  472MOL0     C62204  10.778   5.740   9.311  0.4870 -0.0736 -0.3696
  472MOL0     C62205  10.706   5.825   9.395  0.2419  0.4792 -0.9222
  472MOL0     C62206  10.759   5.937   9.451 -0.2871 -0.2444 -0.1569
  472MOL0     O62207  10.703   6.030   9.534 -0.5768 -0.2273 -0.7111
  472MOL0     C62208  10.564   6.061   9.521  0.4543  0.1253 -0.3456
  472MOL0     C62209  10.468   5.994   9.624 -0.4159  0.2878 -0.4978
  472MOL0     C62210  10.344   6.077   9.649 -0.0229  0.1747 -0.3173
  472MOL0     C62211  10.245   6.003   9.739 -0.1381 -0.0182 -0.6226
  472MOL0     C62212  10.135   6.099   9.787 -0.3408  0.5038  0.0458
  472MOL0     C62213  10.061   6.180   9.675 -0.3633  0.1295  0.9172
  472MOL0     C62214   9.943   6.102   9.612 -0.2401  0.2393  0.7396
  472MOL0     C62215   9.859   6.177   9.504 -0.7059 -0.1108 -0.7978
  472MOL0    Cl62216   9.718   6.258   9.589 -0.4997  0.2807 -0.0329
  472MOL0     C62217  10.893   5.960   9.425 -0.0897  0.3213  0.1664
  472MOL0     C62218  10.960   5.883   9.330 -0.3924 -0.2518  0.0769
  472MOL0     O62219  10.789   5.673   9.030  0.4280 -0.2354 -1.1196
  472MOL0     C62220  10.938   5.586   8.821 -0.4976  0.3223  0.6589
  472MOL0     C62221  11.024   5.534   8.723  0.5143 -0.3908  0.0850
  472MOL0     N62222  11.211   5.060   8.244  0.6338  0.3337  0.2171
  472MOL0     N62223  11.116   5.023   8.161  0.1764 -1.4014 -0.6235
  472MOL0     C62224  10.129   4.523   8.728 -0.8462  0.0956 -0.0594
  472MOL0     C62225  10.004   4.475   8.783  0.4798 -0.3164  0.2772
  472MOL0     C62226   9.634   4.330   8.998 -0.1548 -0.3101  0.2660
  472MOL0     C62227   9.570   4.204   8.983  0.0241 -0.0978 -0.0021
  472MOL0     C62228   9.446   4.176   9.032 -0.4310 -0.3883 -0.0865
  472MOL0     C62229   9.376   4.278   9.088  0.2386 -0.1729 -0.2477
  472MOL0     O62230   9.259   4.244   9.139 -0.3395  0.6080 -0.3221
  472MOL0     C62231   9.176   4.334   9.211  0.9423  0.2256  0.6604
  472MOL0     C62232   9.032   4.267   9.201  0.0207 -0.3878  0.6176
  472MOL0     C62233   8.926   4.367   9.275 -0.3160  0.2344 -0.0746
  472MOL0     C62234   8.807   4.289   9.335  0.0252  0.4666  0.3872
  472MOL0     C62235   8.719   4.234   9.233  0.1377  0.0261 -0.3544
  472MOL0     C62236   8.654   4.174   9.149  0.8824  0.4547  0.0607
  472MOL0     C62237   9.426   4.410   9.099  0.1054 -0.1303 -0.4150
  472MOL0     C62238   9.561   4.438   9.057 -0.1343 -0.0612 -0.1292
  472MOL0     H62239  10.007   4.631   9.076  2.0007 -2.9172  1.3154
  472MOL0     H62240  10.202   4.745   8.980 -1.6917  1.6651 -1.0688
  472MOL0     H62241  10.292   4.655   8.550  0.1536 -0.4288  1.4057
  472MOL0     H62242  10.395   4.524   8.619 -0.7101 -0.9824  2.6635
  472MOL0     H62243  10.564   4.708   8.677 -0.3285  2.9659  2.0284
  472MOL0     H62244  10.452   4.826   8.606 -0.9790 -1.4479 -2.6497
  472MOL0     H62245  10.471   4.727   8.386 -0.9116  0.7948  1.0748
  472MOL0     H62246  10.561   4.587   8.464  3.9379  0.2533  1.4746
  472MOL0     H62247  10.740   4.758   8.517 -0.3833  2.4251  0.0842
  472MOL0     H62248  10.732   4.681   8.352 -0.9171 -0.1894  0.0465
  472MOL0     H62249  10.660   4.964   8.447  0.8868  0.3694 -0.0174
  472MOL0     H62250  10.605   4.886   8.287 -0.0030 -3.6028  0.7745
  472MOL0     H62251  10.870   4.871   8.258 -1.4621 -0.7675 -1.4171
  472MOL0     H62252  10.880   4.977   8.394 -0.7609 -0.5050 -0.4853
  472MOL0     H62253  10.698   5.049   8.156 -0.2209 -0.9769 -0.5063
  472MOL0     H62254  10.768   5.159   8.277  1.8766  0.8585 -0.5338
  472MOL0     H62255  10.869   5.196   8.058  0.0076 -1.0129 -2.1877
  472MOL0     H62256  10.885   5.019   8.043 -0.1967 -1.5080  2.4131
  472MOL0     H62257  11.005   5.304   8.282 -0.4786 -0.4147  1.0157
  472MOL0     H62258  11.264   5.355   8.400  4.7045  0.6285  2.8011
  472MOL0     H62259  11.377   5.220   8.402  1.1726 -1.0972 -0.1782
  472MOL0     H62260  11.219   5.093   8.554 -1.2162  0.7588  0.7704
  472MOL0     H62261  11.120   5.243   8.549 -0.4109 -1.0928  1.5326
  472MOL0     H62262  11.272   5.213   8.755 -3.3642  1.0318 -0.5523
  472MOL0     H62263  11.420   5.208   8.642  1.3217  2.2793  1.3263
  472MOL0     H62264  11.417   5.421   8.581 -0.5578 -3.8208 -2.3314
  472MOL0     H62265  11.395   5.431   8.758 -0.4329  0.2016  1.0279
  472MOL0     H62266  11.319   5.598   8.881 -0.6110  2.7010  3.0289
  472MOL0     H62267  11.176   5.645   9.058  0.8846 -1.8157 -0.4853
  472MOL0     H62268  10.725   5.651   9.278  1.4592 -2.0659  2.9927
  472MOL0     H62269  10.601   5.802   9.407  0.2749 -0.4864 -2.2424
  472MOL0     H62270  10.522   6.040   9.422  2.0942  0.6689 -1.1927
  472MOL0     H62271  10.565   6.166   9.550  0.9234 -0.6712  2.9286
  472MOL0     H62272  10.524   5.977   9.717  1.5431  3.1452 -1.0205
  472MOL0     H62273  10.449   5.893   9.588  0.0492  0.2793 -0.7307
  472MOL0     H62274  10.307   6.097   9.548 -0.3261  2.2649  0.1618
  472MOL0     H62275  10.381   6.169   9.696  2.0679 -2.7297  4.4774
  472MOL0     H62276  10.193   5.930   9.676 -3.1089  1.2089  0.2201
  472MOL0     H62277  10.294   5.960   9.827  1.7449  1.0526 -1.0994
  472MOL0     H62278  10.167   6.172   9.861  2.7782  0.4305 -1.0473
  472MOL0     H62279  10.063   6.033   9.835  0.6691 -1.5293 -1.0915
  472MOL0     H62280  10.139   6.212   9.605  0.1407 -0.9736  0.9552
  472MOL0     H62281  10.032   6.276   9.718  3.0090  1.6814  0.0691
  472MOL0     H62282   9.988   6.013   9.568 -0.6933 -0.0465  0.8400
  472MOL0     H62283   9.877   6.051   9.684  0.1245 -1.8525 -0.3175
  472MOL0     H62284   9.808   6.106   9.439  0.5325 -1.5204 -0.2753
  472MOL0     H62285   9.921   6.242   9.442 -0.6192  0.2543 -0.3345
  472MOL0     H62286  10.949   6.042   9.470  0.3824  0.5625 -0.8271
  472MOL0     H62287  11.055   5.923   9.297 -0.4513  1.1359  1.4708
  472MOL0     H62288  10.830   5.592   8.807 -0.6062  2.7895  1.9807
  472MOL0     H62289  10.986   5.471   8.643 -0.5601 -0.0956  0.3469
  472MOL0     H62290  10.164   4.478   8.636 -3.4354 -2.3509  0.0316
  472MOL0     H62291   9.946   4.412   8.717  1.4140 -0.9023 -0.0061
  472MOL0     H62292   9.616   4.130   8.919 -0.1600  1.0188 -1.4679
  472MOL0     H62293   9.406   4.076   9.024 -0.8881 -0.3324  1.2631
  472MOL0     H62294   9.174   4.435   9.169  0.5034  1.3847  3.3320
  472MOL0     H62295   9.214   4.344   9.313  1.7345  0.2686  0.3703
  472MOL0     H62296   9.001   4.263   9.097  2.2344 -3.6351 -0.0657
  472MOL0     H62297   9.037   4.162   9.232 -1.3322  0.2883  3.4993
  472MOL0     H62298   8.892   4.445   9.207  0.9428  1.7625  0.9655
  472MOL0     H62299   8.983   4.425   9.349 -0.2451  2.8461 -2.0229
  472MOL0     H62300   8.840   4.196   9.381 -0.3842 -1.4524 -2.8697
  472MOL0     H62301   8.754   4.341   9.415  1.1889 -0.5825  1.8963
  472MOL0     H62302   8.587   4.124   9.081 -1.6627  2.5682  0.8620
  472MOL0     H62303   9.371   4.494   9.139  1.1600  1.9224 -2.9877
  472MOL0     H62304   9.610   4.534   9.069  2.0079 -1.1500  0.3021
  473MOL0     O62305   0.244   2.347   4.545  0.4746  0.6410  0.1529
  473MOL0     C62306   0.188   2.241   4.504 -0.1329 -0.4919 -0.2482
  473MOL0     O62307   0.057   2.214   4.493 -0.9206 -0.0255 -0.0791
  473MOL0     C62308  -0.047   2.275   4.565 -0.7835  0.3230 -0.3734
  473MOL0     C62309  -0.182   2.250   4.528  0.0656 -0.3543  0.8988
  473MOL0     C62310  -0.297   2.304   4.587 -0.9902 -0.2607 -0.4773
  473MOL0     C62311  -0.287   2.381   4.707 -0.2119 -0.0680 -0.2951
  473MOL0     O62312  -0.400   2.419   4.772  0.8045 -0.1055  0.2665
  473MOL0     C62313  -0.433   2.327   4.872  0.8708 -0.1999 -0.7935
  473MOL0     C62314  -0.535   2.383   4.972  0.0340 -0.7914 -0.0972
  473MOL0     C62315  -0.481   2.484   5.068  0.3127 -0.3748  0.1948
  473MOL0     C62316  -0.422   2.409   5.189  1.3842  0.1501 -0.3116
  473MOL0     C62317  -0.306   2.314   5.177  0.1353  0.6271  0.7993
  473MOL0     C62318  -0.231   2.280   5.311  0.4634 -0.5614 -0.8924
  473MOL0     C62319  -0.115   2.182   5.290  0.4822 -0.4220 -0.2581
  473MOL0     C62320   0.019   2.246   5.341  0.9324  0.2868 -0.0761
  473MOL0     N62321   0.023   2.270   5.483 -0.9561 -0.0298  0.3384
  473MOL0     C62322  -0.036   2.197   5.585 -0.3395  0.6736 -0.3518
  473MOL0     C62323   0.016   2.248   5.703 -0.1692  0.4002  0.7078
  473MOL0     C62324  -0.032   2.222   5.841 -0.9088  0.6163  0.2295
  473MOL0     C62325  -0.183   2.207   5.863 -0.5973  0.6832 -0.4008
  473MOL0     C62326  -0.215   2.120   5.984 -0.0046  0.2629 -0.2245
  473MOL0     C62327  -0.368   2.080   5.980 -0.7173  0.1731  0.2961
  473MOL0     O62328  -0.439   2.194   5.936 -0.3385 -0.2028 -0.3202
  473MOL0     C62329  -0.572   2.187   5.925 -0.4635  0.6271  0.6455
  473MOL0     C62330  -0.643   2.302   5.946 -0.3906 -0.7955  0.0388
  473MOL0     C62331  -0.780   2.309   5.964  0.3546 -0.3040 -0.2825
  473MOL0     C62332  -0.854   2.197   5.967 -0.3258  1.0117 -0.6563
  473MOL0     C62333  -0.997   2.197   6.006 -0.1686  0.3405  0.0647
  473MOL0     O62334  -1.054   2.305   6.064 -0.7068 -0.1735 -0.3179
  473MOL0     C62335  -1.182   2.275   6.110 -0.5708 -0.0409  0.1274
  473MOL0     C62336  -1.286   2.316   6.029 -0.4848 -0.7650 -0.5340
  473MOL0     C62337  -1.417   2.314   6.069 -0.0027 -0.9344  0.2134
  473MOL0     C62338  -1.453   2.252   6.185  0.4496 -0.1038 -0.8064
  473MOL0     O62339  -1.582   2.248   6.214 -0.3758  0.2075 -0.0828
  473MOL0     C62340  -1.635   2.137   6.284 -0.1288  0.5327  0.1528
  473MOL0     C62341  -1.790   2.121   6.300  0.0531 -0.2639  0.2227
  473MOL0     C62342  -1.845   2.126   6.159  0.4199  0.9956 -0.2734
  473MOL0     C62343  -2.000   2.124   6.161 -0.4838  0.4202  0.4292
  473MOL0     C62344  -2.044   2.127   6.000  0.3018  0.7283 -1.0154
  473MOL0     C62345  -2.199   2.140   5.980 -0.8113  0.4160  0.2575
  473MOL0     C62346  -2.283   2.052   6.073  0.1523  0.3243 -0.3689
  473MOL0     C62347  -2.424   2.049   6.032 -1.0481 -0.6519 -0.4867
  473MOL0    Cl62348  -2.534   1.992   6.152  0.2826 -0.4485  0.1418
  473MOL0     C62349  -1.350   2.198   6.267  0.3010 -0.2946 -0.0181
  473MOL0     C62350  -1.214   2.221   6.233 -0.2991  0.4443  0.0220
  473MOL0     O62351  -1.057   2.089   5.994  0.3995  0.8040  0.5377
  473MOL0     C62352  -0.784   2.076   5.945  1.1057 -0.6540 -1.0675
  473MOL0     C62353  -0.645   2.072   5.925  0.4045  1.0084  0.7954
  473MOL0     N62354   0.099   2.349   5.663  0.2747  0.1434 -0.2221
  473MOL0     N62355   0.119   2.346   5.537 -0.3878  0.5067 -0.0216
  473MOL0     C62356  -0.154   2.413   4.741 -0.0725 -0.0056  0.6231
  473MOL0     C62357  -0.037   2.366   4.671  0.8967 -0.3197 -0.9367
  473MOL0     C62358   0.275   2.137   4.442  0.0285 -0.0090 -0.3663
  473MOL0     C62359   0.417   2.130   4.470  0.1831  0.1713 -0.1073
  473MOL0     C62360   0.496   2.036   4.408 -0.5060  0.0687  0.6066
  473MOL0     C62361   0.440   1.943   4.323  0.0971  0.6136 -0.1148
  473MOL0     O62362   0.508   1.843   4.260  1.2474  0.3456  0.4285
  473MOL0     C62363   0.633   1.793   4.313  0.1799 -0.1185  0.8863
  473MOL0     C62364   0.747   1.874   4.237  0.2588  0.1594  1.1042
  473MOL0     C62365   0.877   1.893   4.320  0.5849  1.0702 -0.0124
  473MOL0     C62366   0.947   2.007   4.253 -0.6953 -0.5845 -0.1984
  473MOL0     C62367   1.079   2.045   4.299 -0.4945 -0.2532  0.5949
  473MOL0     C62368   1.187   2.071   4.355 -0.0841 -0.7849 -0.3516
  473MOL0     C62369   0.299   1.945   4.308 -0.1866  0.1772  0.3238
  473MOL0     C62370   0.214   2.038   4.353 -0.8318  1.0345  0.3502
  473MOL0     H62371  -0.187   2.189   4.438  1.8841 -2.7266  2.2650
  473MOL0     H62372  -0.394   2.274   4.549 -0.6365 -0.1443 -1.4894
  473MOL0     H62373  -0.340   2.297   4.922 -1.4216 -1.6999  2.9805
  473MOL0     H62374  -0.493   2.240   4.843 -0.8002  0.5163  0.3632
  473MOL0     H62375  -0.580   2.303   5.032  0.3811  0.3346  1.7294
  473MOL0     H62376  -0.614   2.423   4.909  0.6261  1.2012  0.3682
  473MOL0     H62377  -0.566   2.548   5.095  0.3146  0.1873 -1.1011
  473MOL0     H62378  -0.413   2.552   5.015 -0.4809  0.8457  0.6951
  473MOL0     H62379  -0.392   2.491   5.255  0.4154 -0.5726  1.0970
  473MOL0     H62380  -0.511   2.369   5.240  0.6195  1.4877 -0.5343
  473MOL0     H62381  -0.229   2.356   5.112 -0.0721  3.2527  2.1396
  473MOL0     H62382  -0.340   2.221   5.130  1.8311  0.7103 -0.6936
  473MOL0     H62383  -0.294   2.240   5.390  0.8042  2.9068  1.3347
  473MOL0     H62384  -0.196   2.372   5.359  0.9442  0.2837 -2.7372
  473MOL0     H62385  -0.127   2.081   5.331 -0.2293  0.0320  0.6740
  473MOL0     H62386  -0.105   2.176   5.181 -1.1394 -1.3752 -0.3887
  473MOL0     H62387   0.032   2.349   5.307  2.9062  0.8898  2.2674
  473MOL0     H62388   0.100   2.180   5.310  4.2643  4.3061 -0.7184
  473MOL0     H62389  -0.123   2.132   5.576  0.9002 -0.7192 -3.5998
  473MOL0     H62390   0.012   2.291   5.913  4.3125 -1.8941 -0.0562
  473MOL0     H62391   0.026   2.135   5.875  1.4069  1.7239 -0.6537
  473MOL0     H62392  -0.219   2.147   5.778 -0.2301 -0.1014 -0.0159
  473MOL0     H62393  -0.226   2.307   5.869 -0.3111  0.7372  0.9852
  473MOL0     H62394  -0.150   2.031   5.980  0.5252  0.6835 -1.9409
  473MOL0     H62395  -0.203   2.168   6.082  0.5928 -1.7553  0.7477
  473MOL0     H62396  -0.408   2.058   6.080 -2.4635 -1.5422 -0.7279
  473MOL0     H62397  -0.381   1.996   5.912  1.0765  0.2347 -0.1768
  473MOL0     H62398  -0.581   2.392   5.946  0.4136 -1.3264 -1.1908
  473MOL0     H62399  -0.820   2.409   5.977  0.5063 -0.3208  0.3549
  473MOL0     H62400  -1.268   2.358   5.931 -2.1489 -0.0210 -0.5636
  473MOL0     H62401  -1.502   2.350   6.013  1.6676  1.1978 -1.1090
  473MOL0     H62402  -1.597   2.153   6.386  2.0017  0.1130 -0.5291
  473MOL0     H62403  -1.590   2.047   6.240  2.0969  2.1237 -1.0196
  473MOL0     H62404  -1.826   2.209   6.354  2.8606  2.0811 -1.4410
  473MOL0     H62405  -1.823   2.032   6.355  1.9548  0.0574  2.0697
  473MOL0     H62406  -1.821   2.035   6.104 -1.6248  0.4432 -0.3398
  473MOL0     H62407  -1.818   2.218   6.107 -0.7868  2.0838  0.9165
  473MOL0     H62408  -2.041   2.031   6.201 -0.9772 -0.2322 -1.4945
  473MOL0     H62409  -2.029   2.209   6.224  0.8025  1.7587 -0.6946
  473MOL0     H62410  -2.010   2.028   5.970  0.7480  0.7628 -0.6252
  473MOL0     H62411  -1.985   2.203   5.948 -2.0183  2.1297 -1.7293
  473MOL0     H62412  -2.228   2.121   5.877 -1.1848  1.3070  0.1852
  473MOL0     H62413  -2.228   2.243   6.002  0.2342  1.1387 -1.4975
  473MOL0     H62414  -2.243   1.951   6.083 -2.7106 -0.6278  4.8816
  473MOL0     H62415  -2.279   2.088   6.176  0.0431 -1.8629  0.4525
  473MOL0     H62416  -2.429   1.979   5.948 -1.6940  1.0492 -1.9392
  473MOL0     H62417  -2.455   2.144   5.986  0.4632  0.1269  0.0340
  473MOL0     H62418  -1.376   2.155   6.363 -0.5935 -2.0204 -0.9780
  473MOL0     H62419  -1.141   2.185   6.304  0.2694 -1.2778 -1.3800
  473MOL0     H62420  -0.838   1.983   5.960  1.1719 -0.3834  1.3223
  473MOL0     H62421  -0.614   1.968   5.923  1.4725  1.3156  0.0607
  473MOL0     H62422  -0.150   2.481   4.826  0.8512 -1.4146  1.7492
  473MOL0     H62423   0.060   2.411   4.687  1.5405 -1.2292 -2.1094
  473MOL0     H62424   0.464   2.195   4.542 -2.4408  1.9512  0.1247
  473MOL0     H62425   0.603   2.023   4.422 -0.8255 -2.7154  1.0371
  473MOL0     H62426   0.641   1.686   4.290 -1.9205 -0.0521 -0.4445
  473MOL0     H62427   0.649   1.803   4.421 -1.3270  0.8572  1.0538
  473MOL0     H62428   0.771   1.828   4.140  0.6113  0.2555  1.1449
  473MOL0     H62429   0.708   1.976   4.229  1.3015  0.7533  3.0080
  473MOL0     H62430   0.940   1.804   4.315  0.0750  0.5638  1.9095
  473MOL0     H62431   0.840   1.907   4.422 -1.7709 -2.0271 -0.3237
  473MOL0     H62432   0.959   1.982   4.147  0.1528 -3.3951  0.4780
  473MOL0     H62433   0.883   2.096   4.262 -0.3994 -0.5566  2.3937
  473MOL0     H62434   1.272   2.114   4.403 -1.2152  1.4092 -0.2022
  473MOL0     H62435   0.247   1.865   4.255 -4.2819  1.3514  2.1712
  473MOL0     H62436   0.110   2.046   4.322 -1.3022  4.5099  2.2805
  474MOL0     O62437   7.778   0.421   4.048  0.4078 -0.1138  0.2744
  474MOL0     C62438   7.840   0.491   4.123  0.2907  0.3266  0.4265
  474MOL0     O62439   7.793   0.576   4.224 -0.4275  0.1159 -0.0766
  474MOL0     C62440   7.678   0.543   4.285  0.3100 -0.1302 -0.2861
  474MOL0     C62441   7.554   0.542   4.222  0.0722  0.1635 -0.4304
  474MOL0     C62442   7.436   0.514   4.293  0.3886  0.1198 -0.1896
  474MOL0     C62443   7.442   0.510   4.439  0.6929 -0.3007 -0.3092
  474MOL0     O62444   7.331   0.485   4.515  0.9125 -0.1521  0.3137
  474MOL0     C62445   7.205   0.447   4.455 -0.0006 -0.5777 -0.9639
  474MOL0     C62446   7.132   0.367   4.557 -0.9635  0.6950  0.3488
  474MOL0     C62447   7.081   0.476   4.648  0.1815 -0.0565 -0.1090
  474MOL0     C62448   7.011   0.421   4.762  0.6442  0.8127  0.3298
  474MOL0     C62449   6.941   0.521   4.845 -0.6195 -0.4141 -0.2167
  474MOL0     C62450   6.890   0.453   4.975  0.2527 -0.0305 -0.5022
  474MOL0     C62451   6.773   0.348   4.964 -0.6826  0.3718  0.6604
  474MOL0     C62452   6.645   0.419   4.913  0.2990  0.4932  0.0587
  474MOL0     N62453   6.525   0.331   4.909 -0.1024  0.1714  0.3863
  474MOL0     C62454   6.390   0.367   4.926  0.0663  0.2399  0.6617
  474MOL0     C62455   6.322   0.254   4.941 -0.6656 -0.4608 -0.2879
  474MOL0     C62456   6.172   0.251   4.962 -0.2912 -0.1869  0.2593
  474MOL0     C62457   6.117   0.114   4.902  0.5414  0.0592 -0.2232
  474MOL0     C62458   6.166  -0.011   4.978  0.2969 -0.3045  0.4416
  474MOL0     C62459   6.096  -0.138   4.931 -0.4195 -0.1106  0.5273
  474MOL0     O62460   5.959  -0.144   4.974  0.6615  0.9215  0.5686
  474MOL0     C62461   5.871  -0.241   4.952  0.3656 -0.4148 -0.3687
  474MOL0     C62462   5.912  -0.370   4.921  0.7781  0.9663 -0.8106
  474MOL0     C62463   5.824  -0.476   4.912 -0.2971 -0.0168  0.6088
  474MOL0     C62464   5.684  -0.445   4.922 -0.0749  1.1451 -0.5343
  474MOL0     C62465   5.586  -0.556   4.935 -0.3521 -0.1838  0.4311
  474MOL0     O62466   5.450  -0.529   4.929 -0.4256 -0.1023  0.1111
  474MOL0     C62467   5.357  -0.621   4.912 -0.9316  0.0678 -0.1373
  474MOL0     C62468   5.229  -0.600   4.972 -0.5590  0.0517  0.4016
  474MOL0     C62469   5.134  -0.702   4.976 -0.0962 -0.0017 -0.2018
  474MOL0     C62470   5.155  -0.828   4.926  0.9026  0.9412 -0.0669
  474MOL0     O62471   5.068  -0.937   4.922 -0.7944  0.4786  0.6969
  474MOL0     C62472   4.935  -0.927   4.975  0.6875  0.0414 -0.0363
  474MOL0     C62473   4.862  -1.049   4.953 -0.0749  0.5912 -0.1077
  474MOL0     C62474   4.714  -1.055   4.982 -0.2564  0.2487 -0.0258
  474MOL0     C62475   4.682  -1.073   5.131 -0.1633  0.1992  0.2721
  474MOL0     C62476   4.533  -1.073   5.160 -0.2945  0.3803  0.1971
  474MOL0     C62477   4.506  -1.103   5.308 -0.0438  0.8895 -0.4459
  474MOL0     C62478   4.355  -1.092   5.332 -0.1726 -0.9175 -0.1573
  474MOL0     C62479   4.318  -1.072   5.481 -0.2365  0.0905  0.2369
  474MOL0    Cl62480   4.149  -1.095   5.515 -0.3859  0.1593  0.2556
  474MOL0     C62481   5.272  -0.848   4.848 -0.3600  0.3284 -0.2771
  474MOL0     C62482   5.380  -0.752   4.853 -0.2880  0.1945  0.5938
  474MOL0     O62483   5.640  -0.668   4.949  0.2625 -0.4998 -0.1134
  474MOL0     C62484   5.643  -0.310   4.946  0.1923  0.7600  0.2397
  474MOL0     C62485   5.740  -0.217   4.965  0.2228 -1.0089  0.6036
  474MOL0     N62486   6.412   0.145   4.935  0.1041  0.3269 -0.3273
  474MOL0     N62487   6.531   0.190   4.913  0.7698  0.0773 -0.0236
  474MOL0     C62488   7.566   0.532   4.494  0.0868  0.2549 -0.3617
  474MOL0     C62489   7.678   0.559   4.419  0.3983  0.6830  0.2090
  474MOL0     C62490   7.987   0.499   4.108 -0.2359 -0.1798  0.6082
  474MOL0     C62491   8.074   0.507   4.216 -0.4360  0.8752  0.4635
  474MOL0     C62492   8.217   0.513   4.206 -0.2881 -0.0104  0.5059
  474MOL0     C62493   8.273   0.537   4.082  0.4543 -0.7320 -0.0241
  474MOL0     O62494   8.401   0.573   4.095  0.4225 -0.1946  0.4142
  474MOL0     C62495   8.482   0.586   3.978 -0.5689  0.0085  0.0969
  474MOL0     C62496   8.569   0.464   3.941 -0.3453 -0.3721 -0.0635
  474MOL0     C62497   8.662   0.512   3.826  0.6371 -0.1974 -0.3492
  474MOL0     C62498   8.789   0.425   3.803 -0.4225 -0.0363 -0.1903
  474MOL0     C62499   8.755   0.294   3.746 -0.9643 -0.7809 -0.5536
  474MOL0     C62500   8.726   0.177   3.715 -0.0082 -0.3578  0.0683
  474MOL0     C62501   8.190   0.542   3.962  0.5507  0.1170 -0.5577
  474MOL0     C62502   8.049   0.518   3.978  0.8282  0.7135 -0.2476
  474MOL0     H62503   7.553   0.517   4.117 -2.8864 -2.8008  0.1417
  474MOL0     H62504   7.343   0.511   4.238  1.3288 -0.8231 -1.7946
  474MOL0     H62505   7.225   0.388   4.365 -2.5183  0.8555 -2.6074
  474MOL0     H62506   7.154   0.536   4.417 -0.2847  0.1519  1.0386
  474MOL0     H62507   7.208   0.306   4.607  1.7044 -0.1375 -4.1672
  474MOL0     H62508   7.050   0.306   4.518 -1.6276  1.1139  1.0446
  474MOL0     H62509   7.010   0.543   4.600 -1.2469 -0.1461  1.7667
  474MOL0     H62510   7.164   0.532   4.693 -0.4637 -0.2969  1.4435
  474MOL0     H62511   6.931   0.358   4.722 -1.5348  3.3122  0.4233
  474MOL0     H62512   7.082   0.359   4.817 -0.2384 -0.7411 -0.2277
  474MOL0     H62513   6.851   0.571   4.807 -0.6924  0.3199  0.8637
  474MOL0     H62514   7.007   0.606   4.867  0.8603 -1.6122  0.1080
  474MOL0     H62515   6.880   0.531   5.051  0.9406 -3.6421  3.6948
  474MOL0     H62516   6.974   0.392   5.012 -2.7812 -1.3126  5.4102
  474MOL0     H62517   6.806   0.263   4.904  3.3060  1.8946  0.3704
  474MOL0     H62518   6.753   0.310   5.065 -0.3549 -1.1182  0.1865
  474MOL0     H62519   6.655   0.466   4.814 -2.1537  1.5859  0.2707
  474MOL0     H62520   6.625   0.496   4.987 -0.3257  0.6356 -0.2524
  474MOL0     H62521   6.361   0.472   4.930  1.6725  0.6940  1.2894
  474MOL0     H62522   6.118   0.333   4.914  0.7428  0.2010 -0.2880
  474MOL0     H62523   6.155   0.247   5.069  0.8449 -0.4242  0.4441
  474MOL0     H62524   6.141   0.108   4.796  2.6627  3.0046 -0.0413
  474MOL0     H62525   6.007   0.108   4.902  0.2852  2.3542  2.8695
  474MOL0     H62526   6.274  -0.024   4.970  0.2153 -0.4083 -0.6767
  474MOL0     H62527   6.140   0.005   5.083 -0.8231  0.4529  0.0628
  474MOL0     H62528   6.159  -0.217   4.970 -1.7578 -2.0273 -0.9704
  474MOL0     H62529   6.102  -0.142   4.821  0.6876 -1.1094  0.6157
  474MOL0     H62530   6.018  -0.390   4.917  0.8381 -0.9757  3.8047
  474MOL0     H62531   5.855  -0.577   4.886 -1.6526 -0.0008 -1.3129
  474MOL0     H62532   5.211  -0.501   5.012 -1.7568 -0.7829  2.0707
  474MOL0     H62533   5.045  -0.684   5.036  0.6809  1.4164  0.5875
  474MOL0     H62534   4.873  -0.859   4.917 -0.8071 -1.7337 -0.6279
  474MOL0     H62535   4.943  -0.903   5.082  3.3295  1.3601 -0.4667
  474MOL0     H62536   4.919  -1.127   5.004  1.9330  0.3199 -2.5618
  474MOL0     H62537   4.866  -1.069   4.845 -2.1317  0.0372 -0.1366
  474MOL0     H62538   4.679  -1.139   4.921 -0.4385  0.0745  0.3125
  474MOL0     H62539   4.666  -0.962   4.950 -1.3051 -0.5187 -0.7270
  474MOL0     H62540   4.734  -1.164   5.162 -0.5219 -0.7161 -1.6631
  474MOL0     H62541   4.734  -0.989   5.177  0.8901 -0.5406  0.4825
  474MOL0     H62542   4.484  -1.154   5.105 -0.5639  0.1417  0.7791
  474MOL0     H62543   4.495  -0.975   5.130  2.2096  0.5131 -3.1699
  474MOL0     H62544   4.557  -1.025   5.365  3.1079  0.7896 -2.7743
  474MOL0     H62545   4.550  -1.197   5.343  0.8490  1.3294 -0.3423
  474MOL0     H62546   4.306  -1.010   5.279 -2.2134 -2.2524 -0.4430
  474MOL0     H62547   4.310  -1.185   5.295  0.0783 -0.6586 -1.1496
  474MOL0     H62548   4.341  -0.972   5.517  0.3298 -0.7771  2.4403
  474MOL0     H62549   4.366  -1.150   5.541 -0.5760  0.5062  1.0689
  474MOL0     H62550   5.281  -0.950   4.811 -0.1797  0.2257  0.0438
  474MOL0     H62551   5.470  -0.781   4.799 -2.3402 -5.3312 -0.5134
  474MOL0     H62552   5.535  -0.295   4.947  0.2610  1.2131  0.9241
  474MOL0     H62553   5.709  -0.114   4.980 -1.4256 -0.9126 -2.5659
  474MOL0     H62554   7.582   0.535   4.601  1.1481  2.2042 -0.5278
  474MOL0     H62555   7.767   0.568   4.481  1.2938 -1.6674 -0.6381
  474MOL0     H62556   8.044   0.488   4.319  3.3884  0.7816  1.7282
  474MOL0     H62557   8.271   0.499   4.299 -0.4514  1.1637  0.7904
  474MOL0     H62558   8.553   0.663   4.011  1.1373 -1.4145 -0.0879
  474MOL0     H62559   8.428   0.621   3.889 -1.1134 -1.5482 -0.2223
  474MOL0     H62560   8.631   0.448   4.030 -1.4889 -1.9282  0.4875
  474MOL0     H62561   8.512   0.374   3.919 -1.8770  0.8668 -1.4934
  474MOL0     H62562   8.699   0.612   3.849  0.2010 -0.2948  0.8005
  474MOL0     H62563   8.604   0.512   3.733 -1.8036  0.8101  1.0866
  474MOL0     H62564   8.868   0.466   3.740  0.4969 -2.0901 -0.4350
  474MOL0     H62565   8.830   0.410   3.904  0.5791 -1.6047 -0.8034
  474MOL0     H62566   8.713   0.074   3.687  2.2899 -0.3513 -1.2905
  474MOL0     H62567   8.230   0.553   3.862  0.3196  0.5653 -0.6058
  474MOL0     H62568   7.992   0.527   3.886 -0.5181  0.1775  0.5253
  475MOL0     O62569   7.221   8.397   7.232  0.5260  0.0075  0.9051
  475MOL0     C62570   7.225   8.355   7.116  0.6315 -0.5686 -0.8667
  475MOL0     O62571   7.329   8.361   7.033  0.2333  0.6278  1.0547
  475MOL0     C62572   7.449   8.424   7.074 -0.3692  0.0039 -0.2182
  475MOL0     C62573   7.568   8.370   7.032  0.6878 -0.2408 -0.2944
  475MOL0     C62574   7.681   8.434   7.085  0.1081 -1.1879 -0.1194
  475MOL0     C62575   7.673   8.544   7.173 -0.1244 -0.1564 -0.3379
  475MOL0     O62576   7.793   8.591   7.223  0.1030  0.2291  0.0363
  475MOL0     C62577   7.806   8.684   7.326  0.3888 -0.0976 -0.2048
  475MOL0     C62578   7.939   8.686   7.393 -0.8304  0.3769  0.6515
  475MOL0     C62579   8.047   8.751   7.304 -0.9620 -0.5632 -0.8138
  475MOL0     C62580   8.183   8.754   7.376  0.5592 -0.1297 -1.0277
  475MOL0     C62581   8.269   8.870   7.336  0.4026 -0.0449  0.0310
  475MOL0     C62582   8.406   8.887   7.414  0.3974  0.0545  0.7060
  475MOL0     C62583   8.404   8.887   7.569  0.4190 -0.7875 -0.4115
  475MOL0     C62584   8.529   8.917   7.640 -0.7971  0.0078  0.2623
  475MOL0     N62585   8.558   9.061   7.635  0.4325  0.4861 -0.8046
  475MOL0     C62586   8.474   9.158   7.686 -0.1860 -0.7270 -0.4549
  475MOL0     C62587   8.548   9.273   7.669  0.3230  0.4336 -0.3080
  475MOL0     C62588   8.492   9.405   7.700 -0.8925  0.0528  0.6752
  475MOL0     C62589   8.540   9.456   7.833 -0.5623  0.5615 -0.7016
  475MOL0     C62590   8.487   9.586   7.865  0.0336  0.7113 -0.2646
  475MOL0     C62591   8.549   9.666   7.984  0.0840  0.4342 -0.7086
  475MOL0     O62592   8.493   9.796   7.988 -0.1614  0.1108  0.4567
  475MOL0     C62593   8.366   9.815   8.042  0.5694 -0.1082  0.3677
  475MOL0     C62594   8.322   9.952   8.035  0.2709 -0.1858  0.2486
  475MOL0     C62595   8.199   9.990   8.093 -0.6317  0.2656 -0.4174
  475MOL0     C62596   8.127   9.890   8.161  0.4944 -0.8412  0.2040
  475MOL0     C62597   7.998   9.934   8.211 -0.2197  0.1341  0.1883
  475MOL0     O62598   7.949  10.059   8.191  0.6001 -0.3129  0.5694
  475MOL0     C62599   7.810  10.072   8.208 -0.1307 -0.3113 -1.4382
  475MOL0     C62600   7.749  10.124   8.326  0.7467  0.0752 -0.5610
  475MOL0     C62601   7.613  10.113   8.351 -0.3279 -0.5892 -0.4470
  475MOL0     C62602   7.535  10.080   8.244 -0.0718  0.1709  0.1253
  475MOL0     O62603   7.401  10.086   8.271  0.2792 -0.2651 -0.3089
  475MOL0     C62604   7.304  10.102   8.164  0.4810 -0.7572  0.2424
  475MOL0     C62605   7.264   9.961   8.117  0.1644  0.2269  0.5584
  475MOL0     C62606   7.180   9.887   8.224 -0.0883  0.1857  0.3273
  475MOL0     C62607   7.054   9.959   8.268 -0.4776  0.0081  0.0997
  475MOL0     C62608   6.963   9.856   8.327 -0.2295  0.7427  0.8145
  475MOL0     C62609   6.832   9.928   8.362 -0.1655  0.5999 -1.1216
  475MOL0     C62610   6.724   9.840   8.427  0.4006 -0.7893  0.0783
  475MOL0     C62611   6.598   9.858   8.343 -1.0054  0.0441  0.0772
  475MOL0    Cl62612   6.450   9.793   8.423  0.3846 -0.1738  0.0850
  475MOL0     C62613   7.591  10.064   8.112 -0.4755 -0.1957  0.0698
  475MOL0     C62614   7.731  10.048   8.098 -0.6293 -0.7855 -0.4056
  475MOL0     O62615   7.932   9.839   8.242 -0.3209  0.6113  0.2803
  475MOL0     C62616   8.178   9.761   8.173  0.0491  0.2932 -0.0030
  475MOL0     C62617   8.295   9.722   8.114  0.1385  0.4835  0.2581
  475MOL0     N62618   8.675   9.251   7.625 -0.5256  0.5357  0.8467
  475MOL0     N62619   8.681   9.117   7.597 -0.2134 -0.6393  0.0014
  475MOL0     C62620   7.548   8.607   7.203 -0.0252 -0.2073  0.6143
  475MOL0     C62621   7.436   8.551   7.145 -0.0590 -0.6858  0.2212
  475MOL0     C62622   7.094   8.293   7.076 -0.6233  0.6644 -0.4835
  475MOL0     C62623   7.088   8.238   6.950 -0.6080 -1.6262  0.0281
  475MOL0     C62624   6.971   8.191   6.907 -0.6222 -0.2757  0.7794
  475MOL0     C62625   6.855   8.205   6.985 -0.2583  0.2554  0.0273
  475MOL0     O62626   6.736   8.165   6.929 -0.5078  0.9663 -0.2372
  475MOL0     C62627   6.615   8.156   7.013  0.6356  0.1426  0.1640
  475MOL0     C62628   6.495   8.073   6.949 -0.3001  0.3297  0.3167
  475MOL0     C62629   6.445   8.140   6.823 -0.6571 -0.3191 -0.5917
  475MOL0     C62630   6.301   8.101   6.780  0.1133  0.5243 -0.9640
  475MOL0     C62631   6.280   8.138   6.643 -0.7380 -0.1916  1.0092
  475MOL0     C62632   6.262   8.189   6.535  0.6165 -0.2059 -0.6057
  475MOL0     C62633   6.863   8.261   7.109  0.1855 -0.1398  0.0557
  475MOL0     C62634   6.984   8.299   7.161  0.3596  0.4537 -0.4539
  475MOL0     H62635   7.578   8.280   6.972  1.6727 -0.6121  0.4027
  475MOL0     H62636   7.778   8.395   7.058  0.2214 -0.7820 -0.2964
  475MOL0     H62637   7.734   8.657   7.405  0.0078 -2.6176 -1.3019
  475MOL0     H62638   7.771   8.784   7.297 -1.5659 -1.0189 -1.2668
  475MOL0     H62639   7.964   8.582   7.416 -3.4148 -0.5509 -0.3423
  475MOL0     H62640   7.930   8.745   7.484  0.8017 -2.1000  2.5497
  475MOL0     H62641   8.028   8.857   7.287  2.3189  0.5317  1.3343
  475MOL0     H62642   8.066   8.689   7.216  0.3459  0.7150 -1.4571
  475MOL0     H62643   8.167   8.756   7.485  0.6534 -3.5708 -0.8315
  475MOL0     H62644   8.238   8.660   7.368  2.0493  0.6230  0.0279
  475MOL0     H62645   8.211   8.960   7.358  0.4701 -1.1661  7.9590
  475MOL0     H62646   8.292   8.866   7.230  0.4754  1.3658 -0.0281
  475MOL0     H62647   8.455   8.979   7.383 -0.4677  0.8479  1.6400
  475MOL0     H62648   8.468   8.806   7.373 -3.6090 -1.9979 -1.9542
  475MOL0     H62649   8.331   8.963   7.598  0.6425 -1.4377  2.0641
  475MOL0     H62650   8.368   8.789   7.603  0.8837 -0.6041  0.6273
  475MOL0     H62651   8.618   8.866   7.602 -1.7328 -1.8108  0.3979
  475MOL0     H62652   8.523   8.889   7.745  0.2543 -3.5596 -0.4864
  475MOL0     H62653   8.373   9.146   7.723 -0.1989  0.8647  0.0895
  475MOL0     H62654   8.383   9.400   7.694 -0.8005 -1.4577 -0.2585
  475MOL0     H62655   8.541   9.459   7.618  1.0086 -1.4564  0.7340
  475MOL0     H62656   8.649   9.463   7.839 -0.5547 -0.5634  1.5972
  475MOL0     H62657   8.501   9.397   7.917 -0.3712  1.2063 -0.1448
  475MOL0     H62658   8.500   9.648   7.776 -1.0971  0.3173 -0.7261
  475MOL0     H62659   8.380   9.577   7.887 -0.0830  1.8105 -0.3600
  475MOL0     H62660   8.656   9.678   7.962  0.8527 -2.6132  0.7198
  475MOL0     H62661   8.539   9.613   8.079  0.3084  0.9316 -0.4076
  475MOL0     H62662   8.366  10.039   7.986 -1.7475 -0.4166 -2.1660
  475MOL0     H62663   8.153  10.087   8.081 -1.6717 -0.3881 -1.9821
  475MOL0     H62664   7.807  10.155   8.412  2.0650 -1.4064 -0.8690
  475MOL0     H62665   7.569  10.156   8.440  1.0706  0.9537 -0.4632
  475MOL0     H62666   7.344  10.168   8.085  0.2297 -0.6481  0.2057
  475MOL0     H62667   7.213  10.157   8.189  0.6818  0.0263 -0.6418
  475MOL0     H62668   7.354   9.902   8.096 -0.3151 -0.0809 -0.7514
  475MOL0     H62669   7.211   9.972   8.022 -0.1813 -1.3982  0.5290
  475MOL0     H62670   7.240   9.874   8.314  3.9075  2.0954 -1.8147
  475MOL0     H62671   7.163   9.789   8.177  0.2831 -0.2889  1.1718
  475MOL0     H62672   7.087  10.040   8.334  2.0633 -0.9125  0.0611
  475MOL0     H62673   7.002   9.997   8.179  0.4866  2.6058  0.5591
  475MOL0     H62674   7.005   9.807   8.416 -1.4934 -0.9092  0.5467
  475MOL0     H62675   6.938   9.789   8.245 -3.7334  1.9297  0.7736
  475MOL0     H62676   6.792   9.975   8.271  0.0419 -0.8026 -1.9745
  475MOL0     H62677   6.848  10.015   8.427  2.2109 -0.7800  0.2883
  475MOL0     H62678   6.763   9.738   8.422 -0.3728 -1.1123  0.4985
  475MOL0     H62679   6.706   9.859   8.533  1.1492 -2.9137  0.6435
  475MOL0     H62680   6.621   9.819   8.244  1.8341  0.7739  0.3501
  475MOL0     H62681   6.571   9.964   8.338 -2.3897 -0.3528 -2.1679
  475MOL0     H62682   7.538  10.040   8.021  3.1180  0.8637 -2.5223
  475MOL0     H62683   7.774  10.027   8.001 -0.6734  1.0166 -0.8449
  475MOL0     H62684   8.129   9.677   8.222 -2.8286 -0.4497 -3.7025
  475MOL0     H62685   8.339   9.623   8.121  2.1357  1.4296  3.5322
  475MOL0     H62686   7.550   8.703   7.254  0.1071 -1.1287  2.4040
  475MOL0     H62687   7.340   8.600   7.158  1.2932  2.4044 -0.4211
  475MOL0     H62688   7.182   8.239   6.896 -1.5615 -0.2890 -1.6818
  475MOL0     H62689   6.970   8.155   6.805  1.3275  2.2544 -0.2376
  475MOL0     H62690   6.571   8.250   7.047  1.6668  0.3802  0.8839
  475MOL0     H62691   6.636   8.112   7.111  2.2965  2.2225  0.8228
  475MOL0     H62692   6.535   7.972   6.937  1.1952  0.9040  0.3229
  475MOL0     H62693   6.425   8.080   7.033  0.6799 -0.2447  1.2086
  475MOL0     H62694   6.518   8.126   6.743  0.5516  2.1229 -0.0027
  475MOL0     H62695   6.450   8.248   6.842 -1.5629 -0.1358 -1.2953
  475MOL0     H62696   6.286   7.992   6.782  0.4153  0.4677 -1.5579
  475MOL0     H62697   6.221   8.140   6.844  0.6795 -2.2559  1.6812
  475MOL0     H62698   6.237   8.240   6.445 -0.3918 -0.7853 -0.6742
  475MOL0     H62699   6.777   8.266   7.175  1.0907  0.8108  1.2066
  475MOL0     H62700   6.987   8.331   7.265  0.7436  0.7599 -0.5567
  476MOL0     O62701   3.241   2.039   4.186 -0.2800  0.0975  0.1951
  476MOL0     C62702   3.189   2.098   4.095 -0.2907 -0.1121 -0.1459
  476MOL0     O62703   3.255   2.179   4.010  0.7740  0.6093  0.0415
  476MOL0     C62704   3.389   2.168   4.010 -0.0857  0.3406 -0.2550
  476MOL0     C62705   3.474   2.261   4.077  0.9347 -1.4359 -0.3728
  476MOL0     C62706   3.613   2.243   4.076 -0.1883 -0.0464  0.5669
  476MOL0     C62707   3.673   2.146   3.995  0.1919 -0.2827  0.3430
  476MOL0     O62708   3.803   2.138   3.996 -0.1537  0.2133  0.2232
  476MOL0     C62709   3.850   2.033   4.091  0.2864 -0.0324 -0.4422
  476MOL0     C62710   4.005   2.019   4.095  0.2755  0.3753 -0.6049
  476MOL0     C62711   4.056   1.947   4.212 -0.2967 -0.1756 -1.0833
  476MOL0     C62712   4.203   1.895   4.214  0.4923 -1.0529  0.0456
  476MOL0     C62713   4.229   1.797   4.327  0.9903 -0.0651  0.0998
  476MOL0     C62714   4.370   1.741   4.340 -0.8336 -0.8462 -0.2794
  476MOL0     C62715   4.380   1.665   4.469  0.4688 -0.8526  0.9329
  476MOL0     C62716   4.303   1.526   4.477  0.0773 -0.4545 -0.0307
  476MOL0     N62717   4.159   1.535   4.485  0.2786  0.2657  0.1827
  476MOL0     C62718   4.086   1.620   4.566 -0.2585 -0.5032  0.0799
  476MOL0     C62719   3.954   1.593   4.529  0.0884  0.0596 -0.4754
  476MOL0     C62720   3.828   1.657   4.577 -0.1080 -0.2395 -0.3979
  476MOL0     C62721   3.762   1.752   4.473  0.7969 -0.7889  0.4007
  476MOL0     C62722   3.703   1.702   4.341 -0.1022  0.6558  0.3555
  476MOL0     C62723   3.582   1.623   4.393 -0.3103 -0.0450 -0.0782
  476MOL0     O62724   3.509   1.574   4.286  0.5058 -0.9237 -0.2025
  476MOL0     C62725   3.379   1.575   4.308  0.3862 -0.1138  1.0225
  476MOL0     C62726   3.322   1.468   4.382  0.6058 -0.0160  0.1617
  476MOL0     C62727   3.181   1.462   4.390 -0.7100 -0.0099  0.8113
  476MOL0     C62728   3.092   1.560   4.330 -0.2165 -0.0643 -0.0022
  476MOL0     C62729   2.942   1.550   4.360 -0.0132  0.0853  0.2993
  476MOL0     O62730   2.855   1.611   4.277 -0.3277 -0.1100 -0.1723
  476MOL0     C62731   2.725   1.631   4.302  0.0346  0.1189 -1.4771
  476MOL0     C62732   2.635   1.623   4.193  0.6346  0.2691 -0.2532
  476MOL0     C62733   2.503   1.648   4.208  0.3491 -0.7821 -0.3976
  476MOL0     C62734   2.449   1.681   4.335  0.0960  0.4423  0.1356
  476MOL0     O62735   2.312   1.701   4.362 -0.0771  0.3593  0.3675
  476MOL0     C62736   2.228   1.635   4.270  0.0850  0.0223  0.0478
  476MOL0     C62737   2.078   1.665   4.305 -0.3846 -0.2578  0.3903
  476MOL0     C62738   2.052   1.814   4.273 -0.1469  0.5117 -0.3451
  476MOL0     C62739   1.911   1.838   4.287 -0.0556 -0.5537 -0.4076
  476MOL0     C62740   1.887   1.992   4.281 -0.3190  1.1972 -0.0748
  476MOL0     C62741   1.939   2.047   4.148 -0.6618 -0.6231 -0.3791
  476MOL0     C62742   1.884   2.185   4.116  1.1872  0.0625 -0.3433
  476MOL0     C62743   1.968   2.231   3.991  0.4952 -0.4453 -0.5965
  476MOL0    Cl62744   1.862   2.359   3.924  0.5015  0.5567 -0.2404
  476MOL0     C62745   2.537   1.671   4.447 -1.1154  0.4315 -0.3028
  476MOL0     C62746   2.679   1.658   4.433 -0.2452  0.0901 -0.2711
  476MOL0     O62747   2.911   1.485   4.460  0.1302  0.1223 -0.5116
  476MOL0     C62748   3.155   1.665   4.264 -0.5261 -0.9032 -1.0375
  476MOL0     C62749   3.292   1.672   4.258  0.1892 -0.8957  0.1731
  476MOL0     N62750   3.955   1.500   4.426  0.1218 -0.5792 -0.2423
  476MOL0     N62751   4.074   1.477   4.393 -0.3629  1.1898 -0.6538
  476MOL0     C62752   3.594   2.067   3.912 -0.4089 -0.3711 -0.1602
  476MOL0     C62753   3.453   2.080   3.919  0.1068 -0.9861 -0.0226
  476MOL0     C62754   3.047   2.088   4.069 -0.0119  0.4438  0.3544
  476MOL0     C62755   2.988   2.164   3.972 -0.0553  0.2410  0.3010
  476MOL0     C62756   2.845   2.155   3.948  0.4220  0.0962 -0.5220
  476MOL0     C62757   2.761   2.067   4.022 -0.4235  0.7119 -0.7954
  476MOL0     O62758   2.626   2.040   3.996  0.2608  0.5783  0.2272
  476MOL0     C62759   2.535   2.137   4.040 -0.4162  0.1397 -0.3793
  476MOL0     C62760   2.442   2.174   3.928  0.1200  0.1980  0.2392
  476MOL0     C62761   2.377   2.312   3.939 -0.4860  0.3625  0.6906
  476MOL0     C62762   2.273   2.327   3.831  1.0631 -0.5932 -0.4037
  476MOL0     C62763   2.337   2.360   3.703  0.3043  0.5255  0.9872
  476MOL0     C62764   2.411   2.377   3.611  0.7293  1.1201  0.5564
  476MOL0     C62765   2.825   1.991   4.127  0.2508 -0.2664 -0.3807
  476MOL0     C62766   2.964   1.995   4.144 -0.7013  0.1191  0.2765
  476MOL0     H62767   3.424   2.329   4.144  0.2742 -0.2309 -2.0045
  476MOL0     H62768   3.675   2.300   4.145 -1.2294 -1.4000  2.7395
  476MOL0     H62769   3.820   1.930   4.068  1.5871 -0.5728  0.1599
  476MOL0     H62770   3.804   2.053   4.189  1.6461  0.6538  0.0832
  476MOL0     H62771   4.053   2.116   4.084  4.7014 -1.4252  0.6792
  476MOL0     H62772   4.031   1.965   4.003 -0.2105  1.2644 -1.2802
  476MOL0     H62773   4.001   1.853   4.223 -1.9773  0.8862  0.1044
  476MOL0     H62774   4.047   1.997   4.309  2.7307  2.2660 -1.9043
  476MOL0     H62775   4.226   1.842   4.121 -2.8236  1.0793 -2.1934
  476MOL0     H62776   4.271   1.980   4.217 -1.1054  0.2859 -0.2564
  476MOL0     H62777   4.155   1.718   4.313 -1.5844  1.3724  4.0350
  476MOL0     H62778   4.195   1.850   4.416 -2.1981  3.1518 -2.7174
  476MOL0     H62779   4.434   1.829   4.346 -3.2210  0.9228  0.9290
  476MOL0     H62780   4.394   1.676   4.255 -1.3901 -0.2744 -0.8863
  476MOL0     H62781   4.486   1.647   4.485  0.1364 -2.1644  1.7635
  476MOL0     H62782   4.346   1.728   4.552 -2.4355 -1.2274  0.1631
  476MOL0     H62783   4.344   1.477   4.566  0.6395  0.1638  0.0660
  476MOL0     H62784   4.338   1.456   4.401  0.1182 -1.1619  0.6289
  476MOL0     H62785   4.114   1.695   4.640  0.4738 -0.3597 -0.3433
  476MOL0     H62786   3.848   1.718   4.666  0.8580  1.4463 -1.6876
  476MOL0     H62787   3.750   1.582   4.588  0.4077 -0.9737 -1.5428
  476MOL0     H62788   3.845   1.820   4.450  0.6883 -0.0384  2.1064
  476MOL0     H62789   3.691   1.814   4.528  1.7063  0.8929 -0.2434
  476MOL0     H62790   3.676   1.783   4.273  0.4490  0.7712  0.2682
  476MOL0     H62791   3.774   1.632   4.295 -1.6403 -0.2225 -0.7766
  476MOL0     H62792   3.518   1.689   4.452 -1.4724  2.5992 -3.9351
  476MOL0     H62793   3.604   1.537   4.457  2.9074  0.3318 -0.5051
  476MOL0     H62794   3.389   1.387   4.410  1.0335 -0.6037 -2.2863
  476MOL0     H62795   3.133   1.380   4.443 -2.1619  0.3578  0.1222
  476MOL0     H62796   2.671   1.608   4.091  5.0002  1.0607  0.9531
  476MOL0     H62797   2.443   1.662   4.119 -2.3642 -0.5123  1.3622
  476MOL0     H62798   2.246   1.527   4.275 -1.7284 -0.2693  1.2216
  476MOL0     H62799   2.239   1.678   4.170  2.4577  1.4356  0.8349
  476MOL0     H62800   2.066   1.644   4.412 -0.1989 -1.0492  0.2592
  476MOL0     H62801   2.009   1.607   4.243 -1.5221 -0.4759  1.7937
  476MOL0     H62802   2.090   1.839   4.173 -0.1939  1.4348 -0.1353
  476MOL0     H62803   2.109   1.874   4.344 -1.1044 -0.1926  1.0649
  476MOL0     H62804   1.860   1.799   4.199 -2.2212 -2.2188  1.4897
  476MOL0     H62805   1.868   1.794   4.377 -1.5398  1.1195 -0.2527
  476MOL0     H62806   1.935   2.030   4.372  1.3675  0.5822 -0.6807
  476MOL0     H62807   1.781   2.007   4.304 -0.4535 -1.7897  1.8250
  476MOL0     H62808   1.927   1.975   4.066  1.5084 -0.9286 -0.4684
  476MOL0     H62809   2.044   2.059   4.173 -0.9735  3.3666 -0.3639
  476MOL0     H62810   1.775   2.182   4.101  1.0461  0.0637  0.5920
  476MOL0     H62811   1.902   2.245   4.205  2.8120  1.0024 -1.2656
  476MOL0     H62812   1.974   2.147   3.921 -0.9097  0.2386 -1.5827
  476MOL0     H62813   2.072   2.251   4.019  0.9935 -1.6286 -1.5207
  476MOL0     H62814   2.493   1.686   4.545 -0.0871 -3.0569  0.8168
  476MOL0     H62815   2.746   1.656   4.519  1.0588  1.5496 -1.1858
  476MOL0     H62816   3.095   1.738   4.211 -0.3642 -0.4646 -0.6271
  476MOL0     H62817   3.339   1.752   4.201  2.0056 -1.0816  1.3403
  476MOL0     H62818   3.639   2.001   3.838  0.0799  2.7569 -2.9357
  476MOL0     H62819   3.383   2.013   3.869 -2.3241  1.3928 -0.0538
  476MOL0     H62820   3.048   2.236   3.918 -1.2827  1.5039  0.5612
  476MOL0     H62821   2.794   2.206   3.866 -0.7604 -1.8504 -1.0544
  476MOL0     H62822   2.583   2.229   4.075 -1.3393  1.2465 -1.9061
  476MOL0     H62823   2.483   2.097   4.128  0.8405  1.8196  1.2200
  476MOL0     H62824   2.504   2.175   3.838 -0.1464  0.5480  0.0537
  476MOL0     H62825   2.374   2.091   3.904  1.8018 -2.2557  3.2373
  476MOL0     H62826   2.443   2.395   3.914  0.4918 -0.3014  0.9906
  476MOL0     H62827   2.342   2.315   4.042  0.0502  0.5919  0.8672
  476MOL0     H62828   2.217   2.233   3.825  4.6327 -2.9036 -0.0557
  476MOL0     H62829   2.202   2.404   3.862  1.8803  0.5765 -1.3621
  476MOL0     H62830   2.486   2.393   3.536 -1.2351 -1.4198 -2.1687
  476MOL0     H62831   2.768   1.912   4.176 -0.0887 -0.1281 -0.5486
  476MOL0     H62832   3.014   1.937   4.221  4.1015  1.2859 -1.6014
  477MOL0     O62833   5.072   8.059   4.348  0.2227  0.1101  0.2111
  477MOL0     C62834   5.141   8.035   4.246 -0.4210  0.2127  0.0583
  477MOL0     O62835   5.106   7.946   4.144  0.2261  0.0499  0.1064
  477MOL0     C62836   5.002   7.859   4.170 -0.7038  0.0699  0.8087
  477MOL0     C62837   4.876   7.895   4.133 -0.0306 -0.2402 -0.3557
  477MOL0     C62838   4.772   7.805   4.146 -0.5974 -0.3024 -0.2258
  477MOL0     C62839   4.801   7.677   4.180  1.5237 -0.5087 -0.4137
  477MOL0     O62840   4.690   7.597   4.189 -0.4287  0.3867 -0.2540
  477MOL0     C62841   4.705   7.453   4.214  0.6224 -0.8715 -0.7005
  477MOL0     C62842   4.573   7.371   4.212 -0.0355 -0.9686 -0.2588
  477MOL0     C62843   4.461   7.453   4.284 -0.3396  0.2272  0.4714
  477MOL0     C62844   4.359   7.354   4.344 -0.3960 -0.1382 -0.0497
  477MOL0     C62845   4.286   7.267   4.239  0.1280  0.1739 -0.3157
  477MOL0     C62846   4.158   7.333   4.190 -0.4173 -1.0800 -0.1693
  477MOL0     C62847   4.074   7.238   4.109 -0.1510 -0.1829  0.3776
  477MOL0     C62848   3.943   7.314   4.081  0.6068 -0.0936  0.2416
  477MOL0     N62849   3.846   7.229   4.014 -0.4385 -0.2601 -1.1308
  477MOL0     C62850   3.819   7.097   4.049  0.3752  0.0061 -0.6710
  477MOL0     C62851   3.771   7.052   3.937  0.0096 -0.4882 -0.4997
  477MOL0     C62852   3.724   6.906   3.933  0.1657  0.7707  0.8238
  477MOL0     C62853   3.582   6.892   3.966  0.8897  0.2731 -0.3017
  477MOL0     C62854   3.541   6.746   3.977  0.2393 -0.3688 -0.2424
  477MOL0     C62855   3.388   6.736   3.992  0.7245 -0.8562 -0.8023
  477MOL0     O62856   3.314   6.799   3.880 -0.2173 -0.6671 -0.4649
  477MOL0     C62857   3.177   6.779   3.881 -0.3835  0.1229 -0.1146
  477MOL0     C62858   3.109   6.804   3.762  0.4132  0.5762 -0.2752
  477MOL0     C62859   2.970   6.785   3.751  0.7809  0.0833 -0.3653
  477MOL0     C62860   2.897   6.740   3.859  0.4594  1.5821 -0.0260
  477MOL0     C62861   2.746   6.713   3.860  0.9523  0.4182  0.3228
  477MOL0     O62862   2.688   6.710   3.734  0.0299  0.1071  0.1130
  477MOL0     C62863   2.548   6.703   3.740 -0.1080  0.5850  0.1444
  477MOL0     C62864   2.470   6.818   3.745  1.1538  0.3033  0.5054
  477MOL0     C62865   2.330   6.805   3.740  0.0250 -0.0439  0.0890
  477MOL0     C62866   2.268   6.679   3.741 -0.1084 -0.3257  0.1347
  477MOL0     O62867   2.136   6.649   3.739  0.0418 -0.3693 -0.0417
  477MOL0     C62868   2.040   6.757   3.710 -0.5350  0.7110  0.6941
  477MOL0     C62869   2.005   6.822   3.840 -0.6668 -0.2208 -0.0961
  477MOL0     C62870   1.905   6.928   3.835 -0.1415  0.4277 -0.3459
  477MOL0     C62871   1.900   7.013   3.958  0.2198 -0.3597  0.2115
  477MOL0     C62872   1.792   7.114   3.949  0.0730 -0.0310  0.3213
  477MOL0     C62873   1.656   7.060   3.964  0.1571  0.0209 -0.2554
  477MOL0     C62874   1.541   7.156   3.941 -0.4558  0.5490  0.4611
  477MOL0     C62875   1.406   7.104   3.974 -0.2299 -0.8935  0.0204
  477MOL0    Cl62876   1.281   7.210   3.895  0.4725  0.2633  0.0729
  477MOL0     C62877   2.350   6.560   3.737  0.5465  0.4714  0.0376
  477MOL0     C62878   2.490   6.578   3.740  0.6617 -0.0329 -0.2865
  477MOL0     O62879   2.684   6.689   3.962 -0.5084  0.0912 -0.1598
  477MOL0     C62880   2.968   6.709   3.981  0.2491 -0.7299  0.4412
  477MOL0     C62881   3.108   6.720   3.986 -0.7281  0.5855  0.0789
  477MOL0     N62882   3.747   7.158   3.849  0.3511  0.5859  0.0453
  477MOL0     N62883   3.798   7.267   3.893  0.2538  0.2183  0.1805
  477MOL0     C62884   4.931   7.643   4.221 -0.1479  0.3999 -0.5140
  477MOL0     C62885   5.038   7.733   4.221  0.3785 -0.9076  0.3319
  477MOL0     C62886   5.275   8.093   4.237 -0.5106  0.6056 -0.3111
  477MOL0     C62887   5.316   8.203   4.321 -0.6359  1.0356  0.5003
  477MOL0     C62888   5.444   8.260   4.310  0.5877  1.0822  0.2066
  477MOL0     C62889   5.537   8.207   4.220 -0.7840 -0.4986 -0.0223
  477MOL0     O62890   5.655   8.282   4.193 -0.6240  0.4369 -0.0022
  477MOL0     C62891   5.752   8.235   4.097  0.1896  0.3421  0.2668
  477MOL0     C62892   5.730   8.297   3.947  0.7051  0.6840  0.3607
  477MOL0     C62893   5.780   8.439   3.921  0.3197  0.3963 -0.2813
  477MOL0     C62894   5.931   8.452   3.895  0.3768 -0.2516  0.1001
  477MOL0     C62895   5.978   8.377   3.786 -0.2034  0.6502  0.0563
  477MOL0     C62896   6.037   8.339   3.691  0.2959  0.9718 -0.0470
  477MOL0     C62897   5.503   8.099   4.135  0.1654 -0.4845 -0.0689
  477MOL0     C62898   5.377   8.040   4.144  0.9206 -0.1807  0.5365
  477MOL0     H62899   4.853   7.995   4.097 -2.9800 -1.3730 -2.0550
  477MOL0     H62900   4.674   7.838   4.113 -0.7593  0.3042  0.8066
  477MOL0     H62901   4.751   7.449   4.313  2.1630  2.4427 -1.1359
  477MOL0     H62902   4.773   7.406   4.142 -0.4722 -1.4444 -1.3811
  477MOL0     H62903   4.595   7.282   4.273  0.9769  0.8504  2.2069
  477MOL0     H62904   4.553   7.337   4.110  2.7606 -1.4445 -0.7426
  477MOL0     H62905   4.425   7.530   4.215  1.1166  0.6704  0.1836
  477MOL0     H62906   4.504   7.511   4.366 -2.1722  3.1611 -0.4905
  477MOL0     H62907   4.400   7.293   4.425 -2.0335  0.0162  0.9418
  477MOL0     H62908   4.281   7.417   4.386 -1.2847 -1.6581  0.6694
  477MOL0     H62909   4.241   7.182   4.292  0.7443 -1.5651 -2.4278
  477MOL0     H62910   4.354   7.233   4.161  0.4301  0.9200 -0.3824
  477MOL0     H62911   4.186   7.424   4.136  3.5222 -1.7513  0.3825
  477MOL0     H62912   4.093   7.366   4.271 -0.1206  3.0805 -1.3863
  477MOL0     H62913   4.126   7.209   4.017  0.6245  1.1461  0.3753
  477MOL0     H62914   4.060   7.148   4.171 -0.7262  1.4315  2.7086
  477MOL0     H62915   3.952   7.407   4.024 -0.2244 -0.4097 -0.4222
  477MOL0     H62916   3.891   7.338   4.174  0.9222  1.3986  0.0597
  477MOL0     H62917   3.840   7.042   4.140 -0.4279 -0.2675 -0.6431
  477MOL0     H62918   3.782   6.839   3.997 -2.0512 -2.1078  0.0686
  477MOL0     H62919   3.755   6.860   3.838 -2.3756 -3.1566  1.6819
  477MOL0     H62920   3.523   6.934   3.885 -0.1776 -0.4470  0.0751
  477MOL0     H62921   3.559   6.946   4.059 -1.5639 -1.2195  0.0387
  477MOL0     H62922   3.572   6.689   3.889 -1.0591 -2.4816  0.5902
  477MOL0     H62923   3.573   6.704   4.072 -0.9202 -0.0739  0.2979
  477MOL0     H62924   3.366   6.784   4.088  1.4975  0.2599 -1.1747
  477MOL0     H62925   3.364   6.629   4.002 -0.1542 -0.6886 -1.0733
  477MOL0     H62926   3.172   6.841   3.682 -0.6063  1.0833 -0.8499
  477MOL0     H62927   2.920   6.818   3.660 -0.1375  1.9100  0.7474
  477MOL0     H62928   2.501   6.922   3.744 -0.8931  1.0661  3.4030
  477MOL0     H62929   2.269   6.894   3.743 -2.5360 -1.5842 -1.8675
  477MOL0     H62930   1.954   6.708   3.664  0.1384 -0.4662  0.6481
  477MOL0     H62931   2.082   6.830   3.640 -1.3660  0.9957  0.4773
  477MOL0     H62932   2.099   6.853   3.886 -0.6268  1.3479 -1.1516
  477MOL0     H62933   1.957   6.751   3.909 -0.4024  0.0544  0.3715
  477MOL0     H62934   1.807   6.880   3.822 -0.3230  0.6962  0.0022
  477MOL0     H62935   1.920   6.996   3.750  5.2942 -0.6593 -0.5883
  477MOL0     H62936   1.886   6.938   4.036  1.2546  3.0665  4.0385
  477MOL0     H62937   1.994   7.066   3.972 -0.7066  0.8675  2.1194
  477MOL0     H62938   1.804   7.168   3.855  3.2598  0.3212  0.8167
  477MOL0     H62939   1.798   7.187   4.031 -0.2760  1.3434 -0.8421
  477MOL0     H62940   1.647   7.034   4.070  1.9320  1.6139  0.3463
  477MOL0     H62941   1.652   6.975   3.896  2.5444  0.7002 -1.3822
  477MOL0     H62942   1.558   7.256   3.983  3.4007  1.7690 -3.2344
  477MOL0     H62943   1.553   7.188   3.837  2.8704  5.0837  1.8782
  477MOL0     H62944   1.369   7.091   4.076 -1.3459  0.2022 -0.2224
  477MOL0     H62945   1.394   7.010   3.919 -0.9509 -0.0534 -1.3066
  477MOL0     H62946   2.318   6.456   3.745 -0.9421  0.6600 -2.4269
  477MOL0     H62947   2.552   6.489   3.737 -0.1432 -0.6200  0.0784
  477MOL0     H62948   2.906   6.665   4.059  0.0490 -0.5408  0.3894
  477MOL0     H62949   3.159   6.681   4.074  0.6849 -0.0439 -0.9857
  477MOL0     H62950   4.954   7.546   4.263  1.3263  1.1440  0.5066
  477MOL0     H62951   5.142   7.723   4.252  0.6448  2.0298  0.6373
  477MOL0     H62952   5.250   8.258   4.388 -1.7396  0.0352  0.2692
  477MOL0     H62953   5.473   8.340   4.378  0.1510 -0.2413  2.0478
  477MOL0     H62954   5.758   8.126   4.097  0.9981  0.3751  1.4914
  477MOL0     H62955   5.847   8.272   4.135  0.5131 -0.2092  0.0065
  477MOL0     H62956   5.786   8.233   3.878  3.1480  2.4308  0.6022
  477MOL0     H62957   5.623   8.296   3.924  0.2955  2.5100  1.9087
  477MOL0     H62958   5.735   8.502   3.999 -2.5789 -0.6839 -0.9275
  477MOL0     H62959   5.730   8.473   3.830 -4.1167 -0.0666  1.7104
  477MOL0     H62960   5.953   8.557   3.872 -1.7872  1.0455  3.2554
  477MOL0     H62961   5.981   8.427   3.989 -0.4984 -1.3536  0.2927
  477MOL0     H62962   6.082   8.279   3.615 -2.2194 -2.6975  1.1139
  477MOL0     H62963   5.570   8.080   4.052  2.6942  2.4161  1.0829
  477MOL0     H62964   5.351   7.956   4.080  0.4187 -0.7120  1.4136
  478MOL0     O62965   1.346   7.217   0.632  0.2856 -0.1251  0.0845
  478MOL0     C62966   1.288   7.317   0.669 -0.3860 -0.0516  0.6611
  478MOL0     O62967   1.159   7.324   0.704 -0.1732 -0.2936  0.9579
  478MOL0     C62968   1.089   7.209   0.721  0.1571  0.4920 -0.3219
  478MOL0     C62969   1.058   7.120   0.620 -0.1617  0.8530 -0.2081
  478MOL0     C62970   0.975   7.015   0.640 -0.0782 -0.1259  0.4240
  478MOL0     C62971   0.915   6.987   0.758 -0.0025  0.3882 -0.7104
  478MOL0     O62972   0.828   6.885   0.759 -0.1691  0.1707 -0.1883
  478MOL0     C62973   0.722   6.877   0.857  0.4642  0.4110 -0.4248
  478MOL0     C62974   0.595   6.791   0.825 -0.4737  0.5050  0.3016
  478MOL0     C62975   0.641   6.654   0.767 -0.0314 -0.1018  0.4871
  478MOL0     C62976   0.523   6.559   0.732 -0.1740 -0.5165  0.2770
  478MOL0     C62977   0.404   6.636   0.662  0.7210 -0.6127 -0.3368
  478MOL0     C62978   0.299   6.545   0.602 -0.0453 -0.0288 -0.6176
  478MOL0     C62979   0.194   6.634   0.554 -0.1655  0.0667  0.0755
  478MOL0     C62980   0.063   6.568   0.519  0.0044 -0.8086  0.2009
  478MOL0     N62981  -0.020   6.498   0.620  0.1108  0.5318 -0.2988
  478MOL0     C62982  -0.151   6.449   0.598  0.4656 -0.2843 -1.6014
  478MOL0     C62983  -0.191   6.415   0.722 -0.4972 -0.5390  0.1509
  478MOL0     C62984  -0.319   6.358   0.763 -0.2645 -0.0177 -0.5695
  478MOL0     C62985  -0.321   6.205   0.769 -0.5868 -0.2465 -0.5052
  478MOL0     C62986  -0.457   6.157   0.815  0.2860  0.0692  0.5521
  478MOL0     C62987  -0.471   6.003   0.828  0.0881 -0.0262 -0.4850
  478MOL0     O62988  -0.561   5.960   0.931  0.2816  0.0336  0.0772
  478MOL0     C62989  -0.697   5.965   0.912 -0.0780  0.2864  0.0993
  478MOL0     C62990  -0.768   5.931   0.801 -0.0263  0.1934  0.4746
  478MOL0     C62991  -0.914   5.926   0.807 -0.7072  0.1997 -0.0900
  478MOL0     C62992  -0.983   5.954   0.925  0.2177 -0.0467 -0.1109
  478MOL0     C62993  -1.129   5.947   0.933 -0.4846 -0.3856 -0.2090
  478MOL0     O62994  -1.191   5.918   0.813 -0.4566  0.2704 -0.7791
  478MOL0     C62995  -1.323   5.909   0.813  0.0171 -0.3988  0.0938
  478MOL0     C62996  -1.393   5.793   0.862 -0.4703 -0.3682 -0.7603
  478MOL0     C62997  -1.529   5.790   0.871 -0.3458  0.6155 -0.5686
  478MOL0     C62998  -1.601   5.902   0.830  0.7896 -0.3984  0.0974
  478MOL0     O62999  -1.737   5.894   0.845  0.3900 -0.0314 -0.5068
  478MOL0     C63000  -1.827   5.970   0.769 -0.3023  0.1212  0.4152
  478MOL0     C63001  -1.968   5.939   0.810 -0.2842  0.3317  0.6063
  478MOL0     C63002  -2.019   5.805   0.748 -0.1591  0.4865 -0.5470
  478MOL0     C63003  -2.157   5.794   0.815  0.3003 -1.1137 -0.2486
  478MOL0     C63004  -2.226   5.662   0.786 -0.4981  0.4399  0.3165
  478MOL0     C63005  -2.323   5.659   0.657 -0.6201  0.1537 -0.1210
  478MOL0     C63006  -2.460   5.721   0.693  0.5358 -0.5229  0.1272
  478MOL0     C63007  -2.554   5.729   0.569 -0.0427  0.0246  0.5579
  478MOL0    Cl63008  -2.587   5.565   0.511 -0.3886  0.2652  0.7081
  478MOL0     C63009  -1.531   6.022   0.791 -0.1273  0.4062  0.1237
  478MOL0     C63010  -1.398   6.028   0.778  0.5110 -0.2614 -0.6893
  478MOL0     O63011  -1.185   5.962   1.043 -0.2314  0.3652 -0.2634
  478MOL0     C63012  -0.908   5.989   1.035  0.9014  0.7258 -0.2262
  478MOL0     C63013  -0.772   5.990   1.027 -0.8321 -0.1216  0.5803
  478MOL0     N63014  -0.091   6.445   0.812 -0.4159  0.0202 -0.2579
  478MOL0     N63015   0.009   6.492   0.751  0.6015 -0.1624 -0.0214
  478MOL0     C63016   0.933   7.083   0.861  1.3074 -0.6228 -0.0691
  478MOL0     C63017   1.019   7.192   0.846 -0.3138 -0.2249  0.8263
  478MOL0     C63018   1.364   7.443   0.661  0.4033 -0.5835  0.0032
  478MOL0     C63019   1.502   7.452   0.621  1.1294  0.4071  0.2644
  478MOL0     C63020   1.563   7.567   0.618 -1.4866 -0.2506 -0.4013
  478MOL0     C63021   1.511   7.692   0.676  0.4917 -0.5729 -0.2052
  478MOL0     O63022   1.586   7.813   0.672  0.7738  0.1668 -0.1768
  478MOL0     C63023   1.728   7.815   0.645 -0.2211  0.7433  0.2504
  478MOL0     C63024   1.799   7.762   0.773 -0.1161  0.1669 -0.5177
  478MOL0     C63025   1.800   7.863   0.885  0.5927  0.2376 -0.3956
  478MOL0     C63026   1.844   7.813   1.020 -0.6486  0.5691 -0.8465
  478MOL0     C63027   1.955   7.720   1.016  0.9628  0.2797 -0.2104
  478MOL0     C63028   2.046   7.641   1.004 -0.1641  0.0904 -0.7354
  478MOL0     C63029   1.376   7.689   0.710 -0.3867 -0.7959 -0.2199
  478MOL0     C63030   1.305   7.564   0.697 -0.0793  1.3151 -0.0250
  478MOL0     H63031   1.106   7.140   0.524  0.4787  0.5140  0.0365
  478MOL0     H63032   0.969   6.938   0.563  3.8414 -0.1253 -0.1086
  478MOL0     H63033   0.690   6.978   0.886  1.3053  0.9531 -1.2844
  478MOL0     H63034   0.779   6.832   0.939  1.7438 -1.3828 -2.1928
  478MOL0     H63035   0.541   6.841   0.744 -0.3195 -1.0968 -0.8193
  478MOL0     H63036   0.534   6.781   0.915 -3.2145  4.0546 -0.8810
  478MOL0     H63037   0.700   6.599   0.841 -0.3837  0.7695  1.4330
  478MOL0     H63038   0.696   6.671   0.674 -0.6476 -2.2267 -0.3444
  478MOL0     H63039   0.566   6.489   0.660 -1.0782  1.0832 -1.9618
  478MOL0     H63040   0.510   6.498   0.821  0.7570 -1.4686 -0.2180
  478MOL0     H63041   0.451   6.700   0.587  0.6492 -0.0890  0.0598
  478MOL0     H63042   0.354   6.703   0.734 -2.5908 -1.4401 -1.7135
  478MOL0     H63043   0.265   6.481   0.684 -2.4230 -0.9019 -2.1708
  478MOL0     H63044   0.339   6.476   0.527 -0.6001 -0.2373 -0.7269
  478MOL0     H63045   0.174   6.707   0.634 -1.5306  0.4674 -0.5948
  478MOL0     H63046   0.223   6.686   0.462 -1.0970 -1.4183 -1.1113
  478MOL0     H63047   0.072   6.499   0.435 -0.4655  0.9072 -1.3302
  478MOL0     H63048  -0.007   6.644   0.485 -1.7959 -2.3118  0.3791
  478MOL0     H63049  -0.213   6.460   0.509 -0.4124  1.6670 -0.8041
  478MOL0     H63050  -0.395   6.391   0.691 -0.2346  1.0702 -0.1180
  478MOL0     H63051  -0.343   6.396   0.862 -0.9771 -0.1294 -0.6933
  478MOL0     H63052  -0.247   6.174   0.843 -1.5000  0.8060  0.9295
  478MOL0     H63053  -0.303   6.163   0.670  0.7417 -1.5448  0.2576
  478MOL0     H63054  -0.470   6.200   0.915 -4.4967  1.2217 -0.2940
  478MOL0     H63055  -0.540   6.190   0.751  0.8110  1.6814  0.6419
  478MOL0     H63056  -0.370   5.962   0.837  1.4867  2.7943 -1.7206
  478MOL0     H63057  -0.501   5.967   0.729 -0.8025 -1.0900  0.1557
  478MOL0     H63058  -0.720   5.893   0.712  0.8211  0.8925  0.6258
  478MOL0     H63059  -0.977   5.896   0.723  0.8345 -1.1819 -0.8023
  478MOL0     H63060  -1.340   5.712   0.911 -2.8915 -1.4780  0.2040
  478MOL0     H63061  -1.588   5.713   0.919  1.7422 -1.4433 -1.1459
  478MOL0     H63062  -1.820   5.964   0.660 -0.4521 -4.3802  0.4677
  478MOL0     H63063  -1.812   6.073   0.806  1.0527 -0.7844  2.6067
  478MOL0     H63064  -2.030   6.024   0.779 -0.0302  0.1461 -0.4407
  478MOL0     H63065  -1.966   5.911   0.915  2.4603 -3.4814 -0.2547
  478MOL0     H63066  -1.975   5.710   0.780 -0.9638 -0.7001 -2.7560
  478MOL0     H63067  -2.018   5.805   0.638  1.4647 -0.5943 -0.5538
  478MOL0     H63068  -2.157   5.795   0.925 -0.6234 -0.8972 -0.2461
  478MOL0     H63069  -2.222   5.871   0.775 -2.6820 -3.0311  0.5652
  478MOL0     H63070  -2.289   5.626   0.869  0.8246 -2.3910  0.2122
  478MOL0     H63071  -2.151   5.584   0.770 -0.6535  0.2848  0.3273
  478MOL0     H63072  -2.340   5.554   0.629 -0.4591 -0.2944  1.3671
  478MOL0     H63073  -2.280   5.711   0.572  1.3402  0.5693  1.0502
  478MOL0     H63074  -2.504   5.651   0.765  0.5761 -2.9648 -2.0643
  478MOL0     H63075  -2.460   5.823   0.733  0.3643 -1.3755  2.4696
  478MOL0     H63076  -2.496   5.784   0.494 -1.8024 -0.3330 -1.1443
  478MOL0     H63077  -2.647   5.782   0.591  1.0867  2.4453 -0.0830
  478MOL0     H63078  -1.593   6.108   0.769  0.2222  0.9957  1.3133
  478MOL0     H63079  -1.350   6.123   0.754 -0.6604  0.8207  1.0307
  478MOL0     H63080  -0.953   6.013   1.131  2.0150  0.1104  0.4680
  478MOL0     H63081  -0.705   6.017   1.108  2.2019 -2.6553 -0.8641
  478MOL0     H63082   0.877   7.070   0.953  1.4929  1.2051  0.3410
  478MOL0     H63083   1.056   7.257   0.926  3.2089  1.2827 -1.7631
  478MOL0     H63084   1.539   7.358   0.582  1.6773  1.2983 -1.4600
  478MOL0     H63085   1.665   7.579   0.582 -1.6577  1.9958 -0.2491
  478MOL0     H63086   1.761   7.916   0.620 -0.0911 -0.1038 -3.5610
  478MOL0     H63087   1.773   7.750   0.570 -1.9362  1.3748 -1.3843
  478MOL0     H63088   1.756   7.671   0.816 -2.0413  0.4799 -1.6331
  478MOL0     H63089   1.903   7.746   0.746  1.6709 -0.0107  5.1956
  478MOL0     H63090   1.697   7.896   0.901 -0.0235 -2.0004  0.6585
  478MOL0     H63091   1.860   7.949   0.854  1.8924  0.0318  1.3867
  478MOL0     H63092   1.876   7.907   1.066 -0.2622 -0.5467  1.2913
  478MOL0     H63093   1.753   7.775   1.068 -2.3684  2.2480 -2.5855
  478MOL0     H63094   2.123   7.566   1.000 -0.8957 -0.9021  1.8602
  478MOL0     H63095   1.340   7.786   0.742 -0.8946 -0.3655 -2.0129
  478MOL0     H63096   1.202   7.565   0.730  0.4513  0.6772  1.7509
  479MOL0     O63097   4.999   7.841  10.038 -1.1111 -0.2886 -0.9234
  479MOL0     C63098   4.969   7.913  10.134 -0.7164 -0.0738 -0.3736
  479MOL0     O63099   4.839   7.949  10.169 -0.1013 -0.2050 -0.2639
  479MOL0     C63100   4.723   7.891  10.119 -0.3439  0.0314 -0.5455
  479MOL0     C63101   4.607   7.970  10.099 -0.5219 -0.2643 -0.1205
  479MOL0     C63102   4.493   7.914  10.046 -0.6879 -0.3497 -0.4964
  479MOL0     C63103   4.489   7.774  10.021  0.4578 -0.2225  0.7427
  479MOL0     O63104   4.379   7.725   9.956  0.6185 -0.1252 -0.5751
  479MOL0     C63105   4.406   7.673   9.827  0.5131  0.1044  0.4507
  479MOL0     C63106   4.270   7.652   9.750  0.7051 -0.5360 -0.3245
  479MOL0     C63107   4.227   7.510   9.784  0.2174  0.3033 -0.2701
  479MOL0     C63108   4.105   7.464   9.711 -0.6631 -0.5830 -0.0954
  479MOL0     C63109   4.076   7.315   9.731 -0.6885 -0.3506  1.0858
  479MOL0     C63110   4.035   7.276   9.879  0.4903  0.1528 -0.4196
  479MOL0     C63111   3.909   7.363   9.933 -1.4015  0.6269 -0.3863
  479MOL0     C63112   3.785   7.352   9.848  0.6320 -0.1576 -0.2769
  479MOL0     N63113   3.739   7.214   9.854  0.4175  0.2253  0.0378
  479MOL0     C63114   3.620   7.176   9.898 -0.3696  0.4024 -0.3401
  479MOL0     C63115   3.614   7.043   9.882 -0.0199 -0.6418 -0.7342
  479MOL0     C63116   3.499   6.945   9.907  0.1326  0.4703  0.5274
  479MOL0     C63117   3.375   6.967   9.812  0.1187 -0.1911  0.1595
  479MOL0     C63118   3.289   7.060   9.886  0.8069 -0.3297 -0.0453
  479MOL0     C63119   3.158   7.087   9.812  0.0768 -0.2340 -1.1219
  479MOL0     O63120   3.085   6.963   9.801  0.8935  0.5971 -0.0313
  479MOL0     C63121   2.955   6.958   9.779  0.6265 -0.0327  0.0127
  479MOL0     C63122   2.882   7.071   9.757 -0.1237  0.1538 -0.2265
  479MOL0     C63123   2.742   7.063   9.761  0.4265 -0.1203 -0.2916
  479MOL0     C63124   2.677   6.942   9.797  0.1352  1.0049 -0.5244
  479MOL0     C63125   2.527   6.927   9.791 -0.2978 -0.3736 -0.1261
  479MOL0     O63126   2.475   6.805   9.814  0.3945  0.2780 -0.2078
  479MOL0     C63127   2.341   6.797   9.816  0.6959 -0.2803  0.3149
  479MOL0     C63128   2.278   6.788   9.944  0.4793 -0.7308  0.0590
  479MOL0     C63129   2.144   6.762   9.950 -0.1708 -0.3669 -0.2357
  479MOL0     C63130   2.073   6.732   9.835 -0.4032  0.8992  0.2222
  479MOL0     O63131   1.940   6.690   9.828 -0.1086 -0.2630  0.0786
  479MOL0     C63132   1.856   6.724   9.933  0.8612 -0.4454  0.8621
  479MOL0     C63133   1.715   6.764   9.880 -0.6563  0.2702 -0.3914
  479MOL0     C63134   1.626   6.812   9.997  0.4847  0.8983  0.0923
  479MOL0     C63135   1.557   6.707  10.089  0.1318  0.0527  1.2260
  479MOL0     C63136   1.494   6.757  10.215 -0.3674  0.1805  0.7642
  479MOL0     C63137   1.344   6.778  10.199  0.6141  0.0089 -1.0319
  479MOL0     C63138   1.260   6.645  10.226  0.2116  0.0052  0.5276
  479MOL0     C63139   1.106   6.668  10.226 -0.4270 -0.0773 -0.5044
  479MOL0    Cl63140   1.072   6.815  10.322 -0.3362  0.0455  0.1460
  479MOL0     C63141   2.140   6.744   9.715 -0.0328  0.4991 -0.2145
  479MOL0     C63142   2.272   6.769   9.701  0.0209  0.2099 -0.3370
  479MOL0     O63143   2.463   7.024   9.772 -0.4844  0.0732  0.8541
  479MOL0     C63144   2.756   6.823   9.818 -0.3279 -0.2819 -0.2157
  479MOL0     C63145   2.897   6.835   9.812 -0.3017 -0.6251 -0.0470
  479MOL0     N63146   3.729   7.008   9.808 -0.9111 -0.1605  0.3767
  479MOL0     N63147   3.799   7.110   9.783 -0.0616 -0.1204 -0.1125
  479MOL0     C63148   4.598   7.694  10.063  1.4273  0.8438  1.0375
  479MOL0     C63149   4.714   7.760  10.106 -0.4138  0.3161 -0.2336
  479MOL0     C63150   5.075   7.942  10.230 -0.0367  0.0303 -0.0491
  479MOL0     C63151   5.055   7.956  10.367 -0.2963  0.7366  0.5019
  479MOL0     C63152   5.165   7.970  10.451 -0.8699  0.6745  0.3591
  479MOL0     C63153   5.297   7.975  10.402 -0.3642 -0.6599  0.7219
  479MOL0     O63154   5.399   8.004  10.483  0.0226 -0.2539  0.0992
  479MOL0     C63155   5.522   7.937  10.455  0.7604 -0.4049 -0.6621
  479MOL0     C63156   5.588   7.895  10.588 -0.8082 -0.1943 -0.2819
  479MOL0     C63157   5.717   7.801  10.570 -0.0410  0.3901 -0.3753
  479MOL0     C63158   5.679   7.651  10.523 -0.5678  0.3321 -0.1009
  479MOL0     C63159   5.799   7.583  10.476  0.0159  0.0960 -0.4905
  479MOL0     C63160   5.885   7.517  10.418  0.1380 -0.3695  0.1720
  479MOL0     C63161   5.314   7.969  10.268 -0.3421 -0.7586 -1.1086
  479MOL0     C63162   5.210   7.957  10.187 -0.3516 -0.3217  0.1380
  479MOL0     H63163   4.613   8.077  10.114 -0.8343 -0.4020  1.1328
  479MOL0     H63164   4.419   7.971   9.991 -0.1150  2.5962  1.5405
  479MOL0     H63165   4.467   7.583   9.831  1.5065  0.5453 -2.5182
  479MOL0     H63166   4.465   7.748   9.775  1.0464 -0.1817  0.6418
  479MOL0     H63167   4.281   7.655   9.642 -1.4225 -0.8419 -0.5907
  479MOL0     H63168   4.201   7.733   9.776 -0.9264 -2.8644  3.6067
  479MOL0     H63169   4.206   7.508   9.892 -3.3791 -1.1655 -0.8581
  479MOL0     H63170   4.309   7.440   9.766  0.8541  1.1737 -0.8162
  479MOL0     H63171   4.015   7.519   9.739 -0.8426 -0.8347 -0.1632
  479MOL0     H63172   4.126   7.476   9.604  0.1070 -0.0058  0.1141
  479MOL0     H63173   4.168   7.260   9.710 -0.3650  0.2696  0.8499
  479MOL0     H63174   4.007   7.293   9.649  2.9811  1.3227 -2.8043
  479MOL0     H63175   4.117   7.289   9.950 -1.0745  0.2089  1.4775
  479MOL0     H63176   4.028   7.167   9.885 -0.8638  0.1670 -1.2417
  479MOL0     H63177   3.883   7.315  10.028  1.8489 -2.2747 -0.7411
  479MOL0     H63178   3.935   7.468   9.946  0.7981  0.6113 -3.4344
  479MOL0     H63179   3.806   7.378   9.744  1.1302  3.7876  0.6540
  479MOL0     H63180   3.711   7.429   9.875  1.4156  0.1071  1.2530
  479MOL0     H63181   3.556   7.252   9.943 -0.0474 -0.7691  2.2995
  479MOL0     H63182   3.472   6.938  10.012  2.3008 -2.1127  1.0212
  479MOL0     H63183   3.536   6.846   9.877 -2.1949 -0.4270  0.3899
  479MOL0     H63184   3.323   6.874   9.790 -0.4215  0.4478 -1.3376
  479MOL0     H63185   3.400   7.008   9.714 -3.7950 -0.7961 -1.2960
  479MOL0     H63186   3.263   7.030   9.988  3.8481  1.5666  1.4157
  479MOL0     H63187   3.342   7.154   9.904  0.1770  0.0775 -0.2655
  479MOL0     H63188   3.168   7.135   9.715  2.0516 -1.9614 -1.8530
  479MOL0     H63189   3.109   7.162   9.876 -1.3672 -0.0522 -2.3979
  479MOL0     H63190   2.929   7.169   9.756 -0.2462  0.2185 -1.4672
  479MOL0     H63191   2.684   7.154   9.754  1.2104  0.3053 -1.6252
  479MOL0     H63192   2.341   6.812  10.030 -2.1290 -3.9557  3.1786
  479MOL0     H63193   2.102   6.769  10.050 -1.0845  0.3219 -0.6513
  479MOL0     H63194   1.892   6.809   9.991 -0.0559 -0.3080  1.2428
  479MOL0     H63195   1.854   6.641  10.004  1.8643 -0.9191  0.3695
  479MOL0     H63196   1.671   6.672   9.840  1.1782 -1.5463  1.5033
  479MOL0     H63197   1.717   6.843   9.804 -1.5384  0.4360 -0.2558
  479MOL0     H63198   1.537   6.865   9.960 -0.7734 -0.6975  0.7027
  479MOL0     H63199   1.683   6.887  10.052  0.7811  0.3380  0.5591
  479MOL0     H63200   1.490   6.641  10.033 -0.0610 -0.6095  2.2018
  479MOL0     H63201   1.641   6.640  10.111  0.4774 -0.1808 -0.6380
  479MOL0     H63202   1.538   6.854  10.241 -1.1171  0.2462  1.8353
  479MOL0     H63203   1.509   6.694  10.303 -3.4723 -0.8401  0.6756
  479MOL0     H63204   1.315   6.825  10.105 -1.3450  4.6968  1.5278
  479MOL0     H63205   1.317   6.851  10.276  1.8105  0.7431 -1.2848
  479MOL0     H63206   1.289   6.570  10.152 -1.0512 -3.6643  3.4348
  479MOL0     H63207   1.289   6.598  10.320  0.4212 -1.1477 -0.0990
  479MOL0     H63208   1.066   6.582  10.281 -0.7676  1.6490  2.1404
  479MOL0     H63209   1.080   6.670  10.119 -0.9859 -1.6004 -0.4219
  479MOL0     H63210   2.081   6.719   9.628  2.5287 -1.6118 -1.5140
  479MOL0     H63211   2.330   6.761   9.610  2.1356  2.9955  0.6066
  479MOL0     H63212   2.705   6.730   9.839 -0.8471  0.3746  1.5855
  479MOL0     H63213   2.956   6.748   9.837 -0.0363 -0.0705  1.3691
  479MOL0     H63214   4.594   7.585  10.064 -2.1624  0.8006 -1.2756
  479MOL0     H63215   4.801   7.700  10.132 -0.6356  0.0368 -0.1210
  479MOL0     H63216   4.954   7.935  10.399 -0.4951 -1.3131 -1.2087
  479MOL0     H63217   5.154   7.976  10.559 -0.9284 -1.2950  0.4966
  479MOL0     H63218   5.581   8.004  10.393 -0.0756 -0.2660 -1.3274
  479MOL0     H63219   5.494   7.841  10.411 -0.7302  0.2729 -1.2644
  479MOL0     H63220   5.603   7.978  10.657 -4.1302  0.4096 -0.1106
  479MOL0     H63221   5.520   7.825  10.639  0.9214 -1.5432  0.2760
  479MOL0     H63222   5.773   7.794  10.663  3.6835  0.0766 -2.4425
  479MOL0     H63223   5.777   7.837  10.486 -0.2329 -1.4298 -1.3316
  479MOL0     H63224   5.631   7.607  10.610  0.8027 -1.6582 -0.2945
  479MOL0     H63225   5.604   7.648  10.443 -1.3328 -0.6354  0.6222
  479MOL0     H63226   5.948   7.453  10.359 -1.6577 -1.4881 -0.5880
  479MOL0     H63227   5.413   8.003  10.239 -0.4645  2.1814  1.3301
  479MOL0     H63228   5.232   7.933  10.084  2.6184  0.7946  0.4261
  480MOL0     O63229   2.513   3.089   5.242 -0.0996  0.1093  0.1814
  480MOL0     C63230   2.572   3.163   5.163 -0.3114 -0.3902  0.5715
  480MOL0     O63231   2.522   3.251   5.072  0.1261  0.2892 -0.0574
  480MOL0     C63232   2.387   3.287   5.087  0.1125  0.3817 -0.6566
  480MOL0     C63233   2.321   3.299   5.208 -0.2143  0.4690 -0.3490
  480MOL0     C63234   2.183   3.336   5.205 -0.2663 -0.3960 -0.3068
  480MOL0     C63235   2.106   3.336   5.095 -0.4386  0.4089 -0.3837
  480MOL0     O63236   1.976   3.359   5.123  0.6316  0.4824 -0.5383
  480MOL0     C63237   1.886   3.309   5.024 -0.2254 -0.0481 -0.1776
  480MOL0     C63238   1.752   3.309   5.099 -0.0799 -0.8427  0.3588
  480MOL0     C63239   1.658   3.217   5.022 -0.4427 -0.1965  0.3877
  480MOL0     C63240   1.608   3.264   4.886 -0.6862 -0.2714  0.6559
  480MOL0     C63241   1.504   3.167   4.833  0.4006 -0.6481  0.1217
  480MOL0     C63242   1.434   3.234   4.708  0.0686 -0.1661  0.1642
  480MOL0     C63243   1.336   3.346   4.760  0.0835  0.0789  0.4106
  480MOL0     C63244   1.273   3.423   4.640  0.2352  0.4546  0.0094
  480MOL0     N63245   1.190   3.539   4.682  0.5094 -0.7164 -0.8545
  480MOL0     C63246   1.058   3.557   4.667  0.0991  0.4404 -0.1970
  480MOL0     C63247   1.031   3.675   4.720  0.0297 -0.1936  0.3157
  480MOL0     C63248   0.906   3.748   4.709 -0.2792 -0.3662  0.1205
  480MOL0     C63249   0.809   3.714   4.820 -0.2740 -0.8627  0.1262
  480MOL0     C63250   0.666   3.746   4.771 -1.1323  0.0749  0.3106
  480MOL0     C63251   0.555   3.701   4.871  0.4442 -0.2227 -0.4434
  480MOL0     O63252   0.431   3.744   4.808 -0.6558 -0.9304  0.8208
  480MOL0     C63253   0.313   3.727   4.880  0.5223 -0.1828  0.4086
  480MOL0     C63254   0.204   3.788   4.822 -0.1934  0.7230  0.6058
  480MOL0     C63255   0.076   3.768   4.879 -0.3839  0.4010 -0.2337
  480MOL0     C63256   0.055   3.687   4.987 -0.2039  0.1461 -0.0905
  480MOL0     C63257  -0.081   3.660   5.042 -0.3617  0.2132  0.0243
  480MOL0     O63258  -0.192   3.667   4.956  0.2394 -0.0692 -1.0798
  480MOL0     C63259  -0.317   3.661   5.002 -0.5845  0.9375  0.9035
  480MOL0     C63260  -0.369   3.749   5.100  0.0013 -0.9966  0.5002
  480MOL0     C63261  -0.506   3.739   5.138 -0.9967  0.7592 -0.0600
  480MOL0     C63262  -0.581   3.634   5.084 -0.0881 -0.3422  0.0315
  480MOL0     O63263  -0.712   3.605   5.104 -0.3414 -0.0386  0.0115
  480MOL0     C63264  -0.801   3.709   5.093  1.1000 -0.2283  0.0006
  480MOL0     C63265  -0.942   3.654   5.053  0.7149 -0.0189 -0.5404
  480MOL0     C63266  -1.052   3.765   5.064  0.3020  0.6301 -0.0644
  480MOL0     C63267  -1.192   3.699   5.018  0.0093  0.2035  0.6472
  480MOL0     C63268  -1.290   3.812   5.006  0.4594 -0.3794  0.1148
  480MOL0     C63269  -1.431   3.756   4.990 -0.0710 -0.0097 -0.1040
  480MOL0     C63270  -1.534   3.869   4.979 -0.1786  0.1110  0.1091
  480MOL0     C63271  -1.567   3.911   4.833  0.3411  1.3675 -0.3630
  480MOL0    Cl63272  -1.428   3.968   4.732  0.1598 -0.0724 -0.2312
  480MOL0     C63273  -0.527   3.546   4.990  0.7391 -0.6408  0.5285
  480MOL0     C63274  -0.401   3.567   4.940 -0.1213 -0.9543 -0.0664
  480MOL0     O63275  -0.085   3.646   5.169 -0.1687 -0.5620 -0.3305
  480MOL0     C63276   0.168   3.623   5.042 -0.4749 -0.5377 -0.3356
  480MOL0     C63277   0.290   3.641   4.983 -0.6683 -0.5631 -0.0802
  480MOL0     N63278   1.142   3.725   4.776 -1.0442  0.5182 -0.0706
  480MOL0     N63279   1.241   3.643   4.751  0.2635 -0.1935 -0.4561
  480MOL0     C63280   2.168   3.305   4.976  0.5558 -0.2043 -0.1055
  480MOL0     C63281   2.306   3.280   4.971  0.0722 -0.4173 -0.0536
  480MOL0     C63282   2.722   3.152   5.154 -0.4871  0.1748  0.2929
  480MOL0     C63283   2.807   3.251   5.109 -0.9348 -0.0933 -0.1490
  480MOL0     C63284   2.944   3.237   5.096  0.1011  0.5694 -0.0484
  480MOL0     C63285   3.007   3.122   5.141  0.2190 -0.5887  0.3496
  480MOL0     O63286   3.141   3.093   5.128 -0.1319  0.1108  0.1061
  480MOL0     C63287   3.245   3.181   5.069  0.3530 -0.1847  0.4055
  480MOL0     C63288   3.365   3.108   5.024  0.6384  0.1915  0.1483
  480MOL0     C63289   3.493   3.187   5.045  0.3017 -0.4233  0.0401
  480MOL0     C63290   3.611   3.126   4.953  0.2760  0.1072 -0.1266
  480MOL0     C63291   3.739   3.170   4.987  0.0531 -0.5680 -0.0964
  480MOL0     C63292   3.854   3.215   4.989 -0.1985 -0.0624  0.1792
  480MOL0     C63293   2.928   3.015   5.177  0.2068  0.1880 -0.5876
  480MOL0     C63294   2.790   3.033   5.196  0.3208  0.2421  0.3908
  480MOL0     H63295   2.365   3.292   5.307 -0.4440 -2.6900 -0.3806
  480MOL0     H63296   2.145   3.369   5.301 -1.6364  1.0183 -1.2901
  480MOL0     H63297   1.912   3.206   4.997  1.5369 -0.5632  2.9684
  480MOL0     H63298   1.872   3.377   4.940 -1.1417  0.6329  0.5089
  480MOL0     H63299   1.715   3.412   5.098  1.4859 -0.1866 -2.5606
  480MOL0     H63300   1.773   3.271   5.199  0.0767  0.7191  0.9490
  480MOL0     H63301   1.576   3.190   5.090 -0.8064  1.0032  0.4408
  480MOL0     H63302   1.695   3.115   5.007  1.0737  0.5980 -1.5919
  480MOL0     H63303   1.559   3.360   4.902 -1.8066 -0.4969 -1.1672
  480MOL0     H63304   1.692   3.289   4.820 -0.5505  1.2725  1.3715
  480MOL0     H63305   1.426   3.153   4.910  1.1302  1.3537  1.3108
  480MOL0     H63306   1.555   3.072   4.814 -2.6958 -2.0414 -2.1508
  480MOL0     H63307   1.383   3.157   4.650  2.7822 -2.1298  0.1505
  480MOL0     H63308   1.520   3.270   4.649  0.9955 -1.7321  0.5064
  480MOL0     H63309   1.261   3.298   4.824  1.5145  1.2726  3.1916
  480MOL0     H63310   1.387   3.420   4.823  3.6399 -1.6814 -0.1711
  480MOL0     H63311   1.205   3.354   4.589 -3.2318  3.3698  0.2731
  480MOL0     H63312   1.355   3.451   4.574 -1.1962  0.3072 -1.9293
  480MOL0     H63313   0.995   3.485   4.616  1.3226 -0.7141 -0.1308
  480MOL0     H63314   0.864   3.726   4.610  0.3123 -1.4642  0.0936
  480MOL0     H63315   0.932   3.854   4.721 -0.3538  0.0784 -2.9037
  480MOL0     H63316   0.823   3.765   4.915 -1.1424 -2.0946  0.9513
  480MOL0     H63317   0.813   3.606   4.838  3.2656 -0.4534  2.9418
  480MOL0     H63318   0.668   3.855   4.765  1.9852  0.2853  2.7186
  480MOL0     H63319   0.642   3.708   4.671 -0.6748 -0.1670  0.2891
  480MOL0     H63320   0.567   3.744   4.971 -0.9219 -0.8008 -0.0098
  480MOL0     H63321   0.560   3.592   4.875 -1.1453 -0.2739  1.3780
  480MOL0     H63322   0.212   3.849   4.733  4.2078 -1.2899 -0.6287
  480MOL0     H63323  -0.006   3.822   4.832 -0.1734 -0.5984 -1.8235
  480MOL0     H63324  -0.308   3.835   5.125 -0.8334  0.3408 -1.8029
  480MOL0     H63325  -0.546   3.827   5.186 -0.3178  1.1643 -0.2316
  480MOL0     H63326  -0.781   3.777   5.011  0.0420  0.0131 -0.0714
  480MOL0     H63327  -0.819   3.769   5.183  0.4819  0.3564 -0.5097
  480MOL0     H63328  -0.970   3.576   5.124  0.4510 -0.7103 -1.3822
  480MOL0     H63329  -0.947   3.621   4.948 -1.1610  2.5662 -1.3862
  480MOL0     H63330  -1.028   3.856   5.009 -0.9305  0.8804 -0.2066
  480MOL0     H63331  -1.056   3.806   5.166  1.7724  2.0699 -0.5379
  480MOL0     H63332  -1.171   3.650   4.922 -5.7206 -3.4057  0.7723
  480MOL0     H63333  -1.218   3.625   5.094 -0.6826 -0.4891 -0.2302
  480MOL0     H63334  -1.271   3.865   4.912 -0.5221 -1.4221 -0.6944
  480MOL0     H63335  -1.283   3.881   5.092  0.9538  1.7481 -1.5416
  480MOL0     H63336  -1.462   3.698   5.077 -2.3744 -2.6156 -2.4570
  480MOL0     H63337  -1.429   3.691   4.902  3.1095  1.4128 -1.2246
  480MOL0     H63338  -1.622   3.823   5.024  0.1781 -2.4223 -1.5792
  480MOL0     H63339  -1.507   3.954   5.042 -0.7628 -0.6893  1.4902
  480MOL0     H63340  -1.638   3.993   4.837  0.5950  1.6804 -1.9642
  480MOL0     H63341  -1.623   3.829   4.787 -1.8797  1.3324  2.1477
  480MOL0     H63342  -0.595   3.465   4.964  1.2259 -0.9300  0.1305
  480MOL0     H63343  -0.366   3.492   4.870  0.7255 -1.0207  0.4257
  480MOL0     H63344   0.160   3.563   5.133  0.8945 -1.3263 -0.7074
  480MOL0     H63345   0.367   3.581   5.030  0.8502  0.7828 -0.7672
  480MOL0     H63346   2.119   3.298   4.879  1.0470  0.9308 -0.4596
  480MOL0     H63347   2.363   3.248   4.884  1.7170 -0.6603  1.0621
  480MOL0     H63348   2.770   3.350   5.083 -0.3475 -0.1222 -1.1277
  480MOL0     H63349   3.001   3.317   5.050 -2.6598  1.9318 -1.3744
  480MOL0     H63350   3.269   3.254   5.147  2.0269 -1.8825  1.5813
  480MOL0     H63351   3.201   3.234   4.984  1.4671 -0.9651 -0.6918
  480MOL0     H63352   3.371   3.033   5.103 -1.5218 -2.8262 -2.3152
  480MOL0     H63353   3.356   3.065   4.924 -2.1011 -1.0067  0.8209
  480MOL0     H63354   3.529   3.185   5.148  2.2247  0.0947 -0.5750
  480MOL0     H63355   3.472   3.292   5.024  0.0562  0.6547  4.6312
  480MOL0     H63356   3.602   3.017   4.964 -0.2078 -0.1878 -2.7838
  480MOL0     H63357   3.594   3.139   4.846  0.8808  1.9301 -0.0239
  480MOL0     H63358   3.945   3.271   4.988 -1.2195  1.6436 -0.5178
  480MOL0     H63359   2.966   2.919   5.214 -3.3225 -0.6685  1.2191
  480MOL0     H63360   2.732   2.956   5.248  1.5927 -0.5380  0.6926
  481MOL0     O63361   2.382   5.296   6.272  0.3010 -0.8529 -0.2161
  481MOL0     C63362   2.470   5.379   6.283 -0.2721  0.4800  0.0909
  481MOL0     O63363   2.466   5.485   6.364 -0.5219  0.1108 -0.0853
  481MOL0     C63364   2.371   5.495   6.463  0.2077 -0.0984  0.5287
  481MOL0     C63365   2.387   5.407   6.569 -0.1177 -1.0106 -0.8846
  481MOL0     C63366   2.305   5.420   6.682 -0.6927  0.0505 -0.4566
  481MOL0     C63367   2.193   5.502   6.677 -0.1379  0.0843 -0.9620
  481MOL0     O63368   2.102   5.480   6.776 -0.0972 -0.4383 -0.0029
  481MOL0     C63369   1.958   5.512   6.772  0.1259 -0.4989 -0.4501
  481MOL0     C63370   1.876   5.437   6.868  0.4296 -0.0469  0.4829
  481MOL0     C63371   1.735   5.477   6.865  0.4461  0.5315  0.1999
  481MOL0     C63372   1.671   5.408   6.989  0.1029  0.8365  0.3089
  481MOL0     C63373   1.517   5.436   7.000  0.3030 -0.4894 -0.2166
  481MOL0     C63374   1.442   5.382   6.878  0.4148 -0.4361 -0.6513
  481MOL0     C63375   1.292   5.422   6.874  0.4005 -0.1810  0.8597
  481MOL0     C63376   1.214   5.366   6.997 -0.2776 -0.5869  0.3558
  481MOL0     N63377   1.073   5.398   6.986 -0.0402  0.2609  0.5767
  481MOL0     C63378   0.992   5.357   6.886 -0.0568 -0.8059 -0.3672
  481MOL0     C63379   0.869   5.403   6.927  0.0505 -0.1490 -0.1533
  481MOL0     C63380   0.740   5.382   6.857  0.6585 -0.1769 -0.3274
  481MOL0     C63381   0.616   5.423   6.938 -0.1522 -0.0969  0.2827
  481MOL0     C63382   0.556   5.555   6.890  0.0099 -0.1031  0.1126
  481MOL0     C63383   0.417   5.573   6.951  0.6718 -0.1076 -0.1891
  481MOL0     O63384   0.350   5.687   6.890  0.5608  0.6150 -0.7361
  481MOL0     C63385   0.212   5.683   6.879 -0.1770 -0.2307 -0.1374
  481MOL0     C63386   0.160   5.755   6.769  0.5895 -0.2452 -0.3511
  481MOL0     C63387   0.024   5.760   6.751  0.4983  0.7602  0.2400
  481MOL0     C63388  -0.063   5.683   6.840  0.9094 -0.5671 -0.4000
  481MOL0     C63389  -0.212   5.680   6.817  0.7282  1.1092  0.7533
  481MOL0     O63390  -0.288   5.609   6.911 -0.8701  0.4042 -0.9960
  481MOL0     C63391  -0.419   5.575   6.888 -0.7984 -0.7405 -0.4642
  481MOL0     C63392  -0.539   5.636   6.944 -0.4601  0.2599  0.6797
  481MOL0     C63393  -0.669   5.600   6.901  0.6213 -0.3895 -0.2845
  481MOL0     C63394  -0.679   5.489   6.809  0.4878  0.8767 -0.0807
  481MOL0     O63395  -0.810   5.452   6.785 -0.4395  0.5185 -0.3304
  481MOL0     C63396  -0.845   5.409   6.656 -0.6071  0.1202 -0.6201
  481MOL0     C63397  -0.990   5.350   6.670  0.7971 -0.0774 -0.4925
  481MOL0     C63398  -1.050   5.322   6.532 -0.1086 -0.0177  0.1321
  481MOL0     C63399  -1.197   5.260   6.546  0.4626 -0.7821 -0.8208
  481MOL0     C63400  -1.207   5.139   6.634  0.2836  0.1376 -1.2659
  481MOL0     C63401  -1.337   5.055   6.626  0.3355 -0.1650  0.6496
  481MOL0     C63402  -1.358   4.974   6.758  0.3056 -0.0561 -0.4859
  481MOL0     C63403  -1.471   4.868   6.751 -0.9271 -0.1490 -0.9015
  481MOL0    Cl63404  -1.603   4.934   6.665 -0.2206  0.3103  0.1329
  481MOL0     C63405  -0.560   5.427   6.763  0.1726  0.0904 -0.6345
  481MOL0     C63406  -0.436   5.473   6.808  0.6187  0.8320  0.5962
  481MOL0     O63407  -0.254   5.715   6.708  0.4154 -0.0854 -0.0330
  481MOL0     C63408  -0.008   5.614   6.946 -0.3224  0.5219 -0.5621
  481MOL0     C63409   0.134   5.621   6.969 -0.0185  0.2997  0.2709
  481MOL0     N63410   0.879   5.467   7.050  0.5297  0.2065 -0.5453
  481MOL0     N63411   1.005   5.461   7.089 -0.1980 -0.0331 -0.7422
  481MOL0     C63412   2.169   5.587   6.567  0.2702 -1.1278  0.3357
  481MOL0     C63413   2.262   5.579   6.459  0.6415  0.8913 -0.8444
  481MOL0     C63414   2.597   5.348   6.218  0.1144 -0.3811  0.5122
  481MOL0     C63415   2.607   5.245   6.123 -0.1294  0.7608  0.3790
  481MOL0     C63416   2.721   5.247   6.043 -0.4221  0.3573 -0.1034
  481MOL0     C63417   2.827   5.329   6.063 -0.0244 -0.2307  0.7921
  481MOL0     O63418   2.935   5.322   5.979  0.3757 -0.0372 -0.0280
  481MOL0     C63419   3.038   5.432   5.981  0.0955 -0.7258  0.9416
  481MOL0     C63420   3.143   5.389   5.888  0.1144 -0.8214  0.0274
  481MOL0     C63421   3.277   5.448   5.928 -0.1107  0.0595  0.0415
  481MOL0     C63422   3.380   5.449   5.817 -1.0215 -0.0023  0.0486
  481MOL0     C63423   3.493   5.540   5.853 -0.3544  0.4147  0.2890
  481MOL0     C63424   3.589   5.616   5.875  0.6305  0.1260  0.1117
  481MOL0     C63425   2.817   5.419   6.172 -0.0823 -0.0902  0.0183
  481MOL0     C63426   2.704   5.432   6.243 -0.6891 -0.4440  0.6549
  481MOL0     H63427   2.472   5.340   6.579 -0.6369 -1.9301 -2.3605
  481MOL0     H63428   2.329   5.361   6.771 -1.7223 -3.5830 -2.4021
  481MOL0     H63429   1.919   5.501   6.670 -1.3570 -3.2591  0.3292
  481MOL0     H63430   1.949   5.618   6.797  2.2722 -0.2902 -0.3657
  481MOL0     H63431   1.908   5.452   6.972 -1.1666  2.7736  0.6577
  481MOL0     H63432   1.888   5.334   6.833  1.8234  0.3278 -0.2231
  481MOL0     H63433   1.694   5.447   6.768  3.7644 -1.1735 -0.8537
  481MOL0     H63434   1.719   5.584   6.881 -1.8067 -0.1397  3.4804
  481MOL0     H63435   1.684   5.300   6.981  1.3630  0.8826  1.4191
  481MOL0     H63436   1.719   5.440   7.082 -2.8009 -1.1155  2.6830
  481MOL0     H63437   1.504   5.542   7.023  3.1096 -0.5447  2.3607
  481MOL0     H63438   1.491   5.375   7.087  2.5811  0.8442  1.5163
  481MOL0     H63439   1.447   5.274   6.887  1.4826 -0.2255  3.8605
  481MOL0     H63440   1.476   5.425   6.784  0.3887  1.1494  0.0291
  481MOL0     H63441   1.286   5.526   6.842  2.0391 -0.6605 -1.1680
  481MOL0     H63442   1.263   5.372   6.782  0.0234 -0.6634  1.2325
  481MOL0     H63443   1.262   5.401   7.089 -0.6497  1.3777 -0.1463
  481MOL0     H63444   1.233   5.259   6.999 -0.0571 -0.5767 -0.6874
  481MOL0     H63445   1.026   5.294   6.804  0.6739 -0.0466 -0.6656
  481MOL0     H63446   0.737   5.276   6.830  0.6832 -1.1790  3.0398
  481MOL0     H63447   0.739   5.442   6.766 -1.0557 -0.7322 -0.7058
  481MOL0     H63448   0.635   5.424   7.045 -1.5610 -0.9999  0.5755
  481MOL0     H63449   0.548   5.338   6.924  1.9364 -1.7997 -0.0848
  481MOL0     H63450   0.623   5.639   6.912  0.7087 -1.0433  1.7970
  481MOL0     H63451   0.552   5.554   6.780 -3.2033  0.0142  0.1502
  481MOL0     H63452   0.429   5.597   7.057 -0.5230 -3.2487  0.8035
  481MOL0     H63453   0.361   5.479   6.940  1.1658 -0.4575  0.2292
  481MOL0     H63454   0.234   5.806   6.709  0.0793 -0.2258 -0.9679
  481MOL0     H63455  -0.016   5.801   6.658  0.5092 -0.1706 -0.1908
  481MOL0     H63456  -0.529   5.725   7.005  1.2491 -1.5191  3.2109
  481MOL0     H63457  -0.745   5.663   6.947  0.0391 -0.1405 -1.5588
  481MOL0     H63458  -0.769   5.340   6.618 -1.1089 -1.3502  0.9041
  481MOL0     H63459  -0.858   5.493   6.587 -2.0943  0.0191 -0.5045
  481MOL0     H63460  -1.050   5.421   6.728 -0.2919 -2.8061  1.9579
  481MOL0     H63461  -0.987   5.249   6.711  1.4173  0.7941  1.7839
  481MOL0     H63462  -0.997   5.247   6.474 -0.6433 -0.4356  0.1775
  481MOL0     H63463  -1.052   5.408   6.464 -2.5177 -0.6151 -0.6570
  481MOL0     H63464  -1.259   5.341   6.586  2.0492  0.3506 -0.5450
  481MOL0     H63465  -1.234   5.232   6.448 -0.3656 -1.8895 -0.2076
  481MOL0     H63466  -1.226   5.176   6.736 -3.6468 -0.6788 -1.5303
  481MOL0     H63467  -1.122   5.072   6.622  1.6979  1.9826 -1.9839
  481MOL0     H63468  -1.331   4.996   6.535 -0.2532  1.4574 -0.4786
  481MOL0     H63469  -1.423   5.122   6.615 -0.9697 -1.9943 -0.7723
  481MOL0     H63470  -1.269   4.914   6.778 -0.7747 -2.4764 -2.3782
  481MOL0     H63471  -1.381   5.041   6.841  2.2930  0.7584 -0.5537
  481MOL0     H63472  -1.501   4.838   6.852  0.4317 -1.1139 -0.7737
  481MOL0     H63473  -1.429   4.782   6.698  0.9555  0.0721  0.1478
  481MOL0     H63474  -0.562   5.358   6.680  0.5168 -2.7469  1.5786
  481MOL0     H63475  -0.346   5.443   6.755  0.5347 -0.0140  0.9205
  481MOL0     H63476  -0.068   5.557   7.015  0.0199  0.5391 -0.2445
  481MOL0     H63477   0.180   5.569   7.052 -0.2212  1.7569  1.3343
  481MOL0     H63478   2.096   5.667   6.580  3.1412  1.4724  2.0848
  481MOL0     H63479   2.236   5.637   6.371 -2.1827 -0.7854 -1.2512
  481MOL0     H63480   2.534   5.165   6.111  1.7781 -0.8833 -0.8967
  481MOL0     H63481   2.744   5.178   5.962 -0.0587 -1.1681  1.2450
  481MOL0     H63482   3.075   5.430   6.083 -2.6785 -4.1169  2.1189
  481MOL0     H63483   2.993   5.526   5.949  1.9487 -1.0774 -3.3763
  481MOL0     H63484   3.149   5.281   5.904 -2.5954 -0.7181  3.0436
  481MOL0     H63485   3.119   5.418   5.786  0.3320 -2.6887 -0.5905
  481MOL0     H63486   3.325   5.396   6.012  1.4342  1.0314 -0.2077
  481MOL0     H63487   3.254   5.550   5.961 -3.6312 -0.6302  0.0856
  481MOL0     H63488   3.427   5.353   5.792 -1.5985 -0.8127  1.8874
  481MOL0     H63489   3.327   5.479   5.727  1.0263  0.3906 -1.0787
  481MOL0     H63490   3.671   5.685   5.882  0.0347  0.7250  1.6724
  481MOL0     H63491   2.891   5.489   6.208 -1.5881  1.2024  0.7269
  481MOL0     H63492   2.699   5.503   6.325 -2.0046  1.8638 -1.2973
  482MOL0     O63493   1.305   7.862   8.989 -0.7689 -0.1547 -0.3138
  482MOL0     C63494   1.292   7.954   8.910 -0.0722  0.5538 -0.4319
  482MOL0     O63495   1.176   8.006   8.886 -0.0511 -0.0198  0.2222
  482MOL0     C63496   1.062   7.977   8.957  1.0389 -0.4272 -0.2457
  482MOL0     C63497   0.959   8.074   8.942  0.1399 -0.2625 -0.5233
  482MOL0     C63498   0.829   8.070   8.990 -0.1142  0.0664 -0.5222
  482MOL0     C63499   0.793   7.954   9.069 -0.3296  0.2741  0.0903
  482MOL0     O63500   0.670   7.949   9.144  0.0817  1.0256  0.4018
  482MOL0     C63501   0.559   7.979   9.061 -0.7607 -0.0535  0.7069
  482MOL0     C63502   0.426   7.945   9.133  0.0383 -0.5399  0.8281
  482MOL0     C63503   0.308   7.993   9.046  1.0945  0.0446 -0.0801
  482MOL0     C63504   0.288   8.142   9.039  0.1685  0.1984 -0.8039
  482MOL0     C63505   0.166   8.187   8.944 -0.7812  0.1455 -0.1307
  482MOL0     C63506   0.100   8.321   8.974 -1.1319  0.2047 -0.2888
  482MOL0     C63507   0.053   8.347   9.116 -0.2587 -0.5520 -0.0369
  482MOL0     C63508  -0.063   8.257   9.156  0.3152  0.7401 -0.0788
  482MOL0     N63509  -0.200   8.282   9.099  0.1746  0.5277  0.0898
  482MOL0     C63510  -0.258   8.404   9.092 -0.3952  0.5253 -0.3983
  482MOL0     C63511  -0.377   8.388   9.028  0.7136 -0.2116  0.2533
  482MOL0     C63512  -0.476   8.513   9.010 -0.1620  0.4115 -0.2320
  482MOL0     C63513  -0.619   8.461   9.002 -0.2363  0.4467 -0.1022
  482MOL0     C63514  -0.722   8.571   8.984  0.1733  0.3046  0.1207
  482MOL0     C63515  -0.869   8.515   8.963  0.3827  0.0508  0.1194
  482MOL0     O63516  -0.939   8.633   8.938  0.0654 -0.2176 -0.1059
  482MOL0     C63517  -1.061   8.626   8.881  0.0716 -0.5379  0.1116
  482MOL0     C63518  -1.130   8.744   8.886  0.0388  0.6815 -0.2522
  482MOL0     C63519  -1.268   8.753   8.830 -0.3143 -0.7697 -0.4055
  482MOL0     C63520  -1.327   8.638   8.770  0.3178  0.6315 -0.6395
  482MOL0     C63521  -1.464   8.646   8.733 -0.1033 -0.0051  0.3069
  482MOL0     O63522  -1.537   8.745   8.788  0.1939  0.2467  0.2171
  482MOL0     C63523  -1.669   8.761   8.755  0.5160  0.5005 -0.1989
  482MOL0     C63524  -1.765   8.769   8.857 -0.9313  0.8475  0.0292
  482MOL0     C63525  -1.899   8.787   8.832  0.2660 -0.6375  1.0401
  482MOL0     C63526  -1.951   8.796   8.698 -0.7401 -0.2236 -0.6307
  482MOL0     O63527  -2.071   8.828   8.647  1.2300 -0.4803  0.0350
  482MOL0     C63528  -2.159   8.909   8.726  0.0925 -0.1872  0.2217
  482MOL0     C63529  -2.279   8.922   8.634 -0.5088 -0.1916  0.4016
  482MOL0     C63530  -2.326   8.791   8.575  1.0454  0.6550  1.5634
  482MOL0     C63531  -2.373   8.691   8.686 -0.2590  0.3447 -0.6954
  482MOL0     C63532  -2.503   8.616   8.648  0.7754 -0.1566 -0.2374
  482MOL0     C63533  -2.540   8.518   8.761  0.1073 -0.6023  0.4470
  482MOL0     C63534  -2.635   8.406   8.709  0.4262  0.5477 -0.4485
  482MOL0     C63535  -2.779   8.464   8.685  0.3338 -0.0827  0.7841
  482MOL0    Cl63536  -2.856   8.546   8.808  0.2392  0.3772 -0.6307
  482MOL0     C63537  -1.860   8.774   8.595 -0.4714 -0.0295  0.1100
  482MOL0     C63538  -1.722   8.755   8.615 -0.5188 -0.7635 -0.6040
  482MOL0     O63539  -1.511   8.560   8.661 -0.8546 -0.2025  0.3346
  482MOL0     C63540  -1.246   8.526   8.747 -0.8924  0.1063  1.0539
  482MOL0     C63541  -1.118   8.521   8.807  0.2849  0.0254 -0.1660
  482MOL0     N63542  -0.386   8.253   8.991  0.3882 -0.4915  0.4504
  482MOL0     N63543  -0.281   8.189   9.030 -0.4410 -0.7125 -0.0498
  482MOL0     C63544   0.889   7.850   9.082  0.3820 -0.4869 -0.4610
  482MOL0     C63545   1.014   7.863   9.029  0.3521 -0.0266 -0.5931
  482MOL0     C63546   1.411   7.999   8.832 -0.1836  0.5396 -0.4108
  482MOL0     C63547   1.538   7.943   8.862  0.5468 -0.3011  0.5942
  482MOL0     C63548   1.647   7.987   8.791  0.6526  0.9173  0.1288
  482MOL0     C63549   1.635   8.089   8.691  0.1384 -0.0834 -0.5645
  482MOL0     O63550   1.732   8.158   8.633 -0.4061  0.2299  0.2495
  482MOL0     C63551   1.862   8.164   8.685  0.3769 -0.1130  0.0445
  482MOL0     C63552   1.959   8.046   8.653 -0.0038 -0.4496  0.0824
  482MOL0     C63553   1.957   7.997   8.504  0.1741 -0.4217  0.1181
  482MOL0     C63554   1.964   8.120   8.408 -0.4856 -0.1006 -0.6527
  482MOL0     C63555   1.964   8.079   8.264  0.0604  0.2112  0.3006
  482MOL0     C63556   1.965   8.036   8.153  0.1351 -0.2791  0.0586
  482MOL0     C63557   1.508   8.133   8.658  0.8831  1.1724  0.0538
  482MOL0     C63558   1.397   8.089   8.730 -0.1576  0.2416 -0.0846
  482MOL0     H63559   0.998   8.153   8.878 -1.4791 -0.7358 -2.1958
  482MOL0     H63560   0.766   8.156   8.967  2.1428  1.8630 -0.3604
  482MOL0     H63561   0.558   7.947   8.956  0.1129  1.7245  0.1159
  482MOL0     H63562   0.566   8.088   9.056 -0.4728 -0.1368 -1.5388
  482MOL0     H63563   0.418   7.985   9.234  0.3765  0.4666  0.4743
  482MOL0     H63564   0.418   7.836   9.138 -1.0641 -0.7077 -2.3382
  482MOL0     H63565   0.219   7.952   9.095  1.0905 -0.4589 -0.5024
  482MOL0     H63566   0.318   7.947   8.947  2.7331  0.8539 -0.3257
  482MOL0     H63567   0.271   8.175   9.142 -1.0530 -1.9171 -0.2682
  482MOL0     H63568   0.384   8.182   9.003  0.5603  0.0361  0.0382
  482MOL0     H63569   0.092   8.106   8.942 -0.9554  0.2882  0.4573
  482MOL0     H63570   0.217   8.175   8.848 -1.9529 -0.0974 -0.7410
  482MOL0     H63571   0.012   8.327   8.909 -0.7866 -0.9302 -0.8881
  482MOL0     H63572   0.166   8.407   8.959 -0.4004 -0.0380  1.3943
  482MOL0     H63573   0.138   8.340   9.185 -0.8004 -0.7861  0.6068
  482MOL0     H63574   0.018   8.450   9.123 -2.7866 -1.1742 -1.9590
  482MOL0     H63575  -0.076   8.253   9.265 -1.1939 -0.7938 -0.2731
  482MOL0     H63576  -0.043   8.151   9.137 -0.7853 -0.1430  3.0257
  482MOL0     H63577  -0.215   8.497   9.129  1.6976 -0.1509 -1.0110
  482MOL0     H63578  -0.452   8.589   8.935  1.9991  0.9895  0.9570
  482MOL0     H63579  -0.471   8.570   9.103 -1.0530  1.2490 -0.6761
  482MOL0     H63580  -0.650   8.405   9.091 -0.2530  0.7884  0.1097
  482MOL0     H63581  -0.624   8.377   8.933 -0.7292 -0.8187  1.4081
  482MOL0     H63582  -0.736   8.631   9.075 -2.3297  0.3562 -0.2351
  482MOL0     H63583  -0.705   8.642   8.903  0.0379 -1.0800 -1.1581
  482MOL0     H63584  -0.907   8.464   9.052 -0.0767  0.5505  0.2167
  482MOL0     H63585  -0.879   8.450   8.876 -0.7589 -0.4275  0.5857
  482MOL0     H63586  -1.084   8.834   8.928 -0.3064  0.3547  0.8574
  482MOL0     H63587  -1.310   8.852   8.823  0.8372 -0.4065 -3.7285
  482MOL0     H63588  -1.728   8.763   8.959  2.0611  1.3316 -0.9328
  482MOL0     H63589  -1.972   8.795   8.912 -1.9541  2.7632 -1.0371
  482MOL0     H63590  -2.122   9.010   8.747 -3.3636  0.7008  2.9974
  482MOL0     H63591  -2.181   8.867   8.825  1.0686  1.0871  1.0183
  482MOL0     H63592  -2.245   8.987   8.553 -0.0425  0.2361  0.9291
  482MOL0     H63593  -2.361   8.966   8.690 -0.7293 -1.4650  1.1042
  482MOL0     H63594  -2.252   8.749   8.506  2.1034  3.5218  0.8140
  482MOL0     H63595  -2.408   8.832   8.516  1.7588 -0.1406 -0.0472
  482MOL0     H63596  -2.286   8.627   8.705 -2.2789 -1.9207  1.6134
  482MOL0     H63597  -2.393   8.748   8.777 -1.0544  3.1005 -2.4830
  482MOL0     H63598  -2.481   8.565   8.553 -1.4371 -0.5096 -0.6203
  482MOL0     H63599  -2.589   8.680   8.628 -1.0921 -1.7658  2.0728
  482MOL0     H63600  -2.591   8.576   8.840 -1.4961 -1.1412 -0.1564
  482MOL0     H63601  -2.443   8.481   8.795  1.3056  3.0137  1.4878
  482MOL0     H63602  -2.595   8.355   8.620 -1.6239 -0.9951 -0.5811
  482MOL0     H63603  -2.636   8.324   8.781  3.7343  0.6421 -0.1456
  482MOL0     H63604  -2.841   8.377   8.660 -1.8055  0.3065  4.1730
  482MOL0     H63605  -2.772   8.520   8.591  1.2767  0.3858  1.1173
  482MOL0     H63606  -1.907   8.768   8.497  1.4445  3.4528 -1.2124
  482MOL0     H63607  -1.653   8.749   8.531 -2.0287  0.9914 -2.0218
  482MOL0     H63608  -1.279   8.448   8.679  0.1446 -0.2605  0.9628
  482MOL0     H63609  -1.060   8.433   8.781 -2.2587 -1.5009 -1.1345
  482MOL0     H63610   0.865   7.764   9.144  0.1071  1.8553  2.9878
  482MOL0     H63611   1.084   7.787   9.062 -0.5617 -0.2497  0.9560
  482MOL0     H63612   1.565   7.885   8.950 -0.5935 -1.5703  0.1492
  482MOL0     H63613   1.747   7.950   8.812  1.0367  0.7004 -1.8373
  482MOL0     H63614   1.854   8.160   8.794 -0.5187 -1.9306 -0.0518
  482MOL0     H63615   1.902   8.261   8.655 -2.9593  1.1997 -0.6156
  482MOL0     H63616   2.058   8.087   8.674  0.0187  0.1017 -1.0461
  482MOL0     H63617   1.947   7.964   8.725 -2.1664  3.0066  4.1105
  482MOL0     H63618   1.867   7.938   8.483  2.3886 -4.4460  0.8399
  482MOL0     H63619   2.038   7.925   8.489 -0.7841 -1.1227 -1.9665
  482MOL0     H63620   1.870   8.175   8.418 -1.2935 -0.9616 -2.8568
  482MOL0     H63621   2.055   8.178   8.426  0.6314 -1.4842 -1.5853
  482MOL0     H63622   1.955   8.000   8.053  0.1135 -1.5950  0.5122
  482MOL0     H63623   1.502   8.209   8.581  0.2416  0.0553 -1.0337
  482MOL0     H63624   1.303   8.144   8.723 -1.4834 -1.8768  0.0683
  483MOL0     O63625   6.312   7.044   6.053 -0.3288 -0.3287 -0.6944
  483MOL0     C63626   6.376   6.946   6.013 -1.2243  0.0529 -0.0658
  483MOL0     O63627   6.327   6.838   5.951  0.3531 -0.2440  0.3995
  483MOL0     C63628   6.185   6.816   5.941  0.0426  0.2475 -0.0305
  483MOL0     C63629   6.100   6.825   6.050 -0.6423  0.1249 -0.0584
  483MOL0     C63630   5.962   6.799   6.036  0.2171  0.5758 -0.0310
  483MOL0     C63631   5.903   6.767   5.915  0.5979  0.5018  0.2528
  483MOL0     O63632   5.765   6.744   5.899 -0.0391 -0.1204  0.5724
  483MOL0     C63633   5.692   6.721   6.017  0.5529  0.0635 -0.6611
  483MOL0     C63634   5.548   6.667   5.982 -1.0578  0.3939  0.2564
  483MOL0     C63635   5.463   6.656   6.109  0.8909 -0.3339  0.5510
  483MOL0     C63636   5.315   6.618   6.100 -0.3291 -0.2349 -0.5746
  483MOL0     C63637   5.252   6.579   6.236 -1.4611 -0.2431 -0.3632
  483MOL0     C63638   5.276   6.430   6.265 -0.1960 -0.0819  0.1220
  483MOL0     C63639   5.244   6.407   6.408  0.1325 -0.1682  0.1320
  483MOL0     C63640   5.274   6.269   6.458  0.1624 -0.9020 -0.3354
  483MOL0     N63641   5.188   6.166   6.399  0.4286  0.1913  0.5684
  483MOL0     C63642   5.059   6.148   6.404  0.3894 -0.3747 -0.4708
  483MOL0     C63643   5.034   6.035   6.335  0.0619  0.5475  0.4144
  483MOL0     C63644   4.901   5.965   6.311 -0.3882 -0.8685  1.2661
  483MOL0     C63645   4.830   5.989   6.174  0.1812 -0.1325  0.4800
  483MOL0     C63646   4.687   5.928   6.177  0.1056 -0.1867 -0.2836
  483MOL0     C63647   4.647   5.886   6.038 -0.8149  0.2260 -0.2533
  483MOL0     O63648   4.521   5.819   6.044 -0.0743 -0.2852  0.2737
  483MOL0     C63649   4.453   5.798   5.931  0.1958 -0.7040  0.4666
  483MOL0     C63650   4.499   5.821   5.799  0.4037  0.2048  0.2893
  483MOL0     C63651   4.417   5.794   5.689  0.6307  0.0798  0.3296
  483MOL0     C63652   4.291   5.741   5.702  0.6334  0.4605 -0.2998
  483MOL0     C63653   4.213   5.708   5.583 -0.5632  0.1238  0.4412
  483MOL0     O63654   4.113   5.609   5.601  0.2017  0.4424 -0.3225
  483MOL0     C63655   4.029   5.589   5.491  0.1066  1.3429 -0.2127
  483MOL0     C63656   4.075   5.543   5.367  0.6868  0.0300  0.0353
  483MOL0     C63657   3.976   5.502   5.273  0.0908 -0.7314 -0.0870
  483MOL0     C63658   3.840   5.528   5.293  0.3708  0.6587  0.6921
  483MOL0     O63659   3.761   5.504   5.186  0.0441  0.0587 -0.2905
  483MOL0     C63660   3.622   5.532   5.191 -0.3229  0.4515 -0.3033
  483MOL0     C63661   3.560   5.434   5.294  0.1952 -1.0556  0.0562
  483MOL0     C63662   3.425   5.492   5.360  0.9573 -0.1300  0.2679
  483MOL0     C63663   3.353   5.377   5.437  0.3186 -0.4968  0.4063
  483MOL0     C63664   3.201   5.416   5.475 -0.2600 -0.2457 -0.2706
  483MOL0     C63665   3.132   5.294   5.530 -0.4576 -0.0992  0.2146
  483MOL0     C63666   2.984   5.291   5.543  0.0690 -0.6409 -0.1810
  483MOL0     C63667   2.946   5.165   5.609 -0.0145  0.0260  0.0264
  483MOL0    Cl63668   3.011   5.018   5.534  0.3366 -0.0619 -0.2148
  483MOL0     C63669   3.801   5.579   5.416  0.6008  0.0353  0.3756
  483MOL0     C63670   3.894   5.609   5.512  0.9367 -1.3043  0.2121
  483MOL0     O63671   4.245   5.757   5.476  0.0173 -0.3505  0.7305
  483MOL0     C63672   4.250   5.710   5.834  0.3088 -0.0191  0.4041
  483MOL0     C63673   4.322   5.751   5.945 -0.5874  0.6239  0.1138
  483MOL0     N63674   5.150   5.977   6.277 -0.0187 -0.0070 -0.4233
  483MOL0     N63675   5.239   6.061   6.324 -0.0195 -0.1694 -0.7733
  483MOL0     C63676   5.990   6.756   5.812  0.4161  0.5512 -0.5698
  483MOL0     C63677   6.126   6.778   5.819  0.2385  0.3987 -0.2322
  483MOL0     C63678   6.523   6.953   6.040  0.2043  0.2319 -0.8052
  483MOL0     C63679   6.583   7.083   6.065 -0.2657  0.5931  0.1341
  483MOL0     C63680   6.721   7.091   6.078  0.3881  0.4451  0.3166
  483MOL0     C63681   6.800   6.978   6.083 -0.3460 -0.2256  0.1490
  483MOL0     O63682   6.934   6.966   6.115  0.4876  0.6738 -0.5196
  483MOL0     C63683   7.014   7.075   6.154 -0.7327 -0.7053 -0.1293
  483MOL0     C63684   7.148   7.032   6.201 -0.2794  0.6950 -0.9597
  483MOL0     C63685   7.236   6.965   6.087  1.4074 -0.3677  0.1865
  483MOL0     C63686   7.365   6.917   6.158  0.4026  0.2573  0.4144
  483MOL0     C63687   7.476   7.010   6.123  0.5411  0.0215 -0.8224
  483MOL0     C63688   7.558   7.097   6.095  0.2066 -0.1031  0.2493
  483MOL0     C63689   6.747   6.853   6.070  0.3897 -0.2613  0.3814
  483MOL0     C63690   6.604   6.840   6.041  0.8308  0.4850 -0.0695
  483MOL0     H63691   6.143   6.847   6.147  0.8397  1.0905 -0.8927
  483MOL0     H63692   5.908   6.794   6.130 -0.4057 -0.7521 -0.4416
  483MOL0     H63693   5.678   6.815   6.072  3.7010  1.1757 -1.5054
  483MOL0     H63694   5.748   6.646   6.074 -0.4070 -1.6805 -1.9169
  483MOL0     H63695   5.570   6.567   5.943 -0.7037  0.5222  0.1311
  483MOL0     H63696   5.500   6.726   5.904  0.2554  0.4223 -0.5523
  483MOL0     H63697   5.464   6.750   6.165  0.1964  1.1772 -1.7885
  483MOL0     H63698   5.511   6.574   6.164  2.5987  1.0039  1.1560
  483MOL0     H63699   5.257   6.705   6.069 -0.7925  0.2874  1.6132
  483MOL0     H63700   5.303   6.543   6.020  0.5640  0.9440 -1.8699
  483MOL0     H63701   5.144   6.592   6.229 -1.7880 -2.4228 -0.1141
  483MOL0     H63702   5.287   6.649   6.312 -1.1665  1.0382 -1.6242
  483MOL0     H63703   5.379   6.399   6.246 -0.3850  0.3298 -1.7367
  483MOL0     H63704   5.206   6.373   6.204  1.3092 -1.7683 -0.1059
  483MOL0     H63705   5.302   6.474   6.473 -1.1031  1.3490 -0.2718
  483MOL0     H63706   5.139   6.423   6.433  0.2408 -0.3249  0.7082
  483MOL0     H63707   5.257   6.256   6.565  0.4243 -1.1865 -0.3295
  483MOL0     H63708   5.379   6.249   6.437  0.3804 -0.0373 -0.1283
  483MOL0     H63709   4.990   6.205   6.465 -0.5218 -1.7412 -0.1825
  483MOL0     H63710   4.831   6.002   6.387 -0.0491  2.7578  0.0034
  483MOL0     H63711   4.916   5.857   6.318  2.7463 -0.4924  1.3472
  483MOL0     H63712   4.897   5.947   6.098  0.3125  0.1127  0.4576
  483MOL0     H63713   4.828   6.096   6.153  1.6132 -0.0004  0.8854
  483MOL0     H63714   4.689   5.839   6.240 -2.2248  0.7724  1.2929
  483MOL0     H63715   4.607   5.988   6.223 -0.0312  0.6491 -1.5544
  483MOL0     H63716   4.731   5.829   5.996 -1.2892  0.1621 -1.1184
  483MOL0     H63717   4.646   5.977   5.978  0.3979  2.0341  2.3009
  483MOL0     H63718   4.599   5.860   5.785  1.2913 -1.7310  0.9380
  483MOL0     H63719   4.450   5.809   5.587 -1.2702  0.0483 -0.3221
  483MOL0     H63720   4.179   5.529   5.339  0.9579  1.9540 -0.0841
  483MOL0     H63721   4.007   5.440   5.189  0.6896 -4.9585  2.9464
  483MOL0     H63722   3.596   5.537   5.085 -0.2461 -1.7259 -0.4666
  483MOL0     H63723   3.602   5.631   5.233  0.4184  1.1669 -1.6042
  483MOL0     H63724   3.633   5.400   5.367 -2.0982 -0.9085  2.5689
  483MOL0     H63725   3.534   5.347   5.232 -1.4393  0.5422 -1.6629
  483MOL0     H63726   3.358   5.531   5.283  2.2671 -0.5679 -1.1518
  483MOL0     H63727   3.458   5.569   5.431  0.2060 -1.1359  1.7649
  483MOL0     H63728   3.347   5.296   5.365 -0.0444 -0.0218 -0.1059
  483MOL0     H63729   3.400   5.340   5.529 -0.7131 -3.9976 -0.3441
  483MOL0     H63730   3.160   5.446   5.378 -1.0084 -0.4137 -0.0159
  483MOL0     H63731   3.190   5.504   5.540  0.2929 -0.8827  0.7033
  483MOL0     H63732   3.180   5.280   5.627 -0.4168  3.0987  0.7800
  483MOL0     H63733   3.162   5.206   5.472 -1.0478 -1.5192  2.0019
  483MOL0     H63734   2.945   5.379   5.595  0.6875  1.1557 -2.5538
  483MOL0     H63735   2.940   5.289   5.443 -2.1192 -2.0853  0.7393
  483MOL0     H63736   2.837   5.161   5.613 -0.0960  1.9555  0.6908
  483MOL0     H63737   2.986   5.178   5.711  2.9129 -0.0574 -1.0248
  483MOL0     H63738   3.698   5.611   5.424  0.1443 -0.8615 -1.3783
  483MOL0     H63739   3.856   5.640   5.608  1.1015 -3.5353  1.0653
  483MOL0     H63740   4.154   5.662   5.853  0.2697 -0.1471 -0.1030
  483MOL0     H63741   4.296   5.744   6.050 -1.3479  1.1451 -0.0314
  483MOL0     H63742   5.953   6.722   5.715  1.8507 -1.2810 -0.5338
  483MOL0     H63743   6.191   6.782   5.733 -0.5233  1.4612 -0.7834
  483MOL0     H63744   6.533   7.177   6.086 -0.7499  0.9790 -2.4163
  483MOL0     H63745   6.765   7.188   6.098  1.7966 -0.5119  2.2146
  483MOL0     H63746   6.959   7.133   6.229 -0.5333 -0.8805  0.1602
  483MOL0     H63747   7.040   7.139   6.070 -0.6288  0.7758  0.9948
  483MOL0     H63748   7.214   7.103   6.252  1.1179 -1.6867  0.7970
  483MOL0     H63749   7.141   6.957   6.281 -2.5667  3.9309  2.2270
  483MOL0     H63750   7.260   7.033   6.005  2.4474 -1.0379 -0.0875
  483MOL0     H63751   7.183   6.879   6.045  0.6393 -0.0170  0.4186
  483MOL0     H63752   7.349   6.891   6.263  0.9544 -0.5037  0.3156
  483MOL0     H63753   7.399   6.825   6.110 -1.9327 -0.7503  0.5657
  483MOL0     H63754   7.615   7.186   6.078 -1.2680  0.9780  0.7924
  483MOL0     H63755   6.802   6.760   6.078  2.6327  1.0441  0.8137
  483MOL0     H63756   6.570   6.738   6.028  3.2856 -0.9355  3.0802
  484MOL0     O63757   9.129   6.980   2.237 -0.0290 -0.3664  0.0246
  484MOL0     C63758   9.035   6.925   2.293 -0.2928  0.1489 -0.1925
  484MOL0     O63759   8.973   6.812   2.248 -0.4377 -0.0344  0.5777
  484MOL0     C63760   9.028   6.748   2.144  0.3636 -1.0035  1.5696
  484MOL0     C63761   8.991   6.774   2.011 -0.2334  0.1016 -0.3237
  484MOL0     C63762   9.054   6.698   1.918  0.1742  0.3645  1.4101
  484MOL0     C63763   9.144   6.601   1.934 -0.3211 -0.4837 -0.1120
  484MOL0     O63764   9.202   6.533   1.831 -1.4341 -0.4147 -0.5287
  484MOL0     C63765   9.139   6.515   1.705  0.6375  0.2633  0.1572
  484MOL0     C63766   9.168   6.602   1.587 -0.3953 -0.1902 -0.0515
  484MOL0     C63767   9.064   6.591   1.484 -0.1163 -0.5522 -0.1630
  484MOL0     C63768   9.057   6.455   1.408  0.9337  0.7464 -0.9070
  484MOL0     C63769   8.977   6.471   1.277  0.3070  0.6645 -0.6215
  484MOL0     C63770   8.837   6.524   1.288 -0.4189 -0.4721 -1.6004
  484MOL0     C63771   8.756   6.434   1.381 -0.9535 -0.2853  0.0648
  484MOL0     C63772   8.625   6.498   1.411 -0.3190  0.2672 -0.6340
  484MOL0     N63773   8.556   6.449   1.533  0.0263 -0.5170 -0.5036
  484MOL0     C63774   8.444   6.375   1.543  0.3315  1.2905 -0.5756
  484MOL0     C63775   8.424   6.358   1.676 -0.1235  0.5180  0.0504
  484MOL0     C63776   8.332   6.272   1.749  0.3817 -0.0159 -0.7343
  484MOL0     C63777   8.195   6.269   1.697 -0.0137 -0.0620  0.3179
  484MOL0     C63778   8.117   6.174   1.785 -0.1942 -0.2345 -0.5227
  484MOL0     C63779   7.981   6.163   1.723  0.5864 -0.1795 -0.0105
  484MOL0     O63780   7.888   6.086   1.808 -0.1255  0.2438 -0.1793
  484MOL0     C63781   7.753   6.071   1.777 -1.1890  0.3818  0.8386
  484MOL0     C63782   7.688   6.162   1.701  0.2335 -0.2366 -0.4511
  484MOL0     C63783   7.548   6.149   1.678 -0.7749  0.7363 -0.6257
  484MOL0     C63784   7.476   6.050   1.748  0.1960  0.1314 -0.3909
  484MOL0     C63785   7.335   6.010   1.714  0.3762  0.1751 -0.1103
  484MOL0     O63786   7.273   6.075   1.607 -0.1876  0.2966  0.3214
  484MOL0     C63787   7.138   6.058   1.578  0.5795  0.2676 -0.4037
  484MOL0     C63788   7.043   6.079   1.675  0.3332  0.7120 -0.2968
  484MOL0     C63789   6.903   6.059   1.658  0.4879  0.2749  0.3279
  484MOL0     C63790   6.865   5.998   1.536  0.2707  0.4214  0.0420
  484MOL0     O63791   6.733   5.974   1.508 -0.2544 -0.2920 -0.1071
  484MOL0     C63792   6.623   6.007   1.605 -0.2634  1.2237 -0.2051
  484MOL0     C63793   6.495   5.936   1.568  0.6701 -0.2672 -0.3634
  484MOL0     C63794   6.457   5.965   1.418  0.0965  0.7587  0.4762
  484MOL0     C63795   6.316   5.900   1.391 -0.2705 -0.3991  0.2743
  484MOL0     C63796   6.256   5.967   1.267  0.5235 -0.4287  0.0126
  484MOL0     C63797   6.107   5.933   1.258 -0.7330 -0.0714  0.5521
  484MOL0     C63798   6.056   6.005   1.131  0.0523  0.2151 -0.9431
  484MOL0     C63799   5.914   5.968   1.103  0.7189  0.0971  0.6483
  484MOL0    Cl63800   5.792   6.030   1.225 -0.0352 -0.0666 -0.2375
  484MOL0     C63801   6.962   5.979   1.438 -0.2895  0.7700  0.4005
  484MOL0     C63802   7.097   6.007   1.457 -0.2650  0.1268  0.3957
  484MOL0     O63803   7.286   5.919   1.784 -0.1911  0.3131  0.8859
  484MOL0     C63804   7.549   5.974   1.840  0.2395 -0.2017  0.1393
  484MOL0     C63805   7.684   5.984   1.859 -0.4418  0.1844 -0.0093
  484MOL0     N63806   8.523   6.414   1.746 -0.1760  1.1539  0.4517
  484MOL0     N63807   8.595   6.470   1.663 -1.1841  0.4641 -0.0093
  484MOL0     C63808   9.190   6.588   2.065 -0.3999  1.2136  0.0496
  484MOL0     C63809   9.130   6.661   2.173  0.0334  0.1273 -0.2829
  484MOL0     C63810   8.971   6.980   2.414  0.0915  0.5496 -0.5524
  484MOL0     C63811   8.839   6.956   2.456 -0.4023  0.1794  0.5689
  484MOL0     C63812   8.793   7.010   2.578  0.0204  0.4057  0.3094
  484MOL0     C63813   8.862   7.102   2.649  0.0516 -0.5504 -0.5344
  484MOL0     O63814   8.800   7.154   2.757 -0.4961 -0.2539 -0.0040
  484MOL0     C63815   8.886   7.206   2.865  0.0338  0.4838  0.0276
  484MOL0     C63816   8.803   7.302   2.937  0.4222  0.4559 -0.4929
  484MOL0     C63817   8.699   7.250   3.035  0.9609  0.1300  0.2428
  484MOL0     C63818   8.585   7.170   2.972 -0.2988 -0.0672 -0.3894
  484MOL0     C63819   8.492   7.113   3.069 -0.2200 -0.2694 -0.0240
  484MOL0     C63820   8.415   7.082   3.156  0.3863 -0.4556  0.5847
  484MOL0     C63821   9.003   7.121   2.607  1.2318 -0.1595 -1.0226
  484MOL0     C63822   9.054   7.052   2.499  0.6603 -0.3934  0.6402
  484MOL0     H63823   8.920   6.853   1.988 -1.3913 -0.9011 -0.2972
  484MOL0     H63824   9.028   6.731   1.818  3.4813 -0.1603  0.2254
  484MOL0     H63825   9.031   6.531   1.703  0.7799  1.2202 -1.9480
  484MOL0     H63826   9.156   6.411   1.674 -1.4762 -0.6152  1.6462
  484MOL0     H63827   9.267   6.584   1.543 -0.6852  0.2764 -0.9374
  484MOL0     H63828   9.147   6.705   1.617 -3.0062 -1.2249  2.0180
  484MOL0     H63829   9.103   6.658   1.406 -0.5846 -0.2577 -0.1528
  484MOL0     H63830   8.974   6.634   1.530 -0.1170 -0.9187  0.1743
  484MOL0     H63831   9.163   6.439   1.388  1.0622 -1.4784  1.1949
  484MOL0     H63832   9.014   6.379   1.473  0.2228  1.1772 -0.8542
  484MOL0     H63833   8.973   6.379   1.218 -2.3484  1.0934 -1.2376
  484MOL0     H63834   9.041   6.536   1.217  2.0448  1.0377  1.5329
  484MOL0     H63835   8.787   6.531   1.191 -1.9898  0.5571 -0.7520
  484MOL0     H63836   8.835   6.624   1.333  1.8685 -0.4384 -1.4393
  484MOL0     H63837   8.737   6.340   1.329 -0.6419  0.2349 -1.0180
  484MOL0     H63838   8.806   6.422   1.478  1.9725 -3.4435 -1.6017
  484MOL0     H63839   8.555   6.481   1.329 -0.3182 -0.8646 -0.4245
  484MOL0     H63840   8.629   6.607   1.412 -0.1036  0.2596 -0.2085
  484MOL0     H63841   8.378   6.342   1.463 -0.6146 -1.4837  1.2061
  484MOL0     H63842   8.319   6.323   1.845 -1.2077 -0.4444 -0.6847
  484MOL0     H63843   8.370   6.172   1.771  0.5873  0.7817  3.5036
  484MOL0     H63844   8.183   6.241   1.592 -2.1149 -0.8637  0.7240
  484MOL0     H63845   8.153   6.369   1.696  1.8758  0.7837  0.8808
  484MOL0     H63846   8.175   6.081   1.791  0.2663  0.1332  2.4263
  484MOL0     H63847   8.110   6.218   1.884 -0.7651  1.5565 -1.3228
  484MOL0     H63848   7.989   6.107   1.629 -2.2243 -0.5384 -0.1147
  484MOL0     H63849   7.938   6.262   1.702  0.4747  0.6986  3.7105
  484MOL0     H63850   7.733   6.242   1.643 -3.2352  1.2665 -1.2942
  484MOL0     H63851   7.498   6.220   1.613 -1.4460  1.5969  0.7937
  484MOL0     H63852   7.091   6.109   1.768 -1.0872  0.6281  0.4876
  484MOL0     H63853   6.839   6.092   1.740  3.7519 -0.9093  3.6608
  484MOL0     H63854   6.613   6.116   1.601 -0.9665  1.1784  0.1798
  484MOL0     H63855   6.656   5.985   1.707 -1.4606 -0.7331 -0.2015
  484MOL0     H63856   6.412   5.979   1.625  0.8240 -0.1881 -0.2009
  484MOL0     H63857   6.485   5.828   1.585 -2.8451 -0.0419 -0.2605
  484MOL0     H63858   6.527   5.915   1.351  1.0747  0.5354  1.6279
  484MOL0     H63859   6.466   6.070   1.389 -0.4741  0.7417  0.2272
  484MOL0     H63860   6.329   5.794   1.368 -2.0279 -0.5469 -0.1922
  484MOL0     H63861   6.247   5.911   1.475 -1.4711  1.2688 -0.8684
  484MOL0     H63862   6.312   5.929   1.181 -1.0088 -0.8353 -0.8279
  484MOL0     H63863   6.268   6.076   1.269 -1.1842 -0.2187  0.3053
  484MOL0     H63864   6.052   5.974   1.342  1.6746  2.0218  1.2621
  484MOL0     H63865   6.093   5.825   1.245  2.6480 -1.0281  3.1421
  484MOL0     H63866   6.071   6.113   1.147  5.0400 -0.3103 -0.5086
  484MOL0     H63867   6.113   5.964   1.047  0.9406 -0.5449  0.0046
  484MOL0     H63868   5.897   5.863   1.078 -2.2573  0.7028 -0.1591
  484MOL0     H63869   5.893   6.008   1.004  0.0061 -2.9439 -0.5540
  484MOL0     H63870   6.931   5.930   1.346  0.2871 -0.5557  0.8795
  484MOL0     H63871   7.168   5.973   1.382 -0.7269 -2.9597  1.2006
  484MOL0     H63872   7.493   5.898   1.894 -0.7150  0.5014  0.1681
  484MOL0     H63873   7.735   5.913   1.924  1.8082  0.0996 -1.7349
  484MOL0     H63874   9.268   6.519   2.096  0.3807  1.8411 -0.4820
  484MOL0     H63875   9.147   6.650   2.280 -0.9403  0.3479 -0.0966
  484MOL0     H63876   8.776   6.885   2.404  0.2165 -1.4318  1.9377
  484MOL0     H63877   8.692   6.980   2.602 -0.1685 -0.4398 -1.3825
  484MOL0     H63878   8.974   7.259   2.825  2.0668 -2.0335  0.9163
  484MOL0     H63879   8.918   7.121   2.926 -0.8022 -0.0701 -0.2792
  484MOL0     H63880   8.872   7.365   2.994 -0.7489  1.2178  0.1289
  484MOL0     H63881   8.749   7.373   2.873 -1.3555 -1.2944 -1.0130
  484MOL0     H63882   8.647   7.326   3.094 -2.3701  0.5078 -2.8018
  484MOL0     H63883   8.753   7.177   3.095 -1.0676  0.1580  2.2196
  484MOL0     H63884   8.532   7.228   2.896  1.6988  2.9678  0.3711
  484MOL0     H63885   8.628   7.086   2.917  0.9025  1.5939 -2.1272
  484MOL0     H63886   8.331   7.051   3.214  0.3567  0.1463  0.8696
  484MOL0     H63887   9.068   7.166   2.682 -1.6647  0.3405  1.3892
  484MOL0     H63888   9.161   7.060   2.487  1.1123 -1.3432  3.2678
  485MOL0     O63889   0.146   3.463  11.197  0.0331  0.1098  0.4313
  485MOL0     C63890   0.141   3.372  11.114 -0.2749  0.3575  0.6763
  485MOL0     O63891   0.033   3.328  11.042 -0.0171 -0.3091  0.8624
  485MOL0     C63892  -0.087   3.398  11.060 -0.5500  0.3484  0.0681
  485MOL0     C63893  -0.186   3.345  11.141 -0.3471  0.1318 -0.3122
  485MOL0     C63894  -0.307   3.408  11.158  0.1381  0.0202  0.2011
  485MOL0     C63895  -0.341   3.512  11.072  0.3834 -0.3369  0.1968
  485MOL0     O63896  -0.464   3.562  11.055  0.1709  0.2191  0.0979
  485MOL0     C63897  -0.571   3.538  11.154  0.1670 -0.2092 -0.2528
  485MOL0     C63898  -0.717   3.580  11.115  0.1919  0.1797 -0.3750
  485MOL0     C63899  -0.812   3.576  11.233  0.3427 -0.0939 -0.2711
  485MOL0     C63900  -0.965   3.590  11.197 -0.2142  1.1244 -0.2362
  485MOL0     C63901  -1.055   3.602  11.321 -0.1205  0.7627 -0.0633
  485MOL0     C63902  -1.029   3.502  11.431 -0.2044  0.1719 -0.7012
  485MOL0     C63903  -1.110   3.534  11.564  0.3233  0.0916 -0.3768
  485MOL0     C63904  -1.084   3.428  11.680 -0.1352  0.2203  0.3744
  485MOL0     N63905  -1.200   3.437  11.776  0.5063 -0.0637  1.0382
  485MOL0     C63906  -1.209   3.541  11.855 -0.2271 -0.2530  0.2765
  485MOL0     C63907  -1.327   3.520  11.927  0.5353  0.0481  0.6280
  485MOL0     C63908  -1.388   3.618  12.027  0.0070 -0.0038  0.2062
  485MOL0     C63909  -1.404   3.756  11.973 -0.1498 -0.4984  0.3598
  485MOL0     C63910  -1.459   3.767  11.833 -0.4040  0.4633 -0.5345
  485MOL0     C63911  -1.596   3.693  11.823  0.2336  0.2229 -0.1304
  485MOL0     O63912  -1.643   3.716  11.692 -0.8848  0.1652  0.1986
  485MOL0     C63913  -1.778   3.702  11.668  0.1169 -0.5376 -0.8422
  485MOL0     C63914  -1.813   3.719  11.536  0.5661 -0.4791 -0.4926
  485MOL0     C63915  -1.942   3.712  11.495 -0.4142  0.5195  0.0078
  485MOL0     C63916  -2.045   3.676  11.579  0.5044 -0.0271 -0.6619
  485MOL0     C63917  -2.186   3.680  11.533  0.0925 -1.5055  0.5080
  485MOL0     O63918  -2.285   3.640  11.613 -0.0463 -0.6104  0.4144
  485MOL0     C63919  -2.414   3.643  11.582  0.1194  0.2131  0.1172
  485MOL0     C63920  -2.483   3.531  11.615 -0.6602  0.0271  0.3528
  485MOL0     C63921  -2.619   3.515  11.604  0.5655 -0.2024 -0.9183
  485MOL0     C63922  -2.703   3.619  11.563  0.3583 -0.4220  0.5436
  485MOL0     O63923  -2.842   3.604  11.568  0.1324  0.2280 -0.2933
  485MOL0     C63924  -2.906   3.629  11.440 -0.0931  0.4020 -0.3784
  485MOL0     C63925  -3.052   3.626  11.473 -0.4146  0.4362  0.8203
  485MOL0     C63926  -3.092   3.487  11.517 -0.3803  0.1158  0.4510
  485MOL0     C63927  -3.241   3.461  11.516  0.4133  0.8409 -0.8760
  485MOL0     C63928  -3.283   3.319  11.563  0.3526 -1.0468 -0.0944
  485MOL0     C63929  -3.310   3.314  11.718 -0.2038  0.3857 -0.0141
  485MOL0     C63930  -3.372   3.185  11.762 -0.1433 -0.0101 -0.1273
  485MOL0     C63931  -3.515   3.157  11.709  0.4681 -0.3366 -0.4272
  485MOL0    Cl63932  -3.636   3.297  11.719  0.4301  0.7092 -0.3178
  485MOL0     C63933  -2.628   3.744  11.535 -0.0271  0.0172 -0.4452
  485MOL0     C63934  -2.488   3.752  11.538 -0.1814  0.4044 -0.7692
  485MOL0     O63935  -2.200   3.730  11.419 -0.1800 -0.8336  0.6363
  485MOL0     C63936  -2.013   3.655  11.717 -0.0534 -0.1479  0.1435
  485MOL0     C63937  -1.882   3.666  11.756  0.1709 -0.0787 -0.6393
  485MOL0     N63938  -1.385   3.401  11.884  0.4062 -0.2268  0.0747
  485MOL0     N63939  -1.313   3.360  11.787  0.2275  0.0872 -0.2528
  485MOL0     C63940  -0.235   3.570  11.003 -0.8004 -0.3755 -0.1384
  485MOL0     C63941  -0.109   3.509  10.991  0.3086  0.0762 -0.0343
  485MOL0     C63942   0.271   3.298  11.087 -0.3649 -0.2186  0.7690
  485MOL0     C63943   0.312   3.277  10.952  1.4896  0.2403 -0.2590
  485MOL0     C63944   0.421   3.202  10.924 -0.0855  0.2473  0.1161
  485MOL0     C63945   0.507   3.154  11.029 -0.5061  0.2631  0.1842
  485MOL0     O63946   0.614   3.079  10.995  0.1583  0.3425 -0.1349
  485MOL0     C63947   0.701   3.022  11.093 -1.0308 -0.0986 -0.3138
  485MOL0     C63948   0.820   2.965  11.021 -0.0340  1.0747  0.6660
  485MOL0     C63949   0.928   2.914  11.107  0.9087 -0.5416 -0.1937
  485MOL0     C63950   1.058   2.897  11.033 -0.3436  0.5354  0.2610
  485MOL0     C63951   1.167   2.846  11.120 -0.9138 -0.1907  0.7061
  485MOL0     C63952   1.260   2.778  11.167 -0.0584 -0.8700 -0.0509
  485MOL0     C63953   0.465   3.184  11.158  0.7910  0.0556 -1.4786
  485MOL0     C63954   0.352   3.255  11.189  0.8724 -0.2258  0.8941
  485MOL0     H63955  -0.155   3.259  11.199  1.3504  0.5111 -0.5955
  485MOL0     H63956  -0.373   3.361  11.230 -0.5756  0.8788  0.1247
  485MOL0     H63957  -0.545   3.590  11.246 -1.4590 -1.2708  0.8667
  485MOL0     H63958  -0.568   3.434  11.188 -0.4519 -0.3996 -0.7489
  485MOL0     H63959  -0.755   3.506  11.044 -1.9028 -1.7249  2.5024
  485MOL0     H63960  -0.712   3.678  11.066 -2.6104  0.9611  0.7048
  485MOL0     H63961  -0.784   3.664  11.291 -0.5889  1.9182 -2.6586
  485MOL0     H63962  -0.797   3.482  11.286  0.5599 -0.4158 -0.8929
  485MOL0     H63963  -0.986   3.680  11.137  0.0789  0.1676 -1.8357
  485MOL0     H63964  -0.994   3.504  11.136 -2.4280  1.9993 -0.4909
  485MOL0     H63965  -1.161   3.590  11.298 -0.4315  1.9188  0.6935
  485MOL0     H63966  -1.040   3.700  11.366 -3.0361  0.3408  2.1069
  485MOL0     H63967  -0.924   3.509  11.460  0.8242  0.6125 -4.0323
  485MOL0     H63968  -1.039   3.401  11.389  0.9914 -1.3819  2.4307
  485MOL0     H63969  -1.064   3.624  11.606 -0.6474  1.5079 -2.1896
  485MOL0     H63970  -1.216   3.554  11.548  0.2660  0.2969  0.2452
  485MOL0     H63971  -0.987   3.451  11.724 -0.2965  0.6877  0.4883
  485MOL0     H63972  -1.077   3.328  11.634 -0.0595  0.1201  0.6052
  485MOL0     H63973  -1.134   3.617  11.878  1.4792 -1.3778 -1.2360
  485MOL0     H63974  -1.324   3.617  12.115 -0.0113 -1.9985  0.2536
  485MOL0     H63975  -1.478   3.569  12.064  0.3752  0.2146  1.4267
  485MOL0     H63976  -1.305   3.803  11.970  0.3368 -1.5494 -1.4700
  485MOL0     H63977  -1.471   3.821  12.031 -0.1271  0.6173 -0.8314
  485MOL0     H63978  -1.466   3.873  11.808  0.7116  0.9878  1.2093
  485MOL0     H63979  -1.395   3.717  11.760 -1.1717 -0.3265 -0.6908
  485MOL0     H63980  -1.662   3.739  11.898 -0.3604  2.2097 -1.7532
  485MOL0     H63981  -1.578   3.586  11.830 -3.4959 -0.5220  0.3792
  485MOL0     H63982  -1.734   3.743  11.466 -1.6331  1.5451 -2.4788
  485MOL0     H63983  -1.954   3.738  11.391  1.0723  1.6944  0.0980
  485MOL0     H63984  -2.420   3.446  11.638  1.6809  1.6370  0.2329
  485MOL0     H63985  -2.664   3.418  11.621  0.7848 -0.2392 -0.5377
  485MOL0     H63986  -2.877   3.562  11.359  1.1907 -1.5000  1.5262
  485MOL0     H63987  -2.870   3.729  11.414  0.2204  0.2312 -0.5968
  485MOL0     H63988  -3.103   3.660  11.382  4.2762  3.9245 -0.9251
  485MOL0     H63989  -3.077   3.701  11.548 -1.0832  1.8472 -0.7550
  485MOL0     H63990  -3.051   3.484  11.619 -2.4041  1.9241  1.4033
  485MOL0     H63991  -3.051   3.411  11.451 -3.1981 -0.1879 -1.0998
  485MOL0     H63992  -3.282   3.551  11.563  1.1744  1.1194 -0.7365
  485MOL0     H63993  -3.274   3.475  11.413 -3.3356  1.5255  0.2568
  485MOL0     H63994  -3.205   3.250  11.529  1.4998 -0.1824  0.7038
  485MOL0     H63995  -3.371   3.302  11.500  0.8400  0.7282 -1.3312
  485MOL0     H63996  -3.374   3.398  11.747 -0.9106  1.1417 -3.3404
  485MOL0     H63997  -3.214   3.338  11.765  1.2414 -1.1690 -1.9930
  485MOL0     H63998  -3.313   3.105  11.717  0.4319  0.3109  0.0439
  485MOL0     H63999  -3.369   3.169  11.870 -1.8384  0.9867  0.0989
  485MOL0     H64000  -3.555   3.072  11.764 -1.4561  2.9293  3.9079
  485MOL0     H64001  -3.500   3.131  11.604  1.9643 -1.8516  0.1329
  485MOL0     H64002  -2.700   3.817  11.499  1.0917  1.5643  0.3455
  485MOL0     H64003  -2.436   3.845  11.518  0.7212  0.0452 -0.1384
  485MOL0     H64004  -2.088   3.607  11.779  1.1720 -1.4856  0.6683
  485MOL0     H64005  -1.860   3.647  11.861 -2.2591 -0.6759 -0.1800
  485MOL0     H64006  -0.265   3.658  10.947  2.2209  0.2894 -0.9211
  485MOL0     H64007  -0.023   3.548  10.939 -0.3758 -0.0890 -1.3453
  485MOL0     H64008   0.261   3.323  10.868 -3.2307 -1.2190  1.4340
  485MOL0     H64009   0.449   3.171  10.824 -1.2544  1.8138 -0.7440
  485MOL0     H64010   0.649   2.945  11.152  0.5636 -1.4490 -0.6021
  485MOL0     H64011   0.731   3.096  11.168 -1.2743  0.0729 -0.3844
  485MOL0     H64012   0.786   2.890  10.949 -0.7339  3.3473 -1.5557
  485MOL0     H64013   0.866   3.046  10.963  3.4713  0.3201  2.1880
  485MOL0     H64014   0.899   2.819  11.155  2.7017 -0.8035  0.4380
  485MOL0     H64015   0.950   2.986  11.186  1.1312  1.3633 -1.9110
  485MOL0     H64016   1.048   2.826  10.951  0.2755  0.9205 -0.1575
  485MOL0     H64017   1.094   2.989  10.985 -1.0410  0.3150 -0.7201
  485MOL0     H64018   1.335   2.718  11.216  0.2175  0.3476  1.0749
  485MOL0     H64019   0.526   3.147  11.240  0.2519  0.2517 -0.9860
  485MOL0     H64020   0.327   3.279  11.291  0.3231 -0.7810  0.8960
  486MOL0     O64021  11.074   9.408   0.267  0.8275  1.2243  0.3841
  486MOL0     C64022  11.126   9.419   0.159 -0.1654  0.5209  1.2305
  486MOL0     O64023  11.082   9.497   0.060  0.3697  1.1357  0.3549
  486MOL0     C64024  10.972   9.584   0.055  0.0163 -0.2752 -0.4702
  486MOL0     C64025  10.950   9.637  -0.078  1.0011  0.0258 -0.1606
  486MOL0     C64026  10.837   9.725  -0.091 -0.2052 -0.1649 -0.3468
  486MOL0     C64027  10.767   9.767   0.016 -0.2186  0.6140  0.0510
  486MOL0     O64028  10.658   9.848  -0.016 -0.0158 -0.4667 -0.2747
  486MOL0     C64029  10.570   9.891   0.094  0.2046 -0.9149  0.6088
  486MOL0     C64030  10.462   9.986   0.037 -0.2449 -0.4705 -0.1607
  486MOL0     C64031  10.360  10.039   0.142  0.0933  0.7858 -0.3524
  486MOL0     C64032  10.247  10.117   0.087 -0.0898  0.5852  0.3442
  486MOL0     C64033  10.149  10.162   0.188 -0.9584 -0.3776 -0.5251
  486MOL0     C64034  10.025  10.197   0.121  0.3307 -0.1453  0.3259
  486MOL0     C64035   9.937  10.074   0.088  0.0436 -0.4725 -0.4286
  486MOL0     C64036   9.881  10.082  -0.054  0.2641 -0.1628  0.4809
  486MOL0     N64037   9.779  10.188  -0.049 -0.6538 -0.0812  0.1426
  486MOL0     C64038   9.656  10.173   0.005 -0.2964 -0.7335  0.4113
  486MOL0     C64039   9.608  10.300  -0.013 -0.2103 -0.0814 -0.0973
  486MOL0     C64040   9.478  10.342   0.052  0.4012  0.5875  0.2394
  486MOL0     C64041   9.361  10.284  -0.023  0.2414  0.4449  0.2931
  486MOL0     C64042   9.227  10.273   0.063 -0.8762 -0.0757 -0.6726
  486MOL0     C64043   9.170  10.403   0.124  0.3560 -0.0659  0.0744
  486MOL0     O64044   9.118  10.394   0.257 -0.8850 -0.4871  0.4398
  486MOL0     C64045   8.989  10.379   0.284 -0.0796 -0.2908  0.1717
  486MOL0     C64046   8.924  10.260   0.245  0.8753 -0.3371  0.3074
  486MOL0     C64047   8.789  10.245   0.269  0.0486 -0.3641  0.2460
  486MOL0     C64048   8.716  10.340   0.341  0.0544 -0.4545 -0.5495
  486MOL0     C64049   8.571  10.320   0.354  0.0202  0.5309  0.0778
  486MOL0     O64050   8.494  10.397   0.430 -0.6141  0.5878  0.1327
  486MOL0     C64051   8.363  10.361   0.468 -0.4038 -1.1625  0.4804
  486MOL0     C64052   8.335  10.225   0.502 -0.0922 -0.5512  0.0831
  486MOL0     C64053   8.211  10.195   0.562 -0.5778 -0.3787 -0.0932
  486MOL0     C64054   8.111  10.294   0.581  0.5246  0.4447  0.0398
  486MOL0     O64055   7.983  10.275   0.635 -0.1834 -0.0800  0.1761
  486MOL0     C64056   7.920  10.152   0.600  0.7822  0.3585  0.5895
  486MOL0     C64057   7.771  10.152   0.635  0.3254 -0.8117  0.7220
  486MOL0     C64058   7.752  10.124   0.777 -0.0768  0.0571 -0.3339
  486MOL0     C64059   7.610  10.159   0.828  0.6365  0.6233  0.1019
  486MOL0     C64060   7.505  10.060   0.787 -0.1053 -0.1045  0.4902
  486MOL0     C64061   7.526   9.912   0.811 -0.3487 -0.0489  0.5355
  486MOL0     C64062   7.404   9.833   0.776  0.6747  0.4254  0.6016
  486MOL0     C64063   7.312   9.831   0.893 -1.2516 -0.4982 -0.3615
  486MOL0    Cl64064   7.144   9.788   0.835  0.0367  0.1620 -0.2233
  486MOL0     C64065   8.143  10.427   0.535  0.0642  0.2913  0.4077
  486MOL0     C64066   8.271  10.462   0.484 -0.0332  0.2058 -0.5834
  486MOL0     O64067   8.523  10.233   0.280 -0.4705 -0.4035  0.3675
  486MOL0     C64068   8.785  10.461   0.384  0.4676  0.3002 -0.2359
  486MOL0     C64069   8.925  10.473   0.359  0.1078 -0.4839  0.5107
  486MOL0     N64070   9.699  10.384  -0.088  0.0651 -0.2916  0.5362
  486MOL0     N64071   9.803  10.310  -0.103 -0.6435  0.5111  0.6406
  486MOL0     C64072  10.784   9.705   0.145  1.3743 -0.1402  0.6304
  486MOL0     C64073  10.897   9.630   0.172 -0.4294  0.1998 -0.0374
  486MOL0     C64074  11.245   9.334   0.129  0.5338 -1.3033  0.1400
  486MOL0     C64075  11.332   9.346   0.019 -0.2113 -0.3823 -0.4040
  486MOL0     C64076  11.447   9.262   0.005  0.6053 -0.6030 -0.5409
  486MOL0     C64077  11.476   9.163   0.105 -0.3158  0.1253 -0.1030
  486MOL0     O64078  11.591   9.080   0.109 -0.0858 -1.5085  0.0365
  486MOL0     C64079  11.686   9.080   0.001  0.0817  0.0245 -1.5325
  486MOL0     C64080  11.640   8.971  -0.111  0.3611  0.0352 -0.7280
  486MOL0     C64081  11.683   8.827  -0.071 -0.4524  0.2982  0.4661
  486MOL0     C64082  11.835   8.804  -0.090  0.7984  0.2315  0.0297
  486MOL0     C64083  11.886   8.680  -0.026  0.2966 -0.0314 -0.5798
  486MOL0     C64084  11.921   8.579   0.035  0.3168  0.0756 -0.4186
  486MOL0     C64085  11.390   9.145   0.213  0.8333 -0.3042 -0.0292
  486MOL0     C64086  11.279   9.232   0.221  0.5400  0.0596 -0.2796
  486MOL0     H64087  11.007   9.606  -0.165 -0.3593 -1.6642 -0.4895
  486MOL0     H64088  10.814   9.775  -0.185 -0.4903  2.2952  0.9623
  486MOL0     H64089  10.635   9.949   0.160  0.8744  1.8427 -2.2307
  486MOL0     H64090  10.524   9.802   0.136 -1.0574 -1.6814 -2.1712
  486MOL0     H64091  10.402   9.934  -0.037  0.7682 -2.6749  0.4771
  486MOL0     H64092  10.510  10.076  -0.003  0.4781 -0.9577 -0.4154
  486MOL0     H64093  10.407  10.097   0.222 -1.5524  1.0059  0.5008
  486MOL0     H64094  10.312   9.953   0.191  1.8340  0.3761  0.7209
  486MOL0     H64095  10.277  10.208   0.035  0.3185 -0.2984 -1.0414
  486MOL0     H64096  10.205  10.048   0.013 -0.0844  0.2943  0.6082
  486MOL0     H64097  10.198  10.243   0.242 -1.8593  2.6576 -3.8971
  486MOL0     H64098  10.136  10.084   0.263 -1.0049  0.5950  0.4986
  486MOL0     H64099  10.047  10.257   0.033  0.7285 -1.6898 -0.6509
  486MOL0     H64100   9.975  10.259   0.198  2.2646 -2.0160  3.2823
  486MOL0     H64101  10.003   9.987   0.091 -0.3615 -0.7630 -0.0295
  486MOL0     H64102   9.856  10.062   0.160  0.7757 -0.5502  0.3972
  486MOL0     H64103   9.844   9.992  -0.104  4.6266 -1.3988 -0.9799
  486MOL0     H64104   9.966  10.117  -0.114 -1.0172  3.2081  0.3860
  486MOL0     H64105   9.620  10.083   0.053  0.8801  0.0939  3.0204
  486MOL0     H64106   9.470  10.451   0.057 -0.5122  0.5327  0.0296
  486MOL0     H64107   9.483  10.306   0.155  0.2573  1.9107  0.7344
  486MOL0     H64108   9.379  10.185  -0.065 -2.4161 -1.2311  2.7803
  486MOL0     H64109   9.339  10.352  -0.106 -0.9152 -3.1410 -2.6168
  486MOL0     H64110   9.149  10.226   0.002  0.5985 -2.3940 -0.8989
  486MOL0     H64111   9.253  10.204   0.144  0.2570  1.6651  0.5159
  486MOL0     H64112   9.090  10.438   0.059 -1.0636 -0.5624  1.4991
  486MOL0     H64113   9.255  10.471   0.110  3.2556 -3.0254  1.7555
  486MOL0     H64114   8.984  10.180   0.203  3.6057 -0.8991  4.5945
  486MOL0     H64115   8.737  10.152   0.246 -1.1506 -0.3613  2.6124
  486MOL0     H64116   8.415  10.153   0.492  1.4755  0.9141  1.3953
  486MOL0     H64117   8.192  10.092   0.592  2.9565 -1.8538 -2.2950
  486MOL0     H64118   7.968  10.068   0.652 -0.4401 -1.9706 -1.7690
  486MOL0     H64119   7.937  10.134   0.493 -3.0085  2.0467 -0.4755
  486MOL0     H64120   7.716  10.079   0.574 -0.6071 -0.2774  0.9032
  486MOL0     H64121   7.726  10.248   0.609 -2.4067 -2.3302 -0.6868
  486MOL0     H64122   7.822  10.177   0.842 -3.1870 -2.0737  5.4306
  486MOL0     H64123   7.766  10.016   0.786  0.8619  0.1331 -0.8073
  486MOL0     H64124   7.608  10.167   0.937 -1.8104  1.6423  0.0350
  486MOL0     H64125   7.585  10.261   0.796  0.5938  1.6896  3.2130
  486MOL0     H64126   7.490  10.079   0.680  1.4605 -1.2245  0.0433
  486MOL0     H64127   7.418  10.097   0.842 -0.6695 -2.0649  1.0149
  486MOL0     H64128   7.555   9.890   0.914  1.7202  0.5436  0.1308
  486MOL0     H64129   7.600   9.872   0.741 -0.0436  2.2925 -0.6071
  486MOL0     H64130   7.352   9.878   0.691  1.9915  1.8852  0.5273
  486MOL0     H64131   7.431   9.731   0.746  1.2866 -0.0046  2.4606
  486MOL0     H64132   7.305   9.932   0.934  0.5759 -0.1546 -0.8262
  486MOL0     H64133   7.354   9.757   0.962  2.1032  0.7696 -0.8633
  486MOL0     H64134   8.069  10.506   0.536  0.7886  1.1421 -2.5642
  486MOL0     H64135   8.283  10.564   0.449 -1.1608  0.4799 -0.2161
  486MOL0     H64136   8.724  10.541   0.425 -1.8196 -0.3170 -2.1724
  486MOL0     H64137   8.969  10.564   0.396  0.8807  0.0632 -1.5748
  486MOL0     H64138  10.718   9.727   0.228  3.8182 -1.1549  2.9747
  486MOL0     H64139  10.918   9.602   0.274 -0.4853  1.6425  0.3939
  486MOL0     H64140  11.295   9.410  -0.060 -0.3136 -0.5557 -0.4978
  486MOL0     H64141  11.508   9.273  -0.084  1.5638 -1.3351  0.0007
  486MOL0     H64142  11.787   9.052   0.033 -0.3281  0.9187  0.6804
  486MOL0     H64143  11.692   9.179  -0.046 -4.8803  0.9270 -0.8269
  486MOL0     H64144  11.531   8.972  -0.121  0.3716 -0.9856 -1.0385
  486MOL0     H64145  11.688   8.999  -0.206 -0.6800  0.1275 -1.2404
  486MOL0     H64146  11.637   8.750  -0.134  0.8290 -1.0634  1.1060
  486MOL0     H64147  11.645   8.808   0.030  0.2072 -0.5810  0.5677
  486MOL0     H64148  11.863   8.786  -0.194  2.7823  0.6199  0.4373
  486MOL0     H64149  11.890   8.887  -0.045 -1.3276  1.0799  1.1989
  486MOL0     H64150  11.953   8.495   0.093 -0.0230  0.2646  0.0460
  486MOL0     H64151  11.409   9.070   0.289 -2.3163 -1.3200 -0.0901
  486MOL0     H64152  11.208   9.213   0.301  0.1805  0.1717 -0.5721
  487MOL0     O64153   6.754   1.758   5.844 -0.2531  0.2351 -0.0460
  487MOL0     C64154   6.792   1.742   5.731  0.1909  0.3803 -0.4268
  487MOL0     O64155   6.732   1.659   5.641  0.1743 -0.2931  0.1448
  487MOL0     C64156   6.605   1.622   5.625  0.7177  0.5631 -1.0335
  487MOL0     C64157   6.560   1.520   5.719  0.3355  0.6924  0.1681
  487MOL0     C64158   6.423   1.482   5.718  0.6475  0.1288 -0.5093
  487MOL0     C64159   6.337   1.548   5.639  0.2741  0.1500 -0.0166
  487MOL0     O64160   6.209   1.510   5.635  0.4612  0.8198  0.2608
  487MOL0     C64161   6.126   1.522   5.518  0.1129  0.0028 -0.0034
  487MOL0     C64162   6.173   1.438   5.397 -0.3738 -0.3504  0.4112
  487MOL0     C64163   6.071   1.455   5.278 -0.0738  0.1338 -0.5169
  487MOL0     C64164   5.932   1.391   5.318  0.1407  0.3652  1.1253
  487MOL0     C64165   5.817   1.437   5.232  0.1227  0.3607  0.0578
  487MOL0     C64166   5.703   1.337   5.233 -0.6402 -0.1809  0.6111
  487MOL0     C64167   5.583   1.398   5.160  0.0812  0.2042  0.0540
  487MOL0     C64168   5.479   1.288   5.115  0.3609 -0.1237 -0.7713
  487MOL0     N64169   5.529   1.209   5.004  0.3371  0.9359  0.2376
  487MOL0     C64170   5.532   1.070   5.003  0.1504  0.0637  0.5946
  487MOL0     C64171   5.613   1.033   4.898  0.0370 -0.3963  0.8268
  487MOL0     C64172   5.646   0.889   4.861 -0.3448 -0.7154 -0.1163
  487MOL0     C64173   5.529   0.799   4.823 -0.2176  0.6327 -0.2757
  487MOL0     C64174   5.572   0.666   4.754 -0.2379 -0.0457 -0.1422
  487MOL0     C64175   5.448   0.609   4.690  0.1725  0.3567  0.2609
  487MOL0     O64176   5.364   0.554   4.789  0.5741 -0.3188 -0.2112
  487MOL0     C64177   5.233   0.531   4.756 -0.2155  0.4382 -0.3189
  487MOL0     C64178   5.177   0.576   4.631 -0.4810 -0.2201 -0.7142
  487MOL0     C64179   5.044   0.546   4.593 -0.6010 -0.1828 -0.5437
  487MOL0     C64180   4.967   0.457   4.675 -1.1961 -0.2667 -0.1379
  487MOL0     C64181   4.836   0.414   4.631  0.0159  0.5428 -0.1958
  487MOL0     O64182   4.764   0.318   4.705  0.3470  0.3212  0.5186
  487MOL0     C64183   4.629   0.327   4.726 -0.0442  0.5544  1.0449
  487MOL0     C64184   4.583   0.465   4.720  0.8030 -0.3334 -0.2771
  487MOL0     C64185   4.441   0.475   4.741  0.0024 -0.3091 -0.4330
  487MOL0     C64186   4.350   0.364   4.751 -0.2123  0.0357 -0.4131
  487MOL0     O64187   4.220   0.375   4.769  0.0268 -0.4176 -0.7039
  487MOL0     C64188   4.164   0.315   4.886 -0.1745  0.7543  0.4257
  487MOL0     C64189   4.027   0.366   4.926  0.1362  0.1867  0.3853
  487MOL0     C64190   3.913   0.327   4.823  0.6706 -0.3587 -0.8902
  487MOL0     C64191   3.787   0.397   4.867  0.3237  0.2241  0.5907
  487MOL0     C64192   3.662   0.348   4.767 -0.5466 -0.2152 -0.1426
  487MOL0     C64193   3.567   0.253   4.842  0.6169 -0.9485 -0.8452
  487MOL0     C64194   3.443   0.205   4.760 -0.3691  0.3839  0.0918
  487MOL0     C64195   3.327   0.153   4.843 -0.0690 -0.2523  0.0257
  487MOL0    Cl64196   3.362  -0.003   4.927 -0.0164  0.1290  0.0020
  487MOL0     C64197   4.405   0.233   4.740  0.3619 -0.5349  0.0664
  487MOL0     C64198   4.544   0.218   4.735  0.0035  0.0609  0.2309
  487MOL0     O64199   4.792   0.470   4.531 -0.3417  0.5373  0.8610
  487MOL0     C64200   5.028   0.415   4.804 -0.5093 -0.4057 -0.4245
  487MOL0     C64201   5.156   0.454   4.838 -0.7240 -0.8226 -0.4948
  487MOL0     N64202   5.644   1.151   4.834 -0.1116 -0.0159  0.4772
  487MOL0     N64203   5.595   1.252   4.894 -0.9061 -0.3046  0.2652
  487MOL0     C64204   6.378   1.653   5.548 -0.5274 -0.3090  0.6118
  487MOL0     C64205   6.515   1.687   5.541  0.5032  0.8112 -0.5909
  487MOL0     C64206   6.925   1.800   5.694 -0.1666  0.3715  0.8318
  487MOL0     C64207   7.002   1.870   5.782 -0.0333 -0.5022  0.7517
  487MOL0     C64208   7.131   1.924   5.746  0.4475  0.7329 -0.1291
  487MOL0     C64209   7.183   1.907   5.622  0.8180  1.0334 -0.1796
  487MOL0     O64210   7.299   1.966   5.588  1.2144  0.0092 -0.4192
  487MOL0     C64211   7.358   1.960   5.457 -0.0911  0.3331 -0.1024
  487MOL0     C64212   7.497   2.030   5.460  0.5689 -0.5765  0.8058
  487MOL0     C64213   7.616   1.927   5.464 -0.2922 -0.6867 -0.0418
  487MOL0     C64214   7.653   1.877   5.607 -0.2919  0.4582 -0.0145
  487MOL0     C64215   7.729   1.979   5.678  0.8937 -0.2766 -0.0192
  487MOL0     C64216   7.801   2.045   5.746  0.8198 -0.5599 -0.1122
  487MOL0     C64217   7.106   1.843   5.525  0.0683 -0.5649  0.4970
  487MOL0     C64218   6.977   1.788   5.559 -0.6146  1.3991 -0.5830
  487MOL0     H64219   6.622   1.467   5.791  0.7717 -1.2183 -1.5322
  487MOL0     H64220   6.392   1.411   5.794 -0.8850  1.6857  0.4111
  487MOL0     H64221   6.115   1.626   5.486 -4.9116  0.6426  2.7888
  487MOL0     H64222   6.030   1.499   5.565  0.4907 -3.0764 -0.5530
  487MOL0     H64223   6.169   1.336   5.435 -3.3985  0.5912  3.2268
  487MOL0     H64224   6.275   1.465   5.369 -0.0586 -2.2757 -0.4195
  487MOL0     H64225   6.108   1.417   5.182  1.9608  2.1685 -0.6067
  487MOL0     H64226   6.074   1.562   5.256  1.2494 -0.3630 -3.2310
  487MOL0     H64227   5.951   1.284   5.301 -1.3095  0.6031 -3.7543
  487MOL0     H64228   5.902   1.412   5.420 -1.9896  2.0012  0.2382
  487MOL0     H64229   5.848   1.438   5.127 -0.1055  1.3760 -0.0075
  487MOL0     H64230   5.778   1.534   5.262 -0.1343  0.4127 -0.4344
  487MOL0     H64231   5.677   1.311   5.336  0.5468  1.9251  1.5028
  487MOL0     H64232   5.723   1.243   5.181 -0.6735  0.5246 -0.7233
  487MOL0     H64233   5.540   1.467   5.233  2.1872  0.3130  1.2758
  487MOL0     H64234   5.612   1.457   5.073 -2.6156  3.5461  1.2069
  487MOL0     H64235   5.400   1.345   5.064 -0.0254 -0.6981 -0.8238
  487MOL0     H64236   5.425   1.246   5.200  0.2156 -0.0305 -0.8177
  487MOL0     H64237   5.499   1.005   5.083  0.9696 -0.0118  0.8781
  487MOL0     H64238   5.710   0.843   4.937 -1.5089  1.4014  2.2893
  487MOL0     H64239   5.718   0.908   4.781 -0.4895  1.3796  0.1865
  487MOL0     H64240   5.470   0.850   4.746  0.2151  0.5484 -0.6657
  487MOL0     H64241   5.473   0.780   4.915  2.1102  2.7843  1.7416
  487MOL0     H64242   5.638   0.683   4.669 -1.9645  1.3688 -1.2495
  487MOL0     H64243   5.615   0.600   4.831 -1.0676 -0.8952 -0.3921
  487MOL0     H64244   5.488   0.525   4.633  0.5573  1.2389 -0.7844
  487MOL0     H64245   5.400   0.687   4.630 -0.8045 -0.8557 -0.5776
  487MOL0     H64246   5.221   0.641   4.557 -0.5533  2.4924  1.4684
  487MOL0     H64247   5.011   0.597   4.503  2.0110  0.5598 -1.1626
  487MOL0     H64248   4.646   0.553   4.711 -0.6863  0.8555  0.6253
  487MOL0     H64249   4.397   0.570   4.768  0.4846  0.1448 -1.1956
  487MOL0     H64250   4.218   0.337   4.979 -0.2731  1.7939  0.2512
  487MOL0     H64251   4.160   0.205   4.886 -0.1704  0.7160  2.3165
  487MOL0     H64252   4.034   0.475   4.935 -2.0396  0.5603 -1.4670
  487MOL0     H64253   3.991   0.321   5.019 -0.6869  2.5466  1.2952
  487MOL0     H64254   3.904   0.219   4.812  0.5124 -0.5854  1.1074
  487MOL0     H64255   3.934   0.360   4.721  2.6828 -2.6537 -1.3044
  487MOL0     H64256   3.758   0.399   4.973  0.8425  1.5820  0.7361
  487MOL0     H64257   3.815   0.501   4.848  1.8990 -0.2087  0.4306
  487MOL0     H64258   3.695   0.315   4.668  0.2732 -1.0571  0.3908
  487MOL0     H64259   3.604   0.441   4.759 -1.1327 -0.6529 -1.1361
  487MOL0     H64260   3.534   0.291   4.939  0.8570 -2.8955  0.0554
  487MOL0     H64261   3.614   0.159   4.873  5.0279  1.1476 -0.4852
  487MOL0     H64262   3.411   0.280   4.687 -0.4919 -1.7322 -2.1633
  487MOL0     H64263   3.475   0.122   4.697 -0.2914  0.8693 -0.5202
  487MOL0     H64264   3.238   0.133   4.783  0.8887 -3.2484 -0.5994
  487MOL0     H64265   3.302   0.232   4.915  2.5276  1.8563 -1.2148
  487MOL0     H64266   4.342   0.145   4.754  1.9002 -1.4282  1.9761
  487MOL0     H64267   4.589   0.119   4.728  0.6663  0.2720  1.2885
  487MOL0     H64268   4.982   0.341   4.869  1.9260 -2.8973 -1.3394
  487MOL0     H64269   5.211   0.420   4.926  1.9345 -2.1271 -2.4878
  487MOL0     H64270   6.322   1.693   5.464 -1.3191 -0.6085  0.9886
  487MOL0     H64271   6.555   1.762   5.475 -0.5278  2.2124  0.3328
  487MOL0     H64272   6.954   1.886   5.878 -0.3706 -2.2868  0.9272
  487MOL0     H64273   7.186   1.967   5.829 -0.6070  0.7241  0.5835
  487MOL0     H64274   7.291   2.021   5.395  0.4532  1.8172  0.7036
  487MOL0     H64275   7.373   1.859   5.418  3.3098  0.3915  0.7647
  487MOL0     H64276   7.502   2.088   5.368 -0.7591  1.8493  2.1527
  487MOL0     H64277   7.514   2.099   5.542  2.0003 -0.8080  0.7282
  487MOL0     H64278   7.706   1.968   5.416 -2.5613  2.2141 -2.1288
  487MOL0     H64279   7.584   1.842   5.403  1.0323 -0.8520 -0.5360
  487MOL0     H64280   7.567   1.841   5.663 -1.3865 -3.6275 -3.7267
  487MOL0     H64281   7.716   1.787   5.601 -0.2702  0.4297  0.6502
  487MOL0     H64282   7.867   2.092   5.816 -2.9618  2.8128  1.6192
  487MOL0     H64283   7.138   1.849   5.421  2.1999 -1.0990  1.0793
  487MOL0     H64284   6.939   1.730   5.476  5.1783 -3.5308 -0.5359
  488MOL0     O64285   8.565   5.833   5.408  0.0139 -0.7697 -0.2339
  488MOL0     C64286   8.542   5.926   5.485  0.2376 -0.4452  0.8424
  488MOL0     O64287   8.422   5.983   5.513  0.3958 -0.1921 -0.1618
  488MOL0     C64288   8.307   5.954   5.440 -0.5247  0.1756  0.8218
  488MOL0     C64289   8.310   5.920   5.304  0.2575 -0.5704  0.0898
  488MOL0     C64290   8.190   5.885   5.247 -0.5391 -0.0133 -0.5370
  488MOL0     C64291   8.069   5.880   5.321  1.1122  0.5597 -0.3085
  488MOL0     O64292   7.964   5.819   5.247 -0.0046 -0.2552 -0.3504
  488MOL0     C64293   7.836   5.863   5.293 -0.2972  0.0707  0.2484
  488MOL0     C64294   7.728   5.823   5.196  0.3873 -0.1891 -0.3850
  488MOL0     C64295   7.736   5.907   5.065 -0.4101  0.1662  0.8880
  488MOL0     C64296   7.638   5.847   4.961  0.0082  0.6870  1.2118
  488MOL0     C64297   7.650   5.929   4.830 -0.2861  0.5500 -0.1980
  488MOL0     C64298   7.790   5.931   4.774  0.4868 -0.2287  1.1257
  488MOL0     C64299   7.794   6.014   4.642 -0.0314 -0.4838 -0.7773
  488MOL0     C64300   7.751   5.929   4.526  0.1185 -0.1045 -0.0749
  488MOL0     N64301   7.689   6.023   4.423 -0.2364 -0.2849  0.0800
  488MOL0     C64302   7.567   5.989   4.377 -0.5516 -0.7170  0.7155
  488MOL0     C64303   7.563   6.025   4.252 -0.6630 -0.2779 -0.6404
  488MOL0     C64304   7.443   6.005   4.157 -0.6708  0.6024 -0.0994
  488MOL0     C64305   7.444   6.114   4.049  0.6225  0.2751 -0.1057
  488MOL0     C64306   7.344   6.083   3.941 -1.1162 -0.4618 -0.8500
  488MOL0     C64307   7.310   6.205   3.852 -0.3794  0.0771 -0.1806
  488MOL0     O64308   7.280   6.153   3.719 -0.3176  0.0101 -0.3108
  488MOL0     C64309   7.163   6.092   3.687  0.0977  0.2384 -0.0581
  488MOL0     C64310   7.151   6.058   3.555 -0.8150  0.0491 -0.4685
  488MOL0     C64311   7.041   5.988   3.512  0.4477  0.0714 -0.0900
  488MOL0     C64312   6.928   5.979   3.593  0.0248 -0.1698  0.0259
  488MOL0     C64313   6.816   5.901   3.540  0.5733  0.1982  0.1545
  488MOL0     O64314   6.704   5.882   3.624 -0.4721  0.2594 -0.6115
  488MOL0     C64315   6.603   5.801   3.574  0.4896 -0.6438 -0.6377
  488MOL0     C64316   6.584   5.680   3.635 -0.2575  0.4284  0.5084
  488MOL0     C64317   6.466   5.606   3.597 -0.5128 -0.6417  0.2932
  488MOL0     C64318   6.365   5.663   3.513 -1.0035 -0.8330 -0.2101
  488MOL0     O64319   6.256   5.586   3.484 -0.0187 -0.3792  0.1233
  488MOL0     C64320   6.218   5.557   3.347 -0.4905  0.2171 -0.3710
  488MOL0     C64321   6.311   5.441   3.293  1.5158  0.3298  0.0010
  488MOL0     C64322   6.264   5.408   3.148  0.1256 -0.3199 -0.5655
  488MOL0     C64323   6.285   5.513   3.047  0.1339  0.0010  0.6050
  488MOL0     C64324   6.155   5.577   2.997  0.5434 -0.5924 -0.3702
  488MOL0     C64325   6.173   5.685   2.891  0.6755  0.3943 -0.8145
  488MOL0     C64326   6.048   5.764   2.874  0.3547 -0.0410 -0.0987
  488MOL0     C64327   6.013   5.795   2.728  0.2920 -0.6762  0.9519
  488MOL0    Cl64328   5.871   5.912   2.732  0.5246 -0.3567  0.1991
  488MOL0     C64329   6.394   5.780   3.448 -0.2548  0.1680  0.2366
  488MOL0     C64330   6.517   5.851   3.471  0.5636  0.2261  0.0643
  488MOL0     O64331   6.824   5.864   3.427 -0.1996  0.4319  0.1068
  488MOL0     C64332   6.941   6.015   3.729  0.1869  0.4078 -0.0894
  488MOL0     C64333   7.054   6.085   3.772  0.7452  0.8992 -0.5288
  488MOL0     N64334   7.689   6.073   4.219  0.0665 -0.6323  0.0244
  488MOL0     N64335   7.770   6.059   4.318 -0.2220 -0.7098 -0.1998
  488MOL0     C64336   8.063   5.926   5.452 -0.3159 -0.9359 -0.7017
  488MOL0     C64337   8.189   5.968   5.505  0.4076 -0.0798  0.4760
  488MOL0     C64338   8.658   6.008   5.517 -0.2503  0.0580  0.0479
  488MOL0     C64339   8.783   5.945   5.539 -0.1307  0.7818  0.6828
  488MOL0     C64340   8.895   6.020   5.555 -0.3136 -0.9548 -0.1620
  488MOL0     C64341   8.897   6.157   5.562  0.1945  0.3469 -0.8374
  488MOL0     O64342   9.012   6.231   5.592  0.1293  0.3343 -0.4599
  488MOL0     C64343   9.138   6.172   5.607  0.3863  0.5636 -0.4316
  488MOL0     C64344   9.238   6.279   5.656 -0.3523 -0.1081  0.3441
  488MOL0     C64345   9.385   6.231   5.667 -0.3413  0.5013 -0.1572
  488MOL0     C64346   9.472   6.338   5.738  0.8213 -0.2502 -0.0519
  488MOL0     C64347   9.609   6.293   5.765 -1.8141  0.6012  0.7061
  488MOL0     C64348   9.725   6.252   5.763 -0.1574  0.3997  0.0819
  488MOL0     C64349   8.777   6.221   5.552  0.2435  0.5049  0.5913
  488MOL0     C64350   8.655   6.151   5.527 -0.1355 -0.4142 -0.4525
  488MOL0     H64351   8.403   5.912   5.249 -1.1006 -1.3156 -2.2437
  488MOL0     H64352   8.189   5.847   5.145 -1.5981 -0.0854 -0.5192
  488MOL0     H64353   7.833   5.972   5.292  0.8948  0.1809  2.5891
  488MOL0     H64354   7.813   5.821   5.391 -1.9290 -0.4220 -0.3107
  488MOL0     H64355   7.631   5.852   5.236 -0.7332 -2.8847 -0.9404
  488MOL0     H64356   7.736   5.716   5.172 -1.3902 -1.1633  2.8027
  488MOL0     H64357   7.837   5.909   5.024 -2.1165  0.5703 -3.8490
  488MOL0     H64358   7.708   6.010   5.085 -0.6467  0.5982 -1.4165
  488MOL0     H64359   7.677   5.748   4.939 -1.0252  0.2573  1.2227
  488MOL0     H64360   7.534   5.841   4.995  0.9131  1.1458  4.4142
  488MOL0     H64361   7.614   6.029   4.854  2.9090  1.6117  0.6923
  488MOL0     H64362   7.578   5.882   4.762 -0.5002 -0.6808  0.8587
  488MOL0     H64363   7.833   5.832   4.759 -0.1638 -0.2722 -0.7558
  488MOL0     H64364   7.859   5.979   4.843  1.0072  0.6892  0.0050
  488MOL0     H64365   7.729   6.101   4.657 -2.0915 -1.3100 -3.9179
  488MOL0     H64366   7.895   6.050   4.620  0.1591 -1.7311 -2.1137
  488MOL0     H64367   7.681   5.853   4.560  0.4722  0.3429  1.7182
  488MOL0     H64368   7.835   5.879   4.477  0.9343  1.8386 -0.8052
  488MOL0     H64369   7.493   5.940   4.439 -0.1667  0.6234  2.2869
  488MOL0     H64370   7.344   5.990   4.201 -1.0312 -1.9863 -1.5796
  488MOL0     H64371   7.462   5.907   4.113 -0.0805 -0.3272  2.1003
  488MOL0     H64372   7.544   6.114   4.005  0.1513 -0.7860 -1.2366
  488MOL0     H64373   7.406   6.212   4.083 -4.8990 -1.7657  0.6891
  488MOL0     H64374   7.387   6.004   3.878  2.2466 -0.3269  1.0032
  488MOL0     H64375   7.253   6.047   3.990 -3.0808  3.2733 -1.3821
  488MOL0     H64376   7.384   6.285   3.847  1.4809 -1.6299 -1.4447
  488MOL0     H64377   7.216   6.242   3.893  0.0659  2.9962 -1.4896
  488MOL0     H64378   7.227   6.083   3.481 -2.3666 -1.0554 -2.5681
  488MOL0     H64379   7.042   5.952   3.410  0.2955 -0.5974  0.1418
  488MOL0     H64380   6.667   5.652   3.699  0.5579  1.9118  0.1271
  488MOL0     H64381   6.454   5.506   3.639  0.3604  0.7384  4.1914
  488MOL0     H64382   6.231   5.644   3.283  1.1634 -0.1160 -0.5176
  488MOL0     H64383   6.115   5.520   3.349 -0.7905  1.0616  0.4007
  488MOL0     H64384   6.306   5.355   3.361  0.5983  0.8375  0.5921
  488MOL0     H64385   6.419   5.459   3.287  1.7204 -1.0241 -0.6923
  488MOL0     H64386   6.159   5.377   3.155  0.4172 -1.7021 -1.8455
  488MOL0     H64387   6.311   5.319   3.104  0.3618  0.9692 -3.0798
  488MOL0     H64388   6.351   5.590   3.088 -0.7227  0.1245  1.8125
  488MOL0     H64389   6.331   5.472   2.956  2.4209  0.6391  1.4113
  488MOL0     H64390   6.104   5.617   3.085  2.5492 -0.6720  0.8999
  488MOL0     H64391   6.098   5.492   2.958  2.3023 -1.0078 -2.2290
  488MOL0     H64392   6.203   5.641   2.795 -0.1815 -0.7186 -0.5979
  488MOL0     H64393   6.256   5.750   2.919 -0.9367  1.3629  2.2051
  488MOL0     H64394   5.965   5.706   2.914  0.1397 -0.9398 -1.7573
  488MOL0     H64395   6.062   5.862   2.921 -0.9793  0.4396 -0.6557
  488MOL0     H64396   5.983   5.709   2.667 -0.2202 -0.7080  1.2451
  488MOL0     H64397   6.102   5.832   2.675 -1.5926  1.5384 -0.8681
  488MOL0     H64398   6.332   5.801   3.362 -1.2331 -2.1935  0.2970
  488MOL0     H64399   6.535   5.946   3.422  0.1752  0.2917  0.0475
  488MOL0     H64400   6.860   5.988   3.797 -1.1023 -1.3399 -2.1809
  488MOL0     H64401   7.053   6.104   3.878  3.0732  0.6140 -0.3880
  488MOL0     H64402   7.968   5.939   5.503 -1.0643 -4.2804 -1.0187
  488MOL0     H64403   8.177   5.998   5.608  1.1340 -0.3772  0.6488
  488MOL0     H64404   8.793   5.837   5.535  0.0772  0.7812  1.1554
  488MOL0     H64405   8.984   5.963   5.582 -0.4875 -2.2323 -2.1657
  488MOL0     H64406   9.159   6.126   5.510 -2.0504 -2.4212  0.3149
  488MOL0     H64407   9.139   6.091   5.681  0.1339  0.9665  0.0235
  488MOL0     H64408   9.241   6.361   5.583 -0.7465  1.8548  2.4401
  488MOL0     H64409   9.211   6.320   5.754  2.8349 -0.6954  1.6023
  488MOL0     H64410   9.415   6.229   5.562 -1.5909  4.9168 -0.8294
  488MOL0     H64411   9.389   6.135   5.719  0.3946 -0.8878 -2.5942
  488MOL0     H64412   9.479   6.423   5.670  0.7913  0.1564  0.4469
  488MOL0     H64413   9.437   6.370   5.836  0.8865  1.1888 -0.4864
  488MOL0     H64414   9.821   6.206   5.757  0.1555  1.0407  0.0410
  488MOL0     H64415   8.767   6.329   5.562 -0.1983  0.6804 -1.3397
  488MOL0     H64416   8.567   6.213   5.515 -0.7132 -1.0720  0.2354
  489MOL0     O64417   0.362  10.903   8.829  0.4838  0.2696  0.0938
  489MOL0     C64418   0.460  10.927   8.903 -0.3370  0.2356  0.0815
  489MOL0     O64419   0.449  10.979   9.026 -0.1117  0.2896  0.5474
  489MOL0     C64420   0.321  10.987   9.087  0.7377  0.1087  0.1826
  489MOL0     C64421   0.213  11.048   9.023 -0.7056 -0.1722 -0.7336
  489MOL0     C64422   0.088  11.061   9.083  0.6871  0.4844  0.6915
  489MOL0     C64423   0.080  11.023   9.217  0.0514  0.2216  0.3551
  489MOL0     O64424  -0.032  11.033   9.293  0.8851 -0.6224  0.3235
  489MOL0     C64425  -0.137  11.125   9.257 -0.2160  0.3163  0.2686
  489MOL0     C64426  -0.249  11.127   9.369  0.7878 -0.7440  0.6628
  489MOL0     C64427  -0.198  11.150   9.499 -0.0276  0.2628 -1.4241
  489MOL0     C64428  -0.303  11.218   9.591  0.9016 -0.1991 -0.4596
  489MOL0     C64429  -0.401  11.115   9.659  0.1256 -0.1978 -0.2780
  489MOL0     C64430  -0.348  11.035   9.779 -0.4612 -0.6441  0.6216
  489MOL0     C64431  -0.458  10.952   9.850 -0.2538  0.5072  0.0006
  489MOL0     C64432  -0.411  10.897   9.976 -0.0843  0.7198 -0.1946
  489MOL0     N64433  -0.444  11.000  10.065  0.4765  0.1579 -0.0808
  489MOL0     C64434  -0.520  10.988  10.183 -1.3338 -0.1346  0.6823
  489MOL0     C64435  -0.518  11.105  10.255 -0.3631 -0.3186 -0.8388
  489MOL0     C64436  -0.598  11.132  10.377  0.1610 -0.4218 -0.6868
  489MOL0     C64437  -0.658  11.001  10.447 -0.2844 -0.7799  0.5810
  489MOL0     C64438  -0.713  11.043  10.588 -0.3166  0.1966 -0.3190
  489MOL0     C64439  -0.829  10.958  10.634 -0.6882  0.7405 -0.1799
  489MOL0     O64440  -0.956  11.010  10.590  0.5417 -0.8542 -0.2990
  489MOL0     C64441  -1.059  10.985  10.678 -0.2722  1.2592  0.2294
  489MOL0     C64442  -1.153  11.083  10.679  0.2398 -0.1431  0.2347
  489MOL0     C64443  -1.271  11.064  10.756 -0.8584  0.3289  0.7671
  489MOL0     C64444  -1.292  10.951  10.839  0.6159 -0.4972 -0.0805
  489MOL0     C64445  -1.419  10.930  10.927 -0.0583 -0.1660  0.6465
  489MOL0     O64446  -1.411  10.828  11.008 -0.0051 -0.2983  0.0189
  489MOL0     C64447  -1.520  10.797  11.079  0.0825  0.4567 -0.2664
  489MOL0     C64448  -1.580  10.895  11.171 -0.2583  0.0290  0.5851
  489MOL0     C64449  -1.703  10.880  11.227  1.4452 -0.6413  0.4143
  489MOL0     C64450  -1.774  10.758  11.206  0.1718 -0.0149  0.4519
  489MOL0     O64451  -1.903  10.733  11.262 -0.0292  0.0884  0.4319
  489MOL0     C64452  -1.982  10.844  11.303 -0.4039 -0.4175 -0.9327
  489MOL0     C64453  -2.088  10.790  11.397 -0.7623 -0.2590  0.0687
  489MOL0     C64454  -2.175  10.901  11.457 -0.2690 -0.2556  0.4021
  489MOL0     C64455  -2.305  10.843  11.515 -0.8516 -0.4179 -0.4829
  489MOL0     C64456  -2.420  10.939  11.517  0.3658 -0.3264 -0.0043
  489MOL0     C64457  -2.549  10.873  11.563  0.4808 -0.3325 -0.2599
  489MOL0     C64458  -2.642  10.976  11.621  0.4774 -0.4452  0.0407
  489MOL0     C64459  -2.784  10.924  11.662  0.1483 -0.0684  0.1937
  489MOL0    Cl64460  -2.871  10.826  11.537 -0.3290  0.1129 -0.2870
  489MOL0     C64461  -1.718  10.665  11.115  0.2243 -0.3411  0.2511
  489MOL0     C64462  -1.592  10.678  11.057  0.4217 -0.6122 -0.5570
  489MOL0     O64463  -1.520  11.008  10.919  0.3866  0.3529 -0.2766
  489MOL0     C64464  -1.192  10.850  10.836  0.0286 -0.5271 -0.5972
  489MOL0     C64465  -1.079  10.868  10.755 -0.1637 -0.0285 -0.1692
  489MOL0     N64466  -0.436  11.190  10.187 -0.7007  0.3737  0.9284
  489MOL0     N64467  -0.394  11.128  10.078 -0.2967 -0.6771  0.0811
  489MOL0     C64468   0.187  10.957   9.278  0.0694 -0.0252 -0.6564
  489MOL0     C64469   0.314  10.941   9.217  0.2676  0.6781 -0.1041
  489MOL0     C64470   0.598  10.916   8.845 -0.3904  0.1375  0.2035
  489MOL0     C64471   0.712  10.955   8.912  0.9119 -1.1378  0.1967
  489MOL0     C64472   0.833  10.937   8.853  0.0533 -0.3628  0.1274
  489MOL0     C64473   0.853  10.887   8.723  0.4979  0.5176  0.0580
  489MOL0     O64474   0.969  10.907   8.652  0.8240 -0.0651  0.0849
  489MOL0     C64475   1.045  11.028   8.684 -0.3041 -0.6407 -0.5508
  489MOL0     C64476   1.172  11.037   8.605  0.2546  0.0259 -0.8738
  489MOL0     C64477   1.244  11.167   8.631  0.9696  0.0302 -0.2746
  489MOL0     C64478   1.390  11.162   8.596 -0.3229  0.0046 -0.9019
  489MOL0     C64479   1.453  11.082   8.703  0.0006 -0.3455  0.6177
  489MOL0     C64480   1.489  11.003   8.790 -0.3955 -1.4803 -0.4306
  489MOL0     C64481   0.737  10.844   8.657  0.1957  0.2296  0.6917
  489MOL0     C64482   0.616  10.844   8.719  0.3571 -0.0033 -0.1546
  489MOL0     H64483   0.221  11.094   8.924 -1.1856  0.2422 -0.5815
  489MOL0     H64484   0.005  11.094   9.021  0.4935 -1.3324 -0.0862
  489MOL0     H64485  -0.170  11.089   9.158  1.0948  0.5534 -0.2668
  489MOL0     H64486  -0.095  11.224   9.243  0.5457  0.3318  2.3527
  489MOL0     H64487  -0.311  11.037   9.379 -2.1665  1.3968  3.3344
  489MOL0     H64488  -0.323  11.204   9.347  0.4419 -1.2189  0.1365
  489MOL0     H64489  -0.116  11.223   9.496 -0.5537  0.9574  0.1875
  489MOL0     H64490  -0.142  11.066   9.540  0.4428  0.8971 -0.7381
  489MOL0     H64491  -0.257  11.277   9.671 -1.0412 -0.1059  0.6519
  489MOL0     H64492  -0.364  11.296   9.545 -0.3985 -0.7361  0.3143
  489MOL0     H64493  -0.437  11.040   9.588 -0.8997 -2.2380  2.2101
  489MOL0     H64494  -0.474  11.184   9.704  2.8048  1.1233  2.3849
  489MOL0     H64495  -0.301  11.103   9.851 -2.6189  1.3240  0.2727
  489MOL0     H64496  -0.260  10.985   9.736 -0.8464  0.9702 -2.3394
  489MOL0     H64497  -0.550  11.010   9.860  0.3903  1.8766 -1.6581
  489MOL0     H64498  -0.495  10.879   9.777 -1.8804  2.7732 -1.5638
  489MOL0     H64499  -0.302  10.886   9.971 -0.0825 -0.6575  1.8838
  489MOL0     H64500  -0.451  10.800  10.007  2.0143  0.6483  2.7057
  489MOL0     H64501  -0.564  10.897  10.223  0.2060 -1.2113 -0.0013
  489MOL0     H64502  -0.677  11.201  10.346 -0.9585 -1.3224  0.0629
  489MOL0     H64503  -0.540  11.193  10.447 -0.3934  2.2314 -2.3890
  489MOL0     H64504  -0.587  10.918  10.453  1.1669  0.4543  1.0819
  489MOL0     H64505  -0.739  10.971  10.379  2.4087  0.7699 -3.7331
  489MOL0     H64506  -0.637  11.031  10.666 -3.9501 -3.2478  3.2427
  489MOL0     H64507  -0.745  11.146  10.570 -2.1064  0.1810  2.1520
  489MOL0     H64508  -0.825  10.962  10.743 -4.4488  0.2052  0.1137
  489MOL0     H64509  -0.806  10.855  10.607 -0.2990  0.2040  2.0405
  489MOL0     H64510  -1.174  11.171  10.618 -4.2846  0.0183  1.6699
  489MOL0     H64511  -1.337  11.150  10.747  1.0523  2.1958  3.1776
  489MOL0     H64512  -1.530  10.991  11.185  0.2145 -0.2650  0.9549
  489MOL0     H64513  -1.744  10.964  11.283  1.9510  0.2366 -0.4817
  489MOL0     H64514  -2.032  10.882  11.213 -0.1766 -0.0421 -0.9020
  489MOL0     H64515  -1.930  10.925  11.355 -3.8756  1.1395  0.4309
  489MOL0     H64516  -2.033  10.753  11.485 -0.9806 -2.1157 -0.5519
  489MOL0     H64517  -2.155  10.713  11.359 -1.8056  0.6063  0.0984
  489MOL0     H64518  -2.197  10.967  11.373  1.5377 -1.5273 -1.1389
  489MOL0     H64519  -2.118  10.947  11.538  1.2576 -0.6751 -0.4067
  489MOL0     H64520  -2.330  10.756  11.453 -0.1332 -0.9075 -0.1086
  489MOL0     H64521  -2.290  10.811  11.619 -2.8659  1.5581  0.5113
  489MOL0     H64522  -2.424  10.974  11.413  1.1988  1.7385  0.6065
  489MOL0     H64523  -2.401  11.021  11.586 -1.6227 -2.5576  3.4455
  489MOL0     H64524  -2.518  10.804  11.642  1.8933  2.1598  1.5065
  489MOL0     H64525  -2.590  10.817  11.479  0.6404 -1.6717  0.5236
  489MOL0     H64526  -2.606  11.031  11.707  1.6246  4.4082 -3.1438
  489MOL0     H64527  -2.661  11.053  11.545 -0.3714 -1.3796 -0.7455
  489MOL0     H64528  -2.844  11.014  11.677 -2.7955 -1.3128 -2.7739
  489MOL0     H64529  -2.766  10.868  11.754  1.7454  0.4458  0.2364
  489MOL0     H64530  -1.769  10.570  11.099 -1.3818  0.7666 -1.5388
  489MOL0     H64531  -1.564  10.589  11.002  0.5092 -0.5314 -0.6415
  489MOL0     H64532  -1.205  10.759  10.894 -3.0175 -1.3274 -2.2954
  489MOL0     H64533  -1.005  10.790  10.745  1.6484  1.6169 -0.2225
  489MOL0     H64534   0.164  10.916   9.375  1.2095 -0.2423 -0.4665
  489MOL0     H64535   0.399  10.890   9.259  1.2455 -0.1744 -2.8708
  489MOL0     H64536   0.709  10.997   9.012  2.5083 -0.8202  0.1436
  489MOL0     H64537   0.919  10.982   8.901 -0.1247 -1.5026  1.6093
  489MOL0     H64538   1.082  11.042   8.786  1.1908  0.2909 -1.1893
  489MOL0     H64539   0.987  11.120   8.666  0.8368  0.5121  1.3024
  489MOL0     H64540   1.244  10.956   8.620  0.8262  0.4302 -1.3905
  489MOL0     H64541   1.152  11.035   8.497  3.0871  2.3413 -1.5704
  489MOL0     H64542   1.239  11.212   8.731  0.3441 -2.4434  0.8956
  489MOL0     H64543   1.208  11.243   8.561  4.7352  1.6939 -0.6874
  489MOL0     H64544   1.420  11.130   8.496  1.2339  0.6958 -0.6872
  489MOL0     H64545   1.413  11.268   8.614 -1.2674 -0.0937  1.1446
  489MOL0     H64546   1.515  10.940   8.873 -1.8389  0.5299  1.6897
  489MOL0     H64547   0.749  10.800   8.558 -1.7910  2.4164 -0.5905
  489MOL0     H64548   0.526  10.804   8.674 -1.5049  1.7309  1.7934
  490MOL0     O64549  10.292   6.700   7.502  0.0412 -0.0708  0.4639
  490MOL0     C64550  10.283   6.647   7.387 -0.4891 -0.5859 -0.4391
  490MOL0     O64551  10.171   6.611   7.328  0.2042  0.4879 -0.0668
  490MOL0     C64552  10.055   6.611   7.405 -0.3293  0.7765  0.2192
  490MOL0     C64553  10.046   6.560   7.530 -0.0206  0.3416 -0.2202
  490MOL0     C64554   9.926   6.556   7.598  0.5890 -0.8375  0.3956
  490MOL0     C64555   9.809   6.599   7.535 -0.0212 -0.1939  0.5525
  490MOL0     O64556   9.697   6.576   7.603  0.4476 -0.0500 -0.0626
  490MOL0     C64557   9.569   6.602   7.546 -0.8994  0.4602 -0.0299
  490MOL0     C64558   9.482   6.570   7.659  0.2133 -0.5348 -0.9096
  490MOL0     C64559   9.344   6.628   7.637  1.0085  0.1542  0.1954
  490MOL0     C64560   9.235   6.554   7.714 -0.9583  0.2177  1.4113
  490MOL0     C64561   9.101   6.616   7.687 -0.6880 -0.9105 -0.1274
  490MOL0     C64562   8.995   6.532   7.753 -0.3115 -0.2451 -0.4200
  490MOL0     C64563   8.851   6.577   7.731  0.2355 -0.2152  0.5798
  490MOL0     C64564   8.819   6.716   7.798  0.7572  0.2462 -0.0035
  490MOL0     N64565   8.688   6.779   7.763 -1.1102  0.0707 -1.0584
  490MOL0     C64566   8.632   6.772   7.645  0.7724  0.2686  0.0381
  490MOL0     C64567   8.518   6.849   7.664 -0.1890  0.2226  0.7288
  490MOL0     C64568   8.417   6.881   7.563  0.9372  0.0016  0.5175
  490MOL0     C64569   8.278   6.863   7.621 -0.0802  0.5432  0.5225
  490MOL0     C64570   8.170   6.843   7.515 -0.2789  0.1100 -0.2130
  490MOL0     C64571   8.156   6.706   7.458 -0.1170 -0.2749  0.5864
  490MOL0     O64572   8.075   6.699   7.339  0.5002 -0.2519  0.2690
  490MOL0     C64573   7.928   6.698   7.358 -0.6470  0.4019  0.3044
  490MOL0     C64574   7.851   6.697   7.475  0.1545  0.5610  0.2622
  490MOL0     C64575   7.712   6.695   7.466 -0.6850  0.1522  0.0682
  490MOL0     C64576   7.651   6.702   7.343  0.6135  1.4005 -0.0961
  490MOL0     C64577   7.503   6.721   7.338 -0.5013  0.4012 -0.2243
  490MOL0     O64578   7.434   6.778   7.445  0.2951 -0.6078  0.2813
  490MOL0     C64579   7.297   6.797   7.437 -0.6876  0.2129  0.3894
  490MOL0     C64580   7.248   6.930   7.426 -0.1222  0.0241  0.4068
  490MOL0     C64581   7.117   6.945   7.416 -0.1735 -0.8340  0.1499
  490MOL0     C64582   7.027   6.833   7.402 -0.1145 -0.3484  0.2421
  490MOL0     O64583   6.894   6.849   7.388  0.3670 -0.0492  0.3824
  490MOL0     C64584   6.842   6.982   7.375  0.4184  0.3124  1.4341
  490MOL0     C64585   6.691   6.980   7.326 -0.5401 -0.2523  0.5337
  490MOL0     C64586   6.636   7.121   7.333  0.7120  1.0992 -0.2389
  490MOL0     C64587   6.493   7.120   7.286 -0.0451  0.5303 -0.0989
  490MOL0     C64588   6.446   7.259   7.270 -0.4114  0.5376 -0.6287
  490MOL0     C64589   6.298   7.257   7.243 -0.0401  0.9518  0.0571
  490MOL0     C64590   6.252   7.388   7.178 -1.1375 -0.2461 -1.1339
  490MOL0     C64591   6.111   7.387   7.128  0.3814 -0.0464  0.1205
  490MOL0    Cl64592   5.989   7.330   7.244  0.0205  0.0058  0.4587
  490MOL0     C64593   7.080   6.703   7.400 -0.2966 -0.3167 -0.5705
  490MOL0     C64594   7.216   6.681   7.412  0.7497 -0.1872 -0.1504
  490MOL0     O64595   7.457   6.703   7.231  0.0464 -0.3531  0.2680
  490MOL0     C64596   7.723   6.701   7.221 -1.0133 -0.0866 -0.7043
  490MOL0     C64597   7.866   6.696   7.225 -0.1814  0.0090 -0.4815
  490MOL0     N64598   8.517   6.903   7.791  0.2578 -0.0160  0.3135
  490MOL0     N64599   8.617   6.853   7.857  0.5484 -0.6689  0.1277
  490MOL0     C64600   9.821   6.649   7.410 -0.4260  0.1209 -0.5151
  490MOL0     C64601   9.940   6.655   7.343 -0.0881 -0.9425 -0.1328
  490MOL0     C64602  10.406   6.639   7.308 -0.2151  0.5239 -0.1201
  490MOL0     C64603  10.410   6.574   7.187  0.0429  0.5423 -0.0856
  490MOL0     C64604  10.537   6.562   7.125  0.1874 -0.3485 -0.0309
  490MOL0     C64605  10.663   6.590   7.177 -0.3510 -0.5938 -0.6340
  490MOL0     O64606  10.783   6.567   7.118 -0.1177 -0.4690 -0.7942
  490MOL0     C64607  10.792   6.523   6.981  0.2761  0.0011  0.4350
  490MOL0     C64608  10.936   6.507   6.944  0.0280 -0.7054  0.0096
  490MOL0     C64609  10.983   6.655   6.899 -0.4301 -0.0233 -0.5104
  490MOL0     C64610  11.128   6.668   6.867 -0.9919 -0.4053  0.3975
  490MOL0     C64611  11.221   6.619   6.974  0.7098  0.5096 -0.2576
  490MOL0     C64612  11.287   6.559   7.055 -0.9136 -0.0502  0.6514
  490MOL0     C64613  10.654   6.662   7.297  0.6759  0.6651 -0.2448
  490MOL0     C64614  10.531   6.689   7.357  0.3721 -0.3356  0.4516
  490MOL0     H64615  10.140   6.534   7.579  0.7620 -2.1562 -2.7689
  490MOL0     H64616   9.920   6.509   7.695  1.2833 -0.0603  0.8377
  490MOL0     H64617   9.544   6.541   7.460 -1.5820 -1.9009  1.7429
  490MOL0     H64618   9.560   6.708   7.520  0.2171  0.2614 -1.3187
  490MOL0     H64619   9.528   6.601   7.753  0.6879 -1.1507 -0.9303
  490MOL0     H64620   9.471   6.461   7.667 -0.5218 -0.5240 -1.6610
  490MOL0     H64621   9.319   6.632   7.530  0.4447 -1.3697  0.2336
  490MOL0     H64622   9.336   6.734   7.661 -3.6274 -0.3236  1.7365
  490MOL0     H64623   9.238   6.452   7.673 -1.4804  1.2550 -1.4787
  490MOL0     H64624   9.264   6.573   7.817  1.3655 -0.5102  0.9461
  490MOL0     H64625   9.085   6.624   7.580 -3.2827 -0.2144  0.2497
  490MOL0     H64626   9.101   6.717   7.729  0.5605 -0.4944 -1.0643
  490MOL0     H64627   9.024   6.522   7.859  0.0305  1.2392 -0.3500
  490MOL0     H64628   8.991   6.432   7.708  0.2481 -0.7506  0.6091
  490MOL0     H64629   8.833   6.593   7.624 -0.6697  0.5927  0.8335
  490MOL0     H64630   8.780   6.499   7.759  1.3253 -1.1640  0.7588
  490MOL0     H64631   8.888   6.795   7.768  1.4325 -0.4678 -0.3638
  490MOL0     H64632   8.814   6.703   7.906 -0.6799 -0.8839 -0.1600
  490MOL0     H64633   8.677   6.720   7.561  0.5200 -1.3571  0.8746
  490MOL0     H64634   8.441   6.820   7.476  1.7959  0.7959  0.1720
  490MOL0     H64635   8.432   6.985   7.533 -1.6978  0.8733  1.8873
  490MOL0     H64636   8.254   6.957   7.670  2.1316  2.0982 -1.1584
  490MOL0     H64637   8.279   6.783   7.696  1.2851  0.5715  0.5602
  490MOL0     H64638   8.076   6.881   7.556 -1.5416  2.4741 -4.6086
  490MOL0     H64639   8.185   6.922   7.440 -1.2578  2.6113  2.0348
  490MOL0     H64640   8.137   6.625   7.529  5.3425 -0.2865  2.4925
  490MOL0     H64641   8.256   6.685   7.419  0.6972  0.6409  2.0819
  490MOL0     H64642   7.895   6.698   7.575 -1.9949  1.1382  1.2468
  490MOL0     H64643   7.653   6.702   7.557 -0.8060 -2.4657  0.2629
  490MOL0     H64644   7.321   7.009   7.440  0.6967 -0.6856  0.2564
  490MOL0     H64645   7.089   7.050   7.424  0.7019 -0.5991  0.3184
  490MOL0     H64646   6.899   7.037   7.299 -2.3095  2.1557  0.5615
  490MOL0     H64647   6.849   7.033   7.471  0.6315  3.3496 -0.0593
  490MOL0     H64648   6.632   6.923   7.398  2.1470 -0.6153  2.6139
  490MOL0     H64649   6.683   6.932   7.228  3.3055  1.8175 -1.0314
  490MOL0     H64650   6.682   7.193   7.265 -1.1374  1.0212 -1.6639
  490MOL0     H64651   6.647   7.144   7.439  1.3687 -1.3009  0.2862
  490MOL0     H64652   6.484   7.076   7.187 -0.6018  0.5498 -0.0594
  490MOL0     H64653   6.424   7.075   7.358  0.8440 -1.6355 -0.5347
  490MOL0     H64654   6.496   7.302   7.182  0.5083  0.5186 -0.1248
  490MOL0     H64655   6.458   7.319   7.361 -2.6386 -1.6416  1.2105
  490MOL0     H64656   6.249   7.232   7.338 -2.1692 -2.0963 -1.6747
  490MOL0     H64657   6.275   7.179   7.171  0.8608 -0.4241  1.2139
  490MOL0     H64658   6.267   7.467   7.252  1.7333  0.3738 -2.2731
  490MOL0     H64659   6.309   7.413   7.088 -1.3678  0.0863 -1.1943
  490MOL0     H64660   6.105   7.314   7.046 -2.6340  1.2656 -0.9652
  490MOL0     H64661   6.085   7.488   7.097 -3.4671 -0.6083  1.0004
  490MOL0     H64662   7.015   6.616   7.403  0.5402 -1.0195  3.4613
  490MOL0     H64663   7.264   6.585   7.398  2.2364  0.3102  1.1880
  490MOL0     H64664   7.672   6.729   7.129  0.9068  0.3514 -1.6808
  490MOL0     H64665   7.931   6.701   7.138 -0.8838  1.6515 -0.9485
  490MOL0     H64666   9.738   6.700   7.363 -0.7450  1.0397  0.9892
  490MOL0     H64667   9.949   6.700   7.245  0.1856  0.4194  0.4902
  490MOL0     H64668  10.323   6.527   7.142  0.0651  0.0096  0.4158
  490MOL0     H64669  10.541   6.496   7.039 -2.1240 -0.9722  0.2704
  490MOL0     H64670  10.750   6.586   6.901  0.1438  0.8087  1.1215
  490MOL0     H64671  10.750   6.422   6.984  0.8757 -0.2186  2.1053
  490MOL0     H64672  11.008   6.478   7.021  1.8064  3.7201  0.3321
  490MOL0     H64673  10.946   6.431   6.867  1.1808 -2.1985  1.5679
  490MOL0     H64674  10.950   6.716   6.984 -0.7721  2.6418 -2.4014
  490MOL0     H64675  10.920   6.701   6.822 -0.2203  0.6728 -0.2762
  490MOL0     H64676  11.150   6.598   6.785 -1.1528  1.5214 -1.3866
  490MOL0     H64677  11.157   6.765   6.826  0.7041 -1.1739 -0.3053
  490MOL0     H64678  11.342   6.522   7.139 -2.3331  1.8359  2.5066
  490MOL0     H64679  10.745   6.699   7.344  1.4492 -1.6438  0.1917
  490MOL0     H64680  10.523   6.751   7.446 -0.8812  1.4200 -0.8179
  491MOL0     O64681  10.868   0.179   9.118 -0.3749  0.2216  0.2515
  491MOL0     C64682  10.872   0.137   9.003 -0.7416 -0.0167  0.0548
  491MOL0     O64683  10.762   0.116   8.924 -0.2991 -1.4110 -0.1795
  491MOL0     C64684  10.641   0.118   8.986  0.4428  0.0844 -0.0496
  491MOL0     C64685  10.566  -0.004   8.995  0.1399 -0.7025  0.0736
  491MOL0     C64686  10.440  -0.009   9.053  0.2291  0.3499 -0.0655
  491MOL0     C64687  10.374   0.107   9.112 -0.5177  0.0156 -0.6722
  491MOL0     O64688  10.264   0.116   9.188 -0.6526 -0.2286  0.1761
  491MOL0     C64689  10.186  -0.001   9.196 -0.2467 -0.3326  1.2358
  491MOL0     C64690  10.046   0.033   9.241 -0.0981 -0.2501  0.7695
  491MOL0     C64691  10.047   0.112   9.369  0.1768  0.4166 -0.2748
  491MOL0     C64692   9.909   0.144   9.429  0.2828  0.1388 -0.3060
  491MOL0     C64693   9.905   0.239   9.552  0.4581  0.0859  0.1749
  491MOL0     C64694   9.991   0.189   9.667  0.3113 -0.0202  0.1392
  491MOL0     C64695  10.005   0.311   9.757 -1.1219 -0.6950 -0.0324
  491MOL0     C64696  10.003   0.265   9.904  0.6091 -0.4760  0.5326
  491MOL0     N64697  10.124   0.196   9.936 -0.1885 -0.2508  0.0519
  491MOL0     C64698  10.225   0.238  10.011  0.5484 -0.4431 -0.4251
  491MOL0     C64699  10.320   0.134  10.029 -0.0506 -0.0476 -0.2369
  491MOL0     C64700  10.460   0.143  10.089  0.2492 -0.1014  0.6646
  491MOL0     C64701  10.574   0.183   9.996 -0.4728 -0.3446 -0.6634
  491MOL0     C64702  10.579   0.132   9.857  0.1464  1.1873  0.4734
  491MOL0     C64703  10.469   0.188   9.768  0.3681 -0.6932  0.2930
  491MOL0     O64704  10.505   0.188   9.632 -0.3127  0.1494  0.5306
  491MOL0     C64705  10.509   0.071   9.558 -0.0305  0.0596  0.4416
  491MOL0     C64706  10.595   0.062   9.446  0.3372  0.4938 -0.0356
  491MOL0     C64707  10.584  -0.039   9.362 -0.5647  0.6441  0.3283
  491MOL0     C64708  10.497  -0.147   9.386  0.5956 -0.5859  0.0564
  491MOL0     C64709  10.485  -0.254   9.290  1.3165  0.9211 -0.3898
  491MOL0     O64710  10.385  -0.348   9.301  0.0688 -0.3851 -0.2488
  491MOL0     C64711  10.357  -0.434   9.201  0.0756  0.4013  0.9663
  491MOL0     C64712  10.236  -0.415   9.136  0.6640  0.6169  0.2530
  491MOL0     C64713  10.205  -0.497   9.022  0.6617  0.3409 -0.5917
  491MOL0     C64714  10.283  -0.601   8.983 -0.1506 -0.6250 -0.5812
  491MOL0     O64715  10.255  -0.695   8.889 -0.1883 -0.1723  0.1914
  491MOL0     C64716  10.165  -0.672   8.781 -0.4556  0.0234 -0.0977
  491MOL0     C64717  10.179  -0.776   8.677 -0.4525 -0.6538  0.4253
  491MOL0     C64718  10.294  -0.724   8.586  0.7456 -0.2677 -0.0963
  491MOL0     C64719  10.341  -0.837   8.498 -0.4967  0.1980 -0.6606
  491MOL0     C64720  10.447  -0.789   8.414  0.1456  0.0388  0.4675
  491MOL0     C64721  10.583  -0.823   8.474 -0.8038 -1.6225  0.0425
  491MOL0     C64722  10.695  -0.748   8.400 -0.6205  0.0532  0.1352
  491MOL0     C64723  10.708  -0.775   8.247  0.2630  0.2366  0.2905
  491MOL0    Cl64724  10.770  -0.948   8.226 -0.0587 -0.4553  0.6124
  491MOL0     C64725  10.404  -0.612   9.048 -0.2871  0.7080 -0.4230
  491MOL0     C64726  10.444  -0.529   9.156  0.6834  0.4799 -0.0717
  491MOL0     O64727  10.573  -0.263   9.207  0.2886 -0.4238  0.0589
  491MOL0     C64728  10.413  -0.136   9.488  0.8691 -0.3366 -0.0870
  491MOL0     C64729  10.415  -0.027   9.578  0.0015  0.0152  0.9925
  491MOL0     N64730  10.256   0.022   9.967  0.1676 -0.0046  0.4987
  491MOL0     N64731  10.142   0.058   9.920  0.1514 -0.8937 -0.5545
  491MOL0     C64732  10.454   0.229   9.096 -0.5533  0.6578  0.7529
  491MOL0     C64733  10.582   0.233   9.028 -0.4308  0.2920 -0.0408
  491MOL0     C64734  11.005   0.118   8.946 -0.7652 -0.1091 -0.5844
  491MOL0     C64735  11.123   0.165   9.015 -0.6243 -0.0912 -0.3052
  491MOL0     C64736  11.252   0.159   8.963  0.8692 -0.4479 -0.0285
  491MOL0     C64737  11.254   0.108   8.834 -1.0697 -0.3021  0.8110
  491MOL0     O64738  11.375   0.099   8.761  0.4384 -1.3217  0.1276
  491MOL0     C64739  11.486   0.187   8.808  0.7942  0.9555 -0.5120
  491MOL0     C64740  11.594   0.178   8.704 -0.3260  0.8661  0.1614
  491MOL0     C64741  11.734   0.215   8.756 -0.4651  0.0793  0.2717
  491MOL0     C64742  11.839   0.193   8.641 -0.1599 -0.3247 -0.6003
  491MOL0     C64743  11.976   0.189   8.686 -0.2246 -0.4557 -0.9077
  491MOL0     C64744  12.095   0.190   8.705  0.4207  0.5012  0.2103
  491MOL0     C64745  11.138   0.059   8.760 -0.2686 -0.9800 -0.7579
  491MOL0     C64746  11.016   0.062   8.822  0.3703  0.1487  0.4145
  491MOL0     H64747  10.626  -0.087   8.959  0.6607  0.3486 -1.6325
  491MOL0     H64748  10.387  -0.104   9.050 -1.2309  0.9892  2.2947
  491MOL0     H64749  10.230  -0.072   9.267  1.0100 -0.4750  0.3513
  491MOL0     H64750  10.182  -0.046   9.096 -0.1251  2.9846 -0.3704
  491MOL0     H64751   9.985  -0.056   9.261  2.8005 -2.3772  0.7523
  491MOL0     H64752   9.998   0.088   9.160 -1.5240 -0.7400  1.2579
  491MOL0     H64753  10.103   0.204   9.349  1.9009 -0.4082  0.5478
  491MOL0     H64754  10.109   0.061   9.443 -1.8234  0.1352  1.3231
  491MOL0     H64755   9.856   0.203   9.352  3.0390  0.5009 -2.0566
  491MOL0     H64756   9.845   0.061   9.461  1.1153  0.9670  4.0451
  491MOL0     H64757   9.803   0.261   9.586  1.2831  3.8345  0.5828
  491MOL0     H64758   9.953   0.329   9.515 -0.2459  0.3102 -0.2125
  491MOL0     H64759  10.091   0.150   9.645  1.0587  2.0351 -0.3288
  491MOL0     H64760   9.945   0.099   9.708  1.0839 -0.4784  0.0153
  491MOL0     H64761  10.099   0.359   9.731 -0.8621 -1.8007 -1.2403
  491MOL0     H64762   9.925   0.385   9.743  1.7323  2.3750 -1.3492
  491MOL0     H64763   9.923   0.191   9.908  0.5463 -0.4406  0.0034
  491MOL0     H64764   9.978   0.347   9.973 -2.2699  0.4855 -1.4688
  491MOL0     H64765  10.223   0.338  10.053 -1.0353 -0.9521  0.8252
  491MOL0     H64766  10.485   0.045  10.129  0.5884 -0.6389 -0.8080
  491MOL0     H64767  10.453   0.226  10.160 -0.8324  0.6091 -0.2198
  491MOL0     H64768  10.672   0.170  10.042  0.0011  0.5742 -1.3735
  491MOL0     H64769  10.561   0.292   9.996 -0.1515 -0.2530  1.4822
  491MOL0     H64770  10.684   0.144   9.826 -0.4759  4.0913 -0.8375
  491MOL0     H64771  10.568   0.023   9.852  2.2199  0.9734 -1.5667
  491MOL0     H64772  10.470   0.297   9.776 -0.6934 -0.7686  1.7768
  491MOL0     H64773  10.371   0.146   9.791  0.1401  0.9184  2.6238
  491MOL0     H64774  10.656   0.151   9.437  2.1615 -0.5203  1.5230
  491MOL0     H64775  10.657  -0.050   9.281 -1.7611 -0.8480 -0.6136
  491MOL0     H64776  10.176  -0.334   9.176 -2.4325 -0.8713 -1.0766
  491MOL0     H64777  10.106  -0.483   8.980  0.5307  3.3811  0.4887
  491MOL0     H64778  10.174  -0.569   8.744  0.4720  0.0470  0.1781
  491MOL0     H64779  10.066  -0.677   8.827 -0.3858  0.4888  0.1134
  491MOL0     H64780  10.087  -0.794   8.621 -1.5916 -0.9267  2.2843
  491MOL0     H64781  10.209  -0.874   8.717 -0.3313 -0.5650  0.5497
  491MOL0     H64782  10.377  -0.684   8.644  0.9357 -2.3746  1.2130
  491MOL0     H64783  10.271  -0.637   8.524  0.3617 -1.8381 -2.2866
  491MOL0     H64784  10.376  -0.921   8.557  0.7240  1.0844 -0.0852
  491MOL0     H64785  10.259  -0.872   8.434  0.0554  1.7668 -2.3414
  491MOL0     H64786  10.427  -0.685   8.388 -3.2212 -0.2225  1.4725
  491MOL0     H64787  10.437  -0.847   8.321  1.8959  2.5898 -1.4480
  491MOL0     H64788  10.592  -0.931   8.462  0.8227 -1.3001 -2.4502
  491MOL0     H64789  10.584  -0.798   8.581  2.1234  0.3844 -0.3336
  491MOL0     H64790  10.682  -0.642   8.420  2.2627  0.4502  0.3124
  491MOL0     H64791  10.794  -0.770   8.440  0.3352  2.9769 -0.3729
  491MOL0     H64792  10.770  -0.706   8.188  0.1835 -0.6813 -0.9076
  491MOL0     H64793  10.603  -0.761   8.216 -0.1085  0.2253  1.5127
  491MOL0     H64794  10.473  -0.691   9.020  0.1138  0.2113  1.7924
  491MOL0     H64795  10.538  -0.551   9.206 -0.3852 -1.9771  1.0208
  491MOL0     H64796  10.335  -0.208   9.512  0.3218  0.7370  1.5421
  491MOL0     H64797  10.335  -0.018   9.650  0.3777 -4.0478  2.1865
  491MOL0     H64798  10.417   0.319   9.144  1.1577  1.7122  0.1993
  491MOL0     H64799  10.650   0.316   9.016  1.0332 -1.0387 -1.4425
  491MOL0     H64800  11.113   0.210   9.113 -1.5175 -2.7037  0.8751
  491MOL0     H64801  11.338   0.197   9.017  1.4959  1.6610 -2.3495
  491MOL0     H64802  11.514   0.154   8.908 -1.1877  0.1647 -0.1565
  491MOL0     H64803  11.447   0.288   8.824 -0.0489  0.5652 -0.0141
  491MOL0     H64804  11.605   0.077   8.662  0.9208  1.2701 -0.5478
  491MOL0     H64805  11.584   0.245   8.618  3.2508 -1.3794 -2.3171
  491MOL0     H64806  11.755   0.157   8.846  1.1836  0.0241 -0.1151
  491MOL0     H64807  11.744   0.319   8.787 -1.9310  0.1232  0.6381
  491MOL0     H64808  11.821   0.096   8.594 -1.6512 -1.2473  1.7028
  491MOL0     H64809  11.825   0.271   8.565 -0.4131  3.5076  3.0324
  491MOL0     H64810  12.198   0.162   8.718 -0.8552 -3.5618  3.7580
  491MOL0     H64811  11.163   0.019   8.662  0.3330 -2.1000 -0.1763
  491MOL0     H64812  10.931   0.013   8.776  0.5196  1.8575 -1.8210
  492MOL0     O64813   0.434   4.875   2.993  0.2262 -0.5914  1.1532
  492MOL0     C64814   0.506   4.862   3.092  0.3811 -0.9994 -0.2066
  492MOL0     O64815   0.457   4.818   3.210 -0.7994  0.0962 -0.0176
  492MOL0     C64816   0.331   4.780   3.214  0.1374  0.6764 -0.7203
  492MOL0     C64817   0.223   4.871   3.188  0.3492  0.2268  0.2850
  492MOL0     C64818   0.094   4.818   3.193 -0.7319  1.0647  0.5052
  492MOL0     C64819   0.071   4.686   3.212  0.1618 -0.9480  0.5304
  492MOL0     O64820  -0.048   4.619   3.214 -0.5140  0.1299 -0.1434
  492MOL0     C64821  -0.127   4.634   3.098  0.5663  0.0544 -0.2637
  492MOL0     C64822  -0.266   4.560   3.111 -0.0962 -0.5439  0.4420
  492MOL0     C64823  -0.364   4.637   3.196 -0.8218  0.3019 -0.5199
  492MOL0     C64824  -0.313   4.672   3.342  0.4802 -0.4714  0.4915
  492MOL0     C64825  -0.421   4.739   3.432 -0.4776  0.9027 -0.4095
  492MOL0     C64826  -0.469   4.877   3.376 -0.7801  0.0331 -0.3087
  492MOL0     C64827  -0.578   4.920   3.477  0.3676  0.2386  0.4833
  492MOL0     C64828  -0.657   5.036   3.410 -0.4377 -0.2029 -0.0793
  492MOL0     N64829  -0.743   5.105   3.512 -0.1400 -0.5005  0.1744
  492MOL0     C64830  -0.868   5.065   3.526  0.8177 -0.7568  0.9052
  492MOL0     C64831  -0.919   5.158   3.606 -0.7067 -0.1723  0.4696
  492MOL0     C64832  -1.061   5.161   3.638 -0.1270  0.1535  0.3264
  492MOL0     C64833  -1.135   5.237   3.531 -0.0917  1.3121 -0.8272
  492MOL0     C64834  -1.290   5.238   3.567  0.7553  0.2538  0.2293
  492MOL0     C64835  -1.369   5.265   3.440  0.5671 -0.0053 -0.0971
  492MOL0     O64836  -1.490   5.328   3.480  0.1215  0.3049 -0.4338
  492MOL0     C64837  -1.600   5.312   3.403  0.3968 -0.3151 -0.3585
  492MOL0     C64838  -1.600   5.300   3.268  0.1801 -0.3516  0.2506
  492MOL0     C64839  -1.721   5.295   3.198  0.3036 -0.3169 -0.7077
  492MOL0     C64840  -1.846   5.319   3.271  0.4333  0.0860  0.7037
  492MOL0     C64841  -1.984   5.315   3.197 -0.4922 -0.1205 -0.1647
  492MOL0     O64842  -2.096   5.332   3.276  0.2058  0.3435  0.0694
  492MOL0     C64843  -2.215   5.330   3.210  0.1757  0.4542  0.3133
  492MOL0     C64844  -2.307   5.439   3.216 -1.1564  0.6635 -0.1148
  492MOL0     C64845  -2.434   5.431   3.164  0.7888 -0.1994  0.0618
  492MOL0     C64846  -2.472   5.309   3.098  0.4114 -0.1112 -0.1961
  492MOL0     O64847  -2.603   5.299   3.052 -0.0868  0.0185  0.1250
  492MOL0     C64848  -2.639   5.174   3.002 -0.0695 -0.9001  0.0970
  492MOL0     C64849  -2.778   5.185   2.940  0.0910 -0.4870 -0.4904
  492MOL0     C64850  -2.833   5.057   2.885 -0.2263  0.0643 -0.1487
  492MOL0     C64851  -2.970   5.061   2.814  0.4509 -0.2581  0.3243
  492MOL0     C64852  -3.086   5.103   2.907  0.1267 -0.5708  0.4239
  492MOL0     C64853  -3.208   5.015   2.922 -0.2648  1.2026  0.6590
  492MOL0     C64854  -3.166   4.870   2.962 -0.0126  0.0739 -0.3363
  492MOL0     C64855  -3.256   4.810   3.060  0.2041  0.3407 -0.1487
  492MOL0    Cl64856  -3.408   4.746   2.982  1.0253 -0.2227  0.4272
  492MOL0     C64857  -2.379   5.205   3.084  0.1838  0.0597 -0.1855
  492MOL0     C64858  -2.251   5.221   3.143  0.0637 -0.6833 -0.4842
  492MOL0     O64859  -1.986   5.287   3.079 -0.2731  0.3261 -0.7597
  492MOL0     C64860  -1.838   5.339   3.412  0.9382 -0.2681  0.2700
  492MOL0     C64861  -1.717   5.329   3.477  0.2061 -0.3619 -0.5204
  492MOL0     N64862  -0.824   5.251   3.635 -0.6636 -0.9267 -0.2325
  492MOL0     N64863  -0.712   5.212   3.585  1.3073  0.2765  0.1985
  492MOL0     C64864   0.176   4.592   3.234 -0.5575  0.2204  0.2122
  492MOL0     C64865   0.306   4.640   3.231  0.1410  0.6825 -0.1061
  492MOL0     C64866   0.647   4.890   3.071  0.1165  0.2588 -0.6915
  492MOL0     C64867   0.734   4.887   3.185 -0.4351 -0.4088 -0.2325
  492MOL0     C64868   0.867   4.910   3.167  1.4192 -0.4648 -0.3389
  492MOL0     C64869   0.918   4.954   3.044  1.2203  0.0201 -0.6525
  492MOL0     O64870   1.050   4.988   3.027  0.1082 -0.1211 -0.0924
  492MOL0     C64871   1.146   4.964   3.141 -0.1721  1.1085 -0.0143
  492MOL0     C64872   1.274   5.049   3.125  0.5166  0.3391 -0.1842
  492MOL0     C64873   1.334   5.006   2.987 -0.1723 -0.2646  0.5720
  492MOL0     C64874   1.274   5.089   2.865 -0.4492 -0.2562  0.4150
  492MOL0     C64875   1.371   5.113   2.763 -0.1949  0.2012  0.2998
  492MOL0     C64876   1.456   5.119   2.675  0.1162 -0.5777  0.6829
  492MOL0     C64877   0.827   4.979   2.940  0.1429 -0.6028 -0.7437
  492MOL0     C64878   0.691   4.950   2.956  0.6797 -0.4246  0.0839
  492MOL0     H64879   0.238   4.978   3.185  0.2681  0.3001  1.7538
  492MOL0     H64880   0.007   4.883   3.193 -0.8041  1.0068 -0.9714
  492MOL0     H64881  -0.069   4.593   3.015  1.1383  0.5793 -0.1272
  492MOL0     H64882  -0.144   4.738   3.070 -3.5487 -0.9304 -2.2637
  492MOL0     H64883  -0.249   4.464   3.160 -0.2226 -0.0886  1.4169
  492MOL0     H64884  -0.297   4.551   3.007  0.8815  0.7350  0.0035
  492MOL0     H64885  -0.453   4.579   3.222 -1.7907  0.7517 -2.6500
  492MOL0     H64886  -0.393   4.732   3.151 -0.3888  0.7057  0.0425
  492MOL0     H64887  -0.274   4.586   3.398 -0.1050 -0.9677  0.1549
  492MOL0     H64888  -0.229   4.738   3.319 -0.6679  0.4426 -1.2789
  492MOL0     H64889  -0.367   4.758   3.526 -0.6502 -3.4470  0.7873
  492MOL0     H64890  -0.510   4.675   3.431  0.2270 -0.1130 -1.4210
  492MOL0     H64891  -0.515   4.875   3.277 -1.0572 -2.1153 -0.1654
  492MOL0     H64892  -0.386   4.949   3.371  1.0004 -1.9441 -0.5915
  492MOL0     H64893  -0.641   4.833   3.497  0.4123 -0.6316 -2.7421
  492MOL0     H64894  -0.542   4.950   3.576  1.4005  0.0053  0.1871
  492MOL0     H64895  -0.717   5.000   3.327 -0.6468 -0.3335  0.1257
  492MOL0     H64896  -0.586   5.104   3.363 -0.7843  0.2184 -0.0037
  492MOL0     H64897  -0.925   4.991   3.471  0.4437  0.0675  0.1625
  492MOL0     H64898  -1.076   5.211   3.734 -0.7216  0.9729 -0.1785
  492MOL0     H64899  -1.103   5.060   3.642  0.5737 -0.1022  2.4276
  492MOL0     H64900  -1.127   5.191   3.432 -3.1468  1.4764 -1.2534
  492MOL0     H64901  -1.090   5.336   3.530 -2.7902  2.6238 -0.8018
  492MOL0     H64902  -1.311   5.140   3.610 -2.4510  0.8444  0.2049
  492MOL0     H64903  -1.308   5.305   3.651  1.2007 -0.8405  1.2341
  492MOL0     H64904  -1.374   5.171   3.385 -1.0791 -0.0903  0.1646
  492MOL0     H64905  -1.315   5.339   3.379  1.2625 -0.3219  0.1225
  492MOL0     H64906  -1.508   5.275   3.217  1.0691 -0.7657  1.9766
  492MOL0     H64907  -1.717   5.266   3.094  1.1625  2.3329 -1.5056
  492MOL0     H64908  -2.281   5.530   3.269 -0.5016  0.6194 -0.3493
  492MOL0     H64909  -2.501   5.516   3.170  2.2600  1.1331 -1.2926
  492MOL0     H64910  -2.637   5.091   3.073  0.3017 -1.6528 -0.7704
  492MOL0     H64911  -2.578   5.134   2.920  1.2847 -2.5762  1.8121
  492MOL0     H64912  -2.778   5.264   2.864  0.0785 -0.2840 -0.2830
  492MOL0     H64913  -2.841   5.215   3.025  1.1088 -0.7173  0.3774
  492MOL0     H64914  -2.842   4.980   2.962  0.9189  2.7174  2.8466
  492MOL0     H64915  -2.758   5.023   2.812 -0.3806 -1.6011  0.4111
  492MOL0     H64916  -2.968   5.120   2.721  4.0748 -3.0576 -1.6344
  492MOL0     H64917  -2.996   4.967   2.766  1.3802 -0.3469 -0.0277
  492MOL0     H64918  -3.125   5.196   2.865 -0.7808 -0.4815  1.4364
  492MOL0     H64919  -3.037   5.110   3.005  1.1131 -1.9781  0.0675
  492MOL0     H64920  -3.238   4.998   2.818 -0.5517 -0.3287  0.9673
  492MOL0     H64921  -3.297   5.055   2.970 -1.6722 -0.9648  0.0325
  492MOL0     H64922  -3.144   4.807   2.876  0.7327  0.1526 -0.2130
  492MOL0     H64923  -3.066   4.887   3.004 -0.3922  0.9614  0.2427
  492MOL0     H64924  -3.281   4.886   3.134  2.0251  1.4212 -0.6002
  492MOL0     H64925  -3.194   4.732   3.106  0.1891  0.8734  0.7935
  492MOL0     H64926  -2.406   5.108   3.043  0.5350 -0.3688  0.5734
  492MOL0     H64927  -2.187   5.134   3.152  0.6618 -0.1815  0.2779
  492MOL0     H64928  -1.927   5.371   3.465  0.6633 -1.1895  0.3834
  492MOL0     H64929  -1.712   5.338   3.585 -0.2339 -2.8831 -0.2316
  492MOL0     H64930   0.148   4.487   3.237  0.2013 -0.0134 -0.5327
  492MOL0     H64931   0.391   4.572   3.236  0.3091  0.9604  1.1457
  492MOL0     H64932   0.701   4.852   3.282  2.7941  1.0076  1.5267
  492MOL0     H64933   0.923   4.907   3.260 -0.3776 -1.0628  0.7828
  492MOL0     H64934   1.174   4.860   3.161  3.8782  2.5836  3.6329
  492MOL0     H64935   1.102   4.992   3.237 -1.2195 -3.1315  0.9428
  492MOL0     H64936   1.259   5.157   3.131 -1.1716  0.2487 -1.7845
  492MOL0     H64937   1.342   5.012   3.202 -0.2173 -2.3640 -0.7084
  492MOL0     H64938   1.330   4.896   2.980  0.9671 -0.2485 -1.0157
  492MOL0     H64939   1.440   5.030   2.987  0.0462 -0.8029 -2.3113
  492MOL0     H64940   1.183   5.042   2.829 -1.5078  1.0096  1.3293
  492MOL0     H64941   1.235   5.185   2.899 -1.3126  1.1091 -3.8462
  492MOL0     H64942   1.532   5.113   2.600 -0.4431 -2.0245  0.1972
  492MOL0     H64943   0.861   5.010   2.842  0.4665  1.8042  0.0694
  492MOL0     H64944   0.626   4.963   2.870  0.0943  2.3126  0.8093
  493MOL0     O64945   2.098   3.169   6.185  0.1272  0.1712 -0.3929
  493MOL0     C64946   2.168   3.077   6.237 -0.6037  0.3025 -0.1099
  493MOL0     O64947   2.124   2.987   6.329 -0.1251  0.0267 -0.4233
  493MOL0     C64948   1.994   2.989   6.379 -0.2314  0.6180 -0.5124
  493MOL0     C64949   1.932   2.867   6.398 -0.4948  0.1989 -1.0212
  493MOL0     C64950   1.800   2.855   6.438 -0.6790  0.0242 -0.3431
  493MOL0     C64951   1.727   2.975   6.472 -0.1469 -0.4006 -0.5350
  493MOL0     O64952   1.595   2.973   6.509 -1.3150 -0.0267  0.1705
  493MOL0     C64953   1.534   2.849   6.544 -0.7025 -0.2006 -0.8145
  493MOL0     C64954   1.422   2.869   6.637  1.2433 -0.4241 -0.4450
  493MOL0     C64955   1.296   2.926   6.569  0.5573  0.3468  0.0995
  493MOL0     C64956   1.184   2.914   6.676  0.5700 -0.5438 -0.0923
  493MOL0     C64957   1.057   2.986   6.641 -0.5058 -0.2456 -0.0051
  493MOL0     C64958   0.951   2.977   6.761 -0.3604  0.3351 -0.1794
  493MOL0     C64959   0.835   3.075   6.759 -0.2279 -0.1224  0.3298
  493MOL0     C64960   0.742   3.061   6.876 -0.3883  0.7654 -0.2060
  493MOL0     N64961   0.633   3.148   6.876 -0.1433  0.5776  0.2360
  493MOL0     C64962   0.537   3.169   6.777 -0.0527 -1.1779  0.7268
  493MOL0     C64963   0.454   3.271   6.829 -0.3903  0.2405 -0.6528
  493MOL0     C64964   0.339   3.323   6.752 -0.2392 -0.2965  0.5668
  493MOL0     C64965   0.212   3.363   6.828  0.0902  0.3097  0.3588
  493MOL0     C64966   0.167   3.254   6.932 -0.1340  0.4588  0.4660
  493MOL0     C64967   0.019   3.284   6.953 -0.1702 -0.3320 -0.6036
  493MOL0     O64968   0.008   3.426   6.995 -0.0981 -0.2131  0.0818
  493MOL0     C64969  -0.107   3.473   7.048 -0.0154 -0.0336 -0.0016
  493MOL0     C64970  -0.231   3.413   7.035  0.0940  0.2235  0.1150
  493MOL0     C64971  -0.343   3.465   7.092  0.2003  0.0185  0.3451
  493MOL0     C64972  -0.337   3.584   7.160 -0.3655  0.6399  0.8821
  493MOL0     C64973  -0.454   3.630   7.234 -0.9338 -0.6101 -0.7399
  493MOL0     O64974  -0.553   3.538   7.272  0.3956 -1.2191 -0.1794
  493MOL0     C64975  -0.674   3.581   7.321  0.4796  0.0826  0.6350
  493MOL0     C64976  -0.741   3.675   7.238  0.2752 -0.3116 -0.1741
  493MOL0     C64977  -0.873   3.715   7.281 -0.4751  0.2427 -0.2081
  493MOL0     C64978  -0.924   3.680   7.408  0.6248 -0.5668 -0.8078
  493MOL0     O64979  -1.043   3.708   7.462  0.1992 -0.0863  0.2434
  493MOL0     C64980  -1.148   3.727   7.366 -0.3473  0.3383  0.5977
  493MOL0     C64981  -1.279   3.707   7.430 -0.0038  0.0133 -0.2331
  493MOL0     C64982  -1.405   3.711   7.336  0.3818  0.1442  0.8099
  493MOL0     C64983  -1.527   3.773   7.410 -0.1465 -0.8130 -0.4549
  493MOL0     C64984  -1.661   3.795   7.344 -0.3097  0.7532  0.0213
  493MOL0     C64985  -1.652   3.901   7.236  0.6762  0.1934  0.2647
  493MOL0     C64986  -1.791   3.972   7.220 -1.3370 -0.2239  0.3672
  493MOL0     C64987  -1.780   4.089   7.121 -0.6375  0.9017 -0.6923
  493MOL0    Cl64988  -1.774   4.042   6.948  0.1036  0.2212 -0.0298
  493MOL0     C64989  -0.855   3.577   7.477  0.6848 -0.6532  0.7783
  493MOL0     C64990  -0.741   3.527   7.427 -0.0950  0.3953 -0.4862
  493MOL0     O64991  -0.447   3.748   7.262 -0.0308 -0.2332 -0.2283
  493MOL0     C64992  -0.219   3.665   7.150 -0.7453  0.0322  0.6960
  493MOL0     C64993  -0.106   3.602   7.104  0.0887  0.3009  0.1802
  493MOL0     N64994   0.499   3.308   6.953  0.4288  0.0116  1.0049
  493MOL0     N64995   0.605   3.230   6.978 -0.0229 -0.6723 -0.1327
  493MOL0     C64996   1.788   3.101   6.449  0.5069  0.3559  0.2835
  493MOL0     C64997   1.918   3.105   6.408  0.0769  1.0049  0.3998
  493MOL0     C64998   2.303   3.061   6.187  0.8208 -0.5041  0.1419
  493MOL0     C64999   2.404   3.038   6.274 -0.6849 -0.3366  0.5025
  493MOL0     C65000   2.531   3.011   6.226 -0.2955 -0.6721  0.0448
  493MOL0     C65001   2.553   3.025   6.088  0.3661 -0.8030  0.1864
  493MOL0     O65002   2.675   2.993   6.039  0.2838  0.8779 -0.1852
  493MOL0     C65003   2.676   2.890   5.935  1.1282 -0.3214 -0.0369
  493MOL0     C65004   2.805   2.810   5.945  0.2851 -0.3065  0.3515
  493MOL0     C65005   2.827   2.748   6.084 -0.5575  0.1668 -0.0739
  493MOL0     C65006   2.955   2.660   6.079 -0.1984 -0.8247 -0.4846
  493MOL0     C65007   2.959   2.563   6.186  0.2007  0.1212  0.5963
  493MOL0     C65008   2.973   2.488   6.276  0.2334 -0.0163 -0.3059
  493MOL0     C65009   2.451   3.049   6.000  0.0479 -0.6991 -1.0667
  493MOL0     C65010   2.325   3.064   6.047 -0.4199 -0.1398 -0.4821
  493MOL0     H65011   1.987   2.777   6.373 -2.8007 -1.2399 -1.2125
  493MOL0     H65012   1.764   2.753   6.451  0.0067  0.0078  1.9703
  493MOL0     H65013   1.605   2.787   6.601 -2.1240 -0.3017  0.9204
  493MOL0     H65014   1.503   2.787   6.459 -1.3542 -0.0007 -0.7244
  493MOL0     H65015   1.454   2.930   6.721  0.2753 -2.1862  1.2808
  493MOL0     H65016   1.398   2.780   6.695  0.6581  1.3439  2.1757
  493MOL0     H65017   1.275   2.863   6.481  3.3043  0.3453 -0.6303
  493MOL0     H65018   1.296   3.031   6.538 -2.8202  0.6243  0.5874
  493MOL0     H65019   1.158   2.810   6.695 -0.0988 -0.1304  1.4158
  493MOL0     H65020   1.228   2.959   6.765 -1.2931  1.5682 -0.1299
  493MOL0     H65021   1.026   2.962   6.539  1.3168 -0.0900 -0.6397
  493MOL0     H65022   1.090   3.090   6.633 -1.9036  0.2956  0.8397
  493MOL0     H65023   0.999   3.001   6.856 -0.3844  3.0281 -0.7887
  493MOL0     H65024   0.919   2.872   6.765  0.0877  0.1834 -0.4731
  493MOL0     H65025   0.886   3.172   6.763  0.8033 -0.5461 -1.5729
  493MOL0     H65026   0.780   3.073   6.665 -1.3697  0.2348  0.9711
  493MOL0     H65027   0.815   3.081   6.955  0.3018  0.8752 -0.8576
  493MOL0     H65028   0.708   2.958   6.891  1.6900 -0.4140 -2.6353
  493MOL0     H65029   0.523   3.122   6.681  0.3957 -0.4852  0.3155
  493MOL0     H65030   0.300   3.258   6.673 -2.4282  1.3979  0.1382
  493MOL0     H65031   0.363   3.415   6.698 -5.4283  1.9883  1.5327
  493MOL0     H65032   0.128   3.366   6.758  1.7459 -0.8913 -1.7975
  493MOL0     H65033   0.246   3.450   6.885  3.9471 -1.6672  1.4730
  493MOL0     H65034   0.188   3.157   6.886 -2.4399  0.6384 -1.1609
  493MOL0     H65035   0.222   3.258   7.026  1.8364 -1.5309 -0.5122
  493MOL0     H65036  -0.025   3.219   7.029 -0.9400  0.7700 -0.0957
  493MOL0     H65037  -0.044   3.271   6.864  0.9373 -0.7627 -1.3640
  493MOL0     H65038  -0.235   3.317   6.984 -1.2023  1.4700 -2.2939
  493MOL0     H65039  -0.435   3.407   7.084  0.6638 -0.4794 -2.7178
  493MOL0     H65040  -0.688   3.683   7.144 -0.8220  0.3194 -0.7695
  493MOL0     H65041  -0.915   3.799   7.228 -0.9191 -0.8753 -1.6834
  493MOL0     H65042  -1.148   3.661   7.278 -0.9690  3.0922 -1.6112
  493MOL0     H65043  -1.139   3.824   7.317  1.3346  0.0444  0.2626
  493MOL0     H65044  -1.290   3.783   7.508  3.2111  0.9467 -0.5521
  493MOL0     H65045  -1.286   3.609   7.479  1.0736  0.0240 -0.0484
  493MOL0     H65046  -1.434   3.609   7.309 -0.2748  0.2967  0.9103
  493MOL0     H65047  -1.391   3.768   7.244  0.6664 -1.2385 -0.0401
  493MOL0     H65048  -1.539   3.717   7.504  4.2883 -1.5803 -0.1498
  493MOL0     H65049  -1.492   3.873   7.436 -0.1624 -0.7473 -0.6854
  493MOL0     H65050  -1.728   3.813   7.429 -0.2076 -1.4401  0.6060
  493MOL0     H65051  -1.704   3.704   7.303  0.0350  0.9609 -0.8179
  493MOL0     H65052  -1.632   3.850   7.141  3.1743 -0.3801  1.0084
  493MOL0     H65053  -1.565   3.967   7.245  0.7038  0.1541  0.2909
  493MOL0     H65054  -1.866   3.898   7.193 -0.9354 -0.1519 -1.0490
  493MOL0     H65055  -1.807   4.000   7.325  2.8064 -3.9052  2.3154
  493MOL0     H65056  -1.683   4.138   7.134 -0.5066 -0.0708  3.5311
  493MOL0     H65057  -1.865   4.156   7.139 -2.4834 -1.4147 -0.3078
  493MOL0     H65058  -0.889   3.533   7.570  1.7584  0.8452  1.9189
  493MOL0     H65059  -0.690   3.448   7.481  0.4832  1.4780  0.6143
  493MOL0     H65060  -0.214   3.761   7.200  2.0149  0.5964 -0.4901
  493MOL0     H65061  -0.017   3.664   7.116  1.6639 -1.2144 -2.4521
  493MOL0     H65062   1.724   3.188   6.462  1.6181  2.3333 -5.0502
  493MOL0     H65063   1.967   3.202   6.403 -1.0104  1.5991  0.9374
  493MOL0     H65064   2.377   3.042   6.379 -1.8297  1.5718  0.1848
  493MOL0     H65065   2.612   2.998   6.298 -0.1353 -0.4948 -0.1031
  493MOL0     H65066   2.671   2.947   5.843 -1.8081  2.6012  1.7292
  493MOL0     H65067   2.595   2.817   5.943  0.9831 -0.2358 -0.7346
  493MOL0     H65068   2.813   2.737   5.865  1.3581 -0.7566  0.8591
  493MOL0     H65069   2.886   2.882   5.937  1.6338 -1.9046 -0.9537
  493MOL0     H65070   2.736   2.690   6.103 -1.8246  1.1060 -2.7544
  493MOL0     H65071   2.837   2.823   6.162  0.1140 -0.1179  0.1257
  493MOL0     H65072   2.955   2.606   5.984 -2.0848 -1.8065  0.0223
  493MOL0     H65073   3.046   2.722   6.085 -1.0648  0.6450 -1.9280
  493MOL0     H65074   2.985   2.429   6.365 -2.8348  1.8314  1.5329
  493MOL0     H65075   2.469   3.060   5.893  2.8038  1.5260 -0.5074
  493MOL0     H65076   2.240   3.086   5.983 -0.1137 -1.9647 -1.5810
  494MOL0     O65077   7.888   1.089   2.627 -0.1901 -0.5575 -0.3837
  494MOL0     C65078   7.913   1.185   2.555  0.5610 -0.1028 -0.5219
  494MOL0     O65079   7.818   1.274   2.504  0.1135  0.5281 -0.3295
  494MOL0     C65080   7.684   1.276   2.539 -0.2002 -0.3753 -0.1385
  494MOL0     C65081   7.596   1.332   2.446  0.7302 -0.1990 -0.5674
  494MOL0     C65082   7.455   1.333   2.466 -0.6367  0.0791 -0.1588
  494MOL0     C65083   7.401   1.292   2.584  1.0069  0.3971 -0.1442
  494MOL0     O65084   7.262   1.293   2.591  0.0737 -0.6848 -0.2148
  494MOL0     C65085   7.198   1.409   2.644  0.1941  0.4015 -0.2995
  494MOL0     C65086   7.046   1.421   2.599  0.1545 -0.2725 -0.0129
  494MOL0     C65087   6.953   1.349   2.692  1.1942  0.0273  1.0176
  494MOL0     C65088   6.804   1.378   2.653 -0.7534  0.4216 -0.8437
  494MOL0     C65089   6.713   1.281   2.723 -0.0432 -0.2653 -0.0896
  494MOL0     C65090   6.574   1.290   2.662  0.7409  0.2685 -0.2575
  494MOL0     C65091   6.482   1.178   2.702 -0.9099 -1.1170  0.8746
  494MOL0     C65092   6.365   1.178   2.597 -0.9628  0.4225  0.3016
  494MOL0     N65093   6.257   1.261   2.630 -0.3197 -0.9537 -1.0610
  494MOL0     C65094   6.252   1.399   2.661  0.3938 -0.4052  1.2862
  494MOL0     C65095   6.121   1.427   2.685  0.4222 -0.6589 -0.7061
  494MOL0     C65096   6.058   1.560   2.722  0.2573  0.2233 -0.4446
  494MOL0     C65097   5.956   1.625   2.626 -0.7481 -0.1063  0.1611
  494MOL0     C65098   5.910   1.758   2.675 -0.2733  0.1576 -0.4185
  494MOL0     C65099   5.822   1.829   2.574 -0.1099 -0.4401 -0.7797
  494MOL0     O65100   5.746   1.930   2.642  1.0264  0.5298  0.1803
  494MOL0     C65101   5.616   1.890   2.674 -0.0298 -0.4838 -0.1431
  494MOL0     C65102   5.598   1.830   2.791  0.1209 -0.3619  0.6167
  494MOL0     C65103   5.462   1.789   2.827  0.5185  0.7298  0.2710
  494MOL0     C65104   5.350   1.806   2.735  0.0456 -0.6276 -0.3318
  494MOL0     C65105   5.209   1.785   2.778 -0.2894 -0.1635 -0.6486
  494MOL0     O65106   5.110   1.848   2.711 -0.4065  0.3839  0.2365
  494MOL0     C65107   4.981   1.816   2.736  0.5211 -0.4666  0.8077
  494MOL0     C65108   4.924   1.872   2.844 -0.2814 -0.0449  0.1434
  494MOL0     C65109   4.790   1.845   2.873 -0.9218  0.4923 -0.2242
  494MOL0     C65110   4.715   1.752   2.797  0.8535 -0.0727  0.1131
  494MOL0     O65111   4.581   1.736   2.826  0.6585  0.3300 -0.3031
  494MOL0     C65112   4.496   1.726   2.709  0.3602  0.2934 -0.0189
  494MOL0     C65113   4.349   1.745   2.760 -1.0586  0.5904  0.4279
  494MOL0     C65114   4.318   1.889   2.785 -0.0902  0.4565 -0.4078
  494MOL0     C65115   4.209   1.902   2.899  0.8681 -0.2036 -0.2107
  494MOL0     C65116   4.081   1.808   2.882  0.2228 -1.2938 -0.0398
  494MOL0     C65117   3.992   1.854   2.767  0.6301  0.3353  0.2192
  494MOL0     C65118   3.911   1.734   2.725  0.2789 -0.2922  0.9210
  494MOL0     C65119   3.778   1.770   2.641  0.0906  0.4251  0.0093
  494MOL0    Cl65120   3.645   1.755   2.759 -0.2826 -0.2024 -0.2440
  494MOL0     C65121   4.778   1.700   2.681  1.1594  0.3989 -0.1438
  494MOL0     C65122   4.913   1.728   2.654  1.0805  0.1044 -0.2363
  494MOL0     O65123   5.196   1.715   2.879 -1.0144 -0.1122 -0.7868
  494MOL0     C65124   5.374   1.868   2.607  0.0468 -0.1812 -0.1678
  494MOL0     C65125   5.509   1.906   2.580 -0.1577 -0.3073 -0.3451
  494MOL0     N65126   6.045   1.306   2.685  0.6844  0.0034  0.3490
  494MOL0     N65127   6.128   1.211   2.647 -0.2361 -0.5698  0.7029
  494MOL0     C65128   7.485   1.220   2.677 -0.1623  0.0500  0.5458
  494MOL0     C65129   7.625   1.223   2.657  0.6299  0.4044 -0.2490
  494MOL0     C65130   8.048   1.184   2.501 -0.9562  0.1423  0.3412
  494MOL0     C65131   8.154   1.105   2.565  0.0110  0.6600 -0.4528
  494MOL0     C65132   8.285   1.118   2.514  0.0368 -0.4274  0.0900
  494MOL0     C65133   8.318   1.199   2.401  0.8042 -0.5578  0.3517
  494MOL0     O65134   8.447   1.214   2.359 -0.4173  0.0534  0.1572
  494MOL0     C65135   8.553   1.120   2.382 -0.1117  0.5560  0.0984
  494MOL0     C65136   8.638   1.113   2.254 -0.3751 -0.3755 -0.2801
  494MOL0     C65137   8.713   1.245   2.247  0.6944  0.7677 -0.4632
  494MOL0     C65138   8.792   1.255   2.120  0.3023 -0.3376 -0.3264
  494MOL0     C65139   8.880   1.371   2.119  0.6785  0.5616 -0.3138
  494MOL0     C65140   8.939   1.476   2.117 -0.1843  0.2507  0.5384
  494MOL0     C65141   8.220   1.287   2.359  0.4257 -0.0115  0.0465
  494MOL0     C65142   8.092   1.282   2.407  0.3513  0.6723 -0.3060
  494MOL0     H65143   7.622   1.373   2.348 -0.5787  3.5855  0.4689
  494MOL0     H65144   7.388   1.376   2.392 -1.6755 -2.9308 -1.1266
  494MOL0     H65145   7.252   1.490   2.595  0.6809 -1.3686 -2.8894
  494MOL0     H65146   7.204   1.410   2.753  0.7285  0.3787 -0.3268
  494MOL0     H65147   7.027   1.387   2.497 -1.8314 -0.3034  0.3252
  494MOL0     H65148   7.009   1.524   2.607  1.4526  0.1090  1.8145
  494MOL0     H65149   6.970   1.384   2.794  0.2733 -2.1530  1.9967
  494MOL0     H65150   6.976   1.242   2.688 -0.0596 -0.2200 -1.9442
  494MOL0     H65151   6.770   1.479   2.677 -1.6388  0.3068 -1.5453
  494MOL0     H65152   6.798   1.368   2.544  5.0416  1.1703 -1.5642
  494MOL0     H65153   6.713   1.306   2.829  0.3455  0.5645 -0.2822
  494MOL0     H65154   6.742   1.176   2.708  0.5515 -0.5303  2.4704
  494MOL0     H65155   6.578   1.288   2.552 -1.0892 -0.4248 -0.3404
  494MOL0     H65156   6.528   1.386   2.689 -0.6311  0.1206 -1.9011
  494MOL0     H65157   6.538   1.084   2.696 -0.9910 -1.2219  1.6374
  494MOL0     H65158   6.452   1.186   2.807 -0.1804 -1.9409  1.1556
  494MOL0     H65159   6.323   1.081   2.572 -1.4919  0.9936 -1.1059
  494MOL0     H65160   6.409   1.200   2.500  0.7016  0.2420  0.9733
  494MOL0     H65161   6.338   1.465   2.652 -0.8677  1.2308  0.9553
  494MOL0     H65162   6.137   1.631   2.747  1.8904 -0.6847 -2.6298
  494MOL0     H65163   5.999   1.542   2.812 -0.8296  1.5678 -0.8561
  494MOL0     H65164   5.866   1.564   2.614 -0.8269 -0.0814  0.5933
  494MOL0     H65165   6.007   1.629   2.530  0.3704 -3.4871  0.4782
  494MOL0     H65166   5.858   1.743   2.770  1.5702 -0.6828  0.5076
  494MOL0     H65167   5.995   1.821   2.701 -0.5832 -0.2946  1.8747
  494MOL0     H65168   5.743   1.764   2.535 -0.8175  1.1422 -2.0775
  494MOL0     H65169   5.874   1.876   2.490 -0.6552  2.2715  0.3206
  494MOL0     H65170   5.679   1.822   2.863 -0.2644 -0.8226  1.0128
  494MOL0     H65171   5.438   1.741   2.921  2.1285  1.2886  1.0113
  494MOL0     H65172   4.985   1.935   2.908 -0.2627 -0.0269  0.1077
  494MOL0     H65173   4.744   1.877   2.966 -3.4863  1.2059 -1.6706
  494MOL0     H65174   4.505   1.626   2.665  0.2458  1.0289 -1.8011
  494MOL0     H65175   4.523   1.789   2.623 -0.2001 -1.3780 -1.4906
  494MOL0     H65176   4.334   1.691   2.854 -1.3969 -0.2688 -0.1075
  494MOL0     H65177   4.289   1.697   2.683  0.0500 -0.6847  0.3110
  494MOL0     H65178   4.279   1.935   2.694 -1.9489 -3.6025 -1.9202
  494MOL0     H65179   4.409   1.942   2.815  1.0389 -1.6393  0.0593
  494MOL0     H65180   4.255   1.876   2.994 -4.3211  2.7466  3.6370
  494MOL0     H65181   4.170   2.003   2.915 -1.5753 -1.1190  0.1115
  494MOL0     H65182   4.034   1.817   2.980  1.8250 -0.5220  0.6926
  494MOL0     H65183   4.122   1.710   2.858  0.6681 -0.9228 -0.8418
  494MOL0     H65184   4.051   1.897   2.686 -0.6574  0.7367 -0.5384
  494MOL0     H65185   3.911   1.920   2.801 -0.4186 -0.8454  0.0921
  494MOL0     H65186   3.980   1.676   2.662 -1.4401 -0.1644 -1.2016
  494MOL0     H65187   3.877   1.662   2.800 -1.2645 -1.5151 -0.8312
  494MOL0     H65188   3.769   1.699   2.558 -0.5542  0.5243 -0.0106
  494MOL0     H65189   3.792   1.872   2.604 -0.5941  1.3321  2.0769
  494MOL0     H65190   4.724   1.631   2.617  1.3714 -0.7173  0.8701
  494MOL0     H65191   4.967   1.681   2.572 -0.0263  0.2317 -1.0650
  494MOL0     H65192   5.301   1.876   2.528 -1.0384 -5.0421  0.0228
  494MOL0     H65193   5.540   1.934   2.480 -3.1047 -0.3593 -1.3689
  494MOL0     H65194   7.442   1.179   2.767 -2.3737 -2.8183 -1.6269
  494MOL0     H65195   7.691   1.189   2.735 -0.8514 -1.2663  0.3394
  494MOL0     H65196   8.133   1.042   2.650 -0.6827 -2.0218 -2.4568
  494MOL0     H65197   8.363   1.056   2.559 -2.2559 -2.9307  0.9092
  494MOL0     H65198   8.518   1.022   2.416 -0.3066 -0.0638 -1.7691
  494MOL0     H65199   8.613   1.154   2.467 -0.5420 -0.7861  0.9667
  494MOL0     H65200   8.705   1.027   2.263 -0.1533 -0.1115  0.7536
  494MOL0     H65201   8.583   1.092   2.162 -0.3053  3.3811 -1.3508
  494MOL0     H65202   8.782   1.239   2.332  1.2987 -0.0691 -0.9997
  494MOL0     H65203   8.644   1.330   2.252 -1.7665 -0.7828 -3.7746
  494MOL0     H65204   8.858   1.168   2.119  0.5481 -0.1461 -0.8140
  494MOL0     H65205   8.734   1.257   2.027  0.4206 -1.7240 -0.4488
  494MOL0     H65206   9.000   1.564   2.113 -0.0764  0.1383 -0.8059
  494MOL0     H65207   8.246   1.349   2.274  0.4980 -1.8572 -1.3206
  494MOL0     H65208   8.015   1.343   2.359 -0.2594 -0.6550 -1.0763
  495MOL0     O65209   1.074   1.573   7.126 -0.8231  0.2215 -0.2194
  495MOL0     C65210   1.129   1.465   7.164 -0.1236 -0.4082  0.6418
  495MOL0     O65211   1.063   1.352   7.186  0.1508  0.8008  0.3342
  495MOL0     C65212   0.929   1.352   7.208 -0.2495  0.9751 -0.4006
  495MOL0     C65213   0.843   1.361   7.095 -0.1663 -0.5090 -0.1464
  495MOL0     C65214   0.705   1.367   7.104  0.2539 -0.6201 -0.3784
  495MOL0     C65215   0.644   1.366   7.228  0.3254 -0.2879  0.5727
  495MOL0     O65216   0.510   1.387   7.250  0.3754  0.3157  0.2524
  495MOL0     C65217   0.419   1.310   7.173 -0.6147  0.6821  0.4175
  495MOL0     C65218   0.275   1.307   7.242 -0.0410 -0.2470 -0.2410
  495MOL0     C65219   0.167   1.254   7.144  0.7999 -0.4436  0.6834
  495MOL0     C65220   0.026   1.249   7.211 -0.2772 -0.4136 -0.0693
  495MOL0     C65221  -0.084   1.255   7.106 -0.6884  0.1614 -0.9370
  495MOL0     C65222  -0.217   1.204   7.162 -0.1382 -0.7743 -0.2511
  495MOL0     C65223  -0.326   1.205   7.059 -0.2101  0.1938  0.0269
  495MOL0     C65224  -0.471   1.182   7.113  0.4617  0.5157  0.3420
  495MOL0     N65225  -0.575   1.194   7.010  0.0738 -0.4089 -0.0449
  495MOL0     C65226  -0.694   1.268   7.025 -0.2651  0.0595  0.0665
  495MOL0     C65227  -0.759   1.262   6.909 -0.0036  0.3422 -0.2226
  495MOL0     C65228  -0.899   1.307   6.875  0.2110 -0.0040  0.3270
  495MOL0     C65229  -0.986   1.193   6.830  0.4768 -0.1974  0.1048
  495MOL0     C65230  -0.993   1.181   6.680  0.0816 -0.7285 -0.9857
  495MOL0     C65231  -1.105   1.070   6.657  0.0584  0.5372 -0.4976
  495MOL0     O65232  -1.134   1.064   6.517  0.6675  0.0666  0.0303
  495MOL0     C65233  -1.060   0.982   6.432  0.2526  0.1040 -0.4082
  495MOL0     C65234  -1.109   0.951   6.306  0.3396 -0.9809 -0.5002
  495MOL0     C65235  -1.056   0.858   6.221  0.3561  0.2704 -0.5052
  495MOL0     C65236  -0.943   0.788   6.255  0.0521  0.0044 -0.3908
  495MOL0     C65237  -0.882   0.698   6.155 -0.9849 -0.6330 -0.3466
  495MOL0     O65238  -0.968   0.658   6.060  0.3399 -0.1012 -0.1510
  495MOL0     C65239  -0.921   0.562   5.973 -0.5652  0.1440 -0.2107
  495MOL0     C65240  -1.001   0.454   5.948  0.7742  0.2830 -0.7675
  495MOL0     C65241  -0.966   0.345   5.867  0.0737  0.5537  0.4253
  495MOL0     C65242  -0.843   0.339   5.811 -0.2256  0.5682  0.7004
  495MOL0     O65243  -0.790   0.235   5.732  0.4273 -0.9057  0.3731
  495MOL0     C65244  -0.746   0.123   5.808 -0.1954 -0.6139 -0.1433
  495MOL0     C65245  -0.807   0.003   5.739 -0.2082 -0.3616 -0.3146
  495MOL0     C65246  -0.745  -0.028   5.600  0.0008 -0.6317  0.1146
  495MOL0     C65247  -0.791  -0.166   5.548  0.0060 -0.0198  0.0489
  495MOL0     C65248  -0.741  -0.196   5.408 -0.3123 -0.0497 -1.0249
  495MOL0     C65249  -0.798  -0.098   5.310 -0.5443 -0.5421  0.3603
  495MOL0     C65250  -0.756  -0.136   5.168 -0.4893  1.2082  0.6419
  495MOL0     C65251  -0.830  -0.256   5.114 -0.3555  0.4462 -0.0151
  495MOL0    Cl65252  -0.769  -0.282   4.949 -0.2832 -0.5178  0.1778
  495MOL0     C65253  -0.765   0.454   5.825  0.0514  0.1666 -0.9410
  495MOL0     C65254  -0.806   0.570   5.893  0.1532 -0.0386 -0.0009
  495MOL0     O65255  -0.765   0.670   6.158  0.0085 -0.6183  0.2377
  495MOL0     C65256  -0.883   0.817   6.378 -0.1487 -0.6422  0.9977
  495MOL0     C65257  -0.946   0.915   6.464 -0.0822  0.2582  0.0624
  495MOL0     N65258  -0.669   1.200   6.822 -0.4466  0.2945  0.4339
  495MOL0     N65259  -0.561   1.160   6.880  0.6583 -0.3659  0.0705
  495MOL0     C65260   0.729   1.358   7.341  0.5119  0.4510  0.5772
  495MOL0     C65261   0.869   1.335   7.332  0.3458  0.3306 -0.4628
  495MOL0     C65262   1.280   1.458   7.162 -0.1790  0.1368  0.4614
  495MOL0     C65263   1.338   1.343   7.204 -0.3886  0.5899  0.3568
  495MOL0     C65264   1.481   1.333   7.203 -0.5563  0.9012  0.6075
  495MOL0     C65265   1.568   1.438   7.163  0.3786  0.1099 -0.3543
  495MOL0     O65266   1.700   1.412   7.156  0.4692  0.3594  0.1851
  495MOL0     C65267   1.781   1.482   7.061 -0.3464 -0.1774 -0.5041
  495MOL0     C65268   1.900   1.553   7.136 -0.2763  0.7781 -0.7671
  495MOL0     C65269   2.035   1.498   7.081  0.5028  0.1354  0.3240
  495MOL0     C65270   2.153   1.560   7.161  0.5162  0.3579  0.2178
  495MOL0     C65271   2.284   1.526   7.102  0.2649  0.3811  0.1576
  495MOL0     C65272   2.395   1.514   7.052  0.6321  0.4353  0.6965
  495MOL0     C65273   1.499   1.552   7.121 -0.4939  0.1354 -0.0116
  495MOL0     C65274   1.357   1.559   7.110 -0.1248  0.0557 -0.0095
  495MOL0     H65275   0.874   1.376   6.992 -0.0625  1.3730  0.1226
  495MOL0     H65276   0.651   1.377   7.010 -0.4668  0.0776  0.0927
  495MOL0     H65277   0.451   1.209   7.148  0.2402  1.4096 -1.6480
  495MOL0     H65278   0.411   1.367   7.080 -1.2754 -0.8265 -0.4734
  495MOL0     H65279   0.252   1.404   7.289  0.6128  0.5733 -1.5762
  495MOL0     H65280   0.300   1.233   7.319  1.6352  0.9268  0.4020
  495MOL0     H65281   0.187   1.150   7.116 -2.4158 -1.7809  2.8205
  495MOL0     H65282   0.161   1.324   7.060 -3.9124  0.4705  1.5184
  495MOL0     H65283   0.017   1.149   7.256 -0.9147 -0.2488  0.1917
  495MOL0     H65284   0.016   1.329   7.285  0.1965 -1.7936  1.5829
  495MOL0     H65285  -0.052   1.190   7.024  2.5134  1.3708 -0.7635
  495MOL0     H65286  -0.082   1.352   7.055  3.2486 -0.7145 -2.7898
  495MOL0     H65287  -0.252   1.270   7.242  1.9518  1.8415 -1.3385
  495MOL0     H65288  -0.201   1.104   7.201  1.3391 -0.2299  0.6451
  495MOL0     H65289  -0.330   1.302   7.009 -1.9031 -0.9613 -2.2767
  495MOL0     H65290  -0.300   1.131   6.982 -2.4426 -0.3574 -0.2581
  495MOL0     H65291  -0.486   1.251   7.197 -1.5862  2.4674 -1.5007
  495MOL0     H65292  -0.483   1.080   7.151  1.7560  0.1589 -0.1822
  495MOL0     H65293  -0.724   1.329   7.109  2.2228  2.7606 -0.8441
  495MOL0     H65294  -0.895   1.388   6.802  2.3073  0.0252  0.4194
  495MOL0     H65295  -0.933   1.354   6.967  0.3435  0.7778 -0.0143
  495MOL0     H65296  -1.084   1.213   6.874  0.1029  0.4909 -1.0047
  495MOL0     H65297  -0.940   1.104   6.875 -0.2648 -0.4224  0.4300
  495MOL0     H65298  -1.022   1.281   6.647 -1.1193 -1.1167 -1.1504
  495MOL0     H65299  -0.902   1.153   6.627 -0.5540 -1.1059 -1.9044
  495MOL0     H65300  -1.196   1.083   6.715  0.3595  1.2122 -0.1659
  495MOL0     H65301  -1.064   0.972   6.685  0.4232  0.9586  0.4812
  495MOL0     H65302  -1.199   0.999   6.267  0.2917 -0.0339  0.7131
  495MOL0     H65303  -1.112   0.838   6.130 -1.1212  2.2763 -0.1249
  495MOL0     H65304  -1.096   0.443   5.998 -0.1543  1.2391 -2.2369
  495MOL0     H65305  -1.033   0.260   5.854  1.9841 -1.4032  2.5469
  495MOL0     H65306  -0.784   0.127   5.911 -0.6638  2.1567 -0.3454
  495MOL0     H65307  -0.638   0.132   5.820 -0.1373  3.7190 -2.0816
  495MOL0     H65308  -0.915   0.017   5.728 -0.1114  2.3490  1.3574
  495MOL0     H65309  -0.780  -0.081   5.804  4.0229  1.0540  0.0573
  495MOL0     H65310  -0.636  -0.024   5.598  0.1142 -2.8856 -0.9761
  495MOL0     H65311  -0.777   0.054   5.536  0.7232 -0.8285 -0.5114
  495MOL0     H65312  -0.759  -0.252   5.608 -0.1302 -1.4135 -1.7760
  495MOL0     H65313  -0.900  -0.161   5.540 -0.2702  1.4399  3.2129
  495MOL0     H65314  -0.777  -0.298   5.395 -1.3118 -0.3522  2.8873
  495MOL0     H65315  -0.634  -0.209   5.393  0.2962  0.1915  2.3239
  495MOL0     H65316  -0.762   0.005   5.318 -0.0924 -0.5372 -1.2991
  495MOL0     H65317  -0.906  -0.090   5.322 -0.2107 -0.2187  5.0329
  495MOL0     H65318  -0.774  -0.046   5.110 -1.0565  0.5069 -0.3014
  495MOL0     H65319  -0.651  -0.165   5.161 -1.0860 -1.4594  1.3685
  495MOL0     H65320  -0.937  -0.250   5.132 -0.0330 -0.5523  2.7542
  495MOL0     H65321  -0.809  -0.343   5.177 -1.0505 -1.0634 -1.7932
  495MOL0     H65322  -0.668   0.447   5.775 -0.4628  1.3358 -2.1863
  495MOL0     H65323  -0.743   0.659   5.895 -1.7722  1.3966 -0.5329
  495MOL0     H65324  -0.795   0.757   6.401  0.0136 -0.9459 -0.3279
  495MOL0     H65325  -0.895   0.937   6.558  2.5653  0.8739 -1.4123
  495MOL0     H65326   0.672   1.358   7.434 -1.6456  5.3201 -0.4519
  495MOL0     H65327   0.933   1.328   7.419 -1.0455  3.0993  0.9082
  495MOL0     H65328   1.271   1.262   7.230  1.1099 -1.2920 -1.3123
  495MOL0     H65329   1.523   1.242   7.244 -0.7077 -0.0979 -1.3246
  495MOL0     H65330   1.724   1.553   7.001 -1.6575  0.5792  1.5027
  495MOL0     H65331   1.820   1.399   7.001 -0.3352 -1.4674  1.1880
  495MOL0     H65332   1.894   1.662   7.125  3.0799  0.9119 -2.7540
  495MOL0     H65333   1.889   1.530   7.242 -0.8758 -3.9731 -1.6210
  495MOL0     H65334   2.054   1.533   6.979 -0.2240 -0.1435  0.0853
  495MOL0     H65335   2.034   1.388   7.082 -0.0710  0.1386  1.0555
  495MOL0     H65336   2.148   1.669   7.158  1.1923  0.3871 -0.0136
  495MOL0     H65337   2.148   1.539   7.268  0.6355  1.9569  0.5520
  495MOL0     H65338   2.496   1.506   7.016 -0.4588  2.4977 -3.4628
  495MOL0     H65339   1.560   1.639   7.096 -0.9273  1.2355  2.4908
  495MOL0     H65340   1.311   1.652   7.079  2.1040  1.4512  0.5972
  496MOL0     O65341   4.916   8.120   5.877 -0.3331 -0.0767  1.0285
  496MOL0     C65342   4.930   8.010   5.931  0.3258 -0.2341  0.6779
  496MOL0     O65343   4.845   7.907   5.914 -0.2234  0.7556  0.7792
  496MOL0     C65344   4.721   7.934   5.859 -0.1739  0.2093  0.4129
  496MOL0     C65345   4.643   8.047   5.890  0.4244  1.8413 -0.6461
  496MOL0     C65346   4.512   8.061   5.840  1.2938 -0.4575 -0.4777
  496MOL0     C65347   4.460   7.962   5.758 -0.3705  0.3776 -0.0879
  496MOL0     O65348   4.330   7.983   5.724 -0.5985 -0.4955  0.6083
  496MOL0     C65349   4.241   7.875   5.730 -0.3937  0.6183 -0.1518
  496MOL0     C65350   4.155   7.879   5.605 -0.5390 -0.2585 -0.6476
  496MOL0     C65351   4.059   7.760   5.602  0.3620 -0.1230  0.5327
  496MOL0     C65352   3.987   7.761   5.469  0.6551  0.8022  0.3404
  496MOL0     C65353   3.845   7.716   5.480 -0.0546  0.9095  0.2814
  496MOL0     C65354   3.783   7.728   5.339  0.4129  0.1633  0.3113
  496MOL0     C65355   3.640   7.677   5.344  0.0340 -0.1270  0.5984
  496MOL0     C65356   3.591   7.677   5.199 -0.5954 -0.1828  0.2694
  496MOL0     N65357   3.450   7.653   5.182  0.3654 -0.5241  0.5529
  496MOL0     C65358   3.381   7.529   5.193 -0.4139 -0.6611 -0.5270
  496MOL0     C65359   3.250   7.569   5.163 -0.2937 -0.9154 -0.6029
  496MOL0     C65360   3.128   7.486   5.153 -0.9590 -0.1792 -0.2802
  496MOL0     C65361   2.994   7.558   5.188  0.2999 -0.1210  0.4007
  496MOL0     C65362   2.892   7.451   5.237 -0.0518 -0.1790 -0.3357
  496MOL0     C65363   2.750   7.486   5.174  0.3677  0.1467 -0.6693
  496MOL0     O65364   2.711   7.620   5.224  0.2768  0.2481 -0.4365
  496MOL0     C65365   2.590   7.663   5.190  0.1872 -1.2637  0.8342
  496MOL0     C65366   2.520   7.751   5.278  0.6711 -0.0657  0.4204
  496MOL0     C65367   2.393   7.806   5.241 -0.2335 -1.2277 -0.7680
  496MOL0     C65368   2.335   7.776   5.113  0.5416  0.4675  0.5092
  496MOL0     C65369   2.196   7.825   5.078 -0.8243 -0.0631  0.1015
  496MOL0     O65370   2.147   7.920   5.157 -0.3182  0.5093  1.0129
  496MOL0     C65371   2.026   7.964   5.143  0.0039 -0.0461 -0.3835
  496MOL0     C65372   1.941   7.946   5.252  0.2553 -0.3402 -0.5694
  496MOL0     C65373   1.813   7.997   5.237  0.5023 -0.4299 -0.3542
  496MOL0     C65374   1.773   8.064   5.119  0.0191 -0.0517 -0.4950
  496MOL0     O65375   1.643   8.107   5.102 -0.5725  0.1300  0.3074
  496MOL0     C65376   1.561   8.066   4.981  0.8626  0.5599 -0.0220
  496MOL0     C65377   1.519   7.918   4.994 -0.4457 -0.1256 -0.2129
  496MOL0     C65378   1.428   7.868   4.878 -0.2312  0.1212 -0.4115
  496MOL0     C65379   1.413   7.719   4.892 -0.3003  0.0704 -0.3364
  496MOL0     C65380   1.359   7.654   4.760 -0.1012  0.0922 -0.2899
  496MOL0     C65381   1.392   7.504   4.752  0.4600  0.3594  0.4207
  496MOL0     C65382   1.283   7.425   4.657 -0.5067 -0.0795 -0.2654
  496MOL0     C65383   1.293   7.478   4.520 -0.0661  0.9493  0.0059
  496MOL0    Cl65384   1.215   7.367   4.395 -0.1346  0.2853 -0.0819
  496MOL0     C65385   1.863   8.076   5.014  0.1948 -0.2938  0.0622
  496MOL0     C65386   1.986   8.027   5.025  0.1643 -0.0743 -0.3034
  496MOL0     O65387   2.132   7.768   4.993 -0.4336  0.1103  0.3295
  496MOL0     C65388   2.406   7.691   5.026 -0.4336  0.0646  0.3486
  496MOL0     C65389   2.529   7.645   5.066  0.5489 -0.0039  0.4786
  496MOL0     N65390   3.247   7.708   5.156  0.6933 -1.2152  0.6327
  496MOL0     N65391   3.363   7.757   5.168  0.2818 -0.4053  0.5273
  496MOL0     C65392   4.539   7.853   5.720 -0.3200 -0.0265 -0.0432
  496MOL0     C65393   4.673   7.840   5.778  0.6353 -0.0665  0.1490
  496MOL0     C65394   5.048   7.987   6.011  0.4863  0.2130 -0.2174
  496MOL0     C65395   5.084   7.863   6.070  0.3441 -0.3106  0.6753
  496MOL0     C65396   5.196   7.856   6.150 -0.0565 -0.4467 -0.6718
  496MOL0     C65397   5.272   7.971   6.190  0.4563 -0.0346 -0.1329
  496MOL0     O65398   5.368   7.946   6.285  0.4209 -0.3549 -0.0643
  496MOL0     C65399   5.491   8.019   6.261 -0.2773  0.5535  0.1230
  496MOL0     C65400   5.491   8.173   6.317  0.0777  0.4865  0.7178
  496MOL0     C65401   5.588   8.193   6.442  0.3583 -0.0102 -0.3711
  496MOL0     C65402   5.730   8.199   6.390  0.0367 -0.2663  0.4614
  496MOL0     C65403   5.837   8.210   6.488 -0.2126  0.7073  0.4526
  496MOL0     C65404   5.929   8.216   6.570 -0.7026  0.5033 -0.2010
  496MOL0     C65405   5.234   8.093   6.135 -0.0302  0.2583  0.4229
  496MOL0     C65406   5.126   8.104   6.046 -0.2621  0.6523 -0.0387
  496MOL0     H65407   4.676   8.127   5.956 -0.3397 -0.1761  2.3720
  496MOL0     H65408   4.452   8.146   5.869  2.5795  0.5457 -0.6236
  496MOL0     H65409   4.175   7.878   5.817  0.2055  2.2025  0.2758
  496MOL0     H65410   4.300   7.786   5.755  0.4138  0.9492 -0.8233
  496MOL0     H65411   4.223   7.880   5.519  1.0977  1.2848  0.5900
  496MOL0     H65412   4.103   7.975   5.609  0.7546  0.5182 -1.5899
  496MOL0     H65413   3.987   7.759   5.684 -0.9237 -1.6248 -0.5515
  496MOL0     H65414   4.117   7.667   5.598 -2.8276 -2.2509 -0.2545
  496MOL0     H65415   3.992   7.862   5.430 -0.0912  2.1679  3.4445
  496MOL0     H65416   4.033   7.694   5.395 -1.8938 -0.1230 -0.5103
  496MOL0     H65417   3.796   7.786   5.549  1.3845  2.5491 -0.2714
  496MOL0     H65418   3.862   7.613   5.511 -1.1510  0.2248 -1.2475
  496MOL0     H65419   3.837   7.674   5.261 -1.0654 -0.6100 -0.2170
  496MOL0     H65420   3.783   7.832   5.304 -1.0385 -0.9827 -3.6488
  496MOL0     H65421   3.619   7.586   5.400 -0.9693 -0.6546 -0.5805
  496MOL0     H65422   3.569   7.749   5.385 -1.3886  0.2221 -2.2321
  496MOL0     H65423   3.651   7.598   5.154  1.0630  0.3743  1.4105
  496MOL0     H65424   3.626   7.772   5.159  1.6986 -0.8929  0.4303
  496MOL0     H65425   3.414   7.429   5.217 -1.2496 -0.4944  1.5643
  496MOL0     H65426   3.140   7.394   5.211 -0.3624 -1.5428 -2.4381
  496MOL0     H65427   3.143   7.458   5.048 -0.9355  1.2424 -0.6708
  496MOL0     H65428   2.953   7.620   5.108  0.1751 -1.1843 -0.3759
  496MOL0     H65429   3.012   7.628   5.270  0.0786 -1.5893  1.7459
  496MOL0     H65430   2.934   7.355   5.206 -0.4651  0.3162 -2.6937
  496MOL0     H65431   2.883   7.465   5.345 -1.5355 -1.2704 -0.2732
  496MOL0     H65432   2.678   7.408   5.202  2.0552 -1.0733  0.5063
  496MOL0     H65433   2.768   7.486   5.067 -0.7018 -0.6462 -0.8587
  496MOL0     H65434   2.561   7.786   5.372  3.9777 -1.7564 -0.2721
  496MOL0     H65435   2.358   7.889   5.302  0.4606 -0.7908 -0.9516
  496MOL0     H65436   1.981   7.893   5.338  1.9480  0.9697 -0.5060
  496MOL0     H65437   1.743   7.963   5.312  2.3372 -3.1973  0.2382
  496MOL0     H65438   1.612   8.085   4.886  1.7446  1.9323  0.6842
  496MOL0     H65439   1.471   8.126   4.966  0.8472  0.7087  0.5981
  496MOL0     H65440   1.461   7.904   5.085  0.2429  0.3608  0.3121
  496MOL0     H65441   1.609   7.855   4.993 -2.0140 -2.5389 -2.5519
  496MOL0     H65442   1.484   7.881   4.785  0.5539 -3.2846 -0.5601
  496MOL0     H65443   1.325   7.905   4.884 -1.6773 -3.6106  1.7899
  496MOL0     H65444   1.506   7.674   4.928 -1.0126 -0.8047  0.4654
  496MOL0     H65445   1.351   7.691   4.978  1.4160 -2.2297  0.2807
  496MOL0     H65446   1.403   7.705   4.674 -0.4250  0.2219 -0.3794
  496MOL0     H65447   1.250   7.665   4.755  0.0186  3.6025  1.9709
  496MOL0     H65448   1.392   7.465   4.854  5.0716  3.6258  2.0240
  496MOL0     H65449   1.495   7.484   4.722  0.5441  1.2346  0.0821
  496MOL0     H65450   1.324   7.325   4.645  2.9577  1.3199 -1.3510
  496MOL0     H65451   1.179   7.433   4.692 -0.5843  2.1833 -0.8594
  496MOL0     H65452   1.397   7.502   4.496 -0.4251  2.2277 -0.3769
  496MOL0     H65453   1.251   7.578   4.503 -2.3529  0.0233 -0.0286
  496MOL0     H65454   1.826   8.125   4.924  2.3408  0.5690 -0.4167
  496MOL0     H65455   2.053   8.028   4.940 -2.6423 -0.9647 -2.6650
  496MOL0     H65456   2.381   7.658   4.926 -0.0276  0.3677  0.1448
  496MOL0     H65457   2.587   7.586   4.996 -0.7552  1.0013 -1.5434
  496MOL0     H65458   4.509   7.774   5.653 -1.3856  1.9400 -2.0202
  496MOL0     H65459   4.728   7.747   5.768  0.0109 -0.5583  1.1033
  496MOL0     H65460   5.020   7.776   6.057  2.1224 -2.0522  2.9117
  496MOL0     H65461   5.214   7.758   6.193 -0.0348 -0.0129  0.3322
  496MOL0     H65462   5.507   8.001   6.154  3.5205  2.4290  0.2076
  496MOL0     H65463   5.575   7.958   6.295 -1.7275 -2.5187 -1.3296
  496MOL0     H65464   5.526   8.243   6.241  0.3021  2.0175  2.1849
  496MOL0     H65465   5.394   8.207   6.353 -0.2243  0.4350 -0.0269
  496MOL0     H65466   5.584   8.113   6.517  0.4930  1.6532  1.4831
  496MOL0     H65467   5.568   8.284   6.500  1.0889  0.3538 -0.6856
  496MOL0     H65468   5.754   8.116   6.323  0.2938  3.0044 -4.0187
  496MOL0     H65469   5.740   8.293   6.334 -0.9597 -1.0353 -1.0592
  496MOL0     H65470   6.011   8.211   6.638  0.5357 -3.4808 -1.7032
  496MOL0     H65471   5.290   8.185   6.145 -1.1961  1.3889 -2.3124
  496MOL0     H65472   5.109   8.202   6.002  0.3441  0.6583 -0.2606
  497MOL0     O65473   7.552   4.256   6.855 -0.6817  0.1259  0.4196
  497MOL0     C65474   7.588   4.268   6.743 -1.0025 -0.7307  0.7364
  497MOL0     O65475   7.507   4.275   6.634  0.4623 -0.1916 -0.1837
  497MOL0     C65476   7.375   4.234   6.630  0.2908 -0.2538  0.7279
  497MOL0     C65477   7.296   4.164   6.725 -1.3467  0.3061  0.1522
  497MOL0     C65478   7.163   4.145   6.714  1.4203 -0.2949  0.1536
  497MOL0     C65479   7.098   4.197   6.591 -0.3470  0.4840 -0.1787
  497MOL0     O65480   6.966   4.182   6.568  0.6940  0.1629  0.0115
  497MOL0     C65481   6.872   4.149   6.677 -0.6989  0.5842  0.4521
  497MOL0     C65482   6.852   4.264   6.772  0.4671 -0.5378 -0.8017
  497MOL0     C65483   6.790   4.223   6.902 -0.5253 -0.2353 -0.0313
  497MOL0     C65484   6.662   4.138   6.885  0.1274 -0.7971 -0.3752
  497MOL0     C65485   6.544   4.217   6.836  0.2853  0.1324  0.2020
  497MOL0     C65486   6.410   4.131   6.829  0.1436 -0.0582  0.4010
  497MOL0     C65487   6.338   4.135   6.961 -0.1505 -0.0764 -0.5519
  497MOL0     C65488   6.211   4.038   6.964 -0.8793 -0.0055  0.3969
  497MOL0     N65489   6.131   4.058   7.088 -0.6091 -0.1460 -0.4660
  497MOL0     C65490   6.063   3.958   7.157  0.0595  0.1945 -0.6628
  497MOL0     C65491   5.971   4.014   7.242 -0.0632  0.2454 -0.0032
  497MOL0     C65492   5.863   3.953   7.331  0.0228  0.3613  0.4352
  497MOL0     C65493   5.918   3.910   7.474  0.6471 -0.3870  0.7313
  497MOL0     C65494   5.964   4.024   7.559 -0.2068 -0.0905 -0.4090
  497MOL0     C65495   5.848   4.108   7.613 -0.0234  0.4685  0.2802
  497MOL0     O65496   5.897   4.215   7.691  0.4217 -0.0026 -0.3985
  497MOL0     C65497   5.808   4.285   7.761  0.4698 -0.8650 -0.4567
  497MOL0     C65498   5.854   4.386   7.852 -0.6409  0.1410 -0.1789
  497MOL0     C65499   5.770   4.452   7.941 -0.1188 -0.1521 -0.4013
  497MOL0     C65500   5.632   4.417   7.943  1.0856  0.1367  0.3345
  497MOL0     C65501   5.530   4.463   8.043 -0.6948 -0.6574  0.0782
  497MOL0     O65502   5.577   4.454   8.175  0.7119  0.0305 -0.2585
  497MOL0     C65503   5.496   4.513   8.265  0.0989 -0.2959 -1.1089
  497MOL0     C65504   5.480   4.651   8.270  0.0614 -0.0718 -0.5716
  497MOL0     C65505   5.428   4.724   8.378  0.1061  0.0785 -0.5380
  497MOL0     C65506   5.396   4.656   8.494 -0.5431 -1.0325 -0.5453
  497MOL0     O65507   5.351   4.725   8.608 -0.5367 -0.5076  0.8367
  497MOL0     C65508   5.344   4.656   8.737  0.2751  0.4306 -0.0698
  497MOL0     C65509   5.384   4.744   8.862  0.2513 -0.0280 -0.4010
  497MOL0     C65510   5.325   4.887   8.873 -0.0159 -0.2791 -0.0956
  497MOL0     C65511   5.324   4.938   9.017  0.2249 -0.1423  1.1497
  497MOL0     C65512   5.286   5.087   9.038  0.3173  0.0410  1.1491
  497MOL0     C65513   5.157   5.137   8.979 -0.0798 -0.4313 -0.2496
  497MOL0     C65514   5.039   5.069   9.048 -0.2558 -0.6098 -0.8199
  497MOL0     C65515   4.909   5.113   8.975  0.5457 -0.8087  0.5228
  497MOL0    Cl65516   4.913   5.037   8.820 -0.0014  0.2231  0.0698
  497MOL0     C65517   5.408   4.516   8.487 -0.0884  0.8100  0.9628
  497MOL0     C65518   5.445   4.441   8.377  0.1993 -0.6275 -0.4665
  497MOL0     O65519   5.426   4.517   8.006  0.1631  0.7136 -0.2627
  497MOL0     C65520   5.584   4.318   7.854  0.4503 -0.9547  1.9442
  497MOL0     C65521   5.668   4.259   7.768  0.3816  1.3351 -0.8764
  497MOL0     N65522   5.994   4.152   7.235  0.4629 -0.0122 -0.0675
  497MOL0     N65523   6.084   4.176   7.138  0.5483  0.0199 -0.8440
  497MOL0     C65524   7.182   4.264   6.494  0.2550  0.0672 -0.7659
  497MOL0     C65525   7.313   4.283   6.516 -0.2992 -0.7722  0.1384
  497MOL0     C65526   7.735   4.273   6.715  0.1775  0.0918 -0.1776
  497MOL0     C65527   7.793   4.282   6.584  0.6499 -0.3843  0.2765
  497MOL0     C65528   7.927   4.281   6.568  0.7792  0.0778  0.8434
  497MOL0     C65529   8.014   4.260   6.667  1.0659  1.0095  1.8538
  497MOL0     O65530   8.149   4.253   6.642 -0.1014 -0.4392 -0.4972
  497MOL0     C65531   8.209   4.257   6.517  0.2946  0.1863  0.2116
  497MOL0     C65532   8.360   4.230   6.522  0.9813 -0.6654 -0.5720
  497MOL0     C65533   8.442   4.298   6.637  0.0884  0.1790 -0.2872
  497MOL0     C65534   8.405   4.264   6.778 -0.1406 -0.7379 -0.1919
  497MOL0     C65535   8.429   4.125   6.820  0.3544  0.1009  0.5666
  497MOL0     C65536   8.443   4.010   6.859 -0.1505  0.6035 -0.2598
  497MOL0     C65537   7.958   4.250   6.796 -0.6308  0.1440 -0.2918
  497MOL0     C65538   7.826   4.262   6.818 -0.1667 -0.6436 -0.0415
  497MOL0     H65539   7.344   4.138   6.818  0.6998  1.4030 -0.5094
  497MOL0     H65540   7.104   4.099   6.792 -3.6202  1.2498 -2.3278
  497MOL0     H65541   6.901   4.068   6.744 -1.3994  1.3713  1.7433
  497MOL0     H65542   6.782   4.131   6.619  0.4084  1.5909 -1.7319
  497MOL0     H65543   6.793   4.342   6.722 -1.1836  0.2773  2.1786
  497MOL0     H65544   6.945   4.312   6.807  0.6515 -1.2148 -0.3482
  497MOL0     H65545   6.771   4.310   6.964  0.6363 -1.2517  1.8473
  497MOL0     H65546   6.862   4.161   6.956 -0.7937  0.0066  0.6080
  497MOL0     H65547   6.670   4.055   6.815 -1.2630 -0.2811 -1.1716
  497MOL0     H65548   6.630   4.097   6.981  0.4627 -1.0231 -0.3567
  497MOL0     H65549   6.566   4.244   6.732 -2.3932  0.0520 -0.4552
  497MOL0     H65550   6.539   4.305   6.901  0.9241  1.6572 -1.6718
  497MOL0     H65551   6.430   4.026   6.806 -1.8185 -0.7912  1.7626
  497MOL0     H65552   6.350   4.176   6.749 -0.5068  0.0583  0.9470
  497MOL0     H65553   6.404   4.105   7.043  0.8833 -0.1293 -1.3778
  497MOL0     H65554   6.306   4.239   6.976 -0.6842 -0.2895 -0.1658
  497MOL0     H65555   6.248   3.935   6.972 -0.7970 -0.0122 -0.0047
  497MOL0     H65556   6.144   4.056   6.879 -2.4864  0.0853  1.6385
  497MOL0     H65557   6.085   3.854   7.136  0.2042  0.6911 -3.2398
  497MOL0     H65558   5.828   3.866   7.276  2.8492 -1.4894  1.3240
  497MOL0     H65559   5.784   4.025   7.351 -1.0334 -0.1659 -1.5767
  497MOL0     H65560   6.005   3.848   7.451  1.3578  0.2132  1.7251
  497MOL0     H65561   5.839   3.854   7.526 -1.6182  2.1788  0.2589
  497MOL0     H65562   6.030   3.984   7.636  1.2170  0.9453 -1.0430
  497MOL0     H65563   6.033   4.092   7.508  0.0120  0.2777  0.3603
  497MOL0     H65564   5.794   4.032   7.670  2.5714 -1.9230 -0.2436
  497MOL0     H65565   5.783   4.135   7.529 -1.4796 -1.1878  0.8190
  497MOL0     H65566   5.955   4.425   7.855 -0.4747 -0.2155 -0.9836
  497MOL0     H65567   5.801   4.532   8.008  0.3317 -1.7850  1.4510
  497MOL0     H65568   5.515   4.709   8.185 -1.6731  2.0545  0.0815
  497MOL0     H65569   5.416   4.832   8.369 -0.0216  0.0817 -0.3498
  497MOL0     H65570   5.414   4.572   8.750  0.1685  0.6845  2.7883
  497MOL0     H65571   5.241   4.619   8.743  0.2925  0.1249 -1.3938
  497MOL0     H65572   5.493   4.738   8.854  0.3866  2.0200 -0.8288
  497MOL0     H65573   5.350   4.693   8.952  1.8860  1.1558  0.9750
  497MOL0     H65574   5.219   4.871   8.848  0.2929 -2.5720 -0.1540
  497MOL0     H65575   5.373   4.956   8.803  0.1014  0.6529  0.8696
  497MOL0     H65576   5.261   4.872   9.078 -1.3290  0.6709  0.4849
  497MOL0     H65577   5.425   4.919   9.055 -0.6215 -0.8835  3.1946
  497MOL0     H65578   5.369   5.142   8.993  2.3471 -1.8304  2.4081
  497MOL0     H65579   5.290   5.106   9.146 -1.1220  0.9034  1.0770
  497MOL0     H65580   5.153   5.114   8.872  4.3877 -0.2312 -0.6181
  497MOL0     H65581   5.162   5.245   8.990  1.1499 -0.4709 -0.3438
  497MOL0     H65582   5.039   4.962   9.026 -0.5163 -0.0962 -3.6456
  497MOL0     H65583   5.044   5.076   9.157  1.0239  0.0478 -0.9023
  497MOL0     H65584   4.902   5.222   8.964 -0.1538 -1.1023 -2.8578
  497MOL0     H65585   4.819   5.082   9.030 -3.0436  0.6760 -3.8922
  497MOL0     H65586   5.381   4.453   8.572  1.4265 -1.7920 -0.3408
  497MOL0     H65587   5.453   4.333   8.373  0.6895 -0.8400  3.0902
  497MOL0     H65588   5.479   4.289   7.857 -1.1136  1.9274 -4.8536
  497MOL0     H65589   5.625   4.177   7.711 -2.5802  0.4719  2.2309
  497MOL0     H65590   7.129   4.300   6.407  2.7304  3.1769 -1.1754
  497MOL0     H65591   7.364   4.345   6.442 -3.0622 -1.5683 -2.6095
  497MOL0     H65592   7.731   4.297   6.497  1.5519 -1.1944 -0.5322
  497MOL0     H65593   7.961   4.292   6.465 -2.2409 -0.0030 -0.2625
  497MOL0     H65594   8.200   4.360   6.481  1.2309  0.4472  0.6862
  497MOL0     H65595   8.159   4.186   6.451 -1.2320  1.1944  0.2427
  497MOL0     H65596   8.378   4.123   6.538  1.2988 -0.8037 -1.7883
  497MOL0     H65597   8.408   4.255   6.427  1.4316  1.7301  0.2327
  497MOL0     H65598   8.441   4.406   6.619  0.0117  0.1625 -0.3872
  497MOL0     H65599   8.545   4.267   6.616 -0.1954  0.8198 -3.0338
  497MOL0     H65600   8.466   4.313   6.855  1.0906 -3.1636  0.4795
  497MOL0     H65601   8.304   4.298   6.803  0.0185 -0.3257 -0.0939
  497MOL0     H65602   8.473   3.915   6.898  1.5811  2.0983  2.3745
  497MOL0     H65603   8.036   4.237   6.871 -2.2626 -1.6834  1.2075
  497MOL0     H65604   7.785   4.256   6.918 -1.3343 -0.7559 -0.5093
  498MOL0     O65605   8.713   2.101   3.711 -1.1766  0.0260  0.2462
  498MOL0     C65606   8.639   2.035   3.635 -0.6427 -0.8192  0.6771
  498MOL0     O65607   8.680   1.974   3.519 -0.3487 -0.4828  0.7592
  498MOL0     C65608   8.804   1.956   3.464  0.3044  0.6505  0.5043
  498MOL0     C65609   8.929   1.963   3.519  0.4844 -0.9065  0.8661
  498MOL0     C65610   9.051   1.942   3.443 -0.8297 -1.0071  0.1390
  498MOL0     C65611   9.041   1.919   3.305 -0.5206 -0.7444  0.0722
  498MOL0     O65612   9.161   1.921   3.228 -0.2171 -1.1205  0.1125
  498MOL0     C65613   9.278   1.872   3.296 -0.3071 -1.4844  0.2954
  498MOL0     C65614   9.378   1.810   3.196 -0.7878  0.4991  0.0373
  498MOL0     C65615   9.435   1.917   3.093 -0.2776 -0.1121  0.1982
  498MOL0     C65616   9.524   1.842   2.993  0.3818 -0.2436  0.6299
  498MOL0     C65617   9.585   1.942   2.893 -0.8783 -0.3187  0.2573
  498MOL0     C65618   9.485   1.989   2.793 -0.6715  0.3817  0.8876
  498MOL0     C65619   9.552   2.072   2.682 -0.0960 -0.4522  0.0673
  498MOL0     C65620   9.453   2.154   2.596  0.2720  0.1297  0.3130
  498MOL0     N65621   9.364   2.065   2.506  0.0207  0.8514 -0.9084
  498MOL0     C65622   9.265   2.119   2.426 -0.8567  0.3230 -0.4904
  498MOL0     C65623   9.214   2.010   2.360  0.1861  0.0268  0.2255
  498MOL0     C65624   9.083   2.020   2.271 -0.7130 -0.3477  0.5647
  498MOL0     C65625   8.954   2.040   2.342 -0.2670 -0.8458  0.5394
  498MOL0     C65626   8.834   2.072   2.238 -0.9698  0.4209 -0.1025
  498MOL0     C65627   8.703   2.011   2.300  0.0196 -0.4679  0.5903
  498MOL0     O65628   8.693   2.066   2.432  0.4668  0.4846 -0.4137
  498MOL0     C65629   8.554   2.072   2.461 -0.2005  0.0271  0.0217
  498MOL0     C65630   8.488   2.188   2.438  0.4679 -0.4228 -0.3147
  498MOL0     C65631   8.347   2.194   2.481 -0.6838 -0.2255 -0.0664
  498MOL0     C65632   8.286   2.083   2.539 -0.1366  0.1586 -0.0874
  498MOL0     C65633   8.156   2.104   2.617 -0.0837 -0.8846  0.0846
  498MOL0     O65634   8.069   2.190   2.549  0.0354 -0.4762 -0.5680
  498MOL0     C65635   7.943   2.214   2.602  0.1929 -0.0407 -0.5314
  498MOL0     C65636   7.864   2.119   2.675 -0.0252  0.2476 -0.2082
  498MOL0     C65637   7.744   2.153   2.726  0.1672 -0.2535 -0.5172
  498MOL0     C65638   7.698   2.280   2.718 -0.1994 -0.4908 -0.2705
  498MOL0     O65639   7.596   2.317   2.799  0.7390  0.4139 -0.0129
  498MOL0     C65640   7.465   2.300   2.752  0.3419  0.2108 -0.0183
  498MOL0     C65641   7.369   2.413   2.804  1.1373  0.9321  0.1832
  498MOL0     C65642   7.228   2.362   2.788 -0.2847 -0.5500 -0.4695
  498MOL0     C65643   7.173   2.396   2.654  0.2933  0.0666  0.0373
  498MOL0     C65644   7.030   2.358   2.651  1.0913 -0.2075  0.1445
  498MOL0     C65645   6.942   2.476   2.670  0.1613 -0.6097 -0.1499
  498MOL0     C65646   6.795   2.440   2.656  0.1150  0.0797  0.5712
  498MOL0     C65647   6.702   2.553   2.626  0.3662 -0.2642  0.2297
  498MOL0    Cl65648   6.706   2.577   2.454 -0.0203  0.1394  0.0094
  498MOL0     C65649   7.773   2.379   2.643 -0.1709  0.6863 -0.7673
  498MOL0     C65650   7.898   2.345   2.589 -0.0364 -0.6299  0.2453
  498MOL0     O65651   8.143   2.053   2.728 -0.6033  0.4242  0.5399
  498MOL0     C65652   8.354   1.965   2.546 -0.6340  1.1614 -0.0673
  498MOL0     C65653   8.491   1.958   2.508  0.4962  0.0211  1.0672
  498MOL0     N65654   9.293   1.906   2.392 -0.4173 -0.0793 -0.8477
  498MOL0     N65655   9.387   1.932   2.472  0.5179 -0.4195 -0.5829
  498MOL0     C65656   8.915   1.918   3.249  0.6124 -1.1378 -0.0675
  498MOL0     C65657   8.804   1.922   3.325  0.3963 -0.5044 -0.5007
  498MOL0     C65658   8.494   2.043   3.661 -0.1010 -0.0498  0.5033
  498MOL0     C65659   8.401   1.986   3.569 -0.7199 -0.4927 -0.1340
  498MOL0     C65660   8.265   1.995   3.592  0.6446 -0.2341  0.4539
  498MOL0     C65661   8.222   2.078   3.704  0.4774 -0.6259  0.5232
  498MOL0     O65662   8.087   2.079   3.744 -0.3803  0.0102 -0.2719
  498MOL0     C65663   7.991   2.044   3.649  0.3875 -0.3571  0.1321
  498MOL0     C65664   7.853   2.061   3.714 -0.3920  0.7894  0.4796
  498MOL0     C65665   7.747   2.012   3.609 -0.5141 -0.5462 -0.0129
  498MOL0     C65666   7.613   2.020   3.669 -0.0169 -1.0404 -0.1233
  498MOL0     C65667   7.508   2.016   3.570 -0.0372 -0.4439 -0.1741
  498MOL0     C65668   7.423   2.026   3.487  1.7441  0.6354  0.5023
  498MOL0     C65669   8.315   2.147   3.786  0.6506 -0.5521  0.2552
  498MOL0     C65670   8.449   2.133   3.758  0.2282 -0.7106  0.4725
  498MOL0     H65671   8.940   1.997   3.622  0.3434 -1.6108  1.1188
  498MOL0     H65672   9.142   1.948   3.501 -1.0305 -0.5079  0.4093
  498MOL0     H65673   9.245   1.790   3.361 -3.4080 -1.6683 -1.3004
  498MOL0     H65674   9.329   1.955   3.346  0.2123 -1.0165 -0.9594
  498MOL0     H65675   9.325   1.735   3.137  0.0842 -0.1030  0.0045
  498MOL0     H65676   9.465   1.774   3.252  0.4347  1.9195 -0.8577
  498MOL0     H65677   9.500   1.986   3.147 -0.2075 -0.2396  0.2767
  498MOL0     H65678   9.352   1.974   3.050  0.1014  1.8537  1.9068
  498MOL0     H65679   9.605   1.782   3.035 -1.8272 -4.4551 -0.5857
  498MOL0     H65680   9.465   1.764   2.945  1.6501  0.4748 -2.3024
  498MOL0     H65681   9.657   1.884   2.834  0.2042 -0.2287  1.4394
  498MOL0     H65682   9.634   2.021   2.951  0.7104 -2.8786  2.7080
  498MOL0     H65683   9.407   2.053   2.836 -1.8080  0.6765 -1.4141
  498MOL0     H65684   9.437   1.903   2.745 -0.2075 -0.7482  2.3835
  498MOL0     H65685   9.621   2.135   2.740  3.4148 -2.3862 -1.6922
  498MOL0     H65686   9.617   2.010   2.621  0.3027  0.3002 -0.2897
  498MOL0     H65687   9.503   2.225   2.529 -1.5850 -0.0447 -1.3826
  498MOL0     H65688   9.381   2.197   2.666  0.2881  3.7505 -1.6623
  498MOL0     H65689   9.231   2.221   2.437 -2.2015  0.1118 -2.2981
  498MOL0     H65690   9.078   1.935   2.203 -3.6457 -0.1001  0.3590
  498MOL0     H65691   9.101   2.112   2.214 -3.8528  0.6180  0.9488
  498MOL0     H65692   8.965   2.128   2.407 -1.8536  0.5309 -0.9701
  498MOL0     H65693   8.944   1.958   2.413  1.0903  0.1230  1.9119
  498MOL0     H65694   8.814   2.180   2.239 -5.2724 -0.1825 -0.2681
  498MOL0     H65695   8.864   2.036   2.139 -0.5753  0.9984 -0.1958
  498MOL0     H65696   8.703   1.901   2.297  0.6585 -0.4669  0.3344
  498MOL0     H65697   8.621   2.044   2.235 -0.0176 -1.6134  0.0293
  498MOL0     H65698   8.537   2.272   2.391 -2.7267  1.9886  0.3253
  498MOL0     H65699   8.281   2.279   2.468 -1.1456 -0.8146 -1.7501
  498MOL0     H65700   7.895   2.018   2.700 -0.9820  0.5154  2.4731
  498MOL0     H65701   7.703   2.085   2.801 -0.4332  3.0214  2.3484
  498MOL0     H65702   7.431   2.205   2.794  1.4367 -0.4921 -0.6814
  498MOL0     H65703   7.467   2.282   2.644 -1.5745 -0.2656 -0.0133
  498MOL0     H65704   7.383   2.504   2.746 -0.8172  0.8088 -0.5631
  498MOL0     H65705   7.401   2.428   2.908  2.4120 -0.2497 -0.0076
  498MOL0     H65706   7.171   2.416   2.864  3.2528  1.5867  0.9161
  498MOL0     H65707   7.226   2.258   2.822  0.2564  0.5963  3.5567
  498MOL0     H65708   7.198   2.503   2.646  0.8213 -0.1075 -0.8684
  498MOL0     H65709   7.233   2.344   2.578  1.3389 -3.2640  2.8966
  498MOL0     H65710   6.998   2.279   2.720 -1.5251 -0.1681 -0.9131
  498MOL0     H65711   7.003   2.311   2.556 -0.2751 -0.7269  0.7554
  498MOL0     H65712   6.971   2.556   2.601  1.9451 -1.1001 -0.0324
  498MOL0     H65713   6.950   2.508   2.775 -0.0634  0.8400 -0.5505
  498MOL0     H65714   6.776   2.371   2.572  1.3564 -0.0656  0.3994
  498MOL0     H65715   6.758   2.379   2.739 -0.8567  0.4390  0.4106
  498MOL0     H65716   6.726   2.644   2.682  1.1776  0.3059 -0.9814
  498MOL0     H65717   6.600   2.528   2.655 -0.5520  2.1748 -0.5906
  498MOL0     H65718   7.740   2.482   2.652 -0.6050  0.4385  0.8584
  498MOL0     H65719   7.961   2.425   2.549  0.3977  1.1729  4.1214
  498MOL0     H65720   8.319   1.874   2.594  1.1709  0.8999  0.8740
  498MOL0     H65721   8.550   1.869   2.524  0.6530  0.0273  0.5605
  498MOL0     H65722   8.910   1.906   3.142  1.2098 -1.1575 -0.0960
  498MOL0     H65723   8.707   1.897   3.283  0.8413 -2.4038 -0.4997
  498MOL0     H65724   8.450   1.913   3.505 -0.7851 -1.0084  0.3949
  498MOL0     H65725   8.189   1.946   3.531 -1.7017 -0.4771  3.3543
  498MOL0     H65726   7.999   1.936   3.632 -0.3483 -0.9434  2.9944
  498MOL0     H65727   7.997   2.092   3.551 -1.6400 -0.7298 -0.2190
  498MOL0     H65728   7.844   2.014   3.812  1.2665  0.0110  0.3033
  498MOL0     H65729   7.828   2.166   3.726  0.0342  1.0898 -1.0694
  498MOL0     H65730   7.773   1.908   3.585  1.3126 -0.7890  2.6539
  498MOL0     H65731   7.767   2.068   3.517  0.4568 -1.8932 -0.6629
  498MOL0     H65732   7.601   1.940   3.742  0.0946 -2.2379 -1.3959
  498MOL0     H65733   7.602   2.118   3.717  0.2272 -0.6817 -0.7942
  498MOL0     H65734   7.353   2.034   3.406  1.2055  0.8215  0.9844
  498MOL0     H65735   8.270   2.221   3.851  3.2787 -1.0959  2.9360
  498MOL0     H65736   8.515   2.200   3.813 -0.9404 -0.2732  1.4037
  499MOL0     O65737   8.741  10.300   8.971  0.0656 -0.1768 -0.2280
  499MOL0     C65738   8.710  10.179   8.967  0.1461 -0.1586  0.1539
  499MOL0     O65739   8.593  10.135   9.016  0.6645  0.3771 -0.8225
  499MOL0     C65740   8.491  10.224   9.054 -0.6140 -0.5256 -0.0094
  499MOL0     C65741   8.470  10.357   9.004  0.0089 -1.1306  0.7456
  499MOL0     C65742   8.375  10.437   9.063 -0.0869 -0.2799  0.3626
  499MOL0     C65743   8.297  10.397   9.176  0.4862  0.1076  0.2397
  499MOL0     O65744   8.188  10.475   9.201  0.4980 -0.1248 -1.1899
  499MOL0     C65745   8.056  10.417   9.234  0.2306  0.8152  1.0515
  499MOL0     C65746   7.954  10.530   9.251 -0.1260 -0.5478  0.2184
  499MOL0     C65747   7.808  10.489   9.256 -0.5439  0.5208 -0.0781
  499MOL0     C65748   7.724  10.615   9.294 -0.3846 -0.6118 -0.0466
  499MOL0     C65749   7.574  10.589   9.307 -0.3095  0.6985 -0.5629
  499MOL0     C65750   7.496  10.723   9.321 -0.0459  0.2133 -0.0682
  499MOL0     C65751   7.349  10.704   9.306  0.0180  0.2208 -0.2578
  499MOL0     C65752   7.285  10.817   9.383  0.3828  0.1155 -0.4631
  499MOL0     N65753   7.136  10.792   9.377  0.2973  0.3354 -0.4756
  499MOL0     C65754   7.043  10.772   9.479  0.0671  0.1451 -0.5158
  499MOL0     C65755   6.921  10.761   9.421  0.2330  0.3335 -0.4355
  499MOL0     C65756   6.792  10.728   9.485  1.0286  0.4456  0.4458
  499MOL0     C65757   6.693  10.852   9.508 -0.3664 -1.4903  0.0477
  499MOL0     C65758   6.656  10.937   9.380  0.1576 -0.5702 -0.6950
  499MOL0     C65759   6.558  10.862   9.293  0.5173  0.4463 -0.2199
  499MOL0     O65760   6.433  10.840   9.363 -0.4059  0.3716  0.5275
  499MOL0     C65761   6.321  10.788   9.301 -0.0988  0.1142 -0.4506
  499MOL0     C65762   6.323  10.739   9.173  0.2850 -0.0059  1.0682
  499MOL0     C65763   6.196  10.694   9.114 -0.3904  0.1979  0.2387
  499MOL0     C65764   6.081  10.686   9.184 -0.1630 -0.6901  0.6298
  499MOL0     C65765   5.959  10.634   9.123  0.5528  0.3299  0.3743
  499MOL0     O65766   5.858  10.593   9.215 -0.1279 -0.1232 -0.0894
  499MOL0     C65767   5.739  10.532   9.167 -0.6505  0.3088  0.2734
  499MOL0     C65768   5.722  10.426   9.072 -0.1912 -0.9499  0.5427
  499MOL0     C65769   5.599  10.385   9.024  0.8807  1.1091  0.2255
  499MOL0     C65770   5.475  10.435   9.078  0.4838  0.0544 -0.2905
  499MOL0     O65771   5.352  10.385   9.043  0.4274  0.4453  0.6028
  499MOL0     C65772   5.347  10.289   8.939 -0.4926 -0.2594 -0.2478
  499MOL0     C65773   5.195  10.249   8.919 -0.2109  0.3191  0.4894
  499MOL0     C65774   5.110  10.377   8.875  0.4907  0.0242  0.3077
  499MOL0     C65775   4.952  10.356   8.870 -0.4394 -0.1853  0.7304
  499MOL0     C65776   4.903  10.237   8.778 -0.2560  0.0252 -0.3400
  499MOL0     C65777   4.756  10.207   8.798  0.3002 -0.3044 -0.1624
  499MOL0     C65778   4.656  10.316   8.743  0.2715  0.2460 -0.3363
  499MOL0     C65779   4.517  10.297   8.790  0.0321  1.1092 -0.9162
  499MOL0    Cl65780   4.460  10.146   8.715  0.3973 -0.0201 -0.1768
  499MOL0     C65781   5.482  10.533   9.183 -1.4106  0.0907  0.4771
  499MOL0     C65782   5.613  10.583   9.221  0.5875  0.8451  0.8172
  499MOL0     O65783   5.956  10.614   9.001  0.2802 -0.4664 -0.2033
  499MOL0     C65784   6.081  10.727   9.318  0.7051  0.8346  0.0677
  499MOL0     C65785   6.198  10.785   9.367 -0.5086 -0.0862  1.0307
  499MOL0     N65786   6.932  10.784   9.289 -1.2914 -0.1054  0.0224
  499MOL0     N65787   7.059  10.799   9.259  0.0908  0.2349 -0.2926
  499MOL0     C65788   8.322  10.264   9.223  0.4040 -0.4117 -0.5187
  499MOL0     C65789   8.419  10.188   9.168 -0.3553 -1.0697  0.3519
  499MOL0     C65790   8.803  10.091   8.891 -0.2306 -0.2881  0.0826
  499MOL0     C65791   8.921  10.143   8.837 -1.0076  0.0429 -0.0389
  499MOL0     C65792   8.999  10.065   8.758 -0.0331 -0.2965  0.0278
  499MOL0     C65793   8.974   9.932   8.727 -0.0306 -0.1389 -0.7529
  499MOL0     O65794   9.073   9.877   8.652  0.1848 -0.1466 -0.0991
  499MOL0     C65795   9.031   9.757   8.579  0.3011  0.2598 -0.2391
  499MOL0     C65796   9.128   9.724   8.468  0.2860 -0.3174 -0.8458
  499MOL0     C65797   9.251   9.660   8.518 -0.0117 -0.1646  0.4202
  499MOL0     C65798   9.367   9.703   8.428  0.3566  0.5771 -0.6149
  499MOL0     C65799   9.489   9.629   8.466 -0.5345  0.3330  0.4346
  499MOL0     C65800   9.600   9.563   8.477  0.2904 -0.2863 -0.6281
  499MOL0     C65801   8.857   9.876   8.784 -0.1093 -0.6641 -0.0066
  499MOL0     C65802   8.778   9.957   8.849  0.8659  0.6449 -0.8719
  499MOL0     H65803   8.529  10.405   8.927 -1.9933  5.2757  2.5703
  499MOL0     H65804   8.345  10.522   9.004  2.0977  0.0946 -0.3216
  499MOL0     H65805   8.060  10.349   9.319  2.7668 -2.8362 -1.6848
  499MOL0     H65806   8.006  10.362   9.154 -1.2241  1.5865  1.3963
  499MOL0     H65807   7.973  10.603   9.172 -0.5028 -0.0836  0.5508
  499MOL0     H65808   7.983  10.579   9.345 -0.9025  5.9627 -2.3750
  499MOL0     H65809   7.803  10.407   9.329  1.5613 -0.2328 -0.7040
  499MOL0     H65810   7.781  10.463   9.154 -3.0243 -1.4335  0.9929
  499MOL0     H65811   7.760  10.665   9.384 -3.4107  2.5301 -0.4109
  499MOL0     H65812   7.733  10.690   9.215 -1.8752  1.4030  1.5891
  499MOL0     H65813   7.550  10.521   9.389 -4.2588  1.9809 -0.4671
  499MOL0     H65814   7.554  10.528   9.219 -0.0835  3.1784 -2.4424
  499MOL0     H65815   7.536  10.795   9.249  2.4042 -0.5859  0.3857
  499MOL0     H65816   7.515  10.765   9.420  0.1220  0.9504 -0.4073
  499MOL0     H65817   7.335  10.713   9.197 -1.0571 -2.5954 -0.4493
  499MOL0     H65818   7.299  10.612   9.338  0.4259 -0.2370 -0.9072
  499MOL0     H65819   7.323  10.913   9.345 -0.1763 -0.6210 -3.0753
  499MOL0     H65820   7.321  10.815   9.486 -1.8475  1.0718  0.4073
  499MOL0     H65821   7.072  10.753   9.582  2.7324  2.2807 -0.7426
  499MOL0     H65822   6.824  10.681   9.579  0.4867 -1.6324 -0.3542
  499MOL0     H65823   6.744  10.650   9.425  0.9674 -0.0747  1.1541
  499MOL0     H65824   6.740  10.917   9.582 -1.4780 -3.7551  2.9708
  499MOL0     H65825   6.593  10.833   9.548 -0.7711  1.7921  0.8594
  499MOL0     H65826   6.617  11.034   9.412  1.5155 -0.3426  0.3827
  499MOL0     H65827   6.752  10.960   9.333  0.8753 -0.2436  0.8453
  499MOL0     H65828   6.609  10.765   9.286 -0.0187  0.1278  0.2652
  499MOL0     H65829   6.547  10.906   9.194  1.8740 -1.4791 -1.2992
  499MOL0     H65830   6.412  10.728   9.112 -1.1610  1.0247 -1.3523
  499MOL0     H65831   6.203  10.658   9.011  0.7181  1.9549 -0.3516
  499MOL0     H65832   5.820  10.395   9.035  0.5990  2.1911 -0.3238
  499MOL0     H65833   5.603  10.299   8.959 -2.1639 -0.4793  1.8969
  499MOL0     H65834   5.396  10.194   8.964 -0.4309 -0.3778 -0.8031
  499MOL0     H65835   5.388  10.331   8.847 -3.1879  0.7995 -1.0692
  499MOL0     H65836   5.157  10.212   9.015  0.3460  1.2324  1.0806
  499MOL0     H65837   5.188  10.172   8.842 -2.8281  0.5687  0.3653
  499MOL0     H65838   5.158  10.418   8.785  0.1742  1.1354  0.6349
  499MOL0     H65839   5.129  10.455   8.949 -4.9365  1.9787  0.0857
  499MOL0     H65840   4.926  10.334   8.974  2.0720 -1.7554  1.1100
  499MOL0     H65841   4.890  10.444   8.849 -0.3547 -0.6695 -1.8293
  499MOL0     H65842   4.954  10.148   8.818 -2.8379 -0.8467  1.2599
  499MOL0     H65843   4.925  10.271   8.677  4.6864  3.0263  1.3694
  499MOL0     H65844   4.739  10.206   8.906 -1.5570  0.8339 -0.3964
  499MOL0     H65845   4.726  10.111   8.754  0.7208 -0.3990 -0.2416
  499MOL0     H65846   4.688  10.419   8.760 -0.4136  0.2178  1.2957
  499MOL0     H65847   4.648  10.307   8.634  0.8061 -2.4686 -0.2280
  499MOL0     H65848   4.445  10.376   8.770 -2.3800 -0.7453 -0.0663
  499MOL0     H65849   4.525  10.297   8.899 -0.5656  0.1810 -0.8612
  499MOL0     H65850   5.400  10.570   9.243 -1.1837 -0.4250  1.1097
  499MOL0     H65851   5.621  10.653   9.303 -1.3556  0.8431  1.0526
  499MOL0     H65852   5.991  10.721   9.378  1.0352 -0.2259  0.4784
  499MOL0     H65853   6.192  10.832   9.464 -0.4943  1.0602  0.4861
  499MOL0     H65854   8.268  10.222   9.307  0.6907 -1.7476 -0.9654
  499MOL0     H65855   8.455  10.101   9.222  0.0589 -1.4326 -0.4787
  499MOL0     H65856   8.950  10.247   8.850 -0.7650  0.2588 -2.0986
  499MOL0     H65857   9.086  10.104   8.706  1.5139 -3.3767  0.0584
  499MOL0     H65858   8.936   9.779   8.530  0.4022 -2.0313 -1.5905
  499MOL0     H65859   9.012   9.682   8.657 -4.3319  2.8099  1.4559
  499MOL0     H65860   9.075   9.658   8.399  0.4732  0.3184 -1.6136
  499MOL0     H65861   9.158   9.817   8.418 -1.3693 -0.1455 -1.5725
  499MOL0     H65862   9.233   9.552   8.519 -3.2522  0.2818  1.7963
  499MOL0     H65863   9.277   9.693   8.619  0.6292  0.7907 -0.0417
  499MOL0     H65864   9.339   9.692   8.323  0.0967 -1.8834 -0.3481
  499MOL0     H65865   9.378   9.806   8.464 -1.0424  0.9893 -1.3255
  499MOL0     H65866   9.695   9.514   8.480  0.4622  0.0938  0.8808
  499MOL0     H65867   8.826   9.773   8.769 -2.2511 -0.0747  0.1302
  499MOL0     H65868   8.685   9.913   8.882  2.1000 -0.8063  0.8738
  500MOL0     O65869   8.328   9.207   7.955  0.0271 -0.1204 -0.6165
  500MOL0     C65870   8.218   9.154   7.990  0.0998 -0.5262 -0.1416
  500MOL0     O65871   8.191   9.017   7.986 -0.1630 -0.2081 -0.0794
  500MOL0     C65872   8.287   8.922   7.979  0.6960 -0.6188 -0.4396
  500MOL0     C65873   8.414   8.927   8.039 -0.8847  0.9413 -0.2270
  500MOL0     C65874   8.496   8.812   8.028  0.2265 -0.9272 -0.9707
  500MOL0     C65875   8.448   8.688   7.964  0.2838 -1.2540  0.3865
  500MOL0     O65876   8.520   8.575   7.956  0.4908 -1.1375 -0.4742
  500MOL0     C65877   8.656   8.573   8.011 -0.7972 -0.0652  0.2476
  500MOL0     C65878   8.654   8.554   8.164 -0.5973 -0.3056  0.3284
  500MOL0     C65879   8.791   8.528   8.230 -0.0785  0.2166 -0.3993
  500MOL0     C65880   8.919   8.595   8.167  0.4564 -0.0672  0.7022
  500MOL0     C65881   9.038   8.519   8.227 -0.1493  0.2444  0.3192
  500MOL0     C65882   9.165   8.610   8.208  0.3408 -0.4166 -0.3801
  500MOL0     C65883   9.293   8.571   8.278  0.0025  0.4244  0.4832
  500MOL0     C65884   9.361   8.461   8.199  0.2729 -0.7553 -0.0453
  500MOL0     N65885   9.335   8.326   8.259  0.4470  0.1684 -0.3931
  500MOL0     C65886   9.286   8.212   8.190 -0.5927 -1.2186  0.4927
  500MOL0     C65887   9.274   8.117   8.288  1.0819  0.1783 -0.4515
  500MOL0     C65888   9.208   7.985   8.262 -0.7304  0.1605 -0.2367
  500MOL0     C65889   9.301   7.863   8.286 -0.0113 -0.4000  0.5711
  500MOL0     C65890   9.260   7.770   8.395  0.5222 -0.1313  0.7714
  500MOL0     C65891   9.283   7.828   8.536  0.4300 -0.5875  1.1348
  500MOL0     O65892   9.270   7.732   8.641  0.2472  0.2796  0.6381
  500MOL0     C65893   9.139   7.696   8.658  0.8229  0.4864  0.0315
  500MOL0     C65894   9.085   7.576   8.607  0.0214  0.1025 -0.6124
  500MOL0     C65895   8.949   7.540   8.641  0.5316  0.7328 -0.4284
  500MOL0     C65896   8.875   7.624   8.729  0.2653  0.0581 -0.2219
  500MOL0     C65897   8.734   7.587   8.764  0.2943  0.2937 -0.1944
  500MOL0     O65898   8.675   7.666   8.854 -0.1829  0.4109  0.0505
  500MOL0     C65899   8.539   7.661   8.875  0.3321  0.8417  1.1812
  500MOL0     C65900   8.445   7.625   8.771 -0.5942  0.6876 -0.0272
  500MOL0     C65901   8.309   7.642   8.802  0.6254  0.0158  0.8268
  500MOL0     C65902   8.263   7.675   8.926  0.3126 -0.9561  0.6732
  500MOL0     O65903   8.130   7.695   8.957 -0.0690  0.3545  0.2223
  500MOL0     C65904   8.034   7.653   8.860  0.0681 -0.3766 -0.7839
  500MOL0     C65905   7.902   7.679   8.932  0.8359  0.0028 -0.0337
  500MOL0     C65906   7.773   7.630   8.855 -0.4166 -0.1254 -0.8236
  500MOL0     C65907   7.639   7.672   8.927  0.4858 -0.1554  0.8515
  500MOL0     C65908   7.510   7.671   8.835  0.1833 -0.3025  0.0180
  500MOL0     C65909   7.462   7.525   8.823 -0.9007  0.0673  0.2614
  500MOL0     C65910   7.339   7.509   8.725 -1.0047 -0.5005 -0.8813
  500MOL0     C65911   7.211   7.583   8.776  0.7024  0.3978 -0.4513
  500MOL0    Cl65912   7.091   7.545   8.652 -0.0669 -0.2122  0.1406
  500MOL0     C65913   8.357   7.718   9.021  0.2562  0.5752 -0.3371
  500MOL0     C65914   8.496   7.714   9.001 -0.0832 -0.1895  0.1059
  500MOL0     O65915   8.691   7.476   8.728 -0.5937  0.3500  0.1700
  500MOL0     C65916   8.944   7.727   8.798  0.4027 -0.2560  0.0098
  500MOL0     C65917   9.076   7.771   8.764  0.1257  1.4508 -0.3812
  500MOL0     N65918   9.320   8.162   8.403  0.6614 -0.3806 -0.1816
  500MOL0     N65919   9.366   8.275   8.386 -0.5275 -0.2202 -0.0321
  500MOL0     C65920   8.327   8.697   7.902  0.5927 -0.9666  0.0692
  500MOL0     C65921   8.241   8.808   7.920 -1.1129 -0.0079  0.1341
  500MOL0     C65922   8.101   9.241   8.035 -0.0869  0.1443  0.0151
  500MOL0     C65923   8.113   9.382   8.045 -1.1155  0.0515 -0.1911
  500MOL0     C65924   8.004   9.457   8.075  0.4184  0.4938 -0.0388
  500MOL0     C65925   7.877   9.399   8.102 -0.1922  1.1547  0.7010
  500MOL0     O65926   7.768   9.474   8.142  0.7039 -0.5664 -0.2447
  500MOL0     C65927   7.763   9.615   8.154  0.4380  0.0341 -0.2540
  500MOL0     C65928   7.627   9.672   8.200  0.1348 -0.3890 -0.2805
  500MOL0     C65929   7.581   9.633   8.343  0.2015 -0.5769  0.2776
  500MOL0     C65930   7.451   9.713   8.356 -0.0095 -0.2619 -0.3061
  500MOL0     C65931   7.410   9.682   8.493  0.6068 -0.5341 -0.9299
  500MOL0     C65932   7.371   9.654   8.608  0.3254 -0.1429  0.8320
  500MOL0     C65933   7.868   9.258   8.100  0.4852 -0.4348 -0.7821
  500MOL0     C65934   7.977   9.178   8.063 -0.1854 -0.1471 -0.0199
  500MOL0     H65935   8.443   9.025   8.075 -1.0178  1.2723 -1.0122
  500MOL0     H65936   8.589   8.815   8.084  0.9222 -0.2026 -2.1307
  500MOL0     H65937   8.717   8.661   7.987 -0.3856 -0.8986 -2.0203
  500MOL0     H65938   8.700   8.488   7.959 -1.7320 -0.4281  0.0246
  500MOL0     H65939   8.594   8.465   8.185  0.2438 -0.7312  0.9742
  500MOL0     H65940   8.610   8.637   8.219 -0.2724 -0.2421  0.4920
  500MOL0     H65941   8.807   8.420   8.238  0.8915  0.4684  1.6592
  500MOL0     H65942   8.781   8.559   8.334 -1.1210  0.7930 -0.6614
  500MOL0     H65943   8.925   8.596   8.058  1.9661  0.2654  0.7721
  500MOL0     H65944   8.916   8.700   8.198  0.3077  1.0618 -2.7144
  500MOL0     H65945   9.053   8.424   8.176  3.3758  0.0364  1.4471
  500MOL0     H65946   9.019   8.504   8.334  0.7609  1.1502  0.6312
  500MOL0     H65947   9.137   8.707   8.249 -1.6180 -0.4352 -1.5329
  500MOL0     H65948   9.186   8.621   8.101  4.5946 -1.9014  0.1267
  500MOL0     H65949   9.360   8.657   8.276 -0.6309  0.9603 -3.0043
  500MOL0     H65950   9.277   8.525   8.376 -1.2951 -1.7683 -0.6627
  500MOL0     H65951   9.462   8.503   8.197  0.1626 -0.2228  2.5155
  500MOL0     H65952   9.319   8.467   8.098 -2.4269  1.7950  1.0467
  500MOL0     H65953   9.273   8.214   8.083  2.6760  0.3364 -0.0148
  500MOL0     H65954   9.176   7.979   8.158 -1.6250 -1.9134  0.1024
  500MOL0     H65955   9.123   7.972   8.331  0.6542 -2.8405  1.0855
  500MOL0     H65956   9.398   7.904   8.313 -0.4046  0.8388  0.1903
  500MOL0     H65957   9.305   7.799   8.197  2.3076  0.9383 -0.3767
  500MOL0     H65958   9.154   7.747   8.386 -0.0737  1.4880  2.8248
  500MOL0     H65959   9.319   7.678   8.404  0.4061 -0.0264  3.6297
  500MOL0     H65960   9.210   7.908   8.550 -2.3665 -2.9216  0.9299
  500MOL0     H65961   9.385   7.866   8.547 -0.8859  3.7605  0.0703
  500MOL0     H65962   9.144   7.509   8.546 -1.0284 -0.4985 -1.0029
  500MOL0     H65963   8.889   7.465   8.590  0.3084  1.1966 -0.8619
  500MOL0     H65964   8.474   7.596   8.671  2.2610 -1.9282  1.3844
  500MOL0     H65965   8.231   7.622   8.729  1.0995  1.9753 -0.2940
  500MOL0     H65966   8.036   7.548   8.831 -1.7855 -0.5344 -0.4934
  500MOL0     H65967   8.037   7.718   8.772  2.2051 -0.3399 -0.7227
  500MOL0     H65968   7.903   7.787   8.946  1.1786 -0.2237  2.2615
  500MOL0     H65969   7.908   7.617   9.023  0.0107 -0.7796 -0.5003
  500MOL0     H65970   7.774   7.521   8.850 -1.4242 -0.4024  2.7264
  500MOL0     H65971   7.774   7.680   8.757  2.0061  2.5960  0.4057
  500MOL0     H65972   7.623   7.611   9.016 -1.1459  1.1562  1.5110
  500MOL0     H65973   7.642   7.777   8.958 -1.5395  0.1459  0.1540
  500MOL0     H65974   7.542   7.716   8.740  0.2845  0.2724  0.3223
  500MOL0     H65975   7.436   7.735   8.884 -0.5150 -1.8088  0.9776
  500MOL0     H65976   7.424   7.487   8.918  0.6681  0.5850  1.1168
  500MOL0     H65977   7.541   7.458   8.787 -2.4827 -1.0652 -1.3187
  500MOL0     H65978   7.366   7.545   8.625 -1.2000 -0.2658 -0.8497
  500MOL0     H65979   7.317   7.402   8.725 -1.3133 -0.4396 -0.6459
  500MOL0     H65980   7.239   7.689   8.776 -1.0408  0.8834  0.1320
  500MOL0     H65981   7.172   7.535   8.867 -2.9950  2.3083 -0.8302
  500MOL0     H65982   8.318   7.756   9.115  0.8118  1.3061 -0.3869
  500MOL0     H65983   8.569   7.749   9.073 -1.3023  2.5460  0.1231
  500MOL0     H65984   8.894   7.783   8.876  2.0507  2.9311 -1.0374
  500MOL0     H65985   9.114   7.858   8.817  1.0354  1.0674 -0.3698
  500MOL0     H65986   8.302   8.608   7.845  3.6335  1.1140 -5.2784
  500MOL0     H65987   8.142   8.812   7.877 -1.2909  0.4202  0.5692
  500MOL0     H65988   8.204   9.427   8.008  0.0033 -1.2133  0.9078
  500MOL0     H65989   8.016   9.564   8.089 -0.5964  0.3880  1.8873
  500MOL0     H65990   7.796   9.671   8.065 -2.2480  3.7484  0.8572
  500MOL0     H65991   7.835   9.639   8.233  1.5173 -4.4073  0.4027
  500MOL0     H65992   7.643   9.780   8.195  0.0088 -0.3604 -0.0696
  500MOL0     H65993   7.550   9.641   8.128 -1.1049  2.3178 -0.2310
  500MOL0     H65994   7.658   9.664   8.414 -0.2417  0.3729  0.3701
  500MOL0     H65995   7.571   9.525   8.350  0.8575 -0.6009  1.0271
  500MOL0     H65996   7.466   9.821   8.344 -2.2944  0.1476 -0.0181
  500MOL0     H65997   7.369   9.696   8.285  0.2683 -0.9370 -0.4699
  500MOL0     H65998   7.342   9.628   8.708  0.9435  0.7867  1.2740
  500MOL0     H65999   7.771   9.217   8.128  1.1166 -0.1414  2.1392
  500MOL0     H66000   7.965   9.071   8.063  3.3738 -0.6764  0.1203
  501MOL0     O66001   2.298   1.864   5.827  0.1240 -0.6161 -0.3259
  501MOL0     C66002   2.380   1.948   5.797 -0.1080  0.6504 -0.7432
  501MOL0     O66003   2.353   2.063   5.742 -0.4583 -0.4244 -1.2169
  501MOL0     C66004   2.227   2.111   5.715  0.1076  0.3496 -0.0724
  501MOL0     C66005   2.127   2.045   5.641 -0.0214  0.1664  0.5497
  501MOL0     C66006   1.999   2.101   5.626  0.0985  0.3805  0.1797
  501MOL0     C66007   1.971   2.229   5.679  0.6867  0.2211 -0.3875
  501MOL0     O66008   1.836   2.272   5.659 -0.3620 -0.1103  1.0672
  501MOL0     C66009   1.814   2.409   5.688 -0.3109  0.1813  0.8136
  501MOL0     C66010   1.666   2.452   5.687  0.1868  0.2654  0.1089
  501MOL0     C66011   1.618   2.477   5.543 -0.1531 -0.4718 -0.3912
  501MOL0     C66012   1.607   2.355   5.451  0.3060 -0.5107  1.0325
  501MOL0     C66013   1.465   2.342   5.388 -0.1086  0.0937  0.2352
  501MOL0     C66014   1.364   2.290   5.507 -0.1151  0.0295 -0.0399
  501MOL0     C66015   1.220   2.277   5.458 -1.3563  0.8522  1.6115
  501MOL0     C66016   1.122   2.219   5.559 -0.1213 -0.0871  0.5881
  501MOL0     N66017   0.986   2.201   5.514  0.6550 -0.2225 -0.7991
  501MOL0     C66018   0.939   2.144   5.399  0.1245 -0.1627  0.4328
  501MOL0     C66019   0.810   2.136   5.397  0.7716  0.7811 -0.1079
  501MOL0     C66020   0.731   2.070   5.295  0.0016 -0.0198 -0.1020
  501MOL0     C66021   0.640   2.168   5.220  0.0510  0.4945 -1.2397
  501MOL0     C66022   0.595   2.108   5.094 -0.8890 -0.1661  0.0025
  501MOL0     C66023   0.474   2.178   5.037  0.3096 -0.7815  0.1518
  501MOL0     O66024   0.418   2.106   4.929 -0.2843  0.4487 -0.1817
  501MOL0     C66025   0.284   2.070   4.939  0.4007  0.7878  0.7096
  501MOL0     C66026   0.218   2.019   5.055  0.4055 -0.1557  0.5883
  501MOL0     C66027   0.078   1.989   5.054 -0.0213 -0.4658 -0.4704
  501MOL0     C66028   0.004   2.019   4.935 -0.3647 -0.1477 -0.0679
  501MOL0     C66029  -0.145   1.990   4.932 -0.3715  0.1985  0.1387
  501MOL0     O66030  -0.201   1.934   5.042  0.2683 -0.0466  0.3082
  501MOL0     C66031  -0.337   1.902   5.062  0.1379  0.4020 -0.2990
  501MOL0     C66032  -0.435   1.966   4.994 -0.5639  0.2446 -0.1073
  501MOL0     C66033  -0.557   1.961   5.046  0.1531  0.3376 -0.4411
  501MOL0     C66034  -0.589   1.892   5.162  0.2824  0.4337  0.5519
  501MOL0     O66035  -0.709   1.887   5.228  0.3128 -0.7359 -0.1895
  501MOL0     C66036  -0.817   1.951   5.151 -0.0900  0.2144  0.3314
  501MOL0     C66037  -0.959   1.937   5.225 -0.5829 -0.6257  0.2393
  501MOL0     C66038  -1.074   2.010   5.149  0.3790  0.2444 -0.7623
  501MOL0     C66039  -1.208   1.989   5.216  0.8514  0.2661 -0.5504
  501MOL0     C66040  -1.317   2.049   5.133  0.0236 -0.7762  0.1044
  501MOL0     C66041  -1.461   2.054   5.197 -0.2445 -0.3671  0.3726
  501MOL0     C66042  -1.562   2.118   5.096  0.4318  0.1159  0.5226
  501MOL0     C66043  -1.698   2.128   5.173 -0.2973 -0.0946  0.3665
  501MOL0    Cl66044  -1.812   2.159   5.043  0.2659  0.0094 -0.4442
  501MOL0     C66045  -0.491   1.817   5.224 -0.2286  0.7309  0.1477
  501MOL0     C66046  -0.362   1.821   5.172 -0.5506 -0.0261 -0.4770
  501MOL0     O66047  -0.201   2.013   4.828  0.2711 -0.4002 -0.1259
  501MOL0     C66048   0.070   2.056   4.825 -0.3522 -0.0608  0.7609
  501MOL0     C66049   0.204   2.082   4.822 -0.7175  0.6069  1.2364
  501MOL0     N66050   0.768   2.208   5.508  0.6290 -0.5195 -0.6037
  501MOL0     N66051   0.873   2.244   5.574  0.3681 -0.1973  0.4773
  501MOL0     C66052   2.069   2.308   5.734  0.1565 -0.1710 -0.8792
  501MOL0     C66053   2.194   2.241   5.758 -0.3074  0.1164  0.4945
  501MOL0     C66054   2.525   1.929   5.823  0.7429 -0.3041  0.3740
  501MOL0     C66055   2.619   2.035   5.807 -0.4974 -0.0079  0.0262
  501MOL0     C66056   2.755   2.006   5.839 -0.0559 -0.0834 -0.9062
  501MOL0     C66057   2.800   1.882   5.883  0.2894  0.7447  0.3719
  501MOL0     O66058   2.929   1.851   5.919 -0.6272  0.3044 -0.3162
  501MOL0     C66059   3.029   1.951   5.899  0.5361 -0.4212 -0.0433
  501MOL0     C66060   3.027   2.045   6.022 -0.1006  0.2979 -0.4432
  501MOL0     C66061   3.061   1.977   6.155 -0.0005 -0.6135 -0.5335
  501MOL0     C66062   3.039   2.067   6.280  0.0582  0.0198 -0.8489
  501MOL0     C66063   2.901   2.119   6.289 -0.7691 -0.0353  0.4889
  501MOL0     C66064   2.807   2.194   6.304 -0.0414 -1.4739 -0.1757
  501MOL0     C66065   2.705   1.783   5.887 -0.1674  0.1421 -0.1487
  501MOL0     C66066   2.573   1.804   5.865  0.8599 -0.4368  0.2679
  501MOL0     H66067   2.138   1.945   5.599  2.5285  0.8661 -0.6113
  501MOL0     H66068   1.926   2.031   5.586  1.5374 -0.8269 -0.4543
  501MOL0     H66069   1.867   2.470   5.614  3.6764 -3.7396  0.0170
  501MOL0     H66070   1.848   2.433   5.789  0.4027  0.8723  0.4201
  501MOL0     H66071   1.647   2.541   5.747 -4.0903  1.2496 -2.2995
  501MOL0     H66072   1.614   2.368   5.733  1.0712 -2.4371 -3.3389
  501MOL0     H66073   1.693   2.545   5.502 -1.2127 -0.7944 -3.1081
  501MOL0     H66074   1.519   2.520   5.560 -0.6255 -2.0765  1.2795
  501MOL0     H66075   1.686   2.364   5.375  0.9974 -1.8495  1.5646
  501MOL0     H66076   1.638   2.269   5.511  1.3241  2.0918  4.5969
  501MOL0     H66077   1.466   2.270   5.306  2.9742  1.0018 -0.6614
  501MOL0     H66078   1.426   2.431   5.337  0.3386 -0.9119 -2.0149
  501MOL0     H66079   1.377   2.366   5.585  1.3606 -0.9772  0.7443
  501MOL0     H66080   1.404   2.195   5.541  1.4837  0.2452 -1.2239
  501MOL0     H66081   1.190   2.371   5.411 -2.2428 -0.8266 -1.5175
  501MOL0     H66082   1.232   2.202   5.379 -0.2919  1.6733  0.9576
  501MOL0     H66083   1.114   2.291   5.642  1.4294  1.8708 -0.8645
  501MOL0     H66084   1.164   2.124   5.590  1.1095  0.6060  1.1136
  501MOL0     H66085   0.996   2.093   5.322 -1.2001 -1.2533  0.1329
  501MOL0     H66086   0.672   1.992   5.343  0.5255  0.8399  2.0468
  501MOL0     H66087   0.801   2.026   5.223 -1.9312 -0.9627 -1.4681
  501MOL0     H66088   0.695   2.263   5.210  2.5625 -0.4061  2.1985
  501MOL0     H66089   0.550   2.177   5.281  0.9238 -3.3861  0.9160
  501MOL0     H66090   0.672   2.116   5.017 -1.2399  0.6424 -0.2786
  501MOL0     H66091   0.570   2.002   5.110  1.8887 -0.9742 -0.6052
  501MOL0     H66092   0.508   2.273   4.996 -0.5147 -0.4335  0.2681
  501MOL0     H66093   0.398   2.198   5.114 -0.6288 -0.8248 -0.7440
  501MOL0     H66094   0.291   2.000   5.133  0.8429 -1.7982 -0.1754
  501MOL0     H66095   0.031   1.935   5.136 -0.8013 -1.8051 -1.7453
  501MOL0     H66096  -0.415   2.017   4.900 -1.9249  0.3039 -0.3901
  501MOL0     H66097  -0.638   2.009   4.992 -1.6537 -1.1847  0.7740
  501MOL0     H66098  -0.831   1.893   5.059  3.2343 -1.1059  0.5157
  501MOL0     H66099  -0.790   2.056   5.137 -0.4893  0.7385  2.9637
  501MOL0     H66100  -0.947   1.971   5.328  0.1664 -1.0596  0.2968
  501MOL0     H66101  -0.992   1.833   5.234 -0.4888 -0.7045 -0.2882
  501MOL0     H66102  -1.073   1.964   5.050 -1.1195 -1.5062 -0.0273
  501MOL0     H66103  -1.060   2.118   5.140 -0.2203  0.5362  1.2569
  501MOL0     H66104  -1.226   1.882   5.211  0.7874  0.2464  0.0401
  501MOL0     H66105  -1.208   2.022   5.320  1.6332 -2.2000  0.2911
  501MOL0     H66106  -1.323   1.991   5.040  2.1162 -0.9085  0.0177
  501MOL0     H66107  -1.303   2.154   5.107 -0.3742 -0.2648  1.8354
  501MOL0     H66108  -1.451   2.115   5.288  0.9212 -1.1113  0.7714
  501MOL0     H66109  -1.492   1.953   5.226  2.6775 -1.3936  0.2771
  501MOL0     H66110  -1.535   2.220   5.067 -2.4298  0.0482 -3.0665
  501MOL0     H66111  -1.575   2.064   5.003  1.2990  3.0966 -1.4902
  501MOL0     H66112  -1.714   2.199   5.255  1.5050 -2.8069  3.2721
  501MOL0     H66113  -1.722   2.031   5.217 -1.5316 -0.3992 -0.9055
  501MOL0     H66114  -0.514   1.754   5.310 -0.9132  1.4200  0.4805
  501MOL0     H66115  -0.290   1.785   5.245 -0.4359  0.9708 -0.0870
  501MOL0     H66116   0.013   2.070   4.733 -1.5634  0.7245  1.5970
  501MOL0     H66117   0.251   2.120   4.732 -1.1306 -1.7620 -0.0582
  501MOL0     H66118   2.060   2.412   5.763  1.3062 -0.3855  0.3354
  501MOL0     H66119   2.267   2.299   5.813 -2.2105  3.0780  0.1354
  501MOL0     H66120   2.588   2.138   5.795 -2.0616 -0.4729 -0.1101
  501MOL0     H66121   2.822   2.092   5.830  0.9755 -0.6385  0.9702
  501MOL0     H66122   3.015   2.000   5.803 -2.0072  4.6389  2.5158
  501MOL0     H66123   3.125   1.900   5.887  0.0360 -1.3904 -0.0004
  501MOL0     H66124   3.105   2.121   6.015 -1.2924  1.4519 -2.4884
  501MOL0     H66125   2.929   2.095   6.021 -0.2315  0.0724 -2.0758
  501MOL0     H66126   3.165   1.945   6.160  0.7665  1.8379  3.0820
  501MOL0     H66127   2.996   1.889   6.162  2.2818 -2.4081 -1.0487
  501MOL0     H66128   3.063   2.010   6.371  0.7533 -0.5217 -1.3540
  501MOL0     H66129   3.112   2.149   6.283 -0.9965  0.9557  1.2603
  501MOL0     H66130   2.730   2.268   6.292  0.3864 -0.6975  1.5437
  501MOL0     H66131   2.728   1.682   5.920 -0.7798  0.4956  1.4463
  501MOL0     H66132   2.506   1.719   5.860  1.3084 -0.7199 -2.4000
  502MOL0     O66133   7.248   7.522   2.801 -0.2766 -0.3543 -0.6877
  502MOL0     C66134   7.270   7.465   2.908  1.1953 -0.0330 -1.2637
  502MOL0     O66135   7.181   7.401   2.981 -0.2348  0.0655 -0.5652
  502MOL0     C66136   7.052   7.399   2.942 -0.4314 -0.4361  0.0451
  502MOL0     C66137   7.009   7.338   2.822  0.2387 -0.5079  0.6812
  502MOL0     C66138   6.875   7.337   2.779 -0.4242  0.8846  0.1752
  502MOL0     C66139   6.774   7.385   2.864 -0.8058  0.3952  0.6037
  502MOL0     O66140   6.649   7.367   2.814  0.1736  0.3906  0.2729
  502MOL0     C66141   6.546   7.468   2.823  0.4083  0.6409  0.4750
  502MOL0     C66142   6.447   7.399   2.908 -0.1816  0.3979 -0.6422
  502MOL0     C66143   6.381   7.282   2.826 -0.1224  0.4645  0.2140
  502MOL0     C66144   6.283   7.337   2.726  0.9621  0.4007  0.2495
  502MOL0     C66145   6.175   7.227   2.708 -0.0498 -0.1945  0.6851
  502MOL0     C66146   6.085   7.279   2.589  0.7226 -0.0931  0.0969
  502MOL0     C66147   5.964   7.188   2.562  0.4020 -0.4504  0.3199
  502MOL0     C66148   5.850   7.193   2.669  0.5291  0.7336 -0.0041
  502MOL0     N66149   5.759   7.299   2.620 -0.0197 -0.3754  0.4821
  502MOL0     C66150   5.653   7.297   2.535  1.5395 -0.2736 -1.2072
  502MOL0     C66151   5.593   7.415   2.544 -0.8027 -1.3619 -0.3837
  502MOL0     C66152   5.468   7.458   2.476 -0.2004  0.0566 -0.4342
  502MOL0     C66153   5.378   7.552   2.565 -0.0833  0.1182  0.0057
  502MOL0     C66154   5.256   7.477   2.629 -0.4228  0.3209 -0.1535
  502MOL0     C66155   5.153   7.411   2.530  0.3002 -0.4295  0.3714
  502MOL0     O66156   5.046   7.356   2.602  0.0690  0.1881  0.2623
  502MOL0     C66157   4.927   7.317   2.540 -0.6635 -0.5348 -0.0698
  502MOL0     C66158   4.835   7.260   2.622 -0.5939  0.6740  0.3816
  502MOL0     C66159   4.708   7.223   2.569 -0.1534 -0.9154 -0.7397
  502MOL0     C66160   4.674   7.242   2.429 -0.2105  0.2268  0.0691
  502MOL0     C66161   4.540   7.215   2.368  0.5256 -0.4173 -0.1858
  502MOL0     O66162   4.443   7.183   2.454  0.0350  0.2741  0.3842
  502MOL0     C66163   4.319   7.156   2.408  0.3225  0.7178  0.4848
  502MOL0     C66164   4.307   7.047   2.323  0.0915 -0.8660  1.2652
  502MOL0     C66165   4.181   7.012   2.273 -0.9413  0.6360  0.4063
  502MOL0     C66166   4.070   7.091   2.289  0.4663  0.5678 -0.3842
  502MOL0     O66167   3.955   7.064   2.220  0.5071 -1.5025  0.4274
  502MOL0     C66168   3.863   6.976   2.296  0.2251 -0.2385  0.0450
  502MOL0     C66169   3.735   6.948   2.219  0.0268 -1.0110 -0.3139
  502MOL0     C66170   3.642   6.856   2.299 -0.4760  0.0419 -0.7461
  502MOL0     C66171   3.505   6.850   2.229 -0.3910 -0.0786 -0.3332
  502MOL0     C66172   3.411   6.744   2.280  1.0792 -0.2314 -0.1008
  502MOL0     C66173   3.292   6.712   2.185 -0.5442 -0.1171  0.0713
  502MOL0     C66174   3.210   6.835   2.141  0.2686  0.0071 -0.9447
  502MOL0     C66175   3.124   6.806   2.019 -0.0439 -0.3653  0.0118
  502MOL0    Cl66176   3.059   6.971   1.985 -0.1140 -0.0566  0.4919
  502MOL0     C66177   4.087   7.207   2.368 -0.1281 -0.0970  0.2482
  502MOL0     C66178   4.215   7.242   2.430  0.0635  0.9003  0.4110
  502MOL0     O66179   4.524   7.228   2.245  0.4708 -0.5791  0.2152
  502MOL0     C66180   4.775   7.300   2.348 -0.3900  0.3124  0.5691
  502MOL0     C66181   4.906   7.325   2.400  0.0589  0.2480 -0.3262
  502MOL0     N66182   5.672   7.491   2.632 -0.7262  0.1876  0.0194
  502MOL0     N66183   5.774   7.424   2.667 -0.4252  0.1568  0.0466
  502MOL0     C66184   6.815   7.436   2.990 -0.2464 -0.1523 -0.6151
  502MOL0     C66185   6.951   7.446   3.025 -0.0432 -0.3450 -0.6629
  502MOL0     C66186   7.409   7.465   2.956 -0.5863 -0.1545 -0.3541
  502MOL0     C66187   7.503   7.564   2.925  0.0861  0.0268  0.3706
  502MOL0     C66188   7.638   7.558   2.964 -0.4247 -0.5810 -0.4041
  502MOL0     C66189   7.679   7.456   3.062  0.6154 -0.7195  0.2193
  502MOL0     O66190   7.802   7.442   3.104 -0.1202 -0.1043  0.3678
  502MOL0     C66191   7.903   7.536   3.062  0.4381 -0.5251  0.2610
  502MOL0     C66192   8.043   7.501   3.102  0.6550 -0.2053 -0.3506
  502MOL0     C66193   8.092   7.381   3.021 -0.6051 -0.4918  0.2815
  502MOL0     C66194   8.220   7.323   3.084  1.2058 -0.1021  0.3699
  502MOL0     C66195   8.314   7.426   3.105 -0.4644 -0.3834  0.0142
  502MOL0     C66196   8.405   7.505   3.117  0.4362  0.1566  0.1840
  502MOL0     C66197   7.579   7.368   3.105  0.1962 -0.2479  0.4446
  502MOL0     C66198   7.447   7.373   3.058  0.6362  0.0015  0.3255
  502MOL0     H66199   7.076   7.308   2.741 -0.3288  0.7958 -0.2980
  502MOL0     H66200   6.861   7.307   2.676  0.1914  0.1578  0.2911
  502MOL0     H66201   6.504   7.484   2.724 -2.8444 -2.2136  1.2295
  502MOL0     H66202   6.576   7.564   2.866 -0.7815 -0.1007  3.2154
  502MOL0     H66203   6.369   7.469   2.941 -2.6605 -1.4848 -2.1632
  502MOL0     H66204   6.502   7.354   2.991 -1.1724 -0.6076 -0.5149
  502MOL0     H66205   6.339   7.205   2.890  1.4456 -1.4366 -0.9096
  502MOL0     H66206   6.458   7.238   2.762  0.3458 -1.1011  1.7831
  502MOL0     H66207   6.238   7.427   2.768  1.2086  1.4430 -1.6170
  502MOL0     H66208   6.322   7.369   2.629 -0.9878  0.1120 -0.6954
  502MOL0     H66209   6.126   7.213   2.804  1.5719  1.9544  1.9159
  502MOL0     H66210   6.222   7.135   2.671 -0.0347  0.1763 -0.2462
  502MOL0     H66211   6.132   7.264   2.492 -0.3098 -0.7712 -0.3164
  502MOL0     H66212   6.054   7.382   2.611 -2.0342 -0.1123 -2.9236
  502MOL0     H66213   5.917   7.212   2.466 -0.9041 -1.4334  0.6827
  502MOL0     H66214   5.995   7.083   2.555 -0.9629 -0.9725  1.5928
  502MOL0     H66215   5.890   7.236   2.761 -3.0850  2.4113  0.9190
  502MOL0     H66216   5.813   7.090   2.682  1.6990  0.4322  1.1596
  502MOL0     H66217   5.620   7.207   2.485  1.0207  0.5814 -2.4727
  502MOL0     H66218   5.414   7.372   2.437  1.3389 -2.2405  2.1051
  502MOL0     H66219   5.487   7.526   2.392 -1.4007 -1.0091 -1.6105
  502MOL0     H66220   5.328   7.633   2.511  2.0000  2.5697  1.5650
  502MOL0     H66221   5.428   7.596   2.652 -1.2723  1.8137 -0.1204
  502MOL0     H66222   5.296   7.395   2.689 -2.8766  0.1481  1.4216
  502MOL0     H66223   5.199   7.543   2.696 -0.5188  0.2653 -0.1813
  502MOL0     H66224   5.206   7.334   2.473  0.0904 -1.5495  1.6461
  502MOL0     H66225   5.122   7.497   2.470  2.5786 -0.9309 -1.7280
  502MOL0     H66226   4.848   7.247   2.729 -0.7681 -0.3084  0.2986
  502MOL0     H66227   4.636   7.180   2.638  1.1698 -0.2731  1.1119
  502MOL0     H66228   4.387   6.993   2.275 -1.5570 -2.1180 -0.2280
  502MOL0     H66229   4.178   6.946   2.187  0.1518  3.2141 -1.7559
  502MOL0     H66230   3.842   7.020   2.394  3.9070 -0.5142  1.1144
  502MOL0     H66231   3.902   6.877   2.321 -0.4778 -0.6853 -0.5735
  502MOL0     H66232   3.765   6.897   2.127 -0.8438 -1.4813 -0.3513
  502MOL0     H66233   3.684   7.038   2.184 -1.9305 -1.1991  1.8049
  502MOL0     H66234   3.625   6.892   2.400  0.7677 -0.5032 -0.3349
  502MOL0     H66235   3.686   6.756   2.293 -0.0362 -0.0854  2.8012
  502MOL0     H66236   3.470   6.951   2.252  3.4604  1.2422  0.6163
  502MOL0     H66237   3.510   6.834   2.121 -2.3138  3.2628 -1.0727
  502MOL0     H66238   3.370   6.768   2.378  0.8829 -1.6965  0.1894
  502MOL0     H66239   3.470   6.655   2.303  0.6050 -1.0640 -1.9171
  502MOL0     H66240   3.228   6.649   2.248 -1.1163  0.7389  0.3510
  502MOL0     H66241   3.342   6.659   2.103 -0.6613  1.1520 -0.8423
  502MOL0     H66242   3.145   6.864   2.224 -0.0131 -3.9766  0.4541
  502MOL0     H66243   3.273   6.923   2.129  3.5775 -2.0073  0.3423
  502MOL0     H66244   3.045   6.738   2.051  2.0350 -1.3555  3.5778
  502MOL0     H66245   3.187   6.769   1.937 -0.6984 -4.1521  1.0265
  502MOL0     H66246   4.007   7.275   2.396  0.0459  0.8202 -1.4011
  502MOL0     H66247   4.237   7.335   2.481  3.1628  1.6345 -1.9609
  502MOL0     H66248   4.757   7.308   2.242 -0.0517  0.8131  0.5463
  502MOL0     H66249   4.983   7.357   2.331  1.4308 -0.4316  0.8149
  502MOL0     H66250   6.734   7.477   3.049  0.9421  0.2522  0.7940
  502MOL0     H66251   6.972   7.485   3.124 -1.4553 -0.7812 -0.1746
  502MOL0     H66252   7.475   7.655   2.873  0.8791 -0.3931 -0.8397
  502MOL0     H66253   7.691   7.639   2.916 -2.0538 -0.0409 -1.3922
  502MOL0     H66254   7.888   7.630   3.116  2.1783  1.6564 -2.7408
  502MOL0     H66255   7.900   7.563   2.956 -0.2227  5.3281  1.4431
  502MOL0     H66256   8.108   7.585   3.076 -0.0367  0.2663 -0.5916
  502MOL0     H66257   8.060   7.499   3.210 -0.6568  1.9568 -0.0407
  502MOL0     H66258   8.120   7.415   2.921 -2.9229  1.1522  0.1228
  502MOL0     H66259   8.019   7.302   3.003 -0.6814 -0.0113 -1.7463
  502MOL0     H66260   8.195   7.281   3.183  1.7931 -0.9722  0.1653
  502MOL0     H66261   8.264   7.239   3.029  1.4944 -0.0161  0.4694
  502MOL0     H66262   8.480   7.581   3.107  0.9460 -0.5420 -1.9547
  502MOL0     H66263   7.609   7.297   3.180 -1.8403  0.3814  1.9519
  502MOL0     H66264   7.366   7.315   3.101 -0.5726  2.1320  1.0668
  503MOL0     O66265   2.344   7.389   1.650 -0.4702 -0.2473  1.1502
  503MOL0     C66266   2.417   7.311   1.592 -0.0169  0.1270  0.6198
  503MOL0     O66267   2.374   7.240   1.478 -0.1436 -0.3223 -0.0798
  503MOL0     C66268   2.233   7.213   1.473 -0.2030  0.1368  0.5352
  503MOL0     C66269   2.161   7.193   1.348 -0.5721 -0.9230 -0.2991
  503MOL0     C66270   2.031   7.151   1.340  0.9483 -0.3016  1.0837
  503MOL0     C66271   1.959   7.116   1.453 -0.4933  0.0585 -0.0035
  503MOL0     O66272   1.823   7.081   1.437 -0.8603  0.2665  0.0318
  503MOL0     C66273   1.739   7.059   1.547 -0.2479 -0.4260 -0.9322
  503MOL0     C66274   1.595   7.068   1.502 -0.5231 -1.1241 -0.6022
  503MOL0     C66275   1.503   7.068   1.626  0.8043  0.1287 -0.0432
  503MOL0     C66276   1.353   7.054   1.572 -0.2906 -0.1060 -0.1889
  503MOL0     C66277   1.246   7.050   1.689 -0.1589  0.3819  1.4664
  503MOL0     C66278   1.107   7.020   1.626  1.1649 -0.5735 -0.2412
  503MOL0     C66279   1.034   6.932   1.720  0.0015 -0.5183  0.1700
  503MOL0     C66280   0.897   6.876   1.678 -0.3514 -0.6080  0.2495
  503MOL0     N66281   0.790   6.974   1.694  0.3922 -0.3991 -0.1257
  503MOL0     C66282   0.678   6.959   1.775  0.2546  0.2287  0.3521
  503MOL0     C66283   0.591   7.058   1.735  0.4257  0.2790 -0.0052
  503MOL0     C66284   0.446   7.047   1.768 -0.1617  0.9482 -0.6654
  503MOL0     C66285   0.359   7.092   1.645  0.0172  0.6172  0.5121
  503MOL0     C66286   0.214   7.086   1.685 -1.2392  0.4848  0.1660
  503MOL0     C66287   0.135   7.137   1.563 -0.4282 -0.4104 -0.6886
  503MOL0     O66288  -0.006   7.120   1.584  0.0144 -0.5407  0.2169
  503MOL0     C66289  -0.091   7.154   1.482  0.1388  1.0711 -0.5223
  503MOL0     C66290  -0.086   7.255   1.383 -0.1694 -0.7871  0.6142
  503MOL0     C66291  -0.192   7.294   1.307 -0.3332  0.9055 -0.4536
  503MOL0     C66292  -0.306   7.220   1.325  0.7486  0.2354  0.3078
  503MOL0     C66293  -0.418   7.248   1.233  1.3813  0.5656  0.1929
  503MOL0     O66294  -0.411   7.344   1.137 -0.6499  0.0714  0.2825
  503MOL0     C66295  -0.506   7.375   1.043  0.1376  1.1179 -0.4583
  503MOL0     C66296  -0.567   7.281   0.954  0.0492  0.1462 -0.4585
  503MOL0     C66297  -0.652   7.320   0.854  0.4992  0.0369 -0.0892
  503MOL0     C66298  -0.686   7.459   0.849 -0.1306  0.1450  0.0429
  503MOL0     O66299  -0.760   7.493   0.741 -0.0651  0.0932 -0.0091
  503MOL0     C66300  -0.881   7.570   0.768  0.0953 -0.0313  0.4784
  503MOL0     C66301  -0.990   7.473   0.823  0.0680  0.6503 -0.3283
  503MOL0     C66302  -1.108   7.550   0.887 -0.2975 -0.3315  0.2954
  503MOL0     C66303  -1.091   7.584   1.036 -0.2400 -0.2992  0.3543
  503MOL0     C66304  -1.231   7.629   1.096 -0.6266 -0.1706 -0.6147
  503MOL0     C66305  -1.302   7.738   1.013  0.0796 -0.5839  0.7190
  503MOL0     C66306  -1.435   7.771   1.086 -0.4909  0.5090  0.1334
  503MOL0     C66307  -1.525   7.885   1.024  0.2721 -0.5873 -0.5082
  503MOL0    Cl66308  -1.652   7.949   1.128  0.3274  0.3681 -0.3461
  503MOL0     C66309  -0.617   7.549   0.918 -0.4847  0.5728 -0.2424
  503MOL0     C66310  -0.527   7.514   1.021  0.2253  0.3174  0.2957
  503MOL0     O66311  -0.531   7.193   1.261  0.2527 -0.0652 -0.3569
  503MOL0     C66312  -0.318   7.123   1.421  0.4028 -0.5001 -0.1569
  503MOL0     C66313  -0.212   7.091   1.507  0.0390  0.1179 -0.7704
  503MOL0     N66314   0.643   7.116   1.619  0.2466 -0.8017  0.1378
  503MOL0     N66315   0.764   7.074   1.607  0.6060 -0.5344 -0.7504
  503MOL0     C66316   2.035   7.122   1.571  0.1420 -0.1240 -0.6751
  503MOL0     C66317   2.162   7.172   1.585 -0.2752  0.8292  1.3875
  503MOL0     C66318   2.558   7.297   1.634  0.5011  0.0117  0.2579
  503MOL0     C66319   2.634   7.407   1.675 -0.0136 -0.1074 -0.3268
  503MOL0     C66320   2.775   7.399   1.687 -0.7405 -0.2397 -0.4040
  503MOL0     C66321   2.848   7.283   1.676  0.6408  1.2421 -0.3665
  503MOL0     O66322   2.985   7.262   1.683  0.2216 -0.6873 -1.7440
  503MOL0     C66323   3.074   7.375   1.678  0.0311 -0.2243 -0.1247
  503MOL0     C66324   3.081   7.445   1.818  0.4273  0.7637 -0.2676
  503MOL0     C66325   3.133   7.355   1.936  0.7272 -0.1710 -0.8258
  503MOL0     C66326   3.276   7.308   1.913  0.1075  0.2770 -0.3702
  503MOL0     C66327   3.365   7.427   1.908 -0.0131 -0.7518  0.1524
  503MOL0     C66328   3.439   7.526   1.897  0.0175  0.6841  0.5231
  503MOL0     C66329   2.773   7.172   1.637  0.2912  0.0874  0.8693
  503MOL0     C66330   2.625   7.176   1.623 -0.5952 -0.3965 -0.1456
  503MOL0     H66331   2.214   7.222   1.258 -0.5439  2.7132  0.7275
  503MOL0     H66332   1.984   7.137   1.243 -1.0366 -1.5082  2.1313
  503MOL0     H66333   1.762   7.137   1.620  3.8473  1.1533 -3.5217
  503MOL0     H66334   1.748   6.956   1.582 -1.0769 -0.1520  0.1089
  503MOL0     H66335   1.574   6.973   1.452 -2.5909 -3.1861  3.6913
  503MOL0     H66336   1.579   7.155   1.437  0.1985  0.8073  1.6660
  503MOL0     H66337   1.518   7.155   1.690  1.7792 -0.2340  0.2450
  503MOL0     H66338   1.516   6.985   1.696 -1.0386 -0.1946 -0.0301
  503MOL0     H66339   1.318   7.135   1.508 -0.0983 -0.0806 -0.2641
  503MOL0     H66340   1.347   6.958   1.519 -2.9894 -1.0191  1.5682
  503MOL0     H66341   1.246   7.145   1.743  0.3305  1.3747 -0.1759
  503MOL0     H66342   1.274   6.965   1.751  0.7100  0.3382  1.0451
  503MOL0     H66343   1.119   6.967   1.531  1.6893  0.9359 -1.0521
  503MOL0     H66344   1.053   7.114   1.610  2.2035  0.4901  2.0992
  503MOL0     H66345   1.090   6.840   1.738  3.6351  1.2868 -0.9509
  503MOL0     H66346   1.023   6.988   1.813 -1.5207 -2.4905  1.2393
  503MOL0     H66347   0.873   6.782   1.728  0.8307 -0.6748  0.7273
  503MOL0     H66348   0.895   6.844   1.574 -0.2544 -0.4864  0.2095
  503MOL0     H66349   0.649   6.869   1.827 -0.9283 -1.4402 -2.9244
  503MOL0     H66350   0.416   7.097   1.860  0.6250  0.6923 -0.2603
  503MOL0     H66351   0.434   6.941   1.795  2.1633  1.2244  1.8278
  503MOL0     H66352   0.385   7.040   1.552 -0.7808  1.7622 -0.3881
  503MOL0     H66353   0.379   7.197   1.622 -2.2873  1.4837  2.0509
  503MOL0     H66354   0.174   6.984   1.688  0.0126 -0.1752 -2.5160
  503MOL0     H66355   0.190   7.144   1.775  0.0800  2.5539 -0.7443
  503MOL0     H66356   0.166   7.075   1.479  2.2712 -1.4875  0.9898
  503MOL0     H66357   0.166   7.242   1.552  4.8644 -1.2125  2.7463
  503MOL0     H66358   0.007   7.311   1.370 -0.2168 -0.7665  0.3604
  503MOL0     H66359  -0.187   7.375   1.235 -0.3751 -0.4337 -2.0241
  503MOL0     H66360  -0.536   7.178   0.968  2.3661  1.1835  3.6065
  503MOL0     H66361  -0.677   7.245   0.780 -1.0767 -1.3352  1.7213
  503MOL0     H66362  -0.916   7.621   0.678 -0.2568 -1.2753 -0.1145
  503MOL0     H66363  -0.865   7.654   0.836  0.9959  0.9124 -0.8504
  503MOL0     H66364  -0.943   7.406   0.895  0.0601  1.1303  0.1311
  503MOL0     H66365  -1.024   7.409   0.740  0.6292  1.8609 -1.5312
  503MOL0     H66366  -1.198   7.489   0.870 -1.4432  1.4646 -0.3846
  503MOL0     H66367  -1.121   7.643   0.832 -1.6295  0.1269  1.3231
  503MOL0     H66368  -1.040   7.509   1.097  1.9989 -0.7300 -1.8912
  503MOL0     H66369  -1.024   7.670   1.047 -1.9510  1.2604 -0.8681
  503MOL0     H66370  -1.206   7.672   1.193  1.2797  1.4470 -1.7383
  503MOL0     H66371  -1.304   7.548   1.104 -3.6949  2.5940  1.6049
  503MOL0     H66372  -1.328   7.702   0.913  2.8046  0.1641 -0.3256
  503MOL0     H66373  -1.231   7.820   1.006  1.1148 -1.5695 -0.8284
  503MOL0     H66374  -1.490   7.677   1.081 -1.0925  0.9037 -1.2040
  503MOL0     H66375  -1.408   7.793   1.189  0.8180  4.5277 -0.8727
  503MOL0     H66376  -1.561   7.842   0.930  0.0044 -0.3186 -0.5301
  503MOL0     H66377  -1.458   7.971   1.006 -0.3574  0.1743  0.6938
  503MOL0     H66378  -0.612   7.649   0.877  1.8341 -0.6491 -3.3767
  503MOL0     H66379  -0.464   7.580   1.078  0.6896 -0.2544  0.4541
  503MOL0     H66380  -0.405   7.059   1.429  0.3781 -0.6208 -1.2717
  503MOL0     H66381  -0.220   7.019   1.589  4.0166  1.6806  1.2972
  503MOL0     H66382   1.986   7.078   1.657  0.2691  0.0948 -0.4881
  503MOL0     H66383   2.206   7.172   1.685  0.8993  0.0423  0.8968
  503MOL0     H66384   2.593   7.507   1.668  2.5166  0.8983 -2.2052
  503MOL0     H66385   2.826   7.493   1.706 -0.4583 -0.4903  0.1028
  503MOL0     H66386   3.036   7.445   1.603 -0.1041 -0.9864 -0.7711
  503MOL0     H66387   3.172   7.335   1.652 -0.0813  0.6867 -2.0893
  503MOL0     H66388   3.151   7.528   1.812  0.6392  0.6100  0.0741
  503MOL0     H66389   2.982   7.479   1.848  0.8122  4.4562 -2.5724
  503MOL0     H66390   3.064   7.270   1.945 -0.7055  0.6916 -3.0073
  503MOL0     H66391   3.132   7.412   2.029  0.8324 -3.3456  1.2836
  503MOL0     H66392   3.303   7.239   1.994 -1.6287 -0.5972 -0.4696
  503MOL0     H66393   3.274   7.249   1.821 -1.4333  1.1740 -0.9620
  503MOL0     H66394   3.495   7.616   1.881 -1.2789  1.1720 -1.7256
  503MOL0     H66395   2.815   7.074   1.615  1.7641  1.0690 -0.9494
  503MOL0     H66396   2.565   7.093   1.587 -0.2306 -0.4444 -0.6649
  504MOL0     O66397   6.398   9.251   3.236  0.3119 -0.3612  0.1577
  504MOL0     C66398   6.405   9.162   3.318 -0.0575  0.7593 -0.5254
  504MOL0     O66399   6.372   9.030   3.300 -0.3124 -0.2677 -0.6838
  504MOL0     C66400   6.323   8.982   3.180 -0.8107 -0.5690  0.4709
  504MOL0     C66401   6.223   8.888   3.188  0.7224 -0.7113  1.2017
  504MOL0     C66402   6.160   8.831   3.073 -0.2301  0.1570  0.1697
  504MOL0     C66403   6.192   8.878   2.950  0.5880 -0.1866  0.3664
  504MOL0     O66404   6.122   8.846   2.832 -0.5142  0.2330  0.2013
  504MOL0     C66405   6.053   8.722   2.824  1.2263  0.8030  0.1274
  504MOL0     C66406   5.961   8.709   2.702  0.1895 -0.2714  0.4885
  504MOL0     C66407   6.012   8.732   2.563 -0.3474  0.2068  1.0199
  504MOL0     C66408   5.897   8.730   2.460 -0.1584  0.7892 -0.1536
  504MOL0     C66409   5.925   8.833   2.342  0.0674  0.0313  0.0511
  504MOL0     C66410   6.049   8.820   2.257  0.0997 -0.3464 -0.3695
  504MOL0     C66411   6.055   8.679   2.196  0.3025  0.7757  0.2206
  504MOL0     C66412   6.173   8.675   2.096 -1.1905 -0.4495  0.8100
  504MOL0     N66413   6.215   8.545   2.052 -0.4832  0.1680 -0.4816
  504MOL0     C66414   6.148   8.456   1.968  0.4631 -0.3009 -0.7065
  504MOL0     C66415   6.219   8.340   1.989  0.6907  0.0835  0.4263
  504MOL0     C66416   6.178   8.218   1.912 -0.4784 -0.4040  0.6251
  504MOL0     C66417   6.260   8.088   1.969  0.3925  0.1360 -1.0338
  504MOL0     C66418   6.212   7.973   1.878  0.4318  0.0785 -1.0579
  504MOL0     C66419   6.069   7.938   1.914 -0.8531  0.5113 -0.0423
  504MOL0     O66420   5.997   7.886   1.798 -0.4091 -1.0460 -0.6482
  504MOL0     C66421   5.868   7.825   1.817 -0.1296  0.5647 -0.5175
  504MOL0     C66422   5.797   7.825   1.939  0.6493  0.4801  0.3654
  504MOL0     C66423   5.668   7.771   1.938  0.5195  0.4171 -0.1927
  504MOL0     C66424   5.614   7.724   1.814 -0.0779  0.7381 -0.4404
  504MOL0     C66425   5.475   7.678   1.799 -0.2263  0.5972  0.1938
  504MOL0     O66426   5.419   7.699   1.677 -0.2445  0.3611  0.3885
  504MOL0     C66427   5.291   7.655   1.655 -0.1845  0.7921  0.2076
  504MOL0     C66428   5.218   7.554   1.733 -0.9137 -0.1638  0.2743
  504MOL0     C66429   5.089   7.504   1.690  0.0199 -0.1479  0.0769
  504MOL0     C66430   5.028   7.557   1.572  0.0635  0.1481 -0.2983
  504MOL0     O66431   4.907   7.508   1.553 -0.4853  1.1867 -0.2152
  504MOL0     C66432   4.797   7.596   1.547  0.5117 -0.0653 -0.4385
  504MOL0     C66433   4.687   7.527   1.466 -0.4435  0.0010 -1.2074
  504MOL0     C66434   4.592   7.625   1.402  0.4498 -0.5979  0.3079
  504MOL0     C66435   4.493   7.538   1.313 -0.1255 -0.6186  0.3177
  504MOL0     C66436   4.407   7.617   1.214  0.1505 -0.8101  0.3160
  504MOL0     C66437   4.266   7.558   1.209 -0.2052 -0.0482 -0.1604
  504MOL0     C66438   4.175   7.644   1.129  0.5893 -0.1586  0.1190
  504MOL0     C66439   4.032   7.598   1.139  0.4471 -0.5890  0.0527
  504MOL0    Cl66440   3.916   7.712   1.089  0.0746 -0.4503 -0.1578
  504MOL0     C66441   5.101   7.652   1.496  0.0510  0.5355 -0.0563
  504MOL0     C66442   5.222   7.701   1.541 -0.0494  0.3501 -0.0192
  504MOL0     O66443   5.416   7.644   1.902 -0.6915 -0.7413 -0.6565
  504MOL0     C66444   5.688   7.725   1.700 -0.1665  0.2724  0.6248
  504MOL0     C66445   5.814   7.774   1.697  0.0043  0.6997  0.1696
  504MOL0     N66446   6.308   8.352   2.088  0.4213  0.4957 -0.3661
  504MOL0     N66447   6.309   8.472   2.122  0.1592 -0.2656 -0.7429
  504MOL0     C66448   6.294   8.969   2.937 -0.8438  0.3133  0.3879
  504MOL0     C66449   6.367   9.005   3.055  0.2632  0.1920 -0.1987
  504MOL0     C66450   6.448   9.196   3.453 -0.3922 -0.0126  0.5072
  504MOL0     C66451   6.432   9.114   3.558 -0.7837 -0.1006  0.4459
  504MOL0     C66452   6.462   9.148   3.690 -0.4689 -0.3258  0.5191
  504MOL0     C66453   6.532   9.264   3.721 -1.1782 -0.3282  0.5668
  504MOL0     O66454   6.573   9.285   3.855 -0.1246 -0.7755  0.6144
  504MOL0     C66455   6.671   9.388   3.891  0.4359  0.0721 -0.2826
  504MOL0     C66456   6.751   9.360   4.015  0.4034 -0.4946 -0.0059
  504MOL0     C66457   6.652   9.385   4.135  0.1958 -0.6014 -0.2134
  504MOL0     C66458   6.689   9.287   4.246 -0.1382  0.2602  0.0376
  504MOL0     C66459   6.830   9.312   4.288 -0.0563  0.0418 -0.2497
  504MOL0     C66460   6.940   9.332   4.337  0.4606 -0.0601 -0.0001
  504MOL0     C66461   6.562   9.349   3.615 -0.7077  0.7440 -0.2770
  504MOL0     C66462   6.518   9.319   3.489  0.5796  0.6959  0.9517
  504MOL0     H66463   6.189   8.864   3.289 -2.4197  3.2870  1.3646
  504MOL0     H66464   6.087   8.752   3.084 -0.1924  0.2516  1.1770
  504MOL0     H66465   5.995   8.689   2.910  1.2791 -0.7068 -0.3850
  504MOL0     H66466   6.127   8.642   2.814  0.6010  0.3091 -0.7205
  504MOL0     H66467   5.870   8.768   2.717  0.7049  0.4689  0.7524
  504MOL0     H66468   5.923   8.607   2.696  0.3844 -0.2421 -2.6358
  504MOL0     H66469   6.103   8.674   2.543 -2.3101 -3.4294  1.7474
  504MOL0     H66470   6.055   8.832   2.569 -3.0849  1.7826 -2.2808
  504MOL0     H66471   5.886   8.625   2.430  1.0384  1.0095 -1.4683
  504MOL0     H66472   5.803   8.764   2.505 -0.5602 -0.8948  0.3469
  504MOL0     H66473   5.938   8.932   2.389 -2.0544  0.0579  0.6506
  504MOL0     H66474   5.840   8.823   2.275 -0.0036 -4.3491  0.5309
  504MOL0     H66475   6.142   8.840   2.312  0.9629  1.7131 -2.4193
  504MOL0     H66476   6.050   8.898   2.181 -2.3324 -1.4354 -1.6233
  504MOL0     H66477   6.061   8.608   2.279 -2.2174  0.1777 -0.0253
  504MOL0     H66478   5.963   8.663   2.138  0.6839  0.2530 -0.2498
  504MOL0     H66479   6.249   8.737   2.144 -2.7572  3.3977 -1.2163
  504MOL0     H66480   6.136   8.738   2.014  0.0695 -0.0671  0.5120
  504MOL0     H66481   6.050   8.469   1.924 -0.1726 -1.4704  0.2879
  504MOL0     H66482   6.195   8.254   1.810  0.1353  0.5515  1.0496
  504MOL0     H66483   6.070   8.210   1.925 -0.8971 -0.2214 -2.1843
  504MOL0     H66484   6.231   8.064   2.072  1.0479 -2.4759 -1.4076
  504MOL0     H66485   6.369   8.097   1.968  0.5240  0.4292  2.7231
  504MOL0     H66486   6.217   8.000   1.772 -1.4364 -3.6984 -2.2976
  504MOL0     H66487   6.278   7.888   1.892  0.1431 -0.2354 -1.5733
  504MOL0     H66488   6.011   8.019   1.958 -0.1322  0.3648  1.2324
  504MOL0     H66489   6.074   7.866   1.997  0.2380  1.7422  1.0119
  504MOL0     H66490   5.843   7.851   2.034 -3.6572  0.0710  2.8400
  504MOL0     H66491   5.613   7.762   2.031 -0.3142  1.7157 -0.5311
  504MOL0     H66492   5.264   7.497   1.813  1.3496  1.2491  0.0733
  504MOL0     H66493   5.048   7.415   1.736  0.9294  0.1644  1.5566
  504MOL0     H66494   4.822   7.686   1.491 -2.9803 -0.0097 -2.2288
  504MOL0     H66495   4.768   7.620   1.650 -0.1664  1.2968 -0.9258
  504MOL0     H66496   4.633   7.455   1.527  1.1416 -1.3183 -1.2972
  504MOL0     H66497   4.749   7.481   1.389 -0.2312 -0.1361 -0.9550
  504MOL0     H66498   4.651   7.688   1.333  1.6579 -3.2955 -1.2782
  504MOL0     H66499   4.548   7.688   1.479  1.0433 -0.7594  0.7835
  504MOL0     H66500   4.551   7.467   1.254 -0.5429  1.0449 -2.2678
  504MOL0     H66501   4.434   7.483   1.387  3.1008 -1.2115  2.6666
  504MOL0     H66502   4.456   7.600   1.118  0.7538  2.5595 -0.1054
  504MOL0     H66503   4.404   7.725   1.232 -1.6507 -1.0877  1.9868
  504MOL0     H66504   4.220   7.541   1.306 -2.3375 -0.2335 -1.1564
  504MOL0     H66505   4.265   7.460   1.160 -1.1937  1.2625 -2.9788
  504MOL0     H66506   4.175   7.742   1.176  0.7166  0.3820 -0.9868
  504MOL0     H66507   4.210   7.649   1.025  0.4569 -0.3928  0.0609
  504MOL0     H66508   4.017   7.576   1.245 -0.2261 -0.9716 -0.1123
  504MOL0     H66509   4.026   7.503   1.085  0.5126 -0.5205 -0.0760
  504MOL0     H66510   5.052   7.695   1.409 -0.7009  0.2310  0.2068
  504MOL0     H66511   5.275   7.771   1.477  0.6970  0.6590  0.9192
  504MOL0     H66512   5.652   7.685   1.605  0.2485  1.8428 -0.2335
  504MOL0     H66513   5.883   7.766   1.614 -0.6998 -0.3470 -0.3239
  504MOL0     H66514   6.328   8.994   2.837  1.6540  1.4121  1.4339
  504MOL0     H66515   6.456   9.068   3.045  0.1566 -0.0391 -3.7903
  504MOL0     H66516   6.384   9.017   3.546  0.2668 -0.7351  1.2341
  504MOL0     H66517   6.440   9.073   3.765 -2.2231  0.3092  0.6765
  504MOL0     H66518   6.608   9.475   3.909  1.4405  0.0212  4.7405
  504MOL0     H66519   6.739   9.410   3.808  0.9511  1.3662  0.4741
  504MOL0     H66520   6.778   9.254   4.009  0.3607 -0.5481  0.6296
  504MOL0     H66521   6.834   9.431   4.014 -1.0393  1.2439 -1.1444
  504MOL0     H66522   6.550   9.364   4.104  1.1036 -1.3560 -2.9149
  504MOL0     H66523   6.645   9.490   4.166 -1.5573 -0.3496 -1.3195
  504MOL0     H66524   6.628   9.308   4.335  0.4156 -2.5505  1.2017
  504MOL0     H66525   6.664   9.183   4.221 -1.2978  0.5045  0.1032
  504MOL0     H66526   7.039   9.349   4.373  0.7123 -0.1591 -0.6438
  504MOL0     H66527   6.617   9.441   3.626 -0.9379  0.8807 -0.2599
  504MOL0     H66528   6.535   9.392   3.409  0.8294 -0.3237  0.0522
  505MOL0     O66529   6.854   7.355   5.872 -0.0353 -0.0558 -0.3563
  505MOL0     C66530   6.903   7.279   5.796  0.2822 -0.1512 -0.0894
  505MOL0     O66531   6.844   7.179   5.732  0.4369  0.6269 -0.7226
  505MOL0     C66532   6.705   7.182   5.718 -1.0246  0.0617  0.2369
  505MOL0     C66533   6.649   7.285   5.650  0.3189  0.0055  1.0241
  505MOL0     C66534   6.512   7.283   5.619  0.0106  0.7709  0.0936
  505MOL0     C66535   6.432   7.182   5.650  0.7964 -0.7271 -0.5606
  505MOL0     O66536   6.299   7.202   5.612 -0.4397  0.0944  0.3095
  505MOL0     C66537   6.206   7.090   5.645 -0.1168 -0.2604  0.1886
  505MOL0     C66538   6.071   7.127   5.580 -0.0244 -0.4391 -0.0109
  505MOL0     C66539   5.961   7.033   5.590  1.0826  0.3168  0.0546
  505MOL0     C66540   5.823   7.098   5.550  0.1331 -0.1169 -0.1671
  505MOL0     C66541   5.703   7.003   5.582  0.8866 -0.2340  0.8469
  505MOL0     C66542   5.681   6.894   5.485 -0.3556  0.7024  0.8784
  505MOL0     C66543   5.598   6.784   5.548  0.1957  0.1463  0.1120
  505MOL0     C66544   5.457   6.838   5.588 -1.1341  0.2087  0.5192
  505MOL0     N66545   5.354   6.733   5.593  0.6299 -0.4118 -0.7673
  505MOL0     C66546   5.279   6.684   5.485 -0.0237 -0.4335 -0.2652
  505MOL0     C66547   5.208   6.583   5.540 -0.1544  0.2043  0.3454
  505MOL0     C66548   5.139   6.483   5.454 -0.0557  0.3255 -0.5484
  505MOL0     C66549   5.218   6.354   5.437  0.2053 -0.2632  0.4099
  505MOL0     C66550   5.182   6.267   5.321 -0.3357  0.5482  0.4775
  505MOL0     C66551   5.033   6.230   5.315 -0.0334 -0.3506  0.2505
  505MOL0     O66552   5.008   6.137   5.202  0.3259  0.8360 -0.7526
  505MOL0     C66553   4.882   6.096   5.175 -0.1697 -0.4342  0.2283
  505MOL0     C66554   4.870   5.976   5.100 -0.5869  0.5976  0.1164
  505MOL0     C66555   4.751   5.945   5.037  0.6422 -0.1391  0.4265
  505MOL0     C66556   4.630   6.010   5.059  0.7992 -0.0421  0.3517
  505MOL0     C66557   4.502   5.961   5.029  0.9753  0.2713  0.2611
  505MOL0     O66558   4.397   6.042   5.032 -0.1725  0.2276 -0.1478
  505MOL0     C66559   4.275   5.995   5.008  0.6103  0.9989  0.6519
  505MOL0     C66560   4.193   6.065   4.911 -0.5560  0.5067 -0.1324
  505MOL0     C66561   4.062   6.009   4.882  0.6791  0.2597 -0.2468
  505MOL0     C66562   4.011   5.900   4.949 -0.0262 -0.7370 -0.4972
  505MOL0     O66563   3.885   5.857   4.922  0.1210 -0.0945  0.0290
  505MOL0     C66564   3.794   5.838   5.037 -0.2681  0.6311  0.9047
  505MOL0     C66565   3.767   5.966   5.111 -0.5340 -0.0377 -0.5382
  505MOL0     C66566   3.665   5.945   5.219 -0.6085 -0.4784  0.4995
  505MOL0     C66567   3.636   6.063   5.304  0.4603  0.5706  0.2075
  505MOL0     C66568   3.540   6.021   5.424 -0.1836  0.1631 -0.4735
  505MOL0     C66569   3.406   5.957   5.380  0.0627 -0.1561  0.5224
  505MOL0     C66570   3.310   5.953   5.501  0.0807 -0.0658 -0.3688
  505MOL0     C66571   3.183   5.870   5.477 -1.0408 -0.2920  0.5510
  505MOL0    Cl66572   3.107   5.829   5.637  0.4862  0.1489 -0.1812
  505MOL0     C66573   4.096   5.834   5.035  0.2124 -0.2325 -0.0829
  505MOL0     C66574   4.217   5.886   5.066 -0.6339  0.8453 -0.2816
  505MOL0     O66575   4.506   5.846   4.977 -0.0156  0.5772  0.6601
  505MOL0     C66576   4.642   6.131   5.136  0.0741  0.0731 -0.2465
  505MOL0     C66577   4.765   6.173   5.192  0.4827  0.0957 -0.0691
  505MOL0     N66578   5.213   6.590   5.682 -0.6387 -0.7084 -0.0274
  505MOL0     N66579   5.307   6.679   5.713 -0.7192 -0.1162 -0.2498
  505MOL0     C66580   6.483   7.065   5.707 -0.5006 -0.6842  0.4723
  505MOL0     C66581   6.620   7.071   5.739  0.0188 -0.4153 -0.7568
  505MOL0     C66582   7.039   7.277   5.784 -0.1909  0.5669  0.5776
  505MOL0     C66583   7.096   7.226   5.664  0.0579 -0.7299  0.4837
  505MOL0     C66584   7.236   7.230   5.645  0.7223  0.5046  0.4746
  505MOL0     C66585   7.317   7.279   5.747 -1.1853  0.4698  0.0672
  505MOL0     O66586   7.456   7.280   5.749  0.1687  0.3463  0.5339
  505MOL0     C66587   7.517   7.152   5.715 -0.8490 -0.0984  0.3995
  505MOL0     C66588   7.655   7.168   5.768  0.3153  0.0659 -0.8085
  505MOL0     C66589   7.730   7.036   5.764 -0.3638 -0.2461 -0.4402
  505MOL0     C66590   7.886   7.054   5.786  0.6141  0.8174 -0.1180
  505MOL0     C66591   7.924   7.048   5.928 -0.4579 -0.1737 -0.3562
  505MOL0     C66592   7.966   7.042   6.049  0.0621 -0.1270 -0.3991
  505MOL0     C66593   7.260   7.330   5.864 -0.0400 -0.2617  0.4741
  505MOL0     C66594   7.127   7.331   5.882  1.1878  0.7972  0.4052
  505MOL0     H66595   6.698   7.377   5.617 -0.9065  0.4759  0.4354
  505MOL0     H66596   6.468   7.373   5.576  0.1635  0.4581 -0.7285
  505MOL0     H66597   6.189   7.075   5.752  1.3338 -0.8898  0.3679
  505MOL0     H66598   6.243   6.996   5.602 -0.8602 -0.0468 -0.9826
  505MOL0     H66599   6.091   7.144   5.474  1.6435 -2.4922 -0.0905
  505MOL0     H66600   6.043   7.222   5.626 -0.2651 -0.2527 -0.5369
  505MOL0     H66601   5.949   7.000   5.694 -1.3829  0.2961 -0.1740
  505MOL0     H66602   5.966   6.941   5.530 -2.4217 -1.0238  1.5270
  505MOL0     H66603   5.819   7.189   5.610 -0.8084 -1.0589  1.2451
  505MOL0     H66604   5.815   7.127   5.445  0.3054  3.0704  0.5961
  505MOL0     H66605   5.613   7.062   5.606  0.1685  0.0291 -2.0673
  505MOL0     H66606   5.729   6.952   5.675  0.3898 -2.2996 -0.0872
  505MOL0     H66607   5.779   6.857   5.453 -0.7013  1.7409 -1.5991
  505MOL0     H66608   5.639   6.937   5.394  0.6817  2.3251  1.1259
  505MOL0     H66609   5.587   6.703   5.476 -0.6993  0.3810 -0.0281
  505MOL0     H66610   5.644   6.745   5.639  2.9059 -1.9547 -1.9975
  505MOL0     H66611   5.417   6.909   5.515 -0.2840  1.5625  1.3123
  505MOL0     H66612   5.457   6.898   5.680  1.3407  1.7258 -0.3802
  505MOL0     H66613   5.286   6.703   5.378 -2.1569 -3.6605 -1.1082
  505MOL0     H66614   5.113   6.525   5.356  0.2287 -2.0840 -1.7215
  505MOL0     H66615   5.045   6.458   5.505  0.3159 -0.1339 -0.0885
  505MOL0     H66616   5.202   6.295   5.528 -1.1131  0.6103  0.7652
  505MOL0     H66617   5.324   6.378   5.437  0.6166 -1.9147  1.7943
  505MOL0     H66618   5.216   6.311   5.227  2.8727 -1.2716  0.6369
  505MOL0     H66619   5.226   6.167   5.332 -0.4401  0.4125 -0.2657
  505MOL0     H66620   4.972   6.319   5.298 -1.7929 -1.9632 -2.7125
  505MOL0     H66621   5.002   6.180   5.406 -2.3553  0.0296 -0.2627
  505MOL0     H66622   4.955   5.908   5.102 -0.1592  1.1346  1.6487
  505MOL0     H66623   4.749   5.862   4.967 -0.5410 -0.6365  1.0123
  505MOL0     H66624   4.243   6.147   4.859  1.1817  0.9610  2.1277
  505MOL0     H66625   3.992   6.045   4.807 -0.2559 -2.0456 -0.5865
  505MOL0     H66626   3.831   5.759   5.103  0.9965  0.4172 -0.0270
  505MOL0     H66627   3.701   5.795   4.998  1.4345 -0.0680 -2.8285
  505MOL0     H66628   3.723   6.036   5.039  0.0728  0.0718 -0.8115
  505MOL0     H66629   3.855   6.019   5.149 -1.7125  1.4309  0.2516
  505MOL0     H66630   3.705   5.865   5.282  1.7691 -0.4602 -0.8768
  505MOL0     H66631   3.570   5.912   5.176 -0.0986  0.8016 -1.7328
  505MOL0     H66632   3.725   6.110   5.347  1.5541 -1.8521  0.7895
  505MOL0     H66633   3.582   6.143   5.254 -1.4476 -2.0824 -2.3041
  505MOL0     H66634   3.526   6.116   5.478 -0.5589  1.9558 -3.5004
  505MOL0     H66635   3.582   5.948   5.494 -2.3126 -0.1823  0.5474
  505MOL0     H66636   3.406   5.855   5.343 -4.4359 -0.2352  0.2758
  505MOL0     H66637   3.377   6.031   5.305  0.5416  2.3168  2.6328
  505MOL0     H66638   3.358   5.894   5.579 -0.2234 -1.4941 -1.2164
  505MOL0     H66639   3.276   6.052   5.532 -1.4358 -0.3950 -0.8936
  505MOL0     H66640   3.206   5.777   5.424  2.8466  2.2152 -2.7364
  505MOL0     H66641   3.113   5.925   5.413 -1.5217  2.5095  3.2362
  505MOL0     H66642   4.062   5.738   5.071 -0.8485  0.6940  1.5503
  505MOL0     H66643   4.281   5.837   5.138 -1.8992 -2.1859 -1.0712
  505MOL0     H66644   4.551   6.188   5.153 -1.0327 -1.2458 -1.4933
  505MOL0     H66645   4.770   6.262   5.254  2.5188  0.3838 -0.5968
  505MOL0     H66646   6.420   6.980   5.728  0.8250 -1.9513 -0.5060
  505MOL0     H66647   6.673   6.996   5.797 -0.6779  1.3404  2.3912
  505MOL0     H66648   7.037   7.183   5.583 -0.0843 -0.0250  0.2086
  505MOL0     H66649   7.285   7.202   5.552 -0.9633  2.6523 -1.1917
  505MOL0     H66650   7.507   7.154   5.606  0.3678 -2.0976  0.2139
  505MOL0     H66651   7.451   7.077   5.758 -2.4149  0.6918 -0.5366
  505MOL0     H66652   7.702   7.246   5.708  0.0866  2.3544  1.7658
  505MOL0     H66653   7.635   7.227   5.858  0.6940  1.6646 -1.7413
  505MOL0     H66654   7.723   6.996   5.663 -1.3228  2.0721 -1.3398
  505MOL0     H66655   7.688   6.964   5.836  1.4651 -0.6417  0.3023
  505MOL0     H66656   7.950   6.979   5.740 -0.1741 -0.6529  1.0947
  505MOL0     H66657   7.914   7.152   5.746  0.4518  0.7510 -0.3942
  505MOL0     H66658   8.015   7.034   6.144  0.6928  0.6746 -0.6410
  505MOL0     H66659   7.333   7.361   5.937 -0.4544 -2.2280  1.7983
  505MOL0     H66660   7.084   7.363   5.976  1.1717 -1.3442  1.1743
  506MOL0     O66661  10.154   2.233   1.654 -0.2179  0.2640  0.5072
  506MOL0     C66662  10.170   2.155   1.560  0.3497  0.6565  0.6659
  506MOL0     O66663  10.070   2.068   1.508 -1.3653  0.3959  0.0724
  506MOL0     C66664   9.956   2.070   1.580  0.4875 -1.0341  0.1700
  506MOL0     C66665   9.915   1.966   1.652  0.0671  0.4684  0.4060
  506MOL0     C66666   9.796   1.973   1.726  0.0195  0.2704 -0.6706
  506MOL0     C66667   9.717   2.090   1.716 -0.9184  0.0634 -0.1441
  506MOL0     O66668   9.602   2.101   1.782  0.1770  0.1606 -0.0216
  506MOL0     C66669   9.482   2.069   1.704 -0.2230  0.6516 -0.7601
  506MOL0     C66670   9.364   2.112   1.794  0.3282 -0.2440 -0.1211
  506MOL0     C66671   9.226   2.063   1.744 -0.5585  0.5725 -0.6369
  506MOL0     C66672   9.112   2.116   1.837  0.6357 -0.1133  0.7850
  506MOL0     C66673   8.992   2.023   1.827 -0.5365  0.0962 -0.1187
  506MOL0     C66674   8.941   2.027   1.685 -0.0493 -0.0720 -1.1457
  506MOL0     C66675   8.805   1.971   1.653  0.6734  0.0324 -0.4417
  506MOL0     C66676   8.696   2.052   1.729  0.4116 -0.3259 -0.0625
  506MOL0     N66677   8.559   2.004   1.700 -0.3033 -0.3584 -0.6005
  506MOL0     C66678   8.476   2.059   1.603  0.9589  0.1205  0.7121
  506MOL0     C66679   8.357   2.001   1.628  0.3699 -0.5197  0.0163
  506MOL0     C66680   8.231   2.028   1.550  0.3565 -0.0287  0.2260
  506MOL0     C66681   8.129   2.080   1.657 -0.3961  0.1083 -0.7740
  506MOL0     C66682   7.990   2.077   1.611 -0.1798 -0.0361  0.6719
  506MOL0     C66683   7.927   1.932   1.622  0.2677  0.9610  0.8535
  506MOL0     O66684   7.797   1.922   1.558  0.5483  0.1464  0.7002
  506MOL0     C66685   7.685   1.962   1.625  0.8581  0.8964  0.4584
  506MOL0     C66686   7.685   1.998   1.759  0.5182 -0.5677  0.1892
  506MOL0     C66687   7.565   2.036   1.826 -0.4410  0.3834 -0.3348
  506MOL0     C66688   7.434   2.024   1.764 -0.3556 -0.0190 -0.2149
  506MOL0     C66689   7.306   2.058   1.823 -0.3047  0.2675 -0.2974
  506MOL0     O66690   7.192   2.047   1.757 -0.5288  0.2983 -0.0871
  506MOL0     C66691   7.073   2.055   1.822  0.3462  0.3797 -0.9151
  506MOL0     C66692   7.042   2.032   1.959  0.7530  1.0067 -0.1499
  506MOL0     C66693   6.911   2.022   2.001  0.1557  0.7008  0.9886
  506MOL0     C66694   6.806   2.040   1.913  0.2327  0.3099 -0.0260
  506MOL0     O66695   6.672   2.043   1.955  0.1666 -0.4205 -0.0345
  506MOL0     C66696   6.643   2.046   2.097  0.2689 -0.1981  0.0444
  506MOL0     C66697   6.490   2.056   2.106  0.6207 -0.9193 -0.1466
  506MOL0     C66698   6.435   2.206   2.098 -0.0895 -0.9861  0.4577
  506MOL0     C66699   6.510   2.321   2.181 -1.1098 -0.3430  0.3354
  506MOL0     C66700   6.462   2.458   2.129  0.1305  0.2958 -0.5112
  506MOL0     C66701   6.320   2.494   2.158  0.0709 -0.6485  0.2707
  506MOL0     C66702   6.276   2.619   2.081 -0.4221 -0.8805  1.0104
  506MOL0     C66703   6.133   2.677   2.114  0.0486  0.0781  0.4234
  506MOL0    Cl66704   6.004   2.585   2.054 -0.3455 -0.2924  0.6400
  506MOL0     C66705   6.834   2.057   1.778 -0.3084 -0.0297  0.7805
  506MOL0     C66706   6.965   2.075   1.732 -0.2615 -0.3112 -0.4530
  506MOL0     O66707   7.316   2.099   1.936 -0.1020  0.2278 -0.3414
  506MOL0     C66708   7.442   1.972   1.630 -0.1455 -0.1916 -0.3656
  506MOL0     C66709   7.561   1.945   1.556  0.4951 -0.2109 -0.3599
  506MOL0     N66710   8.368   1.905   1.736  0.2921  0.2210 -0.8804
  506MOL0     N66711   8.492   1.911   1.780  0.1572 -0.3505  0.6674
  506MOL0     C66712   9.763   2.194   1.645  0.0823 -0.0280  0.3583
  506MOL0     C66713   9.882   2.188   1.577  0.4635 -0.5985  0.0818
  506MOL0     C66714  10.304   2.137   1.502  0.9442  0.0377  0.8259
  506MOL0     C66715  10.400   2.241   1.502 -0.0405 -0.8891  0.7872
  506MOL0     C66716  10.517   2.230   1.425  0.4734  0.3485  0.1558
  506MOL0     C66717  10.540   2.120   1.336 -0.4741  0.4801  0.0187
  506MOL0     O66718  10.640   2.102   1.244  1.0825 -0.0716 -0.2763
  506MOL0     C66719  10.728   2.210   1.233 -0.8248 -0.8872  0.4314
  506MOL0     C66720  10.795   2.188   1.101 -0.2956 -0.4904  0.3979
  506MOL0     C66721  10.860   2.055   1.089 -0.3913 -0.3403  0.0639
  506MOL0     C66722  10.901   2.034   0.947 -0.2352 -0.0279  0.1325
  506MOL0     C66723  10.979   1.908   0.944 -0.5278  0.6735 -0.1253
  506MOL0     C66724  11.056   1.815   0.930  0.2506 -0.0182  0.1886
  506MOL0     C66725  10.448   2.017   1.340 -0.3918 -0.1603 -0.2014
  506MOL0     C66726  10.332   2.016   1.427 -0.7398 -0.1658  0.1302
  506MOL0     H66727   9.977   1.877   1.660 -2.9342 -1.6838  1.8990
  506MOL0     H66728   9.761   1.892   1.790  2.5110  1.2169  2.1102
  506MOL0     H66729   9.477   1.962   1.680  1.4817  0.4554 -0.4219
  506MOL0     H66730   9.489   2.130   1.614 -2.0654  1.3097 -0.4914
  506MOL0     H66731   9.367   2.221   1.801  1.5400 -0.2623 -0.0884
  506MOL0     H66732   9.380   2.064   1.890 -1.4862 -0.4559  0.1049
  506MOL0     H66733   9.217   1.955   1.752 -0.8987  0.6276 -0.2360
  506MOL0     H66734   9.219   2.093   1.638 -1.1164  0.4607 -0.6329
  506MOL0     H66735   9.138   2.115   1.944 -0.6816  1.7808  1.1681
  506MOL0     H66736   9.090   2.220   1.811  1.4709  0.1646  1.1787
  506MOL0     H66737   8.915   2.065   1.892  0.5629  1.7087  0.1950
  506MOL0     H66738   9.014   1.921   1.860 -2.8790 -1.0040 -1.6033
  506MOL0     H66739   9.015   1.982   1.618  0.5319 -1.4527  0.3501
  506MOL0     H66740   8.929   2.130   1.649  0.0263  0.2899 -0.1645
  506MOL0     H66741   8.781   1.966   1.546  0.3436 -0.0479 -0.3677
  506MOL0     H66742   8.803   1.866   1.684 -0.6957 -0.8691 -3.2198
  506MOL0     H66743   8.707   2.158   1.704  1.7709 -0.4998 -0.2746
  506MOL0     H66744   8.706   2.049   1.838 -2.7763 -0.6364  0.3300
  506MOL0     H66745   8.508   2.136   1.533 -0.2460 -0.2498 -0.2859
  506MOL0     H66746   8.198   1.939   1.497 -0.8529  0.4423  0.1430
  506MOL0     H66747   8.236   2.106   1.473  1.7924 -1.0938 -0.8059
  506MOL0     H66748   8.147   2.181   1.697 -1.2589 -0.8158  2.1930
  506MOL0     H66749   8.138   2.016   1.745 -0.1898  1.8139  0.5124
  506MOL0     H66750   7.928   2.142   1.674 -1.2374 -0.6337  0.2822
  506MOL0     H66751   7.985   2.112   1.507 -2.3349  3.5952  1.8236
  506MOL0     H66752   7.930   1.885   1.721  3.0978  3.2770  2.0522
  506MOL0     H66753   7.994   1.870   1.562  0.7563  2.0998  0.1735
  506MOL0     H66754   7.780   2.012   1.809  0.6047  1.1432 -0.3941
  506MOL0     H66755   7.564   2.075   1.927 -2.8836 -1.0941  0.2977
  506MOL0     H66756   7.126   2.009   2.024  0.4462 -0.0335 -0.1022
  506MOL0     H66757   6.890   1.986   2.102  1.6810 -1.0872  0.7278
  506MOL0     H66758   6.698   2.123   2.152 -0.6641  0.8915 -0.5132
  506MOL0     H66759   6.672   1.953   2.148  0.5726  0.3169  0.8332
  506MOL0     H66760   6.453   2.014   2.199 -0.0961  1.8096  0.8856
  506MOL0     H66761   6.441   2.014   2.017 -0.9087  0.8913 -0.2323
  506MOL0     H66762   6.327   2.196   2.117 -0.3222 -5.4615 -1.7866
  506MOL0     H66763   6.447   2.236   1.993  0.1192 -1.8841  0.2191
  506MOL0     H66764   6.503   2.317   2.290  0.2515 -0.0010  0.4511
  506MOL0     H66765   6.616   2.311   2.159 -1.2685  1.7254 -1.7737
  506MOL0     H66766   6.476   2.459   2.020  0.4390 -0.9780 -0.4917
  506MOL0     H66767   6.536   2.530   2.165  2.4402 -2.4490  0.5625
  506MOL0     H66768   6.298   2.504   2.265 -2.5328 -4.3065  0.2670
  506MOL0     H66769   6.248   2.415   2.135 -1.0846 -0.6643  3.4659
  506MOL0     H66770   6.343   2.702   2.106 -2.6852  0.5783  2.5960
  506MOL0     H66771   6.281   2.605   1.972 -0.3488  4.1123  0.1308
  506MOL0     H66772   6.118   2.774   2.064 -1.2988 -0.3406 -0.0282
  506MOL0     H66773   6.126   2.691   2.222  1.4255 -2.0130  0.8373
  506MOL0     H66774   6.745   2.065   1.715  1.6658 -2.0820 -2.5557
  506MOL0     H66775   6.971   2.094   1.625  0.7137  1.6430 -0.1067
  506MOL0     H66776   7.347   1.949   1.582 -0.1017  0.1180 -0.5989
  506MOL0     H66777   7.548   1.916   1.452  0.2942 -1.4198 -0.0147
  506MOL0     H66778   9.702   2.282   1.627  0.0989 -0.0275  0.3073
  506MOL0     H66779   9.911   2.267   1.508 -1.6904  1.5482  1.4537
  506MOL0     H66780  10.372   2.331   1.555 -1.6542 -0.8813 -0.0201
  506MOL0     H66781  10.575   2.322   1.416  0.0189  0.6228 -0.0218
  506MOL0     H66782  10.804   2.204   1.311 -1.5073  2.8886  1.6152
  506MOL0     H66783  10.681   2.309   1.237 -0.2401 -0.5891  0.0416
  506MOL0     H66784  10.720   2.201   1.023 -1.1235  1.8139  1.4935
  506MOL0     H66785  10.868   2.269   1.088  0.6224 -1.0847  1.5272
  506MOL0     H66786  10.793   1.975   1.120 -0.5309 -0.7470 -1.2318
  506MOL0     H66787  10.946   2.064   1.155 -0.1717  2.0253 -0.4474
  506MOL0     H66788  10.812   2.032   0.884 -0.0614  3.3283 -0.4267
  506MOL0     H66789  10.969   2.112   0.911  0.0506 -0.7078 -0.8288
  506MOL0     H66790  11.130   1.739   0.913  0.3247  0.2696 -0.8278
  506MOL0     H66791  10.472   1.931   1.277 -1.3994  0.3258 -1.2867
  506MOL0     H66792  10.260   1.936   1.416  0.0983 -1.0645  0.9717
  507MOL0     O66793  10.714   8.207   8.040  0.4453 -0.0674 -0.3929
  507MOL0     C66794  10.686   8.328   8.038 -0.4051  0.7050 -0.5069
  507MOL0     O66795  10.772   8.427   8.065 -0.1593  0.4683 -0.4619
  507MOL0     C66796  10.904   8.401   8.084 -0.4755 -0.1145  0.6415
  507MOL0     C66797  10.979   8.285   8.110  0.2252 -0.3738 -0.2434
  507MOL0     C66798  11.113   8.289   8.139 -0.0884 -0.5276  0.1387
  507MOL0     C66799  11.183   8.409   8.152  0.1640 -0.6465 -0.0120
  507MOL0     O66800  11.314   8.398   8.176 -0.6602  0.5333 -0.3994
  507MOL0     C66801  11.392   8.509   8.196 -0.3135  0.5729  0.4753
  507MOL0     C66802  11.539   8.485   8.237 -0.0999  0.9525 -0.3313
  507MOL0     C66803  11.613   8.603   8.285 -0.0947  0.3532  0.2720
  507MOL0     C66804  11.724   8.549   8.374 -0.0817  0.0533 -0.5289
  507MOL0     C66805  11.828   8.646   8.425  0.3711 -0.7912 -0.2450
  507MOL0     C66806  11.885   8.609   8.564  0.4184  0.5622  1.1976
  507MOL0     C66807  11.996   8.505   8.556 -0.5586  0.4518  0.5579
  507MOL0     C66808  12.052   8.457   8.695 -0.2163  0.9069  0.2286
  507MOL0     N66809  11.949   8.427   8.789  0.0611  0.1845 -0.2013
  507MOL0     C66810  11.928   8.496   8.905  0.0720 -0.1826  0.7117
  507MOL0     C66811  11.840   8.419   8.970  0.4913 -0.2870 -0.4544
  507MOL0     C66812  11.772   8.453   9.099 -0.9543  0.4352 -0.6988
  507MOL0     C66813  11.674   8.562   9.086 -0.1947 -0.3015  0.1296
  507MOL0     C66814  11.595   8.577   9.218 -0.0044  0.5309  0.0105
  507MOL0     C66815  11.504   8.696   9.210  0.0387  0.3403  0.1607
  507MOL0     O66816  11.421   8.683   9.091  0.2498  0.3366 -0.6935
  507MOL0     C66817  11.294   8.729   9.077  0.5287 -0.5816  0.2506
  507MOL0     C66818  11.239   8.708   8.949  0.2291  1.0663 -0.0712
  507MOL0     C66819  11.105   8.746   8.916  0.0370 -0.0031  0.9272
  507MOL0     C66820  11.021   8.798   9.015  0.7935  0.0607 -0.1030
  507MOL0     C66821  10.880   8.839   8.971  0.5459 -0.2493 -0.9238
  507MOL0     O66822  10.856   8.849   8.841 -0.0234 -0.1134 -0.1725
  507MOL0     C66823  10.735   8.891   8.801 -0.5308  0.0421 -0.0446
  507MOL0     C66824  10.674   9.011   8.841 -0.8227 -0.3030 -1.0213
  507MOL0     C66825  10.554   9.069   8.795 -0.1081 -0.5937 -0.3817
  507MOL0     C66826  10.480   8.994   8.701 -0.3603  0.4166 -0.2313
  507MOL0     O66827  10.358   9.036   8.640  0.1458  0.6909 -0.9180
  507MOL0     C66828  10.264   9.091   8.730  0.1129  1.2495  0.9350
  507MOL0     C66829  10.136   9.108   8.647 -0.6828  0.8283 -0.8945
  507MOL0     C66830  10.011   9.156   8.736  0.3336 -0.1420  0.2226
  507MOL0     C66831   9.892   9.212   8.643  0.3179  0.1541  0.2268
  507MOL0     C66832   9.816   9.104   8.563  0.0827  0.1063  0.2466
  507MOL0     C66833   9.696   9.044   8.649 -0.7983 -0.6924 -0.1647
  507MOL0     C66834   9.589   9.152   8.682  0.0219  0.1874 -0.4105
  507MOL0     C66835   9.447   9.121   8.657  0.4397  0.8714 -0.2665
  507MOL0    Cl66836   9.339   9.269   8.676  0.1072  0.2083  0.0010
  507MOL0     C66837  10.540   8.873   8.654  0.4628 -0.5618  0.2777
  507MOL0     C66838  10.669   8.822   8.702  0.7434  0.5581  0.0896
  507MOL0     O66839  10.792   8.852   9.065 -0.8379 -0.3711  0.4246
  507MOL0     C66840  11.079   8.811   9.143 -0.2819  0.7161  0.2280
  507MOL0     C66841  11.210   8.779   9.176  0.0610  0.5490  0.0636
  507MOL0     N66842  11.814   8.303   8.899  0.0902 -0.3097 -0.5390
  507MOL0     N66843  11.886   8.307   8.796  0.1709 -0.7293 -0.1346
  507MOL0     C66844  11.115   8.528   8.132  0.0334  0.2436 -0.2705
  507MOL0     C66845  10.978   8.516   8.105  0.1261 -0.0437  0.3425
  507MOL0     C66846  10.547   8.356   8.019 -0.1890  0.1501 -0.0913
  507MOL0     C66847  10.490   8.486   8.011  0.0058 -0.3687 -0.3208
  507MOL0     C66848  10.357   8.510   7.971  0.5837  0.4276 -0.1810
  507MOL0     C66849  10.267   8.411   7.944  0.1947  0.6026  0.8137
  507MOL0     O66850  10.140   8.450   7.908  0.2846  0.3910 -0.3109
  507MOL0     C66851  10.043   8.348   7.861 -0.1546 -1.0039  0.3791
  507MOL0     C66852   9.979   8.267   7.980  0.1788  0.8987  0.0824
  507MOL0     C66853   9.865   8.343   8.055 -0.4328 -0.2950 -0.0884
  507MOL0     C66854   9.734   8.268   8.053  0.3188 -0.5412 -0.1761
  507MOL0     C66855   9.691   8.224   8.185 -0.0916  0.0590 -0.0548
  507MOL0     C66856   9.669   8.219   8.301  0.7931 -0.2556 -0.0837
  507MOL0     C66857  10.326   8.279   7.941 -0.3866  0.5522  0.0832
  507MOL0     C66858  10.455   8.249   7.989  0.2123 -0.5750 -0.1350
  507MOL0     H66859  10.933   8.187   8.114  0.4671 -0.4607  1.3794
  507MOL0     H66860  11.170   8.198   8.151  3.0756  0.7725 -3.1147
  507MOL0     H66861  11.339   8.588   8.250  0.4132  2.3133 -1.2297
  507MOL0     H66862  11.404   8.556   8.098 -1.4224  1.9979  0.9934
  507MOL0     H66863  11.599   8.437   8.159 -2.1474  1.1823 -2.1793
  507MOL0     H66864  11.526   8.418   8.322 -3.4672  0.8179 -0.7854
  507MOL0     H66865  11.550   8.664   8.350 -3.0930 -1.4640 -0.7035
  507MOL0     H66866  11.644   8.666   8.201 -0.4675  0.0852 -0.0755
  507MOL0     H66867  11.675   8.505   8.462  1.2937 -0.1277  0.1753
  507MOL0     H66868  11.778   8.465   8.331  0.9354 -0.1192  0.9781
  507MOL0     H66869  11.761   8.731   8.440  1.0907  0.2470 -2.4396
  507MOL0     H66870  11.908   8.684   8.360  2.6396  1.8754  3.6807
  507MOL0     H66871  11.797   8.572   8.617 -0.7718  2.0447  0.3530
  507MOL0     H66872  11.926   8.697   8.613  0.4864  1.9686 -1.2070
  507MOL0     H66873  11.969   8.412   8.505  1.9254 -1.1979  2.0318
  507MOL0     H66874  12.076   8.545   8.494  1.4796 -1.0330  2.0935
  507MOL0     H66875  12.124   8.534   8.725  0.5545 -0.1854  1.2903
  507MOL0     H66876  12.118   8.371   8.679 -1.3606  0.4226 -2.3015
  507MOL0     H66877  11.962   8.598   8.920 -1.0983  0.6466 -1.7333
  507MOL0     H66878  11.850   8.484   9.169 -1.7434 -1.1167  0.9260
  507MOL0     H66879  11.717   8.370   9.142 -2.7859  0.8360 -2.1362
  507MOL0     H66880  11.597   8.541   9.012 -0.9442 -0.7225  1.0003
  507MOL0     H66881  11.727   8.654   9.058 -1.4461 -0.4348 -3.0983
  507MOL0     H66882  11.542   8.483   9.237  1.5662 -0.7438 -1.6066
  507MOL0     H66883  11.656   8.608   9.304  2.5922 -0.1800 -1.4721
  507MOL0     H66884  11.558   8.791   9.203 -1.3296  1.1875  0.6686
  507MOL0     H66885  11.440   8.698   9.299 -1.9280  1.2558 -1.2286
  507MOL0     H66886  11.305   8.678   8.869  2.2734  3.9624  0.4049
  507MOL0     H66887  11.076   8.734   8.812 -0.9037 -1.2502  1.3139
  507MOL0     H66888  10.744   9.075   8.895 -0.6475  1.0778 -2.8013
  507MOL0     H66889  10.526   9.168   8.830 -0.7148 -0.9312  0.0986
  507MOL0     H66890  10.293   9.189   8.771  1.9371  0.4291  1.7087
  507MOL0     H66891  10.247   9.029   8.818  0.0762  1.0077  0.7575
  507MOL0     H66892  10.103   9.014   8.601  0.7182  0.1455 -0.5437
  507MOL0     H66893  10.153   9.183   8.569 -1.1030  1.8348 -0.0530
  507MOL0     H66894  10.046   9.239   8.798  1.8883  1.6254 -2.7862
  507MOL0     H66895   9.973   9.080   8.806 -0.8965  0.4269  0.1994
  507MOL0     H66896   9.809   9.257   8.699 -3.0500 -0.7187 -3.5746
  507MOL0     H66897   9.935   9.298   8.591  0.5171  1.5541  2.5412
  507MOL0     H66898   9.882   9.021   8.537  1.0751 -0.6859  4.6001
  507MOL0     H66899   9.785   9.143   8.465  1.6869 -0.9730 -0.7391
  507MOL0     H66900   9.742   9.005   8.740 -1.6134 -2.1509 -0.3554
  507MOL0     H66901   9.650   8.963   8.592 -2.2048  1.3527 -2.1323
  507MOL0     H66902   9.597   9.182   8.787 -0.5039  0.6369 -0.4892
  507MOL0     H66903   9.620   9.239   8.624 -0.6877  2.1955  1.9959
  507MOL0     H66904   9.417   9.037   8.720  3.7462 -0.3544 -0.1491
  507MOL0     H66905   9.425   9.091   8.555 -0.0268 -2.2926  0.6670
  507MOL0     H66906  10.499   8.820   8.568  4.0415 -2.1632 -0.6434
  507MOL0     H66907  10.711   8.731   8.662 -0.5531 -0.7855  1.6737
  507MOL0     H66908  11.017   8.857   9.219 -0.0489  1.3236  0.0623
  507MOL0     H66909  11.238   8.792   9.280 -1.6635  1.0735  0.4829
  507MOL0     H66910  11.167   8.622   8.114  1.4638 -0.6952 -1.2906
  507MOL0     H66911  10.930   8.614   8.100 -2.2099 -1.1838 -2.3133
  507MOL0     H66912  10.552   8.574   8.027  0.7851 -0.5663 -1.9560
  507MOL0     H66913  10.324   8.612   7.954 -0.1767 -0.0802 -1.9639
  507MOL0     H66914  10.093   8.276   7.795 -1.0177 -2.0860  0.8768
  507MOL0     H66915   9.964   8.402   7.807 -1.3581 -0.7845  2.2897
  507MOL0     H66916   9.948   8.163   7.966 -1.0074  1.2465  0.0312
  507MOL0     H66917  10.068   8.264   8.045  1.4879  2.1778 -1.5508
  507MOL0     H66918   9.853   8.442   8.009 -1.9067 -1.2744 -1.9531
  507MOL0     H66919   9.898   8.363   8.157 -0.3465 -0.7369 -0.0259
  507MOL0     H66920   9.663   8.338   8.006  2.7526  0.9284 -1.9266
  507MOL0     H66921   9.743   8.183   7.985 -0.9452 -0.3761 -0.5820
  507MOL0     H66922   9.647   8.223   8.406 -0.4435  3.3537 -0.3331
  507MOL0     H66923  10.258   8.203   7.904 -0.8007  1.7667 -1.7651
  507MOL0     H66924  10.486   8.145   7.996 -0.5533 -0.6986  2.6928
  508MOL0     O66925   1.691   9.981   3.641  0.1672 -0.2293 -0.0263
  508MOL0     C66926   1.751  10.032   3.736  0.2580 -0.1124  0.3224
  508MOL0     O66927   1.693  10.114   3.824  0.1989  0.0567 -0.3460
  508MOL0     C66928   1.563  10.155   3.812 -1.1208  0.1492 -0.8306
  508MOL0     C66929   1.456  10.062   3.779 -0.6318  0.3415  0.3925
  508MOL0     C66930   1.325  10.115   3.781 -0.0801 -0.4464  0.3491
  508MOL0     C66931   1.298  10.253   3.796  0.3673 -0.0283  0.2947
  508MOL0     O66932   1.174  10.307   3.788  0.0935  0.6579 -0.8448
  508MOL0     C66933   1.059  10.222   3.833  0.1710 -0.5182 -0.2722
  508MOL0     C66934   0.970  10.211   3.705  0.5283 -0.1851 -0.4359
  508MOL0     C66935   0.848  10.124   3.730 -0.4134 -0.0794  0.3769
  508MOL0     C66936   0.769  10.155   3.862 -0.0483  0.9261  0.7859
  508MOL0     C66937   0.629  10.091   3.874 -0.4633  0.0710  0.3632
  508MOL0     C66938   0.560  10.133   4.001 -1.0326  0.1586 -0.2336
  508MOL0     C66939   0.446  10.030   4.013  0.0977  0.4035  0.6606
  508MOL0     C66940   0.343  10.061   3.908 -0.0325 -0.2148 -0.0106
  508MOL0     N66941   0.222   9.969   3.893 -0.0485  0.8094  0.0760
  508MOL0     C66942   0.096  10.015   3.895  0.8681  0.9950  0.3277
  508MOL0     C66943   0.022   9.904   3.940 -0.3248 -0.5236  0.2882
  508MOL0     C66944  -0.122   9.909   3.960 -0.5261  0.0407  0.0652
  508MOL0     C66945  -0.186  10.041   4.014 -0.3704  0.4789 -1.6660
  508MOL0     C66946  -0.171  10.045   4.169  0.9396 -0.3381 -0.4626
  508MOL0     C66947  -0.299  10.000   4.250 -0.6602 -0.1660 -0.0573
  508MOL0     O66948  -0.355   9.883   4.182 -1.0109 -0.9963  0.0614
  508MOL0     C66949  -0.484   9.897   4.141 -0.5891  0.0075 -0.0717
  508MOL0     C66950  -0.584   9.938   4.224 -0.3140  0.2900  0.0136
  508MOL0     C66951  -0.718   9.933   4.181 -0.4542  0.6244 -0.6607
  508MOL0     C66952  -0.750   9.878   4.058 -0.0735 -0.8743 -0.3277
  508MOL0     C66953  -0.898   9.873   4.020  0.3490  0.1738 -0.2878
  508MOL0     O66954  -0.992   9.908   4.109 -0.1801  0.1650 -0.5592
  508MOL0     C66955  -1.107   9.977   4.058 -0.5249  0.1897  0.0390
  508MOL0     C66956  -1.092  10.094   3.977  0.4047  1.0258 -1.0716
  508MOL0     C66957  -1.203  10.167   3.923 -1.2089  0.6446 -0.3773
  508MOL0     C66958  -1.335  10.131   3.971 -0.4561 -0.0160  0.3217
  508MOL0     O66959  -1.444  10.210   3.936 -0.7901  0.0293  0.0342
  508MOL0     C66960  -1.425  10.301   3.830 -1.3205  0.1746 -0.9734
  508MOL0     C66961  -1.552  10.319   3.755 -0.2945 -1.0322 -0.4717
  508MOL0     C66962  -1.626  10.441   3.801 -0.1584 -0.9465  0.0623
  508MOL0     C66963  -1.739  10.469   3.709  0.3217  0.7414 -0.3108
  508MOL0     C66964  -1.856  10.562   3.760  0.4746  0.4828 -0.0609
  508MOL0     C66965  -1.965  10.589   3.655  0.3878  0.3177 -0.8031
  508MOL0     C66966  -2.074  10.684   3.711  0.5928  0.3033  0.2680
  508MOL0     C66967  -2.167  10.748   3.613 -0.5551 -0.6629 -0.1172
  508MOL0    Cl66968  -2.282  10.643   3.520 -0.2740  0.0291 -0.0377
  508MOL0     C66969  -1.340  10.023   4.059  0.4325  0.4653  0.2989
  508MOL0     C66970  -1.233   9.942   4.097  0.3974 -0.5884  0.5734
  508MOL0     O66971  -0.931   9.835   3.906  0.6826 -0.4434 -0.1645
  508MOL0     C66972  -0.650   9.843   3.972 -0.6884 -0.4826  0.7554
  508MOL0     C66973  -0.512   9.845   4.013  0.5519 -0.6378 -0.2465
  508MOL0     N66974   0.099   9.794   3.937 -0.2940 -0.1227 -0.0654
  508MOL0     N66975   0.226   9.832   3.908  0.4167  0.3580  0.5245
  508MOL0     C66976   1.405  10.344   3.812  0.5343  0.6263  0.4041
  508MOL0     C66977   1.537  10.290   3.834  0.6569 -0.1333  0.9932
  508MOL0     C66978   1.888   9.996   3.753 -1.0674  0.0342 -0.2566
  508MOL0     C66979   1.945   9.886   3.700  0.6277  0.0778  0.4574
  508MOL0     C66980   2.072   9.848   3.729 -1.7375  0.3885  0.4922
  508MOL0     C66981   2.166   9.934   3.797  0.4831 -0.4500  0.3935
  508MOL0     O66982   2.301   9.911   3.816 -0.0512 -0.2408  0.2818
  508MOL0     C66983   2.397  10.020   3.810  0.0137  0.1829  0.2123
  508MOL0     C66984   2.490   9.996   3.927 -0.6216  0.0054 -0.1010
  508MOL0     C66985   2.605  10.101   3.934 -0.3225 -0.7274  0.2815
  508MOL0     C66986   2.680  10.107   4.072 -0.0638 -0.3433  1.1260
  508MOL0     C66987   2.758   9.988   4.097 -0.7955 -1.0821 -0.6552
  508MOL0     C66988   2.833   9.903   4.127 -0.3808 -0.2132  0.2984
  508MOL0     C66989   2.106  10.040   3.856  0.1463  0.4898 -0.0002
  508MOL0     C66990   1.970  10.073   3.842  0.0742 -0.2863  0.5614
  508MOL0     H66991   1.479   9.957   3.765  0.3119  0.5603  0.2250
  508MOL0     H66992   1.237  10.054   3.762 -1.1411  1.6649 -2.2026
  508MOL0     H66993   1.001  10.281   3.905  1.8527 -0.9604  1.5087
  508MOL0     H66994   1.086  10.125   3.876 -3.2539 -1.2790  0.4569
  508MOL0     H66995   1.024  10.167   3.620  0.7148  0.7970 -0.8414
  508MOL0     H66996   0.940  10.311   3.672  0.3228  0.0254  0.3823
  508MOL0     H66997   0.877  10.019   3.732  2.3992  0.6185  2.1581
  508MOL0     H66998   0.775  10.134   3.649  0.2691  0.2624 -0.2072
  508MOL0     H66999   0.833  10.126   3.945  0.3058 -1.8629 -0.3507
  508MOL0     H67000   0.759  10.264   3.858  1.7909  1.1083 -2.4093
  508MOL0     H67001   0.645   9.983   3.865  0.8423  0.3552 -1.4938
  508MOL0     H67002   0.572  10.126   3.787 -0.6290 -2.4680 -0.6224
  508MOL0     H67003   0.525  10.236   3.992  1.8341  1.0877 -1.7041
  508MOL0     H67004   0.623  10.122   4.089  0.7275 -0.0281 -1.4789
  508MOL0     H67005   0.477   9.925   4.008 -0.3113  0.2555  1.0790
  508MOL0     H67006   0.398  10.032   4.112  3.0734  2.2233  2.2043
  508MOL0     H67007   0.393  10.079   3.812  4.4342  0.9590  2.2732
  508MOL0     H67008   0.290  10.153   3.936 -0.9740 -0.7125 -0.1009
  508MOL0     H67009   0.054  10.113   3.875  0.2604  1.1514  2.1461
  508MOL0     H67010  -0.158   9.824   4.018 -3.4979 -0.6232 -2.4665
  508MOL0     H67011  -0.167   9.908   3.860  1.2248  3.0436 -0.9018
  508MOL0     H67012  -0.292  10.045   3.985 -0.1538  1.0508 -2.4084
  508MOL0     H67013  -0.143  10.135   3.979  0.1355  0.2776 -1.5906
  508MOL0     H67014  -0.099   9.977   4.215  1.3804  1.0555  0.9847
  508MOL0     H67015  -0.153  10.148   4.201  1.2193 -0.5807  0.1663
  508MOL0     H67016  -0.353  10.095   4.256  0.6378  0.5763  0.2574
  508MOL0     H67017  -0.280   9.972   4.354  2.6577 -1.4987 -0.9067
  508MOL0     H67018  -0.552   9.979   4.319  0.7783  0.3236 -0.3639
  508MOL0     H67019  -0.791   9.958   4.256 -1.0803 -1.5740 -0.4466
  508MOL0     H67020  -0.996  10.140   3.958 -0.1648  3.1974  0.8629
  508MOL0     H67021  -1.170  10.254   3.867  3.0074  0.2842  1.1406
  508MOL0     H67022  -1.351  10.259   3.762  1.7186  2.6717  0.5244
  508MOL0     H67023  -1.382  10.396   3.865 -0.8594 -0.7732  1.2262
  508MOL0     H67024  -1.627  10.239   3.758 -1.3036 -0.1194 -0.7840
  508MOL0     H67025  -1.528  10.334   3.649  1.2989 -1.5251 -0.2181
  508MOL0     H67026  -1.556  10.525   3.803 -1.4748  0.1698  1.7060
  508MOL0     H67027  -1.666  10.407   3.897  0.1353 -2.5388 -0.3587
  508MOL0     H67028  -1.696  10.509   3.617 -0.7416  1.1696 -0.6418
  508MOL0     H67029  -1.779  10.371   3.681 -1.2367  0.8359  1.3558
  508MOL0     H67030  -1.816  10.657   3.797  1.5289 -0.8414  2.4908
  508MOL0     H67031  -1.902  10.514   3.847 -2.7361 -0.3471 -2.0397
  508MOL0     H67032  -2.010  10.497   3.615 -0.3056  0.8531 -1.2704
  508MOL0     H67033  -1.912  10.632   3.570  1.6348 -0.0600 -0.2404
  508MOL0     H67034  -2.132  10.630   3.786  1.0286  1.5189  1.5370
  508MOL0     H67035  -2.035  10.769   3.768 -1.2251 -0.1387  2.3034
  508MOL0     H67036  -2.111  10.810   3.541 -1.0807 -0.0328  0.0099
  508MOL0     H67037  -2.221  10.820   3.675 -0.3140  0.5161 -1.2108
  508MOL0     H67038  -1.433  10.009   4.114 -0.9485 -0.1061 -2.0230
  508MOL0     H67039  -1.243   9.870   4.176  0.9423 -1.5468 -0.2072
  508MOL0     H67040  -0.677   9.809   3.873  0.2583 -1.0454  0.6708
  508MOL0     H67041  -0.426   9.797   3.966  0.1691 -1.9612  0.3713
  508MOL0     H67042   1.382  10.449   3.828  1.2079  0.6678  1.1745
  508MOL0     H67043   1.603  10.376   3.837  0.2801  0.4713 -2.5619
  508MOL0     H67044   1.879   9.827   3.638  2.4452 -2.0873  0.4609
  508MOL0     H67045   2.110   9.759   3.681 -2.9039 -1.1752  2.2985
  508MOL0     H67046   2.354  10.120   3.822 -3.3346 -1.0418 -0.5396
  508MOL0     H67047   2.451   9.998   3.717  0.5636  0.4407  0.4681
  508MOL0     H67048   2.436  10.012   4.021 -0.8848 -0.3261 -0.1957
  508MOL0     H67049   2.539   9.898   3.924  2.1774  1.2528  0.6801
  508MOL0     H67050   2.560  10.199   3.914 -4.1825 -1.9058  2.1175
  508MOL0     H67051   2.679  10.082   3.856  0.0794 -0.6411  0.6374
  508MOL0     H67052   2.741  10.197   4.070  0.0574 -0.3860 -1.9317
  508MOL0     H67053   2.609  10.110   4.156  0.4289  1.3094  1.5088
  508MOL0     H67054   2.910   9.837   4.159 -2.5735 -1.1747  4.2030
  508MOL0     H67055   2.164  10.118   3.905 -0.7237  0.6374  0.8122
  508MOL0     H67056   1.936  10.167   3.883 -0.3349  0.9508 -2.3691
  509MOL0     O67057   3.278   0.180   7.277  0.2922 -0.1562  0.1647
  509MOL0     C67058   3.289   0.303   7.257 -0.4639 -0.0932 -0.0431
  509MOL0     O67059   3.207   0.398   7.306 -0.0330 -0.6786 -0.2342
  509MOL0     C67060   3.081   0.359   7.324  0.1979  0.2326 -0.5165
  509MOL0     C67061   3.010   0.407   7.437  0.1199 -0.3286 -0.2630
  509MOL0     C67062   2.871   0.372   7.449  0.3970  0.2073 -0.3404
  509MOL0     C67063   2.800   0.304   7.352 -0.2296 -0.2124 -0.1039
  509MOL0     O67064   2.666   0.314   7.333 -0.1813  0.6409  0.2691
  509MOL0     C67065   2.582   0.386   7.419 -0.0913  0.0781  0.3027
  509MOL0     C67066   2.445   0.340   7.392 -0.0590  0.0272  0.7410
  509MOL0     C67067   2.405   0.215   7.466 -0.2914 -0.6197  0.6699
  509MOL0     C67068   2.252   0.203   7.467 -0.5030  0.0197 -0.6753
  509MOL0     C67069   2.200   0.123   7.589  0.2202  0.1955 -0.3771
  509MOL0     C67070   2.273  -0.012   7.621  0.8777 -0.3476 -0.2901
  509MOL0     C67071   2.201  -0.083   7.739 -0.1367  0.3000 -1.2363
  509MOL0     C67072   2.059  -0.115   7.695  0.5043  0.8656  0.0294
  509MOL0     N67073   1.986  -0.179   7.810  0.5496 -0.3963 -1.2746
  509MOL0     C67074   1.860  -0.225   7.797 -1.2008  0.0548  0.1254
  509MOL0     C67075   1.839  -0.307   7.901  0.4339 -0.2256  0.7899
  509MOL0     C67076   1.716  -0.399   7.920 -0.3841  0.0204  0.3964
  509MOL0     C67077   1.589  -0.333   7.879  0.1957  0.6984 -0.6954
  509MOL0     C67078   1.553  -0.218   7.976 -0.6171  0.1904 -0.1700
  509MOL0     C67079   1.399  -0.199   7.987 -0.6458  0.7288  0.2649
  509MOL0     O67080   1.369  -0.106   8.092 -0.2260  0.0411 -0.1702
  509MOL0     C67081   1.244  -0.107   8.148 -0.8045  0.8572 -0.1764
  509MOL0     C67082   1.211  -0.003   8.237 -0.4406  0.1238  0.3729
  509MOL0     C67083   1.082   0.012   8.292 -0.6378  0.4233 -0.0285
  509MOL0     C67084   0.993  -0.093   8.275 -0.2044  0.8093 -0.1552
  509MOL0     C67085   0.859  -0.074   8.339 -0.5668  1.1715 -0.2882
  509MOL0     O67086   0.769  -0.172   8.306 -0.0705 -0.2328 -0.0296
  509MOL0     C67087   0.641  -0.168   8.355  1.0344  0.3541  0.7158
  509MOL0     C67088   0.592  -0.143   8.485 -0.4786  0.2161  0.4538
  509MOL0     C67089   0.462  -0.162   8.524 -0.0888  1.0506 -0.2156
  509MOL0     C67090   0.369  -0.189   8.419  0.0811  0.9285 -0.8715
  509MOL0     O67091   0.231  -0.203   8.446 -0.0139  0.2916 -0.0253
  509MOL0     C67092   0.190  -0.196   8.585  0.7891 -0.1483  0.8688
  509MOL0     C67093   0.029  -0.217   8.575 -1.0306  0.3526 -0.1493
  509MOL0     C67094  -0.010  -0.350   8.515  0.1427  0.2528  1.3693
  509MOL0     C67095  -0.145  -0.407   8.557 -0.0304  0.2099 -0.0192
  509MOL0     C67096  -0.260  -0.329   8.514  0.7488  0.3849 -0.9601
  509MOL0     C67097  -0.388  -0.387   8.565  0.1216  0.4261  0.2226
  509MOL0     C67098  -0.510  -0.290   8.542 -0.8368  0.3928 -0.1717
  509MOL0     C67099  -0.617  -0.317   8.653  0.3277 -0.0224 -0.1024
  509MOL0    Cl67100  -0.705  -0.469   8.636 -0.5038  0.3330  0.0142
  509MOL0     C67101   0.408  -0.207   8.288  0.6279  0.0062  0.1971
  509MOL0     C67102   0.541  -0.200   8.249 -0.1633 -0.1670 -1.1656
  509MOL0     O67103   0.844   0.009   8.424  0.8090 -0.0294  0.2261
  509MOL0     C67104   1.021  -0.206   8.195  0.8946 -0.1566  0.3731
  509MOL0     C67105   1.150  -0.215   8.134  0.1202  0.3653 -0.0012
  509MOL0     N67106   1.960  -0.306   7.971  0.6273 -0.9316  0.0710
  509MOL0     N67107   2.047  -0.224   7.918 -0.0983 -0.7842  1.1259
  509MOL0     C67108   2.867   0.278   7.236 -0.2103 -0.3786  0.1648
  509MOL0     C67109   3.009   0.297   7.214 -0.1202  0.0857  0.0139
  509MOL0     C67110   3.409   0.353   7.190  0.4695  0.1716  0.6162
  509MOL0     C67111   3.442   0.493   7.184  0.5380  0.1778  0.8508
  509MOL0     C67112   3.561   0.532   7.118  0.0137 -0.4432  0.7131
  509MOL0     C67113   3.640   0.433   7.053  0.6431 -0.0050 -0.8054
  509MOL0     O67114   3.749   0.482   6.986 -0.1640 -0.2406  0.7432
  509MOL0     C67115   3.862   0.511   7.064 -0.5853 -0.6524 -0.2906
  509MOL0     C67116   3.955   0.611   7.002 -0.0650 -0.2162 -0.3733
  509MOL0     C67117   4.090   0.622   7.078  0.5088  0.2598  0.9061
  509MOL0     C67118   4.199   0.708   7.004 -0.3666  0.3058  0.6010
  509MOL0     C67119   4.332   0.648   7.017 -0.2984  0.2585 -0.5443
  509MOL0     C67120   4.438   0.593   7.016  0.5057  0.7784  0.1814
  509MOL0     C67121   3.612   0.301   7.068 -0.2778  0.7136 -0.4298
  509MOL0     C67122   3.499   0.257   7.137 -0.8461 -1.1439 -0.3399
  509MOL0     H67123   3.057   0.456   7.521 -1.9189  1.7242 -0.1827
  509MOL0     H67124   2.829   0.390   7.547  1.4802 -0.1354  0.1986
  509MOL0     H67125   2.582   0.495   7.407 -3.0157  0.7132  4.1467
  509MOL0     H67126   2.609   0.374   7.524  2.9578  0.2040 -0.3940
  509MOL0     H67127   2.425   0.340   7.284 -1.9750 -0.8185  1.0664
  509MOL0     H67128   2.375   0.418   7.425 -1.1690  0.0352 -1.4241
  509MOL0     H67129   2.441   0.234   7.568 -2.4405  0.1166  1.3456
  509MOL0     H67130   2.460   0.126   7.436 -0.6427 -0.5952 -0.0547
  509MOL0     H67131   2.203   0.301   7.471 -0.8772 -0.2244  1.4063
  509MOL0     H67132   2.212   0.162   7.374 -2.7242 -2.9333  1.3909
  509MOL0     H67133   2.092   0.116   7.573 -0.3202  0.4561  2.5246
  509MOL0     H67134   2.211   0.190   7.675  0.5783 -0.4544  0.0946
  509MOL0     H67135   2.379   0.009   7.636  0.3741  1.8632  0.5938
  509MOL0     H67136   2.275  -0.074   7.531 -0.6602 -0.0059 -0.5919
  509MOL0     H67137   2.254  -0.177   7.754 -0.0093  0.4706 -0.6153
  509MOL0     H67138   2.196  -0.019   7.827 -0.5741  1.5894 -2.1620
  509MOL0     H67139   2.056  -0.182   7.609  1.8110  2.6622 -1.5050
  509MOL0     H67140   2.000  -0.029   7.661  1.9077  2.1422  0.6974
  509MOL0     H67141   1.788  -0.216   7.716 -0.9808 -0.0743 -0.0839
  509MOL0     H67142   1.727  -0.431   8.024  0.4238 -0.1625  0.2618
  509MOL0     H67143   1.735  -0.487   7.857  0.2037 -0.7227  1.5733
  509MOL0     H67144   1.516  -0.414   7.892 -0.3151  1.3129  0.4243
  509MOL0     H67145   1.588  -0.297   7.776 -0.2945 -0.1009 -0.9753
  509MOL0     H67146   1.585  -0.255   8.074  0.9167  1.5741 -0.1101
  509MOL0     H67147   1.594  -0.118   7.957 -3.1748  1.0713 -1.5886
  509MOL0     H67148   1.348  -0.296   7.993  2.9093 -1.3419 -0.4972
  509MOL0     H67149   1.351  -0.149   7.903  0.6153  0.6903 -0.4970
  509MOL0     H67150   1.279   0.078   8.261 -1.8239  0.6702  2.8645
  509MOL0     H67151   1.062   0.103   8.349 -0.2478  0.3574  0.2165
  509MOL0     H67152   0.662  -0.136   8.567  1.7417 -2.1008 -1.0793
  509MOL0     H67153   0.429  -0.150   8.627  2.3952  0.3516  0.7175
  509MOL0     H67154   0.216  -0.101   8.632  2.6818 -0.4837  0.5517
  509MOL0     H67155   0.224  -0.281   8.645  1.7019  0.3575  1.0738
  509MOL0     H67156  -0.011  -0.136   8.513 -1.3813 -0.7092 -1.3575
  509MOL0     H67157  -0.013  -0.208   8.676  2.2472  4.3093  1.1312
  509MOL0     H67158   0.068  -0.418   8.548 -3.1585 -2.9939  3.1491
  509MOL0     H67159  -0.007  -0.342   8.406 -3.2072 -1.1672  1.0560
  509MOL0     H67160  -0.156  -0.513   8.532  1.3618 -0.6388  2.5971
  509MOL0     H67161  -0.154  -0.397   8.665  0.0488  0.2379 -0.0156
  509MOL0     H67162  -0.262  -0.336   8.405 -0.1336 -3.6309 -0.8308
  509MOL0     H67163  -0.245  -0.224   8.542  4.0824 -0.2507  0.1303
  509MOL0     H67164  -0.388  -0.402   8.674  0.4460  2.0036  0.4657
  509MOL0     H67165  -0.409  -0.482   8.515 -0.1294  0.6581 -0.1169
  509MOL0     H67166  -0.472  -0.188   8.529  2.7213 -0.8606 -0.8207
  509MOL0     H67167  -0.539  -0.322   8.442 -0.1625 -1.3051  0.1429
  509MOL0     H67168  -0.700  -0.247   8.636 -1.4683 -1.9069  0.3768
  509MOL0     H67169  -0.580  -0.302   8.754 -0.7266  2.8963 -0.0566
  509MOL0     H67170   0.330  -0.239   8.219  0.8446  0.6043 -0.3353
  509MOL0     H67171   0.574  -0.216   8.147  6.1966  1.6523  0.1318
  509MOL0     H67172   0.952  -0.288   8.184  0.4571 -0.2372  3.0407
  509MOL0     H67173   1.181  -0.304   8.079  3.5110  1.8003 -0.6375
  509MOL0     H67174   2.812   0.242   7.150 -2.3996 -0.2936  1.4648
  509MOL0     H67175   3.056   0.280   7.118 -1.2643  1.3676 -0.8106
  509MOL0     H67176   3.379   0.573   7.222  0.5888  0.0299  1.2489
  509MOL0     H67177   3.584   0.638   7.113 -0.4456 -0.4049 -1.6870
  509MOL0     H67178   3.922   0.419   7.060 -0.0299 -0.2521 -2.5573
  509MOL0     H67179   3.836   0.537   7.167 -0.7855  1.0820 -0.7589
  509MOL0     H67180   3.981   0.583   6.899 -0.1047  1.5460 -0.9080
  509MOL0     H67181   3.909   0.710   6.998  2.2908  0.9348 -0.6092
  509MOL0     H67182   4.126   0.523   7.106  2.1082  1.0012  1.6047
  509MOL0     H67183   4.076   0.674   7.173  1.2541  1.2916  0.4747
  509MOL0     H67184   4.187   0.725   6.896  0.4387  3.6521  0.9071
  509MOL0     H67185   4.194   0.811   7.041 -1.1082  1.3250 -2.0454
  509MOL0     H67186   4.527   0.535   7.004  1.6317  2.4684  0.0163
  509MOL0     H67187   3.687   0.229   7.039  1.6037  3.1970 -2.1713
  509MOL0     H67188   3.490   0.151   7.159  1.1011 -1.3368 -0.2654
  510MOL0     O67189   9.422   3.393   8.975 -0.0062 -0.1478  0.4494
  510MOL0     C67190   9.418   3.321   8.879 -0.0786  0.8902  0.0678
  510MOL0     O67191   9.308   3.269   8.824  0.1419  0.2239 -0.0646
  510MOL0     C67192   9.190   3.310   8.878 -0.8838  0.4086 -0.7447
  510MOL0     C67193   9.132   3.434   8.855  0.1138 -0.0050  0.5460
  510MOL0     C67194   9.010   3.474   8.916 -0.1171 -0.6922  0.3315
  510MOL0     C67195   8.937   3.389   8.997  0.4672 -0.6962  0.3053
  510MOL0     O67196   8.818   3.420   9.061  0.1796  0.4172  0.9346
  510MOL0     C67197   8.792   3.554   9.110  0.1114 -0.5974 -0.0557
  510MOL0     C67198   8.686   3.617   9.032 -0.2644  0.3740 -0.2778
  510MOL0     C67199   8.548   3.557   9.055 -0.2960 -0.8098 -0.0608
  510MOL0     C67200   8.436   3.604   8.964 -0.0204  0.4618 -1.0240
  510MOL0     C67201   8.309   3.538   9.016  0.0800  0.0086  0.5195
  510MOL0     C67202   8.184   3.588   8.941  1.3732 -0.2955  0.5782
  510MOL0     C67203   8.048   3.527   8.990  0.1326 -0.1118  0.6866
  510MOL0     C67204   8.028   3.388   8.928  0.2758  0.4149 -0.2455
  510MOL0     N67205   7.918   3.379   8.840 -1.3897  0.4489  0.6449
  510MOL0     C67206   7.921   3.418   8.713  0.0456  0.5277  0.1935
  510MOL0     C67207   7.794   3.424   8.668  0.3813 -0.7848 -1.3490
  510MOL0     C67208   7.746   3.472   8.538  0.5502 -0.2456  0.6507
  510MOL0     C67209   7.742   3.630   8.530  0.2272  0.3600 -1.0536
  510MOL0     C67210   7.701   3.669   8.386 -0.8640  0.0524  0.2813
  510MOL0     C67211   7.612   3.792   8.387 -0.8374  1.2761  0.3930
  510MOL0     O67212   7.529   3.792   8.268 -0.0587 -0.5134 -0.0931
  510MOL0     C67213   7.424   3.884   8.256  0.2107  0.4223  0.6562
  510MOL0     C67214   7.314   3.857   8.178 -0.0974  0.8436 -0.9737
  510MOL0     C67215   7.218   3.961   8.161 -0.1672 -0.5071  0.0844
  510MOL0     C67216   7.220   4.073   8.235 -0.3336 -0.0038  0.6933
  510MOL0     C67217   7.101   4.153   8.242  0.3215 -0.6789 -0.7779
  510MOL0     O67218   7.013   4.142   8.135  0.6063 -0.2164 -0.3885
  510MOL0     C67219   6.890   4.187   8.131  0.0284  0.0840 -0.1213
  510MOL0     C67220   6.805   4.223   8.239 -0.7475 -0.5833 -0.1683
  510MOL0     C67221   6.677   4.278   8.225  0.2906  0.1280 -0.8854
  510MOL0     C67222   6.616   4.282   8.104 -0.3004 -0.0164 -0.4941
  510MOL0     O67223   6.487   4.340   8.107 -0.7711  0.2300 -0.5728
  510MOL0     C67224   6.464   4.418   7.995 -0.3920 -0.5038  0.4212
  510MOL0     C67225   6.331   4.478   7.991  0.2351  0.2191 -0.3155
  510MOL0     C67226   6.289   4.555   8.134  0.6642  0.1717 -0.2315
  510MOL0     C67227   6.146   4.615   8.108  0.6057  0.1024 -0.0873
  510MOL0     C67228   6.076   4.645   8.239  0.5613  0.3890  0.3928
  510MOL0     C67229   5.935   4.687   8.223  0.4599 -0.5538 -0.5678
  510MOL0     C67230   5.883   4.721   8.365  0.3780 -0.1591  0.4880
  510MOL0     C67231   5.887   4.603   8.465  0.0712  0.5739 -0.4335
  510MOL0    Cl67232   5.801   4.662   8.610 -0.3796  0.4019 -0.4192
  510MOL0     C67233   6.698   4.242   7.995  0.4076 -0.2841  0.3516
  510MOL0     C67234   6.826   4.190   8.010  0.9186  0.0887  0.7817
  510MOL0     O67235   7.075   4.214   8.341  0.3528 -0.0841 -0.6602
  510MOL0     C67236   7.325   4.098   8.323 -0.7712 -0.7538  0.4213
  510MOL0     C67237   7.436   4.008   8.322  0.2750 -0.6014  0.1752
  510MOL0     N67238   7.710   3.390   8.774  0.0012 -0.4642  0.1769
  510MOL0     N67239   7.783   3.366   8.873  0.7436  0.3463 -0.0946
  510MOL0     C67240   8.991   3.266   9.018 -0.2054  1.1382  0.2813
  510MOL0     C67241   9.117   3.226   8.968  0.6351 -0.8967 -1.1339
  510MOL0     C67242   9.539   3.275   8.819 -0.4555  0.2746  0.0200
  510MOL0     C67243   9.647   3.357   8.822  0.8586 -0.1452  1.0998
  510MOL0     C67244   9.767   3.323   8.760  0.5943 -0.2466  0.5786
  510MOL0     C67245   9.786   3.200   8.707 -0.2928 -0.4915  0.0456
  510MOL0     O67246   9.915   3.168   8.693 -0.0939  0.4722 -0.0068
  510MOL0     C67247   9.948   3.034   8.643 -0.2704 -1.0386  0.2477
  510MOL0     C67248  10.096   3.048   8.603 -0.6605  0.1297  0.2416
  510MOL0     C67249  10.207   3.097   8.704 -0.3822 -0.3454  0.2253
  510MOL0     C67250  10.348   3.109   8.646 -0.4448 -0.1958 -0.4104
  510MOL0     C67251  10.428   2.980   8.630  0.2076  0.8125 -0.5028
  510MOL0     C67252  10.505   2.883   8.640 -0.9048  0.2520  0.8161
  510MOL0     C67253   9.671   3.117   8.690  0.4682 -0.0710 -0.8698
  510MOL0     C67254   9.546   3.155   8.742  0.6738  0.5031 -0.4390
  510MOL0     H67255   9.194   3.505   8.801 -0.3185 -1.1943 -1.6194
  510MOL0     H67256   8.990   3.578   8.892  2.3222 -0.9926 -3.9695
  510MOL0     H67257   8.879   3.620   9.101  0.2013 -0.1441  3.0946
  510MOL0     H67258   8.759   3.553   9.214 -1.7833 -0.4090 -0.6060
  510MOL0     H67259   8.715   3.598   8.928  2.2497  0.0302  0.4145
  510MOL0     H67260   8.694   3.725   9.050  2.0656 -0.0267  1.6717
  510MOL0     H67261   8.529   3.571   9.162 -1.4152 -2.6099  0.0099
  510MOL0     H67262   8.552   3.451   9.029 -0.3716 -0.4019 -1.8761
  510MOL0     H67263   8.433   3.713   8.974 -0.2957  0.2602  1.5926
  510MOL0     H67264   8.465   3.578   8.861  1.3867 -1.9897 -0.0924
  510MOL0     H67265   8.294   3.561   9.122 -3.6639 -0.2591  0.1749
  510MOL0     H67266   8.317   3.430   8.999 -1.1266 -0.0390  0.1717
  510MOL0     H67267   8.196   3.578   8.833 -2.5231 -3.2744  0.1970
  510MOL0     H67268   8.168   3.692   8.971 -0.9699 -0.9894  2.0184
  510MOL0     H67269   8.033   3.524   9.098 -2.1218  2.7267  0.5589
  510MOL0     H67270   7.967   3.590   8.952 -0.6901 -1.4858  0.0942
  510MOL0     H67271   8.007   3.315   9.007  2.3031  0.3410  0.2822
  510MOL0     H67272   8.125   3.353   8.891 -0.2545 -0.1513 -1.1249
  510MOL0     H67273   8.005   3.456   8.655  1.7310 -1.4665  1.1710
  510MOL0     H67274   7.651   3.436   8.498  2.5212 -1.9942 -3.0086
  510MOL0     H67275   7.820   3.431   8.468  2.3448  0.3972  2.0761
  510MOL0     H67276   7.828   3.674   8.582 -0.1970  0.0474 -0.0534
  510MOL0     H67277   7.661   3.660   8.598  0.3958  0.1765 -0.7691
  510MOL0     H67278   7.789   3.690   8.325  0.1033  1.2056  1.9688
  510MOL0     H67279   7.644   3.593   8.332 -0.2140  0.7971 -1.5186
  510MOL0     H67280   7.681   3.875   8.401 -0.3196  1.2872 -1.8168
  510MOL0     H67281   7.549   3.796   8.477  0.7764  0.6625  1.5810
  510MOL0     H67282   7.317   3.764   8.121 -0.0599  1.4251 -1.9532
  510MOL0     H67283   7.131   3.931   8.103 -0.2973 -0.7363  0.3967
  510MOL0     H67284   6.844   4.207   8.339 -0.3595 -0.2451 -0.2642
  510MOL0     H67285   6.621   4.303   8.315 -0.0291 -2.1492 -0.3983
  510MOL0     H67286   6.476   4.364   7.900  1.0076  2.9843 -1.6183
  510MOL0     H67287   6.536   4.500   7.980 -0.7858  0.6050  3.7571
  510MOL0     H67288   6.256   4.402   7.968 -0.5989  0.1379  2.3678
  510MOL0     H67289   6.332   4.546   7.905  3.0568 -1.8814 -2.1457
  510MOL0     H67290   6.357   4.637   8.159 -0.0185  0.6958 -0.0596
  510MOL0     H67291   6.288   4.483   8.216 -1.8507 -1.5510 -1.6412
  510MOL0     H67292   6.144   4.704   8.044  1.5221 -1.4398 -2.4096
  510MOL0     H67293   6.091   4.535   8.057  2.2339 -1.1513  0.0188
  510MOL0     H67294   6.130   4.726   8.289  2.3433 -1.7504  2.1946
  510MOL0     H67295   6.080   4.558   8.305  0.1116 -0.3291 -0.5027
  510MOL0     H67296   5.890   4.601   8.174  0.6544 -1.1257  0.2359
  510MOL0     H67297   5.923   4.777   8.161  1.8847  1.7991  2.3074
  510MOL0     H67298   5.952   4.799   8.397  2.3264 -1.9423  0.8197
  510MOL0     H67299   5.782   4.762   8.358  0.8694  0.9731 -0.1707
  510MOL0     H67300   5.984   4.566   8.499  0.1884  0.6503 -0.6788
  510MOL0     H67301   5.831   4.520   8.420 -1.4133  1.6957 -0.7327
  510MOL0     H67302   6.665   4.242   7.891 -1.1651  0.1230  0.8294
  510MOL0     H67303   6.878   4.167   7.918  0.4126 -2.3681  1.0472
  510MOL0     H67304   7.323   4.174   8.401  1.2783 -0.8000  0.5762
  510MOL0     H67305   7.533   4.033   8.362 -0.0789  0.0806  0.6272
  510MOL0     H67306   8.941   3.194   9.082  1.7616 -0.7752 -0.1837
  510MOL0     H67307   9.156   3.133   9.006  0.9456  0.2949  1.7097
  510MOL0     H67308   9.651   3.454   8.870 -1.8669  0.9793 -0.6745
  510MOL0     H67309   9.847   3.397   8.759 -0.4221  0.8799  0.3773
  510MOL0     H67310   9.884   2.996   8.563 -0.5497 -3.3867  1.4970
  510MOL0     H67311   9.938   2.964   8.726  1.8283 -0.6117  0.9443
  510MOL0     H67312  10.124   2.951   8.561 -1.0197  0.7284 -1.4228
  510MOL0     H67313  10.101   3.116   8.518  0.5675  0.1510  0.3174
  510MOL0     H67314  10.210   3.019   8.781  3.0403  0.7671  1.3900
  510MOL0     H67315  10.182   3.196   8.745 -2.2661 -0.7828  0.2542
  510MOL0     H67316  10.347   3.156   8.547  0.2364 -0.0552 -0.3523
  510MOL0     H67317  10.399   3.177   8.714 -0.5505  0.7186 -1.2198
  510MOL0     H67318  10.571   2.799   8.636  1.5640  2.0892  0.6276
  510MOL0     H67319   9.687   3.012   8.667 -0.8103 -0.3334 -0.6086
  510MOL0     H67320   9.470   3.078   8.743  0.8837  0.2758  1.2126
  511MOL0     O67321   3.397   7.494   3.008  0.5494  0.0964 -0.4684
  511MOL0     C67322   3.487   7.411   3.029 -0.0379 -0.3392  0.1485
  511MOL0     O67323   3.473   7.278   3.018 -0.5783  0.5025  0.2081
  511MOL0     C67324   3.355   7.223   2.986 -0.3018  0.0350  1.1773
  511MOL0     C67325   3.338   7.165   2.861 -0.3116  0.4004  0.7152
  511MOL0     C67326   3.216   7.117   2.820 -1.2010  0.7162  0.0967
  511MOL0     C67327   3.105   7.118   2.911 -0.1680  0.4372 -0.2100
  511MOL0     O67328   2.989   7.068   2.863 -0.2483 -0.1717 -0.6479
  511MOL0     C67329   2.868   7.098   2.941  0.1799 -0.4860  0.3110
  511MOL0     C67330   2.770   7.004   2.888  0.1973  0.2361 -0.3229
  511MOL0     C67331   2.626   7.054   2.912 -0.2670  0.3313 -0.4002
  511MOL0     C67332   2.524   6.957   2.861  0.5957 -0.1764  0.0294
  511MOL0     C67333   2.383   7.012   2.899 -0.1794 -0.8121  0.3781
  511MOL0     C67334   2.275   6.923   2.838 -0.2817  1.0149  0.7673
  511MOL0     C67335   2.141   6.985   2.867  1.1506 -0.2965  0.6924
  511MOL0     C67336   2.094   6.975   3.014  0.1537 -0.5152 -0.0102
  511MOL0     N67337   1.973   7.058   3.028 -0.3026 -0.6973 -0.1916
  511MOL0     C67338   1.964   7.189   3.074  0.1848  0.0632 -0.0744
  511MOL0     C67339   1.834   7.210   3.082  0.1992  1.0347 -1.0119
  511MOL0     C67340   1.763   7.326   3.154 -0.5222  1.1059  0.2408
  511MOL0     C67341   1.640   7.293   3.241 -0.2650  0.3151 -0.3111
  511MOL0     C67342   1.578   7.428   3.307  0.0094  0.0781  0.8133
  511MOL0     C67343   1.450   7.409   3.388 -0.3867 -0.0213 -0.4104
  511MOL0     O67344   1.344   7.366   3.295 -0.5812  0.5536 -0.2292
  511MOL0     C67345   1.231   7.303   3.345  0.1782  0.2622  0.7428
  511MOL0     C67346   1.148   7.239   3.251 -0.2112  0.8122 -0.5750
  511MOL0     C67347   1.033   7.165   3.286 -0.0620 -0.0811  0.1677
  511MOL0     C67348   0.993   7.165   3.416 -0.9556  0.1101 -0.0852
  511MOL0     C67349   0.865   7.098   3.452 -0.3074 -0.0528  0.5931
  511MOL0     O67350   0.843   7.079   3.581  0.4544 -0.0939  0.0108
  511MOL0     C67351   0.731   7.022   3.617  0.0788  0.6597 -0.2776
  511MOL0     C67352   0.648   7.085   3.714 -0.2444 -0.8435  0.4144
  511MOL0     C67353   0.539   7.024   3.768  0.5552  0.3353  0.5529
  511MOL0     C67354   0.499   6.895   3.717  0.1359  0.6730 -0.1634
  511MOL0     O67355   0.400   6.820   3.764  0.4098  0.1273 -0.4493
  511MOL0     C67356   0.291   6.887   3.840 -0.6835 -0.1159  0.7555
  511MOL0     C67357   0.180   6.784   3.871  0.4527 -0.4060 -0.0300
  511MOL0     C67358   0.234   6.666   3.953  0.0218 -0.1976  0.2851
  511MOL0     C67359   0.118   6.570   3.971  0.1132 -0.0599  0.8078
  511MOL0     C67360   0.166   6.439   4.048  0.9356  0.3303 -0.0649
  511MOL0     C67361   0.269   6.360   3.972 -0.9863  1.0264  0.0134
  511MOL0     C67362   0.306   6.225   4.042 -0.4170 -0.0037 -0.4089
  511MOL0     C67363   0.358   6.243   4.181  0.0142  0.3687 -0.8422
  511MOL0    Cl67364   0.439   6.092   4.228 -0.1708 -0.3581 -0.0162
  511MOL0     C67365   0.569   6.839   3.617 -0.8177  1.2796  0.3718
  511MOL0     C67366   0.700   6.887   3.580 -0.0580  0.2510  0.2189
  511MOL0     O67367   0.780   7.084   3.359  0.1820  0.4389 -0.2174
  511MOL0     C67368   1.072   7.231   3.510 -0.5196 -0.5069 -0.4709
  511MOL0     C67369   1.195   7.296   3.478  0.8048 -0.0077 -0.1579
  511MOL0     N67370   1.769   7.103   3.037  0.4549 -0.3574  0.2391
  511MOL0     N67371   1.850   7.014   3.000  0.2710  1.0300 -1.2209
  511MOL0     C67372   3.123   7.164   3.047  0.3266 -1.2765 -0.3223
  511MOL0     C67373   3.248   7.227   3.078 -0.8957 -0.3226 -0.2698
  511MOL0     C67374   3.621   7.466   3.064  0.5026  0.0436  1.6240
  511MOL0     C67375   3.620   7.595   3.118 -0.3647  0.4086 -0.2917
  511MOL0     C67376   3.748   7.652   3.158 -0.6704 -0.8670  0.6216
  511MOL0     C67377   3.866   7.572   3.157  0.3656 -0.7370 -0.0875
  511MOL0     O67378   3.993   7.618   3.185  0.3138  0.5035  0.6688
  511MOL0     C67379   4.005   7.755   3.218  0.0024 -0.2580  0.1095
  511MOL0     C67380   3.998   7.774   3.371 -0.2286 -0.5467 -0.2326
  511MOL0     C67381   3.979   7.927   3.401  0.4112  0.1004  0.2065
  511MOL0     C67382   3.970   7.946   3.542 -0.3450  0.0723  0.3136
  511MOL0     C67383   3.963   8.092   3.560  0.3765  0.3066 -0.0880
  511MOL0     C67384   3.945   8.210   3.567 -0.5479  0.6059 -0.2165
  511MOL0     C67385   3.861   7.451   3.081 -0.7848  0.0159 -1.2571
  511MOL0     C67386   3.740   7.398   3.039 -0.5740  0.4633 -0.5852
  511MOL0     H67387   3.428   7.151   2.802  0.8563 -2.3853  2.9406
  511MOL0     H67388   3.196   7.074   2.722 -0.3713  1.8884 -0.6182
  511MOL0     H67389   2.843   7.204   2.931  1.1495 -0.3941 -1.9447
  511MOL0     H67390   2.871   7.065   3.045  1.2560 -2.3739 -0.2636
  511MOL0     H67391   2.788   6.907   2.934  0.5971  0.7091  0.5448
  511MOL0     H67392   2.773   6.988   2.780 -4.0394 -2.0354 -0.2939
  511MOL0     H67393   2.607   7.156   2.878  0.6271  0.2375 -1.2273
  511MOL0     H67394   2.619   7.053   3.022 -1.5054  2.5112 -0.3941
  511MOL0     H67395   2.528   6.950   2.752 -0.4911 -0.0118 -0.0262
  511MOL0     H67396   2.540   6.860   2.910 -5.8799 -1.5707  0.2204
  511MOL0     H67397   2.377   7.107   2.846  1.0032  0.3071  2.1419
  511MOL0     H67398   2.372   7.026   3.007 -2.1727  2.3463 -0.1153
  511MOL0     H67399   2.273   6.823   2.883  0.8731  1.0190  0.8530
  511MOL0     H67400   2.290   6.895   2.734 -2.0479  0.8884  0.5162
  511MOL0     H67401   2.155   7.090   2.839  1.3063 -0.3736  0.4806
  511MOL0     H67402   2.057   6.948   2.808  1.0129  0.2468  0.5393
  511MOL0     H67403   2.171   7.016   3.080 -2.1081  1.2421  1.7303
  511MOL0     H67404   2.080   6.876   3.058 -0.3079 -0.3230  0.2890
  511MOL0     H67405   2.053   7.246   3.101  1.4120 -0.0413 -3.4288
  511MOL0     H67406   1.736   7.392   3.071  1.5480  2.6114  0.6836
  511MOL0     H67407   1.841   7.382   3.207  0.5787 -0.8548  0.7717
  511MOL0     H67408   1.666   7.222   3.320  1.2610  0.8148 -0.3322
  511MOL0     H67409   1.561   7.247   3.180 -1.1965 -0.8913  1.7079
  511MOL0     H67410   1.655   7.477   3.367 -0.9808  0.9359  1.4193
  511MOL0     H67411   1.554   7.499   3.227 -0.1868 -1.5661 -0.6578
  511MOL0     H67412   1.417   7.497   3.445 -0.3709 -1.4597  1.9117
  511MOL0     H67413   1.466   7.330   3.461 -0.2123  0.7826  0.4417
  511MOL0     H67414   1.164   7.245   3.144 -1.6478  0.7801 -0.8015
  511MOL0     H67415   0.973   7.117   3.210  0.1823  1.7592 -1.2640
  511MOL0     H67416   0.679   7.180   3.756 -0.7485 -0.5785  0.1892
  511MOL0     H67417   0.475   7.073   3.840  0.0919  0.7443 -0.1330
  511MOL0     H67418   0.252   6.967   3.777  0.1879  0.1766  0.5705
  511MOL0     H67419   0.348   6.929   3.924  1.9845  1.1732 -1.5091
  511MOL0     H67420   0.142   6.752   3.774 -0.8316 -1.9714  0.9328
  511MOL0     H67421   0.096   6.833   3.923 -1.5917 -3.0795 -0.5803
  511MOL0     H67422   0.269   6.710   4.046  2.5204  3.6639 -2.1757
  511MOL0     H67423   0.314   6.614   3.899 -1.1383 -1.5555 -0.1888
  511MOL0     H67424   0.036   6.615   4.027  0.1481 -1.9327  2.4777
  511MOL0     H67425   0.068   6.541   3.877  0.4513  0.2082  0.5444
  511MOL0     H67426   0.075   6.378   4.054  0.8665  0.5884  2.6793
  511MOL0     H67427   0.192   6.460   4.152 -1.2276 -1.9422  1.0546
  511MOL0     H67428   0.362   6.417   3.981  0.0730 -0.8468  1.7308
  511MOL0     H67429   0.229   6.340   3.872 -1.1125  3.0244 -0.3825
  511MOL0     H67430   0.223   6.155   4.041 -0.7725  0.3459  1.4471
  511MOL0     H67431   0.382   6.176   3.981  0.0991 -1.6247  1.4526
  511MOL0     H67432   0.268   6.254   4.242  1.2503 -1.6744  1.4822
  511MOL0     H67433   0.428   6.325   4.202  1.0513 -1.4188  3.8375
  511MOL0     H67434   0.547   6.738   3.585  2.7907  0.5393 -0.1992
  511MOL0     H67435   0.765   6.826   3.518  0.6520 -0.8274  1.9544
  511MOL0     H67436   1.043   7.235   3.615  3.2696  3.6633  0.6898
  511MOL0     H67437   1.255   7.338   3.559  2.6075 -1.0037 -0.9388
  511MOL0     H67438   3.051   7.171   3.128  2.5786  5.2791  1.7350
  511MOL0     H67439   3.267   7.280   3.171 -1.0255 -1.0056  0.1604
  511MOL0     H67440   3.535   7.661   3.129 -0.5863  0.5415 -2.3469
  511MOL0     H67441   3.737   7.743   3.217  0.3068 -0.5838  0.3859
  511MOL0     H67442   3.935   7.826   3.173 -1.7053 -0.6751  1.9948
  511MOL0     H67443   4.101   7.793   3.180 -0.8021  0.4278 -1.3283
  511MOL0     H67444   3.907   7.728   3.410 -1.2319 -0.4045 -2.3084
  511MOL0     H67445   4.085   7.737   3.427  0.8257  3.0961  0.7774
  511MOL0     H67446   3.893   7.977   3.355  0.1579 -0.1060  0.4455
  511MOL0     H67447   4.060   7.992   3.368 -1.7771  2.9877  0.1201
  511MOL0     H67448   3.880   7.899   3.583 -0.2324 -2.1485 -1.7806
  511MOL0     H67449   4.057   7.905   3.594 -1.4558 -2.1783  0.4919
  511MOL0     H67450   3.946   8.318   3.566  1.5914  0.6914  2.1289
  511MOL0     H67451   3.960   7.407   3.075 -0.1418  1.5558 -2.9261
  511MOL0     H67452   3.735   7.299   2.995 -1.4539  0.1119  0.2681
  512MOL0     O67453   8.131  10.375   7.096 -0.1648 -0.1813 -0.3863
  512MOL0     C67454   8.043  10.300   7.135 -0.4283 -0.0809 -0.0917
  512MOL0     O67455   8.056  10.167   7.132 -0.3079  0.4557 -0.0097
  512MOL0     C67456   8.159  10.088   7.088 -0.6465 -0.2462  0.1404
  512MOL0     C67457   8.287  10.106   7.137 -0.2495  0.5979 -0.0544
  512MOL0     C67458   8.391  10.014   7.090 -0.2344 -0.6710 -0.4848
  512MOL0     C67459   8.362   9.919   6.998  0.8658  0.9323 -0.4695
  512MOL0     O67460   8.456   9.838   6.950  0.0397 -0.8232  0.3027
  512MOL0     C67461   8.424   9.699   6.917 -0.7860 -0.2713  0.0469
  512MOL0     C67462   8.559   9.627   6.892 -0.9586  0.1917 -0.1254
  512MOL0     C67463   8.624   9.607   7.026  0.2527 -0.0668  0.0045
  512MOL0     C67464   8.767   9.590   7.009  0.3304 -0.0619  1.3970
  512MOL0     C67465   8.836   9.573   7.147  0.0253  0.0040  0.4201
  512MOL0     C67466   8.819   9.435   7.207  0.0163 -0.2466 -0.9858
  512MOL0     C67467   8.907   9.408   7.329 -0.3397  0.1882 -0.0198
  512MOL0     C67468   8.908   9.509   7.447  0.2968 -0.5381 -0.7080
  512MOL0     N67469   9.008   9.481   7.550 -0.0668  0.4688  0.0801
  512MOL0     C67470   8.986   9.417   7.671 -0.5435 -0.6127 -0.5076
  512MOL0     C67471   9.118   9.438   7.716 -0.3747 -0.1955 -0.0539
  512MOL0     C67472   9.163   9.388   7.849  0.2825 -0.5002  0.6959
  512MOL0     C67473   9.065   9.401   7.964  0.3799 -0.4867 -0.1279
  512MOL0     C67474   9.016   9.546   7.990  0.5569 -0.0993 -0.2775
  512MOL0     C67475   8.915   9.543   8.106 -0.5958 -0.8954  0.0989
  512MOL0     O67476   8.887   9.683   8.133  0.2629 -0.7127 -0.5036
  512MOL0     C67477   8.807   9.723   8.242  0.3141  1.0111 -0.2993
  512MOL0     C67478   8.763   9.643   8.352  0.1611 -0.3873  0.6756
  512MOL0     C67479   8.682   9.704   8.448  0.1946 -0.3488  0.9471
  512MOL0     C67480   8.630   9.834   8.436 -0.1504  0.0811  0.7177
  512MOL0     C67481   8.542   9.893   8.540  0.1998 -0.1389  0.8200
  512MOL0     O67482   8.477  10.007   8.487  0.7214  0.1239 -0.2164
  512MOL0     C67483   8.369  10.062   8.539  0.4711  0.2988  0.3310
  512MOL0     C67484   8.371  10.123   8.658 -0.2407  0.8305 -0.5764
  512MOL0     C67485   8.256  10.180   8.721  0.1850  0.0616  0.7067
  512MOL0     C67486   8.131  10.167   8.654  0.2650 -0.5389  0.0873
  512MOL0     O67487   8.019  10.205   8.716  0.3217  0.0166  0.2879
  512MOL0     C67488   8.030  10.282   8.837 -0.0671 -0.0485  0.5018
  512MOL0     C67489   7.886  10.316   8.881 -0.4192 -0.5447  0.7944
  512MOL0     C67490   7.829  10.418   8.787 -0.5227 -0.2529  0.0898
  512MOL0     C67491   7.696  10.484   8.810  0.0674 -0.0160 -0.4797
  512MOL0     C67492   7.595  10.464   8.692 -0.6484  0.5818  0.1518
  512MOL0     C67493   7.460  10.526   8.723  0.8148  0.1030  0.2291
  512MOL0     C67494   7.457  10.676   8.707  0.1474  0.1109 -0.0858
  512MOL0     C67495   7.371  10.744   8.805  0.5243 -1.0250  0.0302
  512MOL0    Cl67496   7.486  10.798   8.935  0.3128  0.0371  0.1465
  512MOL0     C67497   8.133  10.114   8.523 -0.0780  0.2338  0.7064
  512MOL0     C67498   8.249  10.063   8.465  0.0939 -0.3052 -0.2097
  512MOL0     O67499   8.514   9.841   8.647 -0.4436 -0.1655  0.1012
  512MOL0     C67500   8.677   9.908   8.322 -0.2833 -0.0962  0.4386
  512MOL0     C67501   8.763   9.852   8.227 -0.1686  0.4642  1.1562
  512MOL0     N67502   9.196   9.510   7.632  0.4872  0.4077  0.4419
  512MOL0     N67503   9.121   9.540   7.537  0.5914 -1.0158 -0.1499
  512MOL0     C67504   8.223   9.898   6.960  0.2859 -0.4096 -0.0605
  512MOL0     C67505   8.122   9.982   7.005  0.2424 -0.1125  0.1645
  512MOL0     C67506   7.934  10.376   7.196  0.7032  0.0934  0.3203
  512MOL0     C67507   7.845  10.305   7.278  0.3472  0.7250  0.8962
  512MOL0     C67508   7.738  10.369   7.343 -0.4646  0.5208  0.5101
  512MOL0     C67509   7.726  10.508   7.329  0.1963 -0.3002  0.4474
  512MOL0     O67510   7.613  10.583   7.370  0.1109  0.2769 -0.1211
  512MOL0     C67511   7.561  10.554   7.501 -0.5313  0.2515 -0.2774
  512MOL0     C67512   7.643  10.610   7.620  1.0054  0.2085  0.2141
  512MOL0     C67513   7.708  10.747   7.586  0.4002 -0.1669 -0.8610
  512MOL0     C67514   7.805  10.784   7.695 -0.1054  0.1927  0.0987
  512MOL0     C67515   7.739  10.823   7.821  0.0659 -0.1825  0.1552
  512MOL0     C67516   7.701  10.863   7.934 -0.3964  1.2131 -0.2149
  512MOL0     C67517   7.820  10.578   7.258 -0.8121 -0.0766  0.0262
  512MOL0     C67518   7.929  10.514   7.201  0.1266  0.3297  0.0791
  512MOL0     H67519   8.310  10.197   7.191 -1.1286 -1.1296  3.5441
  512MOL0     H67520   8.492  10.039   7.120 -0.7481 -0.5623  1.2713
  512MOL0     H67521   8.369   9.694   6.822 -1.9928 -0.3190  0.7296
  512MOL0     H67522   8.369   9.654   6.999 -2.7022  0.0802 -0.9827
  512MOL0     H67523   8.619   9.686   6.822  0.6348 -4.1535 -2.7604
  512MOL0     H67524   8.546   9.533   6.839  1.1951 -0.8181  1.0104
  512MOL0     H67525   8.587   9.522   7.083 -0.3496  1.8067  2.5484
  512MOL0     H67526   8.604   9.690   7.094 -0.5103 -0.6852  0.5480
  512MOL0     H67527   8.796   9.509   6.941  2.3377  1.9408 -0.2836
  512MOL0     H67528   8.805   9.682   6.964 -1.4688 -0.1136 -0.3651
  512MOL0     H67529   8.812   9.650   7.221 -0.0995 -0.9370  1.3788
  512MOL0     H67530   8.943   9.578   7.126  0.4819 -2.1064  1.9335
  512MOL0     H67531   8.830   9.360   7.128 -1.4979 -0.1117 -1.3506
  512MOL0     H67532   8.720   9.433   7.253  0.9152  1.1020  1.1762
  512MOL0     H67533   8.882   9.311   7.375  0.3934  1.3436  3.0430
  512MOL0     H67534   9.009   9.405   7.290  0.2171 -1.9290  1.3997
  512MOL0     H67535   8.816   9.489   7.502  1.0243  1.3503  1.3877
  512MOL0     H67536   8.914   9.614   7.417 -1.0579  0.1387  1.1395
  512MOL0     H67537   8.902   9.363   7.712  1.0998 -1.4933  1.9323
  512MOL0     H67538   9.249   9.447   7.884  0.6454 -1.3632  1.2997
  512MOL0     H67539   9.193   9.286   7.826 -2.3291 -1.0867 -0.4348
  512MOL0     H67540   9.125   9.370   8.050  2.8512 -1.0555 -1.9232
  512MOL0     H67541   8.974   9.342   7.946 -2.5878  2.7798  2.8105
  512MOL0     H67542   9.101   9.612   8.010 -0.5053  1.0111  0.6926
  512MOL0     H67543   8.966   9.588   7.902  1.4509  1.3444 -0.1365
  512MOL0     H67544   8.954   9.504   8.201  1.4641  2.9879  1.0368
  512MOL0     H67545   8.826   9.489   8.071  0.8489 -3.4889  0.1374
  512MOL0     H67546   8.790   9.538   8.353  0.0310 -0.5015 -1.7770
  512MOL0     H67547   8.647   9.647   8.534 -1.8523 -2.1080 -0.9324
  512MOL0     H67548   8.463  10.112   8.715 -1.1309 -2.1816  0.4444
  512MOL0     H67549   8.265  10.221   8.821 -0.7629  1.4783  0.2468
  512MOL0     H67550   8.095  10.368   8.819  1.7518 -1.7524 -1.7200
  512MOL0     H67551   8.066  10.225   8.923 -1.0732  0.1375  1.0545
  512MOL0     H67552   7.888  10.364   8.980 -1.3081  0.1984  0.4702
  512MOL0     H67553   7.824  10.226   8.881 -1.6940  0.2078 -2.0719
  512MOL0     H67554   7.836  10.373   8.687  0.2904  0.7565 -0.3219
  512MOL0     H67555   7.898  10.503   8.788 -2.2354  1.3062  3.7129
  512MOL0     H67556   7.639  10.448   8.896 -1.6922  2.8219 -0.3164
  512MOL0     H67557   7.723  10.590   8.818  0.0722 -0.0571  0.1099
  512MOL0     H67558   7.579  10.355   8.685  0.8164  0.3628 -0.0316
  512MOL0     H67559   7.633  10.496   8.594 -2.3393  0.0225 -0.7349
  512MOL0     H67560   7.418  10.494   8.818 -1.8679 -1.4509 -1.3701
  512MOL0     H67561   7.391  10.482   8.651 -2.0861  1.7713  1.7761
  512MOL0     H67562   7.554  10.725   8.717  1.6883 -3.0756  3.0790
  512MOL0     H67563   7.417  10.701   8.609 -2.2366  0.5425  0.9371
  512MOL0     H67564   7.282  10.689   8.835 -0.6511  0.2783 -0.9726
  512MOL0     H67565   7.326  10.834   8.763  1.5429  1.8164  4.3549
  512MOL0     H67566   8.041  10.098   8.468  1.4381  1.6878 -2.4516
  512MOL0     H67567   8.262  10.013   8.370  4.3729  0.2607 -0.1089
  512MOL0     H67568   8.651  10.011   8.302  1.2016 -0.2020 -2.4796
  512MOL0     H67569   8.815   9.908   8.150 -0.3335 -1.7081 -0.6294
  512MOL0     H67570   8.194   9.802   6.919 -1.9325 -1.2035  2.9788
  512MOL0     H67571   8.019   9.958   6.981  1.0579 -1.5140 -2.2798
  512MOL0     H67572   7.863  10.201   7.301  1.6793  0.7174 -0.0971
  512MOL0     H67573   7.668  10.312   7.404  0.4628  0.6389  1.7270
  512MOL0     H67574   7.546  10.446   7.513  1.5549  0.1714  2.7671
  512MOL0     H67575   7.461  10.599   7.506  0.6281  2.8780  2.0279
  512MOL0     H67576   7.569  10.612   7.700  0.5528 -2.0409 -0.0973
  512MOL0     H67577   7.726  10.549   7.657  1.1926  0.9621  1.0909
  512MOL0     H67578   7.634  10.826   7.572  0.8988  0.3875 -0.4154
  512MOL0     H67579   7.772  10.743   7.496  0.9365  0.6154 -0.5293
  512MOL0     H67580   7.873  10.700   7.711 -0.8094 -0.5963 -0.9096
  512MOL0     H67581   7.863  10.869   7.658 -0.9352  0.6280 -0.2287
  512MOL0     H67582   7.668  10.894   8.032  0.8690  3.2728 -0.3795
  512MOL0     H67583   7.820  10.687   7.263 -0.4071 -0.0932  0.4548
  512MOL0     H67584   8.003  10.577   7.153  0.0693 -1.7800 -3.0112
  513MOL0     O67585   5.953   6.631   9.052  0.0024 -0.1853  0.4820
  513MOL0     C67586   5.996   6.707   8.967 -0.0764 -0.9134  0.5362
  513MOL0     O67587   5.948   6.714   8.836 -0.3164  0.5509 -0.4124
  513MOL0     C67588   5.827   6.658   8.810  0.5279  0.1533 -1.0208
  513MOL0     C67589   5.718   6.740   8.802  0.3552  0.0159 -0.8795
  513MOL0     C67590   5.597   6.688   8.759 -0.1872 -0.7031  0.2872
  513MOL0     C67591   5.572   6.554   8.729  0.0528 -0.2785 -0.7262
  513MOL0     O67592   5.445   6.527   8.679  0.5643  0.1233  0.1504
  513MOL0     C67593   5.414   6.404   8.615 -0.0627 -0.0864  0.2974
  513MOL0     C67594   5.261   6.387   8.610 -0.3737 -0.1667  0.2897
  513MOL0     C67595   5.208   6.453   8.477 -0.2828  0.0261  0.1638
  513MOL0     C67596   5.063   6.435   8.457  0.5160  0.3653  0.4475
  513MOL0     C67597   5.021   6.292   8.407 -0.3288 -0.1735  0.3010
  513MOL0     C67598   4.877   6.275   8.350  0.4674  0.0116  0.0774
  513MOL0     C67599   4.876   6.141   8.271 -0.1814  0.5436  0.5111
  513MOL0     C67600   4.733   6.110   8.231 -0.1804 -0.0127 -0.3429
  513MOL0     N67601   4.733   5.962   8.192 -0.1555 -0.5956 -0.3665
  513MOL0     C67602   4.739   5.864   8.294  0.1900  0.1467  0.3297
  513MOL0     C67603   4.744   5.750   8.231  0.5137 -0.1371  0.0633
  513MOL0     C67604   4.773   5.616   8.295 -0.2419  0.3657 -0.5728
  513MOL0     C67605   4.933   5.601   8.338 -0.1004  0.2584  0.2651
  513MOL0     C67606   5.026   5.602   8.216 -0.5258  0.0809  0.9075
  513MOL0     C67607   5.171   5.640   8.248  0.9836 -0.1024 -0.2763
  513MOL0     O67608   5.170   5.780   8.293  0.8713  0.2456 -0.1441
  513MOL0     C67609   5.282   5.851   8.307 -0.1680 -0.2311 -0.0886
  513MOL0     C67610   5.267   5.986   8.337 -0.2057  0.5876 -0.4942
  513MOL0     C67611   5.374   6.052   8.395 -0.0548 -0.2553 -0.5139
  513MOL0     C67612   5.500   5.993   8.417  1.5355 -0.0563 -0.1976
  513MOL0     C67613   5.617   6.072   8.473  0.0691  0.1738 -0.2048
  513MOL0     O67614   5.722   5.997   8.504 -0.3652  0.6529  0.4383
  513MOL0     C67615   5.827   6.066   8.566  0.3722  0.3349  0.3463
  513MOL0     C67616   5.915   6.135   8.489 -0.0815 -0.4656 -0.8074
  513MOL0     C67617   6.027   6.202   8.546 -0.1627  0.5070  0.0673
  513MOL0     C67618   6.048   6.202   8.686  0.4477 -0.1620 -0.4345
  513MOL0     O67619   6.156   6.272   8.733 -0.0484  0.2416 -0.5710
  513MOL0     C67620   6.161   6.314   8.865 -0.8084  0.1416 -0.5084
  513MOL0     C67621   6.245   6.435   8.889  0.6073  0.4932  0.4342
  513MOL0     C67622   6.386   6.399   8.839  0.2285 -0.4837  0.0328
  513MOL0     C67623   6.479   6.515   8.886 -0.5978 -0.6640 -0.0988
  513MOL0     C67624   6.624   6.506   8.831  0.0952  0.0320  0.2230
  513MOL0     C67625   6.712   6.612   8.899  0.1583 -1.1526 -0.2077
  513MOL0     C67626   6.848   6.620   8.830  0.1590 -0.0182 -0.1088
  513MOL0     C67627   6.949   6.717   8.891  0.4280  0.5859 -0.5307
  513MOL0    Cl67628   6.985   6.669   9.068 -0.0212 -0.1058 -0.1199
  513MOL0     C67629   5.957   6.137   8.768  0.1084  0.2329 -0.2107
  513MOL0     C67630   5.852   6.062   8.706  0.8082 -0.4513  0.1251
  513MOL0     O67631   5.604   6.189   8.504  0.2732  0.4977 -0.2760
  513MOL0     C67632   5.517   5.857   8.372 -0.4279 -0.3581 -0.0672
  513MOL0     C67633   5.408   5.792   8.339 -0.0365  0.5866  0.1003
  513MOL0     N67634   4.751   5.780   8.096 -0.3349 -0.1944  0.5136
  513MOL0     N67635   4.740   5.904   8.076  0.3294  0.0807  0.9181
  513MOL0     C67636   5.687   6.473   8.728  0.3155  0.8127  0.0488
  513MOL0     C67637   5.814   6.523   8.774 -0.0065  0.8021  0.4830
  513MOL0     C67638   6.124   6.774   8.999 -1.3877  0.0345 -0.1390
  513MOL0     C67639   6.176   6.776   9.130 -0.1140  0.4130  0.0293
  513MOL0     C67640   6.303   6.832   9.164  0.0494 -0.0398 -0.5141
  513MOL0     C67641   6.384   6.872   9.057  0.7717 -1.1141 -0.0326
  513MOL0     O67642   6.521   6.904   9.057  0.1717 -0.3270 -0.0203
  513MOL0     C67643   6.591   6.899   9.185  0.1330  0.8763 -0.3799
  513MOL0     C67644   6.739   6.920   9.174 -0.9742 -0.8201 -0.6459
  513MOL0     C67645   6.781   7.066   9.144 -0.1473  0.5334 -0.3635
  513MOL0     C67646   6.768   7.123   9.006  1.2944  1.1339  0.9551
  513MOL0     C67647   6.628   7.157   8.971 -0.0187  0.7414 -1.4333
  513MOL0     C67648   6.513   7.189   8.961 -0.1397 -1.0099  0.1787
  513MOL0     C67649   6.331   6.888   8.925  0.8449 -0.7868  0.0951
  513MOL0     C67650   6.197   6.846   8.899  0.3473  0.8942 -0.6147
  513MOL0     H67651   5.734   6.847   8.814 -1.1703  0.1190  0.5242
  513MOL0     H67652   5.513   6.756   8.751  1.0586  0.8516 -0.1161
  513MOL0     H67653   5.452   6.320   8.675 -0.5673 -0.0607  0.6651
  513MOL0     H67654   5.444   6.408   8.510  0.9887  4.3799  0.5781
  513MOL0     H67655   5.208   6.438   8.691 -2.5954  1.1797 -1.8980
  513MOL0     H67656   5.235   6.281   8.624 -0.1016 -0.0438  1.8889
  513MOL0     H67657   5.260   6.408   8.391 -0.8141  3.5506 -2.2242
  513MOL0     H67658   5.236   6.559   8.472  0.1148  0.0873  2.6862
  513MOL0     H67659   5.013   6.473   8.546 -0.5441  1.1697 -0.4808
  513MOL0     H67660   5.029   6.500   8.377 -2.0323  2.4914  3.0355
  513MOL0     H67661   5.044   6.233   8.496  3.2666  2.0011  0.9983
  513MOL0     H67662   5.093   6.259   8.331 -0.0270 -1.9094  1.2758
  513MOL0     H67663   4.848   6.358   8.285  1.8413 -0.5034 -1.2654
  513MOL0     H67664   4.810   6.289   8.435 -0.4336  2.1132 -0.9002
  513MOL0     H67665   4.935   6.156   8.180 -0.5952  0.8122  0.2875
  513MOL0     H67666   4.921   6.063   8.333  2.5491  0.4723 -1.3789
  513MOL0     H67667   4.694   6.169   8.148 -0.8948 -1.3531 -1.0091
  513MOL0     H67668   4.661   6.122   8.312 -1.4485  3.7364 -1.8260
  513MOL0     H67669   4.744   5.874   8.402 -4.4483 -1.7821  0.9563
  513MOL0     H67670   4.764   5.531   8.227  0.4913 -0.8414  0.7813
  513MOL0     H67671   4.705   5.599   8.378 -1.1677  3.8970 -0.4297
  513MOL0     H67672   4.945   5.511   8.398 -0.4825  1.5673  2.4323
  513MOL0     H67673   4.962   5.681   8.408 -0.1989  1.8780 -1.4523
  513MOL0     H67674   5.025   5.507   8.162  2.4082 -0.1636  1.1463
  513MOL0     H67675   4.991   5.674   8.142  0.1444 -1.0839 -0.5785
  513MOL0     H67676   5.232   5.615   8.161  0.0617 -0.8197 -0.7361
  513MOL0     H67677   5.211   5.574   8.326 -0.5277 -0.5104  0.1853
  513MOL0     H67678   5.168   6.026   8.319 -1.2226 -2.1233 -1.5162
  513MOL0     H67679   5.351   6.155   8.417 -0.3903 -0.6069  0.8490
  513MOL0     H67680   5.912   6.137   8.381  1.8719 -0.7364 -0.8982
  513MOL0     H67681   6.091   6.247   8.471  0.6099  0.7890  0.8782
  513MOL0     H67682   6.203   6.230   8.922 -0.2773 -0.1339 -1.2885
  513MOL0     H67683   6.071   6.340   8.921  0.3180 -2.6730  3.0128
  513MOL0     H67684   6.253   6.468   8.993  0.1157  1.2179  0.2469
  513MOL0     H67685   6.194   6.524   8.852  0.2773  0.5707  1.0566
  513MOL0     H67686   6.392   6.414   8.731 -0.0143  1.0373  0.1968
  513MOL0     H67687   6.426   6.307   8.881 -0.0414 -0.4311  0.4159
  513MOL0     H67688   6.429   6.610   8.860  0.1179  0.6754  2.9604
  513MOL0     H67689   6.474   6.526   8.995 -0.2135  0.1060 -0.1457
  513MOL0     H67690   6.621   6.524   8.723 -0.2010  0.0927  0.2390
  513MOL0     H67691   6.657   6.403   8.842 -0.6806 -0.1576  0.8485
  513MOL0     H67692   6.720   6.579   9.003  2.5224 -1.2778 -0.3750
  513MOL0     H67693   6.659   6.707   8.902 -1.2676 -1.9271  1.2815
  513MOL0     H67694   6.884   6.517   8.819 -0.9641 -0.2276 -2.5959
  513MOL0     H67695   6.846   6.658   8.727 -1.0906  0.3202  0.0333
  513MOL0     H67696   6.904   6.817   8.887 -0.6642  0.2379  1.7803
  513MOL0     H67697   7.037   6.725   8.826 -0.3390  1.6724 -1.4845
  513MOL0     H67698   5.954   6.130   8.877 -3.6313 -2.1777 -0.2884
  513MOL0     H67699   5.788   6.004   8.772 -0.6757 -1.1872 -1.8468
  513MOL0     H67700   5.605   5.794   8.376 -0.9758 -1.2422 -1.3715
  513MOL0     H67701   5.414   5.683   8.346  1.8825  0.7591  2.9342
  513MOL0     H67702   5.697   6.373   8.688 -1.9666  0.7271 -0.4133
  513MOL0     H67703   5.898   6.455   8.780 -0.6129 -0.2136 -1.5416
  513MOL0     H67704   6.111   6.731   9.205 -0.0659 -1.6984 -1.1387
  513MOL0     H67705   6.332   6.813   9.266 -0.1315 -1.1989 -0.6690
  513MOL0     H67706   6.577   6.799   9.227 -0.3264 -0.4964 -3.5207
  513MOL0     H67707   6.544   6.974   9.249 -1.3383  0.6986 -1.2088
  513MOL0     H67708   6.784   6.884   9.267 -0.5981 -2.6462 -1.4942
  513MOL0     H67709   6.783   6.851   9.101  1.5454  0.5042 -0.5002
  513MOL0     H67710   6.886   7.086   9.170 -0.2742  2.0588 -0.9202
  513MOL0     H67711   6.720   7.125   9.213  0.4589 -1.2002  1.7525
  513MOL0     H67712   6.831   7.212   8.999  1.8140  0.8176  1.5969
  513MOL0     H67713   6.801   7.050   8.932 -2.9731 -0.7083  0.5545
  513MOL0     H67714   6.409   7.217   8.966  0.7482  2.4587  2.0672
  513MOL0     H67715   6.401   6.927   8.851 -1.5825  1.0156 -1.4541
  513MOL0     H67716   6.160   6.867   8.800  3.4714  2.5809 -1.5756
  514MOL0     O67717  10.287   1.366  10.332 -0.9664  0.0007 -0.5008
  514MOL0     C67718  10.333   1.315  10.225 -0.2018 -0.6342 -0.4318
  514MOL0     O67719  10.263   1.301  10.107  0.1523  0.7626 -0.7151
  514MOL0     C67720  10.127   1.307  10.108  0.1675  0.6997 -0.3311
  514MOL0     C67721  10.040   1.293  10.217 -0.0801 -0.6517 -0.1296
  514MOL0     C67722   9.903   1.300  10.202  0.2281  0.3872  0.4455
  514MOL0     C67723   9.852   1.336  10.077  0.1596  0.4474  0.1162
  514MOL0     O67724   9.713   1.339  10.053 -0.8936  0.8370  0.7466
  514MOL0     C67725   9.642   1.450  10.105 -0.5560  0.5741  0.2732
  514MOL0     C67726   9.507   1.466  10.038  0.1183 -0.7552  0.5646
  514MOL0     C67727   9.514   1.553   9.905 -0.4581  0.1234 -0.3977
  514MOL0     C67728   9.605   1.505   9.788  0.2875  0.2581  0.2319
  514MOL0     C67729   9.564   1.554   9.659  0.6622 -0.0934  0.1595
  514MOL0     C67730   9.645   1.477   9.551  0.1810 -0.2786  0.7285
  514MOL0     C67731   9.607   1.524   9.408 -0.2296  0.4271  0.3855
  514MOL0     C67732   9.682   1.437   9.304 -0.1361 -0.2574 -0.1576
  514MOL0     N67733   9.645   1.461   9.165 -0.1859 -0.1070 -0.4028
  514MOL0     C67734   9.564   1.386   9.084  0.0068  0.2190  0.1860
  514MOL0     C67735   9.547   1.457   8.968 -0.6073  0.0196  0.4028
  514MOL0     C67736   9.475   1.408   8.847  0.5226  0.0344  0.4977
  514MOL0     C67737   9.335   1.469   8.823 -0.4973  0.6680 -0.2917
  514MOL0     C67738   9.334   1.598   8.730 -0.1293  0.1826  0.7532
  514MOL0     C67739   9.198   1.661   8.698  0.2920  0.4950  0.6175
  514MOL0     O67740   9.111   1.663   8.810 -0.1617  0.4669  0.1188
  514MOL0     C67741   8.972   1.677   8.790 -0.2180  0.7185 -0.0732
  514MOL0     C67742   8.914   1.706   8.669  0.1234 -0.2264 -0.0893
  514MOL0     C67743   8.781   1.744   8.666  0.3868  0.0912 -0.5923
  514MOL0     C67744   8.703   1.745   8.783 -0.6947 -0.6795  0.5489
  514MOL0     C67745   8.567   1.789   8.772  0.3244  0.0718 -0.1242
  514MOL0     O67746   8.489   1.795   8.888  0.0407  0.4755  0.1457
  514MOL0     C67747   8.367   1.851   8.876  0.3104  0.0999  0.1235
  514MOL0     C67748   8.344   1.965   8.954 -0.2683  0.4043  1.2866
  514MOL0     C67749   8.222   2.033   8.958  0.7951 -0.1408  0.3757
  514MOL0     C67750   8.110   1.991   8.877 -0.3612  0.7264 -0.7317
  514MOL0     O67751   7.982   2.050   8.874  0.3354  0.0963  0.1833
  514MOL0     C67752   7.967   2.175   8.934  0.2570  0.3070 -0.1835
  514MOL0     C67753   7.813   2.200   8.956  0.7016 -0.1797  0.1479
  514MOL0     C67754   7.751   2.140   9.078 -0.4015  0.5445  0.2131
  514MOL0     C67755   7.598   2.140   9.083  0.4060  0.3139  0.5231
  514MOL0     C67756   7.535   2.090   9.216  0.5560 -0.2174  0.2326
  514MOL0     C67757   7.381   2.081   9.217 -1.0941  0.7685 -0.7252
  514MOL0     C67758   7.322   2.048   9.356 -0.7982 -0.8092  0.3659
  514MOL0     C67759   7.168   2.038   9.347  0.3977 -0.1766  0.4213
  514MOL0    Cl67760   7.106   2.043   9.506  0.5072  0.0754  0.5376
  514MOL0     C67761   8.135   1.873   8.800 -0.5145  0.0785  0.2952
  514MOL0     C67762   8.261   1.805   8.794 -0.1543 -0.0142 -0.1948
  514MOL0     O67763   8.538   1.830   8.661  0.0461 -0.6929 -0.1558
  514MOL0     C67764   8.762   1.708   8.903  0.2631  1.0656 -0.0549
  514MOL0     C67765   8.898   1.671   8.906 -0.1902 -0.3476 -1.0355
  514MOL0     N67766   9.626   1.572   8.977 -0.4419 -0.3345 -0.1540
  514MOL0     N67767   9.677   1.574   9.092  0.4722  0.4419 -0.2647
  514MOL0     C67768   9.938   1.336   9.963 -0.3635 -0.2715 -0.8598
  514MOL0     C67769  10.076   1.332   9.987 -0.3163 -0.5244 -0.8371
  514MOL0     C67770  10.474   1.296  10.214  0.2253  0.2864 -0.3479
  514MOL0     C67771  10.558   1.359  10.296  0.1308 -0.0330 -0.4146
  514MOL0     C67772  10.698   1.344  10.287 -0.2438  0.0935  0.0722
  514MOL0     C67773  10.756   1.262  10.180 -0.3042  0.1424 -0.3474
  514MOL0     O67774  10.897   1.252  10.173  0.2842  0.5185 -0.7007
  514MOL0     C67775  10.948   1.157  10.077  0.0310  0.2074 -0.3120
  514MOL0     C67776  11.099   1.164  10.088 -0.5151 -0.4122 -0.0304
  514MOL0     C67777  11.168   1.096   9.971  0.3851 -0.2102 -0.4352
  514MOL0     C67778  11.309   1.063   9.996 -0.0082  0.4068  0.0760
  514MOL0     C67779  11.377   0.994   9.884 -0.4429  0.2014  0.5521
  514MOL0     C67780  11.442   0.932   9.802 -0.0048  1.2179 -0.3590
  514MOL0     C67781  10.664   1.209  10.088  0.3628  0.3531 -1.0732
  514MOL0     C67782  10.526   1.228  10.107 -0.8785  0.1245  0.4737
  514MOL0     H67783  10.066   1.274  10.321 -0.5005  1.3291  0.3740
  514MOL0     H67784   9.838   1.284  10.287 -1.2654  2.7622 -0.1500
  514MOL0     H67785   9.696   1.541  10.076  2.4425 -0.9881  0.5237
  514MOL0     H67786   9.627   1.442  10.213 -0.6237  2.9978  0.4989
  514MOL0     H67787   9.431   1.512  10.103  0.7456  0.3474  0.5350
  514MOL0     H67788   9.464   1.367  10.019 -1.1087 -0.5041  1.8401
  514MOL0     H67789   9.550   1.653   9.932  1.2470 -0.8510  1.1633
  514MOL0     H67790   9.416   1.563   9.857 -0.9984  1.6676  0.9162
  514MOL0     H67791   9.709   1.532   9.807  0.5357 -0.2870 -0.3413
  514MOL0     H67792   9.627   1.398   9.786  4.5628  0.9943 -1.4132
  514MOL0     H67793   9.588   1.658   9.636 -0.7533  0.1213 -0.4641
  514MOL0     H67794   9.454   1.551   9.651  0.6023 -0.9204  1.0672
  514MOL0     H67795   9.617   1.371   9.550  1.3313 -0.6315 -1.8060
  514MOL0     H67796   9.751   1.494   9.567 -0.2680  1.6055  2.1415
  514MOL0     H67797   9.499   1.533   9.390 -0.0154  4.1939  0.2173
  514MOL0     H67798   9.641   1.628   9.401 -3.7486  1.7802  1.0252
  514MOL0     H67799   9.652   1.336   9.335  1.1194 -0.3308  0.9022
  514MOL0     H67800   9.789   1.457   9.315 -0.1252 -0.2731 -0.2401
  514MOL0     H67801   9.521   1.290   9.112  1.4197  0.3298  3.0593
  514MOL0     H67802   9.479   1.299   8.858 -3.0106 -0.4606 -1.6123
  514MOL0     H67803   9.523   1.431   8.752  0.2039  0.7910  0.5105
  514MOL0     H67804   9.288   1.497   8.918 -3.0088  1.6164 -1.7127
  514MOL0     H67805   9.272   1.392   8.779 -0.9574  2.1003 -2.2763
  514MOL0     H67806   9.384   1.690   8.763 -0.6545  0.8242 -0.2079
  514MOL0     H67807   9.384   1.567   8.638  1.2115  1.1447  1.1274
  514MOL0     H67808   9.154   1.607   8.614  0.8224  0.4049  0.3888
  514MOL0     H67809   9.209   1.766   8.670  0.7113  0.6156  1.2276
  514MOL0     H67810   8.982   1.728   8.587 -1.3924  0.6177 -1.1626
  514MOL0     H67811   8.745   1.782   8.572 -0.1862 -1.7701 -1.1784
  514MOL0     H67812   8.429   1.996   9.014 -0.7346 -1.7802  3.2354
  514MOL0     H67813   8.220   2.120   9.023 -0.4004  1.0817 -1.2164
  514MOL0     H67814   8.004   2.247   8.861  2.0963  0.1399  0.5171
  514MOL0     H67815   8.016   2.190   9.031 -1.7688 -1.0829  1.1410
  514MOL0     H67816   7.764   2.162   8.865 -2.7819  3.4016  0.2738
  514MOL0     H67817   7.786   2.306   8.954 -1.3675 -0.6600  0.5147
  514MOL0     H67818   7.786   2.185   9.171 -0.6272 -0.2372  0.6827
  514MOL0     H67819   7.788   2.037   9.076 -0.6020  0.4827 -0.3682
  514MOL0     H67820   7.568   2.245   9.070  1.4126  0.3649 -2.0734
  514MOL0     H67821   7.558   2.078   9.002  2.2174 -0.1336 -0.0776
  514MOL0     H67822   7.567   2.149   9.302 -1.4779 -1.2751  1.7933
  514MOL0     H67823   7.567   1.989   9.247  1.9140 -0.2795 -1.2359
  514MOL0     H67824   7.363   1.998   9.147  3.2163  1.1141 -2.5091
  514MOL0     H67825   7.353   2.176   9.170 -1.5641  0.8080 -0.3758
  514MOL0     H67826   7.361   1.952   9.391  1.2351  0.1980  1.0311
  514MOL0     H67827   7.354   2.131   9.420 -0.3024  1.5627 -2.6970
  514MOL0     H67828   7.146   1.939   9.307 -2.9075  0.9625 -0.8512
  514MOL0     H67829   7.123   2.120   9.291  1.3636 -0.4520 -0.7971
  514MOL0     H67830   8.039   1.841   8.759 -0.0172 -1.2452  0.1198
  514MOL0     H67831   8.258   1.714   8.735 -2.5699  1.7708 -3.1287
  514MOL0     H67832   8.702   1.712   8.994 -1.1733  2.5408 -0.9892
  514MOL0     H67833   8.936   1.654   9.007 -1.1424  2.3223 -0.1272
  514MOL0     H67834   9.900   1.360   9.865  2.4698 -0.6328 -2.1267
  514MOL0     H67835  10.149   1.345   9.908  0.8288 -0.1882  0.2426
  514MOL0     H67836  10.512   1.409  10.380  0.6346  2.7669 -1.6996
  514MOL0     H67837  10.763   1.398  10.355  0.9694  1.6945 -2.2499
  514MOL0     H67838  10.916   1.180   9.975 -2.5396 -0.7089  0.2213
  514MOL0     H67839  10.914   1.056  10.101 -2.9614  1.1152 -0.3422
  514MOL0     H67840  11.129   1.268  10.072 -0.7176 -0.3808 -0.2202
  514MOL0     H67841  11.147   1.141  10.183 -2.7839 -0.4023  1.1976
  514MOL0     H67842  11.156   1.159   9.883  0.8920 -1.6044 -1.5473
  514MOL0     H67843  11.113   1.004   9.949 -0.6519  0.3270 -0.1344
  514MOL0     H67844  11.370   1.151  10.018  2.3173 -0.9922 -0.3610
  514MOL0     H67845  11.309   1.001  10.086 -0.1744 -3.1981 -2.1845
  514MOL0     H67846  11.502   0.871   9.738  1.8567  0.5957  1.8728
  514MOL0     H67847  10.709   1.154  10.006  4.9918 -0.3726  1.6461
  514MOL0     H67848  10.462   1.194  10.026 -1.7149 -1.4811  1.7499
  515MOL0     O67849   5.585   1.980   0.093 -0.5939 -0.2203 -0.4177
  515MOL0     C67850   5.641   1.911   0.008 -0.2756  0.5442  0.7166
  515MOL0     O67851   5.585   1.806  -0.059  1.0856  0.2197  0.0168
  515MOL0     C67852   5.461   1.766  -0.034  0.4036  0.0911  0.2475
  515MOL0     C67853   5.445   1.628  -0.031 -0.3965  0.0714  1.4025
  515MOL0     C67854   5.326   1.563  -0.010  0.4128 -0.1697 -0.6475
  515MOL0     C67855   5.210   1.645   0.021  0.3168  0.0331 -0.6494
  515MOL0     O67856   5.083   1.591   0.027 -0.1818  0.5505  0.3935
  515MOL0     C67857   5.002   1.634   0.143 -0.6320 -0.3824  0.3435
  515MOL0     C67858   4.858   1.588   0.111 -1.5220 -0.0582 -0.4013
  515MOL0     C67859   4.773   1.611   0.240 -0.2270 -0.2454  0.3396
  515MOL0     C67860   4.627   1.570   0.218 -0.2016  0.2901  1.1800
  515MOL0     C67861   4.515   1.636   0.313  0.3669 -0.6703  0.1543
  515MOL0     C67862   4.376   1.596   0.261 -0.0892  0.1808  0.9975
  515MOL0     C67863   4.266   1.690   0.326 -0.8312  0.0906  0.4052
  515MOL0     C67864   4.117   1.654   0.282  0.6972  0.0888 -0.0324
  515MOL0     N67865   4.017   1.748   0.345  0.2862 -0.2188  0.3005
  515MOL0     C67866   3.908   1.717   0.420 -1.4500 -0.7916 -0.3879
  515MOL0     C67867   3.858   1.840   0.458 -0.0716  1.0911  0.1865
  515MOL0     C67868   3.732   1.851   0.544 -0.0948  0.3076 -0.1413
  515MOL0     C67869   3.632   1.963   0.509 -0.3087  0.5752  0.1833
  515MOL0     C67870   3.555   1.939   0.375  1.1853 -1.1031 -0.0848
  515MOL0     C67871   3.396   1.945   0.397  0.2573  1.0644 -0.2320
  515MOL0     O67872   3.368   1.842   0.489  0.1298  0.5323 -0.1881
  515MOL0     C67873   3.238   1.790   0.482  0.2424  0.1194  0.5091
  515MOL0     C67874   3.123   1.859   0.451 -0.2195  0.7616 -0.4128
  515MOL0     C67875   2.998   1.798   0.443  0.2711 -0.7458 -0.2600
  515MOL0     C67876   2.985   1.657   0.454 -0.1892  0.2114 -0.5770
  515MOL0     C67877   2.849   1.586   0.446 -0.7197  0.2193  0.3734
  515MOL0     O67878   2.745   1.653   0.397 -0.3537 -0.3246 -0.4540
  515MOL0     C67879   2.621   1.591   0.392 -0.4109 -1.0046 -0.6266
  515MOL0     C67880   2.543   1.591   0.507 -0.8345  1.1662 -0.0931
  515MOL0     C67881   2.411   1.543   0.500  0.5129  0.0688 -0.1197
  515MOL0     C67882   2.354   1.489   0.376  0.0950 -0.4047  0.5068
  515MOL0     O67883   2.225   1.448   0.354  0.0383 -0.8378 -0.1235
  515MOL0     C67884   2.126   1.536   0.410 -0.3624 -0.3165  0.4305
  515MOL0     C67885   1.972   1.502   0.381  0.5742  0.6966  0.1590
  515MOL0     C67886   1.890   1.612   0.448 -0.0699  0.2029  0.5620
  515MOL0     C67887   1.751   1.610   0.366 -0.0828  0.4612 -0.7732
  515MOL0     C67888   1.635   1.670   0.441 -0.6518  0.3472  0.2187
  515MOL0     C67889   1.498   1.671   0.375  0.1033  0.5899 -0.1975
  515MOL0     C67890   1.385   1.715   0.465  0.8678  0.0086 -0.2454
  515MOL0     C67891   1.254   1.699   0.381  0.2703 -0.1152  0.7801
  515MOL0    Cl67892   1.108   1.712   0.484 -0.3663  0.0879  0.2090
  515MOL0     C67893   2.446   1.488   0.264  0.4271 -0.2556 -0.9645
  515MOL0     C67894   2.575   1.537   0.272  0.8676  0.2740  0.0726
  515MOL0     O67895   2.846   1.471   0.484 -0.7177 -0.2163 -0.2471
  515MOL0     C67896   3.108   1.591   0.490  0.5253  0.3137  0.5959
  515MOL0     C67897   3.229   1.654   0.501 -0.3455  0.0832  0.6403
  515MOL0     N67898   3.935   1.941   0.415 -0.1157  0.1005  0.3459
  515MOL0     N67899   4.026   1.887   0.340 -0.3240  0.0634 -0.0295
  515MOL0     C67900   5.226   1.777   0.024 -0.8463 -0.4737 -0.2070
  515MOL0     C67901   5.349   1.840  -0.005  0.7414  0.3912  0.5916
  515MOL0     C67902   5.787   1.930  -0.017 -0.1548  0.1401 -0.9514
  515MOL0     C67903   5.860   1.839  -0.096  0.2158 -0.8131  0.1496
  515MOL0     C67904   5.993   1.871  -0.136  0.6990  0.1762  0.1476
  515MOL0     C67905   6.058   1.983  -0.087 -0.1468  0.0032 -0.5148
  515MOL0     O67906   6.187   2.002  -0.121 -0.3686  0.5939 -0.3972
  515MOL0     C67907   6.272   2.113  -0.099  1.0980 -0.0118 -0.1381
  515MOL0     C67908   6.420   2.075  -0.133 -0.1538 -0.1197  0.2623
  515MOL0     C67909   6.507   2.192  -0.099  0.0507 -0.8152  0.5149
  515MOL0     C67910   6.651   2.141  -0.072  0.3809 -0.2284  0.2933
  515MOL0     C67911   6.717   2.091  -0.197  0.5034  0.3745  0.2885
  515MOL0     C67912   6.760   2.039  -0.296 -0.7745  0.2410 -0.0506
  515MOL0     C67913   5.990   2.066  -0.000 -0.6406 -0.0937  0.1937
  515MOL0     C67914   5.853   2.050   0.020 -0.5150  0.2605 -0.5963
  515MOL0     H67915   5.538   1.578  -0.054 -0.6221  0.5808 -0.7556
  515MOL0     H67916   5.315   1.455  -0.007 -0.2488 -0.0886  0.1884
  515MOL0     H67917   5.005   1.743   0.148  3.3747 -0.3315  0.0445
  515MOL0     H67918   5.041   1.589   0.234  0.4474 -0.7282 -0.2773
  515MOL0     H67919   4.856   1.483   0.079 -2.5432 -0.0481 -0.4146
  515MOL0     H67920   4.823   1.651   0.029  0.4516 -0.7402 -1.8529
  515MOL0     H67921   4.778   1.718   0.262 -1.9319 -0.3535  1.4301
  515MOL0     H67922   4.820   1.546   0.314 -0.0776 -2.3231 -1.4644
  515MOL0     H67923   4.599   1.592   0.115 -1.0656  1.4954  1.6412
  515MOL0     H67924   4.630   1.464   0.244  0.7702  0.3117  1.1741
  515MOL0     H67925   4.513   1.744   0.298  0.1947 -0.8373 -1.1160
  515MOL0     H67926   4.521   1.618   0.421  1.3789 -0.0811  0.2102
  515MOL0     H67927   4.347   1.493   0.280 -1.4787 -0.3410 -2.9755
  515MOL0     H67928   4.373   1.603   0.152 -0.8009  1.7222  1.0936
  515MOL0     H67929   4.282   1.684   0.434 -0.0814 -1.5722  0.2418
  515MOL0     H67930   4.287   1.792   0.295 -1.6535  0.7852  2.0234
  515MOL0     H67931   4.087   1.550   0.297 -0.4114  0.7361  2.9352
  515MOL0     H67932   4.112   1.679   0.175  0.3297 -1.1509 -0.3125
  515MOL0     H67933   3.868   1.619   0.442 -0.7808 -0.3460  3.3649
  515MOL0     H67934   3.754   1.860   0.651 -1.8437 -3.3115  0.6625
  515MOL0     H67935   3.680   1.755   0.547  1.2692 -0.4332  1.3679
  515MOL0     H67936   3.695   2.052   0.507  0.9693 -0.2936  0.6247
  515MOL0     H67937   3.563   1.969   0.594 -0.8973 -1.8696 -0.0511
  515MOL0     H67938   3.566   2.023   0.307  1.0048 -0.3717  0.7746
  515MOL0     H67939   3.584   1.843   0.331 -0.8633 -3.3078  2.9845
  515MOL0     H67940   3.345   1.933   0.300  2.0991 -0.4786 -1.0954
  515MOL0     H67941   3.351   2.034   0.440 -0.9217 -0.6527  2.3379
  515MOL0     H67942   3.137   1.966   0.443  2.2269  0.7175  2.0356
  515MOL0     H67943   2.922   1.871   0.422  0.1874 -0.2423  1.5818
  515MOL0     H67944   2.583   1.643   0.594  1.6768 -0.5237 -0.1294
  515MOL0     H67945   2.352   1.556   0.591  2.6752  0.0863  1.3555
  515MOL0     H67946   2.135   1.641   0.381 -1.4639 -0.4388 -0.4299
  515MOL0     H67947   2.137   1.532   0.519 -2.4400 -1.3096  0.6589
  515MOL0     H67948   1.958   1.411   0.440  4.9185 -0.1338  0.2617
  515MOL0     H67949   1.940   1.492   0.277  0.4536 -1.2736  0.3601
  515MOL0     H67950   1.937   1.708   0.430 -0.8305  0.5562  0.4146
  515MOL0     H67951   1.875   1.607   0.556  1.2427  1.6639  0.8445
  515MOL0     H67952   1.771   1.666   0.275  1.6066 -0.5392 -1.0516
  515MOL0     H67953   1.718   1.510   0.335 -0.4120  0.2792  0.1353
  515MOL0     H67954   1.657   1.775   0.460 -1.1097  0.3369  0.8877
  515MOL0     H67955   1.625   1.632   0.543 -1.7691  2.7520  1.0842
  515MOL0     H67956   1.478   1.571   0.333 -3.2306  1.7085 -1.5832
  515MOL0     H67957   1.496   1.736   0.287 -2.5638  0.4813 -0.2884
  515MOL0     H67958   1.381   1.660   0.560  3.1103  1.4149  0.7744
  515MOL0     H67959   1.394   1.822   0.489 -3.6101 -0.0443  3.0013
  515MOL0     H67960   1.253   1.604   0.326 -0.4317 -0.3025  1.1008
  515MOL0     H67961   1.247   1.773   0.301 -3.0482 -3.8486 -2.8875
  515MOL0     H67962   2.425   1.440   0.169  2.9471  0.6637 -2.0825
  515MOL0     H67963   2.634   1.541   0.181  0.4148  0.3158 -0.2200
  515MOL0     H67964   3.103   1.483   0.499 -2.5986  0.3705  0.8069
  515MOL0     H67965   3.325   1.606   0.514  1.6454  3.8665  1.1702
  515MOL0     H67966   5.141   1.842   0.045 -1.7894 -1.4773 -0.8517
  515MOL0     H67967   5.350   1.948   0.001 -0.7983  0.5393 -0.9790
  515MOL0     H67968   5.822   1.743  -0.130  0.3857 -1.5041  1.7765
  515MOL0     H67969   6.048   1.813  -0.210  2.1651 -0.7901  1.9253
  515MOL0     H67970   6.268   2.137   0.007 -1.4187 -2.4138  0.4225
  515MOL0     H67971   6.235   2.193  -0.164 -0.6725 -0.2293  0.5550
  515MOL0     H67972   6.450   1.987  -0.075 -1.5785 -1.7220 -1.2797
  515MOL0     H67973   6.432   2.053  -0.240  3.1405  0.4144  0.4405
  515MOL0     H67974   6.459   2.246  -0.016 -1.3492  1.8669 -1.8672
  515MOL0     H67975   6.513   2.258  -0.186 -0.6221 -0.6945  0.5559
  515MOL0     H67976   6.706   2.232  -0.048  2.0661 -2.0737  4.2835
  515MOL0     H67977   6.662   2.073   0.013 -1.1254 -2.4405 -1.1781
  515MOL0     H67978   6.796   2.004  -0.391 -1.6397  0.2534 -0.3896
  515MOL0     H67979   6.043   2.157   0.027 -0.9236  1.5134 -3.8380
  515MOL0     H67980   5.801   2.123   0.082  1.5047  1.8045 -0.6167
  516MOL0     O67981  10.112   6.358  10.802  0.1625 -0.1852 -0.1510
  516MOL0     C67982  10.115   6.242  10.840  0.7980 -0.4648 -0.6124
  516MOL0     O67983  10.013   6.167  10.863  0.1195 -0.5033 -0.3928
  516MOL0     C67984   9.889   6.228  10.864  0.1066  0.4802  0.7329
  516MOL0     C67985   9.826   6.274  10.978 -0.1070 -1.0850  1.0690
  516MOL0     C67986   9.705   6.337  10.964 -1.0487 -0.2973  0.6670
  516MOL0     C67987   9.636   6.340  10.845  0.2563 -0.4827 -0.6799
  516MOL0     O67988   9.512   6.411  10.845 -0.3069  0.1019 -0.4004
  516MOL0     C67989   9.437   6.407  10.724  0.0451  0.1942 -1.4257
  516MOL0     C67990   9.327   6.519  10.721 -0.0286  0.3761  0.3915
  516MOL0     C67991   9.210   6.477  10.796  0.9166  0.2945  0.2099
  516MOL0     C67992   9.085   6.557  10.757 -0.9108 -0.1776 -0.8214
  516MOL0     C67993   8.970   6.534  10.864 -0.7193  0.5061 -0.5690
  516MOL0     C67994   8.849   6.632  10.867 -0.2821 -0.6079  0.5257
  516MOL0     C67995   8.805   6.687  10.728  0.4233  0.1555  0.1611
  516MOL0     C67996   8.658   6.706  10.723  0.1505 -0.2104  0.0317
  516MOL0     N67997   8.606   6.808  10.816 -0.4002  0.2036  0.6770
  516MOL0     C67998   8.610   6.944  10.797  0.3084 -0.5312 -0.2764
  516MOL0     C67999   8.528   6.994  10.894  1.0844  0.2614  0.3902
  516MOL0     C68000   8.519   7.143  10.908 -1.6002 -0.3058  1.0719
  516MOL0     C68001   8.381   7.201  10.860  0.5166  0.3862 -0.4578
  516MOL0     C68002   8.395   7.353  10.822  0.3834 -0.3033 -0.0828
  516MOL0     C68003   8.261   7.403  10.773 -0.2135  0.1247 -0.8941
  516MOL0     O68004   8.166   7.408  10.874 -0.6795  0.1276 -0.3550
  516MOL0     C68005   8.039   7.457  10.849 -0.5224 -0.2809 -0.2163
  516MOL0     C68006   7.934   7.412  10.920  0.0267 -0.4633 -0.7690
  516MOL0     C68007   7.803   7.426  10.868 -0.0564  0.0416  0.9917
  516MOL0     C68008   7.782   7.511  10.751 -0.6317  0.6235 -0.4186
  516MOL0     C68009   7.644   7.535  10.702  0.2875 -1.2915  0.7568
  516MOL0     O68010   7.540   7.519  10.788 -0.1424 -0.0879  0.0096
  516MOL0     C68011   7.414   7.552  10.760  0.0179  0.1964  0.1515
  516MOL0     C68012   7.325   7.462  10.706  0.5152  0.5635 -0.2825
  516MOL0     C68013   7.198   7.499  10.681  0.5684  0.0992 -0.0533
  516MOL0     C68014   7.142   7.627  10.714 -0.0677  0.3159  0.4038
  516MOL0     O68015   7.021   7.647  10.666  0.4764 -0.2502 -0.5407
  516MOL0     C68016   6.962   7.777  10.707 -0.0963 -0.6402  0.0958
  516MOL0     C68017   6.810   7.765  10.703 -0.9702  0.9231  0.2470
  516MOL0     C68018   6.739   7.891  10.738  0.5164 -0.1214 -0.1378
  516MOL0     C68019   6.592   7.854  10.763  0.5237 -0.4269  0.7405
  516MOL0     C68020   6.503   7.979  10.802  0.9977  0.6499 -0.6047
  516MOL0     C68021   6.356   7.944  10.823 -0.1969 -0.0785  0.7191
  516MOL0     C68022   6.284   7.877  10.704 -0.0781 -0.2907  0.5636
  516MOL0     C68023   6.241   7.990  10.605 -0.6037 -0.4430 -0.1632
  516MOL0    Cl68024   6.128   7.927  10.488 -0.4666  0.0835 -0.1288
  516MOL0     C68025   7.237   7.723  10.761 -0.7772  0.1881  0.4684
  516MOL0     C68026   7.373   7.688  10.791 -0.3870  0.4010  1.0679
  516MOL0     O68027   7.628   7.560  10.577 -0.0472 -0.1541 -0.0396
  516MOL0     C68028   7.889   7.564  10.690  0.3345  1.2087  1.3969
  516MOL0     C68029   8.019   7.535  10.730  0.3417  0.3952 -0.2731
  516MOL0     N68030   8.489   6.895  10.970  0.1641  1.1058 -0.7454
  516MOL0     N68031   8.525   6.777  10.924 -0.5246 -0.0482  0.0615
  516MOL0     C68032   9.701   6.284  10.731 -0.3727 -0.0968  0.1580
  516MOL0     C68033   9.830   6.237  10.736 -0.4996  0.7302 -0.8900
  516MOL0     C68034  10.246   6.181  10.870  0.0598  1.1273  0.8503
  516MOL0     C68035  10.354   6.262  10.888 -1.0612 -0.5049  0.2021
  516MOL0     C68036  10.478   6.203  10.918  0.0187 -0.2678  0.6555
  516MOL0     C68037  10.500   6.065  10.945  0.2030 -0.2979 -0.4194
  516MOL0     O68038  10.622   6.012  10.950  0.3313  0.0926  0.1251
  516MOL0     C68039  10.726   6.077  11.025  0.9381 -0.5069 -0.4902
  516MOL0     C68040  10.868   6.035  10.974  0.2661 -0.7526 -0.3760
  516MOL0     C68041  10.881   6.036  10.828  0.6072  0.2957  0.1229
  516MOL0     C68042  11.017   6.007  10.772  1.0308  0.3457 -0.2488
  516MOL0     C68043  11.091   6.130  10.758 -0.7577 -0.0281  0.1334
  516MOL0     C68044  11.163   6.219  10.741 -0.3485  0.4925 -0.4102
  516MOL0     C68045  10.388   5.988  10.932  0.6610  0.3324  0.4329
  516MOL0     C68046  10.260   6.044  10.899 -0.4752  0.3013  0.4392
  516MOL0     H68047   9.864   6.257  11.078 -0.8110 -2.4394  1.1229
  516MOL0     H68048   9.661   6.379  11.054 -0.0425 -1.4037  1.7272
  516MOL0     H68049   9.390   6.308  10.726 -2.2554  1.2172  0.8533
  516MOL0     H68050   9.503   6.427  10.639 -0.1085  1.0133 -1.3538
  516MOL0     H68051   9.297   6.530  10.617  1.0615  1.3868  0.1587
  516MOL0     H68052   9.372   6.612  10.758  0.1363  1.7766 -2.9306
  516MOL0     H68053   9.226   6.484  10.904  0.5150 -1.2738  0.3999
  516MOL0     H68054   9.186   6.373  10.770  0.0256  0.9041 -1.5910
  516MOL0     H68055   9.120   6.661  10.762 -1.1017 -0.1719  2.3189
  516MOL0     H68056   9.059   6.534  10.653  0.2940 -1.9317 -0.7654
  516MOL0     H68057   9.016   6.533  10.963 -0.6604 -0.5492 -0.5938
  516MOL0     H68058   8.927   6.435  10.845 -1.2230  0.5130  0.4426
  516MOL0     H68059   8.858   6.717  10.935 -1.6054  0.7503 -0.9018
  516MOL0     H68060   8.768   6.570  10.906 -1.0840 -1.0709 -1.7209
  516MOL0     H68061   8.851   6.778  10.690 -1.2139  2.1354  2.6083
  516MOL0     H68062   8.823   6.609  10.653 -0.1505  0.9811 -0.8611
  516MOL0     H68063   8.627   6.603  10.739  1.8817 -0.4079  2.8019
  516MOL0     H68064   8.630   6.735  10.621 -0.9960 -1.4953 -0.0422
  516MOL0     H68065   8.661   7.007  10.724 -0.8799  0.6334 -0.1409
  516MOL0     H68066   8.601   7.194  10.857 -1.0012 -1.3350  0.9658
  516MOL0     H68067   8.539   7.166  11.013  2.6010  0.6748  0.2413
  516MOL0     H68068   8.315   7.182  10.945  4.3456 -1.3173  2.4795
  516MOL0     H68069   8.357   7.129  10.781  1.4278  1.3132 -1.6240
  516MOL0     H68070   8.420   7.422  10.904 -0.3031 -1.7996  1.4376
  516MOL0     H68071   8.459   7.362  10.734 -0.6158 -1.7065 -0.9807
  516MOL0     H68072   8.244   7.339  10.686  0.7995  0.5987 -1.4633
  516MOL0     H68073   8.287   7.502  10.735  1.6674  1.3176  3.0235
  516MOL0     H68074   7.952   7.353  11.009 -0.3439 -2.5705 -2.0048
  516MOL0     H68075   7.722   7.379  10.924  0.3482 -0.2825  1.3120
  516MOL0     H68076   7.363   7.364  10.679 -0.8645 -0.3081  0.8459
  516MOL0     H68077   7.137   7.418  10.641  0.8872 -0.7439  1.0969
  516MOL0     H68078   6.999   7.859  10.644 -2.9237 -0.0746 -0.9569
  516MOL0     H68079   6.994   7.784  10.811  0.8505 -0.3813 -0.2046
  516MOL0     H68080   6.793   7.683  10.774  0.2872  0.0383 -0.4268
  516MOL0     H68081   6.775   7.732  10.605 -0.0693  2.2310 -0.5538
  516MOL0     H68082   6.744   7.967  10.659 -3.3418  1.1669  0.6168
  516MOL0     H68083   6.764   7.941  10.832 -2.5804  2.7506 -0.6175
  516MOL0     H68084   6.558   7.826  10.663 -2.2111  0.9903  1.1762
  516MOL0     H68085   6.587   7.772  10.836 -0.2887 -0.5146  0.5933
  516MOL0     H68086   6.504   8.045  10.715 -1.2051  3.1862  1.1673
  516MOL0     H68087   6.537   8.027  10.894  1.8517 -1.0219  0.0141
  516MOL0     H68088   6.288   8.026  10.850  1.8450  1.9875 -0.0999
  516MOL0     H68089   6.359   7.873  10.906  0.7878 -0.1249  0.6554
  516MOL0     H68090   6.342   7.804  10.647 -0.9044 -1.8852  1.7178
  516MOL0     H68091   6.194   7.821  10.730 -0.0647 -1.8942 -2.3994
  516MOL0     H68092   6.330   8.044  10.571 -0.0500 -0.9227  0.4725
  516MOL0     H68093   6.180   8.060  10.663 -0.1126 -1.1151  1.2186
  516MOL0     H68094   7.206   7.825  10.779 -1.2273 -0.0200  0.9095
  516MOL0     H68095   7.444   7.765  10.819 -1.6002  1.5538  1.0841
  516MOL0     H68096   7.873   7.614  10.595 -0.3114 -0.4661  0.5755
  516MOL0     H68097   8.093   7.564  10.656  2.7103 -2.4368  0.7775
  516MOL0     H68098   9.649   6.282  10.636  0.4889 -0.6293 -0.3176
  516MOL0     H68099   9.886   6.198  10.652  1.1301 -0.5218  0.6859
  516MOL0     H68100  10.352   6.370  10.871  1.8864  0.0142  2.3525
  516MOL0     H68101  10.562   6.272  10.912  0.8883 -1.4500 -1.7643
  516MOL0     H68102  10.711   6.075  11.133  1.4975 -0.9968 -0.4222
  516MOL0     H68103  10.721   6.185  11.007 -1.5508 -0.7100 -1.5196
  516MOL0     H68104  10.935   6.111  11.017  0.5984 -0.7019 -0.9825
  516MOL0     H68105  10.903   5.942  11.020  1.9291 -0.8662 -1.7681
  516MOL0     H68106  10.850   6.134  10.790  0.7828  0.1066 -0.5350
  516MOL0     H68107  10.801   5.973  10.789 -0.8372  2.5949 -0.8547
  516MOL0     H68108  11.070   5.940  10.840  0.1350  1.1183  1.2540
  516MOL0     H68109  11.016   5.955  10.676 -1.1263 -0.5794  0.2218
  516MOL0     H68110  11.225   6.306  10.731 -1.1128  0.8260 -2.9556
  516MOL0     H68111  10.396   5.882  10.953 -0.1059  0.3675  0.9485
  516MOL0     H68112  10.174   5.981  10.881 -0.8115  1.0918 -0.8111
  517MOL0     O68113   1.357   4.470   3.186  0.1761 -0.3570  1.1508
  517MOL0     C68114   1.411   4.582   3.210  0.0127 -0.2880 -0.2516
  517MOL0     O68115   1.346   4.681   3.283 -0.3602 -0.3615  0.0657
  517MOL0     C68116   1.229   4.683   3.347  0.1760  0.6461 -0.3125
  517MOL0     C68117   1.216   4.791   3.435  0.5900  0.6427  0.4668
  517MOL0     C68118   1.095   4.818   3.508 -0.6989 -0.7272  1.0171
  517MOL0     C68119   0.991   4.740   3.475  1.1216  0.8413 -0.3948
  517MOL0     O68120   0.856   4.765   3.520 -0.5990  0.3053  0.3691
  517MOL0     C68121   0.820   4.779   3.653 -0.8498 -0.6409 -0.5514
  517MOL0     C68122   0.675   4.750   3.691 -0.5635  0.6547  0.6916
  517MOL0     C68123   0.572   4.855   3.625  0.5643  0.5920  0.7189
  517MOL0     C68124   0.425   4.821   3.683  0.7202  0.5646 -0.3957
  517MOL0     C68125   0.329   4.917   3.620  0.1909 -0.7036 -0.5966
  517MOL0     C68126   0.195   4.857   3.632 -0.5604  0.0596  0.4846
  517MOL0     C68127   0.084   4.962   3.628 -0.4494  0.1239 -0.4746
  517MOL0     C68128  -0.050   4.904   3.577 -0.4264  0.1109  0.7139
  517MOL0     N68129  -0.139   5.021   3.578 -0.1589 -1.0315 -0.0583
  517MOL0     C68130  -0.196   5.075   3.692  0.5418  0.6644 -0.1189
  517MOL0     C68131  -0.281   5.167   3.643  0.2970 -0.2850 -0.9299
  517MOL0     C68132  -0.368   5.264   3.723  0.0875  0.1949  0.1630
  517MOL0     C68133  -0.454   5.209   3.840 -0.0681  1.2318  0.1740
  517MOL0     C68134  -0.535   5.329   3.901  0.5428  0.0673  0.5583
  517MOL0     C68135  -0.615   5.295   4.029 -0.3470  0.0155 -0.1398
  517MOL0     O68136  -0.726   5.198   4.020 -0.2686 -0.0220  0.2967
  517MOL0     C68137  -0.852   5.245   3.997  0.3911 -0.4045  0.4519
  517MOL0     C68138  -0.952   5.151   4.030 -0.2592 -0.3798  0.2332
  517MOL0     C68139  -1.089   5.181   4.019  0.0506 -0.0039 -0.9850
  517MOL0     C68140  -1.127   5.309   3.986  0.0473 -0.5497 -0.3784
  517MOL0     C68141  -1.266   5.358   3.989  0.2220 -0.1460  0.0528
  517MOL0     O68142  -1.294   5.450   3.903  0.0680  0.1888  0.4060
  517MOL0     C68143  -1.421   5.509   3.916  0.2041  0.3184  0.3977
  517MOL0     C68144  -1.519   5.478   3.825  0.1578  0.0736 -0.2194
  517MOL0     C68145  -1.657   5.516   3.834  0.3740 -0.3010 -0.4087
  517MOL0     C68146  -1.692   5.592   3.946 -0.5803  0.2456  0.7006
  517MOL0     O68147  -1.814   5.649   3.973 -0.8380 -0.0579  0.0656
  517MOL0     C68148  -1.930   5.610   3.903  0.3887  0.2744  0.4741
  517MOL0     C68149  -1.937   5.696   3.774  0.0603  0.0901 -0.5114
  517MOL0     C68150  -2.054   5.660   3.678 -0.4372 -1.0308  0.4799
  517MOL0     C68151  -2.172   5.730   3.749 -0.2972  0.4372  0.4899
  517MOL0     C68152  -2.301   5.687   3.675 -0.2420  0.3291 -0.0355
  517MOL0     C68153  -2.426   5.779   3.726 -0.4278  0.4782  0.7570
  517MOL0     C68154  -2.551   5.766   3.649 -0.8999 -0.0859  0.1440
  517MOL0     C68155  -2.647   5.872   3.671 -0.7418 -0.6213 -0.5316
  517MOL0    Cl68156  -2.578   6.032   3.630 -0.2173  0.0714  0.1209
  517MOL0     C68157  -1.591   5.618   4.041 -0.2960  0.6920  0.3633
  517MOL0     C68158  -1.457   5.573   4.027  0.9004 -0.8800 -0.1132
  517MOL0     O68159  -1.339   5.316   4.073  0.4692 -0.7708 -0.8653
  517MOL0     C68160  -1.033   5.400   3.945 -0.4363  0.2377  0.6516
  517MOL0     C68161  -0.899   5.372   3.952 -0.1272  0.8609 -0.3118
  517MOL0     N68162  -0.278   5.170   3.511  0.6104 -1.1475  0.3706
  517MOL0     N68163  -0.198   5.084   3.472  0.0739  0.5242 -0.3741
  517MOL0     C68164   0.997   4.628   3.395 -0.1364  0.3115  0.5797
  517MOL0     C68165   1.122   4.597   3.327 -0.1270 -0.0334  0.2436
  517MOL0     C68166   1.532   4.617   3.147 -0.3349  0.5738 -0.1919
  517MOL0     C68167   1.627   4.519   3.113 -0.6452 -0.2291  0.8247
  517MOL0     C68168   1.737   4.553   3.036  0.4182 -0.2816  1.5525
  517MOL0     C68169   1.772   4.691   3.009  0.3829 -0.0411 -0.1079
  517MOL0     O68170   1.883   4.735   2.944 -0.3031  0.0793  0.0198
  517MOL0     C68171   2.006   4.655   2.968  0.4396 -0.4863  0.3158
  517MOL0     C68172   2.122   4.714   2.884  0.2500  0.0164  0.2613
  517MOL0     C68173   2.158   4.866   2.888  0.1221  0.0426 -0.6306
  517MOL0     C68174   2.211   4.905   3.026  0.2791 -0.8383  0.0241
  517MOL0     C68175   2.221   5.049   3.041  0.4321  0.4979  0.5436
  517MOL0     C68176   2.218   5.167   3.078 -0.4981 -0.2255  0.6966
  517MOL0     C68177   1.671   4.782   3.042 -0.4896  0.8178  0.9533
  517MOL0     C68178   1.559   4.745   3.104 -0.3062 -0.0645  0.4510
  517MOL0     H68179   1.306   4.845   3.462  2.1311 -2.7667  3.0201
  517MOL0     H68180   1.101   4.898   3.581 -1.2528 -0.3237  0.6302
  517MOL0     H68181   0.842   4.883   3.679  0.5247 -1.4589  1.9715
  517MOL0     H68182   0.892   4.726   3.716  2.0786  2.8991 -0.6414
  517MOL0     H68183   0.670   4.742   3.800  1.8389  0.8561  0.8765
  517MOL0     H68184   0.649   4.651   3.654 -1.3510  1.8160 -2.1382
  517MOL0     H68185   0.574   4.846   3.516 -1.3177 -0.3327  0.7182
  517MOL0     H68186   0.595   4.959   3.647  0.4263  0.8411 -0.2559
  517MOL0     H68187   0.399   4.719   3.653 -1.0081  1.1930 -1.0943
  517MOL0     H68188   0.429   4.831   3.792  1.6616 -2.0974 -0.1002
  517MOL0     H68189   0.350   4.927   3.513  1.3243 -1.2188 -0.4298
  517MOL0     H68190   0.342   5.013   3.670  2.0417 -0.6950 -1.0337
  517MOL0     H68191   0.183   4.793   3.719 -0.8136 -1.9676 -0.9703
  517MOL0     H68192   0.183   4.781   3.554  2.9725  0.5424 -0.6957
  517MOL0     H68193   0.075   5.016   3.722  1.4311  0.7571 -0.6390
  517MOL0     H68194   0.123   5.040   3.562  0.0870 -0.7573 -1.2161
  517MOL0     H68195  -0.082   4.812   3.626 -0.5873 -1.1382 -1.5888
  517MOL0     H68196  -0.032   4.873   3.474 -1.4418  2.9095 -0.4027
  517MOL0     H68197  -0.177   5.043   3.794  0.9713  0.1246 -0.3638
  517MOL0     H68198  -0.441   5.303   3.652 -0.3737 -0.6749  0.1520
  517MOL0     H68199  -0.315   5.353   3.758  0.5312 -0.0675  0.1603
  517MOL0     H68200  -0.389   5.158   3.913 -2.2081 -0.1486  1.2177
  517MOL0     H68201  -0.530   5.138   3.807 -0.3178  1.1496  0.8895
  517MOL0     H68202  -0.476   5.417   3.927  3.9028 -1.5666 -0.9755
  517MOL0     H68203  -0.608   5.360   3.826  1.3494  0.9984  0.1426
  517MOL0     H68204  -0.662   5.386   4.067  0.9395 -0.2405  2.2187
  517MOL0     H68205  -0.548   5.270   4.111  2.9605  0.6469 -2.4560
  517MOL0     H68206  -0.919   5.048   4.042  1.2757 -0.2353 -2.0337
  517MOL0     H68207  -1.168   5.109   4.037 -0.8344  1.0979 -0.3280
  517MOL0     H68208  -1.496   5.430   3.730 -0.7875 -3.0188  0.9802
  517MOL0     H68209  -1.734   5.494   3.761 -1.4649  0.3302  1.2452
  517MOL0     H68210  -2.018   5.630   3.964  0.0045 -2.1017  0.8085
  517MOL0     H68211  -1.921   5.508   3.864 -1.5564  0.5333 -0.8109
  517MOL0     H68212  -1.840   5.691   3.724 -0.5504  1.5741 -1.9289
  517MOL0     H68213  -1.947   5.802   3.799 -2.9427 -0.2024 -0.1314
  517MOL0     H68214  -2.061   5.551   3.672  3.2469 -1.6008  2.9364
  517MOL0     H68215  -2.043   5.702   3.578 -1.0902 -4.0000 -0.9614
  517MOL0     H68216  -2.180   5.691   3.851  3.8663 -0.2260  0.7358
  517MOL0     H68217  -2.154   5.838   3.753  1.0716  0.1998  1.3109
  517MOL0     H68218  -2.314   5.580   3.692 -0.9913 -0.1584 -3.0971
  517MOL0     H68219  -2.295   5.707   3.568 -2.6909 -0.4535 -0.3925
  517MOL0     H68220  -2.389   5.878   3.697 -0.3264 -0.2417 -1.7903
  517MOL0     H68221  -2.448   5.761   3.832 -2.3008 -0.1805  0.2966
  517MOL0     H68222  -2.519   5.755   3.545 -0.5186 -1.2590  0.3699
  517MOL0     H68223  -2.599   5.672   3.677  2.8119 -2.1135  0.3736
  517MOL0     H68224  -2.674   5.864   3.777  0.2404  3.0228  0.1167
  517MOL0     H68225  -2.736   5.873   3.608 -0.4689  2.8954 -1.0721
  517MOL0     H68226  -1.619   5.669   4.132  0.6331  0.2339  0.9179
  517MOL0     H68227  -1.393   5.594   4.112 -0.9130 -2.3652  1.7146
  517MOL0     H68228  -1.064   5.496   3.904  1.5119  0.2783 -0.8762
  517MOL0     H68229  -0.827   5.444   3.913 -1.0091  3.0863  1.8880
  517MOL0     H68230   0.903   4.575   3.379 -1.0186  1.5471  1.4626
  517MOL0     H68231   1.128   4.515   3.257  0.6722  0.5043 -0.3451
  517MOL0     H68232   1.606   4.413   3.129 -1.1449 -0.3481 -0.4479
  517MOL0     H68233   1.800   4.467   3.015 -1.4980 -1.2904 -0.4931
  517MOL0     H68234   1.997   4.550   2.940  1.3536  0.0869 -2.4508
  517MOL0     H68235   2.030   4.648   3.074 -0.3197  1.0594  0.6203
  517MOL0     H68236   2.209   4.655   2.916 -0.3005 -1.0355 -0.1251
  517MOL0     H68237   2.110   4.691   2.777 -0.5055  2.7641 -0.3152
  517MOL0     H68238   2.061   4.916   2.878 -0.1833  0.7534  3.9136
  517MOL0     H68239   2.227   4.897   2.809 -0.5074 -0.9451 -1.6138
  517MOL0     H68240   2.151   4.858   3.105  1.2535 -2.1461  0.0159
  517MOL0     H68241   2.308   4.858   3.047  0.9904  0.4954 -0.1420
  517MOL0     H68242   2.247   5.267   3.104 -1.0957  0.3802 -0.8188
  517MOL0     H68243   1.679   4.885   3.009  2.5414  0.6010  0.7321
  517MOL0     H68244   1.485   4.823   3.122 -0.0491  0.2558  0.1357
  518MOL0     O68245   9.378   5.881   2.181 -0.3439 -0.3515  0.1523
  518MOL0     C68246   9.371   5.821   2.290  0.0338 -0.2392 -0.1116
  518MOL0     O68247   9.267   5.740   2.327  0.4721 -0.6937  0.6084
  518MOL0     C68248   9.165   5.726   2.234 -0.0047 -0.3142  0.0376
  518MOL0     C68249   9.097   5.840   2.201 -0.4920 -0.5360 -0.8019
  518MOL0     C68250   8.997   5.819   2.106 -0.3124  0.3748 -0.1024
  518MOL0     C68251   8.969   5.696   2.052 -0.5345 -0.0837 -0.3197
  518MOL0     O68252   8.865   5.683   1.965  0.2835 -0.0486 -0.8680
  518MOL0     C68253   8.890   5.761   1.843  1.0059  1.2079  0.2564
  518MOL0     C68254   8.862   5.689   1.711  0.2803  0.1668 -0.3283
  518MOL0     C68255   8.720   5.615   1.707  1.0424 -0.4728 -0.0252
  518MOL0     C68256   8.616   5.718   1.715  0.5755  0.2062 -0.7380
  518MOL0     C68257   8.482   5.653   1.685  0.3208 -0.6304 -0.4117
  518MOL0     C68258   8.378   5.759   1.655  0.0723 -0.0405  0.6391
  518MOL0     C68259   8.240   5.700   1.678 -0.0491 -0.7006  0.6315
  518MOL0     C68260   8.133   5.790   1.634 -0.0154  0.6915 -0.7649
  518MOL0     N68261   8.006   5.717   1.648 -0.6118  0.1914  0.5415
  518MOL0     C68262   7.905   5.725   1.741 -0.0725 -0.5759  0.6209
  518MOL0     C68263   7.828   5.627   1.710  0.3066  0.3744 -0.3224
  518MOL0     C68264   7.709   5.609   1.790  0.0871 -0.0291  1.0659
  518MOL0     C68265   7.681   5.461   1.811 -0.2876  0.2483 -0.3964
  518MOL0     C68266   7.571   5.427   1.915  0.9992  0.1719 -0.2425
  518MOL0     C68267   7.435   5.494   1.889  0.2277 -0.7798  0.3530
  518MOL0     O68268   7.327   5.420   1.940  0.6426  0.5016 -0.7819
  518MOL0     C68269   7.196   5.457   1.918  0.1746 -0.3765 -0.9429
  518MOL0     C68270   7.094   5.380   1.963 -0.2100 -0.0473 -0.5168
  518MOL0     C68271   6.958   5.425   1.962  0.7781 -0.6463 -0.2730
  518MOL0     C68272   6.928   5.562   1.924  0.0245  0.3644  0.0282
  518MOL0     C68273   6.794   5.621   1.934  0.3413 -0.1393  0.3142
  518MOL0     O68274   6.690   5.539   1.962 -0.8059 -0.5636 -0.4443
  518MOL0     C68275   6.567   5.595   1.953 -0.1330  0.2455  0.8946
  518MOL0     C68276   6.503   5.596   1.834 -1.1092  0.0298 -0.9016
  518MOL0     C68277   6.376   5.637   1.814  0.4916  0.4591 -0.0230
  518MOL0     C68278   6.298   5.679   1.923  0.4071  0.8681 -0.0570
  518MOL0     O68279   6.174   5.708   1.909 -0.6753 -0.2684  0.0975
  518MOL0     C68280   6.118   5.816   1.993 -0.5610 -0.3877 -0.2501
  518MOL0     C68281   5.991   5.858   1.919 -0.7987  0.2159  0.0797
  518MOL0     C68282   6.010   5.926   1.780 -0.0801  0.6356 -0.1390
  518MOL0     C68283   5.883   5.937   1.705 -0.2949 -0.0869  0.0037
  518MOL0     C68284   5.782   6.037   1.751 -0.1202  0.0259 -0.8032
  518MOL0     C68285   5.673   6.060   1.646  0.3060 -0.2613  0.2456
  518MOL0     C68286   5.563   6.149   1.702  0.5524  0.2337 -0.3403
  518MOL0     C68287   5.448   6.189   1.605 -0.0756 -0.2230  0.4951
  518MOL0    Cl68288   5.353   6.052   1.537  0.2334  0.1319  0.0876
  518MOL0     C68289   6.363   5.684   2.049 -1.1523 -0.2041  0.1955
  518MOL0     C68290   6.496   5.647   2.063 -0.4757  0.7829  0.3830
  518MOL0     O68291   6.782   5.744   1.923  0.1050 -0.5000 -0.2764
  518MOL0     C68292   7.036   5.642   1.875  0.9079  0.6023 -0.1319
  518MOL0     C68293   7.162   5.590   1.879 -0.4403  0.6334  0.2686
  518MOL0     N68294   7.860   5.566   1.598 -0.1761 -0.2507  0.7791
  518MOL0     N68295   7.967   5.621   1.561  0.1670  1.2154 -0.4814
  518MOL0     C68296   9.039   5.586   2.095 -0.9009 -0.4107  0.6621
  518MOL0     C68297   9.145   5.597   2.181 -0.3918  0.0278  1.0986
  518MOL0     C68298   9.469   5.848   2.392  0.8847 -0.5637  0.3891
  518MOL0     C68299   9.596   5.904   2.362  0.1428 -0.0255 -0.4063
  518MOL0     C68300   9.709   5.909   2.444 -0.2479  0.0567 -0.4994
  518MOL0     C68301   9.693   5.868   2.582  0.4446  0.3358 -0.3467
  518MOL0     O68302   9.806   5.872   2.660  0.0177  1.2291 -0.2235
  518MOL0     C68303   9.792   5.806   2.794 -0.2257  0.5727  0.1802
  518MOL0     C68304   9.931   5.782   2.845  0.4098 -0.2180 -0.0005
  518MOL0     C68305   9.998   5.662   2.782  0.3803 -0.2418 -0.8106
  518MOL0     C68306  10.128   5.641   2.870  1.3123 -0.0365 -1.4849
  518MOL0     C68307  10.202   5.534   2.814 -0.1708  0.5760 -0.2672
  518MOL0     C68308  10.260   5.438   2.766  0.4037  0.5893 -0.1321
  518MOL0     C68309   9.562   5.819   2.617  0.0115  0.1039 -0.2319
  518MOL0     C68310   9.454   5.810   2.526 -0.6642 -0.5862  0.5175
  518MOL0     H68311   9.123   5.933   2.252 -0.5100 -1.9025  1.8780
  518MOL0     H68312   8.941   5.907   2.074  1.6902  1.4770 -0.7153
  518MOL0     H68313   8.995   5.789   1.834  1.3140 -0.1206 -0.4869
  518MOL0     H68314   8.836   5.854   1.861 -0.0015  0.3496  1.9549
  518MOL0     H68315   8.933   5.609   1.686 -0.3695 -0.3824 -0.4433
  518MOL0     H68316   8.879   5.762   1.631  0.1294  0.1631 -0.3647
  518MOL0     H68317   8.710   5.550   1.794  1.8696  0.5115  0.8329
  518MOL0     H68318   8.731   5.556   1.616  3.4167 -1.9767  1.1375
  518MOL0     H68319   8.617   5.768   1.812  0.4054 -0.0795 -0.5860
  518MOL0     H68320   8.634   5.799   1.644  0.1528  1.2998  0.3760
  518MOL0     H68321   8.462   5.589   1.771  2.5700 -1.6763 -0.5744
  518MOL0     H68322   8.477   5.584   1.600 -4.9740 -1.2923  0.1136
  518MOL0     H68323   8.382   5.789   1.550  1.0341 -1.6038  0.1852
  518MOL0     H68324   8.386   5.845   1.722  0.0347  1.3140 -1.0512
  518MOL0     H68325   8.237   5.599   1.636  2.8949 -0.1683 -1.1030
  518MOL0     H68326   8.232   5.684   1.786  2.2900  1.0490  1.1520
  518MOL0     H68327   8.137   5.813   1.527 -2.5632 -0.4281 -1.1839
  518MOL0     H68328   8.136   5.884   1.689  0.3984 -0.0139  0.4324
  518MOL0     H68329   7.905   5.806   1.813  2.4053  1.2808 -1.2479
  518MOL0     H68330   7.640   5.659   1.721  2.5688  1.2553 -0.6388
  518MOL0     H68331   7.714   5.669   1.881 -0.7596 -0.2155  1.2380
  518MOL0     H68332   7.777   5.415   1.839  0.4090  1.4567 -0.6958
  518MOL0     H68333   7.645   5.415   1.719  0.0487 -0.0942 -0.3600
  518MOL0     H68334   7.553   5.319   1.913 -1.8106  0.5750 -1.2507
  518MOL0     H68335   7.604   5.448   2.017 -2.9884 -1.6527  1.6575
  518MOL0     H68336   7.418   5.508   1.782 -2.7054 -0.7327  0.7396
  518MOL0     H68337   7.445   5.594   1.932  1.2709 -0.9434  0.5029
  518MOL0     H68338   7.123   5.277   1.985 -0.9214 -0.9558 -3.3868
  518MOL0     H68339   6.880   5.356   1.993  0.9234  0.3401  2.6398
  518MOL0     H68340   6.565   5.571   1.748  0.3774  1.2286 -0.2179
  518MOL0     H68341   6.339   5.631   1.712 -1.2010  0.1786  0.5742
  518MOL0     H68342   6.188   5.900   2.000  0.0229 -1.0082  2.9629
  518MOL0     H68343   6.079   5.766   2.082  0.1917 -2.8432 -1.2213
  518MOL0     H68344   5.944   5.934   1.981  0.3879  0.0495  1.2153
  518MOL0     H68345   5.917   5.779   1.907  1.6051 -2.1903  0.0899
  518MOL0     H68346   6.080   5.871   1.716  0.5295  0.4483  0.6592
  518MOL0     H68347   6.044   6.028   1.801 -0.1949  0.2790  1.9890
  518MOL0     H68348   5.908   5.963   1.602 -0.6337 -3.4782 -1.0672
  518MOL0     H68349   5.821   5.847   1.703 -0.2345 -0.1264 -1.6990
  518MOL0     H68350   5.839   6.123   1.786  0.4448 -1.5672  2.5791
  518MOL0     H68351   5.747   5.998   1.847 -0.3777  1.1046 -0.4379
  518MOL0     H68352   5.639   5.959   1.625 -2.3577  0.2112  1.8852
  518MOL0     H68353   5.719   6.111   1.561  0.1727 -0.2314  0.1912
  518MOL0     H68354   5.517   6.094   1.784  0.7560  2.0441  1.0374
  518MOL0     H68355   5.602   6.237   1.754  1.2645 -1.5187  2.2942
  518MOL0     H68356   5.492   6.245   1.522 -0.5470  0.0847  0.4498
  518MOL0     H68357   5.382   6.254   1.664 -1.4314 -0.9299 -0.2186
  518MOL0     H68358   6.322   5.733   2.137  1.6732 -2.3781  2.9544
  518MOL0     H68359   6.538   5.629   2.162 -0.2471 -1.2247 -0.0424
  518MOL0     H68360   7.019   5.744   1.842  0.7686  1.7890  3.1970
  518MOL0     H68361   7.243   5.651   1.841 -0.0637  2.5676  3.7074
  518MOL0     H68362   9.005   5.489   2.058  2.1165 -0.9774 -0.9094
  518MOL0     H68363   9.199   5.509   2.215 -1.4094 -2.1566 -2.3963
  518MOL0     H68364   9.610   5.926   2.256  1.9165 -2.5733 -0.7814
  518MOL0     H68365   9.805   5.949   2.412 -1.5889  3.9084 -0.2234
  518MOL0     H68366   9.736   5.713   2.802  3.0945 -1.5046  1.6777
  518MOL0     H68367   9.750   5.882   2.861 -0.0144  3.2437 -2.5247
  518MOL0     H68368   9.985   5.873   2.817 -2.3891  1.4771 -0.3427
  518MOL0     H68369   9.930   5.779   2.955  0.4499  1.1871  0.0556
  518MOL0     H68370  10.020   5.675   2.676 -0.2557 -0.8835 -1.0241
  518MOL0     H68371   9.935   5.573   2.793  0.6537 -0.3603 -0.1138
  518MOL0     H68372  10.192   5.729   2.855  1.0475  0.7953  1.6344
  518MOL0     H68373  10.108   5.618   2.975  0.4759 -0.9300 -1.8311
  518MOL0     H68374  10.311   5.356   2.721  1.2960  1.2560 -0.3785
  518MOL0     H68375   9.530   5.795   2.718 -1.8751 -1.9528 -1.2150
  518MOL0     H68376   9.364   5.770   2.571 -0.6577  0.5985  1.6519
  519MOL0     O68377   5.812   8.716   3.653 -0.0802 -0.0381 -0.2399
  519MOL0     C68378   5.911   8.783   3.624  0.1759 -0.6491 -0.3196
  519MOL0     O68379   5.984   8.779   3.509 -0.6609 -0.1875 -0.1749
  519MOL0     C68380   5.952   8.674   3.423  0.0065  0.0733  0.8103
  519MOL0     C68381   6.009   8.549   3.448  0.2661 -0.0492  0.0225
  519MOL0     C68382   5.986   8.445   3.360  0.5432  0.6830  0.3787
  519MOL0     C68383   5.904   8.462   3.250  0.2261 -0.1108  1.2864
  519MOL0     O68384   5.877   8.370   3.150 -0.1900 -0.6392 -0.9236
  519MOL0     C68385   5.998   8.310   3.096  0.6832 -0.2360  0.4379
  519MOL0     C68386   5.953   8.216   2.979  0.5613  0.7976 -0.2798
  519MOL0     C68387   5.886   8.280   2.867 -0.6122 -0.7011  0.6376
  519MOL0     C68388   5.860   8.180   2.749 -0.2613 -0.6280  0.0204
  519MOL0     C68389   5.825   8.251   2.623 -0.1868  0.2636  0.9876
  519MOL0     C68390   5.808   8.151   2.502  1.0623  0.2339  0.1595
  519MOL0     C68391   5.770   8.234   2.381 -0.1714 -0.4308 -0.1368
  519MOL0     C68392   5.895   8.252   2.289 -0.4889 -0.5044  0.1400
  519MOL0     N68393   5.851   8.285   2.154  0.3621 -0.1564 -0.3944
  519MOL0     C68394   5.801   8.197   2.065  0.9481  0.2912 -1.0560
  519MOL0     C68395   5.751   8.270   1.961 -0.3638  0.3186 -0.1992
  519MOL0     C68396   5.667   8.211   1.846  0.5436 -0.7845 -0.1213
  519MOL0     C68397   5.539   8.134   1.891  0.1335 -0.1892  0.7253
  519MOL0     C68398   5.476   8.068   1.775  0.0900 -0.1529  0.2234
  519MOL0     C68399   5.352   8.005   1.817  0.3795 -0.0180 -0.4463
  519MOL0     O68400   5.242   8.103   1.832 -0.8772 -0.6549  0.2287
  519MOL0     C68401   5.120   8.065   1.787  0.4950 -0.8155  0.2221
  519MOL0     C68402   5.083   7.934   1.751 -0.4338  0.0166  0.2170
  519MOL0     C68403   4.948   7.920   1.707 -0.9425  0.5109 -0.5873
  519MOL0     C68404   4.859   8.027   1.699  0.6811  0.0154  0.0996
  519MOL0     C68405   4.718   8.006   1.650 -0.5503  0.1199  0.7900
  519MOL0     O68406   4.627   8.108   1.659 -0.6854 -0.1603 -0.0877
  519MOL0     C68407   4.493   8.090   1.634  0.3056 -0.2046 -0.5385
  519MOL0     C68408   4.407   8.045   1.738 -0.2319 -0.0430 -0.0718
  519MOL0     C68409   4.275   8.017   1.716 -0.2144 -0.6962 -0.8356
  519MOL0     C68410   4.213   8.039   1.596 -0.1285 -0.0670  0.3025
  519MOL0     O68411   4.080   8.006   1.582 -0.2013  0.8794  0.2309
  519MOL0     C68412   4.039   7.979   1.437  0.4875 -0.2923 -0.0348
  519MOL0     C68413   3.894   7.934   1.428 -0.0337 -0.4467  0.1322
  519MOL0     C68414   3.833   7.963   1.288 -0.4415  0.4851 -0.5081
  519MOL0     C68415   3.683   7.916   1.302 -0.5471 -0.1457 -0.4269
  519MOL0     C68416   3.585   7.972   1.203  0.8471  0.4221 -0.0371
  519MOL0     C68417   3.441   7.919   1.203 -0.3453 -0.2246 -0.0691
  519MOL0     C68418   3.363   7.954   1.071 -0.5672  1.1133 -0.0795
  519MOL0     C68419   3.216   7.960   1.072 -0.0610 -0.2992 -0.5325
  519MOL0    Cl68420   3.166   7.995   0.912  0.0427 -0.1525 -0.1780
  519MOL0     C68421   4.297   8.096   1.499  0.0627 -0.9618 -0.0110
  519MOL0     C68422   4.438   8.112   1.513  0.0302 -0.6410  0.0279
  519MOL0     O68423   4.690   7.891   1.614  0.1294 -0.0749  0.1079
  519MOL0     C68424   4.904   8.153   1.736  0.5523  0.1280  0.1762
  519MOL0     C68425   5.032   8.175   1.786 -0.1744  0.7559  0.2029
  519MOL0     N68426   5.776   8.402   1.986 -0.3820 -0.1346 -0.2648
  519MOL0     N68427   5.837   8.413   2.105 -1.2658  0.3075 -0.0148
  519MOL0     C68428   5.846   8.587   3.229 -0.1000 -0.2021 -0.6790
  519MOL0     C68429   5.867   8.695   3.309  0.6088  0.2626 -0.5357
  519MOL0     C68430   5.955   8.877   3.733  0.1263 -0.7519 -0.2017
  519MOL0     C68431   6.088   8.928   3.725 -0.4090 -0.4950 -0.2580
  519MOL0     C68432   6.141   8.997   3.838  0.4033  0.3557  0.2233
  519MOL0     C68433   6.053   9.040   3.943 -0.1727  0.6120 -0.4637
  519MOL0     O68434   6.091   9.126   4.049  0.2744 -0.7273 -0.3763
  519MOL0     C68435   6.196   9.217   4.023  0.0573  0.0938 -0.2639
  519MOL0     C68436   6.220   9.310   4.144  0.0216  0.4528 -0.3555
  519MOL0     C68437   6.291   9.249   4.263 -0.4405 -0.2955  0.0256
  519MOL0     C68438   6.289   9.352   4.379  0.2004 -0.1866  0.8349
  519MOL0     C68439   6.370   9.472   4.359  0.0524  0.0749 -0.5202
  519MOL0     C68440   6.447   9.568   4.348 -0.3051  1.0578  1.5243
  519MOL0     C68441   5.928   8.981   3.954 -0.1235 -0.4201  0.2436
  519MOL0     C68442   5.880   8.903   3.851 -0.8171  0.0068  0.7265
  519MOL0     H68443   6.076   8.538   3.533 -0.9899 -0.1190  1.0324
  519MOL0     H68444   6.016   8.343   3.383  2.3830  1.1787  0.3280
  519MOL0     H68445   6.043   8.252   3.177  1.4499 -0.0304  0.1743
  519MOL0     H68446   6.067   8.383   3.051  0.5620  0.6513  1.6444
  519MOL0     H68447   5.882   8.141   3.016  1.0946  1.0058  1.2666
  519MOL0     H68448   6.046   8.172   2.942  1.9340  1.9750  1.5882
  519MOL0     H68449   5.941   8.367   2.831 -0.0194 -2.2284 -2.5098
  519MOL0     H68450   5.791   8.315   2.909  0.6312  0.9502  2.1997
  519MOL0     H68451   5.955   8.128   2.730 -0.9949 -1.1673 -2.4895
  519MOL0     H68452   5.795   8.095   2.774 -1.3116 -0.7636 -2.8334
  519MOL0     H68453   5.899   8.321   2.584 -1.0684 -0.5820 -2.6109
  519MOL0     H68454   5.737   8.315   2.638  0.1466  1.7005 -2.3060
  519MOL0     H68455   5.725   8.084   2.530  0.9484 -0.4140 -1.6282
  519MOL0     H68456   5.899   8.091   2.498  0.1461 -1.1983  0.0722
  519MOL0     H68457   5.686   8.195   2.322 -0.9348 -1.2107  1.3930
  519MOL0     H68458   5.741   8.330   2.423  2.3605  1.9683 -3.3170
  519MOL0     H68459   5.953   8.160   2.293  0.6465 -0.1615 -3.9336
  519MOL0     H68460   5.964   8.325   2.333 -0.4734 -1.9193  2.6660
  519MOL0     H68461   5.792   8.089   2.075  1.2844  0.0868 -2.6189
  519MOL0     H68462   5.731   8.142   1.791 -0.0126 -0.0206 -1.7956
  519MOL0     H68463   5.633   8.292   1.781 -0.4235  0.1489  1.4812
  519MOL0     H68464   5.462   8.200   1.933  0.6097  1.3688 -0.7038
  519MOL0     H68465   5.572   8.064   1.968  0.9817 -2.3728 -1.4837
  519MOL0     H68466   5.457   8.134   1.690  2.4017  2.1590  1.3319
  519MOL0     H68467   5.540   7.987   1.739 -0.1110 -0.1819 -0.0680
  519MOL0     H68468   5.380   7.952   1.908  3.1419  0.7245 -0.7895
  519MOL0     H68469   5.333   7.927   1.743 -1.0174 -0.1521  0.0260
  519MOL0     H68470   5.153   7.857   1.780  0.5574  1.0007  0.5191
  519MOL0     H68471   4.915   7.822   1.675  1.4133  0.2197 -2.3812
  519MOL0     H68472   4.451   8.033   1.836  0.5733  1.4956 -0.2123
  519MOL0     H68473   4.223   7.993   1.807  0.6877 -0.8678 -0.3565
  519MOL0     H68474   4.093   7.897   1.389 -3.9444 -2.3777 -2.0181
  519MOL0     H68475   4.040   8.074   1.382  2.8309  0.9941  2.0556
  519MOL0     H68476   3.839   7.981   1.510 -0.9776 -2.1121  0.5187
  519MOL0     H68477   3.879   7.829   1.454 -3.8254  0.5573  2.8590
  519MOL0     H68478   3.886   7.922   1.201 -0.3268  2.0767 -1.2152
  519MOL0     H68479   3.827   8.071   1.276  0.5316  0.4840 -1.1088
  519MOL0     H68480   3.672   7.808   1.296 -1.2959 -0.3221  2.5320
  519MOL0     H68481   3.636   7.947   1.396 -0.6109  0.9269 -0.7904
  519MOL0     H68482   3.623   7.944   1.104 -1.2361  0.5922 -0.9269
  519MOL0     H68483   3.583   8.079   1.221 -2.1359  0.4623 -0.1100
  519MOL0     H68484   3.394   7.954   1.295 -0.0970  0.1831 -0.0973
  519MOL0     H68485   3.444   7.810   1.212  0.6703 -0.8224 -4.7113
  519MOL0     H68486   3.413   8.041   1.027  3.6551 -1.0103  0.0163
  519MOL0     H68487   3.389   7.883   0.993 -1.4008  0.3701  0.2945
  519MOL0     H68488   3.189   8.031   1.151  1.6737  0.8544 -0.9091
  519MOL0     H68489   3.169   7.869   1.110 -0.1875  0.6591  1.7500
  519MOL0     H68490   4.251   8.138   1.410  2.8515  2.5849  0.0060
  519MOL0     H68491   4.506   8.150   1.438 -0.8909 -1.7285 -1.3956
  519MOL0     H68492   4.842   8.242   1.738  0.7442  0.2590  2.0045
  519MOL0     H68493   5.065   8.277   1.802 -1.1968  0.9716  1.0963
  519MOL0     H68494   5.776   8.608   3.148 -1.2520  2.8612  0.9697
  519MOL0     H68495   5.822   8.790   3.281  1.5187  0.2863 -2.0664
  519MOL0     H68496   6.152   8.905   3.641 -0.3335  0.3067 -0.4245
  519MOL0     H68497   6.248   9.010   3.850  0.5251 -1.1842  1.1489
  519MOL0     H68498   6.164   9.282   3.941  1.8720 -0.1978 -1.2730
  519MOL0     H68499   6.293   9.174   3.995 -0.3078 -1.6598  0.9929
  519MOL0     H68500   6.282   9.391   4.104 -1.6000  0.7170 -2.5258
  519MOL0     H68501   6.127   9.356   4.177 -0.0510  0.1593 -0.1421
  519MOL0     H68502   6.396   9.223   4.245 -1.1846 -3.2612 -0.5610
  519MOL0     H68503   6.238   9.156   4.285  0.6494 -1.5062 -2.1665
  519MOL0     H68504   6.186   9.388   4.388  0.0124  0.1625 -1.8493
  519MOL0     H68505   6.320   9.298   4.468  4.5084  1.7102  0.7209
  519MOL0     H68506   6.532   9.632   4.349 -0.0091  0.6897  0.3546
  519MOL0     H68507   5.862   9.010   4.035 -0.4690  1.1575 -0.5635
  519MOL0     H68508   5.781   8.858   3.853 -1.5667  1.4150 -0.9351
  520MOL0     O68509   2.412   2.861   3.736  0.6941 -0.7347 -0.3713
  520MOL0     C68510   2.500   2.939   3.767 -0.1750 -0.3215 -0.6703
  520MOL0     O68511   2.484   3.059   3.838 -0.4179 -0.7018  0.6420
  520MOL0     C68512   2.368   3.081   3.909 -0.6302 -0.2991  0.1820
  520MOL0     C68513   2.360   3.104   4.041  1.0063 -0.1977  1.3872
  520MOL0     C68514   2.241   3.137   4.097 -0.1302  0.3844 -0.4406
  520MOL0     C68515   2.126   3.163   4.014 -0.1483  0.1330  1.3161
  520MOL0     O68516   2.018   3.211   4.062  0.5602 -0.2967 -0.0749
  520MOL0     C68517   2.015   3.352   4.090  0.1645 -0.1115  0.5078
  520MOL0     C68518   1.928   3.433   3.981 -0.2656 -0.7613  0.2050
  520MOL0     C68519   1.785   3.396   4.009  1.1298  0.6661  0.3912
  520MOL0     C68520   1.674   3.470   3.930  0.0052  0.5794 -0.1647
  520MOL0     C68521   1.547   3.408   3.981 -0.1028 -0.1218 -0.4190
  520MOL0     C68522   1.408   3.456   3.926 -0.2540 -0.2483  0.5820
  520MOL0     C68523   1.290   3.406   4.014 -0.2863 -0.0552  0.2169
  520MOL0     C68524   1.265   3.498   4.134  0.5293  0.1947 -0.9032
  520MOL0     N68525   1.157   3.430   4.207  0.1446  0.0682 -0.1217
  520MOL0     C68526   1.033   3.389   4.152 -0.6238 -0.0453 -0.2098
  520MOL0     C68527   0.976   3.326   4.262 -0.0032 -0.4064  0.2819
  520MOL0     C68528   0.849   3.241   4.262  0.6870 -0.4839  0.9413
  520MOL0     C68529   0.712   3.322   4.251  0.0621 -0.2612 -0.2450
  520MOL0     C68530   0.590   3.229   4.254 -0.0059 -0.8564  0.0533
  520MOL0     C68531   0.456   3.315   4.259 -0.7084 -0.2338 -0.7917
  520MOL0     O68532   0.444   3.395   4.369  0.2432 -0.5068  0.5729
  520MOL0     C68533   0.329   3.472   4.393 -0.7528 -0.1245  0.3499
  520MOL0     C68534   0.208   3.440   4.351  0.3280  0.4204 -0.3254
  520MOL0     C68535   0.106   3.530   4.372  0.2834  1.0750 -0.0467
  520MOL0     C68536   0.127   3.657   4.439  0.1710  0.1325  0.2241
  520MOL0     C68537   0.023   3.764   4.457 -0.8425  1.0471  0.0832
  520MOL0     O68538  -0.085   3.751   4.374 -1.1361  0.2533  0.5318
  520MOL0     C68539  -0.213   3.791   4.423  0.4800 -0.6559  0.0032
  520MOL0     C68540  -0.298   3.836   4.325  0.4410 -0.2780 -0.0816
  520MOL0     C68541  -0.438   3.855   4.354 -0.4174  0.7451  0.4618
  520MOL0     C68542  -0.490   3.831   4.477  0.6589 -0.1091 -0.8469
  520MOL0     O68543  -0.625   3.836   4.497  0.2117 -0.0889 -0.6097
  520MOL0     C68544  -0.675   3.809   4.631  0.7193  0.2836 -0.0565
  520MOL0     C68545  -0.828   3.842   4.637  0.5667 -0.3114 -0.0793
  520MOL0     C68546  -0.855   3.984   4.584  0.0425 -0.3076  0.5414
  520MOL0     C68547  -0.997   4.018   4.589  0.1864  0.5567  0.0311
  520MOL0     C68548  -1.022   4.167   4.565 -0.6748 -0.2674 -0.9537
  520MOL0     C68549  -1.169   4.205   4.527 -0.5754  0.2287  1.1127
  520MOL0     C68550  -1.178   4.364   4.521  0.9184  0.3740  0.3919
  520MOL0     C68551  -1.324   4.415   4.490  0.0934  0.0399  0.4138
  520MOL0    Cl68552  -1.428   4.391   4.627  0.0981  0.0008  0.1787
  520MOL0     C68553  -0.397   3.785   4.578  0.0364 -0.8030  0.4239
  520MOL0     C68554  -0.261   3.762   4.552 -0.3114  0.0082  0.9475
  520MOL0     O68555   0.022   3.847   4.542  0.0324  0.3155  0.4302
  520MOL0     C68556   0.256   3.682   4.485  0.8707  0.0283 -0.2333
  520MOL0     C68557   0.349   3.577   4.480  0.6840  0.0432  0.8111
  520MOL0     N68558   1.067   3.320   4.373  0.7892 -0.2484  0.2880
  520MOL0     N68559   1.169   3.394   4.338 -0.8624 -0.3519  0.9880
  520MOL0     C68560   2.140   3.138   3.874  0.9097  0.4368 -0.5208
  520MOL0     C68561   2.266   3.102   3.824  0.5911  0.2941 -0.2458
  520MOL0     C68562   2.642   2.910   3.736 -0.1303 -0.7119 -0.4288
  520MOL0     C68563   2.747   2.977   3.799  0.4165 -0.0180  0.0324
  520MOL0     C68564   2.882   2.937   3.767 -0.6548  0.8822 -0.6832
  520MOL0     C68565   2.904   2.831   3.668  0.2082 -0.0672 -1.2711
  520MOL0     O68566   3.028   2.770   3.647 -0.8623  0.3007  0.0640
  520MOL0     C68567   3.143   2.800   3.729 -1.0064 -0.4951  0.4089
  520MOL0     C68568   3.257   2.704   3.692 -0.0623  0.2315  0.1766
  520MOL0     C68569   3.227   2.552   3.703  0.0855  1.0588  0.3556
  520MOL0     C68570   3.341   2.451   3.698 -0.1741 -0.4301  0.7007
  520MOL0     C68571   3.457   2.493   3.781  0.2649 -0.0165 -0.4347
  520MOL0     C68572   3.559   2.509   3.842 -0.6428  0.9227 -0.4410
  520MOL0     C68573   2.795   2.772   3.618 -0.6442  0.0891 -0.7453
  520MOL0     C68574   2.668   2.810   3.645 -0.7596  0.1965  0.5997
  520MOL0     H68575   2.454   3.091   4.094 -0.5116 -1.6136  4.0054
  520MOL0     H68576   2.230   3.149   4.205 -3.2187 -0.2971 -0.5858
  520MOL0     H68577   2.114   3.399   4.085 -0.0263  0.5023  1.9237
  520MOL0     H68578   1.974   3.361   4.191  0.3212  0.7467  0.5071
  520MOL0     H68579   1.963   3.406   3.881  3.0708 -1.6568  1.4915
  520MOL0     H68580   1.951   3.540   3.985  3.1776 -1.2504 -2.5737
  520MOL0     H68581   1.762   3.422   4.112  0.1114 -1.1915  0.6730
  520MOL0     H68582   1.774   3.289   3.990 -1.2818  1.2111 -1.9961
  520MOL0     H68583   1.670   3.579   3.939 -1.3796  0.6726 -1.6042
  520MOL0     H68584   1.683   3.454   3.823  1.9701 -4.1161  0.4577
  520MOL0     H68585   1.551   3.419   4.090  2.5977  2.0817 -0.6276
  520MOL0     H68586   1.553   3.300   3.966  1.8824 -0.2954  1.2056
  520MOL0     H68587   1.406   3.430   3.820  0.3847  1.6924  0.0634
  520MOL0     H68588   1.408   3.565   3.926 -0.8980 -0.2422  0.9888
  520MOL0     H68589   1.201   3.407   3.950  0.3723  2.5746 -0.7784
  520MOL0     H68590   1.310   3.303   4.045  0.1081 -0.7227 -2.0483
  520MOL0     H68591   1.225   3.596   4.108 -0.8507 -0.3888 -1.0765
  520MOL0     H68592   1.349   3.508   4.204 -2.3468  2.2077  2.5620
  520MOL0     H68593   1.011   3.403   4.047  1.8207 -0.7277 -0.8872
  520MOL0     H68594   0.850   3.180   4.352  2.6361 -3.5925 -0.9647
  520MOL0     H68595   0.857   3.168   4.181  1.1910  2.8793 -2.3401
  520MOL0     H68596   0.717   3.382   4.160  3.0712  1.6851  1.0365
  520MOL0     H68597   0.720   3.394   4.334  2.2521  2.2036 -2.4207
  520MOL0     H68598   0.595   3.170   4.162 -0.7933 -1.3653  0.3339
  520MOL0     H68599   0.594   3.161   4.340  3.4799 -1.1161 -0.1664
  520MOL0     H68600   0.380   3.237   4.262 -1.1869  0.2642  0.7774
  520MOL0     H68601   0.440   3.385   4.177 -4.9124  0.4912  0.4172
  520MOL0     H68602   0.192   3.355   4.285  1.1891  1.8679 -2.4965
  520MOL0     H68603   0.008   3.505   4.333  0.8965 -1.9913  0.1276
  520MOL0     H68604  -0.258   3.846   4.225  0.3465  0.8471 -0.0134
  520MOL0     H68605  -0.502   3.895   4.276  1.8147 -2.2732 -3.2464
  520MOL0     H68606  -0.621   3.871   4.703 -2.4939  3.3605 -0.0462
  520MOL0     H68607  -0.667   3.702   4.652  1.0876 -0.3344 -2.9238
  520MOL0     H68608  -0.875   3.815   4.732 -2.0733 -2.1499 -1.7701
  520MOL0     H68609  -0.878   3.783   4.560  2.8421 -0.4088 -1.5706
  520MOL0     H68610  -0.811   3.998   4.485  1.1790 -1.2730  0.8810
  520MOL0     H68611  -0.804   4.055   4.651  0.2427  1.8779 -1.7840
  520MOL0     H68612  -1.054   3.967   4.510  0.4719 -0.9606  0.7828
  520MOL0     H68613  -1.044   4.000   4.686  2.1576  2.2787  1.3807
  520MOL0     H68614  -0.945   4.205   4.497  1.6577 -1.0286  1.1308
  520MOL0     H68615  -1.000   4.218   4.659 -0.7736 -1.1393 -0.4501
  520MOL0     H68616  -1.240   4.155   4.594 -0.2998  1.9910  2.8166
  520MOL0     H68617  -1.178   4.162   4.427 -0.6076 -2.2581  2.1193
  520MOL0     H68618  -1.144   4.405   4.616 -1.5842 -0.3723  1.6824
  520MOL0     H68619  -1.115   4.403   4.440 -0.0443  0.9480 -0.1045
  520MOL0     H68620  -1.364   4.359   4.406  1.3772  1.8467 -1.4978
  520MOL0     H68621  -1.321   4.521   4.463  3.8377  0.6544  2.5238
  520MOL0     H68622  -0.426   3.770   4.681  0.7174  2.4005  1.1983
  520MOL0     H68623  -0.184   3.741   4.625  2.3190  1.6220 -1.1674
  520MOL0     H68624   0.278   3.765   4.551 -0.6470 -0.3434  0.8039
  520MOL0     H68625   0.437   3.590   4.541  0.7366 -0.1780  0.7852
  520MOL0     H68626   2.056   3.146   3.805 -0.7021  0.3983  1.3532
  520MOL0     H68627   2.269   3.078   3.718 -1.9238  1.6681 -0.7129
  520MOL0     H68628   2.736   3.053   3.875 -1.9878 -2.0506  1.8864
  520MOL0     H68629   2.970   2.974   3.819  0.9735 -1.0352 -1.8954
  520MOL0     H68630   3.135   2.798   3.838  0.7467  1.6870  0.6355
  520MOL0     H68631   3.174   2.901   3.704 -0.3652  0.3169  3.9978
  520MOL0     H68632   3.302   2.727   3.595  2.2201 -0.1822  1.0655
  520MOL0     H68633   3.333   2.725   3.767  0.1048 -1.8807  0.6547
  520MOL0     H68634   3.164   2.529   3.617  0.5208 -0.8031  0.4934
  520MOL0     H68635   3.174   2.536   3.797  1.4964 -0.0840  1.0096
  520MOL0     H68636   3.311   2.353   3.734 -0.4611 -0.3473  0.6839
  520MOL0     H68637   3.363   2.445   3.591 -1.8527  2.5332  0.0829
  520MOL0     H68638   3.656   2.519   3.885  0.5437  1.2646 -2.9767
  520MOL0     H68639   2.813   2.695   3.544  2.0595 -0.3582  0.2617
  520MOL0     H68640   2.591   2.762   3.586 -1.6811  1.4183  0.7612
  521MOL0     O68641   8.073   2.036   3.297  0.5971  0.3029 -0.1143
  521MOL0     C68642   8.098   1.998   3.185 -1.1881 -0.0993  0.1084
  521MOL0     O68643   8.008   1.977   3.077 -0.2914 -0.2155  0.0153
  521MOL0     C68644   7.879   2.014   3.107  0.5530 -0.4907  0.1174
  521MOL0     C68645   7.849   2.152   3.094 -0.2978  0.6380  0.2999
  521MOL0     C68646   7.717   2.195   3.127  0.3522 -0.4012  0.1434
  521MOL0     C68647   7.620   2.102   3.170 -0.2853 -0.4719 -0.3675
  521MOL0     O68648   7.489   2.130   3.200  0.7783 -0.8120  0.3831
  521MOL0     C68649   7.448   2.268   3.176  0.0319 -0.0164  0.2518
  521MOL0     C68650   7.303   2.291   3.220 -0.2029 -0.1162  0.2296
  521MOL0     C68651   7.209   2.209   3.135  0.3801 -0.2269  0.7750
  521MOL0     C68652   7.061   2.254   3.138 -0.5154 -0.0378 -0.2468
  521MOL0     C68653   7.006   2.197   3.264  0.3870  0.3915  0.2557
  521MOL0     C68654   6.860   2.248   3.288  0.3262 -0.3326 -0.0915
  521MOL0     C68655   6.836   2.255   3.442 -0.0958  0.1478 -0.6315
  521MOL0     C68656   6.695   2.275   3.486  0.0374  1.1093  0.1143
  521MOL0     N68657   6.623   2.151   3.496  0.5595  0.8020 -0.5287
  521MOL0     C68658   6.504   2.146   3.560  0.2699  0.0484  0.1174
  521MOL0     C68659   6.459   2.021   3.550  0.0730 -0.2027 -0.3979
  521MOL0     C68660   6.339   1.978   3.613 -0.0500  0.2348 -0.6105
  521MOL0     C68661   6.363   1.911   3.757  0.3387  0.1678  0.0129
  521MOL0     C68662   6.237   1.865   3.835 -0.1821  0.6839  0.5057
  521MOL0     C68663   6.133   1.802   3.747  0.1362  0.1945 -0.3994
  521MOL0     O68664   6.049   1.723   3.832 -0.0347 -0.0918  0.5998
  521MOL0     C68665   5.919   1.746   3.813  0.1273  0.0154 -0.5169
  521MOL0     C68666   5.867   1.875   3.838 -0.5930  0.2757  0.3886
  521MOL0     C68667   5.734   1.905   3.811 -0.3533  0.0775 -1.0225
  521MOL0     C68668   5.653   1.814   3.741  0.6098  0.1888 -0.1492
  521MOL0     C68669   5.510   1.854   3.714  0.2460  0.1490 -0.2514
  521MOL0     O68670   5.425   1.748   3.703  0.6086  0.3879  0.1962
  521MOL0     C68671   5.297   1.776   3.662  0.3030 -0.0129  0.3919
  521MOL0     C68672   5.247   1.712   3.555 -0.9945  0.4527  0.1512
  521MOL0     C68673   5.109   1.730   3.516 -0.1218 -0.4761 -1.0505
  521MOL0     C68674   5.029   1.813   3.587 -0.1304 -0.5123  0.4092
  521MOL0     O68675   4.897   1.819   3.553 -0.6420  0.4065 -0.5302
  521MOL0     C68676   4.809   1.900   3.630  0.5433 -0.1049  0.3726
  521MOL0     C68677   4.668   1.878   3.593  0.2652 -0.4721  0.0306
  521MOL0     C68678   4.609   1.737   3.602 -0.0626  0.1335 -0.5566
  521MOL0     C68679   4.462   1.734   3.548  0.5102 -0.0945 -0.3651
  521MOL0     C68680   4.400   1.591   3.558 -0.1260  0.5529  0.2627
  521MOL0     C68681   4.273   1.570   3.473  0.9598  0.0941 -0.6322
  521MOL0     C68682   4.201   1.437   3.485 -0.6327  1.4739 -0.2471
  521MOL0     C68683   4.205   1.359   3.622  0.1258 -0.5668 -0.3629
  521MOL0    Cl68684   4.076   1.231   3.637  0.2786 -0.3299 -0.0795
  521MOL0     C68685   5.079   1.878   3.698  0.5166 -0.1464 -0.0943
  521MOL0     C68686   5.213   1.852   3.742  0.3273 -0.6745  1.3684
  521MOL0     O68687   5.479   1.972   3.691 -0.3939  0.4169 -0.4251
  521MOL0     C68688   5.707   1.686   3.720  0.7520 -0.7881 -0.5295
  521MOL0     C68689   5.835   1.656   3.747 -0.8367  0.0482 -1.1717
  521MOL0     N68690   6.557   1.943   3.488 -1.0307  0.1471 -0.2156
  521MOL0     N68691   6.645   2.028   3.441  0.4249  0.5422  0.0538
  521MOL0     C68692   7.652   1.968   3.168  0.5686  0.0486 -0.5279
  521MOL0     C68693   7.774   1.928   3.135 -0.1774 -0.2720  0.2584
  521MOL0     C68694   8.244   1.985   3.143 -0.3467 -0.2532 -0.4603
  521MOL0     C68695   8.352   2.042   3.208 -0.2774 -0.6185 -1.1697
  521MOL0     C68696   8.483   2.031   3.151  0.0502  0.4166  0.1217
  521MOL0     C68697   8.509   1.965   3.026 -0.5387  0.1690  0.3143
  521MOL0     O68698   8.642   1.959   2.995  0.5032 -0.9824 -0.0196
  521MOL0     C68699   8.669   1.884   2.879 -0.4707 -0.5937  0.1648
  521MOL0     C68700   8.814   1.861   2.844 -0.1101  1.2178  0.6102
  521MOL0     C68701   8.900   1.976   2.809 -0.6947  0.2757  0.4186
  521MOL0     C68702   9.026   1.934   2.742 -0.3256 -0.3782  0.0766
  521MOL0     C68703   9.102   1.845   2.827 -0.7502  0.6691 -0.4854
  521MOL0     C68704   9.167   1.750   2.874  0.2312  1.2722 -0.0957
  521MOL0     C68705   8.399   1.903   2.965  0.2203  0.7023  0.3239
  521MOL0     C68706   8.277   1.913   3.031 -0.4962  0.0526  0.1258
  521MOL0     H68707   7.927   2.226   3.076  1.5791 -1.1872  0.5794
  521MOL0     H68708   7.691   2.300   3.113  0.8676 -0.1707  0.8404
  521MOL0     H68709   7.462   2.285   3.069 -1.2557 -2.1377 -0.3242
  521MOL0     H68710   7.503   2.333   3.245 -0.0542 -2.8109  3.2242
  521MOL0     H68711   7.284   2.399   3.212  0.3371 -0.0169  0.2737
  521MOL0     H68712   7.284   2.268   3.325  2.3672 -0.9409  0.5917
  521MOL0     H68713   7.210   2.102   3.156 -5.3422 -0.5204  0.9895
  521MOL0     H68714   7.235   2.218   3.029 -1.6023  0.8194  0.3332
  521MOL0     H68715   7.049   2.363   3.137  0.9418  0.1421 -1.0902
  521MOL0     H68716   7.013   2.202   3.055  1.9896 -2.5009 -0.3156
  521MOL0     H68717   7.074   2.239   3.339  4.1461 -2.1373 -1.4277
  521MOL0     H68718   7.020   2.088   3.263  3.0598  0.6561 -1.6737
  521MOL0     H68719   6.790   2.178   3.242  1.3349 -1.0149 -0.6383
  521MOL0     H68720   6.834   2.341   3.237 -0.4022 -1.1163 -1.1946
  521MOL0     H68721   6.873   2.158   3.478 -0.5542 -0.6606 -2.2609
  521MOL0     H68722   6.900   2.336   3.479 -0.4927  0.3986 -0.4949
  521MOL0     H68723   6.639   2.333   3.412 -0.0866  2.0874  0.9485
  521MOL0     H68724   6.688   2.335   3.577 -1.0322 -0.5123  1.1554
  521MOL0     H68725   6.454   2.230   3.607 -0.7566 -0.9606  0.8945
  521MOL0     H68726   6.302   1.896   3.550 -0.6814 -0.9078  1.1557
  521MOL0     H68727   6.276   2.065   3.627  1.9534  1.5351  0.9123
  521MOL0     H68728   6.425   1.975   3.821  0.6543 -1.5374  1.4981
  521MOL0     H68729   6.423   1.822   3.734 -1.8970 -1.3540 -0.2404
  521MOL0     H68730   6.268   1.791   3.908  2.3289  0.2039 -0.9409
  521MOL0     H68731   6.197   1.956   3.880 -0.3761  1.1007 -0.4864
  521MOL0     H68732   6.174   1.736   3.670 -0.0779  1.0121 -1.2411
  521MOL0     H68733   6.085   1.881   3.687  2.3928  1.4295 -0.6821
  521MOL0     H68734   5.934   1.951   3.877 -1.3846  1.6005 -0.7733
  521MOL0     H68735   5.691   1.999   3.843 -2.3144 -1.4361  1.0665
  521MOL0     H68736   5.298   1.633   3.501 -1.6014 -0.6927  1.2007
  521MOL0     H68737   5.069   1.688   3.425 -1.6713 -1.5901  0.0771
  521MOL0     H68738   4.827   2.007   3.613  0.1101  0.4768  3.0684
  521MOL0     H68739   4.817   1.872   3.735  1.8997 -2.4496 -0.2809
  521MOL0     H68740   4.660   1.906   3.487 -0.6878 -0.0567  0.2057
  521MOL0     H68741   4.616   1.945   3.662  1.3146 -0.3857  0.7552
  521MOL0     H68742   4.596   1.709   3.707 -1.7718  2.6186 -0.0021
  521MOL0     H68743   4.680   1.673   3.548  0.1411  0.9146 -1.2342
  521MOL0     H68744   4.397   1.804   3.600 -1.3962 -2.1650  0.2080
  521MOL0     H68745   4.471   1.763   3.443 -0.3808 -1.7237 -0.9208
  521MOL0     H68746   4.377   1.575   3.664  0.2389  0.0671  0.2712
  521MOL0     H68747   4.479   1.522   3.527 -0.1649  0.3203  0.6765
  521MOL0     H68748   4.288   1.595   3.367  2.7798  0.8677 -0.2332
  521MOL0     H68749   4.202   1.643   3.514 -2.4489 -2.6663 -1.1506
  521MOL0     H68750   4.097   1.455   3.460 -1.0902  1.2209  1.3442
  521MOL0     H68751   4.258   1.374   3.416 -0.9437 -1.2709  1.7798
  521MOL0     H68752   4.186   1.438   3.695  1.4897 -1.7784  1.3697
  521MOL0     H68753   4.305   1.321   3.643  1.0915  2.0335  0.1516
  521MOL0     H68754   5.017   1.942   3.760  0.8415 -2.1384  2.4641
  521MOL0     H68755   5.244   1.907   3.830 -2.2673  0.2710  1.7992
  521MOL0     H68756   5.636   1.607   3.699 -0.2574 -0.4631  1.4191
  521MOL0     H68757   5.877   1.560   3.720 -0.9068 -0.5542  0.6599
  521MOL0     H68758   7.581   1.887   3.180 -1.5198  1.7601 -0.6368
  521MOL0     H68759   7.808   1.826   3.124 -0.2847 -0.3220  0.3860
  521MOL0     H68760   8.352   2.077   3.311 -0.6376  0.7737 -1.6350
  521MOL0     H68761   8.569   2.064   3.208  0.1307  0.9329 -0.2909
  521MOL0     H68762   8.621   1.939   2.797 -2.6143 -0.4508  1.4314
  521MOL0     H68763   8.617   1.787   2.884 -2.3698  0.3645  4.5560
  521MOL0     H68764   8.864   1.798   2.918  1.1339  1.7956  0.2939
  521MOL0     H68765   8.815   1.799   2.754  1.8655  2.3697 -0.2407
  521MOL0     H68766   8.928   2.040   2.892  0.2603  1.3265 -0.6773
  521MOL0     H68767   8.838   2.044   2.750 -2.5851 -0.5252  1.4070
  521MOL0     H68768   9.016   1.892   2.641 -1.6419 -2.3434  0.9637
  521MOL0     H68769   9.076   2.030   2.728 -2.5642  0.8323 -0.1944
  521MOL0     H68770   9.213   1.660   2.911 -0.4696  0.3582 -1.3909
  521MOL0     H68771   8.391   1.828   2.886  0.7209 -0.0519  0.9682
  521MOL0     H68772   8.208   1.851   2.974 -1.6050  1.2860  0.0671
  522MOL0     O68773   9.782   8.472  10.999 -0.3902 -0.0378  0.5927
  522MOL0     C68774   9.813   8.360  11.018 -0.0791  0.0334  0.2744
  522MOL0     O68775   9.724   8.255  11.020  0.4128  0.1097  0.2035
  522MOL0     C68776   9.596   8.297  11.008  1.2848 -0.1764 -0.1907
  522MOL0     C68777   9.522   8.346  11.107 -0.0135  0.2180  0.2208
  522MOL0     C68778   9.401   8.410  11.087 -0.5155  0.1127 -0.6717
  522MOL0     C68779   9.329   8.402  10.973  0.2785  0.2529  0.1409
  522MOL0     O68780   9.200   8.449  10.970 -0.1163  0.7709  0.0274
  522MOL0     C68781   9.128   8.422  10.843 -0.6253 -0.2484 -0.3038
  522MOL0     C68782   8.973   8.451  10.853 -0.1995 -0.4356  0.1187
  522MOL0     C68783   8.947   8.599  10.849 -0.6152 -0.0023 -0.1261
  522MOL0     C68784   8.804   8.650  10.836  0.4826  0.2346 -0.1258
  522MOL0     C68785   8.709   8.581  10.927 -0.1212 -0.1188 -0.6035
  522MOL0     C68786   8.561   8.641  10.925  0.2085  1.2112 -0.0038
  522MOL0     C68787   8.563   8.780  10.987  0.2456 -0.5731 -0.2614
  522MOL0     C68788   8.420   8.823  11.046 -0.6443 -1.0709 -0.0047
  522MOL0     N68789   8.329   8.853  10.937 -0.3823 -0.3252  0.2847
  522MOL0     C68790   8.204   8.795  10.913 -0.1117  1.0207 -0.5451
  522MOL0     C68791   8.166   8.875  10.810  0.1561  0.4810  0.6435
  522MOL0     C68792   8.036   8.879  10.724 -0.9558  1.2059 -0.0338
  522MOL0     C68793   7.906   8.901  10.802  0.5779 -0.1738 -0.6222
  522MOL0     C68794   7.907   9.036  10.861 -1.0239  0.0810  0.3944
  522MOL0     C68795   7.774   9.090  10.912  0.0816  0.2568 -0.1599
  522MOL0     O68796   7.716   9.006  11.016 -0.4902  0.5725 -0.2219
  522MOL0     C68797   7.581   9.011  11.031  0.2276 -0.4670 -0.5127
  522MOL0     C68798   7.501   8.904  11.079 -0.9825 -0.0376 -0.8122
  522MOL0     C68799   7.360   8.918  11.079  0.0596  0.0217  0.3892
  522MOL0     C68800   7.289   9.033  11.044 -0.2531  0.1901 -0.4838
  522MOL0     C68801   7.144   9.049  11.053 -0.1846  0.1215  0.1533
  522MOL0     O68802   7.109   9.179  11.020 -0.2269 -0.4076  0.8654
  522MOL0     C68803   7.012   9.204  10.920 -0.0907 -0.1096 -0.3576
  522MOL0     C68804   6.878   9.200  10.958 -0.3883 -0.0774  0.7287
  522MOL0     C68805   6.781   9.250  10.866  0.4142 -0.2640  0.1303
  522MOL0     C68806   6.824   9.282  10.735  0.0876 -0.0806 -0.4375
  522MOL0     O68807   6.736   9.323  10.629  0.1954  0.2639 -0.3064
  522MOL0     C68808   6.589   9.302  10.643 -0.0761 -0.4846 -0.6163
  522MOL0     C68809   6.513   9.350  10.527  0.7019  0.8703 -0.1741
  522MOL0     C68810   6.369   9.382  10.552 -0.6532 -0.3580 -0.2768
  522MOL0     C68811   6.284   9.264  10.584  0.0405  0.1362 -0.3261
  522MOL0     C68812   6.137   9.314  10.600 -0.2458 -0.4692 -1.3137
  522MOL0     C68813   6.078   9.371  10.473 -0.2264 -0.0645  0.2272
  522MOL0     C68814   5.928   9.381  10.481 -0.2677  0.4696  0.2539
  522MOL0     C68815   5.875   9.451  10.607 -0.6244  0.0792 -0.2614
  522MOL0    Cl68816   5.872   9.632  10.588  0.3671  0.0492 -0.0272
  522MOL0     C68817   6.961   9.293  10.702  0.4374 -0.5339 -0.1891
  522MOL0     C68818   7.050   9.263  10.800 -0.1878 -0.6352 -0.7154
  522MOL0     O68819   7.071   8.951  11.057 -0.4605  0.3898 -0.0796
  522MOL0     C68820   7.372   9.143  11.004  0.5695 -0.1048 -0.6084
  522MOL0     C68821   7.508   9.126  10.996 -0.4337 -0.9734 -0.1329
  522MOL0     N68822   8.267   8.964  10.770 -0.2481 -0.4692 -0.5914
  522MOL0     N68823   8.354   8.966  10.860 -0.5909 -0.0286 -0.3656
  522MOL0     C68824   9.400   8.335  10.864 -1.2577 -0.7841  0.3036
  522MOL0     C68825   9.531   8.288  10.885  0.4376 -0.1053  0.0687
  522MOL0     C68826   9.964   8.333  11.032  0.4624 -0.3327  0.4190
  522MOL0     C68827  10.056   8.440  11.056  0.5800 -0.3059  0.8648
  522MOL0     C68828  10.194   8.423  11.063 -0.0685  0.2939  0.0030
  522MOL0     C68829  10.249   8.294  11.068 -0.2961 -0.2770 -0.5850
  522MOL0     O68830  10.381   8.271  11.094 -0.0008 -0.0376 -1.1549
  522MOL0     C68831  10.440   8.175  11.011  0.5008  0.0986 -0.1636
  522MOL0     C68832  10.589   8.181  11.025  0.6224  0.6364  0.5794
  522MOL0     C68833  10.638   8.300  10.946  0.1416 -0.9846 -0.1511
  522MOL0     C68834  10.619   8.284  10.791 -0.5177 -0.0027 -0.4754
  522MOL0     C68835  10.722   8.366  10.729 -0.2172 -0.2407  0.2363
  522MOL0     C68836  10.820   8.438  10.700 -0.6344 -0.0187 -0.7294
  522MOL0     C68837  10.157   8.188  11.055  0.6785 -0.6613  0.2486
  522MOL0     C68838  10.022   8.208  11.041  0.5975 -0.2037  0.4291
  522MOL0     H68839   9.571   8.345  11.204  0.8951  4.0758 -0.0327
  522MOL0     H68840   9.347   8.443  11.175  0.3658 -2.6861  1.0077
  522MOL0     H68841   9.139   8.314  10.835 -0.7145 -0.1926 -1.2067
  522MOL0     H68842   9.168   8.476  10.757 -1.6482  3.1923  1.1757
  522MOL0     H68843   8.933   8.400  10.941 -2.1899  0.6985 -0.0765
  522MOL0     H68844   8.928   8.411  10.762 -0.0190 -0.6885  0.1377
  522MOL0     H68845   8.999   8.650  10.767 -0.5251 -0.6322 -0.4662
  522MOL0     H68846   8.986   8.635  10.944 -1.3615 -2.1901  1.0882
  522MOL0     H68847   8.807   8.750  10.881  2.2777 -0.1551  0.7392
  522MOL0     H68848   8.779   8.641  10.730 -0.0677 -2.7040  0.1713
  522MOL0     H68849   8.749   8.587  11.028  0.2450 -3.6940 -0.3942
  522MOL0     H68850   8.710   8.474  10.902  2.6778 -0.4073  0.4146
  522MOL0     H68851   8.493   8.575  10.980  0.9010  1.1665  0.8266
  522MOL0     H68852   8.528   8.651  10.821 -0.3051  1.0839  0.1435
  522MOL0     H68853   8.637   8.780  11.067 -0.2632 -0.6623  0.2197
  522MOL0     H68854   8.587   8.852  10.908  0.1725 -0.3238 -0.0562
  522MOL0     H68855   8.427   8.907  11.116  0.3214  0.5246 -1.8931
  522MOL0     H68856   8.365   8.746  11.100 -1.2036 -2.3326 -2.2223
  522MOL0     H68857   8.152   8.719  10.971  2.7643 -0.4261  0.3104
  522MOL0     H68858   8.020   8.777  10.689 -2.2824  1.8334 -1.3849
  522MOL0     H68859   8.039   8.940  10.634  0.3858  0.7419 -0.3171
  522MOL0     H68860   7.879   8.832  10.883 -1.6644  2.4304  1.0364
  522MOL0     H68861   7.819   8.896  10.735 -0.1844 -0.4965  0.3605
  522MOL0     H68862   7.970   9.039  10.951 -2.1227 -0.9036  1.2321
  522MOL0     H68863   7.941   9.098  10.778  3.8018 -1.0255  1.2439
  522MOL0     H68864   7.702   9.090  10.830 -2.9314 -0.5036  2.2700
  522MOL0     H68865   7.782   9.194  10.945 -1.5913  0.4480 -0.2725
  522MOL0     H68866   7.552   8.814  11.109  0.9717  1.1022 -0.5904
  522MOL0     H68867   7.299   8.836  11.117 -2.8212  1.0352 -1.7210
  522MOL0     H68868   6.844   9.171  11.057  0.1680 -2.4385  0.2758
  522MOL0     H68869   6.675   9.245  10.890  0.2987 -0.2195 -0.3553
  522MOL0     H68870   6.563   9.366  10.727  1.2271  0.3691 -0.8208
  522MOL0     H68871   6.581   9.195  10.662  1.5574 -0.2639  1.7370
  522MOL0     H68872   6.526   9.269  10.454 -0.0117  0.6293 -0.0400
  522MOL0     H68873   6.559   9.440  10.486  0.7818 -0.0317 -2.1790
  522MOL0     H68874   6.339   9.424  10.455  0.3926  1.2808  0.0671
  522MOL0     H68875   6.354   9.463  10.624 -0.8897  1.0336 -1.8294
  522MOL0     H68876   6.297   9.184  10.510  0.3544 -0.5881  0.4947
  522MOL0     H68877   6.315   9.221  10.679  0.2550 -3.4321 -1.8517
  522MOL0     H68878   6.141   9.396  10.672  1.0722  0.6895 -2.6506
  522MOL0     H68879   6.067   9.241  10.640  0.9599  0.0376  2.0260
  522MOL0     H68880   6.116   9.312  10.389 -2.3375  0.7269 -1.3754
  522MOL0     H68881   6.116   9.473  10.456  1.2107 -0.7410 -0.8219
  522MOL0     H68882   5.886   9.428  10.391 -2.5044 -1.8447 -0.0364
  522MOL0     H68883   5.885   9.280  10.480  0.5981  0.0740  1.6226
  522MOL0     H68884   5.931   9.425  10.697 -0.4980 -0.9534 -0.6221
  522MOL0     H68885   5.773   9.419  10.629 -0.0969 -0.5654  1.4168
  522MOL0     H68886   6.980   9.330  10.602 -2.0618  0.2013 -0.4621
  522MOL0     H68887   7.158   9.267  10.784 -0.1032 -0.8124 -0.1924
  522MOL0     H68888   7.341   9.243  10.975  2.1389 -0.3138 -3.3782
  522MOL0     H68889   7.568   9.210  10.962  0.5487 -0.9132  1.6088
  522MOL0     H68890   9.360   8.331  10.763 -0.8557 -0.0089  0.1038
  522MOL0     H68891   9.587   8.240  10.806  0.9840 -1.9676  1.5343
  522MOL0     H68892  10.010   8.538  11.068  1.0711  0.2332 -1.3006
  522MOL0     H68893  10.260   8.505  11.090  1.5933 -1.4253  1.5031
  522MOL0     H68894  10.401   8.179  10.909  0.9081  0.3362 -0.3119
  522MOL0     H68895  10.409   8.076  11.046 -0.3727 -0.1042 -1.4281
  522MOL0     H68896  10.629   8.186  11.127  2.4919  0.1560 -0.0837
  522MOL0     H68897  10.630   8.090  10.981  0.0753 -0.4971  2.3101
  522MOL0     H68898  10.745   8.310  10.968  0.0176  2.5565 -0.5955
  522MOL0     H68899  10.593   8.395  10.975  0.4095 -0.4527 -1.4279
  522MOL0     H68900  10.643   8.186  10.749  1.8139  0.7367 -1.0849
  522MOL0     H68901  10.516   8.302  10.761 -0.7348 -3.0983 -1.9765
  522MOL0     H68902  10.895   8.509  10.671 -0.9138  0.6775  0.2029
  522MOL0     H68903  10.188   8.088  11.084 -1.9995 -1.1503  1.6805
  522MOL0     H68904   9.958   8.121  11.030 -1.1022  1.1583 -1.1108
  523MOL0     O68905   7.968   9.491   6.813 -0.4365 -0.1341  0.2816
  523MOL0     C68906   8.009   9.603   6.792  0.4025  0.2836  0.0660
  523MOL0     O68907   7.948   9.718   6.824 -0.5301 -0.2160 -0.4619
  523MOL0     C68908   7.821   9.722   6.880 -0.1052  0.5180 -0.8323
  523MOL0     C68909   7.750   9.615   6.937 -0.5454 -0.6010 -0.1758
  523MOL0     C68910   7.612   9.633   6.976 -0.1406  0.9386 -0.6906
  523MOL0     C68911   7.552   9.756   6.972  0.2486  1.1927 -0.6958
  523MOL0     O68912   7.421   9.768   7.024 -0.1288  0.0938  0.4152
  523MOL0     C68913   7.337   9.885   6.982 -0.7215  1.0216  0.1177
  523MOL0     C68914   7.198   9.866   7.037 -0.0971  1.1346 -0.6901
  523MOL0     C68915   7.153   9.715   7.001  0.0637  0.3448  0.1387
  523MOL0     C68916   6.998   9.712   7.000 -0.1740  1.0335 -0.4934
  523MOL0     C68917   6.935   9.574   6.966  0.0400  0.3255  0.3227
  523MOL0     C68918   6.914   9.487   7.095  0.0675 -0.1534  1.2061
  523MOL0     C68919   6.820   9.550   7.205  0.8747  0.5205  0.6222
  523MOL0     C68920   6.792   9.433   7.304 -0.6765  0.3707  0.7647
  523MOL0     N68921   6.714   9.466   7.422 -0.4586 -0.0648  0.7672
  523MOL0     C68922   6.585   9.521   7.426 -0.1664 -0.0059  0.1908
  523MOL0     C68923   6.558   9.539   7.557  0.3005  0.4511 -0.9757
  523MOL0     C68924   6.435   9.606   7.607  0.2188 -0.1885 -0.0879
  523MOL0     C68925   6.318   9.516   7.591  0.3955  1.2717  0.6674
  523MOL0     C68926   6.210   9.556   7.693  0.4978  0.1749 -0.2851
  523MOL0     C68927   6.072   9.502   7.672 -1.1609 -0.7344 -0.2426
  523MOL0     O68928   5.995   9.538   7.784 -0.0078 -0.3604  0.3721
  523MOL0     C68929   5.867   9.548   7.766 -0.6999  0.5947  0.8371
  523MOL0     C68930   5.797   9.642   7.837  0.2765 -1.0516  0.7351
  523MOL0     C68931   5.665   9.669   7.818 -0.1898  0.1304 -0.0755
  523MOL0     C68932   5.584   9.576   7.749 -0.2337 -0.7615  0.5772
  523MOL0     C68933   5.440   9.578   7.776  0.7137  0.9141  0.0509
  523MOL0     O68934   5.386   9.673   7.857 -0.7496  0.0939 -0.1186
  523MOL0     C68935   5.256   9.651   7.899 -0.0146 -0.0576  0.8427
  523MOL0     C68936   5.150   9.712   7.822 -0.0717  0.5166 -0.3589
  523MOL0     C68937   5.021   9.709   7.866  0.3889 -0.0097 -0.2402
  523MOL0     C68938   4.991   9.637   7.985  0.5904  0.1250 -0.4331
  523MOL0     O68939   4.862   9.621   8.019  0.0199 -0.4618 -0.1874
  523MOL0     C68940   4.831   9.639   8.157  0.8681 -0.3553 -0.0916
  523MOL0     C68941   4.683   9.628   8.171  0.8225 -0.3203  0.9321
  523MOL0     C68942   4.608   9.742   8.097 -0.0770  0.6529 -1.1675
  523MOL0     C68943   4.458   9.715   8.102  0.3839 -0.4573 -0.2626
  523MOL0     C68944   4.384   9.838   8.055 -0.2240  0.1115 -0.2754
  523MOL0     C68945   4.229   9.827   8.058 -0.4168  0.2310 -0.1361
  523MOL0     C68946   4.162   9.783   8.187  0.4949 -0.7815 -0.1275
  523MOL0     C68947   4.010   9.791   8.173  0.3631  0.6859 -0.8295
  523MOL0    Cl68948   3.951   9.950   8.221  0.1804 -0.2470 -0.3541
  523MOL0     C68949   5.092   9.571   8.053 -0.4693  0.8565 -0.2499
  523MOL0     C68950   5.233   9.579   8.012 -0.0093  0.3804 -0.1527
  523MOL0     O68951   5.379   9.483   7.736 -0.1666  0.2302  0.0129
  523MOL0     C68952   5.653   9.470   7.685  0.2861 -0.1088  0.7614
  523MOL0     C68953   5.796   9.454   7.690 -0.0092  1.4700 -0.9358
  523MOL0     N68954   6.668   9.507   7.634  0.1963 -0.1444 -0.1693
  523MOL0     N68955   6.757   9.470   7.547 -0.3692  0.4524  0.1290
  523MOL0     C68956   7.623   9.862   6.925 -0.8136  0.0246 -0.7317
  523MOL0     C68957   7.757   9.848   6.873  0.3822  0.2220 -1.3264
  523MOL0     C68958   8.122   9.606   6.708 -0.8363 -1.3824 -0.5356
  523MOL0     C68959   8.159   9.729   6.645 -0.5981 -0.0762  0.2472
  523MOL0     C68960   8.273   9.747   6.576  0.3636  0.5241  0.2173
  523MOL0     C68961   8.364   9.641   6.560 -0.3215 -0.4097  0.6116
  523MOL0     O68962   8.465   9.678   6.465  0.3593 -0.2804 -0.2284
  523MOL0     C68963   8.558   9.573   6.435  0.3116 -0.2957  0.0125
  523MOL0     C68964   8.663   9.562   6.537 -0.3508 -0.6147 -0.1123
  523MOL0     C68965   8.795   9.502   6.485 -0.3749  0.4970 -0.1205
  523MOL0     C68966   8.894   9.488   6.604  1.0637 -0.0329 -0.6012
  523MOL0     C68967   8.861   9.378   6.698 -0.0009 -0.5227  0.1191
  523MOL0     C68968   8.821   9.305   6.780 -0.5170 -0.9347 -0.3724
  523MOL0     C68969   8.339   9.517   6.623  0.2284  0.1648 -0.1536
  523MOL0     C68970   8.211   9.496   6.686  0.8055 -0.7227 -0.0452
  523MOL0     H68971   7.778   9.510   6.938 -3.3774 -1.5075 -2.5539
  523MOL0     H68972   7.542   9.554   7.000  0.0022  0.9810 -0.1089
  523MOL0     H68973   7.333   9.896   6.874  1.5708  3.9437  0.2169
  523MOL0     H68974   7.387   9.975   7.018  1.4815  0.6445 -1.8130
  523MOL0     H68975   7.126   9.936   6.994  0.4028  1.2233 -1.3893
  523MOL0     H68976   7.210   9.880   7.145 -2.5108  0.4507 -0.2693
  523MOL0     H68977   7.193   9.640   7.069  1.6642  0.9219 -0.1234
  523MOL0     H68978   7.190   9.685   6.903 -0.3943 -5.0574  1.3162
  523MOL0     H68979   6.958   9.740   7.098  0.2095 -0.3605  0.0854
  523MOL0     H68980   6.959   9.774   6.918  2.4844 -0.4699 -3.1033
  523MOL0     H68981   7.006   9.527   6.897 -2.6728 -2.0620 -1.0072
  523MOL0     H68982   6.837   9.590   6.921  0.0514 -0.0267  0.1735
  523MOL0     H68983   7.006   9.463   7.148  1.5082  2.3338  0.0461
  523MOL0     H68984   6.861   9.399   7.059 -0.3642  0.9430 -1.0827
  523MOL0     H68985   6.873   9.630   7.257 -2.3670  2.3895  1.3105
  523MOL0     H68986   6.724   9.587   7.166 -0.1601 -0.4412  2.1411
  523MOL0     H68987   6.887   9.392   7.338 -1.1591  0.5609  2.4226
  523MOL0     H68988   6.743   9.353   7.247  1.4955 -1.0250  0.7583
  523MOL0     H68989   6.515   9.546   7.348  0.4739  3.0726  0.4825
  523MOL0     H68990   6.404   9.694   7.551  0.7557  0.9051  1.2821
  523MOL0     H68991   6.463   9.630   7.710  1.5022 -0.9579 -0.2246
  523MOL0     H68992   6.350   9.414   7.614 -1.0905  1.4155  3.7099
  523MOL0     H68993   6.268   9.527   7.494 -0.3923 -2.0333  0.5758
  523MOL0     H68994   6.246   9.516   7.789  1.3118 -0.5500 -0.8859
  523MOL0     H68995   6.202   9.665   7.698 -0.1819  0.1875 -1.4255
  523MOL0     H68996   6.082   9.393   7.676 -0.0997 -0.6278  2.6652
  523MOL0     H68997   6.022   9.541   7.583 -0.3770  0.4428 -0.1873
  523MOL0     H68998   5.848   9.704   7.910 -2.5983  0.9131  1.2245
  523MOL0     H68999   5.618   9.750   7.872 -0.6084  2.4627 -3.6068
  523MOL0     H69000   5.172   9.769   7.732 -3.5211  1.0985 -0.9841
  523MOL0     H69001   4.942   9.749   7.804 -0.7651  1.5649  2.1087
  523MOL0     H69002   4.860   9.740   8.185  0.1484 -0.7891  2.4575
  523MOL0     H69003   4.884   9.571   8.225 -0.8992  0.0719  1.7916
  523MOL0     H69004   4.659   9.625   8.278  2.6615  2.2189  1.5088
  523MOL0     H69005   4.635   9.539   8.129 -0.0695 -0.2652  1.7759
  523MOL0     H69006   4.635   9.750   7.991 -1.7675 -0.0087 -1.6854
  523MOL0     H69007   4.619   9.834   8.156 -1.4187 -0.7004  1.3416
  523MOL0     H69008   4.443   9.629   8.035  1.5270  0.3636 -1.6391
  523MOL0     H69009   4.428   9.690   8.204  1.9370 -0.2561  0.2726
  523MOL0     H69010   4.415   9.865   7.954  1.6742 -0.8253  0.0113
  523MOL0     H69011   4.409   9.919   8.125  3.4384 -0.4398 -0.7741
  523MOL0     H69012   4.190   9.755   7.986 -2.4775  0.8688  0.2649
  523MOL0     H69013   4.187   9.918   8.014  0.1871  0.7926  0.4335
  523MOL0     H69014   4.184   9.676   8.193  1.3247 -0.6093 -0.0211
  523MOL0     H69015   4.208   9.835   8.271  1.3180  1.3233 -1.7968
  523MOL0     H69016   3.969   9.714   8.239  1.3866 -1.4550 -2.5772
  523MOL0     H69017   3.974   9.773   8.072  1.9980 -0.7460 -1.2063
  523MOL0     H69018   5.070   9.504   8.135 -0.8952  0.5723 -0.5955
  523MOL0     H69019   5.305   9.520   8.069 -0.8624  0.8802  1.5277
  523MOL0     H69020   5.583   9.400   7.640 -2.2805  1.1721  2.5236
  523MOL0     H69021   5.847   9.372   7.640 -0.5690  1.8190 -2.1314
  523MOL0     H69022   7.578   9.960   6.927 -1.2496 -0.1801  0.2962
  523MOL0     H69023   7.814   9.929   6.828  1.2875  0.8648  0.8256
  523MOL0     H69024   8.096   9.816   6.662 -1.7496 -0.9293  0.4990
  523MOL0     H69025   8.306   9.839   6.531  1.6658  0.7204  1.4687
  523MOL0     H69026   8.615   9.597   6.345 -0.3400  1.8533  0.1227
  523MOL0     H69027   8.513   9.473   6.433  0.5058 -0.3708 -0.9073
  523MOL0     H69028   8.704   9.656   6.574  1.9595 -1.4462 -0.3725
  523MOL0     H69029   8.631   9.506   6.625 -0.1426 -3.0278 -1.4771
  523MOL0     H69030   8.843   9.576   6.421  2.9883 -0.8849  0.5834
  523MOL0     H69031   8.779   9.405   6.436 -1.1165  0.3789  0.3411
  523MOL0     H69032   8.982   9.461   6.544  0.5925 -0.8298 -0.9566
  523MOL0     H69033   8.910   9.583   6.655  1.6595 -1.3378  1.7520
  523MOL0     H69034   8.782   9.244   6.860 -1.1813 -1.5347 -1.1392
  523MOL0     H69035   8.408   9.437   6.599  1.2879  1.3315 -1.1405
  523MOL0     H69036   8.188   9.399   6.730  2.7611 -1.1717  0.0822
  524MOL0     O69037   5.359   6.581   4.084  0.3077 -0.3393  0.3650
  524MOL0     C69038   5.416   6.539   3.987 -0.4689  0.1808  0.3741
  524MOL0     O69039   5.358   6.478   3.881 -0.1120 -0.3090  0.7908
  524MOL0     C69040   5.226   6.429   3.875 -0.5766  0.4446 -0.5580
  524MOL0     C69041   5.125   6.437   3.978  0.5880 -0.1766 -0.1888
  524MOL0     C69042   5.004   6.377   3.964 -0.2051  0.1112 -0.3468
  524MOL0     C69043   4.971   6.307   3.845  0.3989  0.2784 -0.6293
  524MOL0     O69044   4.846   6.250   3.817 -0.3437  0.9676  0.1438
  524MOL0     C69045   4.789   6.163   3.922  0.7509 -0.2213 -0.0320
  524MOL0     C69046   4.775   6.030   3.847  0.5380 -0.0857 -0.6387
  524MOL0     C69047   4.632   5.979   3.878 -0.5127  0.1994  0.0935
  524MOL0     C69048   4.597   5.849   3.814 -0.5139 -0.5949  0.1542
  524MOL0     C69049   4.447   5.817   3.830 -0.0668  0.3488 -0.2235
  524MOL0     C69050   4.413   5.689   3.746 -0.2524 -0.6308 -0.3134
  524MOL0     C69051   4.259   5.666   3.772 -0.4775 -0.1020  0.0267
  524MOL0     C69052   4.218   5.523   3.753 -0.7558  0.3738 -1.2883
  524MOL0     N69053   4.074   5.522   3.764  0.1515  0.3595 -0.3729
  524MOL0     C69054   3.982   5.501   3.653 -0.7459  0.5999  0.0654
  524MOL0     C69055   3.864   5.502   3.715  0.8652  0.0735 -0.7873
  524MOL0     C69056   3.732   5.504   3.643  0.2299 -0.4848 -0.2411
  524MOL0     C69057   3.613   5.494   3.742  0.5371  0.0818  0.0190
  524MOL0     C69058   3.481   5.449   3.671 -0.5720  0.5083  0.2039
  524MOL0     C69059   3.369   5.468   3.780 -0.7940  0.0401 -0.6842
  524MOL0     O69060   3.244   5.456   3.715  0.1575  0.1004  0.2162
  524MOL0     C69061   3.138   5.520   3.761 -0.8752  0.3257  0.5600
  524MOL0     C69062   3.022   5.473   3.695  0.9180  0.1724  0.2039
  524MOL0     C69063   2.897   5.524   3.726 -0.6903  0.2021  0.2019
  524MOL0     C69064   2.883   5.616   3.825 -1.0322 -0.3509 -0.0643
  524MOL0     C69065   2.759   5.674   3.859  0.3343  0.4109  0.0436
  524MOL0     O69066   2.660   5.612   3.798  1.1297 -0.6904  1.3164
  524MOL0     C69067   2.525   5.632   3.838 -0.3122 -0.5065 -0.4381
  524MOL0     C69068   2.472   5.744   3.918  0.0007  0.5058  0.1922
  524MOL0     C69069   2.338   5.744   3.943  0.3407 -0.3581 -0.1855
  524MOL0     C69070   2.251   5.634   3.909 -0.0126  0.2831 -0.3667
  524MOL0     O69071   2.126   5.607   3.958 -0.7963 -0.4506  0.0457
  524MOL0     C69072   2.034   5.715   3.926  0.3244  0.0839 -0.4450
  524MOL0     C69073   1.912   5.670   3.997 -0.5439  0.0770 -0.0044
  524MOL0     C69074   1.792   5.764   3.965 -0.5335 -0.4609 -0.0338
  524MOL0     C69075   1.664   5.705   4.020  0.3615 -0.5838  0.3072
  524MOL0     C69076   1.552   5.798   3.983 -0.7689 -0.8878  0.0063
  524MOL0     C69077   1.417   5.735   4.040  0.5782 -0.3190 -0.0110
  524MOL0     C69078   1.412   5.726   4.193 -0.3534 -0.3914  0.5646
  524MOL0     C69079   1.281   5.686   4.264  0.1305 -0.2021  0.8197
  524MOL0    Cl69080   1.190   5.556   4.170 -0.1275  0.0997 -0.3077
  524MOL0     C69081   2.305   5.531   3.836 -0.6264  0.4363  0.4715
  524MOL0     C69082   2.441   5.537   3.789 -0.0189 -0.7473 -0.4777
  524MOL0     O69083   2.753   5.761   3.946  0.3999  0.2924 -0.1635
  524MOL0     C69084   2.998   5.670   3.889 -0.5813  0.9702  0.6895
  524MOL0     C69085   3.125   5.622   3.854  0.4217  0.0025 -0.3772
  524MOL0     N69086   3.882   5.501   3.849 -0.4170  0.1891 -0.3013
  524MOL0     N69087   4.005   5.507   3.880 -0.4946 -0.2168 -0.0073
  524MOL0     C69088   5.065   6.298   3.743  0.2909 -0.0154 -0.8808
  524MOL0     C69089   5.195   6.347   3.758  0.0716  0.0706 -0.7535
  524MOL0     C69090   5.563   6.540   3.981 -0.1730 -0.0292 -0.1599
  524MOL0     C69091   5.641   6.623   4.055 -0.0331  0.2265  0.9043
  524MOL0     C69092   5.784   6.625   4.038  0.1258 -0.4901 -0.1685
  524MOL0     C69093   5.844   6.538   3.940  0.9265  0.4795  0.7039
  524MOL0     O69094   5.978   6.523   3.914  0.3926  0.4792  0.2725
  524MOL0     C69095   6.061   6.623   3.956 -0.1359 -0.6734 -0.0182
  524MOL0     C69096   6.182   6.607   3.859  0.0427  0.5147  0.1020
  524MOL0     C69097   6.265   6.731   3.881  0.0728  0.8798 -0.2793
  524MOL0     C69098   6.373   6.739   3.767 -0.1925 -0.3160  0.3963
  524MOL0     C69099   6.497   6.662   3.805  1.4280 -0.0504  0.3946
  524MOL0     C69100   6.596   6.608   3.828 -0.2635  0.0489 -0.0540
  524MOL0     C69101   5.752   6.468   3.861 -0.4026  0.8665 -0.5541
  524MOL0     C69102   5.621   6.467   3.881 -0.2269 -0.1739  0.6508
  524MOL0     H69103   5.132   6.503   4.064  1.7701 -0.6401  0.0960
  524MOL0     H69104   4.929   6.388   4.042  1.2700  0.6084  1.0631
  524MOL0     H69105   4.693   6.209   3.945  2.7712  3.8570  1.2864
  524MOL0     H69106   4.844   6.160   4.016  2.3750 -2.1371 -0.9609
  524MOL0     H69107   4.847   5.954   3.881 -0.9841 -1.6801 -0.8566
  524MOL0     H69108   4.795   6.037   3.739  0.1931 -3.6280 -1.0560
  524MOL0     H69109   4.561   6.057   3.847  1.3932  1.4708 -1.3510
  524MOL0     H69110   4.623   5.960   3.985  3.1477 -2.6175  0.0983
  524MOL0     H69111   4.607   5.864   3.706  0.1133 -1.0077  0.1495
  524MOL0     H69112   4.665   5.774   3.858  0.5343  1.3716  2.0800
  524MOL0     H69113   4.385   5.895   3.784 -0.0340 -1.2543 -3.2664
  524MOL0     H69114   4.419   5.798   3.934  1.6064 -1.5298 -0.0652
  524MOL0     H69115   4.467   5.600   3.780 -1.4283 -0.7072  1.5313
  524MOL0     H69116   4.418   5.709   3.639  0.0326  0.3605 -0.1196
  524MOL0     H69117   4.241   5.683   3.879 -2.1410 -1.4072 -0.0010
  524MOL0     H69118   4.201   5.738   3.714 -1.5494  0.5285  1.7867
  524MOL0     H69119   4.266   5.459   3.827 -0.3212  0.4720 -1.4855
  524MOL0     H69120   4.248   5.492   3.652  0.9524 -0.0286 -0.6732
  524MOL0     H69121   4.016   5.491   3.550  1.8503 -0.7132  0.9590
  524MOL0     H69122   3.743   5.424   3.569 -0.5343  0.8033 -1.8301
  524MOL0     H69123   3.715   5.602   3.596  1.8668 -0.6687 -1.3007
  524MOL0     H69124   3.595   5.596   3.778 -1.6569 -0.1642 -0.2798
  524MOL0     H69125   3.642   5.422   3.819  1.8965 -1.0795 -1.4956
  524MOL0     H69126   3.470   5.510   3.580  1.2170 -0.7425 -0.9247
  524MOL0     H69127   3.489   5.344   3.642  0.7616 -0.3209  3.2173
  524MOL0     H69128   3.387   5.564   3.830 -0.9625 -1.3606  2.2834
  524MOL0     H69129   3.365   5.391   3.858 -1.8161 -1.6242 -2.3086
  524MOL0     H69130   3.021   5.395   3.620 -0.3267  1.8316 -1.6056
  524MOL0     H69131   2.815   5.479   3.670  0.9711 -1.0208 -1.3621
  524MOL0     H69132   2.536   5.830   3.937  2.2221 -1.1194  0.5443
  524MOL0     H69133   2.289   5.826   3.992 -1.0842 -0.7452 -0.9083
  524MOL0     H69134   2.006   5.720   3.821 -3.3488 -0.3299  0.3836
  524MOL0     H69135   2.058   5.819   3.953 -2.3723  0.0623  2.7354
  524MOL0     H69136   1.936   5.641   4.100  0.7511  0.5112 -0.1746
  524MOL0     H69137   1.897   5.568   3.960  0.5906 -0.1750  0.2049
  524MOL0     H69138   1.794   5.782   3.857 -1.1838  0.3299  0.0726
  524MOL0     H69139   1.813   5.860   4.013 -0.2365 -0.3417 -0.3899
  524MOL0     H69140   1.661   5.610   3.965  0.5104 -0.0879 -0.5628
  524MOL0     H69141   1.673   5.681   4.127 -1.9671 -3.3380  0.0227
  524MOL0     H69142   1.534   5.812   3.876  0.2499 -1.6862 -0.2977
  524MOL0     H69143   1.559   5.895   4.033 -1.7987 -1.5579  1.5123
  524MOL0     H69144   1.409   5.632   4.004  0.7778 -1.6690  3.4239
  524MOL0     H69145   1.328   5.791   4.011 -0.6817 -1.8359  0.7977
  524MOL0     H69146   1.492   5.660   4.230 -0.6116 -0.8392  0.3308
  524MOL0     H69147   1.441   5.824   4.232  1.0347 -0.1236 -1.0119
  524MOL0     H69148   1.214   5.773   4.261 -0.7187 -0.8192  1.3216
  524MOL0     H69149   1.298   5.660   4.369  1.9645 -0.4305  0.4968
  524MOL0     H69150   2.234   5.459   3.796 -1.1743  1.5756 -0.6761
  524MOL0     H69151   2.481   5.455   3.731 -4.1226 -3.1590 -0.2868
  524MOL0     H69152   3.004   5.745   3.967  1.0003  0.8351  0.7396
  524MOL0     H69153   3.218   5.652   3.902 -0.2410 -0.3779  1.2260
  524MOL0     H69154   5.024   6.253   3.654 -1.7423 -0.8892  0.4287
  524MOL0     H69155   5.269   6.331   3.680  2.1546  0.5390  1.0588
  524MOL0     H69156   5.590   6.684   4.129  0.5457 -0.2491  1.7119
  524MOL0     H69157   5.839   6.693   4.101 -0.7936  0.2930 -0.1782
  524MOL0     H69158   6.084   6.608   4.062 -1.2205 -0.9953  0.1852
  524MOL0     H69159   6.010   6.714   3.924 -0.4141 -1.0014 -0.5049
  524MOL0     H69160   6.224   6.513   3.896 -1.6543 -0.4779 -0.4086
  524MOL0     H69161   6.147   6.592   3.757 -3.7090 -3.4865  1.6920
  524MOL0     H69162   6.310   6.739   3.981  0.9473 -1.1837 -0.4467
  524MOL0     H69163   6.200   6.815   3.855 -1.2636 -0.2746 -0.8066
  524MOL0     H69164   6.341   6.689   3.675 -0.0541  0.1300  0.1055
  524MOL0     H69165   6.410   6.839   3.744 -0.2535 -0.8733 -2.4484
  524MOL0     H69166   6.686   6.568   3.867  0.6225  3.5249  1.9199
  524MOL0     H69167   5.798   6.408   3.783  2.4346  1.8952  0.2047
  524MOL0     H69168   5.563   6.398   3.822 -2.1069  1.0387  0.9596
  525MOL0     O69169   4.359   4.238   8.315  0.2206 -0.2525 -0.5971
  525MOL0     C69170   4.312   4.254   8.431  1.0605 -0.1036 -0.4872
  525MOL0     O69171   4.379   4.313   8.540  0.1417 -0.0243 -0.4579
  525MOL0     C69172   4.519   4.316   8.530  0.4363  0.6030 -0.5827
  525MOL0     C69173   4.581   4.391   8.432 -0.3390  0.0067 -0.0075
  525MOL0     C69174   4.723   4.387   8.423 -0.1740  0.0492  0.4439
  525MOL0     C69175   4.800   4.319   8.521  0.6174 -0.5004  1.0593
  525MOL0     O69176   4.937   4.310   8.521 -0.1747  0.5341  0.6278
  525MOL0     C69177   5.010   4.395   8.437  0.5210  0.7134 -0.6705
  525MOL0     C69178   5.015   4.542   8.486  0.0979  0.6785  0.3521
  525MOL0     C69179   5.084   4.636   8.387  0.4741  0.4652 -0.8586
  525MOL0     C69180   4.997   4.664   8.262  0.0232  0.0595 -0.4236
  525MOL0     C69181   5.060   4.783   8.187  0.1542  0.3304 -0.2167
  525MOL0     C69182   5.092   4.758   8.041  0.8068  0.1583 -0.6776
  525MOL0     C69183   5.148   4.886   7.976  0.6690 -0.0090 -0.2572
  525MOL0     C69184   5.181   4.872   7.824  0.0277 -0.1788  0.7740
  525MOL0     N69185   5.060   4.878   7.732 -0.1344 -0.5118  0.1389
  525MOL0     C69186   5.027   4.990   7.662 -0.6570  0.4394  0.9084
  525MOL0     C69187   4.925   4.943   7.586  0.0887  0.1772  0.4207
  525MOL0     C69188   4.834   5.015   7.494 -0.0990 -0.2571  0.5338
  525MOL0     C69189   4.761   5.137   7.552 -0.0915  0.5971 -0.7445
  525MOL0     C69190   4.654   5.207   7.461 -1.1563  0.1670  0.8627
  525MOL0     C69191   4.525   5.133   7.441 -0.5891 -0.2207  0.1659
  525MOL0     O69192   4.424   5.234   7.406 -0.4660 -0.0637 -0.2266
  525MOL0     C69193   4.296   5.201   7.430 -0.9792 -0.4741  0.1569
  525MOL0     C69194   4.230   5.090   7.479  0.1474  0.4458 -1.0341
  525MOL0     C69195   4.093   5.080   7.492 -0.9095 -0.1446  0.1944
  525MOL0     C69196   4.010   5.181   7.434 -0.0683  0.5174  0.1994
  525MOL0     C69197   3.867   5.157   7.419 -0.0282 -0.8452  0.7127
  525MOL0     O69198   3.818   5.070   7.505 -0.2436 -0.6252 -0.3934
  525MOL0     C69199   3.691   5.038   7.523  0.0894 -0.0591 -0.8525
  525MOL0     C69200   3.672   4.945   7.622 -0.5339  0.4142 -0.2890
  525MOL0     C69201   3.545   4.897   7.671  0.6732  0.5243  0.7037
  525MOL0     C69202   3.427   4.939   7.597  0.4296  0.5446  0.1403
  525MOL0     O69203   3.304   4.907   7.645  0.4651  0.3293 -0.2974
  525MOL0     C69204   3.285   4.817   7.754  0.1647  0.0442 -0.4604
  525MOL0     C69205   3.141   4.760   7.744  0.6268  0.8195  0.6177
  525MOL0     C69206   3.041   4.866   7.794 -0.1584 -0.6379  0.0914
  525MOL0     C69207   2.902   4.820   7.778  0.6189  0.2131  0.1891
  525MOL0     C69208   2.805   4.936   7.807  0.3119 -0.3765 -0.2348
  525MOL0     C69209   2.779   4.958   7.961 -0.2182 -0.2876  0.2899
  525MOL0     C69210   2.693   5.089   7.988  0.2264  0.2288  0.7302
  525MOL0     C69211   2.634   5.097   8.132  0.7510  0.6663 -0.0616
  525MOL0    Cl69212   2.524   4.949   8.141  0.4556  0.1924 -0.1070
  525MOL0     C69213   3.448   5.035   7.493  0.7364  0.6564  0.6588
  525MOL0     C69214   3.577   5.078   7.454 -0.4390 -0.6140  0.6041
  525MOL0     O69215   3.801   5.229   7.351 -0.4435 -0.1853  0.5616
  525MOL0     C69216   4.076   5.289   7.374  0.1981  0.3091 -0.4409
  525MOL0     C69217   4.213   5.305   7.377  0.0443 -0.3239  0.5417
  525MOL0     N69218   4.904   4.811   7.619  0.1066  0.3209 -0.4622
  525MOL0     N69219   4.987   4.774   7.701  0.2435  0.1263 -0.3293
  525MOL0     C69220   4.724   4.244   8.611 -0.5404  0.4161  0.5541
  525MOL0     C69221   4.589   4.235   8.618  0.1703  0.3073  0.1096
  525MOL0     C69222   4.177   4.195   8.463  0.9219  0.5884  1.0301
  525MOL0     C69223   4.115   4.216   8.581  0.2355  0.3785  0.1147
  525MOL0     C69224   3.996   4.152   8.614 -0.4418  0.0087  0.8405
  525MOL0     C69225   3.933   4.070   8.519 -0.2053 -0.8908 -0.4367
  525MOL0     O69226   3.811   4.023   8.559  0.6535  0.3271  0.1998
  525MOL0     C69227   3.723   3.973   8.458  0.4150 -0.1091  0.5234
  525MOL0     C69228   3.597   3.919   8.521 -0.5199  0.6906 -0.8253
  525MOL0     C69229   3.515   4.018   8.614 -0.1870 -0.0917  0.2647
  525MOL0     C69230   3.389   3.942   8.659  0.4764 -0.5504 -0.1541
  525MOL0     C69231   3.322   4.022   8.758  0.0227  0.1191 -0.2218
  525MOL0     C69232   3.275   4.093   8.843  0.2901 -0.8141 -0.1729
  525MOL0     C69233   3.993   4.041   8.401 -0.0319  0.3466  0.2441
  525MOL0     C69234   4.109   4.109   8.371 -0.5446 -0.5104  0.4525
  525MOL0     H69235   4.526   4.456   8.365 -0.8925  0.7257  1.1090
  525MOL0     H69236   4.767   4.441   8.339  0.4174 -1.1672 -0.0538
  525MOL0     H69237   4.979   4.379   8.333  0.8663 -0.9560 -0.5361
  525MOL0     H69238   5.112   4.358   8.433  0.7769  1.4316 -0.8932
  525MOL0     H69239   5.069   4.552   8.580  0.9995  1.9034 -0.2739
  525MOL0     H69240   4.912   4.575   8.508 -1.9133 -4.5714  0.1564
  525MOL0     H69241   5.173   4.586   8.349 -1.7855 -1.6156 -3.9112
  525MOL0     H69242   5.102   4.724   8.449  0.7308 -1.8482  2.6981
  525MOL0     H69243   4.992   4.579   8.193  1.3888  0.2699 -0.7933
  525MOL0     H69244   4.892   4.691   8.279 -0.0225  0.5343 -1.4173
  525MOL0     H69245   5.147   4.819   8.243  0.7149 -0.3559 -0.6323
  525MOL0     H69246   5.001   4.875   8.198 -0.3905 -0.0027 -0.3009
  525MOL0     H69247   4.991   4.738   8.002 -0.5035  0.2018  2.4143
  525MOL0     H69248   5.160   4.674   8.029  2.3981  1.3063 -0.0171
  525MOL0     H69249   5.060   4.949   7.987  1.5276  1.0412  0.9257
  525MOL0     H69250   5.231   4.937   8.026 -0.1067  2.2639 -1.1703
  525MOL0     H69251   5.236   4.779   7.809  0.3794  0.0400  0.6828
  525MOL0     H69252   5.250   4.955   7.803  0.0055 -0.1370  0.8685
  525MOL0     H69253   5.070   5.089   7.663  2.2433 -0.7170  0.5200
  525MOL0     H69254   4.762   4.950   7.443 -1.0694  1.2680 -0.1226
  525MOL0     H69255   4.903   5.055   7.419  0.4474 -0.1035  1.1127
  525MOL0     H69256   4.837   5.211   7.577 -1.3190  1.9279 -0.8416
  525MOL0     H69257   4.702   5.115   7.642 -0.4141  1.2840 -0.7815
  525MOL0     H69258   4.626   5.304   7.503 -2.6245  0.5177 -0.8300
  525MOL0     H69259   4.704   5.242   7.371 -0.8184  0.9341  1.3378
  525MOL0     H69260   4.503   5.073   7.530  1.1446 -1.0632  0.0688
  525MOL0     H69261   4.521   5.055   7.364 -2.9385  0.2402 -0.2831
  525MOL0     H69262   4.286   5.004   7.514  0.0264  1.1831  1.0987
  525MOL0     H69263   4.049   4.992   7.537  0.0115 -1.5590 -1.5293
  525MOL0     H69264   3.757   4.912   7.682 -2.4103  0.7526  2.7809
  525MOL0     H69265   3.544   4.830   7.756 -1.4120 -1.1107 -0.4960
  525MOL0     H69266   3.294   4.876   7.846 -1.6009  0.6477 -0.6322
  525MOL0     H69267   3.350   4.729   7.748 -0.2193 -0.2032 -1.0002
  525MOL0     H69268   3.146   4.670   7.805 -0.9646  1.1675  1.3017
  525MOL0     H69269   3.122   4.729   7.641 -1.4224  1.9879  0.5867
  525MOL0     H69270   3.037   4.952   7.726 -0.5119 -0.0608  0.8283
  525MOL0     H69271   3.064   4.900   7.896  2.0326  2.0489 -1.1482
  525MOL0     H69272   2.891   4.783   7.676 -1.4602 -2.9740  1.3992
  525MOL0     H69273   2.886   4.741   7.852  2.0898  1.3997  1.8778
  525MOL0     H69274   2.705   4.915   7.768 -0.3054  2.0170 -0.1248
  525MOL0     H69275   2.836   5.028   7.756  1.7042 -2.0765 -2.6649
  525MOL0     H69276   2.877   4.971   8.008  1.2693 -0.2093 -2.6371
  525MOL0     H69277   2.746   4.860   7.999  0.9976 -0.5746  0.6644
  525MOL0     H69278   2.764   5.172   7.979 -0.1465  1.0078  3.6924
  525MOL0     H69279   2.617   5.105   7.911  1.0974  1.5070  0.1135
  525MOL0     H69280   2.596   5.196   8.160  1.4085  0.6132  1.1024
  525MOL0     H69281   2.708   5.070   8.208  0.3837  0.2865  0.1652
  525MOL0     H69282   3.362   5.084   7.450  1.2952  1.4199  0.3926
  525MOL0     H69283   3.587   5.144   7.369  2.2276  0.1743  1.4560
  525MOL0     H69284   4.022   5.377   7.340  1.5569  0.6515 -1.8068
  525MOL0     H69285   4.250   5.396   7.331  0.9100 -1.0287 -0.2071
  525MOL0     H69286   4.776   4.188   8.689 -0.4704  2.1721  1.8279
  525MOL0     H69287   4.540   4.181   8.699  0.9459 -2.4592 -1.1717
  525MOL0     H69288   4.155   4.278   8.660 -1.0179  0.3271  0.8091
  525MOL0     H69289   3.947   4.154   8.712 -0.3918 -4.1596  1.1213
  525MOL0     H69290   3.766   3.882   8.416  0.0967 -0.3248  0.6644
  525MOL0     H69291   3.705   4.030   8.367  0.2963  0.1246  0.6912
  525MOL0     H69292   3.533   3.886   8.439  2.4815  0.4257 -3.2061
  525MOL0     H69293   3.622   3.826   8.572 -3.8204 -0.5503 -1.1909
  525MOL0     H69294   3.494   4.107   8.555  1.1440  1.7885  2.4421
  525MOL0     H69295   3.581   4.050   8.696  1.2679 -1.6367 -0.2390
  525MOL0     H69296   3.320   3.932   8.574  0.9777 -0.1753 -0.6160
  525MOL0     H69297   3.410   3.840   8.692 -3.6571 -1.7525 -0.6282
  525MOL0     H69298   3.221   4.142   8.922 -2.9516  0.5178 -2.9388
  525MOL0     H69299   3.939   3.982   8.328 -0.9363 -0.2833  1.3733
  525MOL0     H69300   4.144   4.101   8.268 -1.4581  1.0573 -0.0135
  526MOL0     O69301   2.329   1.634   3.441 -0.1399  0.4839 -0.3802
  526MOL0     C69302   2.301   1.747   3.397  0.5956  0.5179  0.8883
  526MOL0     O69303   2.182   1.779   3.329 -0.8377  0.1317 -0.2687
  526MOL0     C69304   2.073   1.695   3.328  0.0416 -0.1957  0.5167
  526MOL0     C69305   2.040   1.599   3.423  0.0692  0.2740 -0.6075
  526MOL0     C69306   1.930   1.519   3.403  0.7437  0.8348  0.6442
  526MOL0     C69307   1.839   1.546   3.298  0.0219 -0.2207 -0.4150
  526MOL0     O69308   1.711   1.494   3.285 -0.5393  0.1974  1.2017
  526MOL0     C69309   1.684   1.412   3.394  0.4493 -0.2442  0.0730
  526MOL0     C69310   1.548   1.344   3.372  0.1051  1.1127 -0.4409
  526MOL0     C69311   1.522   1.239   3.477 -0.5652  0.0287  0.1407
  526MOL0     C69312   1.466   1.295   3.608 -0.1509 -0.5101 -0.3672
  526MOL0     C69313   1.325   1.355   3.596  0.0867 -0.4959  0.2322
  526MOL0     C69314   1.216   1.256   3.543 -1.0268 -0.4237 -0.7195
  526MOL0     C69315   1.070   1.303   3.559 -1.1843  0.2934 -0.1144
  526MOL0     C69316   1.026   1.427   3.478 -0.0150  0.0377 -0.2209
  526MOL0     N69317   0.890   1.463   3.513  0.3742 -0.3535 -0.2248
  526MOL0     C69318   0.848   1.588   3.484  0.0745 -0.9621  0.4226
  526MOL0     C69319   0.714   1.569   3.476  0.0164  0.0639 -0.6805
  526MOL0     C69320   0.626   1.674   3.404  0.0387 -0.0151 -0.1702
  526MOL0     C69321   0.525   1.730   3.505 -0.3094 -0.6492 -0.4225
  526MOL0     C69322   0.462   1.856   3.442  0.6633 -1.1209 -0.6177
  526MOL0     C69323   0.349   1.921   3.519 -0.0618 -0.5397  0.1519
  526MOL0     O69324   0.226   1.856   3.527 -0.1171 -0.0974 -0.4210
  526MOL0     C69325   0.113   1.932   3.567 -0.9688 -0.4113  0.4503
  526MOL0     C69326   0.121   2.062   3.611  0.1296 -0.3001 -0.5499
  526MOL0     C69327   0.006   2.125   3.653  0.3098  0.3796  0.6197
  526MOL0     C69328  -0.121   2.069   3.635  0.5943  0.0974  1.4525
  526MOL0     C69329  -0.245   2.145   3.677  0.9313 -0.5716 -0.5631
  526MOL0     O69330  -0.237   2.282   3.701 -0.2062  0.7549 -0.4233
  526MOL0     C69331  -0.352   2.333   3.755 -0.4373  0.0773  0.5362
  526MOL0     C69332  -0.339   2.414   3.869 -0.0918  0.2632  0.0594
  526MOL0     C69333  -0.449   2.470   3.927  0.2953  0.0861 -0.5545
  526MOL0     C69334  -0.579   2.463   3.875  0.9035  0.6468  0.6091
  526MOL0     O69335  -0.684   2.525   3.936 -0.7791 -0.2510 -0.1949
  526MOL0     C69336  -0.782   2.588   3.851  0.3636 -0.1246 -0.0837
  526MOL0     C69337  -0.868   2.665   3.953  0.0180 -0.4995 -0.4816
  526MOL0     C69338  -0.986   2.730   3.876 -0.1518  0.0157  0.7314
  526MOL0     C69339  -1.095   2.785   3.971 -0.8151 -0.7027 -1.0497
  526MOL0     C69340  -1.189   2.883   3.899 -0.4112 -0.5369 -0.1420
  526MOL0     C69341  -1.276   2.954   4.017  0.1743  0.3518  0.3702
  526MOL0     C69342  -1.367   3.060   3.958  0.2836  0.4197  0.6991
  526MOL0     C69343  -1.432   3.150   4.061 -0.2574  0.2168  0.1654
  526MOL0    Cl69344  -1.314   3.251   4.146 -0.4648  0.1522  0.2395
  526MOL0     C69345  -0.589   2.394   3.748 -0.6318 -0.4912  0.1649
  526MOL0     C69346  -0.484   2.325   3.694 -0.7217  0.5418  0.6229
  526MOL0     O69347  -0.338   2.073   3.704 -0.7261 -0.1760  0.5708
  526MOL0     C69348  -0.128   1.939   3.598  0.1423 -0.9235  0.1808
  526MOL0     C69349  -0.008   1.874   3.559 -0.0875  0.9419 -0.3879
  526MOL0     N69350   0.677   1.445   3.520 -0.1263 -0.8081  0.2728
  526MOL0     N69351   0.787   1.380   3.545 -0.0374  0.1651 -0.1430
  526MOL0     C69352   1.877   1.628   3.201  0.3074 -1.0484 -0.7168
  526MOL0     C69353   1.993   1.708   3.214 -0.7458  0.3250  0.0477
  526MOL0     C69354   2.407   1.850   3.404 -0.3222 -0.2473 -0.2683
  526MOL0     C69355   2.393   1.983   3.346 -0.2168  0.0854  0.2427
  526MOL0     C69356   2.500   2.076   3.358  0.7004 -1.7137  0.1598
  526MOL0     C69357   2.619   2.030   3.414 -0.2602 -0.3612  0.1599
  526MOL0     O69358   2.713   2.135   3.400 -0.4395 -0.8191 -0.4325
  526MOL0     C69359   2.858   2.105   3.420  0.1252 -0.2203 -0.7058
  526MOL0     C69360   2.923   2.234   3.394 -0.1569 -0.3240 -0.4053
  526MOL0     C69361   2.924   2.318   3.523 -0.3764 -0.3222 -0.3292
  526MOL0     C69362   2.793   2.377   3.561  1.3707 -0.7043  0.0885
  526MOL0     C69363   2.732   2.457   3.460  0.9446 -0.0366  0.3995
  526MOL0     C69364   2.663   2.495   3.370 -0.1711  0.3855  0.4077
  526MOL0     C69365   2.639   1.906   3.461 -0.1041 -0.2693 -0.9514
  526MOL0     C69366   2.533   1.821   3.459  0.1842  0.0619 -0.3351
  526MOL0     H69367   2.095   1.583   3.515 -2.2661 -0.0227  0.8035
  526MOL0     H69368   1.917   1.441   3.478  1.8061 -0.9077 -0.9005
  526MOL0     H69369   1.673   1.480   3.479 -1.9815 -0.5059  0.0361
  526MOL0     H69370   1.756   1.331   3.408  0.5788 -0.1381  0.0250
  526MOL0     H69371   1.557   1.294   3.275 -1.7597  3.4627 -1.9491
  526MOL0     H69372   1.461   1.408   3.353 -0.9342 -0.9240 -3.2016
  526MOL0     H69373   1.618   1.192   3.501 -0.9970 -0.9764 -0.0538
  526MOL0     H69374   1.450   1.167   3.435 -3.6464  3.7754 -1.6584
  526MOL0     H69375   1.474   1.216   3.683 -0.1149  0.7624  1.0445
  526MOL0     H69376   1.531   1.378   3.638  1.1055 -1.5425 -0.1375
  526MOL0     H69377   1.323   1.436   3.522  0.1583  1.3527  2.1661
  526MOL0     H69378   1.302   1.392   3.696  1.0072  1.2844 -0.1734
  526MOL0     H69379   1.235   1.161   3.594 -1.0360  0.0039  0.1083
  526MOL0     H69380   1.225   1.239   3.436 -1.8134 -0.8147 -0.7259
  526MOL0     H69381   0.995   1.226   3.543  1.0804 -2.8032  2.7916
  526MOL0     H69382   1.059   1.341   3.661  0.0817  0.6906 -0.0975
  526MOL0     H69383   1.032   1.370   3.384 -0.6105 -2.6963  1.3031
  526MOL0     H69384   1.102   1.506   3.474 -0.5746  0.5732 -0.5740
  526MOL0     H69385   0.911   1.661   3.433  2.2277 -2.0397  1.3952
  526MOL0     H69386   0.574   1.635   3.316 -0.7484 -0.2837  0.4081
  526MOL0     H69387   0.698   1.750   3.371  0.3984 -0.2610  0.0373
  526MOL0     H69388   0.562   1.761   3.604 -1.4318  0.0772 -0.2139
  526MOL0     H69389   0.454   1.651   3.529 -1.8294  0.8817  0.3298
  526MOL0     H69390   0.527   1.940   3.417  0.0149 -0.2211  0.5974
  526MOL0     H69391   0.425   1.817   3.347  1.8759  1.6723 -2.3510
  526MOL0     H69392   0.346   2.019   3.470  2.2115 -1.9959 -3.3983
  526MOL0     H69393   0.375   1.938   3.624  0.3966  1.2389 -0.2190
  526MOL0     H69394   0.209   2.123   3.629 -0.5387  0.2697  0.9457
  526MOL0     H69395   0.015   2.220   3.704 -1.9300  1.2747 -0.4999
  526MOL0     H69396  -0.241   2.401   3.914  0.0348 -3.0688 -0.9026
  526MOL0     H69397  -0.436   2.534   4.013  2.7947 -0.0047 -0.8127
  526MOL0     H69398  -0.845   2.528   3.785  0.5771 -0.2436 -0.1819
  526MOL0     H69399  -0.735   2.664   3.788 -1.7561  1.6384  0.3606
  526MOL0     H69400  -0.806   2.742   4.001 -0.5374  0.1233 -0.7362
  526MOL0     H69401  -0.918   2.617   4.037  0.8978 -1.0057 -0.2442
  526MOL0     H69402  -1.034   2.657   3.811 -0.1706 -1.2563  2.1177
  526MOL0     H69403  -0.951   2.807   3.807 -0.7886 -1.0508 -0.8396
  526MOL0     H69404  -1.159   2.703   4.007 -0.8839 -0.4529 -0.5893
  526MOL0     H69405  -1.048   2.839   4.054  0.1275 -0.6393 -1.6196
  526MOL0     H69406  -1.234   2.831   3.814  1.5253 -0.2920 -1.3884
  526MOL0     H69407  -1.131   2.968   3.862  1.2372 -0.6677  1.9433
  526MOL0     H69408  -1.205   3.007   4.081  2.8974  1.7698 -3.4263
  526MOL0     H69409  -1.340   2.882   4.068 -2.7415  0.8230 -2.3604
  526MOL0     H69410  -1.311   3.127   3.892 -0.9130 -1.3424 -2.2684
  526MOL0     H69411  -1.441   3.017   3.890  0.0287  0.9853  0.6118
  526MOL0     H69412  -1.465   3.089   4.146 -0.5168  0.0936 -0.0241
  526MOL0     H69413  -1.518   3.211   4.030  0.9761  2.0518  0.1692
  526MOL0     H69414  -0.680   2.397   3.690 -1.5412 -0.2566  1.5430
  526MOL0     H69415  -0.478   2.275   3.597 -1.7758 -0.1303  0.8940
  526MOL0     H69416  -0.223   1.891   3.615 -1.3328  2.5886  3.3446
  526MOL0     H69417  -0.003   1.770   3.528  0.3814  0.2622  1.7941
  526MOL0     H69418   1.812   1.632   3.114 -1.6076  3.1863  0.6940
  526MOL0     H69419   2.015   1.786   3.141 -4.4157  2.9585  1.4814
  526MOL0     H69420   2.303   2.017   3.295  1.3152  0.7741 -2.1726
  526MOL0     H69421   2.500   2.177   3.318  2.0629 -2.2943 -1.4336
  526MOL0     H69422   2.882   2.029   3.345 -2.3133 -1.8893  0.1118
  526MOL0     H69423   2.894   2.068   3.516 -0.1832 -0.3621 -0.6451
  526MOL0     H69424   3.027   2.219   3.366  1.3348  0.5014  3.9497
  526MOL0     H69425   2.872   2.288   3.314 -0.8336  1.0655  0.8953
  526MOL0     H69426   2.996   2.399   3.521 -0.9845  0.4205  2.7887
  526MOL0     H69427   2.956   2.259   3.609  1.2237  0.6400 -0.2389
  526MOL0     H69428   2.715   2.304   3.584 -1.3616  2.4072  1.4049
  526MOL0     H69429   2.810   2.443   3.647 -0.1775 -0.8060  0.5014
  526MOL0     H69430   2.598   2.520   3.288 -0.3593 -1.0290  0.0950
  526MOL0     H69431   2.728   1.866   3.508 -1.3908 -1.7809  0.3319
  526MOL0     H69432   2.552   1.731   3.517 -3.0295 -0.0531  0.7164
  527MOL0     O69433   8.572   1.781  10.806  0.1823  0.4570 -0.0938
  527MOL0     C69434   8.526   1.668  10.804 -0.5260 -0.4638  0.6650
  527MOL0     O69435   8.422   1.619  10.728  0.1999 -0.6731 -0.0236
  527MOL0     C69436   8.348   1.687  10.632  0.2682 -0.2534 -0.9375
  527MOL0     C69437   8.385   1.814  10.579 -0.1723  0.6005  0.0871
  527MOL0     C69438   8.287   1.886  10.516 -0.6418  0.9002  0.8758
  527MOL0     C69439   8.158   1.842  10.483 -0.0791  0.1420  0.4090
  527MOL0     O69440   8.060   1.916  10.418 -0.8681  0.2051 -0.0933
  527MOL0     C69441   8.094   2.053  10.375  0.3300  0.4940 -0.2266
  527MOL0     C69442   7.973   2.133  10.328 -0.5032 -0.4682 -0.7777
  527MOL0     C69443   7.889   2.198  10.437 -0.0904 -0.1173 -0.2291
  527MOL0     C69444   7.799   2.298  10.370 -0.3911  0.5298  0.7311
  527MOL0     C69445   7.698   2.361  10.456  0.5276  0.0995  0.3432
  527MOL0     C69446   7.590   2.425  10.375 -0.1978  0.4107  0.0226
  527MOL0     C69447   7.472   2.475  10.468 -0.4045  0.1659 -0.4474
  527MOL0     C69448   7.435   2.626  10.429 -0.5028  0.5181  0.6697
  527MOL0     N69449   7.290   2.648  10.432  0.0192 -0.7052 -0.0478
  527MOL0     C69450   7.221   2.710  10.327  0.0674 -0.3637 -0.2474
  527MOL0     C69451   7.088   2.701  10.363 -0.2141 -0.9943  0.1902
  527MOL0     C69452   6.983   2.761  10.288  0.9040 -0.3339 -0.3770
  527MOL0     C69453   7.003   2.912  10.256 -0.4604  0.6780  0.5478
  527MOL0     C69454   6.923   2.949  10.128  0.1120 -0.5174 -0.6688
  527MOL0     C69455   6.770   2.978  10.156 -0.2596  0.8193  0.1464
  527MOL0     O69456   6.742   3.112  10.208 -0.8250  0.5712  0.2934
  527MOL0     C69457   6.609   3.145  10.224 -0.6375  1.2808  0.4141
  527MOL0     C69458   6.560   3.273  10.243 -0.4808 -0.1312 -0.3586
  527MOL0     C69459   6.424   3.296  10.274 -0.1444 -0.4677 -0.0725
  527MOL0     C69460   6.325   3.190  10.279 -0.9822  0.3060 -0.3621
  527MOL0     C69461   6.188   3.209  10.328 -0.6812 -0.0507  0.6503
  527MOL0     O69462   6.108   3.102  10.324  0.3949  0.0225 -0.1580
  527MOL0     C69463   5.978   3.116  10.378  0.8420  0.3052 -0.2445
  527MOL0     C69464   5.941   3.185  10.493 -0.7418 -0.9573  0.8523
  527MOL0     C69465   5.817   3.189  10.549  0.1908  1.6986  0.3689
  527MOL0     C69466   5.722   3.100  10.502 -0.5149 -0.9983  0.4159
  527MOL0     O69467   5.600   3.119  10.560 -0.4850 -0.2860 -0.4255
  527MOL0     C69468   5.510   3.011  10.537  0.3889 -0.8901  0.4804
  527MOL0     C69469   5.397   3.031  10.642  0.5135 -0.2824 -0.2473
  527MOL0     C69470   5.283   2.930  10.625  0.4603  0.4898 -0.3607
  527MOL0     C69471   5.167   2.979  10.711  0.2400 -0.7423 -0.3584
  527MOL0     C69472   5.045   2.881  10.714  0.3438 -0.5326  0.4430
  527MOL0     C69473   4.920   2.952  10.772 -0.0391  0.4635  0.4420
  527MOL0     C69474   4.933   3.013  10.910 -0.0295  0.7321 -0.1404
  527MOL0     C69475   4.832   2.973  11.015 -0.2717  0.4235 -0.0634
  527MOL0    Cl69476   4.878   3.053  11.165  0.0971 -0.2802  0.5163
  527MOL0     C69477   5.747   3.025  10.388  0.2764  0.4214 -0.8094
  527MOL0     C69478   5.880   3.027  10.335 -0.2781 -0.5743  0.1981
  527MOL0     O69479   6.157   3.326  10.348  0.5684 -0.6209 -0.4897
  527MOL0     C69480   6.380   3.065  10.253  0.1221 -0.2128 -0.3894
  527MOL0     C69481   6.508   3.038  10.217 -0.4348  0.1276  0.4006
  527MOL0     N69482   7.079   2.639  10.479  0.0295  0.9818  0.9876
  527MOL0     N69483   7.198   2.602  10.519 -0.3814 -0.5006  0.1069
  527MOL0     C69484   8.127   1.709  10.514  0.3479  0.4235  0.7000
  527MOL0     C69485   8.225   1.632  10.584  0.0147 -0.6719  0.2662
  527MOL0     C69486   8.585   1.572  10.900  0.5851 -0.2943  0.2642
  527MOL0     C69487   8.710   1.600  10.955  0.2768  0.1022 -0.1599
  527MOL0     C69488   8.762   1.517  11.060 -0.3581  0.7089 -0.0401
  527MOL0     C69489   8.690   1.407  11.105 -0.2528  0.7210  0.2361
  527MOL0     O69490   8.740   1.311  11.186 -0.3671  0.2545  0.0893
  527MOL0     C69491   8.874   1.337  11.245 -0.3062 -0.3308 -0.0815
  527MOL0     C69492   8.913   1.224  11.339  1.1972 -0.4843 -0.2151
  527MOL0     C69493   8.825   1.208  11.470 -0.0653 -0.4902  0.2975
  527MOL0     C69494   8.895   1.112  11.565  0.8605  0.1752 -0.0574
  527MOL0     C69495   9.027   1.166  11.608  0.3039  0.6346  0.4540
  527MOL0     C69496   9.123   1.224  11.660 -0.5138 -0.4568  0.1298
  527MOL0     C69497   8.570   1.371  11.033 -0.4442  0.9642 -0.0481
  527MOL0     C69498   8.509   1.454  10.942  0.7691 -0.2594  0.2605
  527MOL0     H69499   8.481   1.858  10.603 -0.5746  2.5689 -1.5986
  527MOL0     H69500   8.333   1.976  10.477 -0.7734  0.9948  0.9365
  527MOL0     H69501   8.167   2.034  10.295  2.1288  1.6062  1.0793
  527MOL0     H69502   8.148   2.108  10.453 -1.8106  0.7271  1.1601
  527MOL0     H69503   7.902   2.077  10.266 -3.4672  1.6282  0.4482
  527MOL0     H69504   8.011   2.216  10.267 -0.6876  0.0652 -0.1806
  527MOL0     H69505   7.954   2.254  10.506 -0.4180  0.8992 -0.7223
  527MOL0     H69506   7.829   2.121  10.487 -0.5712  0.6952  0.4921
  527MOL0     H69507   7.865   2.375  10.328  2.5636  0.4062  4.6481
  527MOL0     H69508   7.745   2.249  10.289 -0.2299  0.0417  0.9184
  527MOL0     H69509   7.755   2.431  10.517  0.8263 -0.7406  1.0429
  527MOL0     H69510   7.650   2.291  10.526 -1.4310  1.1469  0.1141
  527MOL0     H69511   7.551   2.343  10.313  1.2839  0.0237 -0.4368
  527MOL0     H69512   7.621   2.507  10.310 -0.2978  0.8570  0.5376
  527MOL0     H69513   7.381   2.422  10.441  0.1554 -0.2739 -1.5214
  527MOL0     H69514   7.499   2.471  10.574 -1.5245 -1.4407 -0.1974
  527MOL0     H69515   7.463   2.639  10.324  0.8315  0.9276  1.0608
  527MOL0     H69516   7.493   2.700  10.484 -1.3969  2.9093 -1.4305
  527MOL0     H69517   7.251   2.753  10.232 -1.0725  1.3061  0.1007
  527MOL0     H69518   6.889   2.755  10.344  1.1113  2.1398  0.3341
  527MOL0     H69519   6.976   2.705  10.194 -1.2209  0.8096 -0.9611
  527MOL0     H69520   7.111   2.928  10.245 -0.7991  2.3715 -0.6154
  527MOL0     H69521   6.958   2.977  10.331 -0.3708 -1.6684  2.7953
  527MOL0     H69522   6.968   3.046  10.103 -2.2235  0.8641  0.1941
  527MOL0     H69523   6.954   2.875  10.054  0.6317 -0.6423 -0.3282
  527MOL0     H69524   6.745   2.900  10.228 -0.0135  0.4886 -0.1231
  527MOL0     H69525   6.716   2.961  10.062 -1.4733  1.1002  0.7740
  527MOL0     H69526   6.633   3.353  10.238  0.9303 -1.3281  0.2493
  527MOL0     H69527   6.378   3.392  10.294 -2.1646 -1.7132  1.7220
  527MOL0     H69528   6.012   3.249  10.545  2.6317 -2.4715 -1.4693
  527MOL0     H69529   5.789   3.247  10.636 -1.2156 -0.5830  1.5349
  527MOL0     H69530   5.567   2.919  10.549  4.2640  0.9871 -1.3816
  527MOL0     H69531   5.475   3.020  10.433  1.7341  0.3555  0.0902
  527MOL0     H69532   5.363   3.135  10.642 -1.3016 -0.8327  1.3142
  527MOL0     H69533   5.443   3.022  10.740 -0.3444  0.9687  0.3050
  527MOL0     H69534   5.311   2.830  10.661 -0.1630  0.0571 -1.0570
  527MOL0     H69535   5.250   2.928  10.521 -0.0259  0.7469 -0.2149
  527MOL0     H69536   5.188   2.996  10.817  1.3548 -0.6000 -0.5916
  527MOL0     H69537   5.128   3.073  10.671  0.7160 -0.1678  0.5126
  527MOL0     H69538   5.070   2.796  10.778  2.0312  0.9298  1.8408
  527MOL0     H69539   5.016   2.843  10.616  0.2474 -0.2257  0.3487
  527MOL0     H69540   4.846   2.873  10.781  1.1583 -0.6976  0.3633
  527MOL0     H69541   4.881   3.021  10.695  0.7975 -0.6325 -1.0168
  527MOL0     H69542   5.030   2.986  10.953  0.7005 -1.4155 -2.8868
  527MOL0     H69543   4.913   3.120  10.894 -4.2251  0.0410 -0.7966
  527MOL0     H69544   4.841   2.864  11.022  1.4459  0.5239 -0.2624
  527MOL0     H69545   4.732   3.005  10.984 -0.0431  0.2523 -1.0270
  527MOL0     H69546   5.675   2.953  10.351  0.0766 -2.2413  4.0080
  527MOL0     H69547   5.911   2.955  10.260  3.1047  0.0740  0.8531
  527MOL0     H69548   6.319   2.979  10.277  2.1454 -1.6596 -0.1461
  527MOL0     H69549   6.521   2.931  10.204 -2.4318 -0.4188  2.3330
  527MOL0     H69550   8.033   1.663  10.488  1.0822 -0.6009 -0.2016
  527MOL0     H69551   8.204   1.530  10.611  1.1619 -0.7106  1.0800
  527MOL0     H69552   8.772   1.675  10.908 -1.0561 -0.4638 -3.0525
  527MOL0     H69553   8.864   1.537  11.092  0.4062  1.4149 -2.6698
  527MOL0     H69554   8.866   1.435  11.293 -3.2637  0.5849 -2.1645
  527MOL0     H69555   8.952   1.349  11.169 -1.8528 -0.3792 -1.7534
  527MOL0     H69556   8.903   1.129  11.285 -1.1691  0.3825 -1.4314
  527MOL0     H69557   9.020   1.235  11.359  2.0665 -2.1942 -3.2715
  527MOL0     H69558   8.722   1.181  11.443  0.4707 -2.7985  0.3186
  527MOL0     H69559   8.822   1.303  11.524 -2.6882  1.0750 -2.3072
  527MOL0     H69560   8.835   1.093  11.655  0.0278  0.5607 -0.5187
  527MOL0     H69561   8.903   1.015  11.514  0.9312 -0.7513  1.6289
  527MOL0     H69562   9.202   1.273  11.713 -2.2848 -0.5760  3.1145
  527MOL0     H69563   8.519   1.276  11.051 -1.8479  2.0371  2.1092
  527MOL0     H69564   8.415   1.433  10.892  1.1474  2.9622 -2.1682
  528MOL0     O69565   6.955   6.676   3.741  0.3560 -0.4426 -0.1736
  528MOL0     C69566   7.046   6.605   3.701  0.4213 -0.3422 -0.6395
  528MOL0     O69567   7.026   6.486   3.649 -0.3962 -0.2321  0.2249
  528MOL0     C69568   6.903   6.455   3.603  0.6804  0.0852  0.5818
  528MOL0     C69569   6.839   6.353   3.666 -0.2336 -0.5025 -0.4218
  528MOL0     C69570   6.713   6.309   3.635  0.5378 -0.3943  0.9010
  528MOL0     C69571   6.642   6.369   3.532  0.6882 -0.4022  0.7493
  528MOL0     O69572   6.512   6.321   3.503 -0.3719  0.2307  0.5712
  528MOL0     C69573   6.435   6.372   3.394 -1.4051 -0.1834 -0.4407
  528MOL0     C69574   6.306   6.288   3.373 -0.4938 -0.2134  0.3919
  528MOL0     C69575   6.211   6.302   3.487  0.8144  0.1668  0.1241
  528MOL0     C69576   6.088   6.206   3.468  0.2576 -0.3761  0.0081
  528MOL0     C69577   5.978   6.248   3.366 -0.7811  0.5063  0.2289
  528MOL0     C69578   5.862   6.148   3.363  0.2966  0.2508 -0.2892
  528MOL0     C69579   5.803   6.151   3.218  0.2704  0.8699  0.3923
  528MOL0     C69580   5.870   6.058   3.110  1.0098 -0.6281  0.5680
  528MOL0     N69581   5.857   5.917   3.143  0.6573  0.5380  0.6421
  528MOL0     C69582   5.735   5.849   3.115 -0.7603 -0.3433 -0.7329
  528MOL0     C69583   5.757   5.723   3.148 -0.5348 -0.5030 -0.1781
  528MOL0     C69584   5.658   5.603   3.147 -1.1313  0.0419  0.1991
  528MOL0     C69585   5.522   5.641   3.096 -0.4240 -0.3273  0.1630
  528MOL0     C69586   5.427   5.524   3.074 -0.3088  0.6139  0.1222
  528MOL0     C69587   5.286   5.572   3.028  0.2443  0.0670  0.9129
  528MOL0     O69588   5.209   5.451   3.035  0.1133 -0.7702  0.2072
  528MOL0     C69589   5.077   5.464   2.999 -0.1704  0.3440  0.3382
  528MOL0     C69590   4.989   5.348   3.005 -0.2936 -0.6367 -0.2202
  528MOL0     C69591   4.856   5.343   2.974  0.1834 -0.8006 -0.1066
  528MOL0     C69592   4.801   5.466   2.927  0.3619 -0.3853  0.8809
  528MOL0     C69593   4.663   5.475   2.884  0.4371  1.2617 -0.0398
  528MOL0     O69594   4.614   5.595   2.847  0.3439 -0.4185 -0.1363
  528MOL0     C69595   4.479   5.594   2.839  0.1473  0.5915 -0.3223
  528MOL0     C69596   4.420   5.547   2.723 -0.6757  0.7413  0.4185
  528MOL0     C69597   4.282   5.540   2.716 -0.0492  0.3127 -0.1067
  528MOL0     C69598   4.202   5.576   2.826  0.1760  0.5466  0.1119
  528MOL0     O69599   4.063   5.562   2.806 -0.4848 -1.0124  0.0067
  528MOL0     C69600   3.983   5.503   2.909  0.6183 -0.6196 -0.4133
  528MOL0     C69601   3.842   5.465   2.858 -0.4826 -0.0001  0.1124
  528MOL0     C69602   3.745   5.434   2.967  0.1327  0.7404  0.0276
  528MOL0     C69603   3.609   5.369   2.918 -0.3820 -0.5308  0.5746
  528MOL0     C69604   3.587   5.224   2.948  0.3558 -0.1542  0.4917
  528MOL0     C69605   3.449   5.169   2.995  0.5330 -0.1721 -0.4083
  528MOL0     C69606   3.361   5.080   2.905 -1.0451  0.2343  0.4292
  528MOL0     C69607   3.222   5.053   2.967  1.4511  0.1628 -0.1446
  528MOL0    Cl69608   3.104   5.016   2.843 -0.2190  0.1613  0.0036
  528MOL0     C69609   4.263   5.623   2.944 -0.2674  0.1489 -0.6977
  528MOL0     C69610   4.404   5.634   2.950  0.0745  0.3978  0.0887
  528MOL0     O69611   4.596   5.372   2.907  0.6392 -0.3022  0.5149
  528MOL0     C69612   4.879   5.582   2.914  0.4257  0.5450  0.4533
  528MOL0     C69613   5.006   5.584   2.961 -0.0688  0.0514  0.4776
  528MOL0     N69614   5.890   5.712   3.178 -0.0471  0.0091  0.6628
  528MOL0     N69615   5.952   5.828   3.177  0.2413  0.0698 -0.3843
  528MOL0     C69616   6.708   6.473   3.461 -0.6075 -1.0813  0.2924
  528MOL0     C69617   6.837   6.516   3.492 -1.1159  0.0708 -1.5303
  528MOL0     C69618   7.183   6.667   3.718  0.2186  0.3013  0.0437
  528MOL0     C69619   7.204   6.798   3.763  0.2280  0.3328  1.4078
  528MOL0     C69620   7.334   6.848   3.788 -0.2696 -0.3152 -1.4310
  528MOL0     C69621   7.448   6.776   3.751 -0.4054  0.5137 -0.7010
  528MOL0     O69622   7.581   6.816   3.752  0.3601 -0.2077 -0.9074
  528MOL0     C69623   7.611   6.955   3.744  0.5339 -0.0132  1.0668
  528MOL0     C69624   7.636   7.007   3.885  0.1499 -0.2826  0.1562
  528MOL0     C69625   7.737   6.927   3.985  0.1631  0.1593 -0.3723
  528MOL0     C69626   7.867   6.886   3.925 -0.5468  0.4890 -0.9286
  528MOL0     C69627   7.961   6.995   3.901  0.3212 -0.6248 -0.2317
  528MOL0     C69628   8.041   7.079   3.861  1.2353 -0.4255 -0.1124
  528MOL0     C69629   7.422   6.642   3.719 -0.4393 -0.4150  0.4503
  528MOL0     C69630   7.296   6.593   3.695 -0.3734 -0.4546 -1.1667
  528MOL0     H69631   6.894   6.307   3.748 -1.9097  1.6126  2.0781
  528MOL0     H69632   6.664   6.231   3.692  0.3296 -0.8220  0.1646
  528MOL0     H69633   6.498   6.368   3.305  0.6947 -0.4134  0.9824
  528MOL0     H69634   6.409   6.478   3.404 -1.0644  0.1328 -2.3747
  528MOL0     H69635   6.333   6.184   3.357 -0.5125 -0.6194  2.6194
  528MOL0     H69636   6.261   6.325   3.280 -0.1217 -4.4435 -1.6713
  528MOL0     H69637   6.162   6.399   3.498 -1.0757 -0.9587  2.3488
  528MOL0     H69638   6.265   6.272   3.578 -1.5737 -2.6152  0.7614
  528MOL0     H69639   6.130   6.109   3.438  1.4877  0.8311 -2.4206
  528MOL0     H69640   6.031   6.194   3.560 -0.7744  0.3153 -0.5252
  528MOL0     H69641   6.026   6.256   3.268  1.2889  0.8013  1.1960
  528MOL0     H69642   5.933   6.345   3.391 -0.5163  0.6157  0.2925
  528MOL0     H69643   5.791   6.180   3.440 -0.7423  2.5796 -2.0944
  528MOL0     H69644   5.879   6.045   3.397  2.5811  0.4987 -0.5509
  528MOL0     H69645   5.699   6.119   3.218 -0.2713  2.5149  1.8015
  528MOL0     H69646   5.805   6.253   3.179 -4.3450  0.7946 -0.5141
  528MOL0     H69647   5.973   6.094   3.097  0.6873 -0.0173 -0.3902
  528MOL0     H69648   5.826   6.079   3.012  0.2711 -2.0372  0.5728
  528MOL0     H69649   5.644   5.898   3.085  0.2664  2.2315  0.0795
  528MOL0     H69650   5.651   5.571   3.252 -1.4469  0.6852  0.3839
  528MOL0     H69651   5.693   5.518   3.088 -1.2417 -0.2413  0.5370
  528MOL0     H69652   5.551   5.684   2.999  2.3729  0.5993  1.3222
  528MOL0     H69653   5.471   5.713   3.160 -0.7932  0.9903 -1.5412
  528MOL0     H69654   5.475   5.445   3.016 -1.5602 -0.7032  0.7799
  528MOL0     H69655   5.398   5.487   3.173  0.1303 -0.2338 -0.0616
  528MOL0     H69656   5.294   5.623   2.932  1.2890  4.2284  3.0013
  528MOL0     H69657   5.245   5.650   3.093 -3.0828  1.2985 -2.3372
  528MOL0     H69658   5.026   5.251   3.036 -0.8225 -1.7588 -2.8524
  528MOL0     H69659   4.806   5.246   2.977  0.2378 -0.8780 -1.2686
  528MOL0     H69660   4.485   5.517   2.641 -0.0215  0.2853  1.0852
  528MOL0     H69661   4.228   5.501   2.630  0.3257 -0.7018  0.1037
  528MOL0     H69662   3.987   5.579   2.988  2.6940 -0.4267 -0.6474
  528MOL0     H69663   4.037   5.415   2.945 -3.1798 -2.5388  1.1383
  528MOL0     H69664   3.852   5.380   2.789  1.7970 -0.3541  0.7877
  528MOL0     H69665   3.805   5.547   2.797  1.4259  1.6114  1.0106
  528MOL0     H69666   3.713   5.527   3.015 -2.0426 -0.4439  1.0302
  528MOL0     H69667   3.794   5.374   3.043 -0.2163  0.0662 -0.2716
  528MOL0     H69668   3.537   5.429   2.974 -0.5249 -0.6578  0.5281
  528MOL0     H69669   3.590   5.389   2.811 -0.0858 -2.1861  0.1887
  528MOL0     H69670   3.656   5.200   3.029 -0.5951  1.4834  1.8529
  528MOL0     H69671   3.631   5.172   2.862  0.1778  2.3786 -1.2701
  528MOL0     H69672   3.383   5.255   3.008 -1.4423 -1.0388 -3.4973
  528MOL0     H69673   3.460   5.110   3.086  3.2018 -0.8114 -1.0733
  528MOL0     H69674   3.358   5.127   2.806  3.4107 -0.3362 -0.2057
  528MOL0     H69675   3.403   4.980   2.888 -1.9306 -0.0779  0.0535
  528MOL0     H69676   3.190   5.144   3.020 -2.2047 -1.1133  0.1203
  528MOL0     H69677   3.232   4.968   3.035 -2.0373  0.9343  1.5685
  528MOL0     H69678   4.209   5.669   3.026  0.7088  1.1700 -0.5951
  528MOL0     H69679   4.448   5.668   3.044 -1.9100 -1.2916  1.7351
  528MOL0     H69680   4.840   5.668   2.861 -1.8335 -1.0654 -0.7020
  528MOL0     H69681   5.060   5.678   2.959 -1.0356  0.6257  0.6023
  528MOL0     H69682   6.648   6.528   3.389  2.1206  4.6011  1.8101
  528MOL0     H69683   6.878   6.603   3.441  1.8250 -1.3559 -1.7974
  528MOL0     H69684   7.117   6.855   3.793 -0.6671  0.3790 -1.0408
  528MOL0     H69685   7.345   6.942   3.841 -0.1009 -1.9872  1.7632
  528MOL0     H69686   7.530   7.011   3.698  1.2037  0.6068  0.6354
  528MOL0     H69687   7.695   6.979   3.678 -0.5242  0.5002 -0.1124
  528MOL0     H69688   7.663   7.113   3.880 -0.5957 -0.1309 -2.0678
  528MOL0     H69689   7.542   6.996   3.940  1.4864 -1.7475  2.2818
  528MOL0     H69690   7.694   6.838   4.031  0.5191  0.9838  1.6858
  528MOL0     H69691   7.755   6.982   4.078 -0.4109 -0.7972  0.3343
  528MOL0     H69692   7.915   6.822   3.999 -3.3172 -1.0074 -0.2970
  528MOL0     H69693   7.847   6.827   3.835 -1.3224  0.2088 -0.5816
  528MOL0     H69694   8.114   7.154   3.836 -0.4824  0.6016 -2.4105
  528MOL0     H69695   7.506   6.576   3.699 -0.8126 -1.2075  1.4031
  528MOL0     H69696   7.288   6.488   3.669  1.3215 -0.9255  0.0523
  529MOL0     O69697   5.776   7.876   3.959 -0.1184 -0.4815  1.1952
  529MOL0     C69698   5.830   7.806   4.043  0.3477  0.4532 -0.2576
  529MOL0     O69699   5.792   7.680   4.067  0.0746  0.0484 -0.0202
  529MOL0     C69700   5.663   7.630   4.029 -0.4530  1.1895  0.2057
  529MOL0     C69701   5.543   7.689   4.075  0.5644  0.0256 -0.3447
  529MOL0     C69702   5.424   7.641   4.034  0.1589  0.5096 -0.4162
  529MOL0     C69703   5.413   7.525   3.956  0.2531 -0.2145 -0.1269
  529MOL0     O69704   5.289   7.471   3.906 -0.2787  0.0122  0.5430
  529MOL0     C69705   5.174   7.468   3.975 -0.4065  0.2890 -0.3746
  529MOL0     C69706   5.085   7.343   3.936 -0.7757 -0.6133 -0.6464
  529MOL0     C69707   5.038   7.359   3.793 -0.6375 -0.7107  0.4277
  529MOL0     C69708   4.940   7.481   3.770 -0.1362  0.5484 -0.5406
  529MOL0     C69709   4.807   7.452   3.824  0.0288  0.6685 -0.5701
  529MOL0     C69710   4.702   7.554   3.780 -0.4545  0.5325  0.4365
  529MOL0     C69711   4.565   7.531   3.829  0.4910  0.5181  0.2195
  529MOL0     C69712   4.488   7.397   3.793  0.3707 -0.5278 -0.7886
  529MOL0     N69713   4.343   7.408   3.794  0.3539  0.6471  0.0903
  529MOL0     C69714   4.256   7.382   3.684 -0.1161 -0.0691  0.3425
  529MOL0     C69715   4.129   7.405   3.721  0.7292  0.4128 -0.1805
  529MOL0     C69716   3.998   7.422   3.649 -0.2926  0.5709 -0.2248
  529MOL0     C69717   3.975   7.319   3.538 -0.5837  0.3334  0.1801
  529MOL0     C69718   3.851   7.368   3.458  0.0992  0.1304  0.1189
  529MOL0     C69719   3.725   7.311   3.521  1.0021  0.2009  0.1891
  529MOL0     O69720   3.615   7.379   3.450  0.0540 -0.5482  0.5886
  529MOL0     C69721   3.487   7.342   3.469  0.2918 -0.4022  0.0229
  529MOL0     C69722   3.445   7.246   3.568 -0.3853 -0.3873  0.3771
  529MOL0     C69723   3.309   7.208   3.587 -0.1080 -0.0469  0.1772
  529MOL0     C69724   3.215   7.258   3.494  0.4242 -0.0743 -0.0814
  529MOL0     C69725   3.071   7.219   3.508 -1.0450 -0.2615 -0.3898
  529MOL0     O69726   3.023   7.196   3.639  0.1349 -0.0081 -0.2918
  529MOL0     C69727   2.886   7.188   3.655 -0.3273  0.0024  0.9557
  529MOL0     C69728   2.803   7.093   3.602 -0.4006 -0.5812 -0.0822
  529MOL0     C69729   2.665   7.100   3.620  0.1099 -0.1550  0.2020
  529MOL0     C69730   2.615   7.205   3.709 -0.5478  0.6388  1.2732
  529MOL0     O69731   2.482   7.188   3.745 -0.2197 -0.4782  0.5009
  529MOL0     C69732   2.399   7.298   3.710 -0.1923  0.5329  0.4982
  529MOL0     C69733   2.256   7.289   3.768 -0.2278 -0.3253 -0.0331
  529MOL0     C69734   2.167   7.409   3.738  0.5275  0.8652  0.2580
  529MOL0     C69735   2.023   7.386   3.799  0.1117  0.7328  0.8767
  529MOL0     C69736   1.944   7.518   3.792  0.0872  1.0037 -0.5497
  529MOL0     C69737   1.802   7.493   3.841 -0.7617  0.0682  0.8779
  529MOL0     C69738   1.706   7.607   3.783  0.5338 -0.0926 -0.3443
  529MOL0     C69739   1.568   7.571   3.821  0.4309  0.0535 -0.2480
  529MOL0    Cl69740   1.531   7.437   3.714  0.1911 -0.1612  0.1944
  529MOL0     C69741   2.700   7.295   3.764 -1.2761 -0.7034  0.5950
  529MOL0     C69742   2.833   7.294   3.736  0.2491 -0.9478 -0.0631
  529MOL0     O69743   3.004   7.236   3.413 -0.1236 -0.0178  0.3835
  529MOL0     C69744   3.264   7.357   3.409 -0.4423  0.6929 -0.1908
  529MOL0     C69745   3.391   7.396   3.394 -0.3105 -0.3343 -0.5783
  529MOL0     N69746   4.133   7.448   3.853  0.6166  0.4272  0.2099
  529MOL0     N69747   4.256   7.454   3.887  0.0768  0.7461 -0.0644
  529MOL0     C69748   5.528   7.464   3.913  0.4930 -0.3082  0.0654
  529MOL0     C69749   5.656   7.512   3.949 -0.0270 -0.1886 -0.3912
  529MOL0     C69750   5.962   7.844   4.096  0.2103 -0.5287  0.0267
  529MOL0     C69751   6.045   7.752   4.154  0.0652  0.2669 -0.7682
  529MOL0     C69752   6.171   7.788   4.197 -0.1153  0.1993 -0.1511
  529MOL0     C69753   6.210   7.923   4.197  0.7840 -0.0247 -0.1151
  529MOL0     O69754   6.327   7.974   4.261  0.1820 -0.2747  0.1051
  529MOL0     C69755   6.420   7.888   4.333  0.3002 -0.5673  0.2850
  529MOL0     C69756   6.530   7.838   4.241  0.7295 -0.7653  0.0158
  529MOL0     C69757   6.620   7.957   4.199 -0.6792  0.1814 -0.4882
  529MOL0     C69758   6.598   8.017   4.056 -0.9645  0.1639  0.3167
  529MOL0     C69759   6.685   8.136   4.026 -0.1121 -0.3066 -0.0037
  529MOL0     C69760   6.759   8.213   3.968  0.1579  0.3318  0.1900
  529MOL0     C69761   6.123   8.014   4.150  0.5286  0.1340 -0.5627
  529MOL0     C69762   5.995   7.978   4.097 -0.1551 -0.5568  0.8585
  529MOL0     H69763   5.537   7.777   4.139  1.5792 -2.3596  3.3827
  529MOL0     H69764   5.337   7.699   4.061  0.2841 -0.0946  1.4093
  529MOL0     H69765   5.119   7.561   3.954 -1.2952  0.5565  2.5793
  529MOL0     H69766   5.195   7.467   4.083 -2.9995  0.5565  0.2150
  529MOL0     H69767   4.997   7.336   3.999  1.2729 -1.1972  2.3461
  529MOL0     H69768   5.139   7.250   3.955 -0.9175 -0.6156 -0.2489
  529MOL0     H69769   4.990   7.271   3.752  0.1811 -0.6288 -0.7517
  529MOL0     H69770   5.125   7.376   3.729 -0.0863 -1.8764  0.8421
  529MOL0     H69771   4.977   7.570   3.822 -1.5798  0.2727  1.0687
  529MOL0     H69772   4.927   7.501   3.663  0.1935  6.3209  0.1403
  529MOL0     H69773   4.808   7.462   3.933 -1.5384 -2.9782 -0.0859
  529MOL0     H69774   4.767   7.354   3.798 -1.7426  0.5314  2.2616
  529MOL0     H69775   4.705   7.564   3.671  0.1868 -0.4982  0.3479
  529MOL0     H69776   4.731   7.650   3.825 -2.5354  0.7487  1.4593
  529MOL0     H69777   4.571   7.543   3.938 -1.4231  2.1301  0.1902
  529MOL0     H69778   4.501   7.617   3.810  0.4897  0.4959  0.1197
  529MOL0     H69779   4.513   7.333   3.879 -1.1812 -0.4403 -0.2444
  529MOL0     H69780   4.529   7.349   3.704  0.8936 -1.7040  0.0518
  529MOL0     H69781   4.287   7.332   3.593 -3.8735 -1.3936 -0.3655
  529MOL0     H69782   4.001   7.520   3.601 -1.7587  0.4267 -0.6600
  529MOL0     H69783   3.915   7.429   3.719 -0.0763  2.2283 -0.0971
  529MOL0     H69784   3.961   7.220   3.583  0.1280  0.0593 -0.2018
  529MOL0     H69785   4.065   7.321   3.477  0.3595  2.5378  1.5487
  529MOL0     H69786   3.838   7.476   3.459 -0.7850  0.1074  3.4840
  529MOL0     H69787   3.860   7.331   3.356 -1.3995 -0.6593  0.2507
  529MOL0     H69788   3.717   7.327   3.629  0.3143  0.8441  0.0528
  529MOL0     H69789   3.725   7.202   3.507  1.0623 -0.0426  1.8350
  529MOL0     H69790   3.529   7.204   3.623  1.3269  1.2020 -0.8798
  529MOL0     H69791   3.288   7.132   3.661  0.1688  1.4449  1.8353
  529MOL0     H69792   2.829   7.019   3.527 -3.6713 -2.3815  0.3621
  529MOL0     H69793   2.595   7.032   3.573 -1.0694  0.8067  0.5185
  529MOL0     H69794   2.387   7.298   3.601  1.8407  0.8713  0.2461
  529MOL0     H69795   2.436   7.388   3.759  1.4229  0.2969 -0.2227
  529MOL0     H69796   2.265   7.273   3.875  2.8800 -0.2493 -0.2006
  529MOL0     H69797   2.214   7.199   3.724 -1.9803  0.0035  0.8903
  529MOL0     H69798   2.160   7.420   3.630  1.1570 -0.0630  0.1031
  529MOL0     H69799   2.209   7.501   3.781 -0.5805  0.5838  2.0291
  529MOL0     H69800   1.974   7.305   3.744  0.6350  1.7444 -1.2238
  529MOL0     H69801   2.027   7.359   3.904 -3.6937  0.7709  1.1614
  529MOL0     H69802   1.947   7.543   3.685  2.4508 -1.4914 -1.1923
  529MOL0     H69803   1.987   7.600   3.851 -3.5945  1.9310  1.1116
  529MOL0     H69804   1.795   7.484   3.949  3.0886 -0.7962  1.1801
  529MOL0     H69805   1.769   7.392   3.816  1.1014 -0.1454 -0.9919
  529MOL0     H69806   1.734   7.695   3.841  2.4858 -0.9438  0.0550
  529MOL0     H69807   1.723   7.633   3.678 -1.5896 -0.3172 -0.7936
  529MOL0     H69808   1.505   7.655   3.790  1.1473  0.6674 -0.0748
  529MOL0     H69809   1.557   7.545   3.926 -1.3075  0.1182 -0.3878
  529MOL0     H69810   2.653   7.346   3.847  1.0102  0.1040  1.4618
  529MOL0     H69811   2.901   7.368   3.777  0.8993 -1.3363 -0.4371
  529MOL0     H69812   3.189   7.408   3.349  0.5521  0.6522 -1.5049
  529MOL0     H69813   3.421   7.475   3.326  1.8676  1.0871  1.8214
  529MOL0     H69814   5.511   7.381   3.845  0.3911  0.0718 -0.3777
  529MOL0     H69815   5.749   7.476   3.906  1.3935  2.6326  0.0154
  529MOL0     H69816   6.023   7.646   4.169  2.9607 -0.2679  0.3515
  529MOL0     H69817   6.233   7.714   4.247 -0.3912 -0.5735 -0.9248
  529MOL0     H69818   6.364   7.800   4.366 -0.2481 -1.1464 -2.0043
  529MOL0     H69819   6.458   7.941   4.421 -2.7474  0.1804  1.3004
  529MOL0     H69820   6.592   7.760   4.286  1.8802  0.6049  0.8795
  529MOL0     H69821   6.477   7.793   4.156  1.2775 -1.3181 -0.0391
  529MOL0     H69822   6.724   7.928   4.216 -1.1548 -0.0652  2.5369
  529MOL0     H69823   6.598   8.032   4.275  1.3318 -0.6481  0.9773
  529MOL0     H69824   6.608   7.938   3.981  2.2327  3.4267 -3.0414
  529MOL0     H69825   6.496   8.055   4.046 -1.7950 -2.1790 -1.0052
  529MOL0     H69826   6.805   8.287   3.906  0.3823  0.4152  0.4580
  529MOL0     H69827   6.148   8.120   4.147  0.0990  0.3021  1.0129
  529MOL0     H69828   5.933   8.049   4.044 -0.3671 -3.3476 -3.1014
  530MOL0     O69829   7.114   7.525   5.556  0.5130 -0.8074 -0.8409
  530MOL0     C69830   7.149   7.514   5.443  0.1661  0.4895  0.0966
  530MOL0     O69831   7.064   7.475   5.339 -0.1362  1.1231 -0.7843
  530MOL0     C69832   6.930   7.492   5.354 -0.5440  0.1307 -0.1221
  530MOL0     C69833   6.848   7.389   5.307  0.1534 -0.0542  0.5661
  530MOL0     C69834   6.706   7.407   5.291  0.5182  0.4775  0.2831
  530MOL0     C69835   6.633   7.519   5.353  0.4382  0.8169  0.0068
  530MOL0     O69836   6.498   7.536   5.362  0.5228 -0.5362  0.0779
  530MOL0     C69837   6.417   7.413   5.331 -0.4698 -0.0226  0.5301
  530MOL0     C69838   6.269   7.464   5.360  1.3570  0.3820  0.6195
  530MOL0     C69839   6.172   7.424   5.246  0.9011 -0.5173 -0.3884
  530MOL0     C69840   6.026   7.464   5.276  0.2523  0.1775  0.0450
  530MOL0     C69841   5.946   7.431   5.148 -0.0516  0.5429 -0.0582
  530MOL0     C69842   5.797   7.478   5.143  0.1619 -0.1673 -0.1340
  530MOL0     C69843   5.709   7.439   5.265 -0.2625  0.5372  0.0522
  530MOL0     C69844   5.646   7.301   5.231 -0.1976  0.3785 -1.3647
  530MOL0     N69845   5.544   7.254   5.324 -0.2378 -0.5232  0.7183
  530MOL0     C69846   5.496   7.295   5.448  0.3267 -0.2287  0.0563
  530MOL0     C69847   5.391   7.211   5.481 -0.5717 -1.0019  0.9046
  530MOL0     C69848   5.294   7.222   5.590  0.5464 -0.4843 -0.0517
  530MOL0     C69849   5.175   7.121   5.569  0.2087 -0.3067 -0.5924
  530MOL0     C69850   5.064   7.141   5.669 -0.2040  0.3180  0.9062
  530MOL0     C69851   4.944   7.054   5.623 -0.0672  0.1734  0.2945
  530MOL0     O69852   4.891   7.078   5.490  0.0193  0.6923 -0.3157
  530MOL0     C69853   4.770   7.044   5.456 -0.0828  0.6054  0.6002
  530MOL0     C69854   4.693   6.940   5.518 -0.2090  0.6027 -0.0330
  530MOL0     C69855   4.565   6.898   5.470 -0.1606  0.0484 -0.6679
  530MOL0     C69856   4.506   6.958   5.351 -0.6299 -0.4746 -0.1055
  530MOL0     C69857   4.376   6.911   5.291 -0.2664  0.0002  0.7600
  530MOL0     O69858   4.319   6.807   5.361  0.0951  0.3227 -0.8378
  530MOL0     C69859   4.186   6.786   5.369  0.0336 -0.6406  0.0604
  530MOL0     C69860   4.142   6.656   5.394 -0.0483 -0.7736 -1.1222
  530MOL0     C69861   4.004   6.623   5.417 -0.1472  0.3141 -0.1101
  530MOL0     C69862   3.910   6.722   5.393 -0.2056  0.2646 -0.5784
  530MOL0     O69863   3.781   6.692   5.426 -0.2149  0.0222 -0.0651
  530MOL0     C69864   3.681   6.767   5.367  0.5730  0.3139  0.2105
  530MOL0     C69865   3.543   6.705   5.388  0.0896  0.6486 -0.5435
  530MOL0     C69866   3.431   6.776   5.314 -0.1122 -0.3230 -1.7674
  530MOL0     C69867   3.301   6.709   5.338 -0.4185 -0.1160 -0.3878
  530MOL0     C69868   3.196   6.779   5.260  0.4035 -0.1847 -0.0168
  530MOL0     C69869   3.057   6.718   5.281 -0.5129 -0.1147  0.4446
  530MOL0     C69870   2.938   6.798   5.206  0.0539  0.8609 -0.4896
  530MOL0     C69871   2.805   6.741   5.260 -0.3162 -0.5246  0.6805
  530MOL0    Cl69872   2.673   6.828   5.176 -0.3190 -0.4805  0.0215
  530MOL0     C69873   3.953   6.859   5.361 -0.3400  0.0638  0.4545
  530MOL0     C69874   4.094   6.895   5.355 -0.3673  1.1739 -0.4480
  530MOL0     O69875   4.314   6.984   5.207  0.2863 -0.2964  0.2691
  530MOL0     C69876   4.578   7.070   5.298 -0.0317 -0.6904 -0.0209
  530MOL0     C69877   4.708   7.112   5.344  1.4652  0.0515  0.1917
  530MOL0     N69878   5.384   7.117   5.379  0.7537 -1.6583  0.6835
  530MOL0     N69879   5.479   7.141   5.297  0.5250 -0.5979  0.6785
  530MOL0     C69880   6.720   7.619   5.409 -0.7694  0.1834  0.7259
  530MOL0     C69881   6.861   7.603   5.408 -0.2907  0.3535 -0.5681
  530MOL0     C69882   7.295   7.540   5.409  0.6522 -0.3772  0.5353
  530MOL0     C69883   7.346   7.531   5.279 -0.3541  0.6675  0.1656
  530MOL0     C69884   7.484   7.524   5.259  0.2184 -0.3223 -1.0767
  530MOL0     C69885   7.573   7.512   5.361 -0.5878 -0.6627 -0.2320
  530MOL0     O69886   7.704   7.504   5.321  0.5780 -0.2234 -0.9784
  530MOL0     C69887   7.808   7.469   5.413  0.0678 -0.1980 -0.2230
  530MOL0     C69888   7.890   7.597   5.447 -1.1308  0.2601 -0.2117
  530MOL0     C69889   7.857   7.662   5.577 -0.4730  0.4300 -0.4115
  530MOL0     C69890   7.945   7.771   5.615  1.2559 -0.7907  0.0559
  530MOL0     C69891   7.944   7.882   5.520 -0.4268  0.2547 -0.4372
  530MOL0     C69892   7.929   7.966   5.442  0.3677  0.2057  0.0115
  530MOL0     C69893   7.525   7.537   5.490  0.1471  0.1774  0.0151
  530MOL0     C69894   7.391   7.546   5.517 -0.0009 -0.1507  0.6746
  530MOL0     H69895   6.883   7.294   5.269  0.4150  0.3830 -0.2890
  530MOL0     H69896   6.654   7.320   5.252  5.6563 -2.2519 -1.2810
  530MOL0     H69897   6.441   7.318   5.379  0.9260 -1.8265 -3.3309
  530MOL0     H69898   6.447   7.396   5.227 -0.1587 -0.1500  0.6417
  530MOL0     H69899   6.264   7.573   5.361 -2.5454  0.3637 -0.7566
  530MOL0     H69900   6.243   7.417   5.456  0.4273 -1.6790 -0.5745
  530MOL0     H69901   6.178   7.315   5.241  0.1251 -0.5154 -1.5026
  530MOL0     H69902   6.204   7.470   5.152  1.8534 -0.9225 -0.2733
  530MOL0     H69903   5.993   7.407   5.363  3.2585  2.5514  3.0181
  530MOL0     H69904   6.029   7.570   5.304  1.1620 -0.2014  1.4901
  530MOL0     H69905   5.944   7.323   5.133  0.5809  0.2370  1.8586
  530MOL0     H69906   5.998   7.476   5.063 -0.3960 -1.0403 -1.1426
  530MOL0     H69907   5.748   7.440   5.053  1.6072 -3.5518  0.3570
  530MOL0     H69908   5.789   7.587   5.135 -3.8548 -0.2782  0.3271
  530MOL0     H69909   5.764   7.454   5.359  1.7341 -1.4580 -0.7208
  530MOL0     H69910   5.622   7.504   5.256 -1.5831 -1.3872 -1.8400
  530MOL0     H69911   5.729   7.230   5.229  0.0713  0.6875 -1.2316
  530MOL0     H69912   5.592   7.303   5.136 -3.5533 -2.8510  0.2200
  530MOL0     H69913   5.537   7.372   5.513 -0.6402  0.6034 -0.2743
  530MOL0     H69914   5.266   7.328   5.585  0.3853 -0.6050 -2.5959
  530MOL0     H69915   5.337   7.208   5.690  0.9901  1.5969  0.1040
  530MOL0     H69916   5.210   7.017   5.577 -0.5137 -0.6195 -1.3041
  530MOL0     H69917   5.143   7.134   5.465  2.0942  1.4556 -1.0253
  530MOL0     H69918   5.113   7.120   5.764  0.7241  0.4472  0.4674
  530MOL0     H69919   5.030   7.244   5.680 -1.5028  0.0257 -0.0689
  530MOL0     H69920   4.868   7.067   5.701  1.1653 -2.4242  2.1004
  530MOL0     H69921   4.983   6.951   5.625 -0.6264 -0.0895 -1.2254
  530MOL0     H69922   4.743   6.897   5.604 -0.3220 -0.2117 -0.3669
  530MOL0     H69923   4.517   6.814   5.518  1.3399 -1.4258 -1.6464
  530MOL0     H69924   4.212   6.575   5.415  1.0114  0.5352  0.6338
  530MOL0     H69925   3.971   6.525   5.449 -0.8851  1.0343  1.4385
  530MOL0     H69926   3.691   6.768   5.259  0.4551 -1.2385  0.1631
  530MOL0     H69927   3.674   6.870   5.405 -0.1958 -0.7814  3.4296
  530MOL0     H69928   3.518   6.705   5.495 -2.1107  2.3363 -0.9720
  530MOL0     H69929   3.542   6.603   5.349  0.8619  0.1280  0.7258
  530MOL0     H69930   3.446   6.753   5.208  0.0599 -0.2951 -1.7489
  530MOL0     H69931   3.442   6.885   5.318  2.4927 -0.5607  0.1030
  530MOL0     H69932   3.300   6.608   5.297  1.6330  0.4919 -2.1567
  530MOL0     H69933   3.274   6.711   5.444 -0.9579 -0.1417 -0.5210
  530MOL0     H69934   3.229   6.774   5.156 -1.1588  2.4250 -0.7472
  530MOL0     H69935   3.195   6.880   5.303  1.4529 -0.3775  0.4908
  530MOL0     H69936   3.045   6.735   5.388 -0.0945  0.6091  0.3853
  530MOL0     H69937   3.060   6.610   5.264 -0.2850 -0.4142  2.1571
  530MOL0     H69938   2.947   6.902   5.238 -0.3480  0.8291 -0.2759
  530MOL0     H69939   2.954   6.781   5.099  1.0428  0.6000 -0.3130
  530MOL0     H69940   2.809   6.759   5.368  0.8952 -0.5370  0.6461
  530MOL0     H69941   2.788   6.635   5.241 -1.2632 -0.8576  3.0670
  530MOL0     H69942   3.892   6.948   5.369  1.7239  1.9824 -2.8549
  530MOL0     H69943   4.115   7.001   5.343 -2.4937  1.7895  0.7355
  530MOL0     H69944   4.543   7.129   5.214  1.0534  0.2400  0.1534
  530MOL0     H69945   4.757   7.196   5.298  0.3329  2.4149  2.9579
  530MOL0     H69946   6.660   7.696   5.456 -1.8260  0.2356 -0.6507
  530MOL0     H69947   6.916   7.686   5.450  2.7174 -1.7972  0.0570
  530MOL0     H69948   7.283   7.502   5.196  1.8138 -0.8683 -1.0624
  530MOL0     H69949   7.528   7.524   5.160  1.5385  2.8779 -0.5980
  530MOL0     H69950   7.879   7.396   5.373  0.5835 -0.8980  1.7981
  530MOL0     H69951   7.766   7.419   5.501 -0.0103 -0.0646 -0.1849
  530MOL0     H69952   7.995   7.569   5.463 -1.1623  1.0443  1.6747
  530MOL0     H69953   7.890   7.678   5.373  3.5443  1.6480  0.9700
  530MOL0     H69954   7.872   7.590   5.658 -1.7685  0.9696  0.3301
  530MOL0     H69955   7.754   7.696   5.583 -0.8662 -0.7864  0.1566
  530MOL0     H69956   7.917   7.822   5.708  0.4460  2.2980 -1.7246
  530MOL0     H69957   8.047   7.739   5.637  1.8031 -0.3159 -1.6027
  530MOL0     H69958   7.925   8.030   5.355  2.1306 -0.4563 -0.5923
  530MOL0     H69959   7.593   7.530   5.575 -0.0535  1.1107  0.2640
  530MOL0     H69960   7.356   7.555   5.619  0.4612  0.1906  0.8087
  531MOL0     O69961   5.780   8.505   8.055 -0.0685  0.6281 -0.7451
  531MOL0     C69962   5.874   8.418   8.059  0.3615 -0.5514 -0.5394
  531MOL0     O69963   5.863   8.293   8.009  0.6794 -0.6519  0.0987
  531MOL0     C69964   5.751   8.226   8.019  0.5397  0.1875  0.4984
  531MOL0     C69965   5.684   8.209   8.141 -0.1826  0.2193  0.0169
  531MOL0     C69966   5.576   8.128   8.160  0.2299  0.7866  0.0926
  531MOL0     C69967   5.519   8.074   8.042  0.5765 -0.3034  0.1660
  531MOL0     O69968   5.399   8.019   8.047  0.2744 -0.3512  0.6155
  531MOL0     C69969   5.353   7.914   8.136  0.6093 -0.2352  0.9777
  531MOL0     C69970   5.201   7.910   8.135  0.1943 -0.5851  0.8739
  531MOL0     C69971   5.132   8.042   8.173 -0.9408 -0.6426 -0.3239
  531MOL0     C69972   4.987   8.035   8.104  0.1770  1.2179  0.0543
  531MOL0     C69973   4.907   7.906   8.132 -0.4482  0.9194 -0.0287
  531MOL0     C69974   4.758   7.930   8.103  0.2898  0.5474  0.0823
  531MOL0     C69975   4.672   7.803   8.125  0.3047 -0.2741 -0.1722
  531MOL0     C69976   4.528   7.854   8.124  0.4456  0.4369  0.5348
  531MOL0     N69977   4.434   7.746   8.093  0.3367  0.2488 -0.1083
  531MOL0     C69978   4.418   7.622   8.143  0.2530  0.9542  0.0010
  531MOL0     C69979   4.317   7.566   8.084  0.6178  0.1589  0.0286
  531MOL0     C69980   4.265   7.430   8.126 -0.3971 -0.3978  0.5300
  531MOL0     C69981   4.174   7.459   8.241  0.7955 -0.3417 -0.6500
  531MOL0     C69982   4.094   7.333   8.292  0.0287 -0.8180 -0.0865
  531MOL0     C69983   4.052   7.249   8.185  0.8739  0.3169  0.4108
  531MOL0     O69984   3.949   7.162   8.221  0.0759  0.0874 -0.3058
  531MOL0     C69985   3.898   7.074   8.132  1.1883 -0.0322 -0.0919
  531MOL0     C69986   3.949   7.051   8.001 -0.4576 -0.6159  0.4432
  531MOL0     C69987   3.900   6.946   7.924 -0.1326  0.2277 -0.0046
  531MOL0     C69988   3.790   6.866   7.967 -0.5140  0.1701  0.6570
  531MOL0     C69989   3.738   6.756   7.882  0.1642 -0.5542 -0.8174
  531MOL0     O69990   3.773   6.762   7.750  0.7292 -0.0030  0.9411
  531MOL0     C69991   3.720   6.669   7.663 -0.2727  0.0343  0.3074
  531MOL0     C69992   3.752   6.531   7.677 -0.4554  0.2025 -0.2698
  531MOL0     C69993   3.674   6.447   7.604 -0.7526  0.7646  1.0757
  531MOL0     C69994   3.560   6.484   7.535  0.0441 -0.7953  0.5817
  531MOL0     O69995   3.472   6.384   7.479 -0.2696  0.0196  0.6510
  531MOL0     C69996   3.337   6.397   7.531 -0.5817 -0.0135 -0.0694
  531MOL0     C69997   3.250   6.287   7.470  2.0368  0.7851  0.4787
  531MOL0     C69998   3.234   6.290   7.318  0.0816  0.0711  0.3800
  531MOL0     C69999   3.108   6.221   7.267  0.5627  0.1155 -0.0577
  531MOL0     C70000   3.068   6.279   7.134  0.5988 -0.2240  0.0998
  531MOL0     C70001   2.966   6.188   7.066 -0.6633 -0.7777 -0.4997
  531MOL0     C70002   2.915   6.249   6.936 -0.1171 -0.0279 -0.6794
  531MOL0     C70003   2.814   6.158   6.873 -0.0722  0.4146  0.5944
  531MOL0    Cl70004   2.903   6.041   6.782 -0.3785 -0.6259 -0.0672
  531MOL0     C70005   3.545   6.616   7.508 -0.4946 -0.0760  0.3378
  531MOL0     C70006   3.619   6.709   7.575 -0.0719 -0.3138 -0.6404
  531MOL0     O70007   3.658   6.680   7.931 -0.4247  0.3419  0.8211
  531MOL0     C70008   3.727   6.896   8.095  0.5920  0.3949 -0.0586
  531MOL0     C70009   3.792   6.996   8.176  0.4338  0.7218 -0.1460
  531MOL0     N70010   4.258   7.662   8.000 -0.9699 -0.0323 -0.1940
  531MOL0     N70011   4.331   7.770   8.010  0.2403  0.2020  0.1417
  531MOL0     C70012   5.584   8.090   7.920  0.4107 -0.0746 -0.6933
  531MOL0     C70013   5.699   8.163   7.907  0.4882  0.1101 -0.0384
  531MOL0     C70014   5.998   8.468   8.108  0.5508 -0.3524 -0.8604
  531MOL0     C70015   6.015   8.586   8.185 -0.0958  0.4614  0.2158
  531MOL0     C70016   6.146   8.623   8.229  0.0374 -0.3486  0.0578
  531MOL0     C70017   6.256   8.547   8.195  0.0353  0.6532 -0.2240
  531MOL0     O70018   6.380   8.584   8.223  0.7578 -0.0392 -0.2530
  531MOL0     C70019   6.491   8.491   8.222 -0.4010 -0.4402 -0.5776
  531MOL0     C70020   6.581   8.538   8.337  0.7888  0.6228  0.0684
  531MOL0     C70021   6.709   8.446   8.339 -0.1332 -0.3626  1.1614
  531MOL0     C70022   6.820   8.505   8.424 -1.2892 -0.9416 -0.5998
  531MOL0     C70023   6.929   8.405   8.449  0.5095 -1.2311 -0.1931
  531MOL0     C70024   7.008   8.313   8.463 -0.5117 -0.0256  0.4717
  531MOL0     C70025   6.233   8.441   8.116 -0.1413  0.5729  0.4709
  531MOL0     C70026   6.108   8.396   8.069  0.5916  0.3048 -0.2703
  531MOL0     H70027   5.718   8.260   8.230  0.7784  1.6382 -1.1232
  531MOL0     H70028   5.532   8.102   8.255  1.1464  0.2037  0.3665
  531MOL0     H70029   5.387   7.929   8.239  2.0137 -1.4719  0.7411
  531MOL0     H70030   5.387   7.815   8.103 -0.5083 -0.8860  1.7322
  531MOL0     H70031   5.158   7.834   8.200 -0.3314 -1.1764 -0.1459
  531MOL0     H70032   5.163   7.893   8.034 -0.9136 -0.8144  1.3148
  531MOL0     H70033   5.183   8.126   8.125  0.6794 -3.0516 -3.1325
  531MOL0     H70034   5.127   8.056   8.281 -1.4832 -1.7864 -0.1844
  531MOL0     H70035   4.921   8.119   8.130 -0.3513  0.8514 -0.0790
  531MOL0     H70036   5.001   8.048   7.996 -1.7097  3.8092  0.0252
  531MOL0     H70037   4.931   7.873   8.233  2.1082  1.2499 -0.4693
  531MOL0     H70038   4.944   7.825   8.070 -0.1116  1.4105 -0.4811
  531MOL0     H70039   4.759   7.970   8.001  0.8695  1.4776  0.4418
  531MOL0     H70040   4.717   7.999   8.177  0.0850  2.5351 -1.8107
  531MOL0     H70041   4.679   7.733   8.042 -0.0694 -0.5918  0.0580
  531MOL0     H70042   4.687   7.750   8.219 -0.4602  2.4656  1.6486
  531MOL0     H70043   4.509   7.929   8.047  1.1740 -0.3296 -0.4159
  531MOL0     H70044   4.499   7.894   8.222 -0.0940  1.3469  0.0128
  531MOL0     H70045   4.473   7.576   8.224 -3.4950 -3.3585  0.4665
  531MOL0     H70046   4.351   7.373   8.162  0.5615  0.3464 -0.5195
  531MOL0     H70047   4.216   7.374   8.046 -1.7455 -0.3045  1.2526
  531MOL0     H70048   4.104   7.537   8.210  0.9827 -0.3609 -1.1244
  531MOL0     H70049   4.235   7.491   8.327  0.4935 -1.0796 -0.1500
  531MOL0     H70050   4.156   7.276   8.362 -3.2840 -2.5060  1.6925
  531MOL0     H70051   4.008   7.369   8.347  0.6132 -0.5464  0.6590
  531MOL0     H70052   4.141   7.206   8.138 -0.1239  0.9838 -2.3451
  531MOL0     H70053   4.008   7.319   8.113  0.5361  1.0185  1.2936
  531MOL0     H70054   4.030   7.105   7.953 -0.3350 -1.8027 -0.7243
  531MOL0     H70055   3.934   6.905   7.829 -0.2975 -1.5418  0.6499
  531MOL0     H70056   3.826   6.497   7.748 -0.9522  1.1912  0.7509
  531MOL0     H70057   3.697   6.343   7.623 -0.2266  0.4089 -1.1663
  531MOL0     H70058   3.288   6.490   7.500  0.2789  0.7860  0.8700
  531MOL0     H70059   3.346   6.394   7.640  1.7034 -2.6562 -0.2146
  531MOL0     H70060   3.149   6.302   7.508  1.3949 -0.0793 -0.8156
  531MOL0     H70061   3.274   6.184   7.496  2.3846  0.6751 -0.2511
  531MOL0     H70062   3.319   6.246   7.264  0.6217  0.3843  0.9667
  531MOL0     H70063   3.249   6.393   7.285  2.8279  0.6099  2.8831
  531MOL0     H70064   3.132   6.115   7.257 -1.1960 -0.1992 -1.3752
  531MOL0     H70065   3.022   6.235   7.333  0.3475  0.7062 -0.4568
  531MOL0     H70066   3.152   6.290   7.066  0.4368 -3.6378 -0.8428
  531MOL0     H70067   3.023   6.378   7.147  0.3887 -0.5410  2.2283
  531MOL0     H70068   2.884   6.177   7.137 -0.1149  0.6841  0.3919
  531MOL0     H70069   3.023   6.095   7.052  0.4380 -0.3694  0.9934
  531MOL0     H70070   2.882   6.347   6.974 -2.8392 -1.3538  0.6562
  531MOL0     H70071   3.000   6.259   6.868 -0.3085 -1.3652 -1.1376
  531MOL0     H70072   2.755   6.207   6.795  0.7371  1.1502  0.4387
  531MOL0     H70073   2.747   6.115   6.948  0.8084 -1.6656  0.2490
  531MOL0     H70074   3.472   6.642   7.432  1.9389  0.5625 -1.9016
  531MOL0     H70075   3.612   6.817   7.564  3.7040 -0.1903 -4.2057
  531MOL0     H70076   3.650   6.832   8.136  1.5749 -1.0599 -0.4345
  531MOL0     H70077   3.756   7.019   8.276  1.1585 -0.9278  0.5257
  531MOL0     H70078   5.546   8.038   7.833  0.6051  2.3496 -2.3085
  531MOL0     H70079   5.745   8.161   7.809  0.8346  0.1232  0.1235
  531MOL0     H70080   5.925   8.644   8.205 -1.7548 -1.0597 -2.3820
  531MOL0     H70081   6.171   8.718   8.275  4.3988 -0.5766 -1.4010
  531MOL0     H70082   6.546   8.501   8.128  2.4823 -0.6311  0.9533
  531MOL0     H70083   6.470   8.386   8.244 -1.0540  0.0540  1.4207
  531MOL0     H70084   6.603   8.644   8.318  1.7589  0.4166 -0.0211
  531MOL0     H70085   6.530   8.535   8.434 -1.0367 -0.4519 -0.8993
  531MOL0     H70086   6.754   8.435   8.240  0.3462  2.1090  1.0550
  531MOL0     H70087   6.692   8.347   8.384  5.3851 -2.2555 -0.1988
  531MOL0     H70088   6.866   8.586   8.366  1.0149 -1.8015 -0.0869
  531MOL0     H70089   6.783   8.539   8.522 -0.8717 -0.9722 -0.4296
  531MOL0     H70090   7.080   8.233   8.464  0.6599  0.8893 -1.9842
  531MOL0     H70091   6.321   8.388   8.080  1.4415  3.7349 -0.6994
  531MOL0     H70092   6.099   8.307   8.008 -1.1741  0.9407 -1.0099
  532MOL0     O70093   0.625   9.380   9.830  0.3280  0.1901 -0.4455
  532MOL0     C70094   0.667   9.272   9.872 -1.5328 -0.7456  0.0986
  532MOL0     O70095   0.589   9.165   9.903  0.4554  0.4079 -0.0151
  532MOL0     C70096   0.454   9.179   9.894 -0.2376  0.1511  0.2284
  532MOL0     C70097   0.371   9.276   9.948  0.7899 -0.8794 -0.0286
  532MOL0     C70098   0.230   9.273   9.948  0.4736  0.2852  0.6678
  532MOL0     C70099   0.160   9.164   9.889 -0.4683 -0.3379  0.6073
  532MOL0     O70100   0.026   9.152   9.875 -0.0319  0.2487  0.0607
  532MOL0     C70101  -0.051   9.132   9.996 -0.2523  0.9416 -0.8171
  532MOL0     C70102  -0.080   9.268  10.051 -0.3970  0.5903  1.1846
  532MOL0     C70103  -0.226   9.288  10.093  0.8245 -0.4646 -0.4210
  532MOL0     C70104  -0.307   9.330   9.975  0.1396 -1.0221  0.9839
  532MOL0     C70105  -0.424   9.423  10.005 -0.1987 -0.0526 -0.5549
  532MOL0     C70106  -0.500   9.431   9.878  0.9406 -0.2754 -0.1891
  532MOL0     C70107  -0.620   9.530   9.889  1.0811  0.3836  0.0447
  532MOL0     C70108  -0.704   9.555   9.767  0.2142  0.2406 -0.0101
  532MOL0     N70109  -0.777   9.439   9.729  0.2994 -0.2944 -0.0477
  532MOL0     C70110  -0.888   9.381   9.790 -0.3518 -0.1637 -0.5428
  532MOL0     C70111  -0.906   9.262   9.722 -0.0645 -0.0518  0.0198
  532MOL0     C70112  -1.030   9.169   9.740  0.7486 -0.0795 -0.7464
  532MOL0     C70113  -1.038   9.115   9.885  0.3311 -0.0024 -0.1862
  532MOL0     C70114  -1.135   8.997   9.907  0.7441  0.2293  0.5442
  532MOL0     C70115  -1.277   9.003   9.842  0.2652  0.1292  0.0895
  532MOL0     O70116  -1.358   9.098   9.912  0.0514  0.2885  0.6665
  532MOL0     C70117  -1.472   9.132   9.849 -0.0857  0.9047  0.0605
  532MOL0     C70118  -1.544   9.072   9.737 -0.1726 -0.4888 -0.2234
  532MOL0     C70119  -1.673   9.121   9.708  0.0765 -0.5560  0.7561
  532MOL0     C70120  -1.739   9.218   9.780 -0.9676 -0.5213  0.6826
  532MOL0     C70121  -1.872   9.254   9.748 -0.1388 -0.6911 -0.6875
  532MOL0     O70122  -1.933   9.207   9.641  0.0049  0.4991 -0.6201
  532MOL0     C70123  -2.058   9.237   9.604 -0.6671  0.2055 -0.6234
  532MOL0     C70124  -2.167   9.246   9.692 -0.4239  0.6365  0.8676
  532MOL0     C70125  -2.290   9.291   9.653 -0.5047 -0.0888  1.1548
  532MOL0     C70126  -2.318   9.321   9.513 -0.7258 -0.0271  0.0772
  532MOL0     O70127  -2.443   9.375   9.479  0.6766  0.4935  0.1238
  532MOL0     C70128  -2.485   9.360   9.346 -0.8404 -0.1853 -0.2522
  532MOL0     C70129  -2.619   9.422   9.329 -0.0177  0.1772 -0.0659
  532MOL0     C70130  -2.729   9.333   9.381  0.1051 -0.0649 -0.0747
  532MOL0     C70131  -2.863   9.384   9.334  0.3358 -1.6024 -0.1632
  532MOL0     C70132  -2.959   9.266   9.303 -0.9823 -0.0018  0.4111
  532MOL0     C70133  -3.100   9.305   9.269  0.7952  0.1835 -0.6486
  532MOL0     C70134  -3.208   9.193   9.252 -0.3576  1.1781  0.4052
  532MOL0     C70135  -3.329   9.258   9.191 -0.3332 -0.2109 -0.3422
  532MOL0    Cl70136  -3.313   9.276   9.017  0.2233  0.0337  0.1440
  532MOL0     C70137  -2.209   9.288   9.426 -0.3925  0.4191 -0.7505
  532MOL0     C70138  -2.079   9.267   9.472  0.2478 -0.4749  0.3624
  532MOL0     O70139  -1.918   9.338   9.828  0.2043 -0.3603 -0.0039
  532MOL0     C70140  -1.662   9.276   9.893 -0.4811  0.8633 -0.3230
  532MOL0     C70141  -1.536   9.232   9.929  0.2379  0.1856 -0.5184
  532MOL0     N70142  -0.825   9.266   9.613  0.6983 -0.1284  0.3416
  532MOL0     N70143  -0.746   9.367   9.620  0.1894  0.4188  0.3699
  532MOL0     C70144   0.246   9.071   9.820 -1.1603  0.0455 -0.0846
  532MOL0     C70145   0.386   9.073   9.836  0.6024 -0.1561  0.5233
  532MOL0     C70146   0.803   9.252   9.901  0.5611 -0.6796 -0.4297
  532MOL0     C70147   0.890   9.357   9.925 -1.1067  0.0095 -0.2943
  532MOL0     C70148   1.030   9.333   9.947  0.3473 -0.2411  0.6422
  532MOL0     C70149   1.088   9.208   9.935 -0.1785 -0.0565 -0.5119
  532MOL0     O70150   1.219   9.184   9.972  0.3577 -0.5044 -0.0806
  532MOL0     C70151   1.319   9.285   9.996  0.6831 -0.2632 -0.1974
  532MOL0     C70152   1.454   9.215  10.028  0.2022  0.5442 -0.0271
  532MOL0     C70153   1.563   9.320  10.061  0.3557 -0.7209  0.3284
  532MOL0     C70154   1.658   9.351   9.946  0.8205 -0.9401 -0.2046
  532MOL0     C70155   1.593   9.417   9.827 -0.7306 -0.7377  0.8522
  532MOL0     C70156   1.552   9.470   9.723  0.4420 -0.8188  0.3504
  532MOL0     C70157   0.995   9.109   9.898 -0.6036  0.2144  0.5467
  532MOL0     C70158   0.860   9.126   9.884  0.3284 -0.7093 -0.2131
  532MOL0     H70159   0.422   9.359   9.997 -0.0909  0.7313 -1.6916
  532MOL0     H70160   0.177   9.358   9.992  0.3062  0.4660  0.1264
  532MOL0     H70161  -0.004   9.071  10.074 -0.6929  0.8683 -0.6039
  532MOL0     H70162  -0.140   9.070   9.982 -1.1157  1.8097  0.6034
  532MOL0     H70163  -0.056   9.336   9.968  0.1100 -0.5976  0.3289
  532MOL0     H70164  -0.010   9.275  10.134  1.0977 -2.4253  0.3262
  532MOL0     H70165  -0.207   9.368  10.165  0.9024  0.3107 -1.2806
  532MOL0     H70166  -0.264   9.197  10.140  0.9662  0.1626  0.9326
  532MOL0     H70167  -0.244   9.378   9.899  0.1025 -3.1761 -0.5017
  532MOL0     H70168  -0.355   9.238   9.940  2.5603 -1.6382 -1.0613
  532MOL0     H70169  -0.391   9.524  10.028 -0.2093  0.2363 -1.7460
  532MOL0     H70170  -0.470   9.364  10.085  3.0801 -0.2485  1.3640
  532MOL0     H70171  -0.526   9.332   9.840  5.3424 -2.1903  1.1803
  532MOL0     H70172  -0.442   9.487   9.803 -2.9450  1.4426 -2.1905
  532MOL0     H70173  -0.681   9.494   9.972  0.6208 -3.0619 -1.6061
  532MOL0     H70174  -0.581   9.627   9.920 -0.3552  0.5495  1.4414
  532MOL0     H70175  -0.638   9.578   9.683  1.9612 -0.8428  1.0137
  532MOL0     H70176  -0.772   9.637   9.794  2.4947  1.2996  3.1531
  532MOL0     H70177  -0.953   9.420   9.867 -0.7689 -1.4015 -0.2522
  532MOL0     H70178  -1.021   9.085   9.671  1.0373 -0.0310 -0.7683
  532MOL0     H70179  -1.123   9.224   9.721  1.5929  1.2848 -1.1193
  532MOL0     H70180  -1.071   9.201   9.944 -1.4508  0.0432 -1.1636
  532MOL0     H70181  -0.945   9.080   9.928  0.5342  0.9766  0.1946
  532MOL0     H70182  -1.090   8.908   9.862  0.2989  1.9298 -3.7973
  532MOL0     H70183  -1.144   8.974  10.014  0.5218 -2.1641  0.0722
  532MOL0     H70184  -1.323   8.907   9.867 -0.3082  0.2983 -0.3189
  532MOL0     H70185  -1.266   9.023   9.735 -2.8770 -0.7384 -0.4901
  532MOL0     H70186  -1.508   8.989   9.677  1.6655 -0.7846  1.1675
  532MOL0     H70187  -1.727   9.079   9.624 -3.7219  2.0746  1.5983
  532MOL0     H70188  -2.138   9.245   9.797  0.7686  1.7976  0.5726
  532MOL0     H70189  -2.363   9.318   9.728 -1.2075 -1.2724  0.9256
  532MOL0     H70190  -2.483   9.255   9.314 -1.8595  0.0191 -1.0626
  532MOL0     H70191  -2.419   9.417   9.280 -3.4685  0.5435 -2.4506
  532MOL0     H70192  -2.629   9.452   9.224 -2.3046  2.0296  0.5838
  532MOL0     H70193  -2.612   9.513   9.389  0.8512  0.0092  0.0910
  532MOL0     H70194  -2.736   9.333   9.490 -1.6119 -1.9958 -0.1196
  532MOL0     H70195  -2.707   9.230   9.353 -1.1415 -0.7475  1.3166
  532MOL0     H70196  -2.903   9.455   9.407  0.1280 -2.8815  1.0166
  532MOL0     H70197  -2.851   9.432   9.237  4.0130 -0.7489  0.5686
  532MOL0     H70198  -2.958   9.194   9.386 -0.9652  2.0331  2.2547
  532MOL0     H70199  -2.909   9.206   9.226 -0.3319 -2.6445  2.7243
  532MOL0     H70200  -3.091   9.355   9.172 -1.8561  0.4733 -0.8388
  532MOL0     H70201  -3.141   9.383   9.335  0.8220  1.0166 -1.5941
  532MOL0     H70202  -3.170   9.118   9.183 -1.8459  1.0842 -0.3630
  532MOL0     H70203  -3.237   9.147   9.347 -0.2005 -1.1347 -0.6224
  532MOL0     H70204  -3.353   9.354   9.238  2.0143  0.0419  0.4887
  532MOL0     H70205  -3.421   9.204   9.216  0.7959 -1.9524  0.1946
  532MOL0     H70206  -2.237   9.302   9.322 -1.2239 -2.1630 -0.9554
  532MOL0     H70207  -1.988   9.256   9.414  0.6060  0.7880  0.6522
  532MOL0     H70208  -1.705   9.353   9.957 -0.7069  2.0248 -1.8270
  532MOL0     H70209  -1.493   9.266  10.022 -1.6067 -3.2414  1.8138
  532MOL0     H70210   0.197   8.986   9.773 -1.0063 -1.5473  2.4476
  532MOL0     H70211   0.442   8.988   9.797 -1.5197 -2.5911  2.3963
  532MOL0     H70212   0.851   9.456   9.943 -0.8569  0.0696 -0.0806
  532MOL0     H70213   1.099   9.415   9.967 -2.2363  2.0551  0.7171
  532MOL0     H70214   1.288   9.347  10.081  2.2602 -2.5605  2.2027
  532MOL0     H70215   1.333   9.354   9.912  1.6783  0.2645  0.3913
  532MOL0     H70216   1.437   9.154  10.117 -1.2142  0.5469 -0.2747
  532MOL0     H70217   1.480   9.139   9.954 -0.0461 -1.3433  1.7458
  532MOL0     H70218   1.617   9.278  10.146 -0.5581  1.8724  2.3482
  532MOL0     H70219   1.518   9.413  10.098  0.2421 -0.7953  0.3760
  532MOL0     H70220   1.736   9.417   9.986  1.5913 -1.7278 -0.3571
  532MOL0     H70221   1.704   9.254   9.923  1.5886 -1.4325  2.9271
  532MOL0     H70222   1.525   9.511   9.628  2.1542  2.5684  1.1722
  532MOL0     H70223   1.036   9.008   9.901 -1.6812 -0.3092 -0.7281
  532MOL0     H70224   0.797   9.041   9.859  1.4449 -1.5256 -0.3427
  533MOL0     O70225   3.142   7.344  10.397  0.0745 -0.4942  0.3773
  533MOL0     C70226   3.217   7.276  10.318 -0.1433  0.5246 -0.9134
  533MOL0     O70227   3.173   7.185  10.224 -0.4703 -0.1268 -0.7758
  533MOL0     C70228   3.037   7.167  10.202  0.0310 -0.0442 -0.1749
  533MOL0     C70229   2.946   7.273  10.204  0.3158 -0.6144 -0.4308
  533MOL0     C70230   2.815   7.260  10.185  0.1778 -0.0441 -0.1583
  533MOL0     C70231   2.768   7.127  10.149 -0.6836 -0.3073  0.8675
  533MOL0     O70232   2.638   7.087  10.134  0.0277 -0.2371  0.8482
  533MOL0     C70233   2.535   7.186  10.149 -0.1982  0.6379  0.3375
  533MOL0     C70234   2.395   7.134  10.099 -0.9428  0.6607  0.4104
  533MOL0     C70235   2.290   7.231  10.149  0.4800  1.1279  0.2668
  533MOL0     C70236   2.155   7.165  10.168 -0.2253  0.7916 -0.5762
  533MOL0     C70237   2.077   7.137  10.042 -0.4448 -0.3214 -0.4011
  533MOL0     C70238   2.042   7.271   9.963  0.4597  0.0791  0.2401
  533MOL0     C70239   1.948   7.248   9.839  0.0700  0.5884 -1.1193
  533MOL0     C70240   2.021   7.165   9.728 -0.0744 -0.3441 -0.3421
  533MOL0     N70241   2.103   7.247   9.638  0.3304  0.4066  0.5269
  533MOL0     C70242   2.240   7.245   9.620  0.6710 -0.6476  0.4840
  533MOL0     C70243   2.264   7.343   9.523  0.4159  1.0429 -0.1005
  533MOL0     C70244   2.403   7.407   9.483  0.6650 -0.2925  0.5273
  533MOL0     C70245   2.519   7.343   9.544 -0.3973  0.4525  0.8787
  533MOL0     C70246   2.635   7.408   9.459  0.0946  0.2622  0.2964
  533MOL0     C70247   2.771   7.362   9.518 -0.1024 -0.3755  0.7978
  533MOL0     O70248   2.783   7.424   9.648  0.0835  0.1124 -0.0038
  533MOL0     C70249   2.900   7.452   9.705  0.9653  0.1083  0.2626
  533MOL0     C70250   2.898   7.497   9.841  0.5934  0.7159  1.0695
  533MOL0     C70251   3.014   7.486   9.919  0.1562 -0.2549  0.0556
  533MOL0     C70252   3.140   7.447   9.863 -0.9406 -0.3575  0.1101
  533MOL0     C70253   3.267   7.455   9.942  0.4156  1.1856 -0.3331
  533MOL0     O70254   3.260   7.536  10.043 -0.1891  0.9301 -0.0077
  533MOL0     C70255   3.363   7.598  10.110  0.1300  0.1096 -0.0613
  533MOL0     C70256   3.324   7.698  10.198 -0.0028  0.0235 -0.4160
  533MOL0     C70257   3.419   7.767  10.281 -0.1124  0.1260  0.6535
  533MOL0     C70258   3.556   7.746  10.255  0.4361  0.2666 -1.5157
  533MOL0     O70259   3.662   7.816  10.318  0.6350  0.2752  0.3232
  533MOL0     C70260   3.643   7.886  10.444  0.1913  0.6302  0.7380
  533MOL0     C70261   3.756   7.964  10.502 -0.2207  0.2783 -0.1895
  533MOL0     C70262   3.879   7.879  10.547 -0.5760 -0.0089  0.5743
  533MOL0     C70263   3.992   7.977  10.595  0.1799 -0.1508 -0.1239
  533MOL0     C70264   4.137   7.923  10.588 -0.2942  0.0927 -0.5356
  533MOL0     C70265   4.234   8.004  10.678 -1.2500  0.3129 -0.3327
  533MOL0     C70266   4.375   7.932  10.676  0.0170 -0.0112 -0.1726
  533MOL0     C70267   4.481   8.030  10.629 -0.3629  0.6273 -0.7681
  533MOL0    Cl70268   4.532   8.146  10.757 -0.3095 -0.0081 -0.2114
  533MOL0     C70269   3.596   7.657  10.159  0.4519  0.0830  0.3930
  533MOL0     C70270   3.503   7.588  10.085 -0.2714  0.4346 -0.5149
  533MOL0     O70271   3.369   7.399   9.900 -0.0724  0.0615 -0.2274
  533MOL0     C70272   3.144   7.416   9.726 -0.3987  0.2274 -0.2940
  533MOL0     C70273   3.026   7.409   9.655 -0.3293 -0.0260 -1.1931
  533MOL0     N70274   2.145   7.379   9.462  0.3662  0.0577 -0.6760
  533MOL0     N70275   2.047   7.335   9.542  0.4888 -0.2057  0.6354
  533MOL0     C70276   2.860   7.023  10.122  0.9848 -0.4161 -0.1333
  533MOL0     C70277   2.992   7.049  10.148 -0.0174  0.1971 -0.5488
  533MOL0     C70278   3.366   7.290  10.315 -0.3331  0.1024 -0.2754
  533MOL0     C70279   3.457   7.231  10.234 -0.3708  0.8994  0.2918
  533MOL0     C70280   3.587   7.262  10.234 -0.6691 -0.3658 -0.1987
  533MOL0     C70281   3.641   7.370  10.304 -0.8110  0.0591  0.5995
  533MOL0     O70282   3.775   7.402  10.289 -0.5587  0.6196  0.3653
  533MOL0     C70283   3.841   7.465  10.394 -0.2972  0.3487  0.5520
  533MOL0     C70284   3.999   7.471  10.354  0.4843  0.2594 -0.2755
  533MOL0     C70285   4.012   7.559  10.232 -0.3194 -0.3439 -0.0752
  533MOL0     C70286   4.153   7.564  10.175 -0.4773 -0.8412  0.5962
  533MOL0     C70287   4.243   7.627  10.265  0.2410 -0.0522  0.9699
  533MOL0     C70288   4.328   7.666  10.339 -0.1290  0.3791  0.1564
  533MOL0     C70289   3.554   7.433  10.391 -0.2790 -0.7482  0.1384
  533MOL0     C70290   3.419   7.396  10.396 -0.4480 -0.0334 -0.0903
  533MOL0     H70291   2.975   7.372  10.239 -2.0257 -0.4657  1.3131
  533MOL0     H70292   2.746   7.343  10.194 -0.1506 -0.5183  2.3456
  533MOL0     H70293   2.557   7.278  10.095 -1.1311  0.8421  0.2876
  533MOL0     H70294   2.522   7.216  10.254 -2.4246  2.1850 -0.3054
  533MOL0     H70295   2.375   7.035  10.143  0.8520 -0.3677 -0.9084
  533MOL0     H70296   2.399   7.113   9.992 -1.0166 -0.8036  0.6716
  533MOL0     H70297   2.293   7.313  10.077 -1.9536  0.0768 -1.1419
  533MOL0     H70298   2.317   7.272  10.247 -0.7515  1.0556  0.6542
  533MOL0     H70299   2.178   7.070  10.217 -1.7163 -0.1956 -1.6913
  533MOL0     H70300   2.089   7.227  10.229 -2.2863  0.0214 -1.9046
  533MOL0     H70301   1.982   7.100  10.082 -1.3555  2.2435  0.0352
  533MOL0     H70302   2.116   7.061   9.974 -1.4985 -1.0080 -0.2629
  533MOL0     H70303   2.132   7.319   9.922 -1.9833  1.7043 -3.7404
  533MOL0     H70304   2.010   7.353  10.027  0.2048  1.0011 -1.0345
  533MOL0     H70305   1.861   7.194   9.877  0.5068  2.0691  2.4313
  533MOL0     H70306   1.915   7.343   9.797  0.3787  1.5382  0.6646
  533MOL0     H70307   1.940   7.119   9.671  0.2521  0.5938 -1.5999
  533MOL0     H70308   2.086   7.086   9.767 -0.2311 -0.6119 -0.6150
  533MOL0     H70309   2.318   7.183   9.665  3.1449  1.2629 -0.9223
  533MOL0     H70310   2.393   7.512   9.511 -1.1625  0.5781 -2.8191
  533MOL0     H70311   2.399   7.422   9.375  1.1235 -0.0994  0.5347
  533MOL0     H70312   2.512   7.238   9.515 -0.9554  1.5268 -3.7563
  533MOL0     H70313   2.522   7.357   9.652 -3.5443  4.3182  0.6756
  533MOL0     H70314   2.627   7.368   9.358  0.2077  3.5341 -1.1216
  533MOL0     H70315   2.633   7.517   9.465  0.3608  0.2404  0.8794
  533MOL0     H70316   2.856   7.387   9.455 -0.7113 -1.5229 -0.5314
  533MOL0     H70317   2.772   7.254   9.530  0.2414 -0.6361 -1.2329
  533MOL0     H70318   2.802   7.530   9.879  0.3105  2.2924 -0.8486
  533MOL0     H70319   3.003   7.515  10.023 -0.6856  0.4177 -0.2046
  533MOL0     H70320   3.220   7.710  10.226 -0.0946 -0.4616 -0.5379
  533MOL0     H70321   3.396   7.843  10.355 -0.5712 -0.6983  1.3791
  533MOL0     H70322   3.628   7.805  10.516  0.9427 -0.6451 -0.4718
  533MOL0     H70323   3.550   7.940  10.425 -2.7041 -3.9009  0.3182
  533MOL0     H70324   3.720   8.013  10.593 -1.9933 -0.8214 -0.2587
  533MOL0     H70325   3.791   8.034  10.425  1.0918 -0.9086 -0.7138
  533MOL0     H70326   3.919   7.825  10.460 -1.5433 -0.6285  0.4929
  533MOL0     H70327   3.853   7.806  10.625 -1.9720  1.0915  1.1915
  533MOL0     H70328   3.983   8.074  10.546  3.2776 -0.2383 -1.0723
  533MOL0     H70329   3.968   7.998  10.700 -0.8332 -0.9046 -0.1883
  533MOL0     H70330   4.164   7.922  10.482 -0.2766 -0.7073 -0.5288
  533MOL0     H70331   4.137   7.823  10.632 -1.8162  0.1403 -0.3770
  533MOL0     H70332   4.220   8.011  10.787  0.3269  1.0760 -0.1459
  533MOL0     H70333   4.243   8.110  10.654 -0.4407  0.7708  1.7418
  533MOL0     H70334   4.399   7.884  10.772  1.3764 -1.0848 -1.0155
  533MOL0     H70335   4.373   7.845  10.610 -1.4795 -0.1208 -0.0090
  533MOL0     H70336   4.455   8.084  10.537  1.5666 -0.3905 -1.9715
  533MOL0     H70337   4.569   7.971  10.603  0.9172  1.1761  1.9348
  533MOL0     H70338   3.700   7.637  10.133  0.2384 -2.0751  1.0013
  533MOL0     H70339   3.539   7.522  10.007 -1.8488 -0.2433 -0.6961
  533MOL0     H70340   3.237   7.394   9.676 -1.0294  0.7368 -1.7442
  533MOL0     H70341   3.032   7.391   9.549 -0.0967 -2.6156 -0.7915
  533MOL0     H70342   2.829   6.926  10.086 -2.1262 -1.0360  3.6400
  533MOL0     H70343   3.078   6.982  10.149  2.7800  3.3805  2.1106
  533MOL0     H70344   3.420   7.144  10.181 -2.3041  2.0951 -0.4445
  533MOL0     H70345   3.653   7.209  10.165  1.1081  0.8084  0.5100
  533MOL0     H70346   3.824   7.408  10.485 -0.1694 -0.3337  0.1551
  533MOL0     H70347   3.804   7.566  10.415  1.4056  0.6469  2.4733
  533MOL0     H70348   4.059   7.514  10.435 -1.8471  0.7798  1.2904
  533MOL0     H70349   4.036   7.369  10.340  0.0516  0.3340 -2.2103
  533MOL0     H70350   3.971   7.659  10.247 -1.3520 -0.7456 -0.1355
  533MOL0     H70351   3.968   7.513  10.143  0.3753 -1.5180  0.1603
  533MOL0     H70352   4.195   7.465  10.151 -1.2154 -0.7057 -1.4677
  533MOL0     H70353   4.146   7.626  10.085 -2.5953 -0.6392  0.8584
  533MOL0     H70354   4.410   7.705  10.396  3.0074 -2.9751 -1.6290
  533MOL0     H70355   3.577   7.508  10.466 -0.4370 -1.2665  0.7101
  533MOL0     H70356   3.363   7.437  10.480  0.2389 -0.0007  0.3688
  534MOL0     O70357   7.342   0.035   2.753  0.0865 -0.2628  0.1746
  534MOL0     C70358   7.313  -0.004   2.637  0.1387 -0.8186 -0.3544
  534MOL0     O70359   7.189  -0.004   2.587 -0.7516  0.2200  0.1940
  534MOL0     C70360   7.078   0.058   2.636  0.4085 -0.1470  0.0193
  534MOL0     C70361   7.080   0.170   2.714 -0.4984 -0.2610 -0.1975
  534MOL0     C70362   6.963   0.226   2.760  0.2422  0.2082 -0.8789
  534MOL0     C70363   6.844   0.171   2.731  0.2117 -0.0514 -0.5050
  534MOL0     O70364   6.712   0.219   2.760 -0.0800 -0.1309 -0.2523
  534MOL0     C70365   6.707   0.333   2.852  0.4665  0.0823 -0.6198
  534MOL0     C70366   6.564   0.343   2.895 -0.1088  0.5741 -0.1124
  534MOL0     C70367   6.553   0.398   3.035 -0.1882 -0.7178  0.8030
  534MOL0     C70368   6.414   0.468   3.055 -0.0009 -0.2019  0.2419
  534MOL0     C70369   6.389   0.556   3.181  0.2881 -0.7017 -0.3932
  534MOL0     C70370   6.242   0.609   3.183 -0.1485  0.1166 -0.2075
  534MOL0     C70371   6.194   0.659   3.325  0.4169  0.3374 -0.0936
  534MOL0     C70372   6.058   0.723   3.340 -0.2561 -0.7156  0.7213
  534MOL0     N70373   5.947   0.636   3.304 -0.6052 -0.5245 -0.0136
  534MOL0     C70374   5.914   0.600   3.174  0.0458  0.1567  0.2794
  534MOL0     C70375   5.807   0.517   3.188 -0.3276 -0.1595  1.1477
  534MOL0     C70376   5.751   0.444   3.066 -0.7613 -0.0450  0.8933
  534MOL0     C70377   5.609   0.394   3.097 -0.3805  0.0094 -0.1543
  534MOL0     C70378   5.516   0.518   3.098 -0.0145 -0.0820  0.7330
  534MOL0     C70379   5.409   0.510   3.201 -0.2628 -0.0131  0.6241
  534MOL0     O70380   5.331   0.635   3.203  0.5081 -0.0125  0.6180
  534MOL0     C70381   5.217   0.642   3.277 -0.3732  0.3444  0.0810
  534MOL0     C70382   5.172   0.542   3.366  0.3283 -0.1281 -0.2490
  534MOL0     C70383   5.043   0.543   3.417 -0.7561  0.2313  0.3258
  534MOL0     C70384   4.962   0.653   3.389  0.4441  0.7396 -0.6256
  534MOL0     C70385   4.831   0.657   3.457  0.1175 -0.5162  0.6142
  534MOL0     O70386   4.808   0.562   3.551  0.6204 -1.0278 -0.9621
  534MOL0     C70387   4.683   0.537   3.599  0.0902 -0.0856  0.2385
  534MOL0     C70388   4.651   0.577   3.726 -0.0812  0.6959 -0.2699
  534MOL0     C70389   4.534   0.539   3.796  0.0350 -0.1657 -0.0453
  534MOL0     C70390   4.438   0.456   3.731  0.3990  0.6586  0.0771
  534MOL0     O70391   4.319   0.419   3.791 -0.1355 -0.3648  0.8286
  534MOL0     C70392   4.285   0.459   3.927  0.7771  0.4682 -0.4180
  534MOL0     C70393   4.136   0.416   3.965 -0.3912 -0.8702 -0.4835
  534MOL0     C70394   4.094   0.455   4.109  0.6967 -0.2656 -0.6285
  534MOL0     C70395   3.962   0.387   4.145  0.3182  0.2043  0.0652
  534MOL0     C70396   3.871   0.463   4.239 -0.3410  0.7770 -0.3217
  534MOL0     C70397   3.760   0.378   4.312  0.7704  1.3618  0.2403
  534MOL0     C70398   3.650   0.330   4.213  0.3797 -0.7718  0.6337
  534MOL0     C70399   3.512   0.289   4.277  0.0047 -0.3072 -0.3055
  534MOL0    Cl70400   3.420   0.424   4.348 -0.1356 -0.0435  0.1925
  534MOL0     C70401   4.473   0.411   3.598  0.1857 -0.5767 -0.1351
  534MOL0     C70402   4.595   0.447   3.526 -0.4001  0.1302  0.6345
  534MOL0     O70403   4.745   0.739   3.413  0.0714 -0.6471  0.6225
  534MOL0     C70404   5.007   0.755   3.303 -0.2134  0.1904 -0.1679
  534MOL0     C70405   5.138   0.752   3.250  0.6632 -0.1453  0.2030
  534MOL0     N70406   5.764   0.519   3.319 -0.7799 -0.1642 -0.6892
  534MOL0     N70407   5.856   0.580   3.387  0.5214 -0.2862  0.1543
  534MOL0     C70408   6.839   0.071   2.638 -0.4122  0.2854 -0.2920
  534MOL0     C70409   6.954   0.006   2.598 -0.0269  0.1809  0.5384
  534MOL0     C70410   7.407  -0.061   2.547  0.4160 -0.5903 -1.1977
  534MOL0     C70411   7.536  -0.081   2.582 -0.3601  0.3349  0.5565
  534MOL0     C70412   7.624  -0.142   2.491  0.1808  0.4174  0.3254
  534MOL0     C70413   7.585  -0.180   2.359 -0.2317 -0.4530 -1.1962
  534MOL0     O70414   7.660  -0.242   2.264 -0.3777  0.0359 -0.3096
  534MOL0     C70415   7.791  -0.285   2.301  0.2224  0.3306 -0.1073
  534MOL0     C70416   7.899  -0.178   2.285 -0.3232  0.6055 -1.3299
  534MOL0     C70417   8.043  -0.223   2.328 -0.2843 -0.3899 -0.6828
  534MOL0     C70418   8.146  -0.119   2.303  0.2400  0.1618 -1.3753
  534MOL0     C70419   8.284  -0.172   2.295  0.3101  0.7461 -0.5061
  534MOL0     C70420   8.395  -0.217   2.284  0.3788 -0.0595  0.0414
  534MOL0     C70421   7.454  -0.170   2.326 -0.1590 -0.7222  0.0049
  534MOL0     C70422   7.364  -0.111   2.420 -0.1803 -0.1305  0.3891
  534MOL0     H70423   7.173   0.210   2.753  0.0081  0.3190 -1.9100
  534MOL0     H70424   6.970   0.309   2.831  2.1146  1.5831 -2.5374
  534MOL0     H70425   6.739   0.427   2.806  0.9161  0.1596 -0.1659
  534MOL0     H70426   6.777   0.318   2.935 -0.0569  1.4458  0.0943
  534MOL0     H70427   6.510   0.248   2.882  0.5071 -0.0861  1.8523
  534MOL0     H70428   6.510   0.410   2.827  0.0073 -0.2865 -1.0764
  534MOL0     H70429   6.625   0.479   3.046  1.1586 -1.4361 -1.7472
  534MOL0     H70430   6.575   0.325   3.113  0.2977 -2.9678 -1.3086
  534MOL0     H70431   6.389   0.520   2.962 -0.3771 -3.2776 -1.5365
  534MOL0     H70432   6.340   0.387   3.053  1.6975 -1.8109 -0.9353
  534MOL0     H70433   6.466   0.633   3.187  2.0435 -2.4257  0.1757
  534MOL0     H70434   6.401   0.486   3.264 -1.2888 -0.2359  0.2713
  534MOL0     H70435   6.174   0.526   3.160 -3.4352  2.2297  1.1590
  534MOL0     H70436   6.215   0.685   3.110 -2.8470 -1.3028 -0.8221
  534MOL0     H70437   6.198   0.573   3.392  0.2004 -0.1730 -0.7297
  534MOL0     H70438   6.274   0.730   3.350  1.4636  0.0746 -2.4270
  534MOL0     H70439   6.061   0.810   3.274  3.3534 -2.0977 -1.2793
  534MOL0     H70440   6.036   0.753   3.442  2.7592  1.5220  0.8501
  534MOL0     H70441   5.970   0.624   3.084  2.9830  0.5677  2.0965
  534MOL0     H70442   5.819   0.364   3.038  0.0438  0.5415  1.1431
  534MOL0     H70443   5.750   0.519   2.986 -2.4110 -0.8727  0.0632
  534MOL0     H70444   5.611   0.343   3.194 -2.7276 -0.6794 -0.4265
  534MOL0     H70445   5.573   0.316   3.029 -2.2567 -1.5296  2.4219
  534MOL0     H70446   5.574   0.605   3.132  0.6016 -0.2831  0.2184
  534MOL0     H70447   5.477   0.529   2.996  0.8592  2.9362  0.6143
  534MOL0     H70448   5.463   0.490   3.294  1.1620  0.6609 -0.0253
  534MOL0     H70449   5.336   0.429   3.192 -1.8199  1.2024  1.8166
  534MOL0     H70450   5.232   0.454   3.386 -1.4511 -1.0294  1.3711
  534MOL0     H70451   5.011   0.455   3.472 -3.4778  0.8009 -0.2270
  534MOL0     H70452   4.708   0.648   3.785  2.1034  0.1246 -1.5890
  534MOL0     H70453   4.523   0.579   3.897 -0.1492 -2.4403  0.8861
  534MOL0     H70454   4.288   0.568   3.941 -0.4148  0.4977 -0.2392
  534MOL0     H70455   4.360   0.409   3.988  0.2345 -1.7829 -1.4733
  534MOL0     H70456   4.131   0.310   3.938  3.7477 -1.5872  0.7435
  534MOL0     H70457   4.065   0.475   3.907  1.0411  1.0411 -0.4082
  534MOL0     H70458   4.069   0.561   4.118 -0.0455 -0.3982 -1.0228
  534MOL0     H70459   4.172   0.433   4.183 -0.2258  0.9048  0.7249
  534MOL0     H70460   3.906   0.373   4.052  1.3911  1.5633 -0.8229
  534MOL0     H70461   3.997   0.292   4.184  4.9771  0.0724 -3.6319
  534MOL0     H70462   3.837   0.551   4.183  0.6354  1.6325  0.3874
  534MOL0     H70463   3.929   0.508   4.320 -1.1229  1.6136 -0.1953
  534MOL0     H70464   3.717   0.425   4.401  0.0287  1.2817 -0.0682
  534MOL0     H70465   3.819   0.292   4.346  1.1505  2.3832  2.3453
  534MOL0     H70466   3.624   0.409   4.141 -0.5743 -0.3941  1.3676
  534MOL0     H70467   3.680   0.243   4.154 -0.3311  1.0558 -2.6875
  534MOL0     H70468   3.532   0.206   4.345 -0.3283 -1.2405 -1.3214
  534MOL0     H70469   3.452   0.255   4.192  0.1848  2.9036 -1.8749
  534MOL0     H70470   4.404   0.340   3.553 -1.4391  1.0905 -0.3699
  534MOL0     H70471   4.613   0.409   3.426 -0.7711  1.6096 -0.0206
  534MOL0     H70472   4.931   0.827   3.275  0.8615  2.1678  1.6023
  534MOL0     H70473   5.164   0.832   3.181  0.2941 -1.2174 -1.2381
  534MOL0     H70474   6.741   0.026   2.630 -1.1036  1.6178  0.3037
  534MOL0     H70475   6.953  -0.080   2.532 -1.7133  1.7119 -1.5680
  534MOL0     H70476   7.576  -0.045   2.676  2.8701  0.1411 -0.6359
  534MOL0     H70477   7.729  -0.162   2.510  1.2832 -1.4547 -5.5336
  534MOL0     H70478   7.819  -0.360   2.227  2.5778  2.1489 -1.1982
  534MOL0     H70479   7.786  -0.336   2.398  2.0238  0.1276 -0.0905
  534MOL0     H70480   7.898  -0.164   2.176  0.3000  0.5899 -1.3452
  534MOL0     H70481   7.870  -0.092   2.346  2.4866  0.7434  0.0035
  534MOL0     H70482   8.057  -0.317   2.274  0.6080  1.1523 -3.3301
  534MOL0     H70483   8.030  -0.239   2.435  0.9668  0.1261 -0.4400
  534MOL0     H70484   8.138  -0.077   2.202  0.5882 -0.0946 -1.5125
  534MOL0     H70485   8.133  -0.041   2.379  1.5725 -2.0500  1.3165
  534MOL0     H70486   8.487  -0.256   2.245 -0.6425  0.3088 -2.9949
  534MOL0     H70487   7.415  -0.210   2.233  2.0223 -3.2484  0.0527
  534MOL0     H70488   7.258  -0.117   2.398 -0.5642 -0.2273  2.1151
  535MOL0     O70489   4.055   2.205   5.484 -0.1213 -0.5383  0.4672
  535MOL0     C70490   3.972   2.208   5.574  0.9158  0.1709  0.6149
  535MOL0     O70491   3.886   2.311   5.592  0.4110 -0.7054 -0.2988
  535MOL0     C70492   3.889   2.407   5.497 -0.1305 -0.2851 -0.3788
  535MOL0     C70493   4.002   2.481   5.472 -0.3926  0.0391 -0.5958
  535MOL0     C70494   4.013   2.579   5.377  0.9200  0.7526  0.2120
  535MOL0     C70495   3.904   2.594   5.295 -0.7930 -0.6058  0.3393
  535MOL0     O70496   3.896   2.685   5.189  0.3436 -0.2268  0.9397
  535MOL0     C70497   4.016   2.723   5.122 -1.2145  0.1593  0.3586
  535MOL0     C70498   3.971   2.798   5.002  0.1496 -0.4362  0.7545
  535MOL0     C70499   4.089   2.839   4.908  0.6553 -0.6815  0.1521
  535MOL0     C70500   4.194   2.926   4.990 -0.0389 -0.2458  0.2633
  535MOL0     C70501   4.312   2.947   4.893  0.2165 -0.2610 -0.8596
  535MOL0     C70502   4.397   3.062   4.945  0.4068  0.7691 -0.2977
  535MOL0     C70503   4.513   3.082   4.846 -0.1302  0.7882  0.3633
  535MOL0     C70504   4.609   3.203   4.891  0.2229  0.2418  0.3095
  535MOL0     N70505   4.521   3.327   4.910 -0.1882 -0.4853  0.8585
  535MOL0     C70506   4.509   3.418   4.801 -0.5985 -0.2220 -0.0302
  535MOL0     C70507   4.450   3.527   4.862 -0.7930 -0.0151 -0.1599
  535MOL0     C70508   4.411   3.659   4.801 -0.5862 -0.2043  0.7826
  535MOL0     C70509   4.278   3.726   4.833 -0.5157 -0.3774 -0.1228
  535MOL0     C70510   4.159   3.633   4.800  0.4754  0.5938  0.1221
  535MOL0     C70511   4.026   3.680   4.864  0.2377  0.5873  0.2312
  535MOL0     O70512   3.902   3.648   4.793  0.1363 -0.1091  1.4076
  535MOL0     C70513   3.774   3.641   4.839 -0.5592  0.3439  0.4351
  535MOL0     C70514   3.692   3.575   4.758  0.5624 -0.0440 -0.6394
  535MOL0     C70515   3.568   3.530   4.801  0.3379 -0.0771  0.4167
  535MOL0     C70516   3.524   3.575   4.928  0.1841  0.6566  0.2324
  535MOL0     C70517   3.386   3.536   4.976  0.7995 -0.5808 -0.0748
  535MOL0     O70518   3.335   3.590   5.087 -0.1485 -0.5057 -0.4143
  535MOL0     C70519   3.198   3.586   5.121 -0.2124  0.9102  0.3267
  535MOL0     C70520   3.094   3.582   5.028  0.1146  0.1040  0.2630
  535MOL0     C70521   2.958   3.576   5.065 -0.6212  0.2629 -0.2709
  535MOL0     C70522   2.926   3.581   5.204  0.1983  0.5830  0.0359
  535MOL0     O70523   2.793   3.559   5.244  0.6766  0.4883  0.0593
  535MOL0     C70524   2.687   3.641   5.186 -0.1791 -0.3199 -0.2060
  535MOL0     C70525   2.569   3.622   5.278 -0.3663  0.2631  0.2296
  535MOL0     C70526   2.466   3.729   5.250 -0.1934 -0.2930 -0.3919
  535MOL0     C70527   2.330   3.686   5.303 -0.4087  0.8333  0.4645
  535MOL0     C70528   2.235   3.798   5.257  0.1913 -0.2230  0.1940
  535MOL0     C70529   2.087   3.747   5.264 -0.1027  0.6807 -0.1245
  535MOL0     C70530   2.053   3.694   5.407  0.5418  0.6589  0.1771
  535MOL0     C70531   1.900   3.696   5.436  0.5213  0.2786 -0.3485
  535MOL0    Cl70532   1.825   3.567   5.346 -0.1206 -0.3823  0.2339
  535MOL0     C70533   3.034   3.595   5.297 -0.2178  0.2612 -0.4037
  535MOL0     C70534   3.167   3.589   5.254  0.2723  0.4312  0.5388
  535MOL0     O70535   3.327   3.445   4.918  0.5108 -0.4524  0.2887
  535MOL0     C70536   3.599   3.664   5.007  0.4868 -0.8128 -0.3791
  535MOL0     C70537   3.729   3.702   4.955  0.0684 -0.1847  0.7309
  535MOL0     N70538   4.432   3.499   4.991 -0.4889 -0.2316 -0.6052
  535MOL0     N70539   4.475   3.380   5.025  0.2097 -0.4006 -0.9993
  535MOL0     C70540   3.782   2.528   5.333 -0.2173  0.3390 -0.0634
  535MOL0     C70541   3.771   2.427   5.425  0.5193 -0.4234 -0.4144
  535MOL0     C70542   3.965   2.099   5.670  0.0634  0.1086  0.5745
  535MOL0     C70543   4.085   2.040   5.717 -0.5222  0.6926 -0.2403
  535MOL0     C70544   4.085   1.934   5.812  0.0181  0.1225  0.2570
  535MOL0     C70545   3.964   1.893   5.862  0.7227 -0.6625 -0.3692
  535MOL0     O70546   3.956   1.797   5.963  0.1433  0.4630  0.0002
  535MOL0     C70547   4.036   1.807   6.074  0.1798  0.3910  0.2744
  535MOL0     C70548   3.997   1.707   6.177  0.3455 -0.1338  0.0022
  535MOL0     C70549   3.868   1.747   6.240 -0.0010 -0.2860 -0.0176
  535MOL0     C70550   3.820   1.663   6.354 -0.5324 -1.0568  0.3734
  535MOL0     C70551   3.791   1.530   6.304 -0.0940  1.0301  0.0055
  535MOL0     C70552   3.762   1.415   6.268 -0.1865 -0.3967 -1.0113
  535MOL0     C70553   3.846   1.956   5.815 -0.6670  0.7190 -0.3486
  535MOL0     C70554   3.841   2.061   5.726 -0.6418  0.6327  0.5743
  535MOL0     H70555   4.093   2.465   5.528 -0.4673 -0.1930 -0.5403
  535MOL0     H70556   4.094   2.650   5.370  2.0741 -0.6281 -1.1759
  535MOL0     H70557   4.064   2.627   5.099 -1.1638 -0.6661  3.4924
  535MOL0     H70558   4.083   2.780   5.187 -1.3212  1.0618 -0.2993
  535MOL0     H70559   3.911   2.886   5.024  0.6953  0.6361 -1.6892
  535MOL0     H70560   3.904   2.735   4.944 -1.9802  2.9623 -0.7660
  535MOL0     H70561   4.059   2.897   4.820  0.2401 -1.5173 -0.2631
  535MOL0     H70562   4.143   2.754   4.867  1.0962 -0.2660 -0.1430
  535MOL0     H70563   4.140   3.015   5.023 -0.7474 -0.6411  0.1965
  535MOL0     H70564   4.230   2.867   5.074  1.8597  1.6062  0.8417
  535MOL0     H70565   4.277   2.978   4.794  1.6818  0.5938 -1.1460
  535MOL0     H70566   4.364   2.853   4.874  0.3807 -0.4526  0.4624
  535MOL0     H70567   4.431   3.036   5.046 -0.3783  1.5240  0.1767
  535MOL0     H70568   4.334   3.151   4.956  0.4275  0.6019  1.4319
  535MOL0     H70569   4.570   2.988   4.847 -1.8792 -0.4932  4.9090
  535MOL0     H70570   4.482   3.096   4.742  1.3041 -0.5464 -0.2983
  535MOL0     H70571   4.675   3.236   4.810  0.0449  1.8778  0.7838
  535MOL0     H70572   4.669   3.186   4.981 -0.2869 -1.7120  0.3199
  535MOL0     H70573   4.554   3.417   4.703 -1.6214  3.5409 -0.7133
  535MOL0     H70574   4.418   3.647   4.693 -1.8348 -1.5486  0.8271
  535MOL0     H70575   4.490   3.729   4.831 -0.1080  0.3525 -1.5952
  535MOL0     H70576   4.256   3.820   4.783  0.0284  0.7134  1.6054
  535MOL0     H70577   4.273   3.738   4.942 -2.7201 -2.6508  0.1405
  535MOL0     H70578   4.139   3.619   4.694  2.5437 -2.8456  0.0476
  535MOL0     H70579   4.179   3.533   4.840  1.5735  0.8394  0.2146
  535MOL0     H70580   4.027   3.789   4.868  2.2592  0.6897 -1.5140
  535MOL0     H70581   4.025   3.649   4.969  1.4247  3.4260  1.1813
  535MOL0     H70582   3.732   3.538   4.664  0.4056 -1.5312 -0.1575
  535MOL0     H70583   3.512   3.455   4.746  1.9768 -1.6720  0.8117
  535MOL0     H70584   3.110   3.590   4.921  1.1717  1.9545  0.5154
  535MOL0     H70585   2.885   3.577   4.984 -2.4976 -1.8985  1.2533
  535MOL0     H70586   2.672   3.622   5.079  0.7458  0.3960 -0.4727
  535MOL0     H70587   2.731   3.740   5.196 -1.3461 -0.0207  3.7392
  535MOL0     H70588   2.609   3.634   5.379  4.4039  0.8008 -1.4543
  535MOL0     H70589   2.529   3.521   5.269 -1.3645  0.5987  0.7492
  535MOL0     H70590   2.458   3.749   5.142  1.0464  2.8833  0.0169
  535MOL0     H70591   2.481   3.831   5.287  1.2424 -0.2036 -1.1524
  535MOL0     H70592   2.302   3.587   5.267  1.6650  0.3038  0.1627
  535MOL0     H70593   2.334   3.680   5.413  1.3543  2.0863  0.5182
  535MOL0     H70594   2.258   3.842   5.160  1.0632 -0.8249  0.1116
  535MOL0     H70595   2.248   3.897   5.302  2.3151  0.0373 -0.8498
  535MOL0     H70596   2.071   3.670   5.189  0.8975  0.5077 -0.1695
  535MOL0     H70597   2.038   3.840   5.234  3.0978  2.0716 -1.5394
  535MOL0     H70598   2.104   3.599   5.424  1.2297  1.0556  0.4044
  535MOL0     H70599   2.097   3.766   5.477  0.6399 -1.3002  2.2217
  535MOL0     H70600   1.853   3.791   5.412  2.8813  2.5697  3.1859
  535MOL0     H70601   1.895   3.694   5.545  2.3458  0.0879 -0.2276
  535MOL0     H70602   3.022   3.600   5.404  2.8291 -0.5402  0.0515
  535MOL0     H70603   3.249   3.572   5.324 -1.2772 -3.0745  1.7080
  535MOL0     H70604   3.575   3.694   5.108  0.9708 -0.4523 -0.3666
  535MOL0     H70605   3.793   3.746   5.031  0.9011 -1.7618  0.9836
  535MOL0     H70606   3.693   2.567   5.285  0.8033  2.6423 -0.2131
  535MOL0     H70607   3.674   2.393   5.460 -0.7249  4.0304  1.1819
  535MOL0     H70608   4.182   2.073   5.682 -2.2131  3.8529 -2.4453
  535MOL0     H70609   4.174   1.875   5.834  0.2978  0.9222  1.3486
  535MOL0     H70610   4.048   1.913   6.099 -0.5458  0.4883  0.2398
  535MOL0     H70611   4.131   1.763   6.041 -0.4738 -1.0504  0.2056
  535MOL0     H70612   3.990   1.603   6.144  1.3739 -0.4302  0.6588
  535MOL0     H70613   4.072   1.709   6.257  0.1517  2.1353  0.1929
  535MOL0     H70614   3.791   1.767   6.165 -1.6007  1.8638  2.0511
  535MOL0     H70615   3.876   1.840   6.297 -1.3675  0.0475 -0.3251
  535MOL0     H70616   3.901   1.657   6.428  1.0593  2.6602 -0.8609
  535MOL0     H70617   3.726   1.705   6.388 -0.4191  0.2824 -0.8905
  535MOL0     H70618   3.727   1.317   6.242 -2.8644  0.5116 -1.0324
  535MOL0     H70619   3.753   1.929   5.864 -0.0406 -1.8648 -0.4325
  535MOL0     H70620   3.745   2.104   5.698  0.2452  1.5520 -1.1831
  536MOL0     O70621   7.263   5.767   5.168 -0.7902 -0.2768 -0.2075
  536MOL0     C70622   7.316   5.716   5.068 -0.9211  0.3534 -0.1670
  536MOL0     O70623   7.285   5.734   4.935  0.6920  0.6993 -0.4268
  536MOL0     C70624   7.186   5.820   4.906  0.2379 -0.4472  0.5055
  536MOL0     C70625   7.202   5.958   4.889 -0.4569 -0.7788  0.5753
  536MOL0     C70626   7.096   6.032   4.836 -0.2582  0.3402  0.5776
  536MOL0     C70627   6.984   5.974   4.778  0.6553 -0.3480 -0.9489
  536MOL0     O70628   6.889   6.046   4.710  0.0592 -0.2809  0.8592
  536MOL0     C70629   6.903   6.187   4.713  0.3056 -0.8249 -0.6128
  536MOL0     C70630   6.772   6.246   4.662 -0.6094 -0.5747 -0.0273
  536MOL0     C70631   6.659   6.212   4.751 -0.2739  0.0434 -0.9547
  536MOL0     C70632   6.531   6.274   4.706  0.0056  0.0357 -0.2185
  536MOL0     C70633   6.422   6.274   4.809  0.0016 -0.2919 -0.5271
  536MOL0     C70634   6.374   6.136   4.852 -0.1905 -0.1872 -0.2510
  536MOL0     C70635   6.248   6.160   4.932  0.1013  0.4045  0.0030
  536MOL0     C70636   6.129   6.066   4.897  0.0664  0.0938  0.5436
  536MOL0     N70637   6.156   5.932   4.938  0.0596  0.0856 -0.2378
  536MOL0     C70638   6.137   5.817   4.867 -0.1163 -0.2846  0.4983
  536MOL0     C70639   6.169   5.711   4.952  0.5986  0.2869  0.3938
  536MOL0     C70640   6.167   5.567   4.912 -0.4386 -0.0807 -0.3132
  536MOL0     C70641   6.082   5.475   5.005  0.5097 -0.2289  0.3701
  536MOL0     C70642   5.935   5.497   4.981  0.5555 -0.0906 -0.1406
  536MOL0     C70643   5.837   5.422   5.066 -0.5399  0.1814  0.0407
  536MOL0     O70644   5.709   5.463   5.021 -0.3545 -0.4987 -0.1168
  536MOL0     C70645   5.596   5.409   5.073  0.7709 -0.7399 -0.7472
  536MOL0     C70646   5.472   5.435   5.022  0.4629  0.1746 -0.1547
  536MOL0     C70647   5.353   5.391   5.074  1.4163  0.4654  0.5673
  536MOL0     C70648   5.347   5.295   5.172 -0.0048 -0.0820  0.4158
  536MOL0     C70649   5.224   5.215   5.212  0.5013  0.3621 -0.2007
  536MOL0     O70650   5.119   5.212   5.121  0.4140 -0.9673  0.5915
  536MOL0     C70651   4.996   5.161   5.165  0.5358 -0.9840 -0.1876
  536MOL0     C70652   4.975   5.028   5.203 -0.3268 -1.0610  0.0292
  536MOL0     C70653   4.836   4.986   5.222 -0.5437  0.0924 -0.6143
  536MOL0     C70654   4.734   5.077   5.214  0.2777 -0.0524 -0.1713
  536MOL0     O70655   4.608   5.029   5.244 -0.1979  0.5423  0.0440
  536MOL0     C70656   4.493   5.122   5.222  0.9012 -0.0372  0.3037
  536MOL0     C70657   4.361   5.072   5.279 -0.1666  0.3192  0.5392
  536MOL0     C70658   4.322   4.924   5.245  0.0606  0.4555 -0.9184
  536MOL0     C70659   4.209   4.863   5.329  1.2788 -0.5693 -0.3889
  536MOL0     C70660   4.175   4.722   5.287 -0.3227 -0.1325  0.1574
  536MOL0     C70661   4.101   4.642   5.392 -0.4023 -0.6674  0.3600
  536MOL0     C70662   4.032   4.523   5.331  0.0233  0.6724 -0.3518
  536MOL0     C70663   3.988   4.433   5.442 -1.1863 -0.2187 -0.8701
  536MOL0    Cl70664   3.982   4.267   5.381  0.1046  0.2420 -0.0719
  536MOL0     C70665   4.755   5.209   5.174  0.9738 -0.0910 -0.8389
  536MOL0     C70666   4.888   5.246   5.137  0.2540  0.4553  0.0169
  536MOL0     O70667   5.224   5.174   5.327  0.3554  0.5310 -0.8747
  536MOL0     C70668   5.473   5.257   5.222  0.3729 -0.5362  0.0377
  536MOL0     C70669   5.594   5.315   5.181 -0.1728 -0.3869  0.5187
  536MOL0     N70670   6.190   5.772   5.071  0.7451 -0.2837 -0.2718
  536MOL0     N70671   6.174   5.900   5.066 -0.0123  0.6049  0.4016
  536MOL0     C70672   6.970   5.841   4.793  0.3694  0.6506  0.2406
  536MOL0     C70673   7.064   5.762   4.866 -0.7614  0.2974  0.5031
  536MOL0     C70674   7.413   5.601   5.088  0.4708  0.3518 -0.5853
  536MOL0     C70675   7.455   5.554   5.219 -0.1673 -0.5681 -0.6149
  536MOL0     C70676   7.552   5.459   5.227  0.2421  0.3275 -0.0112
  536MOL0     C70677   7.605   5.397   5.111 -0.2361  0.4790  0.3266
  536MOL0     O70678   7.710   5.318   5.138 -0.3183 -0.8517 -0.3502
  536MOL0     C70679   7.814   5.309   5.037 -0.4198 -0.4103  0.7304
  536MOL0     C70680   7.936   5.246   5.110 -0.5852 -0.1788  0.0573
  536MOL0     C70681   7.971   5.314   5.237 -1.2893  0.4482  0.1670
  536MOL0     C70682   8.017   5.463   5.209 -0.2207 -0.3304 -0.5927
  536MOL0     C70683   8.128   5.472   5.113  0.0502  0.7190  0.0828
  536MOL0     C70684   8.234   5.478   5.051  0.5949  0.0782 -0.3475
  536MOL0     C70685   7.567   5.444   4.989 -0.0763 -0.4021  0.3459
  536MOL0     C70686   7.469   5.539   4.978 -0.4827 -0.4147 -0.3289
  536MOL0     H70687   7.291   6.012   4.920  0.3962 -1.0970 -1.1862
  536MOL0     H70688   7.117   6.139   4.828  2.4864 -0.0493  1.4585
  536MOL0     H70689   6.985   6.224   4.651  0.7623  0.7194  0.8508
  536MOL0     H70690   6.918   6.215   4.818 -0.2937 -2.5806 -0.0207
  536MOL0     H70691   6.759   6.202   4.563  0.0014  0.8234 -0.7541
  536MOL0     H70692   6.792   6.353   4.654  0.5639 -0.4159  3.2854
  536MOL0     H70693   6.678   6.231   4.857 -0.2050 -0.0205 -0.9553
  536MOL0     H70694   6.658   6.103   4.744 -0.3475  0.0071 -0.4067
  536MOL0     H70695   6.534   6.382   4.690  0.6168 -0.1805 -1.7790
  536MOL0     H70696   6.481   6.223   4.623 -2.6576 -0.9216  1.8362
  536MOL0     H70697   6.342   6.335   4.765  1.2608  1.8497  0.0319
  536MOL0     H70698   6.461   6.324   4.898 -2.1387 -1.1222  0.9764
  536MOL0     H70699   6.446   6.073   4.906  0.0208  0.1329 -0.1548
  536MOL0     H70700   6.334   6.076   4.770 -3.4792  1.7152 -0.1975
  536MOL0     H70701   6.273   6.148   5.037  2.9593 -1.2299 -0.7675
  536MOL0     H70702   6.214   6.264   4.930 -1.1017  0.0340 -1.5728
  536MOL0     H70703   6.116   6.078   4.789 -0.1091 -0.0787  0.5445
  536MOL0     H70704   6.035   6.097   4.944  1.9980  1.8959  3.4895
  536MOL0     H70705   6.116   5.814   4.760 -0.1411 -0.1011  0.4960
  536MOL0     H70706   6.273   5.544   4.915  0.7245  4.4481  0.8583
  536MOL0     H70707   6.130   5.563   4.809  0.6176 -0.7466 -0.6837
  536MOL0     H70708   6.111   5.496   5.109  0.6972  3.0674 -0.2403
  536MOL0     H70709   6.101   5.370   4.983 -1.3616 -0.5705  0.2350
  536MOL0     H70710   5.921   5.605   4.992  0.8044 -0.2492  2.4412
  536MOL0     H70711   5.910   5.462   4.881  0.0405 -1.5153  0.4625
  536MOL0     H70712   5.848   5.465   5.166 -0.7515 -0.2465  0.2542
  536MOL0     H70713   5.859   5.315   5.070  0.5130  0.4035  3.1948
  536MOL0     H70714   5.478   5.476   4.922  1.9927 -1.5756 -0.8594
  536MOL0     H70715   5.264   5.427   5.023  2.4078 -1.7773 -3.1685
  536MOL0     H70716   5.064   4.967   5.219  0.3280  0.0822  0.8286
  536MOL0     H70717   4.818   4.881   5.241  0.1685  0.3174  1.4614
  536MOL0     H70718   4.480   5.144   5.116 -0.7383  2.3516  0.9100
  536MOL0     H70719   4.514   5.219   5.268 -0.4903 -0.0001  0.9156
  536MOL0     H70720   4.278   5.139   5.251  0.4329  1.8630  2.2888
  536MOL0     H70721   4.375   5.082   5.387  0.6909 -1.7490  0.6426
  536MOL0     H70722   4.416   4.867   5.247  0.6601  1.4268  0.1943
  536MOL0     H70723   4.284   4.912   5.143 -1.6359  1.9632 -0.5095
  536MOL0     H70724   4.253   4.859   5.429  2.7892 -1.9610 -1.0397
  536MOL0     H70725   4.126   4.933   5.332  0.0936 -1.9341  0.1096
  536MOL0     H70726   4.269   4.671   5.263 -0.2993  1.2685 -3.4272
  536MOL0     H70727   4.114   4.736   5.197 -1.5077  0.4310  1.0260
  536MOL0     H70728   4.031   4.713   5.436  1.8036  2.6833 -1.1866
  536MOL0     H70729   4.170   4.606   5.469  0.2563  1.7919  1.0152
  536MOL0     H70730   3.948   4.551   5.267 -0.7539 -0.7139  0.0302
  536MOL0     H70731   4.111   4.479   5.270  1.1670  1.1011  0.7589
  536MOL0     H70732   3.895   4.464   5.491 -1.4583  0.6690 -1.9356
  536MOL0     H70733   4.065   4.431   5.520 -1.3460  0.7744 -0.6775
  536MOL0     H70734   4.680   5.286   5.162  0.0927 -0.6692  0.6385
  536MOL0     H70735   4.913   5.337   5.082  2.3604 -0.1476 -0.1014
  536MOL0     H70736   5.468   5.176   5.294  0.8995 -1.1073 -0.5613
  536MOL0     H70737   5.693   5.286   5.213  0.6769 -0.8420 -2.2732
  536MOL0     H70738   6.874   5.801   4.760  0.9084 -2.1023  1.7342
  536MOL0     H70739   7.047   5.656   4.884  2.0299  0.1908  3.4634
  536MOL0     H70740   7.411   5.592   5.310  0.8420  0.6742 -0.6125
  536MOL0     H70741   7.588   5.439   5.328  1.5971  2.1303 -0.0788
  536MOL0     H70742   7.853   5.406   5.004  3.0805 -1.7906  0.4162
  536MOL0     H70743   7.788   5.251   4.948 -0.8863  1.4253 -0.3751
  536MOL0     H70744   7.903   5.143   5.129 -0.8340 -0.1213 -0.0596
  536MOL0     H70745   8.030   5.245   5.055 -0.1479 -3.1849  0.6616
  536MOL0     H70746   8.059   5.269   5.284 -0.0114  1.1917 -1.4311
  536MOL0     H70747   7.889   5.317   5.310  0.0365  0.3529  1.7332
  536MOL0     H70748   7.932   5.526   5.182 -0.4884  0.2735  1.4820
  536MOL0     H70749   8.048   5.508   5.303  2.1720  0.4896 -1.7061
  536MOL0     H70750   8.314   5.493   4.981 -1.0253  2.0055 -1.9315
  536MOL0     H70751   7.609   5.435   4.889 -0.4602 -0.6677  0.2062
  536MOL0     H70752   7.443   5.558   4.874  0.3321  0.5646 -0.3673
  537MOL0     O70753   7.008   1.622   6.133 -0.5167 -0.0135  0.4867
  537MOL0     C70754   7.023   1.562   6.239  0.3047 -0.0174 -0.1081
  537MOL0     O70755   6.929   1.486   6.300  0.0992  0.4180 -0.3770
  537MOL0     C70756   6.799   1.475   6.246  0.1555  0.5700 -0.0397
  537MOL0     C70757   6.731   1.371   6.303 -0.0421 -0.4085  0.1705
  537MOL0     C70758   6.601   1.333   6.259 -0.4748  0.1315  0.2181
  537MOL0     C70759   6.537   1.407   6.161 -0.1761  1.0853  0.5999
  537MOL0     O70760   6.418   1.360   6.119 -0.4395 -0.6243  0.0324
  537MOL0     C70761   6.317   1.457   6.147  0.1836  0.2774  0.1712
  537MOL0     C70762   6.187   1.393   6.130  0.4339  0.8881  0.0623
  537MOL0     C70763   6.148   1.367   5.981 -0.6148  0.1286  0.3512
  537MOL0     C70764   6.023   1.286   5.970 -0.4763 -0.2796  0.1828
  537MOL0     C70765   5.982   1.261   5.829  0.1248  0.0208  0.2267
  537MOL0     C70766   5.870   1.163   5.828 -0.4226  0.2123  0.4354
  537MOL0     C70767   5.824   1.148   5.683 -0.4470  1.0687  0.5641
  537MOL0     C70768   5.715   1.028   5.672  0.3797 -0.4722  0.4330
  537MOL0     N70769   5.699   0.948   5.791 -0.8097 -0.8638  0.7613
  537MOL0     C70770   5.606   0.966   5.890 -0.0515 -0.0976  0.3214
  537MOL0     C70771   5.617   0.858   5.980  0.6046 -0.1229  0.1889
  537MOL0     C70772   5.534   0.833   6.103  0.2356 -0.4728 -0.6826
  537MOL0     C70773   5.378   0.826   6.080  0.5858  0.2636 -0.4112
  537MOL0     C70774   5.343   0.716   5.979  0.0525 -0.1458  1.0265
  537MOL0     C70775   5.183   0.698   5.982 -0.0363 -0.1046 -0.4776
  537MOL0     O70776   5.128   0.816   5.924 -0.5661  0.3032  0.0065
  537MOL0     C70777   4.990   0.831   5.940 -0.6122 -0.2804 -0.1988
  537MOL0     C70778   4.941   0.942   5.880  0.8333 -0.3726  0.3669
  537MOL0     C70779   4.809   0.980   5.891  0.6368  0.7878  0.2871
  537MOL0     C70780   4.716   0.897   5.955 -0.2157  0.1222 -0.2336
  537MOL0     C70781   4.571   0.929   5.963  0.3642 -0.5855 -0.0756
  537MOL0     O70782   4.492   0.856   6.049  0.2015 -0.5184  0.3240
  537MOL0     C70783   4.356   0.887   6.050 -0.6300 -0.1767  0.2603
  537MOL0     C70784   4.266   0.787   6.028 -0.1805 -1.4885 -0.1969
  537MOL0     C70785   4.130   0.819   6.022  0.3460  0.6265 -0.3271
  537MOL0     C70786   4.089   0.956   6.045 -1.0115  0.2016  0.3930
  537MOL0     O70787   3.959   0.995   6.036 -0.4188  0.2019 -0.1949
  537MOL0     C70788   3.913   1.018   5.893  0.2561  0.3712  0.4128
  537MOL0     C70789   3.785   1.100   5.900 -0.4938 -0.4167 -0.1518
  537MOL0     C70790   3.820   1.252   5.912  0.5905  0.2906  0.8960
  537MOL0     C70791   3.698   1.347   5.889 -0.1106  0.5557 -0.9433
  537MOL0     C70792   3.753   1.490   5.902  0.0205 -0.6569 -0.3367
  537MOL0     C70793   3.643   1.589   5.929  0.6697 -0.2996  0.1475
  537MOL0     C70794   3.550   1.623   5.807 -0.6296  0.0505  0.0449
  537MOL0     C70795   3.424   1.687   5.872  0.2149  0.2914 -0.8006
  537MOL0    Cl70796   3.301   1.750   5.754 -0.3419  0.0767 -0.2143
  537MOL0     C70797   4.185   1.050   6.084  0.5107  0.6771 -0.1491
  537MOL0     C70798   4.324   1.018   6.081  0.4182 -0.6255 -0.1392
  537MOL0     O70799   4.529   1.029   5.901  0.3953 -0.8567 -0.2990
  537MOL0     C70800   4.770   0.788   6.027 -0.4395  0.3129  0.0946
  537MOL0     C70801   4.900   0.752   6.013 -0.8234 -0.0256 -0.0493
  537MOL0     N70802   5.727   0.790   5.938 -0.3637  0.6366  0.3976
  537MOL0     N70803   5.778   0.840   5.825 -0.5218 -0.8470 -0.0617
  537MOL0     C70804   6.605   1.520   6.111  0.4466  0.6836  0.2231
  537MOL0     C70805   6.731   1.552   6.154 -0.5063 -0.8816 -0.1503
  537MOL0     C70806   7.149   1.581   6.310 -0.6316  0.2261  0.1516
  537MOL0     C70807   7.187   1.518   6.434 -0.4973 -0.7734 -0.2787
  537MOL0     C70808   7.312   1.530   6.478 -0.7765 -0.6412 -1.0315
  537MOL0     C70809   7.414   1.602   6.413  0.0439 -0.1390 -0.8044
  537MOL0     O70810   7.532   1.603   6.475  0.5063 -0.0924 -0.1140
  537MOL0     C70811   7.612   1.719   6.463 -0.0370 -0.5092  0.0027
  537MOL0     C70812   7.738   1.727   6.547  0.5186  0.7369 -0.1680
  537MOL0     C70813   7.847   1.826   6.493  0.2412 -0.2874  0.1706
  537MOL0     C70814   7.964   1.848   6.593  0.8797 -0.4124  0.1285
  537MOL0     C70815   8.035   1.719   6.617 -0.2743 -0.7746 -0.2116
  537MOL0     C70816   8.091   1.617   6.648 -0.0120  1.4463  0.2485
  537MOL0     C70817   7.376   1.667   6.299 -0.4057 -0.3583 -0.0768
  537MOL0     C70818   7.249   1.652   6.240 -0.2125  0.0149 -0.2093
  537MOL0     H70819   6.776   1.315   6.385 -0.4271 -0.1570  0.5643
  537MOL0     H70820   6.553   1.244   6.298  0.1271 -0.2482  0.1028
  537MOL0     H70821   6.313   1.538   6.073 -1.0084  0.5186  0.4760
  537MOL0     H70822   6.331   1.503   6.246  3.2986 -1.7048  0.7899
  537MOL0     H70823   6.104   1.459   6.157 -0.9070 -0.2817 -1.0484
  537MOL0     H70824   6.178   1.305   6.195  1.6254 -0.2423 -1.2399
  537MOL0     H70825   6.224   1.304   5.934 -0.6498 -0.9757  1.7190
  537MOL0     H70826   6.149   1.464   5.931  2.3086 -0.1059 -0.2075
  537MOL0     H70827   6.020   1.187   6.017  1.0767  0.3749  1.7530
  537MOL0     H70828   5.943   1.343   6.018 -1.0995  0.5735 -1.7738
  537MOL0     H70829   6.067   1.236   5.763 -0.4039  0.9196 -0.8367
  537MOL0     H70830   5.948   1.354   5.783  2.8960  0.9911 -0.0854
  537MOL0     H70831   5.792   1.188   5.901  1.2071  0.4818  2.1846
  537MOL0     H70832   5.914   1.070   5.866  3.1452  0.9644 -1.4073
  537MOL0     H70833   5.788   1.243   5.644  1.1502  2.4064  2.1766
  537MOL0     H70834   5.914   1.117   5.629  0.5398 -1.2122  3.2239
  537MOL0     H70835   5.750   0.960   5.593 -1.7879  2.2914 -3.2335
  537MOL0     H70836   5.617   1.066   5.642  1.7621 -0.2888 -4.8549
  537MOL0     H70837   5.537   1.049   5.888  0.0134 -0.0355 -1.9687
  537MOL0     H70838   5.554   0.914   6.174 -1.5098 -1.2027  0.7053
  537MOL0     H70839   5.567   0.747   6.161  1.2082  0.5867  0.4026
  537MOL0     H70840   5.349   0.928   6.052  1.2597  0.5876  0.0391
  537MOL0     H70841   5.326   0.801   6.172  0.6162  2.4091  0.2457
  537MOL0     H70842   5.380   0.740   5.879 -2.3401 -1.4478 -0.2645
  537MOL0     H70843   5.389   0.622   6.010 -2.3811 -1.3169  1.2655
  537MOL0     H70844   5.141   0.679   6.080 -0.1545  1.1780 -0.2628
  537MOL0     H70845   5.155   0.614   5.917 -3.6716  0.1879  0.5239
  537MOL0     H70846   5.008   1.008   5.826 -0.1311  0.6367  0.3876
  537MOL0     H70847   4.775   1.067   5.835  3.0755 -0.7961 -4.1275
  537MOL0     H70848   4.306   0.690   6.000  1.8252 -0.3356 -1.6079
  537MOL0     H70849   4.052   0.746   6.002  1.2095 -0.6731  0.8593
  537MOL0     H70850   3.889   0.923   5.845  0.8534  1.4835 -2.2147
  537MOL0     H70851   3.992   1.058   5.829  0.3924 -0.8267 -0.1969
  537MOL0     H70852   3.734   1.076   5.994  1.7520 -0.7259  1.0476
  537MOL0     H70853   3.723   1.077   5.813  0.7903 -0.5817 -1.0489
  537MOL0     H70854   3.892   1.277   5.834 -2.5744  0.9790 -2.0896
  537MOL0     H70855   3.860   1.272   6.012  2.0555 -1.0064  0.5974
  537MOL0     H70856   3.650   1.323   5.794 -1.6261  2.3880 -0.7015
  537MOL0     H70857   3.627   1.330   5.971 -0.3113  1.8893 -0.8112
  537MOL0     H70858   3.802   1.520   5.809 -1.9778  0.6371 -1.0319
  537MOL0     H70859   3.814   1.489   5.993  0.8112 -4.6487 -0.7016
  537MOL0     H70860   3.699   1.680   5.954  0.4376  0.1819 -1.0360
  537MOL0     H70861   3.584   1.560   6.017  0.5825  3.6283  1.5894
  537MOL0     H70862   3.603   1.694   5.743  0.7771 -0.6545  0.3659
  537MOL0     H70863   3.523   1.534   5.749 -0.3463 -0.0207  0.0180
  537MOL0     H70864   3.463   1.776   5.922  0.6487 -1.0217  1.3079
  537MOL0     H70865   3.379   1.623   5.948  3.6975  0.0443  1.2693
  537MOL0     H70866   4.157   1.155   6.084 -1.0338  0.2992 -0.7635
  537MOL0     H70867   4.386   1.104   6.101  0.8659 -1.3211  1.6082
  537MOL0     H70868   4.699   0.739   6.092 -1.7868  0.0665 -1.4833
  537MOL0     H70869   4.914   0.660   6.068  4.0922 -0.5279 -1.6675
  537MOL0     H70870   6.558   1.583   6.037  1.1457  0.0062 -0.8260
  537MOL0     H70871   6.776   1.643   6.113 -1.7369 -0.1191  0.1465
  537MOL0     H70872   7.124   1.444   6.482 -0.7247 -0.2785  0.2011
  537MOL0     H70873   7.340   1.484   6.572 -0.8036  2.3094  0.4980
  537MOL0     H70874   7.562   1.815   6.479  2.7343  1.1167 -0.5176
  537MOL0     H70875   7.646   1.721   6.359 -0.2752 -0.8396 -0.0842
  537MOL0     H70876   7.711   1.762   6.646 -0.1002  2.5016 -0.9301
  537MOL0     H70877   7.774   1.624   6.556  0.1749  0.6000 -0.3427
  537MOL0     H70878   7.791   1.920   6.482 -1.1556 -0.8515  2.0214
  537MOL0     H70879   7.876   1.784   6.396 -1.4832  0.4346 -0.7082
  537MOL0     H70880   8.022   1.932   6.554 -0.6557  0.6163 -0.0300
  537MOL0     H70881   7.928   1.893   6.686  1.7940  0.6459 -0.0083
  537MOL0     H70882   8.136   1.531   6.692  1.3967  3.1872  2.4289
  537MOL0     H70883   7.437   1.725   6.231 -0.3185 -1.1703 -0.7139
  537MOL0     H70884   7.227   1.698   6.144  1.1816 -0.4345 -0.7685
  538MOL0     O70885   4.880   1.089   3.955  0.6361  0.4158 -0.2007
  538MOL0     C70886   4.885   1.008   3.862  0.5917  0.0834  0.5135
  538MOL0     O70887   4.788   0.933   3.821 -0.1042  0.0040  1.0294
  538MOL0     C70888   4.660   0.945   3.870 -0.7219 -0.4474 -0.9310
  538MOL0     C70889   4.617   0.860   3.969  0.1526  0.4545 -0.3681
  538MOL0     C70890   4.481   0.845   4.006 -0.4020 -0.1405  0.1998
  538MOL0     C70891   4.383   0.912   3.938  0.4158 -0.0213  0.4463
  538MOL0     O70892   4.247   0.911   3.967  0.6833  0.6873 -0.5271
  538MOL0     C70893   4.214   0.876   4.101 -0.7662  0.0899 -0.8760
  538MOL0     C70894   4.061   0.882   4.113 -0.2874 -0.1037 -0.2304
  538MOL0     C70895   4.030   0.910   4.257 -0.3037  0.4741 -0.9915
  538MOL0     C70896   3.882   0.933   4.280  0.2082  0.0347 -0.3825
  538MOL0     C70897   3.838   1.030   4.388 -0.3140  0.3116 -0.5084
  538MOL0     C70898   3.690   1.047   4.386 -0.1293 -0.4607  1.0531
  538MOL0     C70899   3.642   1.159   4.478  0.2058 -0.1667 -0.1008
  538MOL0     C70900   3.657   1.132   4.626 -0.8922  0.1781 -0.8326
  538MOL0     N70901   3.616   1.250   4.700  0.3188  0.0883  0.2122
  538MOL0     C70902   3.491   1.293   4.724 -0.1824  0.0919  0.3196
  538MOL0     C70903   3.506   1.382   4.823  0.3324  0.0980 -0.5021
  538MOL0     C70904   3.387   1.438   4.906  0.2762  0.5379  0.3854
  538MOL0     C70905   3.276   1.511   4.822 -0.2877 -0.4871 -0.0541
  538MOL0     C70906   3.343   1.613   4.733  0.8566 -0.5678  0.2481
  538MOL0     C70907   3.245   1.701   4.663  0.3432  0.4321 -0.2688
  538MOL0     O70908   3.140   1.741   4.757 -0.3920 -0.5766 -0.4865
  538MOL0     C70909   3.028   1.796   4.705  0.8561 -1.0403  0.8518
  538MOL0     C70910   2.919   1.823   4.797 -0.5357 -0.3499  0.1909
  538MOL0     C70911   2.807   1.897   4.747 -0.2928 -0.0881 -0.0132
  538MOL0     C70912   2.789   1.927   4.617  0.7133  0.3577 -0.4937
  538MOL0     C70913   2.673   1.998   4.572 -0.6385  0.7612  0.7772
  538MOL0     O70914   2.588   2.054   4.671  0.6444  1.3348 -0.0459
  538MOL0     C70915   2.478   2.114   4.627  1.1290 -0.3724 -0.0414
  538MOL0     C70916   2.461   2.247   4.656  0.2196  0.2830  0.5445
  538MOL0     C70917   2.349   2.313   4.614  0.0599 -1.0068 -0.1210
  538MOL0     C70918   2.244   2.235   4.542 -0.3270  0.8297 -0.2170
  538MOL0     O70919   2.127   2.288   4.499 -0.2022 -0.1797  0.5827
  538MOL0     C70920   2.111   2.427   4.511  0.0190 -0.2821  0.4186
  538MOL0     C70921   1.988   2.475   4.421  1.1157 -0.6091 -0.4304
  538MOL0     C70922   1.843   2.413   4.445 -1.1619 -0.0346  0.7606
  538MOL0     C70923   1.748   2.476   4.345 -0.9231 -0.1978  0.4253
  538MOL0     C70924   1.603   2.444   4.383 -1.6407 -0.4535  0.4738
  538MOL0     C70925   1.490   2.479   4.284 -1.1633  0.1043 -1.2874
  538MOL0     C70926   1.349   2.460   4.338 -0.6265  0.2440 -0.2538
  538MOL0     C70927   1.244   2.453   4.231 -0.4587 -0.2394  0.1492
  538MOL0    Cl70928   1.079   2.497   4.302 -0.1913  0.4411 -0.1791
  538MOL0     C70929   2.254   2.096   4.545  0.8509 -0.2692 -0.6496
  538MOL0     C70930   2.365   2.033   4.580 -0.2544 -0.2096 -0.1717
  538MOL0     O70931   2.657   2.021   4.452  0.1130  0.5791 -0.3298
  538MOL0     C70932   2.895   1.895   4.529 -0.2846  0.0130  0.2121
  538MOL0     C70933   3.016   1.840   4.568  0.1149  0.3719 -0.2372
  538MOL0     N70934   3.635   1.403   4.859 -0.5014 -0.3077  0.6050
  538MOL0     N70935   3.698   1.319   4.792  0.0254 -0.0116  0.1190
  538MOL0     C70936   4.434   1.004   3.838 -0.0609 -0.3350  1.0653
  538MOL0     C70937   4.568   1.025   3.811  0.2787 -0.2912  0.2253
  538MOL0     C70938   5.008   0.999   3.783  1.2563 -0.3159 -0.3497
  538MOL0     C70939   5.133   1.016   3.844 -1.3528  1.1762  0.0959
  538MOL0     C70940   5.245   1.000   3.756 -0.6107 -0.4895  0.3202
  538MOL0     C70941   5.240   0.985   3.624  0.5512 -0.2133  0.0295
  538MOL0     O70942   5.367   0.973   3.574 -0.4422 -0.0999  0.0957
  538MOL0     C70943   5.370   0.959   3.435 -0.0478  0.1284  0.1881
  538MOL0     C70944   5.503   0.891   3.403  0.8432 -0.0075  0.2950
  538MOL0     C70945   5.623   0.986   3.430 -0.0417  0.7533  0.2279
  538MOL0     C70946   5.752   0.908   3.443 -0.7839 -0.6933 -0.5927
  538MOL0     C70947   5.858   1.012   3.443 -0.0490  0.7644 -0.0723
  538MOL0     C70948   5.954   1.087   3.446 -0.5306  0.3521 -0.5663
  538MOL0     C70949   5.119   0.984   3.569  0.3166 -0.0690 -0.1959
  538MOL0     C70950   5.001   0.988   3.644 -0.8097  0.5815 -1.1553
  538MOL0     H70951   4.685   0.799   4.027  0.3492 -1.0934 -2.1419
  538MOL0     H70952   4.446   0.781   4.086 -1.5440  0.0356 -0.1398
  538MOL0     H70953   4.259   0.953   4.164  1.0770 -0.4435 -1.4873
  538MOL0     H70954   4.242   0.775   4.131  0.4281  0.6442 -0.1037
  538MOL0     H70955   4.026   0.784   4.077 -1.9574  1.0121 -1.8414
  538MOL0     H70956   4.006   0.956   4.054 -2.0796  0.4242  1.9390
  538MOL0     H70957   4.065   1.013   4.270  1.7274 -0.2320 -0.5183
  538MOL0     H70958   4.068   0.838   4.329  0.6263 -0.5244 -2.4341
  538MOL0     H70959   3.839   0.980   4.190 -0.0672 -1.6030 -1.1352
  538MOL0     H70960   3.859   0.828   4.297  4.6961 -1.2936 -1.0313
  538MOL0     H70961   3.903   1.115   4.366  1.3843 -1.5281 -3.3567
  538MOL0     H70962   3.874   0.988   4.482 -0.5062  2.3686  0.5437
  538MOL0     H70963   3.631   0.956   4.404 -0.0876 -1.2616 -2.2295
  538MOL0     H70964   3.659   1.081   4.287 -1.0172 -1.5870  0.9153
  538MOL0     H70965   3.702   1.247   4.454  0.7391 -0.1495  1.2292
  538MOL0     H70966   3.538   1.176   4.449  0.1774 -0.4582 -0.1717
  538MOL0     H70967   3.760   1.109   4.654 -1.1834 -0.5226 -0.3022
  538MOL0     H70968   3.606   1.037   4.649 -0.4271 -0.4675 -2.3435
  538MOL0     H70969   3.401   1.256   4.675  2.1473 -3.6927 -1.5614
  538MOL0     H70970   3.424   1.511   4.979  0.9831 -0.9350  1.5635
  538MOL0     H70971   3.337   1.359   4.963 -1.9950  0.0190 -2.1022
  538MOL0     H70972   3.211   1.562   4.893  0.4266 -2.6784  2.3291
  538MOL0     H70973   3.229   1.442   4.752  3.0070 -0.8970 -2.1027
  538MOL0     H70974   3.404   1.673   4.801  1.4713 -0.2113 -0.5893
  538MOL0     H70975   3.407   1.569   4.655 -1.3798  2.3202 -3.6056
  538MOL0     H70976   3.208   1.634   4.585  1.2308 -2.8493  1.9354
  538MOL0     H70977   3.289   1.791   4.618  2.9810 -0.5386  0.1616
  538MOL0     H70978   2.930   1.796   4.901  3.0210 -0.7641 -0.1763
  538MOL0     H70979   2.738   1.930   4.824  2.1884  0.6114  2.0847
  538MOL0     H70980   2.549   2.290   4.703  0.3688  0.9694 -0.3281
  538MOL0     H70981   2.338   2.421   4.616  2.0353 -0.6930 -2.1793
  538MOL0     H70982   2.201   2.478   4.476  0.8394 -1.1854  1.1419
  538MOL0     H70983   2.086   2.438   4.617 -3.7503  0.5343 -0.4118
  538MOL0     H70984   2.023   2.468   4.318 -2.9289  0.9683 -2.1373
  538MOL0     H70985   1.985   2.585   4.425 -1.7997 -0.6021 -0.3810
  538MOL0     H70986   1.808   2.428   4.548 -0.9779 -1.5587  1.0605
  538MOL0     H70987   1.845   2.306   4.426 -0.7484 -0.3198  2.2606
  538MOL0     H70988   1.763   2.584   4.353  1.1678 -0.5583  2.3183
  538MOL0     H70989   1.759   2.429   4.247 -0.6857 -2.5474  1.5105
  538MOL0     H70990   1.577   2.475   4.485 -1.4116  1.1921  0.0683
  538MOL0     H70991   1.603   2.335   4.377  1.7063 -0.5218 -0.4746
  538MOL0     H70992   1.506   2.426   4.189  1.0936 -1.8484  0.0796
  538MOL0     H70993   1.512   2.582   4.255  1.9642 -0.8476 -2.8018
  538MOL0     H70994   1.348   2.372   4.403 -1.6108  0.7137  0.3943
  538MOL0     H70995   1.322   2.540   4.408 -2.2710 -2.5966  2.6379
  538MOL0     H70996   1.240   2.355   4.183 -1.6811  1.0652 -2.6756
  538MOL0     H70997   1.268   2.523   4.151  0.2896  0.1659  0.7137
  538MOL0     H70998   2.165   2.041   4.516 -1.4117  1.3949  2.5878
  538MOL0     H70999   2.376   1.926   4.570  0.9240 -0.5435  3.4130
  538MOL0     H71000   2.889   1.920   4.423  3.5703  0.6058  0.0157
  538MOL0     H71001   3.101   1.832   4.501  1.0596 -1.8157  1.1058
  538MOL0     H71002   4.362   1.072   3.793  2.6510 -0.0823 -3.5167
  538MOL0     H71003   4.598   1.107   3.747  0.0600  0.0527  0.5562
  538MOL0     H71004   5.160   1.031   3.948  1.6658 -0.5955 -0.2992
  538MOL0     H71005   5.345   1.003   3.799 -0.6887  1.6456  0.4400
  538MOL0     H71006   5.362   1.059   3.392 -1.0276 -0.6711 -1.6092
  538MOL0     H71007   5.281   0.904   3.402 -0.9682  1.9540 -0.5258
  538MOL0     H71008   5.508   0.801   3.464  1.1609 -0.8169 -0.8979
  538MOL0     H71009   5.512   0.865   3.297  0.3126 -1.6810  0.6371
  538MOL0     H71010   5.605   1.036   3.526  0.2957  1.7600 -0.2236
  538MOL0     H71011   5.628   1.060   3.350  1.8177 -1.0201 -1.4113
  538MOL0     H71012   5.769   0.850   3.535  2.4559 -3.1722 -2.5090
  538MOL0     H71013   5.754   0.840   3.358 -0.5136 -1.5160  0.0585
  538MOL0     H71014   6.034   1.156   3.460 -2.4364  2.4357  0.8022
  538MOL0     H71015   5.100   0.978   3.462 -1.6438  1.3575  0.0266
  538MOL0     H71016   4.906   0.985   3.592  0.1944 -1.4018 -3.0405
  539MOL0     O71017   4.634   9.384   1.370 -0.0724  0.1296  0.2285
  539MOL0     C71018   4.609   9.330   1.260 -0.2079 -0.5867  0.3740
  539MOL0     O71019   4.701   9.286   1.177 -0.2694 -0.6027 -0.4268
  539MOL0     C71020   4.840   9.305   1.202 -0.6455 -0.2178 -0.0767
  539MOL0     C71021   4.896   9.246   1.310 -0.0587  0.2688  0.1604
  539MOL0     C71022   5.027   9.268   1.339 -0.8533 -0.2804  0.4659
  539MOL0     C71023   5.106   9.362   1.269 -1.1361  0.3842 -0.7450
  539MOL0     O71024   5.230   9.414   1.300 -0.4126  1.5217 -0.4798
  539MOL0     C71025   5.351   9.327   1.304  1.0119 -0.5546  0.5251
  539MOL0     C71026   5.483   9.406   1.306  0.3656 -0.1236  0.5455
  539MOL0     C71027   5.546   9.456   1.169 -0.1990 -0.7144  0.0850
  539MOL0     C71028   5.685   9.530   1.197 -0.2534 -0.6202 -0.3393
  539MOL0     C71029   5.735   9.601   1.074  0.2762  0.0296 -0.0667
  539MOL0     C71030   5.850   9.700   1.097 -0.8732  0.7036  0.5872
  539MOL0     C71031   5.898   9.763   0.968  0.2922 -0.2739  0.8108
  539MOL0     C71032   5.975   9.678   0.862  0.3655 -0.9635  0.8476
  539MOL0     N71033   6.108   9.629   0.909 -0.1528  0.0327 -0.2582
  539MOL0     C71034   6.123   9.527   0.999 -0.8280  0.0669 -0.4215
  539MOL0     C71035   6.260   9.504   0.996  0.2125 -0.1507 -0.1238
  539MOL0     C71036   6.333   9.386   1.059  0.3624  0.5992 -1.3463
  539MOL0     C71037   6.362   9.409   1.208 -0.3144  0.7183 -0.2121
  539MOL0     C71038   6.237   9.412   1.298  0.7014 -0.3126  0.2718
  539MOL0     C71039   6.141   9.296   1.290  0.0031  0.2229  0.2110
  539MOL0     O71040   6.061   9.323   1.404  0.2040  0.5178  0.3408
  539MOL0     C71041   5.958   9.235   1.419  0.0624  0.2591  0.2339
  539MOL0     C71042   5.950   9.102   1.365 -0.2295 -1.0550  0.7650
  539MOL0     C71043   5.835   9.024   1.386 -0.0260  0.0707 -0.9054
  539MOL0     C71044   5.725   9.071   1.450  0.0464 -0.2143  0.0256
  539MOL0     C71045   5.600   8.996   1.482  0.5133  0.0300  0.1579
  539MOL0     O71046   5.487   9.063   1.527 -0.3087 -0.6444 -0.3634
  539MOL0     C71047   5.367   9.000   1.523  0.4075 -0.9553  0.4728
  539MOL0     C71048   5.314   8.961   1.398 -0.2153  1.7229 -0.0820
  539MOL0     C71049   5.177   8.927   1.388 -0.1718  0.3727  0.1751
  539MOL0     C71050   5.094   8.916   1.504 -0.2590 -0.6960 -0.3005
  539MOL0     O71051   4.964   8.858   1.508  0.5545  0.2004 -0.1588
  539MOL0     C71052   4.910   8.789   1.395 -0.2088 -0.5472  0.6068
  539MOL0     C71053   4.759   8.771   1.402 -0.2248  0.6569  0.8142
  539MOL0     C71054   4.688   8.896   1.439 -0.1396 -0.3047 -0.5968
  539MOL0     C71055   4.539   8.865   1.444 -0.4600 -0.8806 -0.2812
  539MOL0     C71056   4.444   8.956   1.523  0.0952  0.6992  0.1409
  539MOL0     C71057   4.305   8.889   1.554  0.6846 -0.3433 -0.3459
  539MOL0     C71058   4.223   8.964   1.662 -0.4827  0.3214  0.3901
  539MOL0     C71059   4.085   8.884   1.685  0.0020 -0.2378 -0.5162
  539MOL0    Cl71060   3.966   8.904   1.549 -0.0645 -0.4019  0.1961
  539MOL0     C71061   5.149   8.953   1.626 -0.2450  0.4344 -1.1591
  539MOL0     C71062   5.283   8.999   1.634 -0.2654 -0.5003  0.0184
  539MOL0     O71063   5.592   8.879   1.446  0.3474 -0.4091  0.2709
  539MOL0     C71064   5.736   9.205   1.507  0.2822  0.5683  0.7428
  539MOL0     C71065   5.858   9.283   1.499  1.0961 -0.1627  0.4786
  539MOL0     N71066   6.321   9.588   0.905  0.6201 -0.3382  0.0071
  539MOL0     N71067   6.228   9.661   0.854  0.3942  0.2844  0.1294
  539MOL0     C71068   5.043   9.426   1.155  0.7467  0.3271  0.0929
  539MOL0     C71069   4.907   9.398   1.123  0.4449  0.1358 -0.6782
  539MOL0     C71070   4.472   9.290   1.229 -0.0951 -0.2645  0.4484
  539MOL0     C71071   4.445   9.200   1.127  0.6496 -0.4287 -0.3114
  539MOL0     C71072   4.319   9.132   1.117  0.3651  0.4538  0.6745
  539MOL0     C71073   4.215   9.173   1.192 -0.1372  0.2541  0.1420
  539MOL0     O71074   4.095   9.115   1.191 -0.0963  0.0832  0.1819
  539MOL0     C71075   4.040   9.033   1.088 -0.6168 -0.2885 -0.1792
  539MOL0     C71076   3.896   8.996   1.129 -0.4878 -0.0050  0.2333
  539MOL0     C71077   3.810   9.125   1.115 -0.6638  0.8780 -0.1775
  539MOL0     C71078   3.758   9.168   0.977 -0.1139  0.4110 -0.1335
  539MOL0     C71079   3.865   9.226   0.890 -0.3300 -0.5112  0.6932
  539MOL0     C71080   3.958   9.276   0.828 -0.7685 -0.0830  0.8550
  539MOL0     C71081   4.234   9.274   1.288 -0.2360  0.3651  0.1667
  539MOL0     C71082   4.366   9.321   1.312 -0.0450 -0.0189  0.9021
  539MOL0     H71083   4.841   9.175   1.371  0.2314  0.1773  0.3136
  539MOL0     H71084   5.069   9.214   1.423  0.2515 -3.3635 -1.8769
  539MOL0     H71085   5.359   9.264   1.214 -0.8673  0.6461 -0.5509
  539MOL0     H71086   5.342   9.273   1.399  2.6266  1.3711  1.8411
  539MOL0     H71087   5.559   9.337   1.345  1.5725 -0.9212 -2.8756
  539MOL0     H71088   5.456   9.494   1.364 -2.6188  2.1862 -3.8004
  539MOL0     H71089   5.478   9.520   1.112  0.1266 -0.8997 -0.5172
  539MOL0     H71090   5.570   9.378   1.096 -1.7543 -1.1030 -0.0349
  539MOL0     H71091   5.671   9.610   1.270  2.1199  0.7117 -1.2387
  539MOL0     H71092   5.762   9.473   1.251 -0.3562  3.2818  4.5954
  539MOL0     H71093   5.655   9.667   1.039 -0.9386  0.3492  2.9749
  539MOL0     H71094   5.752   9.528   0.994 -4.6593 -0.8926 -0.6056
  539MOL0     H71095   5.935   9.648   1.143 -0.9335  0.7441  0.7450
  539MOL0     H71096   5.812   9.780   1.161 -2.6495  0.3562  0.0248
  539MOL0     H71097   5.804   9.806   0.931 -0.0771 -1.4408  0.3685
  539MOL0     H71098   5.967   9.843   0.996  2.1089 -1.8252  0.9189
  539MOL0     H71099   5.999   9.744   0.779  1.7565  0.0348  1.9901
  539MOL0     H71100   5.908   9.595   0.839 -1.7143  0.9703 -0.4560
  539MOL0     H71101   6.049   9.467   1.051 -0.1274 -1.5183 -1.1732
  539MOL0     H71102   6.425   9.372   1.001 -0.4648 -0.1734 -2.5261
  539MOL0     H71103   6.271   9.296   1.056 -2.0539  2.1064 -0.1104
  539MOL0     H71104   6.424   9.499   1.215  3.6358 -1.8683  2.8790
  539MOL0     H71105   6.431   9.335   1.251 -1.4204 -0.7673 -0.9103
  539MOL0     H71106   6.267   9.413   1.403 -0.6375  0.2392  0.6620
  539MOL0     H71107   6.182   9.506   1.287 -1.3737 -1.3753  1.0926
  539MOL0     H71108   6.201   9.204   1.291 -0.5994 -0.1828  1.6061
  539MOL0     H71109   6.077   9.307   1.202 -1.3734 -0.0180  1.1557
  539MOL0     H71110   6.037   9.063   1.313 -0.1737 -0.2721  0.2558
  539MOL0     H71111   5.841   8.922   1.348 -3.5687 -0.9777  0.8657
  539MOL0     H71112   5.376   8.961   1.310  1.1300  0.5790  0.8181
  539MOL0     H71113   5.131   8.891   1.296  0.6158  0.3508 -0.2189
  539MOL0     H71114   4.966   8.698   1.373  4.0301  2.2711 -1.7732
  539MOL0     H71115   4.915   8.862   1.314  0.0136 -0.1366  0.9841
  539MOL0     H71116   4.738   8.691   1.474  2.1115 -3.3866 -2.5188
  539MOL0     H71117   4.725   8.727   1.308  0.5374  2.0977 -0.1727
  539MOL0     H71118   4.700   8.980   1.370 -0.0009  1.8170  1.8563
  539MOL0     H71119   4.715   8.931   1.539  0.4200  2.1870 -1.5397
  539MOL0     H71120   4.506   8.864   1.339  1.3941 -0.2843 -0.9054
  539MOL0     H71121   4.524   8.768   1.492  0.8133 -1.3367 -0.7742
  539MOL0     H71122   4.421   9.047   1.467  1.8736 -0.8750 -3.4562
  539MOL0     H71123   4.488   8.977   1.621  0.7518 -2.6347  0.6802
  539MOL0     H71124   4.325   8.792   1.599  2.4761 -0.3217 -0.9998
  539MOL0     H71125   4.253   8.887   1.457  2.2224 -0.0116 -1.2217
  539MOL0     H71126   4.272   8.963   1.759 -0.3009 -0.9158  0.2995
  539MOL0     H71127   4.199   9.064   1.624  0.2366  0.0531 -0.8193
  539MOL0     H71128   4.041   8.920   1.778  0.8924  0.9691 -0.5438
  539MOL0     H71129   4.105   8.777   1.700  2.9135  0.6430  3.5683
  539MOL0     H71130   5.095   8.935   1.719 -1.3036  2.5581 -1.3080
  539MOL0     H71131   5.318   9.023   1.734 -0.5378 -1.9460  0.4902
  539MOL0     H71132   5.663   9.253   1.571  0.6526  1.6285  0.4047
  539MOL0     H71133   5.868   9.381   1.543 -0.0437 -1.4586  3.9269
  539MOL0     H71134   5.103   9.502   1.106 -0.9895  3.0756  1.9669
  539MOL0     H71135   4.864   9.442   1.033  0.8496  1.5076 -0.2335
  539MOL0     H71136   4.528   9.174   1.062 -0.2689 -0.7195 -1.3845
  539MOL0     H71137   4.301   9.058   1.041  0.0057  0.7128  0.5029
  539MOL0     H71138   4.098   8.942   1.075  1.1015  1.0061 -2.6223
  539MOL0     H71139   4.036   9.068   0.984 -0.9048  0.5185  0.0899
  539MOL0     H71140   3.855   8.923   1.059  1.2316 -2.3461  1.5162
  539MOL0     H71141   3.886   8.947   1.227 -0.4961  0.5884  0.5374
  539MOL0     H71142   3.870   9.208   1.151  2.3633 -0.5277 -1.6063
  539MOL0     H71143   3.725   9.115   1.183 -0.7111  1.0389 -0.2133
  539MOL0     H71144   3.724   9.085   0.915  2.0488 -0.6984  0.0918
  539MOL0     H71145   3.682   9.246   0.987  1.0818  1.4930  0.8341
  539MOL0     H71146   4.038   9.326   0.777 -0.3567 -0.6574  0.9250
  539MOL0     H71147   4.145   9.302   1.342 -0.9674  3.2342 -2.2630
  539MOL0     H71148   4.395   9.382   1.396  0.2777  1.6998 -0.3961
  540MOL0     O71149  10.481   7.731   8.019 -0.0757  0.2375  0.1966
  540MOL0     C71150  10.541   7.800   7.936  0.0104  0.8366  0.3425
  540MOL0     O71151  10.479   7.881   7.844  0.0016 -0.5755  0.3032
  540MOL0     C71152  10.344   7.864   7.826 -0.0283 -0.1223 -0.3060
  540MOL0     C71153  10.277   7.833   7.705 -0.1773  0.3555  0.2533
  540MOL0     C71154  10.144   7.845   7.687 -0.4428  0.0537  0.8804
  540MOL0     C71155  10.056   7.885   7.791 -0.5714 -0.6179 -0.4080
  540MOL0     O71156   9.916   7.885   7.788 -0.2111 -0.0224  0.5185
  540MOL0     C71157   9.851   7.831   7.673  0.0626 -0.6936 -0.5900
  540MOL0     C71158   9.749   7.931   7.631 -0.1207 -1.3070 -0.7711
  540MOL0     C71159   9.820   8.062   7.581  0.3015  0.0474  0.6973
  540MOL0     C71160   9.708   8.167   7.540 -0.2177  0.2414 -0.2391
  540MOL0     C71161   9.778   8.284   7.476 -0.2692  0.5536 -0.2882
  540MOL0     C71162   9.811   8.257   7.323  0.0576  0.2691  0.0240
  540MOL0     C71163   9.827   8.397   7.261  0.3421  0.9419  0.5246
  540MOL0     C71164   9.869   8.389   7.109 -0.0172 -0.1220  0.2684
  540MOL0     N71165   9.993   8.329   7.072 -0.1659 -0.1965 -0.4261
  540MOL0     C71166  10.113   8.337   7.141  1.0246  0.2254 -0.0713
  540MOL0     C71167  10.199   8.256   7.071  0.1299  0.1009  0.4068
  540MOL0     C71168  10.340   8.228   7.111  0.2272 -0.3158 -0.4996
  540MOL0     C71169  10.433   8.344   7.113  0.4573 -0.3708 -0.1831
  540MOL0     C71170  10.583   8.298   7.106  0.0820 -0.6931  0.7067
  540MOL0     C71171  10.652   8.402   7.013 -0.1299 -0.1939  0.0335
  540MOL0     O71172  10.782   8.339   6.975  0.0066 -0.0413  1.4286
  540MOL0     C71173  10.869   8.419   6.900  0.4720  1.0663 -0.1766
  540MOL0     C71174  10.996   8.358   6.860  0.5733  0.2111  0.0822
  540MOL0     C71175  11.092   8.430   6.789  0.5238 -0.2979 -0.0788
  540MOL0     C71176  11.065   8.558   6.749  0.3604 -0.3293  0.6804
  540MOL0     C71177  11.168   8.633   6.676  0.0009 -0.1914  0.7002
  540MOL0     O71178  11.275   8.560   6.635  0.6264 -0.6273  0.2052
  540MOL0     C71179  11.394   8.625   6.611  0.1339  0.6784  0.4864
  540MOL0     C71180  11.491   8.634   6.711  0.8343  0.2402 -0.5037
  540MOL0     C71181  11.611   8.684   6.697  0.1559 -0.1649  0.0883
  540MOL0     C71182  11.655   8.708   6.565  0.2478  0.5084  0.2972
  540MOL0     O71183  11.779   8.755   6.541  0.5109  0.2596 -0.4289
  540MOL0     C71184  11.849   8.802   6.655 -0.3153  0.5348 -0.2143
  540MOL0     C71185  11.977   8.863   6.594 -0.7885 -0.2520  0.7997
  540MOL0     C71186  12.048   8.769   6.500 -0.1280 -0.3977 -0.1332
  540MOL0     C71187  12.200   8.790   6.495  0.2170 -0.7973 -0.7265
  540MOL0     C71188  12.259   8.707   6.392  0.1615 -0.1356  0.6167
  540MOL0     C71189  12.404   8.727   6.370  0.1327 -1.0221 -0.2088
  540MOL0     C71190  12.454   8.878   6.358  0.3499 -0.2409 -0.5691
  540MOL0     C71191  12.607   8.875   6.352  0.7977 -0.9256 -0.0375
  540MOL0    Cl71192  12.661   9.045   6.345 -0.1878  0.3272 -0.2644
  540MOL0     C71193  11.560   8.699   6.458 -0.0058  0.4258  0.0057
  540MOL0     C71194  11.429   8.660   6.481 -0.1645 -0.7119 -0.0401
  540MOL0     O71195  11.161   8.757   6.669 -0.1501 -0.0431  0.1586
  540MOL0     C71196  10.940   8.620   6.784  0.3610 -0.7209  0.9872
  540MOL0     C71197  10.844   8.551   6.855 -0.5344  0.6116  0.5775
  540MOL0     N71198  10.135   8.190   6.972 -0.2221 -0.0084 -1.0251
  540MOL0     N71199  10.010   8.240   6.975 -0.0373 -0.0676 -0.5856
  540MOL0     C71200  10.125   7.933   7.909  0.2758 -0.4113 -0.0861
  540MOL0     C71201  10.263   7.926   7.920  0.3260  0.2326 -0.7344
  540MOL0     C71202  10.683   7.814   7.958 -0.1750 -0.5392 -0.2665
  540MOL0     C71203  10.755   7.733   8.048 -0.0245  0.4359 -0.4017
  540MOL0     C71204  10.897   7.748   8.056  0.5666 -0.1992  0.2150
  540MOL0     C71205  10.967   7.832   7.969  0.0426  0.3152 -0.5916
  540MOL0     O71206  11.096   7.834   7.976 -0.2547 -0.4093 -0.4370
  540MOL0     C71207  11.169   7.953   7.999  0.2676 -0.3916 -0.8367
  540MOL0     C71208  11.321   7.926   7.988  0.0724 -0.2635 -0.0621
  540MOL0     C71209  11.384   7.879   8.120  0.1331  0.4934  0.1965
  540MOL0     C71210  11.534   7.883   8.102  0.3913 -1.0582 -0.6313
  540MOL0     C71211  11.608   7.858   8.225 -0.7903  0.3187 -0.6447
  540MOL0     C71212  11.700   7.836   8.306 -0.4283 -0.9352  0.5468
  540MOL0     C71213  10.894   7.907   7.879  0.4582  0.1089  0.2924
  540MOL0     C71214  10.751   7.905   7.874  0.7577 -0.2826 -0.2169
  540MOL0     H71215  10.342   7.819   7.619  0.5367  1.6078  0.5562
  540MOL0     H71216  10.120   7.823   7.584 -1.0152 -1.7266  1.3419
  540MOL0     H71217   9.792   7.743   7.701 -2.5243  0.4688 -2.0141
  540MOL0     H71218   9.925   7.800   7.599  0.2437 -0.2065 -0.6198
  540MOL0     H71219   9.677   7.950   7.711 -1.6521 -2.4664 -1.8185
  540MOL0     H71220   9.684   7.879   7.559 -0.9683  0.5142 -1.3775
  540MOL0     H71221   9.885   8.044   7.495 -1.8667  0.4957 -1.1478
  540MOL0     H71222   9.887   8.106   7.655  1.9457  1.7270 -1.6556
  540MOL0     H71223   9.639   8.111   7.475 -0.1815 -1.5405  1.1844
  540MOL0     H71224   9.647   8.202   7.623 -1.5376  0.2016 -1.1602
  540MOL0     H71225   9.871   8.314   7.525 -0.8131  1.9190 -0.0238
  540MOL0     H71226   9.707   8.368   7.477 -0.2389  0.6232 -1.6385
  540MOL0     H71227   9.725   8.213   7.272 -0.3346 -1.5048  2.0659
  540MOL0     H71228   9.900   8.201   7.294 -1.9730 -2.1734 -2.0059
  540MOL0     H71229   9.729   8.447   7.261 -1.4903 -2.3393 -0.4717
  540MOL0     H71230   9.897   8.445   7.329 -0.4714  0.1493  1.9815
  540MOL0     H71231   9.859   8.487   7.062 -0.8902 -0.8826 -1.2291
  540MOL0     H71232   9.800   8.340   7.039  0.3023 -0.9549  0.5273
  540MOL0     H71233  10.143   8.397   7.226  3.6720 -0.7789 -0.1845
  540MOL0     H71234  10.369   8.156   7.035 -0.3091  1.9945 -3.0485
  540MOL0     H71235  10.344   8.179   7.209  0.0008  2.9569  1.2953
  540MOL0     H71236  10.411   8.402   7.203 -1.7149 -1.5604  0.1384
  540MOL0     H71237  10.407   8.406   7.026  1.3212 -1.4136 -1.2118
  540MOL0     H71238  10.627   8.301   7.206  1.7357  0.0607 -0.0101
  540MOL0     H71239  10.586   8.201   7.056  3.6312  0.0028 -0.7334
  540MOL0     H71240  10.669   8.493   7.072 -0.8256 -0.5766  0.8520
  540MOL0     H71241  10.585   8.425   6.930 -0.0300  1.6296  0.4246
  540MOL0     H71242  11.021   8.255   6.879 -0.7140 -0.2644 -0.6944
  540MOL0     H71243  11.189   8.381   6.784  0.4074 -0.6952  1.0856
  540MOL0     H71244  11.463   8.591   6.807  2.0404 -3.6662 -1.7296
  540MOL0     H71245  11.673   8.686   6.786 -1.3887  3.6060  1.2666
  540MOL0     H71246  11.887   8.730   6.729  0.9447  2.0183  0.6317
  540MOL0     H71247  11.786   8.879   6.700 -3.4326 -1.4323 -0.8613
  540MOL0     H71248  12.044   8.912   6.665  0.1150  0.9201 -0.7870
  540MOL0     H71249  11.952   8.945   6.525  3.3072  1.3492  0.9208
  540MOL0     H71250  12.003   8.770   6.400  1.9969  3.6824 -1.2749
  540MOL0     H71251  12.036   8.670   6.545  2.0348 -0.8488 -0.4223
  540MOL0     H71252  12.214   8.896   6.473 -1.1765  0.4229  3.3673
  540MOL0     H71253  12.238   8.765   6.594 -1.6423 -0.0457  0.2395
  540MOL0     H71254  12.209   8.717   6.295  1.3048 -0.5834 -0.0430
  540MOL0     H71255  12.246   8.600   6.412  0.3067 -0.6483 -1.7420
  540MOL0     H71256  12.435   8.664   6.287  0.7251  1.6759 -2.1820
  540MOL0     H71257  12.453   8.699   6.464 -2.4188  0.7288  1.7816
  540MOL0     H71258  12.408   8.923   6.270 -1.3009  3.3198  1.8899
  540MOL0     H71259  12.432   8.947   6.440 -1.5439 -1.6876  0.2052
  540MOL0     H71260  12.637   8.819   6.263  0.7709  0.1479 -0.7413
  540MOL0     H71261  12.646   8.821   6.439 -4.2701 -3.3686  1.1144
  540MOL0     H71262  11.587   8.724   6.355  1.3596 -2.0353 -0.3234
  540MOL0     H71263  11.355   8.645   6.403  0.7359  0.2387 -1.1215
  540MOL0     H71264  10.918   8.715   6.738 -0.8670 -1.8728 -0.9818
  540MOL0     H71265  10.749   8.597   6.883 -0.5628  1.1624 -0.3765
  540MOL0     H71266  10.075   7.980   7.992  1.1156  1.0887 -0.3918
  540MOL0     H71267  10.316   7.949   8.012 -1.6949  2.0811  0.0426
  540MOL0     H71268  10.711   7.666   8.121  1.1366 -1.4691 -1.3641
  540MOL0     H71269  10.948   7.685   8.127 -0.8043 -1.0209  0.5062
  540MOL0     H71270  11.136   7.995   8.094  0.4240  2.5222 -1.9672
  540MOL0     H71271  11.130   8.032   7.934 -1.7404  0.4126  1.1837
  540MOL0     H71272  11.334   7.851   7.909 -1.4273 -0.3369 -0.2642
  540MOL0     H71273  11.363   8.024   7.964  2.3851 -1.2965 -0.4885
  540MOL0     H71274  11.355   7.778   8.149  2.3216 -0.1050  0.4923
  540MOL0     H71275  11.359   7.952   8.197  1.6610  3.2077 -1.6962
  540MOL0     H71276  11.559   7.817   8.019 -0.0130  0.5579 -2.0995
  540MOL0     H71277  11.554   7.984   8.066 -2.5142 -0.5320 -0.9647
  540MOL0     H71278  11.765   7.816   8.389 -0.2355  0.5709  0.7708
  540MOL0     H71279  10.947   7.965   7.805 -0.0061  0.3095  0.1126
  540MOL0     H71280  10.701   7.963   7.798 -2.1151 -1.0862  0.9434
  541MOL0     O71281   4.834   4.644   3.772  0.8061 -0.1218 -0.9394
  541MOL0     C71282   4.896   4.721   3.838 -0.5404  0.4743 -0.0730
  541MOL0     O71283   4.853   4.844   3.878  0.2387  0.1187  1.1098
  541MOL0     C71284   4.716   4.874   3.882  1.0879  1.0031 -0.5331
  541MOL0     C71285   4.690   5.010   3.868  0.8080 -0.3883  0.1493
  541MOL0     C71286   4.554   5.064   3.871 -0.5874  0.2359  0.1799
  541MOL0     C71287   4.449   4.973   3.882  0.5874 -0.2010  0.7648
  541MOL0     O71288   4.317   5.019   3.872 -0.1113  0.3409  0.2421
  541MOL0     C71289   4.284   5.099   3.992  0.0106 -0.5988  0.8823
  541MOL0     C71290   4.139   5.151   3.998  0.0183  0.2110  0.3435
  541MOL0     C71291   4.023   5.044   3.996  0.6580  0.2773 -0.0589
  541MOL0     C71292   4.046   4.910   4.068  0.6117 -0.3503 -1.2625
  541MOL0     C71293   3.919   4.828   4.084  0.3221 -0.5857 -0.0402
  541MOL0     C71294   3.937   4.690   4.146  0.0697  0.7248 -0.0194
  541MOL0     C71295   3.873   4.579   4.060  0.7070 -0.1789 -0.6948
  541MOL0     C71296   3.910   4.441   4.095 -0.4245 -0.1748 -0.9632
  541MOL0     N71297   3.815   4.382   4.189  0.5674  0.1283  0.6887
  541MOL0     C71298   3.683   4.327   4.175  0.2770 -0.5742  0.5160
  541MOL0     C71299   3.640   4.292   4.300  0.0815  0.6732 -0.1442
  541MOL0     C71300   3.510   4.228   4.345  0.7622 -0.3231 -0.0817
  541MOL0     C71301   3.391   4.322   4.346  0.4197  0.3261 -0.2441
  541MOL0     C71302   3.385   4.431   4.457 -0.3407  0.4286  0.3592
  541MOL0     C71303   3.377   4.387   4.598 -0.1662 -0.0883 -0.4898
  541MOL0     O71304   3.277   4.289   4.626 -0.5883 -0.4932  0.8366
  541MOL0     C71305   3.228   4.299   4.751 -0.0939  0.0973  0.0188
  541MOL0     C71306   3.307   4.269   4.860  0.8263 -0.5658 -0.2017
  541MOL0     C71307   3.251   4.271   4.988  0.3317 -0.5914  0.6756
  541MOL0     C71308   3.114   4.301   5.005 -0.3354 -0.5761  0.3015
  541MOL0     C71309   3.058   4.296   5.141 -0.9632 -0.1020  0.6828
  541MOL0     O71310   2.919   4.331   5.147  0.2602 -0.0702  0.1492
  541MOL0     C71311   2.865   4.353   5.267 -0.3988  0.4374 -0.7791
  541MOL0     C71312   2.774   4.458   5.278  1.0386 -0.0232 -0.0761
  541MOL0     C71313   2.697   4.484   5.392 -0.0783 -0.4931  0.1096
  541MOL0     C71314   2.705   4.407   5.509  0.3199 -0.6973 -0.1583
  541MOL0     O71315   2.619   4.447   5.609 -0.3639 -0.0696 -0.3470
  541MOL0     C71316   2.618   4.372   5.732  0.1821 -0.1519 -0.7079
  541MOL0     C71317   2.531   4.441   5.830 -0.0474 -0.3755 -0.5717
  541MOL0     C71318   2.381   4.417   5.806 -0.5523 -0.2683  0.8568
  541MOL0     C71319   2.298   4.480   5.914 -0.4113 -0.6246 -0.2882
  541MOL0     C71320   2.152   4.429   5.899  0.1229 -0.5144  0.1867
  541MOL0     C71321   2.062   4.475   6.020  0.5032  0.3444 -0.1732
  541MOL0     C71322   1.917   4.491   5.979  0.5868 -0.2264  0.1699
  541MOL0     C71323   1.831   4.527   6.101 -0.3941  0.0974 -0.2695
  541MOL0    Cl71324   1.849   4.397   6.230  0.1752 -0.1600  0.2716
  541MOL0     C71325   2.796   4.300   5.500 -0.5929 -0.3763  0.1988
  541MOL0     C71326   2.870   4.269   5.385 -0.8646  0.7131  0.9618
  541MOL0     O71327   3.136   4.269   5.235 -0.0421 -0.0811 -0.2052
  541MOL0     C71328   3.043   4.353   4.895  0.1373 -0.0020 -0.7113
  541MOL0     C71329   3.100   4.353   4.770  0.5183  0.1947  0.2702
  541MOL0     N71330   3.735   4.328   4.387  0.3290 -0.2137 -0.1817
  541MOL0     N71331   3.834   4.380   4.324  0.2176 -0.4845 -0.3025
  541MOL0     C71332   4.468   4.835   3.878 -0.0995 -0.1920 -0.4514
  541MOL0     C71333   4.601   4.785   3.879 -0.3433  0.8224 -0.0349
  541MOL0     C71334   5.041   4.686   3.861 -0.1982  0.1014 -0.1859
  541MOL0     C71335   5.087   4.550   3.844 -0.4262 -1.1832  0.5809
  541MOL0     C71336   5.217   4.525   3.890  0.2570  0.1270 -0.2193
  541MOL0     C71337   5.308   4.629   3.935  0.1026 -0.0272 -0.3209
  541MOL0     O71338   5.433   4.583   3.959 -0.2312 -0.3430  0.1527
  541MOL0     C71339   5.538   4.682   3.977  0.3524 -0.2298 -0.0022
  541MOL0     C71340   5.666   4.603   4.018  0.2491  1.6516 -0.4563
  541MOL0     C71341   5.796   4.674   4.000 -0.5018 -0.5132  0.5392
  541MOL0     C71342   5.909   4.576   4.046 -0.1883  0.8362 -0.7355
  541MOL0     C71343   6.049   4.619   4.024 -0.7259 -0.5338 -0.3110
  541MOL0     C71344   6.162   4.653   3.996  0.1133  0.3851 -0.9813
  541MOL0     C71345   5.267   4.763   3.928  1.0853  0.0308  0.4479
  541MOL0     C71346   5.133   4.790   3.899  0.8281  0.1184 -0.4591
  541MOL0     H71347   4.767   5.087   3.871 -1.4270  1.9428  1.0248
  541MOL0     H71348   4.528   5.169   3.858 -0.8437 -0.1011 -2.5113
  541MOL0     H71349   4.353   5.182   4.009 -0.3997 -0.6356  2.9830
  541MOL0     H71350   4.297   5.029   4.075 -2.7896 -1.7705  0.4339
  541MOL0     H71351   4.120   5.229   3.924  1.9285  1.0392  0.6707
  541MOL0     H71352   4.126   5.204   4.093 -2.3342  1.3923 -0.5586
  541MOL0     H71353   3.989   5.026   3.893  1.7090 -1.2056 -0.1682
  541MOL0     H71354   3.935   5.091   4.041 -1.5104 -2.4350 -1.1612
  541MOL0     H71355   4.122   4.849   4.019 -0.4546 -0.6071 -2.6874
  541MOL0     H71356   4.073   4.930   4.172  0.2796 -1.9844 -0.8356
  541MOL0     H71357   3.851   4.823   3.998 -2.5039 -0.0205  2.0501
  541MOL0     H71358   3.855   4.883   4.153 -2.6241 -1.0916 -2.1356
  541MOL0     H71359   3.888   4.695   4.243 -0.4672  2.6797 -0.3453
  541MOL0     H71360   4.041   4.657   4.152 -0.4541 -0.9833  0.1283
  541MOL0     H71361   3.764   4.586   4.062  0.7327  0.2958 -1.1102
  541MOL0     H71362   3.907   4.589   3.957 -0.2364 -0.8294 -1.0877
  541MOL0     H71363   4.010   4.433   4.138 -1.0047 -1.3752  0.2642
  541MOL0     H71364   3.909   4.382   4.003 -0.8051 -0.6188 -0.6838
  541MOL0     H71365   3.628   4.307   4.084  1.3273  0.8454 -0.4701
  541MOL0     H71366   3.518   4.196   4.449 -0.5002  0.5964  0.3221
  541MOL0     H71367   3.493   4.146   4.275  0.9093 -1.9960  1.7801
  541MOL0     H71368   3.312   4.248   4.359  0.5995  0.1443 -0.1950
  541MOL0     H71369   3.373   4.365   4.247  2.6691  0.2099 -0.7589
  541MOL0     H71370   3.473   4.495   4.453  2.1695 -2.7094  0.7889
  541MOL0     H71371   3.295   4.489   4.434 -0.0331  1.9084  2.6177
  541MOL0     H71372   3.349   4.476   4.654  0.2767  1.4428 -2.5483
  541MOL0     H71373   3.479   4.356   4.622 -0.0034 -1.8699 -3.0683
  541MOL0     H71374   3.412   4.248   4.845  2.0051  2.4671  2.4754
  541MOL0     H71375   3.308   4.240   5.074 -3.3416 -1.4654  3.0240
  541MOL0     H71376   2.763   4.533   5.200 -2.0735  0.3208  0.5431
  541MOL0     H71377   2.626   4.565   5.392 -0.7774 -1.0779  1.6690
  541MOL0     H71378   2.721   4.369   5.768  0.7666 -1.0715 -2.3483
  541MOL0     H71379   2.590   4.267   5.718  3.4339 -1.0363 -1.5214
  541MOL0     H71380   2.548   4.549   5.833 -1.5373 -0.0784  3.0239
  541MOL0     H71381   2.548   4.399   5.930  1.5879  0.5087 -0.4461
  541MOL0     H71382   2.366   4.311   5.786 -0.1429 -0.3426  0.9407
  541MOL0     H71383   2.353   4.477   5.719 -0.4757  1.3890  1.9222
  541MOL0     H71384   2.339   4.462   6.014  3.2761 -1.9830 -1.8626
  541MOL0     H71385   2.302   4.586   5.888  0.2216 -0.3393  0.8894
  541MOL0     H71386   2.150   4.321   5.877  0.1816 -0.3964 -0.4100
  541MOL0     H71387   2.107   4.473   5.810  2.4957  0.8728 -0.4046
  541MOL0     H71388   2.106   4.571   6.049 -0.9930  1.4215 -1.2907
  541MOL0     H71389   2.064   4.404   6.103 -2.6746  0.5771  0.2073
  541MOL0     H71390   1.888   4.575   5.915 -0.7002 -0.3966  0.5025
  541MOL0     H71391   1.879   4.398   5.935  0.5468  0.1558 -0.6196
  541MOL0     H71392   1.726   4.542   6.076  0.4089  4.3791 -1.9803
  541MOL0     H71393   1.884   4.611   6.147  0.3224 -0.5714  0.1588
  541MOL0     H71394   2.811   4.231   5.583 -1.8924 -1.6649 -0.6077
  541MOL0     H71395   2.925   4.176   5.392 -2.7406 -0.8122 -2.5355
  541MOL0     H71396   2.945   4.397   4.910 -0.9251 -2.7179  1.1789
  541MOL0     H71397   3.056   4.399   4.683  0.9886 -1.3359 -0.8088
  541MOL0     H71398   4.377   4.776   3.873 -0.1272 -0.2825  0.8298
  541MOL0     H71399   4.613   4.678   3.892 -1.6075  0.6708 -0.0284
  541MOL0     H71400   5.023   4.472   3.805 -0.4968 -1.4434  1.1948
  541MOL0     H71401   5.260   4.425   3.888  0.4613  0.2173 -0.4554
  541MOL0     H71402   5.517   4.753   4.058  1.0719 -0.4524  0.3910
  541MOL0     H71403   5.563   4.739   3.887  1.2525  1.8040  1.4633
  541MOL0     H71404   5.648   4.582   4.124 -0.1850  0.4913 -0.7533
  541MOL0     H71405   5.664   4.508   3.965  1.7082  0.6768  1.1329
  541MOL0     H71406   5.799   4.769   4.054 -0.0404 -0.5019  0.4937
  541MOL0     H71407   5.811   4.698   3.895  0.8432  0.1665  0.8615
  541MOL0     H71408   5.882   4.556   4.150 -0.0843  2.9662 -0.2364
  541MOL0     H71409   5.903   4.478   3.998 -1.2768  1.5449 -2.1108
  541MOL0     H71410   6.261   4.679   3.967  0.0481 -3.1488 -5.4608
  541MOL0     H71411   5.323   4.854   3.946 -1.8584  1.7192  1.9216
  541MOL0     H71412   5.097   4.892   3.912  0.6841  0.3785 -2.5465
  542MOL0     O71413   5.955   7.000   8.207  0.0053 -0.1718  0.1278
  542MOL0     C71414   5.971   6.905   8.134  0.1303  0.5503  0.7866
  542MOL0     O71415   5.874   6.847   8.052  0.2698  0.1458 -0.6173
  542MOL0     C71416   5.776   6.929   8.008 -0.3358 -0.1396 -0.2539
  542MOL0     C71417   5.798   7.057   7.953  0.1282  0.7912 -1.1967
  542MOL0     C71418   5.694   7.138   7.921  0.1691  0.3258  0.1105
  542MOL0     C71419   5.556   7.097   7.920 -0.3558  0.5724  0.4911
  542MOL0     O71420   5.463   7.190   7.888  0.4923  0.3314  0.3636
  542MOL0     C71421   5.323   7.160   7.890 -0.5119  0.3612 -0.1410
  542MOL0     C71422   5.232   7.279   7.875 -0.1178 -0.2298 -0.4820
  542MOL0     C71423   5.082   7.238   7.885 -0.4087  0.7969 -0.2742
  542MOL0     C71424   4.997   7.359   7.864  0.6010 -0.5917 -0.3324
  542MOL0     C71425   4.846   7.332   7.883  0.1122 -0.2215 -0.5253
  542MOL0     C71426   4.754   7.445   7.839  0.3508  0.1360 -0.3052
  542MOL0     C71427   4.612   7.421   7.879  0.3968 -0.1205  0.2736
  542MOL0     C71428   4.546   7.328   7.775 -0.1462  1.0903 -0.7439
  542MOL0     N71429   4.400   7.323   7.793 -0.0956  0.1471 -0.4081
  542MOL0     C71430   4.316   7.432   7.788  0.9312  0.1858  0.2492
  542MOL0     C71431   4.191   7.384   7.785 -0.0200 -0.2257  0.1689
  542MOL0     C71432   4.071   7.471   7.768  0.2336  0.8952 -1.0251
  542MOL0     C71433   3.957   7.393   7.704  0.1864  0.9786 -0.8243
  542MOL0     C71434   3.823   7.478   7.696  0.2557  0.1112 -0.3190
  542MOL0     C71435   3.716   7.388   7.642 -0.7294  0.1567  0.4061
  542MOL0     O71436   3.667   7.281   7.730  0.0381  0.4051  0.4993
  542MOL0     C71437   3.550   7.211   7.694  0.0551 -0.6543 -0.3332
  542MOL0     C71438   3.549   7.079   7.718 -0.5812 -0.3255  0.1393
  542MOL0     C71439   3.434   7.005   7.690 -0.6428 -0.3791  0.9574
  542MOL0     C71440   3.317   7.067   7.635  0.0315  1.0772  0.8577
  542MOL0     C71441   3.200   6.986   7.605 -1.0659  0.2361 -0.6254
  542MOL0     O71442   3.212   6.858   7.636  0.3172 -0.0954  0.1940
  542MOL0     C71443   3.108   6.783   7.593  0.0133  0.5699 -0.0082
  542MOL0     C71444   2.978   6.788   7.652  0.1132  0.7484 -0.1771
  542MOL0     C71445   2.875   6.728   7.587  0.4553 -0.2421  0.0264
  542MOL0     C71446   2.891   6.664   7.464  0.1890 -0.0728 -0.7082
  542MOL0     O71447   2.773   6.607   7.417  0.3467  0.4450  0.1204
  542MOL0     C71448   2.797   6.518   7.306  0.7823  0.5254  0.6159
  542MOL0     C71449   2.674   6.425   7.279  0.2069  0.4036 -0.3556
  542MOL0     C71450   2.540   6.489   7.245  1.0161  0.0283 -0.0925
  542MOL0     C71451   2.554   6.600   7.137  0.6976  0.4067 -0.0838
  542MOL0     C71452   2.423   6.671   7.102 -0.5472 -0.1534  0.5299
  542MOL0     C71453   2.436   6.818   7.043  0.2276 -0.9346 -0.1954
  542MOL0     C71454   2.304   6.879   6.999 -0.1125  0.3356  0.7850
  542MOL0     C71455   2.267   6.837   6.854 -0.3183  0.4581 -0.5491
  542MOL0    Cl71456   2.136   6.950   6.798  0.2447  0.2448 -0.3872
  542MOL0     C71457   3.018   6.658   7.404 -0.7426 -1.0790  0.0013
  542MOL0     C71458   3.132   6.719   7.468  0.4209  0.3277  0.4676
  542MOL0     O71459   3.115   7.042   7.541  0.5191  0.3701  0.3913
  542MOL0     C71460   3.322   7.198   7.603 -0.4269 -0.6198  0.4446
  542MOL0     C71461   3.437   7.270   7.632 -0.6810  0.4713  0.0484
  542MOL0     N71462   4.197   7.244   7.796  0.7427 -0.3227 -0.3184
  542MOL0     N71463   4.324   7.216   7.796 -0.1094  1.0794 -0.3588
  542MOL0     C71464   5.538   6.965   7.976  0.1569  0.4189  0.3814
  542MOL0     C71465   5.640   6.890   8.029  0.5801  0.0447 -0.5386
  542MOL0     C71466   6.105   6.848   8.122  0.5052 -0.4922  0.2580
  542MOL0     C71467   6.111   6.716   8.082  0.1923  0.2312  0.1967
  542MOL0     C71468   6.225   6.642   8.088  0.2073  0.8431 -0.4820
  542MOL0     C71469   6.339   6.694   8.140 -1.2262  0.4732  0.3687
  542MOL0     O71470   6.444   6.610   8.152  0.0535  1.1291 -0.1060
  542MOL0     C71471   6.571   6.664   8.159  0.3964  1.0578  0.6852
  542MOL0     C71472   6.674   6.546   8.125 -0.3034  0.2489  0.6764
  542MOL0     C71473   6.819   6.595   8.117 -1.1439 -0.4951 -0.3483
  542MOL0     C71474   6.918   6.489   8.088 -1.1566 -0.0839  0.1528
  542MOL0     C71475   6.919   6.387   8.193 -0.6695 -0.5204  0.3104
  542MOL0     C71476   6.919   6.285   8.253 -0.2500 -0.2787  0.0961
  542MOL0     C71477   6.334   6.834   8.177 -0.4481 -0.0807 -0.0099
  542MOL0     C71478   6.221   6.912   8.171 -0.2004  0.3488  0.9449
  542MOL0     H71479   5.899   7.089   7.930  1.2763 -0.9304  1.1037
  542MOL0     H71480   5.707   7.238   7.880 -2.9211  0.4288 -0.8643
  542MOL0     H71481   5.302   7.103   7.981  2.0457 -0.3199  0.1078
  542MOL0     H71482   5.290   7.108   7.799 -1.4998  1.7837 -0.6311
  542MOL0     H71483   5.249   7.327   7.779  0.3072 -1.0121 -0.8029
  542MOL0     H71484   5.257   7.353   7.953 -1.2040 -0.9978  0.6292
  542MOL0     H71485   5.073   7.183   7.979 -1.3034 -0.9914 -1.3522
  542MOL0     H71486   5.059   7.166   7.806 -1.3632  0.9775 -0.1724
  542MOL0     H71487   5.021   7.443   7.929 -2.6213 -0.9961  1.6103
  542MOL0     H71488   5.021   7.381   7.760 -0.9942  0.2187 -0.5594
  542MOL0     H71489   4.842   7.305   7.989  1.1741  0.4564 -0.2891
  542MOL0     H71490   4.808   7.249   7.823 -1.1407 -0.7406  0.9234
  542MOL0     H71491   4.741   7.459   7.732 -4.6489 -0.2091  0.0092
  542MOL0     H71492   4.785   7.538   7.888 -1.5893 -0.3669  2.0882
  542MOL0     H71493   4.612   7.381   7.981 -0.8873  3.1228  1.7102
  542MOL0     H71494   4.558   7.517   7.876 -1.1195 -0.9518 -2.5969
  542MOL0     H71495   4.585   7.226   7.777 -2.6623  0.0733  0.7435
  542MOL0     H71496   4.566   7.364   7.673  2.2806 -0.0696 -0.7505
  542MOL0     H71497   4.334   7.538   7.772  1.3944  0.3305  1.6195
  542MOL0     H71498   4.092   7.556   7.702 -1.1198  1.7075 -0.4403
  542MOL0     H71499   4.032   7.502   7.866 -1.2651 -0.0692 -1.2874
  542MOL0     H71500   3.936   7.300   7.758  1.2633  1.4476  0.4575
  542MOL0     H71501   3.985   7.363   7.602  0.8461 -1.7775  0.0928
  542MOL0     H71502   3.804   7.505   7.800 -1.1774 -1.9740  0.0109
  542MOL0     H71503   3.829   7.560   7.623 -1.9430 -0.4547 -1.2095
  542MOL0     H71504   3.750   7.357   7.543  0.1036  0.6071  0.5386
  542MOL0     H71505   3.627   7.451   7.625  0.4163  2.3176  1.9041
  542MOL0     H71506   3.638   7.036   7.762 -0.8752 -0.2301  0.8328
  542MOL0     H71507   3.430   6.897   7.703  0.4208 -0.3744  1.3959
  542MOL0     H71508   2.970   6.835   7.749  2.9987  1.2783 -0.0975
  542MOL0     H71509   2.778   6.729   7.636 -0.1062  0.9614 -1.0789
  542MOL0     H71510   2.881   6.452   7.329  1.4440  0.7904 -0.8773
  542MOL0     H71511   2.831   6.575   7.219  1.6423 -0.9138 -0.0234
  542MOL0     H71512   2.670   6.354   7.363  3.5512  2.4273  1.7635
  542MOL0     H71513   2.704   6.371   7.189  1.7771 -2.6665  1.7805
  542MOL0     H71514   2.504   6.542   7.333  1.6212  1.1718 -0.5139
  542MOL0     H71515   2.464   6.416   7.215  1.5963 -0.9277  0.7089
  542MOL0     H71516   2.615   6.683   7.173  0.7881  1.4663 -2.4802
  542MOL0     H71517   2.595   6.559   7.044 -3.1349  1.0548 -2.2670
  542MOL0     H71518   2.369   6.680   7.197  1.0353 -1.2205  1.5865
  542MOL0     H71519   2.361   6.614   7.033  1.4649 -0.3745 -1.2057
  542MOL0     H71520   2.510   6.822   6.962  3.2943 -1.8126  2.3908
  542MOL0     H71521   2.467   6.867   7.135 -2.4297  0.5804  0.0039
  542MOL0     H71522   2.217   6.853   7.060  0.3438 -0.2117  1.2139
  542MOL0     H71523   2.309   6.988   6.991 -2.4599  0.3806 -1.4441
  542MOL0     H71524   2.244   6.730   6.855  3.1890 -0.6091  4.3924
  542MOL0     H71525   2.361   6.847   6.800 -0.8925 -0.2954 -1.7330
  542MOL0     H71526   3.023   6.614   7.305 -0.6674 -2.2196  0.4889
  542MOL0     H71527   3.227   6.710   7.416 -0.8381  0.0883 -1.9630
  542MOL0     H71528   3.239   7.258   7.567  0.5450  0.4854 -0.0186
  542MOL0     H71529   3.433   7.377   7.613  0.6946  0.3276 -1.2200
  542MOL0     H71530   5.438   6.922   7.983 -1.9895  4.5756 -1.5130
  542MOL0     H71531   5.612   6.793   8.071  0.5818 -0.4607 -1.6737
  542MOL0     H71532   6.020   6.664   8.054 -0.8064  0.2638  3.0536
  542MOL0     H71533   6.215   6.541   8.050  3.6584  1.0610 -2.3684
  542MOL0     H71534   6.581   6.711   8.258 -3.6970  0.6495  1.4518
  542MOL0     H71535   6.581   6.740   8.081 -0.1365  1.1661  0.7184
  542MOL0     H71536   6.670   6.468   8.202  1.2732  2.6650  3.4370
  542MOL0     H71537   6.639   6.502   8.032  0.4688 -0.3350  0.6455
  542MOL0     H71538   6.848   6.642   8.212  3.0747  0.7961 -2.0619
  542MOL0     H71539   6.827   6.666   8.034 -1.7712 -0.6501 -0.5455
  542MOL0     H71540   6.889   6.447   7.991  1.1193  4.5183 -2.8522
  542MOL0     H71541   7.018   6.532   8.082 -1.9275  1.5330 -2.3931
  542MOL0     H71542   6.947   6.199   8.311  1.1239 -0.2606 -0.4990
  542MOL0     H71543   6.420   6.887   8.217 -0.3622  1.0406 -1.6055
  542MOL0     H71544   6.221   7.018   8.193  2.6689  0.2483  1.7464
  543MOL0     O71545   4.659   9.264   6.544  0.4115  0.0045 -1.0177
  543MOL0     C71546   4.689   9.279   6.427 -0.6789  0.1850  0.0423
  543MOL0     O71547   4.613   9.280   6.312 -0.0128  0.5744  0.0553
  543MOL0     C71548   4.481   9.243   6.325  0.1646 -0.3226  0.0966
  543MOL0     C71549   4.412   9.180   6.435 -0.5051  0.3400  0.0865
  543MOL0     C71550   4.275   9.164   6.432 -0.8489  0.2832 -1.0643
  543MOL0     C71551   4.201   9.208   6.327  0.7301 -0.5933  0.2384
  543MOL0     O71552   4.063   9.172   6.326 -0.0598 -0.5153 -0.6173
  543MOL0     C71553   3.978   9.230   6.230 -1.5491 -0.0681  0.4319
  543MOL0     C71554   3.847   9.219   6.303  0.4346  0.5216  0.1949
  543MOL0     C71555   3.729   9.235   6.201  0.0554 -0.0479 -0.5543
  543MOL0     C71556   3.740   9.368   6.138 -0.3337  0.6721  0.7696
  543MOL0     C71557   3.613   9.400   6.056  0.0926  0.1018  0.2853
  543MOL0     C71558   3.597   9.553   6.026 -0.4849 -0.3095 -0.0567
  543MOL0     C71559   3.459   9.583   5.955 -0.1293 -0.0750  0.5776
  543MOL0     C71560   3.450   9.569   5.802 -0.9066 -0.6781 -0.2051
  543MOL0     N71561   3.312   9.566   5.758 -0.0459  0.4943 -0.5616
  543MOL0     C71562   3.238   9.458   5.750  0.3490  0.1574 -0.2742
  543MOL0     C71563   3.120   9.497   5.707  0.3700 -0.1186 -0.4723
  543MOL0     C71564   3.001   9.415   5.724  0.4201  0.3589 -0.3912
  543MOL0     C71565   3.014   9.268   5.703  0.2053 -0.4689  0.3780
  543MOL0     C71566   2.873   9.201   5.700  0.0763 -0.1411 -0.3996
  543MOL0     C71567   2.781   9.256   5.810 -0.7576  0.0173  0.2034
  543MOL0     O71568   2.669   9.169   5.834  0.7358  0.6523  0.4461
  543MOL0     C71569   2.544   9.228   5.813  0.5003  0.4838 -0.2000
  543MOL0     C71570   2.509   9.279   5.686 -1.2364 -0.3966 -0.2311
  543MOL0     C71571   2.382   9.334   5.656 -0.1324 -0.3159 -0.2200
  543MOL0     C71572   2.282   9.336   5.767  0.2284 -0.2145 -0.4549
  543MOL0     C71573   2.143   9.387   5.730 -0.5247 -0.0597 -0.5112
  543MOL0     O71574   2.066   9.440   5.829  0.3300 -0.7566  1.2554
  543MOL0     C71575   1.934   9.468   5.825 -0.7283 -0.6295  0.6026
  543MOL0     C71576   1.880   9.565   5.912  0.3041 -0.0180 -0.0249
  543MOL0     C71577   1.746   9.605   5.902  0.4453 -0.3266  0.0449
  543MOL0     C71578   1.658   9.538   5.818 -0.4203 -0.1816 -0.3548
  543MOL0     O71579   1.526   9.569   5.793 -0.4255  0.3529  0.0130
  543MOL0     C71580   1.468   9.684   5.860 -0.6883 -0.4563 -0.4294
  543MOL0     C71581   1.330   9.706   5.797 -0.5517 -0.1900 -0.3012
  543MOL0     C71582   1.255   9.793   5.897 -0.1527  0.5753  0.0514
  543MOL0     C71583   1.093   9.775   5.882 -1.1212  0.3107 -0.2766
  543MOL0     C71584   1.048   9.679   5.984  0.0029  0.8163 -1.0030
  543MOL0     C71585   0.892   9.648   5.971  0.3156 -0.4051 -0.4609
  543MOL0     C71586   0.857   9.514   6.037 -0.7092  0.0505 -0.5274
  543MOL0     C71587   0.717   9.470   6.002 -0.0846 -0.1503 -0.7050
  543MOL0    Cl71588   0.737   9.407   5.835 -0.0187 -0.0145  0.2303
  543MOL0     C71589   1.710   9.437   5.743  0.6370 -1.4310  0.6024
  543MOL0     C71590   1.844   9.403   5.743  0.5700 -0.4373 -1.0241
  543MOL0     O71591   2.116   9.384   5.608 -0.2442 -0.0885  0.1839
  543MOL0     C71592   2.312   9.295   5.895  0.0768  0.6321  0.0158
  543MOL0     C71593   2.446   9.245   5.910 -0.2335 -0.2540 -0.0754
  543MOL0     N71594   3.134   9.624   5.669  0.0305  0.1120  0.4079
  543MOL0     N71595   3.250   9.667   5.698  0.2101 -0.2129 -0.4183
  543MOL0     C71596   4.262   9.270   6.216 -0.4229  0.1289  1.3671
  543MOL0     C71597   4.402   9.282   6.215  0.4241 -0.3151 -0.9641
  543MOL0     C71598   4.839   9.297   6.404  0.8602 -0.5460  1.0527
  543MOL0     C71599   4.931   9.238   6.489  1.0340  0.9876  0.3442
  543MOL0     C71600   5.063   9.250   6.459  0.5124 -0.4199  0.3350
  543MOL0     C71601   5.112   9.316   6.352 -0.3408  0.4230  0.3550
  543MOL0     O71602   5.251   9.341   6.348  0.0117 -0.5935 -0.3486
  543MOL0     C71603   5.303   9.429   6.249  0.4473  0.6630 -0.4712
  543MOL0     C71604   5.448   9.451   6.301 -0.2756 -0.0660  0.5136
  543MOL0     C71605   5.536   9.532   6.208  0.0728 -0.1991  0.0918
  543MOL0     C71606   5.616   9.445   6.117  0.1391  0.6461 -0.0899
  543MOL0     C71607   5.732   9.378   6.191  0.3331  0.0696 -0.2178
  543MOL0     C71608   5.825   9.325   6.247  0.1143 -0.2776 -0.1158
  543MOL0     C71609   5.017   9.370   6.258 -0.6748  0.7758  0.4338
  543MOL0     C71610   4.883   9.358   6.288  0.3225 -0.7334 -0.8339
  543MOL0     H71611   4.471   9.134   6.514  2.4259  0.5761 -1.7961
  543MOL0     H71612   4.226   9.112   6.514 -1.4242 -0.4269 -1.8480
  543MOL0     H71613   3.978   9.180   6.133  0.8343  1.0592 -0.2328
  543MOL0     H71614   3.993   9.336   6.211 -1.6482  0.2660  2.1064
  543MOL0     H71615   3.832   9.300   6.375 -4.1909 -0.1604  0.3059
  543MOL0     H71616   3.829   9.125   6.354 -1.7724  1.0515  0.4670
  543MOL0     H71617   3.638   9.231   6.262  0.7936  0.5345  0.6243
  543MOL0     H71618   3.731   9.148   6.134 -0.6771 -1.6050  1.3481
  543MOL0     H71619   3.749   9.443   6.217  0.2762  0.3115  1.0573
  543MOL0     H71620   3.830   9.386   6.078 -1.2627 -0.4780 -1.0513
  543MOL0     H71621   3.524   9.369   6.111 -0.8232  0.5335 -0.9026
  543MOL0     H71622   3.612   9.340   5.964 -3.3081 -0.5726  0.6160
  543MOL0     H71623   3.686   9.604   5.987 -0.4617 -0.9100 -0.8332
  543MOL0     H71624   3.582   9.604   6.121  1.3352  3.6760 -1.6947
  543MOL0     H71625   3.378   9.516   5.986  0.2372 -1.6852 -1.6564
  543MOL0     H71626   3.437   9.685   5.987  2.1394  0.7197 -0.1881
  543MOL0     H71627   3.493   9.471   5.778 -0.7082 -0.6868  0.1701
  543MOL0     H71628   3.497   9.645   5.739 -2.2918 -1.8431 -2.7967
  543MOL0     H71629   3.260   9.361   5.794 -0.5776  0.6931  1.4931
  543MOL0     H71630   2.922   9.451   5.657 -1.0257  0.0597  1.0926
  543MOL0     H71631   2.967   9.441   5.824 -1.7557  2.5013 -1.5852
  543MOL0     H71632   3.081   9.227   5.779 -0.1096 -1.4230  0.1551
  543MOL0     H71633   3.053   9.260   5.602 -0.9851  0.0061 -0.1463
  543MOL0     H71634   2.823   9.219   5.604 -2.1122  1.0992  0.8797
  543MOL0     H71635   2.887   9.096   5.727  0.1445 -0.5484 -1.9131
  543MOL0     H71636   2.745   9.351   5.771 -0.6357  0.0615  0.1978
  543MOL0     H71637   2.841   9.271   5.900  0.3685  1.3385 -0.7389
  543MOL0     H71638   2.586   9.284   5.610  1.6583  1.8598  2.5351
  543MOL0     H71639   2.359   9.368   5.556  1.3754  0.1085 -0.4407
  543MOL0     H71640   1.948   9.616   5.979  0.2921 -0.2139  0.1362
  543MOL0     H71641   1.707   9.673   5.976 -0.0378 -2.6888  2.1200
  543MOL0     H71642   1.519   9.780   5.875 -1.5113 -0.1249  0.4030
  543MOL0     H71643   1.441   9.637   5.954 -0.7150 -2.0075 -1.1894
  543MOL0     H71644   1.285   9.607   5.785 -0.0062 -0.3876 -0.7448
  543MOL0     H71645   1.347   9.757   5.702 -1.4047  2.6257  0.9536
  543MOL0     H71646   1.285   9.895   5.870  1.7436  0.9699  3.2138
  543MOL0     H71647   1.279   9.779   6.002 -2.6493 -2.3135  0.3818
  543MOL0     H71648   1.051   9.874   5.902  0.3280  0.8176  0.3824
  543MOL0     H71649   1.055   9.733   5.788 -1.8184 -4.8485  1.9268
  543MOL0     H71650   1.061   9.710   6.088 -0.6490 -3.2922  0.5036
  543MOL0     H71651   1.100   9.583   5.978  0.0141  0.6764  0.8987
  543MOL0     H71652   0.868   9.651   5.864 -0.2065  2.2401 -0.3272
  543MOL0     H71653   0.832   9.733   6.004  1.7225  1.2721 -2.0336
  543MOL0     H71654   0.930   9.437   6.010  2.7789  3.3997 -1.5408
  543MOL0     H71655   0.859   9.529   6.145 -2.0229 -2.7858 -0.0315
  543MOL0     H71656   0.642   9.550   6.009 -0.7745 -0.6219 -2.2241
  543MOL0     H71657   0.694   9.397   6.079  2.0929  0.9479  1.1118
  543MOL0     H71658   1.647   9.399   5.663  0.5670 -0.3032  0.0967
  543MOL0     H71659   1.876   9.317   5.684  0.9203 -0.7233 -0.4230
  543MOL0     H71660   2.246   9.277   5.979  1.7798 -1.0513  1.0725
  543MOL0     H71661   2.473   9.193   6.001  3.5472  0.0628 -0.8683
  543MOL0     H71662   4.214   9.311   6.128  0.9944 -0.3185  0.3544
  543MOL0     H71663   4.444   9.341   6.135  0.6971  0.8564  0.0035
  543MOL0     H71664   4.897   9.168   6.564 -0.2268  0.0341 -1.0467
  543MOL0     H71665   5.136   9.214   6.532  0.2867  1.2936  1.4522
  543MOL0     H71666   5.262   9.530   6.245 -1.6747 -0.1155  0.2021
  543MOL0     H71667   5.299   9.376   6.154  1.6103  1.5853 -1.0544
  543MOL0     H71668   5.446   9.497   6.401 -0.0605  1.1169 -0.0070
  543MOL0     H71669   5.495   9.354   6.317  0.5529  0.3737  0.8022
  543MOL0     H71670   5.609   9.598   6.256  0.2021 -1.9597  2.5438
  543MOL0     H71671   5.475   9.599   6.147 -0.3115  0.1800  0.8799
  543MOL0     H71672   5.552   9.370   6.068  0.0870  0.7885 -0.2408
  543MOL0     H71673   5.661   9.507   6.039  0.2238 -1.2895 -1.6716
  543MOL0     H71674   5.911   9.281   6.292  0.5195  0.6712  0.0561
  543MOL0     H71675   5.047   9.398   6.158 -0.4205 -0.6147  0.0916
  543MOL0     H71676   4.821   9.401   6.210  0.5445 -2.4688 -2.0291
  544MOL0     O71677  10.003   1.770   6.666 -0.2522 -0.1315 -0.4713
  544MOL0     C71678   9.950   1.802   6.560  0.1767 -0.0421 -0.3751
  544MOL0     O71679  10.019   1.858   6.455  0.1973  0.2576  0.4698
  544MOL0     C71680  10.157   1.868   6.446 -0.9002 -1.0276  0.2757
  544MOL0     C71681  10.248   1.866   6.552 -0.4786  1.0848  0.0249
  544MOL0     C71682  10.385   1.871   6.533 -0.1907  0.0687 -0.3935
  544MOL0     C71683  10.438   1.876   6.401 -0.0750  0.6422  0.4894
  544MOL0     O71684  10.571   1.863   6.392 -0.7178  0.2397  0.0123
  544MOL0     C71685  10.634   1.860   6.262  0.1881  0.6491 -0.3084
  544MOL0     C71686  10.785   1.810   6.266  0.7576 -0.0894 -0.2650
  544MOL0     C71687  10.886   1.916   6.327 -0.4961 -0.0405 -0.1836
  544MOL0     C71688  11.027   1.861   6.317  1.1338 -0.0229  0.2728
  544MOL0     C71689  11.129   1.940   6.409  0.4248 -0.0050 -0.1315
  544MOL0     C71690  11.271   1.910   6.375 -0.5711  0.3754 -0.4581
  544MOL0     C71691  11.307   1.760   6.363  0.7710  0.2673  0.5564
  544MOL0     C71692  11.284   1.678   6.489 -0.7956 -0.2528  0.6847
  544MOL0     N71693  11.367   1.738   6.599  0.2959  1.1139 -0.7767
  544MOL0     C71694  11.316   1.761   6.721  0.2861  0.3737  0.1372
  544MOL0     C71695  11.422   1.797   6.803 -0.0034 -0.2543  0.0910
  544MOL0     C71696  11.422   1.839   6.945  0.1497 -0.1427 -0.1126
  544MOL0     C71697  11.332   1.746   7.027  0.5258 -0.2624 -0.2983
  544MOL0     C71698  11.349   1.766   7.183 -0.4004 -0.5799  0.5154
  544MOL0     C71699  11.260   1.665   7.246 -0.5629  1.1126 -0.3533
  544MOL0     O71700  11.128   1.667   7.186  0.7522  0.4614 -0.4573
  544MOL0     C71701  11.020   1.609   7.252 -0.0673 -0.0625 -0.3447
  544MOL0     C71702  10.913   1.582   7.171  1.3995 -0.0081 -0.2991
  544MOL0     C71703  10.789   1.534   7.219 -0.3981 -1.4119  0.8342
  544MOL0     C71704  10.783   1.495   7.351 -0.1955  0.1791 -0.1349
  544MOL0     C71705  10.654   1.437   7.402  0.3231 -0.0037  0.1671
  544MOL0     O71706  10.638   1.400   7.534 -0.4752  0.3324 -0.8232
  544MOL0     C71707  10.510   1.368   7.588  0.5440  0.2715 -0.5261
  544MOL0     C71708  10.492   1.256   7.677  0.6611 -0.3959  0.1421
  544MOL0     C71709  10.365   1.213   7.712 -0.6461  0.6972  0.5672
  544MOL0     C71710  10.255   1.286   7.667  0.5261 -0.1630  0.1482
  544MOL0     O71711  10.132   1.241   7.701 -1.0958 -0.4208 -0.0891
  544MOL0     C71712  10.085   1.291   7.830  0.5481 -0.6466  0.4520
  544MOL0     C71713   9.932   1.320   7.826 -0.1593  0.1339  0.3762
  544MOL0     C71714   9.891   1.370   7.958 -0.7274  0.0176 -0.1769
  544MOL0     C71715   9.740   1.399   7.962  1.3264 -0.8506 -0.3420
  544MOL0     C71716   9.648   1.274   7.955 -0.7270  0.2152  0.5911
  544MOL0     C71717   9.621   1.205   8.094 -0.5469 -0.1433  0.0896
  544MOL0     C71718   9.525   1.266   8.198  0.7522  0.4625 -0.2065
  544MOL0     C71719   9.581   1.382   8.288  0.4590  0.2100  0.1700
  544MOL0    Cl71720   9.454   1.439   8.406 -0.0102  0.1102 -0.1576
  544MOL0     C71721  10.266   1.405   7.596  0.2976 -0.2804  0.1644
  544MOL0     C71722  10.391   1.445   7.553 -0.3295  0.2681 -0.2198
  544MOL0     O71723  10.561   1.438   7.322 -0.7434  0.5792  0.0280
  544MOL0     C71724  10.893   1.512   7.439 -0.9585  0.0568  1.0327
  544MOL0     C71725  11.012   1.573   7.390 -0.1924  1.5380  0.5029
  544MOL0     N71726  11.536   1.795   6.723  0.0939  0.7225 -0.3118
  544MOL0     N71727  11.502   1.772   6.604 -0.2721  0.6311 -0.5421
  544MOL0     C71728  10.348   1.892   6.297 -0.2044 -0.4477 -0.8012
  544MOL0     C71729  10.211   1.879   6.317 -0.1664 -0.0104  0.1756
  544MOL0     C71730   9.801   1.794   6.540 -0.5196  0.4872  0.2515
  544MOL0     C71731   9.744   1.830   6.414  0.2688  0.2291 -0.1005
  544MOL0     C71732   9.602   1.822   6.396 -0.0005 -0.3421  0.9588
  544MOL0     C71733   9.516   1.789   6.495 -0.9999 -0.4980  0.3698
  544MOL0     O71734   9.384   1.791   6.464 -0.5274  0.2249  0.1671
  544MOL0     C71735   9.286   1.779   6.566 -0.6766  0.1217  0.6110
  544MOL0     C71736   9.271   1.908   6.636 -0.2087 -0.7842  0.0510
  544MOL0     C71737   9.137   1.924   6.706  0.0109  0.8148  1.1127
  544MOL0     C71738   9.118   2.058   6.775 -0.1325 -1.2944 -0.5355
  544MOL0     C71739   9.139   2.170   6.681  1.1475  0.3191  0.1715
  544MOL0     C71740   9.159   2.271   6.611  0.2067  0.0661  0.2623
  544MOL0     C71741   9.569   1.750   6.616 -0.4366  0.0409  0.6725
  544MOL0     C71742   9.709   1.755   6.639 -0.9970  0.3047  0.5293
  544MOL0     H71743  10.207   1.872   6.653 -2.6644  3.1380 -0.8836
  544MOL0     H71744  10.461   1.864   6.609 -0.9344 -1.0588  0.2761
  544MOL0     H71745  10.629   1.953   6.206 -1.8699 -0.5248 -2.2417
  544MOL0     H71746  10.577   1.785   6.206 -1.4988  0.6470  1.3302
  544MOL0     H71747  10.814   1.785   6.164  0.4424 -0.4333 -0.2728
  544MOL0     H71748  10.788   1.733   6.344 -0.1577  2.1827  2.1572
  544MOL0     H71749  10.863   1.911   6.434  0.6573  0.8269  0.1316
  544MOL0     H71750  10.878   2.020   6.292  2.2915  0.2763 -0.1168
  544MOL0     H71751  11.018   1.756   6.346 -0.1490  0.5686  2.2829
  544MOL0     H71752  11.061   1.866   6.213 -4.0233  0.4508 -1.6946
  544MOL0     H71753  11.123   1.925   6.517 -1.8753  0.2085 -0.1863
  544MOL0     H71754  11.099   2.043   6.390 -4.2429 -1.2604 -0.7071
  544MOL0     H71755  11.344   1.958   6.440 -1.5264 -0.7701  1.5520
  544MOL0     H71756  11.290   1.944   6.273 -0.1534  4.4438  0.8137
  544MOL0     H71757  11.248   1.714   6.283  2.0593 -2.4401  1.0596
  544MOL0     H71758  11.410   1.736   6.335  0.5480 -2.2793  1.6336
  544MOL0     H71759  11.314   1.575   6.468  0.1757  0.0387  0.6311
  544MOL0     H71760  11.178   1.679   6.518 -0.9880 -1.5267  0.0818
  544MOL0     H71761  11.212   1.749   6.752  0.1908  0.7679 -0.0132
  544MOL0     H71762  11.401   1.946   6.954  0.3344  0.1324 -2.3624
  544MOL0     H71763  11.523   1.838   6.989  0.2797  0.6583 -0.3789
  544MOL0     H71764  11.348   1.641   7.003 -0.1311 -0.7250  1.1420
  544MOL0     H71765  11.227   1.754   6.996  0.1760  2.0216  1.2065
  544MOL0     H71766  11.454   1.750   7.208 -0.6114 -1.0120  1.1500
  544MOL0     H71767  11.313   1.865   7.216 -0.4396 -0.7417  0.9625
  544MOL0     H71768  11.255   1.700   7.349 -0.6844  4.9119 -1.4856
  544MOL0     H71769  11.308   1.567   7.253  1.7873  2.1354 -1.0478
  544MOL0     H71770  10.904   1.611   7.067 -3.0310  1.4409  0.2986
  544MOL0     H71771  10.703   1.529   7.153 -1.0465 -1.4188  1.6553
  544MOL0     H71772  10.581   1.197   7.695  2.2168  0.4979 -3.5374
  544MOL0     H71773  10.346   1.126   7.773 -0.7663 -0.3676 -0.9314
  544MOL0     H71774  10.144   1.379   7.856  0.7740 -1.6123  3.6435
  544MOL0     H71775  10.104   1.224   7.915 -0.8848  0.7442  1.9474
  544MOL0     H71776   9.883   1.226   7.800 -0.1204 -0.2631  1.6453
  544MOL0     H71777   9.912   1.402   7.756  1.7765  0.4908  0.1616
  544MOL0     H71778   9.946   1.464   7.973  1.5741 -1.6352  3.0412
  544MOL0     H71779   9.915   1.295   8.034  1.4848  0.0318 -0.7908
  544MOL0     H71780   9.707   1.472   8.037  0.2727  0.0281 -1.6138
  544MOL0     H71781   9.723   1.456   7.870  1.1982  0.6464  0.5646
  544MOL0     H71782   9.702   1.203   7.892  1.6309  1.4728  1.0867
  544MOL0     H71783   9.556   1.296   7.899 -0.3366  2.0973  0.6180
  544MOL0     H71784   9.713   1.209   8.153 -1.9565 -1.1520  2.5335
  544MOL0     H71785   9.584   1.104   8.073 -1.0979  0.6378 -3.1576
  544MOL0     H71786   9.437   1.305   8.147  0.3498 -0.1335  0.0180
  544MOL0     H71787   9.517   1.178   8.262 -1.3469  0.7672  0.0119
  544MOL0     H71788   9.588   1.464   8.216 -2.3810 -1.0707 -1.7408
  544MOL0     H71789   9.679   1.363   8.334  0.7372  1.4132  0.1076
  544MOL0     H71790  10.180   1.461   7.563  0.6005  0.7038  0.9925
  544MOL0     H71791  10.402   1.528   7.484  2.7138  1.1245  1.1269
  544MOL0     H71792  10.896   1.471   7.540  2.3307 -1.1163  0.5807
  544MOL0     H71793  11.095   1.603   7.455  3.8685 -2.0072 -2.4742
  544MOL0     H71794  10.389   1.894   6.196  1.7208 -3.2230 -0.1998
  544MOL0     H71795  10.136   1.878   6.239 -0.3884 -1.9215  0.3617
  544MOL0     H71796   9.808   1.846   6.328  0.2166  1.1886  0.0277
  544MOL0     H71797   9.559   1.843   6.299  1.0385 -1.7587  0.1450
  544MOL0     H71798   9.301   1.695   6.634 -0.9200 -1.6730 -1.4665
  544MOL0     H71799   9.194   1.748   6.516 -2.2424  1.4755  2.4891
  544MOL0     H71800   9.346   1.919   6.714 -0.2771 -1.2344  0.1856
  544MOL0     H71801   9.273   1.985   6.559 -0.2498 -1.9596 -1.1773
  544MOL0     H71802   9.127   1.837   6.773  1.0787 -1.9813 -2.0846
  544MOL0     H71803   9.049   1.908   6.643 -0.2614  1.5615  1.2982
  544MOL0     H71804   9.014   2.058   6.808 -0.1286  1.1558 -0.2847
  544MOL0     H71805   9.190   2.066   6.857 -0.6227 -1.6895 -0.0697
  544MOL0     H71806   9.171   2.358   6.550  0.4700  1.3649  2.1003
  544MOL0     H71807   9.505   1.734   6.703 -1.1486 -2.2414 -0.2059
  544MOL0     H71808   9.741   1.733   6.740 -1.5450  2.5949  1.2761
  545MOL0     O71809   6.535   0.551   5.224  0.2850  0.3052  0.9353
  545MOL0     C71810   6.647   0.522   5.271  0.3326  0.1658  0.2466
  545MOL0     O71811   6.679   0.400   5.339 -0.7073 -0.1761  0.2294
  545MOL0     C71812   6.575   0.322   5.382  0.1181 -0.0924 -0.7300
  545MOL0     C71813   6.550   0.295   5.518  0.2349  0.2818  0.7415
  545MOL0     C71814   6.449   0.215   5.561 -0.2795  0.3154  0.2920
  545MOL0     C71815   6.359   0.163   5.470  0.6394 -0.1866  0.5015
  545MOL0     O71816   6.255   0.087   5.514 -0.4250  0.4648 -0.7712
  545MOL0     C71817   6.141   0.168   5.546  0.4349 -0.5223  0.7269
  545MOL0     C71818   6.118   0.145   5.690  0.4928  0.5036 -0.2275
  545MOL0     C71819   6.013   0.026   5.724  0.2658  0.0608  0.3121
  545MOL0     C71820   6.019  -0.032   5.872  0.1941 -0.7176  0.1104
  545MOL0     C71821   5.905  -0.121   5.898 -0.1571  0.2848  0.4878
  545MOL0     C71822   5.917  -0.200   6.028 -0.1431  0.8985  1.2101
  545MOL0     C71823   5.820  -0.316   6.052  0.5099 -0.6445  0.1061
  545MOL0     C71824   5.848  -0.394   6.188 -0.1148  0.7284  0.3201
  545MOL0     N71825   5.792  -0.326   6.303  0.4872 -0.0157 -0.0572
  545MOL0     C71826   5.660  -0.301   6.338  0.2735 -0.0775  0.0186
  545MOL0     C71827   5.669  -0.264   6.468 -0.2974 -0.6882 -0.6542
  545MOL0     C71828   5.563  -0.225   6.568  0.7527  0.1625 -0.8556
  545MOL0     C71829   5.437  -0.315   6.541  0.0749 -0.2374 -0.6581
  545MOL0     C71830   5.361  -0.318   6.671 -0.6555  0.1768  0.0393
  545MOL0     C71831   5.229  -0.391   6.662 -0.4893 -0.0967  0.4277
  545MOL0     O71832   5.150  -0.340   6.554  0.0564 -0.0697 -1.0949
  545MOL0     C71833   5.026  -0.401   6.540 -0.1747  0.9041 -0.0597
  545MOL0     C71834   4.939  -0.342   6.449 -0.5258  0.4730  1.0567
  545MOL0     C71835   4.806  -0.393   6.435  0.2059 -1.8839 -0.2946
  545MOL0     C71836   4.754  -0.498   6.514  0.2144  0.7933  0.5117
  545MOL0     C71837   4.613  -0.544   6.508  1.0433  0.1494  1.2280
  545MOL0     O71838   4.575  -0.649   6.586 -0.5833  0.1402  0.2708
  545MOL0     C71839   4.444  -0.695   6.584  0.9917  0.0242 -0.2954
  545MOL0     C71840   4.327  -0.624   6.580  0.2377  0.1127 -1.3943
  545MOL0     C71841   4.201  -0.685   6.564 -0.0539 -0.0605 -0.2299
  545MOL0     C71842   4.180  -0.832   6.555 -0.0649  0.7440  0.5076
  545MOL0     O71843   4.066  -0.901   6.550 -0.0382  0.3023 -0.1489
  545MOL0     C71844   3.958  -0.831   6.492 -1.3543 -0.0146  0.3330
  545MOL0     C71845   3.845  -0.927   6.486  0.9219  0.3555 -0.9056
  545MOL0     C71846   3.702  -0.870   6.449 -0.0846  0.1013  0.2923
  545MOL0     C71847   3.712  -0.806   6.314 -0.3438 -0.4944 -0.2084
  545MOL0     C71848   3.579  -0.754   6.278  1.1974 -0.8171  0.4677
  545MOL0     C71849   3.583  -0.666   6.154 -0.1326  0.1064  1.3408
  545MOL0     C71850   3.435  -0.641   6.114  0.4928 -0.0559  0.0342
  545MOL0     C71851   3.363  -0.746   6.035 -0.1192 -0.1573 -0.3700
  545MOL0    Cl71852   3.421  -0.777   5.869  0.4379 -0.2544 -0.1128
  545MOL0     C71853   4.298  -0.898   6.586 -0.4491  0.2710 -0.6927
  545MOL0     C71854   4.421  -0.828   6.593 -0.4312 -0.5577  0.4015
  545MOL0     O71855   4.540  -0.479   6.431  0.0962 -0.0743  0.0290
  545MOL0     C71856   4.844  -0.563   6.600 -0.0226  0.4254 -0.3622
  545MOL0     C71857   4.975  -0.514   6.620 -0.3259 -0.5176 -0.2423
  545MOL0     N71858   5.802  -0.260   6.503  0.5074 -0.0004 -0.5235
  545MOL0     N71859   5.873  -0.280   6.401 -0.1639  1.0043 -0.9517
  545MOL0     C71860   6.370   0.197   5.337 -0.1285 -0.9241  0.0978
  545MOL0     C71861   6.475   0.276   5.297 -0.3712 -0.4434  0.9601
  545MOL0     C71862   6.749   0.628   5.249 -0.2542  0.2420  0.2758
  545MOL0     C71863   6.882   0.609   5.293 -0.7721 -0.2878  0.2359
  545MOL0     C71864   6.975   0.716   5.276  0.0160 -0.8313 -0.8328
  545MOL0     C71865   6.944   0.837   5.214  0.3764 -0.6126 -0.2199
  545MOL0     O71866   7.024   0.946   5.210  1.0155 -0.3427  0.4886
  545MOL0     C71867   7.164   0.925   5.231  0.2945 -1.0166  0.4113
  545MOL0     C71868   7.237   0.865   5.106  0.4284 -0.1656 -1.2214
  545MOL0     C71869   7.199   0.947   4.975  0.6115 -0.3532 -0.3818
  545MOL0     C71870   7.282   1.080   4.957  0.4790 -0.5476  0.5815
  545MOL0     C71871   7.425   1.044   4.938  0.0899 -0.2192  0.5187
  545MOL0     C71872   7.546   1.010   4.911  0.0894  0.6426 -1.4147
  545MOL0     C71873   6.814   0.850   5.175 -0.0472 -1.2949  0.1453
  545MOL0     C71874   6.720   0.749   5.204  0.7257 -0.5706 -0.4295
  545MOL0     H71875   6.620   0.331   5.593 -0.1374 -0.2999  1.3740
  545MOL0     H71876   6.439   0.205   5.669 -0.3090 -1.7503  0.1341
  545MOL0     H71877   6.053   0.144   5.487  0.6024 -1.3139  0.7841
  545MOL0     H71878   6.162   0.273   5.525  0.6763 -0.9393 -1.2334
  545MOL0     H71879   6.069   0.237   5.723  0.2046  1.4586 -3.0216
  545MOL0     H71880   6.210   0.128   5.746  1.6249  0.3884 -2.0197
  545MOL0     H71881   6.038  -0.061   5.663  0.7667 -0.1426  0.7945
  545MOL0     H71882   5.909   0.053   5.702 -0.0568 -0.5672  1.0411
  545MOL0     H71883   6.120  -0.069   5.897  0.6257  0.2189 -0.1999
  545MOL0     H71884   6.005   0.050   5.943 -0.4108  0.6208 -1.4944
  545MOL0     H71885   5.901  -0.194   5.816  0.1543  1.6169 -0.7587
  545MOL0     H71886   5.813  -0.060   5.894  0.7063  1.5937 -0.2927
  545MOL0     H71887   5.918  -0.129   6.111  1.4905  1.6954  0.5595
  545MOL0     H71888   6.003  -0.268   6.033 -2.5285 -2.3323  1.7955
  545MOL0     H71889   5.717  -0.280   6.044  0.7335  0.3063  1.2071
  545MOL0     H71890   5.821  -0.385   5.967 -0.7910 -1.3058  0.5920
  545MOL0     H71891   5.957  -0.403   6.188 -0.1108 -0.4065 -2.7767
  545MOL0     H71892   5.815  -0.498   6.193  2.5146 -0.1647  0.5419
  545MOL0     H71893   5.565  -0.325   6.292 -1.7058 -0.1558  3.7544
  545MOL0     H71894   5.546  -0.119   6.546  1.7708  0.6633  0.6124
  545MOL0     H71895   5.597  -0.235   6.671 -0.3035  0.8529 -0.4195
  545MOL0     H71896   5.469  -0.416   6.514 -2.1374 -1.4398  0.8974
  545MOL0     H71897   5.386  -0.283   6.449  1.1050  1.8006 -0.5795
  545MOL0     H71898   5.429  -0.364   6.743  3.0142  0.9766 -2.6283
  545MOL0     H71899   5.344  -0.216   6.707 -0.4899  0.3121 -0.2597
  545MOL0     H71900   5.172  -0.379   6.755 -2.1809 -0.9498 -0.4524
  545MOL0     H71901   5.241  -0.500   6.652 -2.4967 -0.2400 -0.8718
  545MOL0     H71902   4.970  -0.262   6.383  2.6035  1.0736  3.0372
  545MOL0     H71903   4.740  -0.338   6.369  2.1821 -0.9983 -1.6243
  545MOL0     H71904   4.337  -0.516   6.584  3.0646 -0.1103  0.1917
  545MOL0     H71905   4.120  -0.613   6.552 -0.8620 -0.7283  0.9841
  545MOL0     H71906   3.985  -0.795   6.393  2.0616 -1.1580  0.7165
  545MOL0     H71907   3.933  -0.741   6.549  1.5950  0.7494  0.5849
  545MOL0     H71908   3.812  -0.960   6.585 -1.5788  2.3591 -0.9749
  545MOL0     H71909   3.862  -1.005   6.411 -2.0655 -0.0005 -1.3646
  545MOL0     H71910   3.671  -0.791   6.518  2.9038  1.4064  0.3057
  545MOL0     H71911   3.628  -0.950   6.445  1.7074 -1.6335  0.3182
  545MOL0     H71912   3.786  -0.727   6.325 -0.1642 -0.3208 -2.2259
  545MOL0     H71913   3.743  -0.880   6.239 -1.0736 -1.3277  0.3006
  545MOL0     H71914   3.534  -0.693   6.357  0.6676  1.0837 -1.2115
  545MOL0     H71915   3.517  -0.838   6.246 -0.9689  0.9269 -0.1539
  545MOL0     H71916   3.637  -0.709   6.069 -1.4021  1.6032 -0.3091
  545MOL0     H71917   3.629  -0.574   6.190 -2.5474  3.1185 -2.3714
  545MOL0     H71918   3.369  -0.611   6.196 -0.6271 -3.8876  0.7392
  545MOL0     H71919   3.435  -0.548   6.055 -1.1511  0.8769  1.4093
  545MOL0     H71920   3.259  -0.712   6.039 -1.0522 -2.6730 -1.3734
  545MOL0     H71921   3.360  -0.839   6.092  0.6907  0.9397  1.5805
  545MOL0     H71922   4.300  -1.007   6.591  1.4364  0.3309  2.3664
  545MOL0     H71923   4.506  -0.891   6.619  1.9886  0.6420 -3.8060
  545MOL0     H71924   4.805  -0.641   6.664  0.1233  0.8050  0.1975
  545MOL0     H71925   5.024  -0.566   6.701  2.1548  1.6449 -0.2295
  545MOL0     H71926   6.294   0.173   5.264  0.2777  3.3811 -2.0230
  545MOL0     H71927   6.486   0.285   5.190  0.6037 -0.9793  1.0007
  545MOL0     H71928   6.914   0.513   5.334  1.2276  1.2254  2.5138
  545MOL0     H71929   7.070   0.705   5.328 -0.9928  2.0253  1.8974
  545MOL0     H71930   7.188   0.860   5.315  2.4374 -3.1868 -1.7372
  545MOL0     H71931   7.200   1.027   5.249 -1.4425 -0.1041 -0.8925
  545MOL0     H71932   7.346   0.863   5.119  0.3604 -3.9009  0.2570
  545MOL0     H71933   7.200   0.762   5.099 -1.3473  0.2398  1.0825
  545MOL0     H71934   7.097   0.983   4.989 -0.3941 -2.4982 -1.6905
  545MOL0     H71935   7.194   0.879   4.890 -0.2114 -0.9893  0.1632
  545MOL0     H71936   7.237   1.127   4.869 -1.2711 -0.0756  1.6762
  545MOL0     H71937   7.273   1.148   5.043  0.5313  2.0528 -1.3497
  545MOL0     H71938   7.648   0.990   4.885  0.7490 -4.4141  3.2675
  545MOL0     H71939   6.773   0.942   5.134  0.4154  0.4817  3.3479
  545MOL0     H71940   6.624   0.774   5.158  2.1961  2.3775 -2.2371
  546MOL0     O71941   5.387   7.395   1.135  0.2065  0.0288 -0.4104
  546MOL0     C71942   5.419   7.515   1.123 -0.4411 -0.1968  0.3123
  546MOL0     O71943   5.331   7.614   1.080  0.0382  0.3987  0.2896
  546MOL0     C71944   5.198   7.585   1.065  0.7245  0.6046  0.0152
  546MOL0     C71945   5.118   7.526   1.169 -0.7338  0.0712 -0.0547
  546MOL0     C71946   4.981   7.515   1.152  0.2451  0.5830 -0.0510
  546MOL0     C71947   4.917   7.544   1.030 -0.2697 -0.6772 -0.4873
  546MOL0     O71948   4.776   7.537   1.027 -0.4571 -0.2756 -0.4879
  546MOL0     C71949   4.701   7.588   0.910  0.2815 -0.8366 -0.5625
  546MOL0     C71950   4.709   7.508   0.783 -0.6819  0.3283 -1.1467
  546MOL0     C71951   4.647   7.586   0.667  0.0641  0.0667  0.3929
  546MOL0     C71952   4.691   7.530   0.532 -0.0618  0.3262  0.3278
  546MOL0     C71953   4.663   7.377   0.514  0.0221 -0.2825 -0.3074
  546MOL0     C71954   4.512   7.332   0.524 -0.5704  0.7615  0.3374
  546MOL0     C71955   4.522   7.178   0.537  0.0401 -0.9727 -1.0948
  546MOL0     C71956   4.385   7.116   0.539  0.0670 -0.5298 -0.4123
  546MOL0     N71957   4.328   7.124   0.401 -0.1834  0.7295  0.2947
  546MOL0     C71958   4.390   7.113   0.283  0.5255  0.3277  0.4497
  546MOL0     C71959   4.295   7.130   0.189  0.5663 -0.7537  0.0228
  546MOL0     C71960   4.330   7.133   0.044 -0.0796  0.3599  0.0009
  546MOL0     C71961   4.315   7.001  -0.033  0.0024 -0.1898  0.0655
  546MOL0     C71962   4.361   7.024  -0.180  0.4171 -0.6719 -0.2088
  546MOL0     C71963   4.305   6.915  -0.264 -0.8162  0.2516  0.4008
  546MOL0     O71964   4.160   6.942  -0.262 -0.4648 -0.4025 -0.0074
  546MOL0     C71965   4.074   6.861  -0.340  0.0466  0.4037 -1.1746
  546MOL0     C71966   3.935   6.862  -0.307  0.3661  0.0430  0.1805
  546MOL0     C71967   3.840   6.780  -0.372 -0.3539 -0.1402 -0.9391
  546MOL0     C71968   3.886   6.688  -0.467  0.7483 -0.2589 -0.4923
  546MOL0     C71969   3.778   6.613  -0.539 -0.1384  0.1666 -0.3385
  546MOL0     O71970   3.808   6.537  -0.652 -0.0169 -0.2207 -0.1533
  546MOL0     C71971   3.710   6.452  -0.703 -0.0181 -0.4896  0.5344
  546MOL0     C71972   3.667   6.337  -0.635 -0.5855 -0.3574 -0.9342
  546MOL0     C71973   3.562   6.254  -0.683 -0.3438 -0.7591  0.0950
  546MOL0     C71974   3.507   6.289  -0.808 -0.1084 -0.6019  0.4241
  546MOL0     O71975   3.401   6.217  -0.855 -0.5324 -0.1952 -0.1611
  546MOL0     C71976   3.299   6.211  -0.761  0.7666  0.7429  0.4162
  546MOL0     C71977   3.162   6.180  -0.827  0.2780 -0.6511 -0.0660
  546MOL0     C71978   3.097   6.304  -0.887  0.6754 -0.3303  0.4741
  546MOL0     C71979   3.027   6.405  -0.785 -0.2806  0.3217  0.7163
  546MOL0     C71980   2.905   6.335  -0.733  0.3965  0.7399 -0.0330
  546MOL0     C71981   2.814   6.437  -0.654 -0.5943 -0.8943 -0.2789
  546MOL0     C71982   2.699   6.387  -0.564 -0.1259 -0.1985  0.8710
  546MOL0     C71983   2.739   6.319  -0.435  0.2175 -0.6451 -0.0095
  546MOL0    Cl71984   2.730   6.141  -0.454 -0.0660 -0.3074 -0.2528
  546MOL0     C71985   3.563   6.397  -0.885  0.6437  0.8625  0.2665
  546MOL0     C71986   3.663   6.484  -0.833  0.2239  0.3967  0.6947
  546MOL0     O71987   3.665   6.630  -0.500 -0.4007  0.4088  0.3468
  546MOL0     C71988   4.025   6.683  -0.494 -0.1501 -0.0267 -0.1100
  546MOL0     C71989   4.117   6.762  -0.427  0.5094 -0.5821  0.1754
  546MOL0     N71990   4.187   7.170   0.252  0.3937  0.4429  0.5275
  546MOL0     N71991   4.205   7.155   0.375  0.7469  0.1104  0.3172
  546MOL0     C71992   4.993   7.602   0.928  0.2291 -0.2442 -0.6603
  546MOL0     C71993   5.129   7.625   0.953 -0.0829  0.1191  0.0011
  546MOL0     C71994   5.545   7.562   1.179  0.5336 -0.3400  0.1640
  546MOL0     C71995   5.607   7.495   1.284  0.3178  1.1347  0.1903
  546MOL0     C71996   5.717   7.543   1.340 -0.1435  0.0840 -0.0134
  546MOL0     C71997   5.781   7.657   1.306 -0.7442 -0.0924 -0.6981
  546MOL0     O71998   5.908   7.684   1.365  0.3850 -0.3101  0.4540
  546MOL0     C71999   5.989   7.791   1.298  0.5280 -0.2330 -0.0348
  546MOL0     C72000   6.128   7.773   1.362 -1.2808 -0.4168  0.6989
  546MOL0     C72001   6.236   7.869   1.304  0.1996  0.4611 -0.2102
  546MOL0     C72002   6.375   7.808   1.328 -0.2282 -0.0810  0.7221
  546MOL0     C72003   6.478   7.914   1.320 -0.0967 -0.1123  0.4893
  546MOL0     C72004   6.565   7.996   1.292 -0.2884 -0.3682 -0.0736
  546MOL0     C72005   5.714   7.738   1.212  0.0022 -0.2328  0.4917
  546MOL0     C72006   5.598   7.690   1.146 -0.0076 -0.2555  0.0500
  546MOL0     H72007   5.173   7.500   1.258  0.7331  0.1576 -0.8996
  546MOL0     H72008   4.912   7.470   1.222 -1.6315 -1.0292 -2.7303
  546MOL0     H72009   4.736   7.686   0.877 -0.2120 -0.7395 -0.7963
  546MOL0     H72010   4.599   7.605   0.946  0.1972  0.9874 -1.5616
  546MOL0     H72011   4.670   7.406   0.789  1.3260 -0.4101  3.2801
  546MOL0     H72012   4.816   7.497   0.766 -0.2830  1.5944  0.2960
  546MOL0     H72013   4.680   7.691   0.665  1.8603 -0.4749  0.0008
  546MOL0     H72014   4.538   7.572   0.665  0.4552 -3.7128 -0.3191
  546MOL0     H72015   4.646   7.589   0.452  1.6178  1.6408  0.3011
  546MOL0     H72016   4.798   7.547   0.517 -0.3023 -0.0140 -2.2070
  546MOL0     H72017   4.723   7.325   0.589  1.2334  2.0312  0.4271
  546MOL0     H72018   4.702   7.351   0.415  1.2240 -1.1308  0.3632
  546MOL0     H72019   4.451   7.356   0.437  0.1965 -2.1657 -1.1586
  546MOL0     H72020   4.461   7.377   0.609  0.1168 -1.1138  1.8206
  546MOL0     H72021   4.586   7.148   0.453 -0.6068 -0.4255 -1.8057
  546MOL0     H72022   4.570   7.158   0.632 -0.7559 -0.3115 -0.5397
  546MOL0     H72023   4.329   7.173   0.614 -3.2821 -3.4374 -0.4075
  546MOL0     H72024   4.393   7.015   0.580  0.6984  0.6832  2.7471
  546MOL0     H72025   4.493   7.087   0.260  0.3721  0.0090  0.1289
  546MOL0     H72026   4.432   7.172   0.044 -0.6987  2.0676  0.5900
  546MOL0     H72027   4.258   7.202  -0.002  0.6065  1.5048  0.6126
  546MOL0     H72028   4.217   6.955  -0.021 -1.3317  1.9336 -1.8959
  546MOL0     H72029   4.382   6.932   0.019 -0.1788 -0.8753 -0.5982
  546MOL0     H72030   4.327   7.124  -0.207  0.9770 -0.4516 -0.0941
  546MOL0     H72031   4.469   7.022  -0.194  0.5218 -0.9544  0.5714
  546MOL0     H72032   4.336   6.817  -0.225  2.3626  0.5603 -1.1107
  546MOL0     H72033   4.335   6.919  -0.369 -0.6259  4.7614  0.4274
  546MOL0     H72034   3.897   6.925  -0.228 -1.1164  1.0922 -1.2963
  546MOL0     H72035   3.745   6.782  -0.321  1.5611  0.5754  2.9690
  546MOL0     H72036   3.720   6.309  -0.544 -2.5475 -0.7539  0.1538
  546MOL0     H72037   3.515   6.172  -0.629 -2.4954  1.0058  1.0857
  546MOL0     H72038   3.289   6.304  -0.705 -2.2218 -1.2139  3.5227
  546MOL0     H72039   3.323   6.134  -0.688 -1.9234  1.2050  1.9147
  546MOL0     H72040   3.097   6.134  -0.752  0.7958 -2.7743 -0.8443
  546MOL0     H72041   3.173   6.105  -0.906 -2.8060 -2.5128  1.0844
  546MOL0     H72042   3.021   6.264  -0.955  1.9686 -1.5644 -0.2934
  546MOL0     H72043   3.178   6.352  -0.942  0.7687 -0.2865  0.6465
  546MOL0     H72044   3.095   6.431  -0.704  0.3772  1.0513 -0.0370
  546MOL0     H72045   2.996   6.497  -0.837 -1.8941 -0.2093  0.6922
  546MOL0     H72046   2.931   6.257  -0.661 -1.7760  1.6760  1.9042
  546MOL0     H72047   2.852   6.288  -0.816  0.4438  0.3004  0.1826
  546MOL0     H72048   2.762   6.496  -0.730  1.5075  0.7832 -0.5200
  546MOL0     H72049   2.882   6.500  -0.596 -0.6679 -0.2248 -0.9033
  546MOL0     H72050   2.639   6.474  -0.538 -2.8055 -0.3851 -3.6353
  546MOL0     H72051   2.628   6.325  -0.619 -0.1705  1.0684 -0.5567
  546MOL0     H72052   2.663   6.342  -0.360  0.7807 -0.6198  0.5607
  546MOL0     H72053   2.830   6.364  -0.396 -2.1415  2.7740  2.1043
  546MOL0     H72054   3.520   6.426  -0.980  0.3731 -0.7067 -0.1261
  546MOL0     H72055   3.706   6.560  -0.896 -1.3659 -0.2365 -1.2996
  546MOL0     H72056   4.058   6.618  -0.575 -1.0938 -0.9318  0.2186
  546MOL0     H72057   4.223   6.748  -0.446  0.1938  0.5861 -3.0299
  546MOL0     H72058   4.949   7.648   0.841 -1.0447  0.4967  0.3416
  546MOL0     H72059   5.193   7.677   0.883  0.0141 -0.3049 -0.2309
  546MOL0     H72060   5.571   7.398   1.317  0.0049  1.0428 -0.4117
  546MOL0     H72061   5.760   7.499   1.429 -1.5167 -0.3550  0.4643
  546MOL0     H72062   5.956   7.893   1.321  3.1398  0.3022  1.9167
  546MOL0     H72063   5.992   7.776   1.190  1.3234 -2.6286  0.2586
  546MOL0     H72064   6.120   7.774   1.471 -1.5109 -1.3141  0.7015
  546MOL0     H72065   6.146   7.669   1.331 -0.1858 -0.4206  1.3145
  546MOL0     H72066   6.229   7.971   1.344  2.0138  0.4067  0.2965
  546MOL0     H72067   6.198   7.879   1.202 -2.2851 -2.0901  0.3187
  546MOL0     H72068   6.381   7.750   1.421 -1.8307 -2.0963 -0.3628
  546MOL0     H72069   6.393   7.744   1.241 -0.6136  0.5892  0.1421
  546MOL0     H72070   6.627   8.078   1.263 -0.6326  0.5829  1.7401
  546MOL0     H72071   5.752   7.837   1.187 -0.6597  0.2853  1.4745
  546MOL0     H72072   5.550   7.755   1.074  1.1804 -0.0157 -0.5507
  547MOL0     O72073   8.745  10.686  10.624 -0.9925 -0.1567 -0.1775
  547MOL0     C72074   8.647  10.739  10.568  0.1454 -0.4314  0.3806
  547MOL0     O72075   8.639  10.768  10.437 -0.9717 -0.3717  0.0015
  547MOL0     C72076   8.732  10.728  10.342 -0.0734 -0.4275 -0.4628
  547MOL0     C72077   8.809  10.822  10.274 -0.4173  0.0575 -0.2963
  547MOL0     C72078   8.900  10.804  10.169  0.1414  0.0314 -0.5059
  547MOL0     C72079   8.926  10.669  10.146 -0.5204 -0.3404  0.4346
  547MOL0     O72080   9.031  10.656  10.053 -0.1995 -0.5738 -0.2194
  547MOL0     C72081   9.003  10.570   9.930  0.7152 -0.4290 -0.4766
  547MOL0     C72082   9.092  10.626   9.816  0.2235 -0.4164  0.1771
  547MOL0     C72083   9.016  10.738   9.745  0.2355  0.1016 -0.1634
  547MOL0     C72084   9.079  10.795   9.619  0.6990  0.4859  0.1775
  547MOL0     C72085   8.972  10.861   9.537  0.1280 -0.6947  1.2388
  547MOL0     C72086   8.999  10.904   9.393  0.0310  0.5386  0.8734
  547MOL0     C72087   8.911  11.011   9.327  0.7075 -0.2810 -0.0476
  547MOL0     C72088   8.793  10.937   9.263 -0.5157  0.3090 -0.2910
  547MOL0     N72089   8.696  11.032   9.221 -0.2154 -0.0641  1.0730
  547MOL0     C72090   8.707  11.114   9.110 -0.7327  0.2482 -0.3770
  547MOL0     C72091   8.576  11.154   9.093  0.0558  0.4924  0.7536
  547MOL0     C72092   8.544  11.247   8.987  0.3140 -0.1465  1.0367
  547MOL0     C72093   8.594  11.395   9.025 -0.2465  0.1586  0.4518
  547MOL0     C72094   8.556  11.503   8.911 -0.3032 -0.0370  0.1928
  547MOL0     C72095   8.420  11.513   8.849 -0.0751 -0.5549 -0.3044
  547MOL0     O72096   8.329  11.543   8.962  0.6294  0.9296  1.1577
  547MOL0     C72097   8.195  11.535   8.940 -0.8798  0.2531 -0.7353
  547MOL0     C72098   8.110  11.546   9.049  0.2481  0.5413  0.2146
  547MOL0     C72099   7.970  11.543   9.033  0.0431  0.3216 -0.3330
  547MOL0     C72100   7.915  11.537   8.908  1.1659 -0.7096 -1.1298
  547MOL0     C72101   7.765  11.534   8.900 -1.1128  1.1133  0.8701
  547MOL0     O72102   7.704  11.641   8.842  0.3144  0.2092  0.1901
  547MOL0     C72103   7.573  11.669   8.874  0.3497  0.1221  0.0297
  547MOL0     C72104   7.515  11.674   8.998  0.1928  0.4401 -0.3837
  547MOL0     C72105   7.377  11.699   9.005  0.5338 -0.1704  0.0414
  547MOL0     C72106   7.304  11.729   8.901  0.4459  0.8791  0.3924
  547MOL0     O72107   7.172  11.745   8.919 -0.7945  1.2380 -0.2975
  547MOL0     C72108   7.095  11.628   8.973 -0.1803 -0.3264 -0.0156
  547MOL0     C72109   6.996  11.591   8.862  0.0893  0.0575 -0.0690
  547MOL0     C72110   6.883  11.699   8.865  0.2423 -0.0461 -0.3029
  547MOL0     C72111   6.784  11.681   8.753 -0.4341 -0.2403  0.8124
  547MOL0     C72112   6.649  11.747   8.776  0.1969 -0.1261 -0.6928
  547MOL0     C72113   6.540  11.694   8.681  0.3396 -0.2217  0.5196
  547MOL0     C72114   6.405  11.760   8.706  0.9141  0.2803  0.1878
  547MOL0     C72115   6.320  11.755   8.579  0.4534 -0.8200 -0.4619
  547MOL0    Cl72116   6.311  11.597   8.504 -0.3298  0.1225 -0.8351
  547MOL0     C72117   7.362  11.727   8.778  0.3098  0.6453  0.2423
  547MOL0     C72118   7.497  11.707   8.756  0.0412 -0.4905 -0.0730
  547MOL0     O72119   7.712  11.441   8.961  0.0238 -0.5732  0.1738
  547MOL0     C72120   7.998  11.523   8.800 -0.6709 -0.6795  0.6335
  547MOL0     C72121   8.135  11.518   8.815  1.1269  0.0128 -0.6387
  547MOL0     N72122   8.497  11.101   9.189 -0.3050 -0.1636 -0.8978
  547MOL0     N72123   8.569  11.024   9.265 -0.2460 -0.1727  0.1415
  547MOL0     C72124   8.843  10.565  10.206 -0.3285 -0.1046  0.6592
  547MOL0     C72125   8.744  10.590  10.306 -0.0933 -0.6615  0.9259
  547MOL0     C72126   8.525  10.776  10.660 -0.9508 -0.5530  0.1184
  547MOL0     C72127   8.405  10.812  10.600  0.7400  0.1336  0.7802
  547MOL0     C72128   8.299  10.843  10.676  0.2134 -0.9649  0.1418
  547MOL0     C72129   8.312  10.841  10.822 -0.3321 -0.2094  0.3190
  547MOL0     O72130   8.201  10.856  10.900  0.0515 -0.8164 -0.2640
  547MOL0     C72131   8.226  10.852  11.042 -0.1699 -0.2601 -0.5224
  547MOL0     C72132   8.085  10.848  11.108 -0.0004 -0.1407  0.3765
  547MOL0     C72133   7.999  10.972  11.082 -0.8284 -0.2509  0.2197
  547MOL0     C72134   7.880  10.979  11.168 -0.1030  0.0536 -0.4683
  547MOL0     C72135   7.807  10.855  11.165 -0.4145 -0.3586 -0.2368
  547MOL0     C72136   7.753  10.748  11.159  0.1957 -0.1997 -0.3243
  547MOL0     C72137   8.435  10.804  10.881 -0.5540  0.3575  0.2767
  547MOL0     C72138   8.545  10.781  10.798  0.0207  0.1203 -0.2920
  547MOL0     H72139   8.779  10.924  10.298 -2.4623 -0.8265  1.1841
  547MOL0     H72140   8.966  10.877  10.123  0.5663  1.0402  1.6025
  547MOL0     H72141   8.898  10.571   9.901  0.6888 -0.8901 -0.4101
  547MOL0     H72142   9.016  10.466   9.963  1.6284 -0.0116  0.5322
  547MOL0     H72143   9.122  10.547   9.746  2.6972  0.8167 -0.2385
  547MOL0     H72144   9.189  10.655   9.856  0.9290 -0.6374 -1.3056
  547MOL0     H72145   9.002  10.819   9.818  1.5082 -1.4898  1.9631
  547MOL0     H72146   8.919  10.693   9.721  0.3366  0.7044 -1.8313
  547MOL0     H72147   9.154  10.871   9.642  0.0921  1.1367  0.0401
  547MOL0     H72148   9.127  10.712   9.567  1.2625  1.2603 -0.5586
  547MOL0     H72149   8.938  10.946   9.598 -1.9006  1.5085 -2.5796
  547MOL0     H72150   8.884  10.796   9.535  1.6867 -2.9239  1.1404
  547MOL0     H72151   9.014  10.814   9.332 -0.8690 -0.0662  1.5291
  547MOL0     H72152   9.096  10.954   9.394 -0.5829  1.7669  0.6921
  547MOL0     H72153   8.860  11.082   9.393 -2.5626 -3.5940  1.3526
  547MOL0     H72154   8.969  11.063   9.251 -0.5669 -0.7751 -1.4006
  547MOL0     H72155   8.743  10.868   9.331 -0.4789 -0.3777 -0.9548
  547MOL0     H72156   8.836  10.876   9.183  3.5116 -0.7840  2.4068
  547MOL0     H72157   8.794  11.142   9.051 -0.1817 -2.7239 -1.1837
  547MOL0     H72158   8.436  11.243   8.971  0.4616  1.2154 -0.5169
  547MOL0     H72159   8.580  11.211   8.890 -2.0599 -1.4334  0.5375
  547MOL0     H72160   8.702  11.397   9.045 -0.8382 -1.2924  5.1593
  547MOL0     H72161   8.552  11.434   9.118  1.8679 -0.2810  1.6651
  547MOL0     H72162   8.581  11.598   8.959  0.6161 -0.0484 -0.2300
  547MOL0     H72163   8.633  11.491   8.833 -0.2513  1.9373 -0.1210
  547MOL0     H72164   8.384  11.415   8.818 -1.3521  0.0159 -0.6770
  547MOL0     H72165   8.415  11.587   8.769  1.2396  0.2048  0.2872
  547MOL0     H72166   8.166  11.537   9.142  2.3844 -0.3593 -1.0867
  547MOL0     H72167   7.903  11.541   9.118 -0.8086 -0.8923 -1.0113
  547MOL0     H72168   7.574  11.638   9.082 -0.8536  1.8448  0.9966
  547MOL0     H72169   7.346  11.701   9.109  2.4778 -1.1703  0.6941
  547MOL0     H72170   7.050  11.635   9.072  2.2682 -2.2486  1.3370
  547MOL0     H72171   7.159  11.540   8.978 -2.4035 -2.1271 -1.5209
  547MOL0     H72172   6.954  11.491   8.878  1.0629 -0.0356  2.2957
  547MOL0     H72173   7.036  11.583   8.760 -1.7791 -3.9062 -0.6858
  547MOL0     H72174   6.917  11.803   8.855  0.6679 -0.0829  0.6685
  547MOL0     H72175   6.827  11.699   8.959  0.4219 -0.5003 -0.1957
  547MOL0     H72176   6.809  11.727   8.657  0.2415 -1.7439  0.2383
  547MOL0     H72177   6.771  11.573   8.750 -0.6561 -0.3798  3.7118
  547MOL0     H72178   6.659  11.855   8.762  0.3717 -0.0361  0.0938
  547MOL0     H72179   6.607  11.721   8.874 -0.3406  2.0303 -0.2897
  547MOL0     H72180   6.537  11.585   8.689  2.6196 -0.4397 -0.6587
  547MOL0     H72181   6.569  11.708   8.577 -3.2968  0.0214 -0.5906
  547MOL0     H72182   6.354  11.700   8.782  1.5634  0.4682  0.7916
  547MOL0     H72183   6.407  11.867   8.729 -1.8052  0.1161  1.5328
  547MOL0     H72184   6.352  11.832   8.508  0.8505  1.9244  2.4418
  547MOL0     H72185   6.218  11.790   8.600  1.3475  0.9274  1.3621
  547MOL0     H72186   7.294  11.755   8.698 -1.4411 -1.5498  0.8626
  547MOL0     H72187   7.543  11.706   8.659  1.0383 -3.4562  0.3292
  547MOL0     H72188   7.958  11.507   8.700  0.0372  0.3102  0.1682
  547MOL0     H72189   8.198  11.501   8.728  1.8346  0.9806 -0.3393
  547MOL0     H72190   8.864  10.463  10.174 -0.6820 -0.7605  2.4166
  547MOL0     H72191   8.680  10.512  10.346  0.1114  0.5756  3.9385
  547MOL0     H72192   8.401  10.802  10.492 -1.4246 -0.0939  0.8553
  547MOL0     H72193   8.199  10.857  10.636  1.1315 -0.2885 -2.0535
  547MOL0     H72194   8.285  10.941  11.069 -2.0628  0.8480  0.1023
  547MOL0     H72195   8.278  10.760  11.069 -0.8919 -0.4825  0.1404
  547MOL0     H72196   8.042  10.760  11.061  1.2853 -0.3151 -0.5213
  547MOL0     H72197   8.085  10.826  11.216  1.8627 -0.1910  0.4008
  547MOL0     H72198   7.968  10.953  10.979 -1.4932 -4.5994  1.0177
  547MOL0     H72199   8.050  11.069  11.085  1.1401 -1.0666 -2.4367
  547MOL0     H72200   7.902  10.988  11.275  0.0848 -0.0184 -0.4997
  547MOL0     H72201   7.817  11.068  11.156  0.9129  1.0887  1.3847
  547MOL0     H72202   7.716  10.649  11.174  0.3104 -0.0201  1.4094
  547MOL0     H72203   8.458  10.800  10.987 -1.1227 -0.6262  0.3721
  547MOL0     H72204   8.638  10.762  10.850  0.0994  1.0740 -0.0636
  548MOL0     O72205   3.516  11.194  10.839  0.0366 -0.5230 -0.0286
  548MOL0     C72206   3.618  11.120  10.847  0.1352  0.1821 -1.3295
  548MOL0     O72207   3.611  10.989  10.883 -0.0738  0.0285  0.7744
  548MOL0     C72208   3.499  10.911  10.899  0.4358  0.6781  0.5130
  548MOL0     C72209   3.503  10.808  10.998  0.0020  0.8322 -0.2815
  548MOL0     C72210   3.396  10.729  11.019  0.3499  0.1675 -0.8519
  548MOL0     C72211   3.279  10.740  10.940  0.0561  0.4153 -0.7610
  548MOL0     O72212   3.162  10.677  10.988  0.4219 -0.2027  0.2722
  548MOL0     C72213   3.049  10.666  10.902  0.6610  0.8079 -0.8534
  548MOL0     C72214   2.972  10.555  10.976 -0.3762  0.7857  0.1159
  548MOL0     C72215   2.844  10.522  10.892 -0.0473  0.3908 -0.3742
  548MOL0     C72216   2.735  10.638  10.895  0.7376 -0.4840 -0.0299
  548MOL0     C72217   2.598  10.601  10.828 -0.3338  0.6774 -0.7344
  548MOL0     C72218   2.502  10.723  10.831  0.3330  0.4447 -0.1719
  548MOL0     C72219   2.344  10.685  10.838  1.1966 -0.8504 -0.8101
  548MOL0     C72220   2.272  10.753  10.949  0.4307  0.4177 -0.5784
  548MOL0     N72221   2.150  10.679  10.969  0.1818  0.7743  0.3339
  548MOL0     C72222   2.143  10.565  11.046  0.1785 -0.0936  0.0020
  548MOL0     C72223   2.010  10.541  11.054 -0.4486 -0.4150 -0.2328
  548MOL0     C72224   1.926  10.435  11.126 -0.3557  0.2704 -0.4855
  548MOL0     C72225   2.021  10.317  11.162  0.0190  0.4784 -1.1337
  548MOL0     C72226   1.935  10.199  11.201 -0.4816 -0.6594 -0.2863
  548MOL0     C72227   1.802  10.213  11.277  0.1709 -0.7501  0.5256
  548MOL0     O72228   1.763  10.080  11.311 -1.0386 -0.6875 -0.6645
  548MOL0     C72229   1.629  10.072  11.357 -0.4727 -0.5490 -0.3467
  548MOL0     C72230   1.546  10.174  11.395 -0.0615  0.1397  0.0482
  548MOL0     C72231   1.417  10.154  11.462 -0.6457  0.6286 -0.3469
  548MOL0     C72232   1.377  10.023  11.488 -0.0075 -0.7057 -0.3669
  548MOL0     C72233   1.245  10.002  11.542  0.9130  0.3157 -0.4108
  548MOL0     O72234   1.161  10.111  11.559 -0.2104  0.2959  0.0375
  548MOL0     C72235   1.024  10.094  11.572  0.1574 -0.2548 -0.4629
  548MOL0     C72236   0.953  10.200  11.632 -0.1716 -0.0063  0.0998
  548MOL0     C72237   0.816  10.199  11.644  0.3108 -0.1696  0.4916
  548MOL0     C72238   0.736  10.116  11.573 -0.5727 -0.2552 -0.5166
  548MOL0     O72239   0.598  10.108  11.594  0.6300 -0.2996 -0.1553
  548MOL0     C72240   0.527   9.987  11.580  0.0523 -0.3481 -0.5087
  548MOL0     C72241   0.416   9.983  11.690 -0.6679  0.0493  0.4019
  548MOL0     C72242   0.306  10.096  11.684  0.1880 -0.0559  0.0801
  548MOL0     C72243   0.196  10.081  11.790 -0.0426  0.3388 -1.1054
  548MOL0     C72244   0.093  10.193  11.773  0.3552 -0.0584  0.0837
  548MOL0     C72245  -0.011  10.180  11.888  0.0291  0.1442 -0.1512
  548MOL0     C72246  -0.120  10.293  11.875 -0.3318  0.2835  0.5394
  548MOL0     C72247  -0.236  10.300  11.979  0.4756  0.3313 -0.7512
  548MOL0    Cl72248  -0.198  10.218  12.128  0.3053  0.0690  0.0177
  548MOL0     C72249   0.808  10.015  11.507  0.2976  0.7974  0.3704
  548MOL0     C72250   0.946   9.998  11.509 -0.1703 -0.3332  0.0997
  548MOL0     O72251   1.210   9.886  11.556  0.1518  0.8829  0.4099
  548MOL0     C72252   1.461   9.922  11.439 -0.2819 -0.1260  0.2396
  548MOL0     C72253   1.582   9.945  11.375 -0.3777  0.3224  0.0032
  548MOL0     N72254   1.948  10.625  10.962  1.2205 -0.2231  0.7789
  548MOL0     N72255   2.027  10.704  10.914 -0.1625 -0.3613 -0.1196
  548MOL0     C72256   3.279  10.832  10.831 -0.1348 -0.2066  0.6927
  548MOL0     C72257   3.390  10.919  10.806  0.1782  0.4118  0.2699
  548MOL0     C72258   3.753  11.174  10.810  0.7767 -1.2460 -0.9037
  548MOL0     C72259   3.866  11.101  10.791 -1.0852  0.0017 -0.1993
  548MOL0     C72260   3.987  11.159  10.753 -0.1667 -0.4831  0.2277
  548MOL0     C72261   3.998  11.292  10.729 -0.2952  0.7804  0.2250
  548MOL0     O72262   4.120  11.331  10.685  0.6805  0.1617 -0.4040
  548MOL0     C72263   4.128  11.459  10.630 -0.5976 -0.1065  0.1036
  548MOL0     C72264   4.210  11.558  10.720  0.6005 -0.3103  1.0291
  548MOL0     C72265   4.348  11.505  10.739  0.0489  0.0134 -0.3518
  548MOL0     C72266   4.436  11.608  10.823  1.2848  0.5931  0.7417
  548MOL0     C72267   4.571  11.552  10.816  0.2445  0.0107  0.5987
  548MOL0     C72268   4.693  11.523  10.802 -0.5044  0.2428 -0.3122
  548MOL0     C72269   3.887  11.372  10.762  0.1586 -0.5596 -0.0352
  548MOL0     C72270   3.770  11.313  10.805 -0.6081 -0.3290  0.1673
  548MOL0     H72271   3.601  10.794  11.044 -0.1274 -1.3779 -0.6115
  548MOL0     H72272   3.397  10.652  11.096  2.0395 -0.3352 -1.3352
  548MOL0     H72273   3.075  10.646  10.797 -1.6625  1.0686 -1.5379
  548MOL0     H72274   2.995  10.761  10.912 -0.1373  0.4934 -1.9230
  548MOL0     H72275   2.946  10.585  11.078  1.3231  2.6507  0.0679
  548MOL0     H72276   3.036  10.467  10.989  1.0966  1.9424  1.0590
  548MOL0     H72277   2.803  10.430  10.933  0.0525  0.9273  1.0053
  548MOL0     H72278   2.857  10.505  10.785 -1.8498  1.0598 -0.7281
  548MOL0     H72279   2.713  10.650  11.001  0.6026  0.3241 -0.1451
  548MOL0     H72280   2.767  10.735  10.855 -1.1388  0.9431  1.7291
  548MOL0     H72281   2.547  10.520  10.881  0.9995  0.1003 -0.2703
  548MOL0     H72282   2.610  10.575  10.722  2.0706 -0.7607 -0.1964
  548MOL0     H72283   2.509  10.788  10.743  1.3018  0.3491 -0.1723
  548MOL0     H72284   2.529  10.783  10.919 -0.2657 -0.0648  0.3664
  548MOL0     H72285   2.295  10.690  10.740 -0.3965 -0.7150 -0.0513
  548MOL0     H72286   2.346  10.579  10.866  2.0657  0.0099  2.9341
  548MOL0     H72287   2.253  10.860  10.934 -3.8092 -0.2187 -0.7741
  548MOL0     H72288   2.323  10.740  11.045  2.1050 -0.1818 -1.5035
  548MOL0     H72289   2.219  10.519  11.109 -0.1347  0.1076  0.5369
  548MOL0     H72290   1.846  10.393  11.064  0.4198 -0.1864 -1.2042
  548MOL0     H72291   1.893  10.482  11.219  2.7545  1.3304  0.1817
  548MOL0     H72292   2.076  10.352  11.250  0.4070  3.4499 -2.4242
  548MOL0     H72293   2.086  10.305  11.075 -1.6232  2.6421 -2.7877
  548MOL0     H72294   1.925  10.140  11.110 -0.8943 -0.4779 -0.3607
  548MOL0     H72295   2.006  10.143  11.262  1.1188  0.1775 -1.3180
  548MOL0     H72296   1.736  10.272  11.212 -1.1504  2.8264  4.6119
  548MOL0     H72297   1.819  10.272  11.368  2.5561 -3.4936  2.0014
  548MOL0     H72298   1.583  10.275  11.388  1.7380 -0.3122  1.9032
  548MOL0     H72299   1.347  10.235  11.482 -2.0576  0.2271 -3.1406
  548MOL0     H72300   1.014  10.271  11.687  1.1271 -0.6794 -0.4160
  548MOL0     H72301   0.761  10.279  11.694 -2.2440 -0.0875 -2.1514
  548MOL0     H72302   0.596   9.906  11.606  0.5044  0.0458 -0.4885
  548MOL0     H72303   0.487   9.961  11.482  1.6852  2.4629 -2.0280
  548MOL0     H72304   0.464   9.991  11.787  0.6187  1.3389 -0.2954
  548MOL0     H72305   0.361   9.889  11.680  0.1864 -0.3497 -0.8524
  548MOL0     H72306   0.256  10.110  11.588  2.8625 -0.6813 -1.4862
  548MOL0     H72307   0.362  10.186  11.710 -1.6997  1.1402  0.1812
  548MOL0     H72308   0.155   9.980  11.781  0.5344 -0.3988  2.8408
  548MOL0     H72309   0.238  10.086  11.891 -0.5747 -0.6682 -0.8208
  548MOL0     H72310   0.031  10.192  11.683 -1.3322 -0.5539  1.1976
  548MOL0     H72311   0.140  10.292  11.777 -1.1275  0.6858 -0.3947
  548MOL0     H72312   0.042  10.195  11.982 -3.1727 -1.4526  2.0879
  548MOL0     H72313  -0.054  10.080  11.888 -0.0889  0.1945  0.3056
  548MOL0     H72314  -0.065  10.387  11.871  0.2563 -0.0876 -0.4483
  548MOL0     H72315  -0.169  10.291  11.778 -1.4650  1.4230  1.0581
  548MOL0     H72316  -0.324  10.249  11.938  1.3811 -2.0932  0.1215
  548MOL0     H72317  -0.262  10.403  12.004 -0.5934 -0.6664  2.8406
  548MOL0     H72318   0.752   9.939  11.455 -0.9353  2.1102 -0.3107
  548MOL0     H72319   0.979   9.911  11.455  0.6369  0.8904 -1.4626
  548MOL0     H72320   1.415   9.825  11.453 -2.6482  0.8741  0.0456
  548MOL0     H72321   1.641   9.866  11.330  0.4169  1.5978 -1.2929
  548MOL0     H72322   3.190  10.846  10.771  0.4136  4.0394  0.5167
  548MOL0     H72323   3.383  10.993  10.728 -2.4406  0.3222  0.3241
  548MOL0     H72324   3.853  10.994  10.796  1.1422 -0.2826  0.8514
  548MOL0     H72325   4.078  11.102  10.737 -0.5532 -0.7163 -1.3579
  548MOL0     H72326   4.035  11.509  10.601 -1.1301 -1.1229  0.0157
  548MOL0     H72327   4.190  11.445  10.541  0.9592  1.3655  0.9008
  548MOL0     H72328   4.218  11.652  10.664  2.4613 -1.1072 -0.1592
  548MOL0     H72329   4.161  11.586  10.813  3.1651  0.5886  2.2185
  548MOL0     H72330   4.396  11.487  10.642 -0.0392  1.0223 -0.5979
  548MOL0     H72331   4.346  11.413  10.798  0.8404  0.0798 -0.2030
  548MOL0     H72332   4.437  11.713  10.792  0.5922  0.0773 -1.1660
  548MOL0     H72333   4.398  11.615  10.925  1.0816  1.1468  0.6285
  548MOL0     H72334   4.800  11.512  10.795 -0.1567  2.6317  0.1384
  548MOL0     H72335   3.890  11.479  10.748 -0.5910 -0.7979 -2.4950
  548MOL0     H72336   3.689  11.383  10.822  2.3742  3.1495  1.4931
  549MOL0     O72337   8.644   6.497   5.781 -0.0034 -0.2568  0.0780
  549MOL0     C72338   8.728   6.444   5.855 -0.3609 -0.4618  0.2034
  549MOL0     O72339   8.701   6.350   5.952  0.1164  0.4879 -0.1792
  549MOL0     C72340   8.576   6.295   5.965  0.2009  0.0935  0.1723
  549MOL0     C72341   8.497   6.329   6.071  0.2489  0.3562 -0.2457
  549MOL0     C72342   8.365   6.280   6.066  0.4323 -0.0624  0.2235
  549MOL0     C72343   8.307   6.199   5.968  0.0195  0.5224  0.3885
  549MOL0     O72344   8.176   6.165   5.955  0.6668  0.1371 -0.7007
  549MOL0     C72345   8.072   6.251   6.009 -0.1288 -0.2429 -0.3625
  549MOL0     C72346   8.037   6.347   5.903  1.3013  0.3246  0.0743
  549MOL0     C72347   7.996   6.309   5.764 -0.0266  0.3580 -0.1219
  549MOL0     C72348   7.881   6.209   5.745 -0.6712  0.3373  0.2277
  549MOL0     C72349   7.832   6.205   5.602  0.6394 -0.1203  0.2981
  549MOL0     C72350   7.684   6.154   5.592  0.1461  0.1082  0.1703
  549MOL0     C72351   7.675   6.014   5.643 -0.4210  1.4527  0.2546
  549MOL0     C72352   7.550   5.940   5.606  0.9617  0.6783  0.1314
  549MOL0     N72353   7.431   6.004   5.661 -0.3646 -0.1641  0.0568
  549MOL0     C72354   7.389   6.014   5.788 -0.2176  0.5047 -0.3061
  549MOL0     C72355   7.276   6.087   5.784 -0.6978  0.1302 -0.3580
  549MOL0     C72356   7.164   6.089   5.880 -0.0876  0.9356 -0.2289
  549MOL0     C72357   7.148   6.220   5.955 -0.4861  0.5678  0.2413
  549MOL0     C72358   7.060   6.199   6.075 -0.0089 -0.0665 -0.0044
  549MOL0     C72359   7.016   6.333   6.136 -0.4445 -0.4521  0.5969
  549MOL0     O72360   6.961   6.414   6.031 -0.7171  0.5823  0.0038
  549MOL0     C72361   6.828   6.401   5.991 -0.5273 -0.1958 -0.1913
  549MOL0     C72362   6.778   6.506   5.923 -0.1271 -0.7129 -0.0960
  549MOL0     C72363   6.650   6.529   5.881 -0.4781  0.3055 -0.8861
  549MOL0     C72364   6.560   6.430   5.910 -0.2109  0.0335 -0.1610
  549MOL0     C72365   6.418   6.438   5.867  0.3767 -0.3567  0.2737
  549MOL0     O72366   6.345   6.333   5.908  0.1355 -0.2799 -0.2752
  549MOL0     C72367   6.209   6.334   5.923  0.4086  0.3656  0.0466
  549MOL0     C72368   6.131   6.444   5.963 -0.9669 -0.1705  0.1746
  549MOL0     C72369   6.004   6.429   5.997  0.9735  0.2329 -0.4047
  549MOL0     C72370   5.944   6.299   5.995 -0.0283 -0.3432  0.3793
  549MOL0     O72371   5.810   6.293   6.030  0.1942 -0.0493 -0.2476
  549MOL0     C72372   5.728   6.180   5.995 -0.1733  0.6924 -0.7189
  549MOL0     C72373   5.738   6.065   6.093 -0.0585  0.0673  0.1725
  549MOL0     C72374   5.658   5.956   6.040  0.2249  0.7116 -0.7091
  549MOL0     C72375   5.511   5.973   6.088 -0.0512  0.0499  0.3585
  549MOL0     C72376   5.408   5.895   6.006 -0.4338  0.3197 -0.5672
  549MOL0     C72377   5.449   5.745   5.991 -0.1751  0.5781 -0.7274
  549MOL0     C72378   5.331   5.656   5.969  0.5113 -0.3906  0.2911
  549MOL0     C72379   5.367   5.515   5.952 -0.0147  0.5193  0.0234
  549MOL0    Cl72380   5.435   5.444   6.094 -0.2146  0.2911 -0.6595
  549MOL0     C72381   6.019   6.195   5.951  0.1017  0.1996 -0.0901
  549MOL0     C72382   6.151   6.207   5.919  0.1581  0.2853  0.9198
  549MOL0     O72383   6.371   6.532   5.798  0.3605 -0.0401 -0.1214
  549MOL0     C72384   6.604   6.309   5.979  0.0016  0.1951 -0.1440
  549MOL0     C72385   6.731   6.304   6.034  0.0193 -0.0986  0.4955
  549MOL0     N72386   7.246   6.130   5.656  0.0360 -0.1375  0.1143
  549MOL0     N72387   7.338   6.065   5.588 -0.4334 -0.4093  0.2429
  549MOL0     C72388   8.389   6.157   5.869  0.1448 -0.0924  0.2723
  549MOL0     C72389   8.525   6.202   5.869  1.1100 -0.2132 -0.1860
  549MOL0     C72390   8.866   6.490   5.857 -0.7135 -0.6731 -0.1820
  549MOL0     C72391   8.901   6.623   5.825  0.2590  0.2863  0.0593
  549MOL0     C72392   9.033   6.666   5.836 -0.0733  0.6103 -0.0676
  549MOL0     C72393   9.135   6.579   5.889 -0.5894 -0.7783  0.0172
  549MOL0     O72394   9.269   6.609   5.911  0.0013 -0.2712  0.1841
  549MOL0     C72395   9.292   6.745   5.934  0.4933  0.6615 -0.3067
  549MOL0     C72396   9.437   6.767   5.969  0.6793  0.0843  0.4652
  549MOL0     C72397   9.528   6.712   5.861  0.0732 -0.9198  0.2270
  549MOL0     C72398   9.672   6.739   5.887 -0.7358  0.7222 -0.0640
  549MOL0     C72399   9.743   6.643   5.968  0.6776  0.4276 -0.2550
  549MOL0     C72400   9.783   6.562   6.052 -0.6208  0.5239  0.1777
  549MOL0     C72401   9.099   6.452   5.921 -0.3043  1.1521  0.6453
  549MOL0     C72402   8.967   6.401   5.896 -0.2965  0.5622  0.3024
  549MOL0     H72403   8.527   6.402   6.146 -0.8868  1.1200 -0.4980
  549MOL0     H72404   8.307   6.314   6.151 -0.4519  2.3984 -1.2571
  549MOL0     H72405   8.096   6.303   6.103  2.2230  1.1925 -1.6645
  549MOL0     H72406   7.987   6.183   6.026 -1.9862  2.2878  1.1514
  549MOL0     H72407   8.118   6.421   5.897 -1.1600  3.2365  0.0393
  549MOL0     H72408   7.952   6.408   5.937  0.4189 -0.8243 -0.0294
  549MOL0     H72409   8.088   6.264   5.725 -0.4302 -0.3266 -0.3028
  549MOL0     H72410   7.961   6.402   5.717 -2.4392 -0.6147 -0.3955
  549MOL0     H72411   7.911   6.107   5.771 -0.0593  0.8675  1.7132
  549MOL0     H72412   7.806   6.233   5.820 -0.9298 -2.4949  0.9673
  549MOL0     H72413   7.897   6.144   5.538 -0.5933 -1.0823 -0.0974
  549MOL0     H72414   7.832   6.306   5.562  4.0464 -0.2668 -0.3785
  549MOL0     H72415   7.638   6.147   5.493 -1.2486 -1.7350  0.9060
  549MOL0     H72416   7.625   6.218   5.658  2.8063  1.4164  1.4339
  549MOL0     H72417   7.759   5.968   5.591 -1.0841  1.1711 -0.6044
  549MOL0     H72418   7.688   6.001   5.751  0.0486  0.7172  0.1105
  549MOL0     H72419   7.563   5.837   5.642 -0.8578  1.0946  2.1762
  549MOL0     H72420   7.544   5.952   5.497  1.8366  1.5521  0.1569
  549MOL0     H72421   7.428   5.954   5.869  0.3988  3.5390  1.8069
  549MOL0     H72422   7.188   6.014   5.955 -0.7092 -0.3382 -1.2603
  549MOL0     H72423   7.067   6.069   5.832  0.7517 -1.0398 -1.2159
  549MOL0     H72424   7.114   6.290   5.878 -0.6345 -0.3577 -0.5489
  549MOL0     H72425   7.249   6.247   5.989  1.8917 -2.7862 -3.2504
  549MOL0     H72426   6.968   6.149   6.041  0.9134 -0.0516 -2.7784
  549MOL0     H72427   7.110   6.132   6.146 -2.9770 -0.9799  1.4098
  549MOL0     H72428   7.109   6.383   6.162 -0.0856 -0.7519 -0.0740
  549MOL0     H72429   6.948   6.313   6.220 -0.8710  4.4344  1.7144
  549MOL0     H72430   6.841   6.584   5.882 -0.8505 -0.4004 -0.6190
  549MOL0     H72431   6.627   6.607   5.809 -0.6311  1.0115 -0.0918
  549MOL0     H72432   6.175   6.540   5.986  0.6743 -0.2644 -2.2062
  549MOL0     H72433   5.944   6.514   6.027  1.9258  0.8055 -0.1118
  549MOL0     H72434   5.757   6.142   5.896 -0.7685  0.2438 -0.7256
  549MOL0     H72435   5.624   6.213   5.992 -1.1492 -1.8760  1.2038
  549MOL0     H72436   5.721   6.080   6.200 -2.3238 -1.0210  0.0425
  549MOL0     H72437   5.841   6.029   6.087 -0.2835 -0.3532 -3.6819
  549MOL0     H72438   5.701   5.869   6.092 -1.5970  1.1628  1.6758
  549MOL0     H72439   5.665   5.959   5.931  2.1784  0.5247 -0.6211
  549MOL0     H72440   5.501   5.938   6.191  0.0114  0.2066  0.4195
  549MOL0     H72441   5.496   6.082   6.090  0.9463  0.2386 -0.8609
  549MOL0     H72442   5.402   5.939   5.906 -1.8654  0.6333 -0.3735
  549MOL0     H72443   5.310   5.898   6.055  0.0805 -2.5178  0.8451
  549MOL0     H72444   5.494   5.717   6.086 -1.4526  0.8832 -0.0027
  549MOL0     H72445   5.531   5.743   5.919  0.6975 -0.8945  0.2562
  549MOL0     H72446   5.259   5.660   6.051  1.0040  1.4920  0.6704
  549MOL0     H72447   5.290   5.679   5.871 -1.0547 -1.8073  0.5641
  549MOL0     H72448   5.436   5.517   5.868  1.3879 -1.3041  1.0548
  549MOL0     H72449   5.273   5.466   5.928  0.2614 -0.6368  1.1635
  549MOL0     H72450   5.971   6.098   5.945  1.1627 -0.2945 -0.8298
  549MOL0     H72451   6.223   6.130   5.892  2.1919  3.1001 -2.5510
  549MOL0     H72452   6.540   6.226   6.004 -0.4987  0.8296  0.7462
  549MOL0     H72453   6.753   6.225   6.105 -1.1022 -0.2649  0.6638
  549MOL0     H72454   8.352   6.097   5.787 -0.1171  1.9206 -1.1647
  549MOL0     H72455   8.586   6.177   5.783 -1.4893  1.9423 -2.8831
  549MOL0     H72456   8.817   6.686   5.797  0.3965 -0.2935 -1.8087
  549MOL0     H72457   9.056   6.766   5.802 -3.2516  0.6564 -2.5206
  549MOL0     H72458   9.232   6.781   6.019 -0.7594 -2.8881  0.4807
  549MOL0     H72459   9.276   6.802   5.842 -1.5130  2.4729  1.0536
  549MOL0     H72460   9.455   6.874   5.981 -2.2551  0.6752  0.4731
  549MOL0     H72461   9.445   6.715   6.065 -0.9895 -1.4729 -0.1667
  549MOL0     H72462   9.507   6.773   5.773  3.0249 -0.9889 -0.6067
  549MOL0     H72463   9.517   6.604   5.847  0.5182 -0.8853 -0.4049
  549MOL0     H72464   9.718   6.751   5.789 -0.7965 -4.0700 -0.9201
  549MOL0     H72465   9.676   6.831   5.946 -2.1655 -0.3346  1.7831
  549MOL0     H72466   9.827   6.500   6.127  1.5527  1.5293 -0.1881
  549MOL0     H72467   9.155   6.373   5.968 -0.7149  1.1467  1.1344
  549MOL0     H72468   8.945   6.300   5.929  0.6881 -0.1954 -1.2956
  550MOL0     O72469   4.991   1.802   0.439  0.3087 -0.7201  0.6279
  550MOL0     C72470   5.020   1.892   0.516  0.1658  0.3794  0.5930
  550MOL0     O72471   4.934   1.947   0.609 -0.4485 -0.0496  0.2672
  550MOL0     C72472   4.795   1.921   0.586 -1.3033  0.8091 -0.0979
  550MOL0     C72473   4.728   1.828   0.657 -0.2498 -0.3599  1.2109
  550MOL0     C72474   4.588   1.811   0.648 -0.1869 -0.6189 -0.0744
  550MOL0     C72475   4.517   1.890   0.569  0.6028 -0.6785  0.1953
  550MOL0     O72476   4.382   1.870   0.578 -0.1701  1.1289  0.2002
  550MOL0     C72477   4.297   1.983   0.573  0.0322  0.1639  0.2224
  550MOL0     C72478   4.209   1.978   0.696  0.0430  0.7099 -0.4966
  550MOL0     C72479   4.136   2.107   0.732 -1.2866 -0.0092 -0.1065
  550MOL0     C72480   4.030   2.072   0.831  0.0689 -0.1222 -0.6060
  550MOL0     C72481   3.968   2.199   0.900  0.6196 -0.0579 -0.4621
  550MOL0     C72482   3.846   2.162   0.978 -0.7387 -0.3136 -0.8059
  550MOL0     C72483   3.774   2.278   1.050  0.7873 -0.0671  0.3138
  550MOL0     C72484   3.658   2.220   1.141  0.0744  0.0802  0.1482
  550MOL0     N72485   3.554   2.159   1.047 -0.1924 -0.4937  0.2064
  550MOL0     C72486   3.527   2.029   1.017  0.3270  0.0855 -0.1029
  550MOL0     C72487   3.425   2.030   0.925  0.4626  0.5918  0.8462
  550MOL0     C72488   3.359   1.918   0.865 -0.2764 -0.7405  0.6541
  550MOL0     C72489   3.249   1.872   0.957 -0.6819 -0.2211  0.0104
  550MOL0     C72490   3.151   1.788   0.877 -0.8651 -0.0712  0.5341
  550MOL0     C72491   3.017   1.773   0.961 -0.4752 -0.3119 -0.0217
  550MOL0     O72492   2.919   1.689   0.897 -0.1100  0.7296 -0.5628
  550MOL0     C72493   2.785   1.692   0.934 -0.3423 -0.4630  0.2091
  550MOL0     C72494   2.692   1.618   0.865 -0.2624  0.0801 -0.2812
  550MOL0     C72495   2.560   1.618   0.901  0.3420  0.7073 -0.5012
  550MOL0     C72496   2.509   1.691   1.010  0.4854 -0.2127 -0.6839
  550MOL0     C72497   2.367   1.680   1.051 -0.7567 -0.2582  0.0459
  550MOL0     O72498   2.330   1.765   1.146  0.5753  0.2408  0.4178
  550MOL0     C72499   2.205   1.816   1.157 -0.4092  0.8401 -0.0698
  550MOL0     C72500   2.101   1.740   1.214  0.1727  0.4112  0.2315
  550MOL0     C72501   1.971   1.800   1.226  0.7473 -0.0964  0.1212
  550MOL0     C72502   1.955   1.928   1.166  0.1429  0.0556 -1.0589
  550MOL0     O72503   1.834   1.989   1.176 -0.0027 -0.3815 -0.6079
  550MOL0     C72504   1.826   2.082   1.284 -0.8325 -0.4349  0.6589
  550MOL0     C72505   1.678   2.112   1.329 -0.3086 -0.8450 -0.5423
  550MOL0     C72506   1.667   2.240   1.409 -1.0988  0.0955 -0.1844
  550MOL0     C72507   1.752   2.216   1.534 -0.2495 -1.2614 -0.5950
  550MOL0     C72508   1.719   2.332   1.633 -0.9393  0.3189 -0.0986
  550MOL0     C72509   1.754   2.476   1.584  0.4316  0.5468 -0.2826
  550MOL0     C72510   1.887   2.482   1.506 -0.2423 -0.0639 -0.1668
  550MOL0     C72511   1.962   2.618   1.524 -0.1946  0.7787  0.7833
  550MOL0    Cl72512   1.854   2.750   1.478  0.5587  0.1236  0.1737
  550MOL0     C72513   2.060   1.997   1.105  0.4974 -0.5211  0.1027
  550MOL0     C72514   2.187   1.948   1.104 -0.7572 -0.1196 -0.1670
  550MOL0     O72515   2.297   1.596   0.998 -0.3334 -0.2791 -0.1895
  550MOL0     C72516   2.602   1.771   1.078 -0.4665  0.2466  0.0879
  550MOL0     C72517   2.741   1.769   1.042 -0.1578 -0.0021  0.9314
  550MOL0     N72518   3.384   2.165   0.919 -0.1811  0.1848 -0.3540
  550MOL0     N72519   3.464   2.241   0.982  0.3011 -0.1949  0.3212
  550MOL0     C72520   4.582   1.981   0.485 -0.3488 -1.4193 -0.2030
  550MOL0     C72521   4.721   2.001   0.495  0.1812 -0.9460 -0.8728
  550MOL0     C72522   5.165   1.919   0.514 -0.3702  0.2339 -0.3349
  550MOL0     C72523   5.229   1.969   0.631  0.0460 -0.2308 -0.0021
  550MOL0     C72524   5.364   2.002   0.626  0.7826 -0.5358 -0.0746
  550MOL0     C72525   5.444   1.971   0.513  0.2210  0.3332 -0.6077
  550MOL0     O72526   5.574   1.996   0.495  0.2451  0.2833 -0.2714
  550MOL0     C72527   5.635   2.106   0.564  0.6213  0.1349  0.1503
  550MOL0     C72528   5.775   2.092   0.518 -0.5111 -0.3114 -0.2539
  550MOL0     C72529   5.857   2.205   0.585  0.4297  0.3337  0.0376
  550MOL0     C72530   6.000   2.211   0.536 -0.3169 -0.1404 -0.4137
  550MOL0     C72531   6.091   2.269   0.635 -0.0328 -0.5720 -0.5084
  550MOL0     C72532   6.162   2.318   0.727 -0.1478  0.0395 -0.1078
  550MOL0     C72533   5.385   1.911   0.404  0.0345 -0.2081  0.2108
  550MOL0     C72534   5.246   1.888   0.407 -0.3283  0.2142  1.3225
  550MOL0     H72535   4.780   1.775   0.736 -0.2205 -0.7604  0.9282
  550MOL0     H72536   4.536   1.738   0.709 -2.9731  0.6821 -0.7307
  550MOL0     H72537   4.245   1.971   0.478 -1.0168 -0.7578  0.8910
  550MOL0     H72538   4.350   2.079   0.568 -1.0359  0.7918 -4.6658
  550MOL0     H72539   4.268   1.950   0.783  0.2162 -0.6072 -1.0097
  550MOL0     H72540   4.142   1.894   0.677  0.7662  0.3832 -1.7138
  550MOL0     H72541   4.088   2.157   0.648 -0.0035  2.1484  0.3431
  550MOL0     H72542   4.208   2.179   0.773 -0.3786 -0.0086 -1.6206
  550MOL0     H72543   3.952   2.017   0.777 -1.5607  2.3761 -0.9671
  550MOL0     H72544   4.075   2.017   0.914  0.0771 -4.8282 -3.3720
  550MOL0     H72545   3.940   2.279   0.831  0.5878  0.6282  0.3238
  550MOL0     H72546   4.035   2.247   0.972  0.1846  0.7730 -0.5912
  550MOL0     H72547   3.868   2.092   1.059 -1.6171  1.0885  0.7153
  550MOL0     H72548   3.783   2.102   0.912  0.1187 -0.2875 -1.6725
  550MOL0     H72549   3.850   2.324   1.114  1.5631 -0.6886 -0.1308
  550MOL0     H72550   3.735   2.357   0.986 -0.5513  0.6919  2.0022
  550MOL0     H72551   3.618   2.300   1.203  0.3138  0.9027 -0.7487
  550MOL0     H72552   3.703   2.144   1.206  4.2157  0.6766 -1.6763
  550MOL0     H72553   3.573   1.941   1.061 -0.6753 -0.0944  0.6229
  550MOL0     H72554   3.437   1.844   0.846  0.1641  0.0517 -0.8414
  550MOL0     H72555   3.319   1.945   0.766  0.8332  2.3041  0.9269
  550MOL0     H72556   3.198   1.954   1.009 -0.0684  0.0717  0.1536
  550MOL0     H72557   3.286   1.804   1.035 -0.6543 -3.2160 -2.4294
  550MOL0     H72558   3.136   1.837   0.780 -2.7468 -0.7498  0.4264
  550MOL0     H72559   3.200   1.690   0.866 -0.5697  0.2492 -1.2362
  550MOL0     H72560   2.983   1.877   0.968 -2.4614 -0.7623 -1.8501
  550MOL0     H72561   3.038   1.739   1.062  1.9112 -0.4706 -0.4965
  550MOL0     H72562   2.726   1.558   0.781  1.2998 -0.3313  0.6138
  550MOL0     H72563   2.497   1.549   0.844 -0.8692  0.1097  1.4547
  550MOL0     H72564   2.117   1.638   1.247  0.8386  0.4218 -0.0345
  550MOL0     H72565   1.891   1.746   1.275  0.0481  0.5465 -0.2894
  550MOL0     H72566   1.873   2.178   1.259  1.5692 -1.1927  1.9201
  550MOL0     H72567   1.874   2.040   1.373 -0.5305 -3.2229 -0.7238
  550MOL0     H72568   1.640   2.031   1.391  1.8780 -1.0511  0.6481
  550MOL0     H72569   1.608   2.119   1.246 -1.2636  0.6299  0.3337
  550MOL0     H72570   1.562   2.259   1.433 -0.9143  1.1287 -0.1536
  550MOL0     H72571   1.720   2.319   1.356 -1.9975 -0.5675 -2.1797
  550MOL0     H72572   1.722   2.127   1.590 -2.5895  0.2974  0.8647
  550MOL0     H72573   1.855   2.212   1.498  0.1803  2.3540 -0.1713
  550MOL0     H72574   1.779   2.311   1.722 -2.4431 -1.2395  0.5905
  550MOL0     H72575   1.613   2.334   1.658 -0.6872  4.1322  1.2908
  550MOL0     H72576   1.744   2.542   1.671 -4.2197 -1.1909  0.8067
  550MOL0     H72577   1.678   2.506   1.512 -0.2360  0.4023  0.3567
  550MOL0     H72578   1.947   2.405   1.553 -0.7289  1.3503  3.0164
  550MOL0     H72579   1.875   2.457   1.400  0.6664 -1.6366  0.0799
  550MOL0     H72580   2.043   2.620   1.451 -2.6353  1.1544 -2.0781
  550MOL0     H72581   2.016   2.610   1.619  0.5653 -5.2830  0.2251
  550MOL0     H72582   2.027   2.094   1.070 -0.3393 -0.5172  0.8635
  550MOL0     H72583   2.274   2.001   1.067  0.0175 -0.2704  1.3539
  550MOL0     H72584   2.552   1.838   1.146 -1.2560  1.7060 -1.8492
  550MOL0     H72585   2.818   1.827   1.092  1.7956 -0.2288 -1.6038
  550MOL0     H72586   4.529   2.049   0.419 -1.9031 -1.5024  0.9043
  550MOL0     H72587   4.766   2.085   0.443 -1.8334  1.1136  0.5155
  550MOL0     H72588   5.182   1.990   0.726 -0.7521 -2.0487  0.0479
  550MOL0     H72589   5.405   2.046   0.716  0.8855  0.9169 -0.7914
  550MOL0     H72590   5.621   2.094   0.671  1.0429 -1.2289  0.0679
  550MOL0     H72591   5.587   2.200   0.536 -3.3970 -1.9601 -0.8354
  550MOL0     H72592   5.819   1.995   0.543 -1.2115 -1.0858 -1.8825
  550MOL0     H72593   5.787   2.105   0.410 -0.0441  1.1469 -0.0484
  550MOL0     H72594   5.852   2.195   0.694  1.4062 -0.0185  0.0530
  550MOL0     H72595   5.808   2.303   0.575 -2.4153 -1.0112 -0.3304
  550MOL0     H72596   6.024   2.109   0.505 -0.4885 -0.0395 -0.8894
  550MOL0     H72597   5.987   2.269   0.444 -2.0308 -1.8354 -1.3238
  550MOL0     H72598   6.235   2.350   0.799  2.1294 -1.1085 -1.7565
  550MOL0     H72599   5.442   1.883   0.316  0.9326  1.5444  0.1949
  550MOL0     H72600   5.206   1.858   0.311 -0.6053  1.6127  0.9814
  551MOL0     O72601   6.285   2.734  10.449 -0.1963 -0.5777 -0.4978
  551MOL0     C72602   6.234   2.805  10.538 -0.2825 -0.1192  0.1781
  551MOL0     O72603   6.288   2.905  10.611 -0.0635  0.5532 -0.1333
  551MOL0     C72604   6.414   2.952  10.582  0.7577 -0.0692 -0.5335
  551MOL0     C72605   6.527   2.867  10.563  0.3403  0.0209 -0.4529
  551MOL0     C72606   6.654   2.923  10.559  0.1447 -1.3513  0.6085
  551MOL0     C72607   6.668   3.063  10.561  0.2014 -0.7871 -0.2724
  551MOL0     O72608   6.789   3.108  10.529  0.3816  0.4395 -0.5800
  551MOL0     C72609   6.834   3.244  10.554 -0.5970  0.4817  0.2566
  551MOL0     C72610   6.984   3.250  10.510  0.5185 -0.0666 -0.5025
  551MOL0     C72611   7.076   3.163  10.600  0.8576 -0.0916  0.1848
  551MOL0     C72612   7.220   3.178  10.582 -0.4556 -1.0969 -0.7978
  551MOL0     C72613   7.263   3.103  10.455 -0.4937  0.4696  0.4639
  551MOL0     C72614   7.425   3.110  10.443 -0.7413  0.2245 -0.2688
  551MOL0     C72615   7.469   3.041  10.314 -0.0166 -0.0316 -0.1687
  551MOL0     C72616   7.618   3.003  10.331  0.0047  0.4332 -0.5597
  551MOL0     N72617   7.646   2.928  10.202 -0.3197  0.3052 -0.0082
  551MOL0     C72618   7.706   2.975  10.086  0.7443  0.3244 -0.2185
  551MOL0     C72619   7.690   2.877   9.995 -1.0633 -0.1965  0.6637
  551MOL0     C72620   7.763   2.876   9.864  0.0920  0.6123  0.2738
  551MOL0     C72621   7.671   2.841   9.746 -0.3153 -0.3535 -0.8251
  551MOL0     C72622   7.650   2.690   9.713  0.6679 -0.6547  0.7088
  551MOL0     C72623   7.553   2.684   9.604  0.4582  0.1198  0.0437
  551MOL0     O72624   7.507   2.549   9.568 -0.3113  0.2799  0.1177
  551MOL0     C72625   7.386   2.535   9.506 -0.2290 -0.7939 -0.6007
  551MOL0     C72626   7.315   2.424   9.540 -0.0981  0.0175  0.2345
  551MOL0     C72627   7.180   2.406   9.499  0.8163 -0.4065  0.1599
  551MOL0     C72628   7.124   2.500   9.414  0.2029  0.4279  0.0734
  551MOL0     C72629   6.984   2.481   9.357 -0.5745  0.2979 -0.8770
  551MOL0     O72630   6.918   2.362   9.389  0.1625  0.0078 -0.4938
  551MOL0     C72631   6.783   2.361   9.359  0.2962 -0.1096 -0.5249
  551MOL0     C72632   6.680   2.400   9.444 -0.4100 -0.4057  0.2339
  551MOL0     C72633   6.545   2.401   9.402  0.3807  0.7747 -0.4580
  551MOL0     C72634   6.508   2.360   9.273 -0.1468  0.3304 -0.0175
  551MOL0     O72635   6.379   2.360   9.242  0.4113  0.7189 -0.5292
  551MOL0     C72636   6.329   2.454   9.148 -0.3926  0.3054  0.8066
  551MOL0     C72637   6.204   2.404   9.090 -0.6843  0.4094 -0.3969
  551MOL0     C72638   6.227   2.279   8.998 -0.4834 -0.5415 -0.4945
  551MOL0     C72639   6.103   2.228   8.922  0.7009 -0.0682 -0.2831
  551MOL0     C72640   6.057   2.316   8.806 -1.1606 -0.2142 -0.9712
  551MOL0     C72641   6.166   2.355   8.712 -1.0263  0.2810 -0.5899
  551MOL0     C72642   6.092   2.411   8.585  0.0104 -0.4133  0.3311
  551MOL0     C72643   6.177   2.459   8.473 -0.0210 -0.6569 -0.2312
  551MOL0    Cl72644   6.236   2.637   8.513 -0.2659  0.2210  0.2703
  551MOL0     C72645   6.611   2.314   9.187  0.0150 -0.2590  0.2566
  551MOL0     C72646   6.744   2.313   9.232 -0.7709 -0.6139 -0.1035
  551MOL0     O72647   6.926   2.574   9.303  0.3085 -0.2328 -0.3353
  551MOL0     C72648   7.197   2.612   9.381  0.3698  0.0192  0.5658
  551MOL0     C72649   7.320   2.636   9.434 -0.1429 -0.5982  0.2236
  551MOL0     N72650   7.626   2.768  10.050 -0.2330  0.2209  0.2233
  551MOL0     N72651   7.601   2.796  10.178  0.1130  0.4097 -0.0775
  551MOL0     C72652   6.563   3.148  10.579  0.9820  0.0644  0.1088
  551MOL0     C72653   6.434   3.092  10.591 -0.2684  0.2565 -0.5350
  551MOL0     C72654   6.099   2.770  10.569 -0.1189  0.3657  0.2204
  551MOL0     C72655   6.019   2.862  10.638  1.2796  0.2221  1.0129
  551MOL0     C72656   5.880   2.836  10.648 -0.2750 -0.0583  0.2614
  551MOL0     C72657   5.832   2.714  10.612 -0.2054  0.1925  0.4948
  551MOL0     O72658   5.701   2.694  10.642  0.6277 -0.7818  0.4710
  551MOL0     C72659   5.652   2.602  10.737 -0.3784  0.0390 -0.1758
  551MOL0     C72660   5.505   2.620  10.755 -0.7286 -0.3481  0.8754
  551MOL0     C72661   5.438   2.484  10.809  0.1965  1.0075  0.2199
  551MOL0     C72662   5.283   2.492  10.824 -0.8440  0.0994 -0.4070
  551MOL0     C72663   5.206   2.455  10.704  0.9925 -0.0033 -0.5200
  551MOL0     C72664   5.122   2.416  10.628  0.5202  0.0973  0.3865
  551MOL0     C72665   5.917   2.618  10.556  0.8946 -0.6651 -0.0445
  551MOL0     C72666   6.050   2.647  10.537  0.6565  0.5102  0.2842
  551MOL0     H72667   6.525   2.759  10.577  0.0651 -0.1414 -1.6443
  551MOL0     H72668   6.742   2.859  10.559  0.5269 -0.8327  0.2985
  551MOL0     H72669   6.825   3.262  10.661  2.4770 -0.0810  0.7068
  551MOL0     H72670   6.776   3.315  10.494 -0.4224  2.6310  2.4782
  551MOL0     H72671   7.022   3.352  10.519  2.3659 -0.6513 -1.1822
  551MOL0     H72672   6.992   3.222  10.404 -2.1098  1.2322 -1.1258
  551MOL0     H72673   7.044   3.059  10.594  0.2721  0.1477 -1.4813
  551MOL0     H72674   7.054   3.196  10.702  0.7722 -1.0537  0.4876
  551MOL0     H72675   7.239   3.285  10.570  0.6124 -1.1626  0.1122
  551MOL0     H72676   7.270   3.134  10.668  1.1168  1.9530  0.0241
  551MOL0     H72677   7.221   3.146  10.364 -1.5961 -1.7347 -0.1271
  551MOL0     H72678   7.233   2.999  10.464  2.4699 -0.7689 -2.1644
  551MOL0     H72679   7.472   3.049  10.521  3.8906 -0.3700 -3.1495
  551MOL0     H72680   7.466   3.210  10.459  1.8090 -0.9174  0.8971
  551MOL0     H72681   7.396   2.962  10.300 -2.7119  2.4808 -1.2880
  551MOL0     H72682   7.461   3.109  10.229  0.9360 -0.5638 -0.7032
  551MOL0     H72683   7.639   2.933  10.413 -0.0418  0.4545 -0.5298
  551MOL0     H72684   7.678   3.095  10.329  1.9614 -0.7983 -2.0936
  551MOL0     H72685   7.761   3.069  10.079  1.4794  0.0567  1.4424
  551MOL0     H72686   7.845   2.804   9.870 -0.9510 -0.9443 -2.5200
  551MOL0     H72687   7.809   2.972   9.841  0.2588  0.2091 -1.1666
  551MOL0     H72688   7.712   2.884   9.654  0.0272  0.1848 -0.4306
  551MOL0     H72689   7.574   2.890   9.760 -1.8121 -2.8545 -1.7445
  551MOL0     H72690   7.740   2.648   9.667  0.8707  3.4156 -3.3339
  551MOL0     H72691   7.610   2.637   9.801 -2.9805 -0.1977 -0.5098
  551MOL0     H72692   7.602   2.726   9.516  1.7278 -0.9638  0.1917
  551MOL0     H72693   7.468   2.745   9.634 -0.9271 -2.5745  2.0438
  551MOL0     H72694   7.363   2.354   9.607  1.4491  0.9100  0.1154
  551MOL0     H72695   7.133   2.316   9.537 -0.1005  0.1535  0.3738
  551MOL0     H72696   6.710   2.412   9.547 -1.3979  1.1621  0.3719
  551MOL0     H72697   6.466   2.423   9.474  0.5665 -1.7511  0.5998
  551MOL0     H72698   6.399   2.462   9.064 -2.0705  1.5333 -0.5623
  551MOL0     H72699   6.310   2.552   9.194 -0.1602  0.0981  1.3443
  551MOL0     H72700   6.158   2.486   9.034 -0.0542 -0.2353 -1.8900
  551MOL0     H72701   6.138   2.372   9.171  0.0338 -2.6223 -0.8949
  551MOL0     H72702   6.268   2.201   9.063  1.3046  1.9010  1.4963
  551MOL0     H72703   6.307   2.314   8.932 -0.4654  2.0755  0.7803
  551MOL0     H72704   6.147   2.136   8.882 -0.0072 -0.0376 -1.1485
  551MOL0     H72705   6.019   2.213   8.990  0.3679  2.3578 -0.0729
  551MOL0     H72706   6.018   2.404   8.858  1.9713  1.1087 -0.6353
  551MOL0     H72707   5.983   2.265   8.745 -1.8542 -0.1836 -0.1671
  551MOL0     H72708   6.238   2.278   8.684  1.1998  1.6898  0.8632
  551MOL0     H72709   6.214   2.442   8.758 -4.6136  1.9165  0.4047
  551MOL0     H72710   6.044   2.324   8.540  0.4016  0.3261 -1.6344
  551MOL0     H72711   6.008   2.476   8.611  0.6232  0.1732  0.9188
  551MOL0     H72712   6.122   2.454   8.378 -0.4880  0.2129 -0.0146
  551MOL0     H72713   6.263   2.391   8.469 -0.6451 -1.8293  3.1771
  551MOL0     H72714   6.587   2.269   9.091  2.3771  1.0292 -1.0354
  551MOL0     H72715   6.825   2.283   9.167  1.1897  2.8452  0.4948
  551MOL0     H72716   7.152   2.691   9.321 -3.4137 -1.8799  0.6316
  551MOL0     H72717   7.369   2.731   9.416 -0.7288  0.0541  1.8480
  551MOL0     H72718   6.571   3.257  10.577 -1.2164  0.2914  1.0128
  551MOL0     H72719   6.348   3.160  10.597 -0.6117  0.2178 -3.5598
  551MOL0     H72720   6.056   2.959  10.671  1.6326  0.4070  0.1081
  551MOL0     H72721   5.803   2.897  10.694  1.1436  0.9392  1.4131
  551MOL0     H72722   5.698   2.601  10.837 -1.3124  1.8357  0.3048
  551MOL0     H72723   5.659   2.500  10.697 -1.1735 -0.4881  0.9581
  551MOL0     H72724   5.470   2.709  10.808 -0.4853  0.2166  0.1066
  551MOL0     H72725   5.462   2.636  10.655  0.8221  1.3836  0.4433
  551MOL0     H72726   5.473   2.462  10.910 -1.0467 -1.5816  0.1599
  551MOL0     H72727   5.453   2.395  10.747 -0.4660  0.2498  1.1073
  551MOL0     H72728   5.254   2.427  10.907  3.6775 -0.4547  1.0607
  551MOL0     H72729   5.269   2.597  10.850  1.7265  0.4658 -0.1611
  551MOL0     H72730   5.043   2.374  10.568 -0.1862  1.2402  0.4781
  551MOL0     H72731   5.873   2.521  10.532 -2.2589  0.5711  0.3157
  551MOL0     H72732   6.113   2.569  10.496  0.9965  1.2924 -0.7275
  552MOL0     O72733   8.138   0.796   3.790 -0.2099 -1.0701 -0.1146
  552MOL0     C72734   8.197   0.898   3.831 -0.1140 -0.9133  0.1558
  552MOL0     O72735   8.146   1.000   3.915 -0.9293 -0.1118 -0.0878
  552MOL0     C72736   8.016   0.994   3.946  0.6579 -0.2348  0.0661
  552MOL0     C72737   7.943   0.884   4.001  0.3299  0.2418  0.3980
  552MOL0     C72738   7.809   0.890   4.041 -0.3565 -0.4574  0.3042
  552MOL0     C72739   7.733   1.003   4.010  1.0570  0.2847  0.5445
  552MOL0     O72740   7.595   1.014   4.025  0.1517  0.0149  0.4650
  552MOL0     C72741   7.528   0.898   4.080  0.3293 -0.3812  0.4476
  552MOL0     C72742   7.378   0.941   4.083  0.5995  0.8285 -0.4963
  552MOL0     C72743   7.302   0.811   4.112  0.0572 -0.0435  0.5352
  552MOL0     C72744   7.153   0.839   4.124  0.8957  0.2311 -0.7935
  552MOL0     C72745   7.072   0.727   4.201  0.2941  0.2956  0.1582
  552MOL0     C72746   6.930   0.773   4.228  0.0884  0.4144  0.7280
  552MOL0     C72747   6.853   0.668   4.310 -0.1842  0.0083  0.6701
  552MOL0     C72748   6.695   0.691   4.295 -0.2148  0.9386  1.5738
  552MOL0     N72749   6.613   0.622   4.395 -0.0666 -0.1949  0.0131
  552MOL0     C72750   6.580   0.486   4.384 -0.7665 -0.5407 -0.0357
  552MOL0     C72751   6.529   0.463   4.506  0.6799  0.1290 -0.2202
  552MOL0     C72752   6.482   0.326   4.547  1.4778 -0.8616 -0.0190
  552MOL0     C72753   6.326   0.329   4.581 -1.0629 -0.4508  0.2828
  552MOL0     C72754   6.223   0.304   4.472 -0.9247  0.4852  0.4655
  552MOL0     C72755   6.094   0.244   4.513  0.6603 -0.2022 -0.5196
  552MOL0     O72756   6.007   0.324   4.592 -0.6791  0.1396 -0.7880
  552MOL0     C72757   5.895   0.261   4.657 -0.7851  0.3124  0.5624
  552MOL0     C72758   5.797   0.354   4.701 -0.2431 -0.1787 -0.7453
  552MOL0     C72759   5.682   0.308   4.758  0.0162 -0.2040 -0.0896
  552MOL0     C72760   5.647   0.171   4.768  0.7148 -0.3163 -0.8917
  552MOL0     C72761   5.506   0.124   4.813 -0.4997  0.0261 -0.1669
  552MOL0     O72762   5.495  -0.012   4.822 -0.0064  0.5586 -0.5257
  552MOL0     C72763   5.369  -0.078   4.826 -1.0843  0.4610  0.7864
  552MOL0     C72764   5.268  -0.083   4.732  0.3491 -0.9599 -0.4389
  552MOL0     C72765   5.149  -0.154   4.753 -0.5371  0.7269  0.2309
  552MOL0     C72766   5.124  -0.220   4.878  0.7336  0.0204 -0.5306
  552MOL0     O72767   5.009  -0.286   4.909  0.9710 -0.3937 -0.0499
  552MOL0     C72768   4.959  -0.373   4.804  0.5183 -0.0194 -0.2953
  552MOL0     C72769   4.839  -0.453   4.857 -0.4238  0.4025 -0.1992
  552MOL0     C72770   4.798  -0.562   4.754 -0.2010 -0.5382  0.6089
  552MOL0     C72771   4.661  -0.622   4.786 -0.4440  0.5582  0.7902
  552MOL0     C72772   4.611  -0.712   4.678  0.2867  0.1431 -0.6701
  552MOL0     C72773   4.518  -0.833   4.724  0.5066 -1.5526  0.7344
  552MOL0     C72774   4.390  -0.846   4.631 -1.1524 -0.1098  0.0027
  552MOL0     C72775   4.266  -0.899   4.707  0.4519 -0.1138  0.0252
  552MOL0    Cl72776   4.311  -1.033   4.811 -0.3312  0.0761 -0.3193
  552MOL0     C72777   5.229  -0.204   4.978 -0.1777 -0.0188  0.1471
  552MOL0     C72778   5.346  -0.139   4.951 -0.1444  0.9720 -1.4940
  552MOL0     O72779   5.414   0.211   4.829 -0.3996  0.2826  0.3374
  552MOL0     C72780   5.743   0.079   4.724 -1.3298 -0.7824  0.3352
  552MOL0     C72781   5.866   0.128   4.657  0.7079  0.0395  0.2640
  552MOL0     N72782   6.524   0.573   4.584 -0.4817  0.1036 -1.0798
  552MOL0     N72783   6.582   0.671   4.517  0.0548 -0.4081 -0.5912
  552MOL0     C72784   7.796   1.117   3.960  0.0662  0.0308 -0.1691
  552MOL0     C72785   7.936   1.113   3.925  0.4221 -0.5993 -0.3743
  552MOL0     C72786   8.340   0.907   3.807 -0.3067  0.0987 -0.5601
  552MOL0     C72787   8.409   0.827   3.711  0.2885 -0.2672  0.1896
  552MOL0     C72788   8.549   0.844   3.684 -0.6217  0.4340  0.2139
  552MOL0     C72789   8.625   0.930   3.770 -0.9593 -0.1791 -0.0275
  552MOL0     O72790   8.762   0.939   3.771 -0.2881 -0.2766  0.3270
  552MOL0     C72791   8.835   0.902   3.651  0.8916 -0.5507  0.2994
  552MOL0     C72792   8.978   0.951   3.678  0.1798 -0.6793 -0.0724
  552MOL0     C72793   9.061   0.853   3.761  0.3266  0.4410  0.1868
  552MOL0     C72794   9.208   0.860   3.729  0.2166  0.0230  0.3564
  552MOL0     C72795   9.285   0.804   3.848  0.2873  0.4272 -0.0932
  552MOL0     C72796   9.350   0.769   3.945 -0.2127 -0.1746  1.3599
  552MOL0     C72797   8.559   1.003   3.861 -0.2079  0.0516 -0.0074
  552MOL0     C72798   8.421   0.997   3.880  0.7138  0.1756 -0.5475
  552MOL0     H72799   7.991   0.788   4.020 -0.2905  0.4440  3.6524
  552MOL0     H72800   7.764   0.801   4.083  0.2907 -0.2449  1.4713
  552MOL0     H72801   7.577   0.867   4.173  3.0481  2.3286  0.0860
  552MOL0     H72802   7.538   0.821   4.003  1.9463  0.8956 -0.6730
  552MOL0     H72803   7.342   0.983   3.989 -2.4700  1.2544  0.7495
  552MOL0     H72804   7.357   1.008   4.167  0.0083 -0.7492  0.6771
  552MOL0     H72805   7.340   0.762   4.203 -3.3725 -2.0600  1.0582
  552MOL0     H72806   7.312   0.741   4.029 -2.1416 -2.5806  2.2372
  552MOL0     H72807   7.145   0.928   4.187  1.1309 -1.0713  1.1407
  552MOL0     H72808   7.119   0.849   4.020 -0.5656 -0.2893 -0.3788
  552MOL0     H72809   7.121   0.726   4.299 -0.1014 -0.3085  0.3567
  552MOL0     H72810   7.075   0.632   4.148  1.7437  0.6144 -0.3656
  552MOL0     H72811   6.876   0.782   4.133 -2.6160 -0.4853  2.0741
  552MOL0     H72812   6.927   0.874   4.270 -0.3497  0.4913  0.5252
  552MOL0     H72813   6.868   0.563   4.284 -2.2391  0.4215 -2.8542
  552MOL0     H72814   6.880   0.685   4.415  1.7340  0.0211  0.2014
  552MOL0     H72815   6.647   0.668   4.199 -0.2195 -1.1206  2.0296
  552MOL0     H72816   6.686   0.799   4.313  2.7603  1.5798 -0.1694
  552MOL0     H72817   6.596   0.414   4.305  1.1019 -1.1256  0.8148
  552MOL0     H72818   6.541   0.292   4.633  1.6849 -0.5442 -0.0293
  552MOL0     H72819   6.504   0.262   4.461 -0.7184  0.2168 -1.4543
  552MOL0     H72820   6.305   0.422   4.634 -0.8929 -1.6463  2.5861
  552MOL0     H72821   6.316   0.247   4.654 -1.1168 -0.3942  0.3396
  552MOL0     H72822   6.195   0.388   4.407 -2.4176 -0.4458 -0.1413
  552MOL0     H72823   6.256   0.222   4.407 -3.7893 -1.1934  0.9556
  552MOL0     H72824   6.120   0.151   4.563 -0.2337 -1.0910 -1.6433
  552MOL0     H72825   6.039   0.209   4.425  2.9706 -1.2363 -1.6457
  552MOL0     H72826   5.797   0.461   4.686 -2.6515 -0.1623 -1.0507
  552MOL0     H72827   5.601   0.376   4.786  0.3955 -0.1130  0.8469
  552MOL0     H72828   5.288  -0.027   4.642 -1.6282  2.6220  1.1724
  552MOL0     H72829   5.090  -0.166   4.663  1.0023  1.4022 -0.9230
  552MOL0     H72830   5.042  -0.441   4.783 -0.2579 -1.6320  1.5412
  552MOL0     H72831   4.922  -0.317   4.718  0.3785  0.9675  0.3988
  552MOL0     H72832   4.756  -0.383   4.864  1.2830  2.3071  3.4708
  552MOL0     H72833   4.870  -0.498   4.952  0.9763  0.6561 -0.5080
  552MOL0     H72834   4.874  -0.638   4.732  0.5947  0.7184 -1.2993
  552MOL0     H72835   4.810  -0.521   4.653  1.6486 -1.7835  0.2762
  552MOL0     H72836   4.680  -0.686   4.872  0.3113 -0.3685 -0.0355
  552MOL0     H72837   4.579  -0.553   4.808 -0.6407  0.7772 -0.5344
  552MOL0     H72838   4.695  -0.755   4.622 -0.2900 -1.5912 -0.2960
  552MOL0     H72839   4.562  -0.644   4.608  0.1121  1.8129  0.9905
  552MOL0     H72840   4.492  -0.819   4.829 -1.0929  0.0718  0.1666
  552MOL0     H72841   4.567  -0.930   4.729 -0.0197 -1.9374 -1.0303
  552MOL0     H72842   4.376  -0.758   4.567  3.5161 -1.1845 -3.0791
  552MOL0     H72843   4.411  -0.919   4.552 -1.3422  1.4608 -1.5810
  552MOL0     H72844   4.196  -0.935   4.630 -0.8888 -0.7460  1.4805
  552MOL0     H72845   4.234  -0.811   4.763  1.4630  0.8518 -0.8722
  552MOL0     H72846   5.220  -0.251   5.075  1.0664  1.3518  0.9688
  552MOL0     H72847   5.420  -0.133   5.030 -1.4823 -0.5846 -0.0576
  552MOL0     H72848   5.723  -0.027   4.737 -0.7828 -0.8871  0.3318
  552MOL0     H72849   5.943   0.057   4.626  1.2602 -0.9007  3.4547
  552MOL0     H72850   7.736   1.203   3.932 -1.5702 -1.8682 -3.1120
  552MOL0     H72851   7.987   1.198   3.881 -0.6138  1.0654  1.4717
  552MOL0     H72852   8.343   0.754   3.664 -0.5277  0.5783  0.0004
  552MOL0     H72853   8.601   0.790   3.606 -0.8230 -0.1354  0.4658
  552MOL0     H72854   8.805   0.955   3.560  0.6961 -0.3593  0.4715
  552MOL0     H72855   8.824   0.797   3.625  0.2795 -0.1473 -1.1981
  552MOL0     H72856   9.029   0.954   3.581 -0.7484 -3.3989 -0.7442
  552MOL0     H72857   8.975   1.048   3.727  0.8606 -1.4553  1.5573
  552MOL0     H72858   9.024   0.750   3.756 -2.2941  1.2797  0.8200
  552MOL0     H72859   9.045   0.878   3.866 -0.5570 -1.1700  0.4596
  552MOL0     H72860   9.231   0.813   3.633  0.8635  0.6223  0.2114
  552MOL0     H72861   9.227   0.967   3.714  4.1173 -0.6440 -0.5082
  552MOL0     H72862   9.387   0.718   4.031  0.0600 -2.4933 -0.0651
  552MOL0     H72863   8.621   1.071   3.919 -0.6665  2.0137 -1.6829
  552MOL0     H72864   8.376   1.046   3.966  2.9071 -1.5215  1.7244
  553MOL0     O72865   5.086   2.007   6.302 -0.0749  0.3028 -0.6594
  553MOL0     C72866   5.159   1.915   6.268 -0.2219  0.7607 -0.4078
  553MOL0     O72867   5.132   1.817   6.179  0.2112 -0.1054 -0.0571
  553MOL0     C72868   5.022   1.816   6.103  0.0952 -0.5283 -0.4535
  553MOL0     C72869   5.052   1.800   5.970 -0.1913  0.8703  0.1964
  553MOL0     C72870   4.950   1.806   5.866 -1.1447  0.2740 -0.1633
  553MOL0     C72871   4.819   1.817   5.904 -0.2577 -0.5550  0.8273
  553MOL0     O72872   4.711   1.802   5.811 -0.2337 -0.3960  0.5149
  553MOL0     C72873   4.742   1.846   5.674  0.0196 -0.0807 -0.4614
  553MOL0     C72874   4.619   1.876   5.596 -0.0452  0.6016  0.7472
  553MOL0     C72875   4.506   1.771   5.584  0.2674  0.3521 -0.1755
  553MOL0     C72876   4.385   1.820   5.510  0.4089  0.1495 -0.4846
  553MOL0     C72877   4.264   1.743   5.550  0.8922 -0.1381  1.0528
  553MOL0     C72878   4.146   1.788   5.466  0.4026  0.0833  0.6291
  553MOL0     C72879   4.024   1.692   5.491  0.0987  0.9583 -0.4750
  553MOL0     C72880   4.053   1.549   5.445  0.8081  0.3714  0.7521
  553MOL0     N72881   3.948   1.457   5.473 -0.2874 -0.7296 -0.2419
  553MOL0     C72882   3.878   1.387   5.379  0.0672 -0.6513 -0.6692
  553MOL0     C72883   3.797   1.307   5.447  1.1772  0.0779 -0.2961
  553MOL0     C72884   3.707   1.202   5.382  0.0216 -0.2807  0.5553
  553MOL0     C72885   3.610   1.138   5.483  0.0894 -1.0053  0.3782
  553MOL0     C72886   3.532   1.030   5.404  0.3457 -0.3824 -0.1451
  553MOL0     C72887   3.397   0.982   5.464  0.8504 -0.2002  0.3792
  553MOL0     O72888   3.317   0.921   5.363 -0.3684  0.3887 -0.7065
  553MOL0     C72889   3.208   0.981   5.308 -0.3523  0.4728 -0.0164
  553MOL0     C72890   3.101   0.901   5.273 -0.1721  0.4934 -0.2419
  553MOL0     C72891   2.981   0.954   5.226 -0.4082 -0.1328  0.1063
  553MOL0     C72892   2.981   1.087   5.184 -0.2296  0.0380  0.9973
  553MOL0     C72893   2.875   1.157   5.111 -0.9239  0.2497  0.1902
  553MOL0     O72894   2.891   1.289   5.081  0.3493 -0.8941  0.2192
  553MOL0     C72895   2.782   1.375   5.060 -0.8049  0.9834 -0.1684
  553MOL0     C72896   2.803   1.485   4.978 -0.8213 -0.2422 -1.2110
  553MOL0     C72897   2.701   1.578   4.963  0.5208 -0.0357  1.1469
  553MOL0     C72898   2.581   1.561   5.027  0.1819 -0.5016  0.6749
  553MOL0     O72899   2.473   1.649   5.006 -0.0878  0.2042 -0.5461
  553MOL0     C72900   2.367   1.595   4.920  0.2119  0.5781 -0.2357
  553MOL0     C72901   2.262   1.703   4.898  0.3237 -0.0068  0.5453
  553MOL0     C72902   2.161   1.657   4.786  0.4004 -0.1042  0.0336
  553MOL0     C72903   2.033   1.734   4.776  1.0847  0.2813  0.7400
  553MOL0     C72904   2.054   1.870   4.720 -0.0161 -0.3428 -0.1821
  553MOL0     C72905   1.930   1.960   4.742  0.0346 -0.7744 -0.0443
  553MOL0     C72906   1.805   1.909   4.667  0.2387 -0.5272 -0.5322
  553MOL0     C72907   1.696   2.017   4.665  0.5367  0.3208  0.1086
  553MOL0    Cl72908   1.564   1.984   4.550  0.4813 -0.1201  0.1774
  553MOL0     C72909   2.564   1.448   5.105  0.0243  0.5673  0.9352
  553MOL0     C72910   2.663   1.357   5.121  0.4449  0.4251 -0.5381
  553MOL0     O72911   2.780   1.088   5.077  0.1635 -0.1082 -0.4276
  553MOL0     C72912   3.091   1.169   5.218 -0.0142 -0.5136 -0.2179
  553MOL0     C72913   3.209   1.112   5.271  0.3816  0.3920  0.7660
  553MOL0     N72914   3.809   1.333   5.586 -0.2118  0.0341 -0.8506
  553MOL0     N72915   3.920   1.407   5.597 -0.5211 -0.1654 -0.3425
  553MOL0     C72916   4.791   1.835   6.044  0.3099 -0.1508  0.9773
  553MOL0     C72917   4.893   1.837   6.142  0.0081 -0.0296 -0.1915
  553MOL0     C72918   5.281   1.900   6.354 -0.7325  0.1144  0.1485
  553MOL0     C72919   5.331   2.009   6.426  0.2462  0.3272 -0.5147
  553MOL0     C72920   5.449   1.989   6.502  0.1984 -0.3520  0.6443
  553MOL0     C72921   5.511   1.862   6.513 -0.7639 -0.0439  0.1065
  553MOL0     O72922   5.638   1.850   6.571  0.2981 -0.7711  0.2484
  553MOL0     C72923   5.697   1.969   6.631 -0.2477  0.3691 -0.9461
  553MOL0     C72924   5.821   1.912   6.709 -0.9465  0.8781 -0.5198
  553MOL0     C72925   5.898   2.032   6.774  0.4853 -0.1759 -0.2006
  553MOL0     C72926   5.960   1.996   6.907 -0.6500  0.4746 -0.2702
  553MOL0     C72927   6.062   1.886   6.895 -0.3003 -0.8170  0.2055
  553MOL0     C72928   6.141   1.794   6.895 -0.1487 -0.0901 -0.7570
  553MOL0     C72929   5.461   1.749   6.450 -0.6861 -0.0319 -0.3431
  553MOL0     C72930   5.341   1.771   6.370 -0.6727  0.6681 -1.4457
  553MOL0     H72931   5.150   1.782   5.928 -0.9280  0.2180 -1.3016
  553MOL0     H72932   4.963   1.803   5.758 -0.8010  3.3423 -0.2986
  553MOL0     H72933   4.798   1.768   5.620  2.7776  1.5113 -0.0946
  553MOL0     H72934   4.811   1.930   5.666  0.6159 -0.2568  2.1477
  553MOL0     H72935   4.647   1.902   5.494 -1.9503  3.8275  0.8762
  553MOL0     H72936   4.586   1.968   5.646 -1.6872  1.2176 -1.3286
  553MOL0     H72937   4.485   1.736   5.686 -1.6601 -0.8827 -0.9376
  553MOL0     H72938   4.540   1.685   5.527  0.1768 -1.9381  2.9658
  553MOL0     H72939   4.369   1.926   5.533  2.2642  0.8216 -1.9758
  553MOL0     H72940   4.405   1.810   5.402  1.3112  3.2163 -0.6928
  553MOL0     H72941   4.235   1.777   5.650  0.3471  2.2472  0.1588
  553MOL0     H72942   4.294   1.638   5.543  0.9887 -0.3253  3.4109
  553MOL0     H72943   4.163   1.804   5.359  0.3670  0.5871  0.6950
  553MOL0     H72944   4.112   1.886   5.501  1.3746 -0.3374  2.9112
  553MOL0     H72945   4.001   1.688   5.598  1.8469  2.7310  0.0231
  553MOL0     H72946   3.945   1.735   5.430 -0.8486  0.5841  0.4561
  553MOL0     H72947   4.147   1.509   5.484  2.6167  0.7047 -2.8601
  553MOL0     H72948   4.066   1.557   5.337  2.2403 -2.6762  0.6006
  553MOL0     H72949   3.885   1.406   5.272  0.6743  1.4004 -0.3137
  553MOL0     H72950   3.781   1.128   5.350  2.3212  1.1439  2.2470
  553MOL0     H72951   3.647   1.248   5.303 -3.8016 -0.9723  2.8153
  553MOL0     H72952   3.535   1.212   5.510  1.4927  2.5344 -4.1289
  553MOL0     H72953   3.657   1.106   5.576  0.6162  2.2752  1.3650
  553MOL0     H72954   3.516   1.067   5.302 -1.8135 -2.3671 -0.6187
  553MOL0     H72955   3.594   0.941   5.390  0.7466 -0.3226  1.1138
  553MOL0     H72956   3.356   1.067   5.520  2.7659  0.0079  1.5342
  553MOL0     H72957   3.404   0.911   5.546 -1.5204  2.3754  3.0466
  553MOL0     H72958   3.105   0.793   5.286 -1.7903  0.6415  2.2401
  553MOL0     H72959   2.898   0.886   5.207 -1.7634  1.7110 -0.9137
  553MOL0     H72960   2.901   1.508   4.938 -0.7976 -0.5956 -1.3555
  553MOL0     H72961   2.717   1.656   4.889  0.7849 -1.5423 -0.4545
  553MOL0     H72962   2.313   1.515   4.970  1.1977 -0.6505 -1.0752
  553MOL0     H72963   2.407   1.556   4.825  0.1293  1.0370 -0.4616
  553MOL0     H72964   2.309   1.793   4.857  1.4520 -0.4225  0.8933
  553MOL0     H72965   2.220   1.731   4.995  0.9946  0.8432  0.5984
  553MOL0     H72966   2.146   1.553   4.817  1.5887 -0.4785 -0.6291
  553MOL0     H72967   2.217   1.661   4.693  1.2306  0.0997  0.5347
  553MOL0     H72968   1.976   1.675   4.704  1.3642  1.3991 -0.4177
  553MOL0     H72969   1.968   1.751   4.862 -1.2758 -0.7801 -0.7454
  553MOL0     H72970   2.087   1.864   4.616 -1.8577  1.6063 -0.9408
  553MOL0     H72971   2.130   1.917   4.783 -1.7624 -0.1564  1.9113
  553MOL0     H72972   1.950   2.064   4.714 -0.2070 -0.1304  2.0310
  553MOL0     H72973   1.916   1.966   4.850  0.7718  1.6436 -0.0177
  553MOL0     H72974   1.829   1.882   4.564  1.0088 -1.3689 -0.1472
  553MOL0     H72975   1.772   1.814   4.710  1.3745  0.1456  2.0232
  553MOL0     H72976   1.737   2.116   4.642  2.4783 -0.8538 -1.7751
  553MOL0     H72977   1.649   2.021   4.764 -2.6469 -0.4041 -1.2365
  553MOL0     H72978   2.472   1.436   5.162  1.1824  0.3971  2.8320
  553MOL0     H72979   2.656   1.274   5.191  3.6846 -1.2708 -2.0062
  553MOL0     H72980   3.093   1.276   5.203  2.3146 -0.0990  2.1345
  553MOL0     H72981   3.290   1.183   5.287  2.0979 -0.9333 -1.4250
  553MOL0     H72982   4.685   1.837   6.069 -0.7100  2.4047 -2.6958
  553MOL0     H72983   4.873   1.846   6.249 -0.4404 -0.1939 -0.2638
  553MOL0     H72984   5.293   2.111   6.425 -1.6377 -0.3371 -1.8197
  553MOL0     H72985   5.491   2.078   6.545 -1.8027  0.5391  0.8583
  553MOL0     H72986   5.630   2.015   6.704  0.9216 -1.0065  1.1077
  553MOL0     H72987   5.733   2.038   6.555  0.6322  0.1833 -0.7170
  553MOL0     H72988   5.783   1.842   6.784 -0.2977  0.0899 -0.9186
  553MOL0     H72989   5.892   1.861   6.644  0.8414 -0.1282  2.0672
  553MOL0     H72990   5.837   2.122   6.786 -0.9774 -0.9231 -1.6734
  553MOL0     H72991   5.977   2.060   6.703 -1.5026 -0.9911 -2.8993
  553MOL0     H72992   6.009   2.086   6.945  0.0308  0.5627 -1.3097
  553MOL0     H72993   5.883   1.965   6.978  1.9086  1.9636  3.4266
  553MOL0     H72994   6.215   1.718   6.912  0.1154  0.8150  3.2276
  553MOL0     H72995   5.502   1.649   6.456 -2.2760 -0.7444 -0.8620
  553MOL0     H72996   5.300   1.685   6.317 -1.2754  0.3557 -0.5034
  554MOL0     O72997   0.060   7.294  11.088 -0.1416  0.0378  0.0766
  554MOL0     C72998   0.106   7.205  11.164  0.5050  0.3705  0.2672
  554MOL0     O72999   0.047   7.082  11.186  0.1822 -0.2131  0.0725
  554MOL0     C73000  -0.079   7.057  11.137  0.6959 -0.3724 -0.1476
  554MOL0     C73001  -0.097   7.011  11.006 -0.0486  0.1572 -0.6504
  554MOL0     C73002  -0.223   6.992  10.960  0.6707 -0.1212 -0.1282
  554MOL0     C73003  -0.341   7.009  11.039 -0.5098  0.4168  0.6308
  554MOL0     O73004  -0.470   6.994  10.989  0.2148  0.4038  0.5965
  554MOL0     C73005  -0.546   6.878  11.035  0.4813  0.6950  0.2723
  554MOL0     C73006  -0.693   6.902  11.073  0.6597 -0.8129  0.1231
  554MOL0     C73007  -0.762   6.774  11.116 -0.2435 -0.1200 -0.1373
  554MOL0     C73008  -0.912   6.796  11.129 -0.7276 -0.6152  0.4012
  554MOL0     C73009  -0.960   6.837  11.267  0.7061  0.6528  0.6632
  554MOL0     C73010  -1.100   6.896  11.261 -0.5465  0.7374 -0.7887
  554MOL0     C73011  -1.143   6.964  11.389  0.3662 -0.2746  0.0598
  554MOL0     C73012  -1.283   7.014  11.370  0.3369  0.0331  0.4858
  554MOL0     N73013  -1.359   7.035  11.496  0.5103 -0.3416 -0.3852
  554MOL0     C73014  -1.356   7.137  11.594 -0.6386  0.2199 -0.4560
  554MOL0     C73015  -1.437   7.095  11.692  0.0057  0.2185  0.5303
  554MOL0     C73016  -1.458   7.144  11.824  0.1525  0.2025 -0.6072
  554MOL0     C73017  -1.494   7.291  11.842  0.3560  0.0922 -0.1795
  554MOL0     C73018  -1.564   7.326  11.970  0.1477 -1.0661 -0.5181
  554MOL0     C73019  -1.583   7.477  11.974 -0.7448 -0.1788  0.4077
  554MOL0     O73020  -1.627   7.506  12.102 -0.3107  0.7167 -0.3658
  554MOL0     C73021  -1.759   7.543  12.111  0.4774  0.2635  0.4090
  554MOL0     C73022  -1.792   7.620  12.224  0.0127 -1.0767  1.1181
  554MOL0     C73023  -1.919   7.675  12.238 -0.4106  0.4182 -0.7032
  554MOL0     C73024  -2.021   7.659  12.144  0.3248  0.2111  0.2616
  554MOL0     C73025  -2.156   7.719  12.152  1.0164  0.0819  0.1147
  554MOL0     O73026  -2.255   7.671  12.065 -0.7321  0.8764 -0.2762
  554MOL0     C73027  -2.381   7.717  12.101  0.0345 -0.3947  0.0305
  554MOL0     C73028  -2.457   7.637  12.190 -0.3543 -0.6875 -0.0514
  554MOL0     C73029  -2.584   7.675  12.226 -0.9481 -0.7142 -0.7152
  554MOL0     C73030  -2.646   7.784  12.164 -0.1573 -0.0894  0.1477
  554MOL0     O73031  -2.780   7.798  12.202 -0.0784 -0.0618  0.5058
  554MOL0     C73032  -2.856   7.875  12.109  0.3683 -0.4304 -0.5703
  554MOL0     C73033  -2.991   7.918  12.183  0.1370  1.4645 -0.3711
  554MOL0     C73034  -3.074   7.790  12.210  1.1618  0.1426 -0.2959
  554MOL0     C73035  -3.196   7.812  12.292 -1.1610  0.3096 -0.1348
  554MOL0     C73036  -3.273   7.681  12.322 -0.5349  0.3262  0.3219
  554MOL0     C73037  -3.393   7.688  12.415  0.3659 -0.7009 -0.0467
  554MOL0     C73038  -3.518   7.736  12.343 -0.3952  0.4232 -1.0037
  554MOL0     C73039  -3.623   7.796  12.441 -0.4072 -1.1469 -0.5604
  554MOL0    Cl73040  -3.670   7.674  12.556  0.1155 -0.0827  0.0735
  554MOL0     C73041  -2.574   7.860  12.065 -0.6530 -0.5837  0.0039
  554MOL0     C73042  -2.443   7.821  12.036  0.2989 -0.1379  0.8124
  554MOL0     O73043  -2.175   7.814  12.225 -0.0481  0.3132 -0.0481
  554MOL0     C73044  -1.992   7.571  12.040  0.9274  0.3496  0.3849
  554MOL0     C73045  -1.867   7.513  12.025  0.1226 -0.6674 -0.6704
  554MOL0     N73046  -1.483   6.966  11.661 -0.0841  0.5098  0.3292
  554MOL0     N73047  -1.435   6.935  11.547 -0.8142  0.6421 -0.0720
  554MOL0     C73048  -0.324   7.048  11.174  0.2892  0.1835 -0.0757
  554MOL0     C73049  -0.196   7.066  11.223  0.1362 -0.5429  0.2939
  554MOL0     C73050   0.246   7.222  11.203 -0.1762 -0.7256  0.5241
  554MOL0     C73051   0.328   7.112  11.235  0.7851 -1.2651  1.0885
  554MOL0     C73052   0.462   7.131  11.262  0.5198 -0.3389 -0.1142
  554MOL0     C73053   0.507   7.262  11.283 -0.5611  0.1996  0.0699
  554MOL0     O73054   0.637   7.259  11.335 -0.3106  0.3350  0.6349
  554MOL0     C73055   0.721   7.367  11.296  0.2598  0.1388  0.4681
  554MOL0     C73056   0.861   7.383  11.364 -0.6552  0.0241  0.6796
  554MOL0     C73057   0.875   7.409  11.516 -0.1349  1.0347 -1.0942
  554MOL0     C73058   0.800   7.525  11.576  0.1232  0.3794  0.0341
  554MOL0     C73059   0.653   7.500  11.578  0.3684 -0.3953  0.1270
  554MOL0     C73060   0.531   7.481  11.577 -0.6608 -0.6654 -0.0721
  554MOL0     C73061   0.424   7.373  11.274 -0.7245 -1.4458 -0.6228
  554MOL0     C73062   0.293   7.350  11.228 -0.7564  1.1386  0.7654
  554MOL0     H73063  -0.014   6.995  10.938  0.6633 -0.1175  0.2782
  554MOL0     H73064  -0.227   6.947  10.861  2.1049 -0.2886 -0.1302
  554MOL0     H73065  -0.495   6.841  11.124 -1.9454 -1.2741  0.9614
  554MOL0     H73066  -0.546   6.800  10.958 -3.9158  0.5463  0.1374
  554MOL0     H73067  -0.735   6.955  10.987 -2.4509 -1.3829  1.2002
  554MOL0     H73068  -0.703   6.973  11.155 -1.0937 -0.5294 -0.3102
  554MOL0     H73069  -0.718   6.732  11.206  1.2409  1.6646  0.0389
  554MOL0     H73070  -0.748   6.705  11.032 -3.1062 -0.3203 -0.5686
  554MOL0     H73071  -0.946   6.863  11.050 -2.0329 -2.0032 -0.2680
  554MOL0     H73072  -0.970   6.705  11.108 -2.9683  0.3541  2.0007
  554MOL0     H73073  -0.899   6.921  11.302  0.8272  0.5194  0.7752
  554MOL0     H73074  -0.954   6.756  11.340 -4.4365 -1.1857 -0.5680
  554MOL0     H73075  -1.174   6.818  11.242 -0.4861  0.4201  0.2289
  554MOL0     H73076  -1.100   6.971  11.181  2.4933  1.6647 -0.0605
  554MOL0     H73077  -1.145   6.896  11.475  1.3695  3.4326  3.2687
  554MOL0     H73078  -1.080   7.048  11.420 -2.4797  1.7954  0.6638
  554MOL0     H73079  -1.340   6.939  11.314 -0.6325 -0.0651  1.5745
  554MOL0     H73080  -1.284   7.106  11.310 -0.1779 -1.9176 -2.7655
  554MOL0     H73081  -1.286   7.220  11.604  0.1951 -0.3551 -1.3323
  554MOL0     H73082  -1.375   7.106  11.884 -0.8115 -1.3531 -0.1804
  554MOL0     H73083  -1.541   7.091  11.872 -0.9374 -0.1519 -2.7607
  554MOL0     H73084  -1.565   7.327  11.768  0.2462 -1.6797 -0.9946
  554MOL0     H73085  -1.399   7.345  11.838  1.3745 -1.6442 -2.1507
  554MOL0     H73086  -1.654   7.266  11.981 -0.2811 -0.0997  1.8126
  554MOL0     H73087  -1.510   7.297  12.060 -1.9217  0.5278  1.3404
  554MOL0     H73088  -1.642   7.507  11.887  0.3904 -1.1423 -0.7378
  554MOL0     H73089  -1.484   7.522  11.959 -0.4107 -0.1265  2.4209
  554MOL0     H73090  -1.707   7.641  12.288  1.4653  0.0176 -1.0091
  554MOL0     H73091  -1.936   7.734  12.327  2.3612 -0.0379  0.2264
  554MOL0     H73092  -2.408   7.552  12.236  0.0643  1.3490  3.6762
  554MOL0     H73093  -2.636   7.616  12.302  0.1853 -0.9630 -0.1192
  554MOL0     H73094  -2.880   7.825  12.014 -1.2440 -1.3038  0.2495
  554MOL0     H73095  -2.807   7.969  12.084 -0.2925  0.1614  0.3225
  554MOL0     H73096  -3.045   7.994  12.126 -0.0439  1.3075 -0.4088
  554MOL0     H73097  -2.967   7.969  12.276  1.7699  1.8238 -0.9585
  554MOL0     H73098  -3.022   7.705  12.256 -0.3995 -1.1987 -0.8879
  554MOL0     H73099  -3.111   7.760  12.111 -2.0614  1.4951  0.3870
  554MOL0     H73100  -3.152   7.867  12.376  0.2790 -2.1014  0.7853
  554MOL0     H73101  -3.272   7.872  12.241 -0.7532  0.9472 -0.0014
  554MOL0     H73102  -3.203   7.606  12.362 -1.1520 -1.2598 -1.4065
  554MOL0     H73103  -3.316   7.642  12.229  0.7918 -0.4789  0.0104
  554MOL0     H73104  -3.357   7.759  12.490  0.0258  0.1718 -0.6915
  554MOL0     H73105  -3.414   7.592  12.463 -0.4837 -0.7958 -0.5930
  554MOL0     H73106  -3.491   7.813  12.271  0.7041 -1.1174 -2.2959
  554MOL0     H73107  -3.552   7.652  12.282 -1.1433  1.2047 -1.6835
  554MOL0     H73108  -3.712   7.827  12.385  0.9495  1.9104 -1.2224
  554MOL0     H73109  -3.572   7.882  12.485 -1.3309  0.0847 -1.8186
  554MOL0     H73110  -2.609   7.946  12.008 -0.4658  0.1435  0.9513
  554MOL0     H73111  -2.394   7.860  11.947 -2.0947  1.0517 -0.0818
  554MOL0     H73112  -2.072   7.558  11.968 -1.3558  1.5606  2.5855
  554MOL0     H73113  -1.864   7.467  11.927 -2.9537 -0.8401 -0.7787
  554MOL0     H73114  -0.409   7.056  11.241  0.1924 -1.8108  0.0984
  554MOL0     H73115  -0.168   7.092  11.325  3.0824 -0.8535 -0.3397
  554MOL0     H73116   0.296   7.008  11.230 -0.9541 -0.8033  1.6051
  554MOL0     H73117   0.536   7.051  11.266 -0.2633 -1.2642 -2.3666
  554MOL0     H73118   0.662   7.458  11.313 -1.0461 -0.3973 -0.8783
  554MOL0     H73119   0.745   7.354  11.190  4.1275 -2.9694  1.4977
  554MOL0     H73120   0.930   7.301  11.342  1.4622  0.6824  4.1199
  554MOL0     H73121   0.899   7.475  11.318 -2.1255  0.7153  0.8035
  554MOL0     H73122   0.978   7.413  11.552  0.5631  2.1600 -3.0555
  554MOL0     H73123   0.837   7.320  11.567  0.5619  1.9664  1.1595
  554MOL0     H73124   0.819   7.547  11.682  0.6986  2.3564 -0.4329
  554MOL0     H73125   0.823   7.621  11.530 -2.6391  0.4582 -1.3779
  554MOL0     H73126   0.425   7.470  11.581 -0.4702 -3.0904 -0.4721
  554MOL0     H73127   0.465   7.470  11.300  1.9615 -2.2726 -1.5412
  554MOL0     H73128   0.218   7.427  11.209 -1.2502  0.3659 -0.5321
  555MOL0     O73129   2.826   3.924   6.484 -0.6061 -0.3156 -0.1738
  555MOL0     C73130   2.930   3.870   6.530 -0.5467  0.1886  0.1395
  555MOL0     O73131   2.933   3.790   6.636 -0.8069 -0.2382 -0.3606
  555MOL0     C73132   2.819   3.755   6.699 -0.2230  0.2177  0.0730
  555MOL0     C73133   2.712   3.684   6.650 -0.0985 -0.5579 -0.6258
  555MOL0     C73134   2.592   3.662   6.717  0.3170 -0.5982 -0.0481
  555MOL0     C73135   2.580   3.712   6.848 -0.7237 -0.3751  0.4388
  555MOL0     O73136   2.466   3.715   6.920 -0.4767 -0.3444 -0.2231
  555MOL0     C73137   2.348   3.658   6.859 -0.3548  0.2037  0.6449
  555MOL0     C73138   2.226   3.668   6.950 -0.0138  0.3155 -0.4348
  555MOL0     C73139   2.199   3.536   7.029  0.7400  0.2633  0.0193
  555MOL0     C73140   2.099   3.555   7.142  0.1576  0.9263 -0.0523
  555MOL0     C73141   2.094   3.427   7.225  0.3365  0.1982 -1.1948
  555MOL0     C73142   1.981   3.444   7.324  0.0804 -0.4089  0.7151
  555MOL0     C73143   1.969   3.330   7.428  0.3771  0.2150  0.2279
  555MOL0     C73144   1.873   3.369   7.535  0.6684  0.0410 -0.7964
  555MOL0     N73145   1.739   3.409   7.487 -0.2358  0.6606  0.0099
  555MOL0     C73146   1.653   3.333   7.418 -0.0630 -0.6316  0.3420
  555MOL0     C73147   1.535   3.407   7.426  0.4976 -0.6395 -0.1143
  555MOL0     C73148   1.404   3.370   7.358  0.2554  0.4086 -0.2389
  555MOL0     C73149   1.294   3.323   7.453  0.0989  0.3130 -0.5961
  555MOL0     C73150   1.151   3.318   7.388 -0.3710 -0.1401  0.3706
  555MOL0     C73151   1.044   3.265   7.487  0.0445  0.2808  0.1094
  555MOL0     O73152   0.923   3.251   7.400  0.7088  0.2220  0.3935
  555MOL0     C73153   0.806   3.205   7.451 -0.3148  0.2073  0.2969
  555MOL0     C73154   0.792   3.157   7.584  0.4110  1.0748  0.6851
  555MOL0     C73155   0.663   3.109   7.629 -0.4115 -0.1418 -0.0117
  555MOL0     C73156   0.558   3.101   7.536  0.6012 -0.3699 -0.7453
  555MOL0     C73157   0.439   3.019   7.581  0.9213 -0.0343 -0.5756
  555MOL0     O73158   0.330   3.011   7.506  0.0445 -0.0373  0.5225
  555MOL0     C73159   0.222   2.943   7.557 -0.9313 -0.1725  0.1723
  555MOL0     C73160   0.144   3.010   7.658 -0.5758 -0.2111  0.5043
  555MOL0     C73161   0.023   2.947   7.709  0.1788  0.1961 -0.3459
  555MOL0     C73162  -0.008   2.816   7.676 -0.0064  0.3606 -0.0939
  555MOL0     O73163  -0.125   2.752   7.721  0.5428 -0.4614  0.3702
  555MOL0     C73164  -0.189   2.664   7.632  0.8992 -0.1453 -0.3011
  555MOL0     C73165  -0.338   2.676   7.667  0.6473  0.0580  1.1444
  555MOL0     C73166  -0.432   2.588   7.573 -0.6968  0.3702 -0.7433
  555MOL0     C73167  -0.392   2.436   7.592  0.2500 -0.0811  0.1769
  555MOL0     C73168  -0.456   2.361   7.474  0.6255 -0.1847  0.6794
  555MOL0     C73169  -0.424   2.403   7.331  0.3170  0.7559 -0.4567
  555MOL0     C73170  -0.514   2.317   7.238 -0.4432 -0.4644 -0.6058
  555MOL0     C73171  -0.488   2.348   7.085  0.1749  0.5644 -0.2344
  555MOL0    Cl73172  -0.314   2.293   7.057 -0.0718 -0.1764 -0.1674
  555MOL0     C73173   0.077   2.745   7.589 -0.9926  0.3093 -0.3154
  555MOL0     C73174   0.186   2.806   7.535  0.2061 -0.3965  0.4913
  555MOL0     O73175   0.447   2.967   7.695  0.0663 -0.6558  0.3386
  555MOL0     C73176   0.579   3.143   7.402  0.1369  0.8479  0.6286
  555MOL0     C73177   0.689   3.209   7.366 -0.4670  0.5217  1.1839
  555MOL0     N73178   1.560   3.533   7.485  0.5758 -0.0058  0.5427
  555MOL0     N73179   1.678   3.531   7.516 -0.0790  0.7164 -0.1372
  555MOL0     C73180   2.685   3.808   6.891 -0.2193  0.6199 -0.8727
  555MOL0     C73181   2.804   3.824   6.822  0.4746 -0.2384  0.5779
  555MOL0     C73182   3.057   3.929   6.482  0.5008  0.7778  0.7556
  555MOL0     C73183   3.065   4.005   6.371 -0.6845 -0.2254  0.4766
  555MOL0     C73184   3.181   4.071   6.332 -0.2727 -0.3870 -0.1746
  555MOL0     C73185   3.303   4.060   6.392 -0.0373  0.3052  0.1801
  555MOL0     O73186   3.416   4.117   6.350  0.5113  0.5615 -0.0975
  555MOL0     C73187   3.486   4.038   6.255  0.0582  0.5961 -0.6545
  555MOL0     C73188   3.641   4.060   6.265  0.1431 -0.3481 -0.0457
  555MOL0     C73189   3.693   3.969   6.379  0.0944  0.5699  0.3499
  555MOL0     C73190   3.842   3.992   6.404 -0.0465  0.0632  0.1690
  555MOL0     C73191   3.856   4.080   6.521 -0.3048  0.1194 -0.3522
  555MOL0     C73192   3.875   4.145   6.624  0.0281 -0.4853  0.4321
  555MOL0     C73193   3.301   3.974   6.505  0.0564 -0.2598  0.0208
  555MOL0     C73194   3.182   3.908   6.551 -0.5281  0.0564  0.5248
  555MOL0     H73195   2.731   3.644   6.551 -0.0586  1.9881 -1.7097
  555MOL0     H73196   2.510   3.603   6.678  0.5387  0.5611 -2.4928
  555MOL0     H73197   2.364   3.556   6.824  1.3631  0.8112 -0.5188
  555MOL0     H73198   2.339   3.721   6.769  0.2808 -1.4838 -0.6516
  555MOL0     H73199   2.139   3.692   6.888  0.4366 -0.8815 -1.5941
  555MOL0     H73200   2.262   3.748   7.015 -0.1302  2.1225 -2.4934
  555MOL0     H73201   2.293   3.499   7.071  2.3722  1.4418 -2.3891
  555MOL0     H73202   2.154   3.466   6.958  0.6340  0.8936 -0.5490
  555MOL0     H73203   2.118   3.641   7.207 -1.4968  0.9026  0.5367
  555MOL0     H73204   2.003   3.578   7.095  0.0037 -1.0067 -0.7588
  555MOL0     H73205   2.185   3.413   7.284  0.0585 -2.0452 -1.2155
  555MOL0     H73206   2.081   3.333   7.171  1.9546 -1.5508  1.3036
  555MOL0     H73207   1.883   3.451   7.276  0.9253 -3.8265 -1.9362
  555MOL0     H73208   1.995   3.536   7.382 -0.8672 -1.8645  3.3749
  555MOL0     H73209   1.941   3.242   7.369 -0.8398  1.7453 -1.5956
  555MOL0     H73210   2.066   3.312   7.476 -0.0804  1.9498  1.9144
  555MOL0     H73211   1.914   3.452   7.592 -1.1386  1.3592 -1.3226
  555MOL0     H73212   1.858   3.291   7.610  0.4350  1.3978  0.6232
  555MOL0     H73213   1.673   3.240   7.366  1.2502  0.1637 -0.6198
  555MOL0     H73214   1.425   3.302   7.275 -3.5411  1.0062 -1.9109
  555MOL0     H73215   1.363   3.457   7.307 -1.0130 -0.3385 -0.5385
  555MOL0     H73216   1.298   3.397   7.533 -1.0341  0.3074 -0.5228
  555MOL0     H73217   1.320   3.220   7.480  0.9803 -0.2929 -3.3864
  555MOL0     H73218   1.132   3.421   7.355  4.1125  1.0078  0.6347
  555MOL0     H73219   1.153   3.251   7.301  0.9849 -0.4648  0.6289
  555MOL0     H73220   1.030   3.336   7.569 -0.7634  0.5360 -0.2399
  555MOL0     H73221   1.073   3.171   7.535 -0.9269 -0.0500  0.0776
  555MOL0     H73222   0.875   3.155   7.655  1.3560 -1.9846 -0.3612
  555MOL0     H73223   0.660   3.076   7.733  3.0716 -1.7151 -0.2482
  555MOL0     H73224   0.167   3.113   7.685  2.2090 -0.1429 -1.6724
  555MOL0     H73225  -0.040   2.992   7.785 -0.3346 -0.7131 -0.2247
  555MOL0     H73226  -0.153   2.562   7.643  0.6653 -0.1447  0.5945
  555MOL0     H73227  -0.170   2.708   7.534 -3.9927  0.2290 -1.3345
  555MOL0     H73228  -0.371   2.780   7.662  0.1358 -0.1660 -1.0354
  555MOL0     H73229  -0.350   2.639   7.770 -0.6310 -2.2314  0.2461
  555MOL0     H73230  -0.408   2.621   7.472  0.5012 -1.9005 -1.2615
  555MOL0     H73231  -0.537   2.604   7.599 -0.1004  0.2314  2.0959
  555MOL0     H73232  -0.285   2.414   7.592  0.1562 -1.7376 -4.7175
  555MOL0     H73233  -0.435   2.413   7.690  0.3269 -0.4383  0.1261
  555MOL0     H73234  -0.562   2.386   7.490 -0.0316 -0.9751 -1.9713
  555MOL0     H73235  -0.421   2.259   7.494  1.9650  0.5532  2.2575
  555MOL0     H73236  -0.318   2.386   7.310  0.2601  0.6196 -0.6357
  555MOL0     H73237  -0.441   2.509   7.313  1.8100  0.7678 -2.0523
  555MOL0     H73238  -0.489   2.214   7.266  2.3052  0.2603 -0.0681
  555MOL0     H73239  -0.620   2.335   7.259 -0.3453 -3.1293  3.1807
  555MOL0     H73240  -0.498   2.455   7.069  4.8877  1.3226  0.5931
  555MOL0     H73241  -0.561   2.295   7.022  3.5390 -2.0676 -2.2875
  555MOL0     H73242   0.065   2.639   7.572  0.3000  0.1675 -0.5106
  555MOL0     H73243   0.247   2.749   7.465  0.3833 -0.6565  0.8522
  555MOL0     H73244   0.501   3.133   7.327  0.5238 -2.7871  0.5625
  555MOL0     H73245   0.691   3.258   7.269 -2.7589 -0.5537  0.5275
  555MOL0     H73246   2.671   3.855   6.988  0.8157  0.2427 -0.5217
  555MOL0     H73247   2.878   3.900   6.847 -0.2990  0.9914 -0.7283
  555MOL0     H73248   2.983   4.016   6.302  0.2904  1.6100 -0.4627
  555MOL0     H73249   3.177   4.139   6.248  1.3698  1.0908  0.8691
  555MOL0     H73250   3.458   4.074   6.155 -1.7850 -1.9995 -1.1553
  555MOL0     H73251   3.459   3.933   6.248  0.6665  0.4151 -0.3855
  555MOL0     H73252   3.697   4.046   6.172  0.2459 -2.2002  0.2676
  555MOL0     H73253   3.656   4.166   6.289  1.6299 -0.2038 -1.4258
  555MOL0     H73254   3.679   3.863   6.357  1.6867 -0.0094  1.9468
  555MOL0     H73255   3.645   3.975   6.477  0.6848 -4.1895  1.1852
  555MOL0     H73256   3.892   3.896   6.416  1.9025  0.5440 -2.8625
  555MOL0     H73257   3.891   4.039   6.318  0.6090 -0.8129  0.0464
  555MOL0     H73258   3.870   4.209   6.710 -1.7913  2.7022 -1.8072
  555MOL0     H73259   3.398   3.964   6.552  0.3759 -1.1459 -0.8127
  555MOL0     H73260   3.177   3.848   6.641 -0.7570  0.6610  0.9214
  556MOL0     O73261   9.664   2.806   9.502 -0.3518  0.4497  0.5445
  556MOL0     C73262   9.607   2.718   9.438  0.1509  0.4175 -0.7111
  556MOL0     O73263   9.476   2.697   9.441 -0.1325 -0.2458  1.0393
  556MOL0     C73264   9.402   2.744   9.544  0.7350 -0.1141 -0.7429
  556MOL0     C73265   9.267   2.703   9.526 -0.4360  0.0952 -0.2833
  556MOL0     C73266   9.166   2.736   9.621  0.2236 -0.6857 -0.3922
  556MOL0     C73267   9.199   2.810   9.735 -0.1732 -0.2779  0.2963
  556MOL0     O73268   9.119   2.839   9.841  0.4088  0.4633  0.3385
  556MOL0     C73269   8.982   2.803   9.841 -0.1765  0.1611  0.4040
  556MOL0     C73270   8.938   2.826   9.988 -0.4979  0.0220  0.6877
  556MOL0     C73271   8.786   2.805  10.007 -0.3562 -0.8528  0.2992
  556MOL0     C73272   8.754   2.845  10.148 -0.3730 -0.1302 -0.2664
  556MOL0     C73273   8.602   2.842  10.166 -0.4495 -0.6412  0.1048
  556MOL0     C73274   8.576   2.899  10.307  0.5355 -1.1894  0.0615
  556MOL0     C73275   8.455   2.986  10.310  0.9787  0.0664  0.2617
  556MOL0     C73276   8.409   3.023  10.449 -1.3619 -0.3030  0.1626
  556MOL0     N73277   8.486   3.136  10.513  0.8540 -0.5314  0.1765
  556MOL0     C73278   8.447   3.267  10.521 -0.0535 -0.6557 -0.6129
  556MOL0     C73279   8.525   3.321  10.615 -0.5215  0.1328 -0.2592
  556MOL0     C73280   8.531   3.475  10.655  0.1376 -0.2644  0.2893
  556MOL0     C73281   8.593   3.571  10.552 -0.0239 -0.0877 -1.0738
  556MOL0     C73282   8.602   3.711  10.614  1.7474  0.4008 -0.9091
  556MOL0     C73283   8.475   3.768  10.675  0.2536  0.1598  0.8338
  556MOL0     O73284   8.387   3.793  10.566  0.2651  0.0572 -1.1703
  556MOL0     C73285   8.260   3.842  10.585  0.6261  0.0724 -0.0890
  556MOL0     C73286   8.192   3.822  10.706  0.6045 -0.3870 -0.8019
  556MOL0     C73287   8.061   3.861  10.722 -0.2626 -0.0723  0.5170
  556MOL0     C73288   7.996   3.931  10.620 -0.2060  0.6337 -0.5700
  556MOL0     C73289   7.851   3.975  10.633 -0.1388 -0.0926  0.3946
  556MOL0     O73290   7.787   4.037  10.530 -0.4683  0.9254  0.8840
  556MOL0     C73291   7.657   4.035  10.496  0.5095 -0.1576 -0.5849
  556MOL0     C73292   7.628   4.029  10.359 -0.1971  0.6591 -0.1201
  556MOL0     C73293   7.493   4.019  10.322 -0.5851 -0.3298 -0.0297
  556MOL0     C73294   7.386   4.022  10.411 -0.5878  0.9840 -0.1615
  556MOL0     O73295   7.264   4.022  10.353  0.7187 -0.1748 -0.1112
  556MOL0     C73296   7.158   4.055  10.430  0.3313  0.1621  0.1456
  556MOL0     C73297   7.021   4.037  10.356 -0.4728  0.2055  0.4016
  556MOL0     C73298   6.902   4.015  10.445 -0.4931  0.6725 -0.1983
  556MOL0     C73299   6.841   4.147  10.493  0.1157 -0.6080 -0.4055
  556MOL0     C73300   6.722   4.128  10.602 -0.7541 -0.3813 -0.6179
  556MOL0     C73301   6.675   4.257  10.668  0.3942  0.5298  0.3416
  556MOL0     C73302   6.561   4.221  10.764 -0.5828  0.4429 -0.0277
  556MOL0     C73303   6.486   4.343  10.800 -0.7404 -0.4630  0.4056
  556MOL0    Cl73304   6.359   4.308  10.917 -0.1572  0.1460  0.2071
  556MOL0     C73305   7.414   4.037  10.545 -0.7050 -0.6428  0.4306
  556MOL0     C73306   7.552   4.036  10.589 -0.0121 -0.7034  0.0663
  556MOL0     O73307   7.793   3.944  10.738  0.6950  0.1032 -0.0076
  556MOL0     C73308   8.064   3.953  10.497 -0.3780  0.2985 -0.5403
  556MOL0     C73309   8.197   3.903  10.475 -0.7233 -0.0829 -0.2583
  556MOL0     N73310   8.607   3.226  10.671 -0.7837  0.0388 -0.2591
  556MOL0     N73311   8.584   3.111  10.604  0.5981 -0.3078  0.0966
  556MOL0     C73312   9.333   2.840   9.758  0.0071 -0.3321  0.1054
  556MOL0     C73313   9.435   2.817   9.665  0.2157 -0.3841 -0.5220
  556MOL0     C73314   9.691   2.627   9.363 -0.6604  0.1162  0.9338
  556MOL0     C73315   9.626   2.536   9.275  0.2375  0.2484 -0.8100
  556MOL0     C73316   9.696   2.450   9.192  0.1241 -0.2926  0.7254
  556MOL0     C73317   9.834   2.461   9.190 -0.4675  0.4670  0.7640
  556MOL0     O73318   9.890   2.373   9.102 -0.2497  0.0469  0.6429
  556MOL0     C73319  10.038   2.361   9.080  0.4481  0.0908  0.2641
  556MOL0     C73320  10.073   2.466   8.960  0.4650  0.4293 -1.0226
  556MOL0     C73321  10.080   2.617   8.992  0.4932 -0.3110  0.3216
  556MOL0     C73322  10.138   2.682   8.865 -0.6626 -0.0977  0.0979
  556MOL0     C73323  10.286   2.657   8.854  0.2165 -0.2426 -0.4528
  556MOL0     C73324  10.407   2.637   8.848 -0.5012 -0.2313 -0.3331
  556MOL0     C73325   9.902   2.564   9.256 -0.1127  0.7585 -0.2449
  556MOL0     C73326   9.827   2.646   9.344 -0.1861  0.4111 -0.2198
  556MOL0     H73327   9.237   2.647   9.438  2.8291 -0.6684 -1.0423
  556MOL0     H73328   9.060   2.712   9.613 -0.0398 -0.6157  2.0902
  556MOL0     H73329   8.955   2.699   9.819 -1.7279  0.4406  0.8701
  556MOL0     H73330   8.937   2.867   9.764  2.6657  0.6356 -1.0097
  556MOL0     H73331   8.957   2.930  10.015 -2.9298  0.5857  0.4833
  556MOL0     H73332   8.994   2.761  10.057 -2.0235 -1.2670  0.7741
  556MOL0     H73333   8.746   2.708   9.977 -0.1817 -1.0478  0.6875
  556MOL0     H73334   8.729   2.879   9.949 -1.6600  0.1806  2.7401
  556MOL0     H73335   8.806   2.783  10.221  0.4383  0.0158 -0.7088
  556MOL0     H73336   8.793   2.947  10.157 -0.6991  0.0524 -0.8782
  556MOL0     H73337   8.565   2.739  10.164 -1.0118 -0.4578  0.7607
  556MOL0     H73338   8.549   2.904  10.093  1.7307  0.3906 -0.7011
  556MOL0     H73339   8.657   2.960  10.345  2.0353 -2.0695 -1.5410
  556MOL0     H73340   8.574   2.815  10.377 -0.8279 -0.2475  1.2185
  556MOL0     H73341   8.454   3.082  10.258 -1.5269 -1.1702 -2.2419
  556MOL0     H73342   8.378   2.930  10.257  0.4121  2.9850 -2.3047
  556MOL0     H73343   8.408   2.929  10.505  0.2137  0.0946  0.9034
  556MOL0     H73344   8.310   3.066  10.435 -1.2203  0.2539  0.8503
  556MOL0     H73345   8.373   3.311  10.454 -0.6116 -1.4983 -0.5672
  556MOL0     H73346   8.592   3.483  10.745  0.2520  0.9395  0.1215
  556MOL0     H73347   8.424   3.494  10.673 -0.8535 -2.1852 -2.8489
  556MOL0     H73348   8.540   3.568  10.457  2.4256 -0.3994 -2.5054
  556MOL0     H73349   8.696   3.540  10.534 -0.4667 -1.2948 -1.6294
  556MOL0     H73350   8.678   3.698  10.692  1.2489 -2.2443 -0.7744
  556MOL0     H73351   8.642   3.785  10.543  0.0072  2.8630  0.5326
  556MOL0     H73352   8.489   3.865  10.724  0.0729 -0.2759  1.7649
  556MOL0     H73353   8.438   3.698  10.750 -1.3193 -0.4274 -0.4345
  556MOL0     H73354   8.232   3.766  10.790 -0.1989  1.9983  1.3101
  556MOL0     H73355   8.018   3.848  10.821  1.8631  0.0482  1.5258
  556MOL0     H73356   7.705   4.022  10.283  0.4043  2.2828  0.3012
  556MOL0     H73357   7.461   4.006  10.220  0.9160 -0.2018 -0.5393
  556MOL0     H73358   7.157   4.160  10.460  1.5250  1.4244 -3.6152
  556MOL0     H73359   7.158   3.974  10.504 -2.3518 -2.2097 -2.2249
  556MOL0     H73360   7.024   3.946  10.294 -1.5526 -0.4347  1.2428
  556MOL0     H73361   7.016   4.126  10.293  3.2455 -0.7622 -1.5369
  556MOL0     H73362   6.936   3.960  10.533  2.1950  3.1868  0.4787
  556MOL0     H73363   6.833   3.956  10.384  1.2266  0.1409 -1.7322
  556MOL0     H73364   6.921   4.206  10.538 -0.7406 -0.3558  0.8507
  556MOL0     H73365   6.806   4.196  10.402 -2.3666 -1.3232  0.0637
  556MOL0     H73366   6.758   4.078  10.692 -1.5886  3.2921  1.9825
  556MOL0     H73367   6.644   4.076  10.544 -3.1288 -0.4023  2.3563
  556MOL0     H73368   6.640   4.327  10.591 -1.7444 -1.6117 -0.7892
  556MOL0     H73369   6.760   4.307  10.715 -0.1507  2.3149 -0.4666
  556MOL0     H73370   6.488   4.158  10.712 -0.7313  0.0922  0.6030
  556MOL0     H73371   6.607   4.174  10.852 -0.6607  2.2461  1.0150
  556MOL0     H73372   6.454   4.396  10.709 -1.8333 -1.4142  0.2055
  556MOL0     H73373   6.553   4.403  10.862  0.1521 -1.2989  0.2752
  556MOL0     H73374   7.347   4.032  10.630 -0.1476 -1.7884  0.8270
  556MOL0     H73375   7.570   4.041  10.696 -0.2437 -3.6790  0.3233
  556MOL0     H73376   8.015   3.997  10.411 -0.9421 -0.6884 -0.7384
  556MOL0     H73377   8.253   3.894  10.383  2.2452 -1.4598  1.5252
  556MOL0     H73378   9.358   2.894   9.848 -1.1413  2.5513 -1.1725
  556MOL0     H73379   9.536   2.850   9.687  0.2057  0.0982 -1.1897
  556MOL0     H73380   9.519   2.522   9.274  0.5374 -2.9426 -2.8708
  556MOL0     H73381   9.636   2.389   9.125 -2.0650  2.2723  0.1856
  556MOL0     H73382  10.064   2.259   9.050  4.0862  0.7277  0.7899
  556MOL0     H73383  10.088   2.383   9.174 -4.6906  2.6932  2.7912
  556MOL0     H73384  10.172   2.436   8.925  1.7072  1.4527  1.4215
  556MOL0     H73385  10.001   2.451   8.879 -0.5816  2.8400 -0.5944
  556MOL0     H73386  10.129   2.651   9.083  0.3569  0.8705 -0.0312
  556MOL0     H73387   9.980   2.660   9.002 -0.1388 -2.0298  2.3372
  556MOL0     H73388  10.086   2.665   8.771 -1.4738 -0.6844  0.6380
  556MOL0     H73389  10.121   2.789   8.880 -0.6707 -0.1105  0.1832
  556MOL0     H73390  10.510   2.611   8.866 -1.1397 -3.0775 -0.3082
  556MOL0     H73391  10.007   2.585   9.235 -1.0537  3.9833 -2.4679
  556MOL0     H73392   9.878   2.731   9.389 -3.0245  2.3768 -0.4289
  557MOL0     O73393   3.617   7.473   6.265 -0.0857  0.2766 -0.5194
  557MOL0     C73394   3.570   7.377   6.321 -0.0647  0.6467  0.6490
  557MOL0     O73395   3.612   7.330   6.439 -0.0880  0.7412 -0.6052
  557MOL0     C73396   3.702   7.411   6.505 -0.0687  0.7573 -0.7747
  557MOL0     C73397   3.839   7.408   6.479  0.6593 -0.4126 -0.2024
  557MOL0     C73398   3.936   7.497   6.536  0.9230 -0.0147 -0.2477
  557MOL0     C73399   3.877   7.594   6.622 -0.6449  0.6142 -0.4432
  557MOL0     O73400   3.953   7.681   6.696 -0.1738  0.2872 -0.5582
  557MOL0     C73401   4.073   7.633   6.762  0.1079  0.4571 -0.0194
  557MOL0     C73402   4.108   7.718   6.882  0.3250  0.2185 -0.0944
  557MOL0     C73403   4.242   7.664   6.954  0.7304 -0.1528 -0.4530
  557MOL0     C73404   4.299   7.763   7.047 -0.0587  0.0467 -0.2713
  557MOL0     C73405   4.442   7.720   7.101 -0.5012 -0.5254 -0.2050
  557MOL0     C73406   4.517   7.835   7.154 -0.9374 -0.9732 -0.7657
  557MOL0     C73407   4.657   7.777   7.201  0.3159  0.3327  0.2395
  557MOL0     C73408   4.743   7.890   7.277  0.2813  0.3848 -0.0575
  557MOL0     N73409   4.886   7.854   7.278 -0.0776 -0.1679  0.2029
  557MOL0     C73410   4.987   7.942   7.281  0.9775 -0.6368 -0.0824
  557MOL0     C73411   5.099   7.870   7.288  0.8116  0.2529  0.0026
  557MOL0     C73412   5.241   7.927   7.293 -0.4641  0.1163 -0.3902
  557MOL0     C73413   5.304   7.985   7.164 -0.0932 -0.3221  0.6423
  557MOL0     C73414   5.295   7.885   7.042  0.9998 -1.0771 -0.6994
  557MOL0     C73415   5.152   7.852   6.980  0.3423  1.0889 -0.6329
  557MOL0     O73416   5.058   7.949   6.988 -0.0352 -0.4863 -0.5888
  557MOL0     C73417   4.929   7.939   6.939  0.2241  1.0085 -0.4874
  557MOL0     C73418   4.877   7.848   6.850  0.2446  0.4613 -0.4796
  557MOL0     C73419   4.741   7.852   6.802  1.0592  0.3227  0.2641
  557MOL0     C73420   4.658   7.961   6.834 -0.4335  0.1746 -0.0102
  557MOL0     C73421   4.520   7.968   6.776  0.5293  0.0881 -1.5047
  557MOL0     O73422   4.445   8.084   6.802  0.3290  0.0391 -0.4275
  557MOL0     C73423   4.313   8.085   6.756 -0.1214 -0.0677  0.3518
  557MOL0     C73424   4.203   8.126   6.838 -0.9113  0.5863  0.5573
  557MOL0     C73425   4.072   8.141   6.782  0.0983 -0.6806 -0.2463
  557MOL0     C73426   4.040   8.098   6.652 -0.6853 -0.1773  0.0347
  557MOL0     O73427   3.916   8.085   6.597 -0.6234 -0.3056  0.1152
  557MOL0     C73428   3.800   8.059   6.681 -0.2374 -0.3716  0.4989
  557MOL0     C73429   3.682   8.025   6.590 -0.1796  0.5566 -0.1125
  557MOL0     C73430   3.557   7.984   6.676  0.3830  0.0825 -0.0214
  557MOL0     C73431   3.440   7.959   6.578  0.8598 -0.1234 -0.0692
  557MOL0     C73432   3.309   7.921   6.647  0.1481  0.8743 -0.6167
  557MOL0     C73433   3.186   7.897   6.556 -0.0390 -0.2688  0.3502
  557MOL0     C73434   3.047   7.917   6.613  0.0907 -0.3786  0.0098
  557MOL0     C73435   2.938   7.893   6.513 -0.0360  0.0997 -0.3090
  557MOL0    Cl73436   2.775   7.866   6.574 -0.0454 -0.0944  0.2674
  557MOL0     C73437   4.148   8.061   6.564  0.5519 -0.5428 -1.2888
  557MOL0     C73438   4.281   8.055   6.619  0.5492 -0.4524 -0.4142
  557MOL0     O73439   4.473   7.859   6.732  0.1645  0.5123 -0.1655
  557MOL0     C73440   4.703   8.044   6.938  0.1140 -0.3956  1.2052
  557MOL0     C73441   4.840   8.037   6.980  0.1157 -0.2658 -0.3336
  557MOL0     N73442   5.064   7.740   7.305 -0.9958  0.7185  0.3086
  557MOL0     N73443   4.936   7.729   7.285  0.7966 -0.5993 -0.4447
  557MOL0     C73444   3.737   7.604   6.637  0.0807  0.5810  0.0405
  557MOL0     C73445   3.646   7.511   6.585  0.1145  0.3538 -0.2402
  557MOL0     C73446   3.473   7.303   6.243  0.3797  0.2927  0.2177
  557MOL0     C73447   3.426   7.342   6.115  0.2585 -0.3867 -0.1137
  557MOL0     C73448   3.320   7.271   6.055 -0.1797 -0.5548  0.0250
  557MOL0     C73449   3.251   7.172   6.127  0.0491 -0.3365 -0.7091
  557MOL0     O73450   3.128   7.131   6.080  0.1758  0.1370  0.0787
  557MOL0     C73451   3.062   7.023   6.143 -0.4537 -0.3814  0.4546
  557MOL0     C73452   2.916   7.000   6.085  0.6043 -0.5603 -0.1719
  557MOL0     C73453   2.856   6.909   6.186  0.3096  0.2597 -0.1523
  557MOL0     C73454   2.710   6.866   6.136 -0.1429  0.2412  0.1322
  557MOL0     C73455   2.736   6.732   6.074 -0.7521  0.6219 -0.5362
  557MOL0     C73456   2.761   6.625   6.020  0.3678  0.3152 -0.4775
  557MOL0     C73457   3.319   7.119   6.236  0.2571  0.2487 -0.1634
  557MOL0     C73458   3.429   7.179   6.295  0.6114 -0.3932  0.6670
  557MOL0     H73459   3.871   7.331   6.409  0.4761  0.0920 -0.8561
  557MOL0     H73460   4.041   7.497   6.510  1.0888  2.1593  0.1996
  557MOL0     H73461   4.154   7.627   6.689 -1.4233  0.9987 -1.8570
  557MOL0     H73462   4.054   7.531   6.796 -2.5840 -0.1089 -2.7377
  557MOL0     H73463   4.022   7.725   6.949 -0.8733 -0.0523 -1.5456
  557MOL0     H73464   4.127   7.819   6.844  1.0239  0.0134 -0.3226
  557MOL0     H73465   4.310   7.653   6.869  2.1980 -1.6488  0.8536
  557MOL0     H73466   4.224   7.566   6.999 -2.5695  0.4420 -0.2645
  557MOL0     H73467   4.295   7.864   7.006  0.8356 -0.3128 -1.3048
  557MOL0     H73468   4.229   7.771   7.130 -1.8996 -0.7125 -1.6629
  557MOL0     H73469   4.494   7.679   7.014 -1.7176  4.4043 -3.7297
  557MOL0     H73470   4.441   7.650   7.184 -1.7444 -1.8440 -1.2849
  557MOL0     H73471   4.468   7.886   7.237  0.4753  3.4054 -2.3364
  557MOL0     H73472   4.524   7.903   7.068 -1.6787 -3.7998 -3.2299
  557MOL0     H73473   4.669   7.689   7.266  1.3357  0.6345  0.4812
  557MOL0     H73474   4.707   7.742   7.110  0.3042  1.0418 -0.0423
  557MOL0     H73475   4.717   7.893   7.383 -1.6460  0.7359 -0.4883
  557MOL0     H73476   4.726   7.989   7.234 -1.6299 -0.6929 -2.0231
  557MOL0     H73477   4.969   8.048   7.265 -1.9214 -1.1756 -1.1016
  557MOL0     H73478   5.310   7.845   7.317 -0.1944  0.7693  1.1418
  557MOL0     H73479   5.242   8.003   7.371 -2.0857  0.7306 -0.9368
  557MOL0     H73480   5.412   7.992   7.182  0.0318  2.3126 -0.6033
  557MOL0     H73481   5.263   8.080   7.129 -1.1542 -2.3205 -4.4629
  557MOL0     H73482   5.351   7.925   6.957  2.6599 -0.9958  0.3740
  557MOL0     H73483   5.341   7.789   7.066 -0.1986 -1.5020 -0.0285
  557MOL0     H73484   5.114   7.759   7.025 -1.9024  0.4285 -3.5565
  557MOL0     H73485   5.167   7.816   6.878 -2.9145 -1.8854 -0.2635
  557MOL0     H73486   4.937   7.761   6.825 -0.0258  0.3546 -0.7790
  557MOL0     H73487   4.704   7.764   6.750 -0.8663  0.2343  1.6444
  557MOL0     H73488   4.224   8.155   6.940 -0.8426  2.1871  0.1061
  557MOL0     H73489   4.001   8.177   6.857 -0.1588 -3.3007  0.8772
  557MOL0     H73490   3.788   8.142   6.750  2.1556 -0.3212  0.9505
  557MOL0     H73491   3.815   7.969   6.742 -2.5742 -1.4672 -0.4218
  557MOL0     H73492   3.721   7.940   6.534  2.8434  0.3149  2.1678
  557MOL0     H73493   3.657   8.113   6.530  0.7137  1.5819  0.9660
  557MOL0     H73494   3.539   8.060   6.753 -2.8290  1.8566 -2.3158
  557MOL0     H73495   3.580   7.887   6.721 -2.3248 -0.1093  1.1050
  557MOL0     H73496   3.421   8.046   6.514 -1.3874 -1.9326 -2.0070
  557MOL0     H73497   3.468   7.875   6.513  0.5837 -0.7071  0.5626
  557MOL0     H73498   3.277   7.981   6.734 -0.8683 -4.0463  2.8142
  557MOL0     H73499   3.332   7.827   6.697  2.0409  3.1441  3.3534
  557MOL0     H73500   3.202   7.798   6.513  3.3990 -0.2179  1.2446
  557MOL0     H73501   3.197   7.972   6.477 -1.1254  0.7769  1.1490
  557MOL0     H73502   3.044   7.840   6.691  3.2088 -1.0947 -0.4228
  557MOL0     H73503   3.032   8.014   6.662 -3.4442 -0.8686  0.1375
  557MOL0     H73504   2.974   7.805   6.459  2.2145 -0.5659  2.1282
  557MOL0     H73505   2.933   7.981   6.449  3.9709 -1.5202 -3.2824
  557MOL0     H73506   4.125   8.028   6.463  0.4468 -2.2658 -0.7347
  557MOL0     H73507   4.365   8.027   6.556 -0.7302 -1.3181 -1.8016
  557MOL0     H73508   4.636   8.119   6.979 -1.8379 -1.2274 -0.3275
  557MOL0     H73509   4.886   8.105   7.050  1.1405 -0.5557 -0.7132
  557MOL0     H73510   3.690   7.679   6.700 -0.9124  0.8390 -0.9837
  557MOL0     H73511   3.539   7.520   6.598  0.3226 -0.1815  2.3356
  557MOL0     H73512   3.466   7.433   6.073 -0.0900 -0.1897 -0.0160
  557MOL0     H73513   3.282   7.326   5.969  0.7998  0.5003  0.2460
  557MOL0     H73514   3.054   7.046   6.249  0.0187  2.6709 -0.1048
  557MOL0     H73515   3.127   6.936   6.129  1.4908  0.9558  0.8560
  557MOL0     H73516   2.856   7.090   6.069  1.6727  0.0170 -1.0650
  557MOL0     H73517   2.932   6.948   5.991  1.9162  0.0497 -0.3062
  557MOL0     H73518   2.852   6.964   6.281 -0.8304 -1.7069  1.0163
  557MOL0     H73519   2.928   6.830   6.208  1.7602  0.9188 -2.2287
  557MOL0     H73520   2.630   6.866   6.211 -1.8604  2.5770 -1.5438
  557MOL0     H73521   2.681   6.929   6.052  2.2519 -0.2325 -1.1267
  557MOL0     H73522   2.785   6.522   5.999 -0.2502  0.1938 -0.6147
  557MOL0     H73523   3.278   7.032   6.286 -1.1087  0.6617 -0.5112
  557MOL0     H73524   3.487   7.139   6.378  1.2804 -0.7507  0.0349
  558MOL0     O73525   8.878   8.261   2.817  0.3980  0.2726  0.4847
  558MOL0     C73526   8.969   8.268   2.897  0.3220 -0.2033  0.2315
  558MOL0     O73527   8.967   8.323   3.024 -0.3873 -0.6051  0.1616
  558MOL0     C73528   8.839   8.351   3.073 -0.2266 -1.3287  0.0507
  558MOL0     C73529   8.796   8.478   3.118  0.7449 -0.4837 -0.0280
  558MOL0     C73530   8.666   8.496   3.169 -0.0661 -0.3708 -0.1147
  558MOL0     C73531   8.574   8.393   3.152  0.1229  0.5278  0.4701
  558MOL0     O73532   8.441   8.421   3.171  0.5052 -0.2650  0.3339
  558MOL0     C73533   8.340   8.324   3.141  0.0727  0.8363  0.0224
  558MOL0     C73534   8.215   8.397   3.172  0.8837  0.7590  0.1596
  558MOL0     C73535   8.085   8.307   3.151  0.4378 -0.5194 -0.1938
  558MOL0     C73536   7.964   8.360   3.238 -0.5178 -0.8870  0.1761
  558MOL0     C73537   7.829   8.289   3.207 -0.2604  0.0610  0.0094
  558MOL0     C73538   7.727   8.323   3.311 -0.1578 -0.3238 -0.3210
  558MOL0     C73539   7.594   8.242   3.303  0.0455 -0.4573  0.1062
  558MOL0     C73540   7.485   8.292   3.404  0.3524 -0.7263  0.3574
  558MOL0     N73541   7.426   8.420   3.372  0.4284  0.1238 -0.7688
  558MOL0     C73542   7.468   8.542   3.412 -0.5217 -0.7973  0.4200
  558MOL0     C73543   7.358   8.627   3.396 -0.0253  0.4037  0.1458
  558MOL0     C73544   7.364   8.777   3.418 -0.1580 -0.2571  0.4412
  558MOL0     C73545   7.374   8.827   3.558  0.4014  0.2560 -0.7651
  558MOL0     C73546   7.390   8.980   3.546  0.9627  0.4098  0.0584
  558MOL0     C73547   7.384   9.036   3.690  0.5733  0.2110 -0.2951
  558MOL0     O73548   7.466   9.157   3.708 -0.1465  0.2664  0.3906
  558MOL0     C73549   7.601   9.157   3.719  0.5511 -0.6750 -0.5446
  558MOL0     C73550   7.681   9.049   3.696 -0.5440  0.6750 -0.7085
  558MOL0     C73551   7.817   9.050   3.713 -1.0766 -0.3204  0.3670
  558MOL0     C73552   7.887   9.172   3.750  0.1220  0.3574 -0.6135
  558MOL0     C73553   8.028   9.178   3.777 -0.4474  0.0876 -0.0023
  558MOL0     O73554   8.093   9.053   3.779  0.5221  0.1840  0.4351
  558MOL0     C73555   8.221   9.056   3.810  0.2599  0.1869  0.3951
  558MOL0     C73556   8.317   9.046   3.704  0.3398 -0.2661 -0.5264
  558MOL0     C73557   8.453   9.055   3.730 -0.4807 -0.1750  0.5518
  558MOL0     C73558   8.494   9.078   3.862  0.3034  0.4035  0.0012
  558MOL0     O73559   8.627   9.079   3.885 -0.9673 -0.6129  0.3046
  558MOL0     C73560   8.672   9.082   4.026  0.4961  0.4358  0.2441
  558MOL0     C73561   8.820   9.076   4.045  0.6131 -0.0451  0.0326
  558MOL0     C73562   8.852   9.090   4.195 -0.3584 -0.6118  0.3243
  558MOL0     C73563   9.002   9.128   4.219  0.3179  0.1173 -0.3924
  558MOL0     C73564   9.053   9.052   4.337  1.2960 -0.5985 -0.5549
  558MOL0     C73565   9.206   9.075   4.350  0.3914 -0.1480 -0.3936
  558MOL0     C73566   9.235   9.219   4.410  0.2993 -0.3957  0.9225
  558MOL0     C73567   9.384   9.245   4.406 -0.4473  0.4018  0.7620
  558MOL0    Cl73568   9.463   9.114   4.509  0.1939 -0.1392 -0.0350
  558MOL0     C73569   8.400   9.102   3.961 -0.5363 -0.5460  0.9170
  558MOL0     C73570   8.266   9.083   3.937  0.1757 -0.1837  0.3417
  558MOL0     O73571   8.081   9.287   3.812 -0.6193 -0.4865  0.0969
  558MOL0     C73572   7.801   9.282   3.786  0.4046  0.4758 -0.3255
  558MOL0     C73573   7.662   9.276   3.759 -0.2468  0.7508  0.1506
  558MOL0     N73574   7.247   8.558   3.352  0.3651  0.8530 -0.5103
  558MOL0     N73575   7.295   8.431   3.345  0.2464  0.4121  0.5249
  558MOL0     C73576   8.616   8.265   3.101  0.4484 -0.0764  0.0284
  558MOL0     C73577   8.746   8.249   3.071  0.5974 -0.1644  0.6314
  558MOL0     C73578   9.097   8.219   2.843  0.0219 -0.0986 -0.1475
  558MOL0     C73579   9.114   8.133   2.735 -0.5046  0.2366 -0.4358
  558MOL0     C73580   9.239   8.084   2.700 -0.3325 -0.4669  0.2748
  558MOL0     C73581   9.356   8.118   2.767  0.1146  0.0719  0.2962
  558MOL0     O73582   9.464   8.059   2.726 -0.1707 -0.0575  0.2591
  558MOL0     C73583   9.588   8.087   2.800  0.3756  0.3972  1.0547
  558MOL0     C73584   9.658   8.204   2.739  0.2989 -0.9839  0.0307
  558MOL0     C73585   9.675   8.198   2.590 -0.0879  0.6186  0.3383
  558MOL0     C73586   9.743   8.319   2.525  1.0534  0.1781  0.4389
  558MOL0     C73587   9.753   8.307   2.387 -0.4404  0.6276  0.6104
  558MOL0     C73588   9.758   8.309   2.271  0.8912  0.0041 -0.2109
  558MOL0     C73589   9.342   8.209   2.865 -0.8615 -0.1789 -0.0217
  558MOL0     C73590   9.217   8.247   2.910  0.0618 -0.2058 -0.3388
  558MOL0     H73591   8.855   8.568   3.129 -1.0746  0.8971 -0.9523
  558MOL0     H73592   8.631   8.592   3.207  0.9961  0.6521 -1.5846
  558MOL0     H73593   8.364   8.246   3.214  0.3321  0.8314 -0.0691
  558MOL0     H73594   8.327   8.293   3.037 -3.9257  1.5420  0.1390
  558MOL0     H73595   8.214   8.492   3.116 -0.2544 -0.0213 -1.1981
  558MOL0     H73596   8.211   8.424   3.278  2.5705 -0.6134  0.6178
  558MOL0     H73597   8.107   8.205   3.183  3.7279  0.0244 -0.3849
  558MOL0     H73598   8.052   8.313   3.047 -0.0856  2.5921  0.0747
  558MOL0     H73599   8.004   8.348   3.339  0.0221  1.1119  0.2371
  558MOL0     H73600   7.960   8.469   3.229 -1.2776 -0.8544  0.8076
  558MOL0     H73601   7.849   8.182   3.222 -0.5304  0.1419  0.9803
  558MOL0     H73602   7.791   8.308   3.106 -0.1914  2.3959  0.3863
  558MOL0     H73603   7.708   8.431   3.311  2.3849  0.1896  0.9908
  558MOL0     H73604   7.775   8.301   3.406  0.2262  1.0140 -0.1917
  558MOL0     H73605   7.563   8.240   3.198 -0.2095  1.6307  0.1086
  558MOL0     H73606   7.626   8.143   3.340  0.4598 -0.5723 -0.5463
  558MOL0     H73607   7.531   8.304   3.503 -1.7145 -2.5909  1.6365
  558MOL0     H73608   7.406   8.220   3.426 -2.9504  0.4963 -5.4050
  558MOL0     H73609   7.571   8.555   3.442 -0.1962  0.6081 -1.1734
  558MOL0     H73610   7.274   8.822   3.377  2.0006  3.0963 -1.0907
  558MOL0     H73611   7.444   8.814   3.353 -0.4736 -2.4046 -1.2857
  558MOL0     H73612   7.462   8.787   3.608 -0.2051  1.5473  1.4902
  558MOL0     H73613   7.285   8.796   3.614 -0.7859  1.5445 -1.8417
  558MOL0     H73614   7.479   9.011   3.492  0.1153  2.1921 -0.3840
  558MOL0     H73615   7.308   9.017   3.484  1.0717  2.4388  1.0561
  558MOL0     H73616   7.414   8.956   3.758  2.6090  0.7459 -0.4935
  558MOL0     H73617   7.279   9.057   3.714 -0.6131  0.2011 -4.5732
  558MOL0     H73618   7.640   8.954   3.662  0.1616  0.7231 -1.7434
  558MOL0     H73619   7.876   8.960   3.698  1.4134  1.0620  1.2897
  558MOL0     H73620   8.283   9.011   3.606  1.8777 -1.7093 -0.5920
  558MOL0     H73621   8.528   9.050   3.651 -0.3874  1.7260  0.4902
  558MOL0     H73622   8.632   8.994   4.077 -2.4145  2.1864  1.2583
  558MOL0     H73623   8.628   9.166   4.080  0.1193 -2.1710  4.4367
  558MOL0     H73624   8.864   9.163   3.995  0.2649 -0.8217 -1.6853
  558MOL0     H73625   8.865   8.987   4.002  0.4068  1.0810 -2.7312
  558MOL0     H73626   8.824   8.996   4.244  1.1128 -0.6281  1.1976
  558MOL0     H73627   8.787   9.166   4.240  0.3854  0.2723 -0.0437
  558MOL0     H73628   9.065   9.089   4.139 -1.3257  0.5757 -1.9871
  558MOL0     H73629   9.011   9.233   4.247  1.2824  0.0363 -0.3819
  558MOL0     H73630   9.036   8.944   4.333 -1.6019 -0.3126  1.2196
  558MOL0     H73631   9.019   9.095   4.431  0.0508 -0.7263 -0.9369
  558MOL0     H73632   9.266   9.068   4.259 -0.7628  0.6990 -1.2591
  558MOL0     H73633   9.249   9.000   4.417 -1.0050 -1.1237 -0.5651
  558MOL0     H73634   9.183   9.300   4.358  1.0640  0.6853  1.8063
  558MOL0     H73635   9.212   9.219   4.516  1.0252 -0.5802  1.0882
  558MOL0     H73636   9.413   9.335   4.461  1.6776  0.9863 -1.1829
  558MOL0     H73637   9.435   9.245   4.309 -2.3315  0.4077 -0.2898
  558MOL0     H73638   8.421   9.124   4.065  0.8352 -3.2426  1.2915
  558MOL0     H73639   8.194   9.098   4.018  1.6470  2.0820  1.3431
  558MOL0     H73640   7.838   9.377   3.823 -1.9428  0.5733  2.1631
  558MOL0     H73641   7.597   9.362   3.773  0.2924  1.2791 -0.5061
  558MOL0     H73642   8.545   8.187   3.079  0.2579  0.4291 -1.2435
  558MOL0     H73643   8.778   8.158   3.022 -0.2295  0.9026 -2.0845
  558MOL0     H73644   9.023   8.105   2.683  0.0577  1.5961 -2.2524
  558MOL0     H73645   9.242   8.019   2.612 -1.5092 -0.2471  0.0582
  558MOL0     H73646   9.652   7.999   2.787  0.8695  0.9325 -0.3370
  558MOL0     H73647   9.570   8.100   2.907  2.0989 -0.7803  1.5333
  558MOL0     H73648   9.598   8.291   2.767 -2.1390 -3.0158  1.5157
  558MOL0     H73649   9.752   8.215   2.793  0.7960 -2.6777 -0.4216
  558MOL0     H73650   9.583   8.181   2.532  2.2235 -1.4846 -3.0383
  558MOL0     H73651   9.727   8.104   2.568 -1.9386 -0.5894  0.8447
  558MOL0     H73652   9.688   8.411   2.546 -2.6469 -1.1914 -2.1563
  558MOL0     H73653   9.845   8.318   2.564  0.8274  3.7547  1.4924
  558MOL0     H73654   9.768   8.311   2.164  0.8796  1.0909 -0.2040
  558MOL0     H73655   9.431   8.238   2.921 -0.1040 -2.3820  0.0174
  558MOL0     H73656   9.221   8.316   2.993  0.3024  0.8948 -1.2409
  559MOL0     O73657   9.055   2.486   9.919 -0.2327  0.0263  0.4314
  559MOL0     C73658   9.132   2.436   9.996 -1.1024 -0.1822  0.6856
  559MOL0     O73659   9.099   2.369  10.111  0.1431 -0.2730  0.1617
  559MOL0     C73660   8.969   2.346  10.154 -0.3780  0.2056  0.8683
  559MOL0     C73661   8.862   2.433  10.139 -0.4116  0.7299  0.7756
  559MOL0     C73662   8.743   2.385  10.195  1.1594  0.2863 -0.5311
  559MOL0     C73663   8.738   2.270  10.277  0.3353  1.3217 -0.2904
  559MOL0     O73664   8.618   2.232  10.336 -0.6214  0.4207 -0.0004
  559MOL0     C73665   8.592   2.266  10.470  0.2754 -0.9015  0.1054
  559MOL0     C73666   8.515   2.409  10.463 -0.2728  1.2628 -0.1816
  559MOL0     C73667   8.377   2.382  10.409  1.0414  0.2217  0.0676
  559MOL0     C73668   8.296   2.510  10.357 -0.4591 -0.1447  0.1701
  559MOL0     C73669   8.279   2.633  10.447  0.5481  0.4989 -0.0714
  559MOL0     C73670   8.177   2.735  10.403 -0.3080 -1.0199  0.4135
  559MOL0     C73671   8.028   2.691  10.417 -0.5759  0.2751 -1.2827
  559MOL0     C73672   7.935   2.777  10.336  1.1817 -0.0791 -0.3103
  559MOL0     N73673   7.945   2.918  10.361  0.7735 -0.5515  0.0405
  559MOL0     C73674   7.956   2.983  10.489 -0.0183 -0.6928 -0.3545
  559MOL0     C73675   7.974   3.119  10.461 -0.3176  0.6061 -0.9408
  559MOL0     C73676   7.966   3.228  10.563  0.2523 -0.0713 -0.7914
  559MOL0     C73677   8.058   3.346  10.526 -0.0460 -0.2532 -0.1391
  559MOL0     C73678   8.029   3.468  10.612  0.6901  0.4627  0.0002
  559MOL0     C73679   7.882   3.516  10.605  0.1873 -0.1539 -1.1283
  559MOL0     O73680   7.814   3.455  10.717  0.0225 -0.3951 -0.8408
  559MOL0     C73681   7.671   3.474  10.720  0.4281  0.1181 -0.3306
  559MOL0     C73682   7.608   3.492  10.841  0.9958 -0.1108 -1.0764
  559MOL0     C73683   7.463   3.503  10.857 -0.2622  0.1334 -0.3801
  559MOL0     C73684   7.388   3.497  10.741  0.2897 -0.3301  0.4367
  559MOL0     C73685   7.237   3.523  10.761 -0.0470 -0.4743 -0.4617
  559MOL0     O73686   7.156   3.577  10.654  0.1300  0.9516  0.0557
  559MOL0     C73687   7.031   3.631  10.677  0.0853  1.0875 -0.2053
  559MOL0     C73688   6.990   3.696  10.795  0.2756 -1.5137  0.3261
  559MOL0     C73689   6.864   3.765  10.793 -0.0275 -0.3718 -0.1561
  559MOL0     C73690   6.779   3.771  10.683 -1.1008  0.3907  0.4531
  559MOL0     O73691   6.659   3.846  10.692  0.2153  0.3974  1.1300
  559MOL0     C73692   6.538   3.802  10.622 -0.2776  0.1439 -0.3833
  559MOL0     C73693   6.417   3.865  10.698  0.1282 -0.6614  0.3318
  559MOL0     C73694   6.315   3.918  10.599  0.1125 -0.2460 -0.0683
  559MOL0     C73695   6.208   3.998  10.671  0.1781  0.2404 -0.3750
  559MOL0     C73696   6.073   3.993  10.606  0.6218 -0.0887 -0.1689
  559MOL0     C73697   6.061   4.072  10.470 -0.1634  0.3292 -1.1281
  559MOL0     C73698   5.923   4.040  10.410  0.1047  0.2220  0.3662
  559MOL0     C73699   5.902   4.107  10.275 -0.5723  0.4958  0.6137
  559MOL0    Cl73700   5.747   4.055  10.213 -0.3873  0.4465  0.4143
  559MOL0     C73701   6.829   3.694  10.576  0.0037  0.4339  0.1161
  559MOL0     C73702   6.948   3.620  10.571  0.4947  0.8757  0.3411
  559MOL0     O73703   7.198   3.506  10.876 -0.8550  0.2497  0.4548
  559MOL0     C73704   7.447   3.478  10.616  0.8495 -0.2451 -0.5186
  559MOL0     C73705   7.583   3.453  10.614 -0.2733  0.4784  0.6961
  559MOL0     N73706   7.973   3.133  10.319 -0.1869  0.2179 -0.3303
  559MOL0     N73707   7.968   3.016  10.262 -0.4871  0.0566 -1.3962
  559MOL0     C73708   8.847   2.192  10.304 -0.0388  0.0046  1.8890
  559MOL0     C73709   8.964   2.227  10.233  0.6025 -0.0966  0.4728
  559MOL0     C73710   9.273   2.438   9.960 -0.3694  0.9836  0.0088
  559MOL0     C73711   9.362   2.361  10.041 -0.7811  0.2803  0.1322
  559MOL0     C73712   9.495   2.338   9.991  0.4119 -0.1476 -0.1503
  559MOL0     C73713   9.537   2.380   9.866  0.1732 -0.0989  0.1308
  559MOL0     O73714   9.660   2.340   9.820  0.3309  0.4715  0.1665
  559MOL0     C73715   9.705   2.375   9.687 -0.5447 -0.2025 -1.1574
  559MOL0     C73716   9.851   2.315   9.681 -0.2420  0.9332 -0.0445
  559MOL0     C73717   9.919   2.351   9.543  0.4708  0.5844 -0.5986
  559MOL0     C73718  10.054   2.300   9.544 -0.1670 -0.1399 -0.6223
  559MOL0     C73719  10.148   2.374   9.460  0.1772 -0.3000  0.0570
  559MOL0     C73720  10.233   2.423   9.391  0.0034 -0.1632  0.2418
  559MOL0     C73721   9.452   2.463   9.791 -0.2598  0.9596 -0.4632
  559MOL0     C73722   9.322   2.478   9.831  0.2394 -0.5510 -0.7210
  559MOL0     H73723   8.880   2.527  10.087  0.0909  0.6916  0.8745
  559MOL0     H73724   8.655   2.448  10.198  1.7699  1.1226  0.6990
  559MOL0     H73725   8.681   2.280  10.532 -0.0302  0.0135  0.3540
  559MOL0     H73726   8.529   2.194  10.524 -1.6163  0.6122  0.0537
  559MOL0     H73727   8.565   2.479  10.396  1.9084 -0.5337 -0.5650
  559MOL0     H73728   8.510   2.462  10.559 -0.8769 -1.3132  1.3318
  559MOL0     H73729   8.314   2.331  10.482  0.7726  0.4157 -0.0312
  559MOL0     H73730   8.393   2.311  10.327  1.1681 -0.7517  0.9130
  559MOL0     H73731   8.343   2.543  10.263  1.8060 -3.6925 -0.1167
  559MOL0     H73732   8.199   2.486  10.313  1.0548  0.6672 -4.1474
  559MOL0     H73733   8.380   2.674  10.442  0.8385 -0.1119  0.6172
  559MOL0     H73734   8.262   2.605  10.551 -2.4834 -0.4203 -0.6939
  559MOL0     H73735   8.196   2.749  10.297 -1.1767 -1.1471  0.2386
  559MOL0     H73736   8.196   2.823  10.467 -3.8847 -0.4892  0.9453
  559MOL0     H73737   8.013   2.588  10.385 -0.7379  0.1598 -0.8442
  559MOL0     H73738   8.003   2.691  10.524  0.7819  3.4156 -0.8436
  559MOL0     H73739   7.832   2.742  10.350  1.3230 -1.1876 -1.8325
  559MOL0     H73740   7.945   2.768  10.228  1.8349  1.9876 -0.4670
  559MOL0     H73741   7.951   2.933  10.585 -0.6032 -0.3012 -0.1738
  559MOL0     H73742   7.983   3.206  10.669 -0.1457 -0.2002 -0.7517
  559MOL0     H73743   7.862   3.261  10.565  0.5777  0.9450 -0.0953
  559MOL0     H73744   8.035   3.364  10.421 -1.2378 -3.0275 -0.4251
  559MOL0     H73745   8.167   3.337  10.527  0.1598  1.4675 -1.8346
  559MOL0     H73746   8.057   3.453  10.716 -0.3493  0.9871  0.3686
  559MOL0     H73747   8.084   3.551  10.566 -0.8304  0.6137 -1.6765
  559MOL0     H73748   7.840   3.493  10.507  0.2732  1.8513 -1.6927
  559MOL0     H73749   7.865   3.624  10.618  1.8000 -0.0286  0.2537
  559MOL0     H73750   7.667   3.506  10.931 -2.3718 -0.0144  1.3046
  559MOL0     H73751   7.425   3.533  10.955 -1.9578  2.4231 -1.6323
  559MOL0     H73752   7.055   3.702  10.881 -0.5942  1.1689  0.9088
  559MOL0     H73753   6.821   3.802  10.886 -0.5621  1.9190 -1.2371
  559MOL0     H73754   6.533   3.694  10.638  2.2241 -0.0613 -0.6764
  559MOL0     H73755   6.542   3.837  10.519  1.0402  0.8964 -0.0995
  559MOL0     H73756   6.461   3.948  10.756  2.9637 -3.5953  2.7531
  559MOL0     H73757   6.369   3.789  10.760 -0.9479 -1.2130 -1.1172
  559MOL0     H73758   6.276   3.833  10.543 -0.4668  1.7963 -3.0698
  559MOL0     H73759   6.379   3.985  10.540  0.9168  0.1996  1.2672
  559MOL0     H73760   6.198   3.956  10.771  2.0534  0.4593 -0.0639
  559MOL0     H73761   6.243   4.101  10.683  0.2742  0.2896 -1.0357
  559MOL0     H73762   6.000   4.033  10.676 -0.8650  2.9501 -3.1615
  559MOL0     H73763   6.065   3.885  10.590  3.5001 -0.3739 -0.2950
  559MOL0     H73764   6.139   4.035  10.404  0.7763  0.4532 -0.1073
  559MOL0     H73765   6.065   4.180  10.486 -1.6048  0.3167 -0.4551
  559MOL0     H73766   5.916   3.935  10.379 -0.2370  1.0001 -2.4500
  559MOL0     H73767   5.841   4.043  10.483 -0.8087  0.4570 -0.6528
  559MOL0     H73768   5.987   4.084  10.210 -1.6168 -0.7992 -0.3574
  559MOL0     H73769   5.890   4.215  10.292 -1.8363  0.4349  0.2092
  559MOL0     H73770   6.771   3.695  10.484 -0.4276  0.1013  0.3807
  559MOL0     H73771   6.979   3.566  10.482  0.2238 -0.6501  1.1478
  559MOL0     H73772   7.387   3.464  10.527  0.3677 -0.1508 -0.2091
  559MOL0     H73773   7.622   3.428  10.516 -1.7668  1.7510 -0.2765
  559MOL0     H73774   8.839   2.101  10.361 -0.4895 -0.3341  1.2974
  559MOL0     H73775   9.052   2.169  10.259  0.6691 -0.1796  0.0722
  559MOL0     H73776   9.336   2.320  10.138  1.1523  1.5657  1.2514
  559MOL0     H73777   9.571   2.295  10.056  0.4059  0.6870  0.4323
  559MOL0     H73778   9.702   2.484   9.673  0.0095 -0.4166 -3.3901
  559MOL0     H73779   9.655   2.321   9.606 -3.6116  1.9462 -0.9194
  559MOL0     H73780   9.911   2.358   9.761  0.3503 -1.0898  0.6429
  559MOL0     H73781   9.829   2.209   9.691 -1.0912  1.2663  2.1883
  559MOL0     H73782   9.919   2.460   9.546 -0.2674  0.5899 -0.6712
  559MOL0     H73783   9.867   2.311   9.456 -0.1860 -0.4797  0.2483
  559MOL0     H73784  10.085   2.302   9.649 -2.4983 -0.7835  0.1338
  559MOL0     H73785  10.052   2.194   9.516 -0.8201 -1.8977  4.7577
  559MOL0     H73786  10.314   2.449   9.325  0.4295 -2.0973 -0.0623
  559MOL0     H73787   9.473   2.501   9.692 -1.6439  5.6248  0.7989
  559MOL0     H73788   9.251   2.526   9.764 -0.1724  0.8841  0.6968
  560MOL0     O73789   3.285   9.661   8.424  0.0068  0.4683  0.6636
  560MOL0     C73790   3.256   9.745   8.338 -0.0061 -0.2179 -0.4547
  560MOL0     O73791   3.129   9.791   8.308 -0.2728  0.2087  0.0050
  560MOL0     C73792   3.006   9.739   8.337 -0.4664 -0.5980 -0.6505
  560MOL0     C73793   2.976   9.613   8.380 -0.2207  0.6205 -0.1132
  560MOL0     C73794   2.851   9.569   8.416  0.2138 -0.0331 -0.7060
  560MOL0     C73795   2.746   9.664   8.403 -0.3339  0.3215 -0.7153
  560MOL0     O73796   2.616   9.623   8.441  0.1222 -0.4286  0.9373
  560MOL0     C73797   2.509   9.725   8.448  0.1847  1.0678  0.7784
  560MOL0     C73798   2.381   9.667   8.506  0.0383 -0.7292 -0.5156
  560MOL0     C73799   2.281   9.767   8.565 -0.9845 -0.8453 -0.3855
  560MOL0     C73800   2.167   9.702   8.651 -0.9072 -0.1572  0.0083
  560MOL0     C73801   2.031   9.720   8.577  0.0005 -0.0519  0.0163
  560MOL0     C73802   1.979   9.864   8.598 -0.4285  0.5697  0.6672
  560MOL0     C73803   1.834   9.861   8.553 -0.9101  0.8141  0.2742
  560MOL0     C73804   1.777   9.993   8.596  1.1222 -0.3941  0.1733
  560MOL0     N73805   1.627   9.978   8.587  0.8211 -0.4040 -0.4700
  560MOL0     C73806   1.544   9.907   8.673 -0.4634 -0.4025  0.2298
  560MOL0     C73807   1.437   9.857   8.610 -0.0358 -0.9005  0.1995
  560MOL0     C73808   1.319   9.780   8.659 -0.3949 -0.0966 -0.2479
  560MOL0     C73809   1.243   9.853   8.771 -0.5284 -0.2078  0.7349
  560MOL0     C73810   1.132   9.771   8.821  0.8403  0.9690 -0.8376
  560MOL0     C73811   1.005   9.769   8.723 -0.0353  0.1501 -0.1828
  560MOL0     O73812   0.930   9.883   8.739  0.8396 -0.4417 -0.8276
  560MOL0     C73813   0.828   9.917   8.655  0.3593 -0.2387  0.5687
  560MOL0     C73814   0.750  10.023   8.686  0.4350  0.0300 -0.0858
  560MOL0     C73815   0.630  10.049   8.620  0.7479 -0.5644  0.0424
  560MOL0     C73816   0.590   9.975   8.509  0.7964  0.1935 -0.2617
  560MOL0     C73817   0.460  10.002   8.434 -0.0340 -1.1066 -0.4706
  560MOL0     O73818   0.415   9.918   8.339 -0.3861 -0.8006 -0.3351
  560MOL0     C73819   0.291   9.936   8.275 -0.8758 -0.7215  0.8514
  560MOL0     C73820   0.289   9.919   8.138 -0.4768 -0.8044  0.2850
  560MOL0     C73821   0.167   9.932   8.067  0.1967  0.1458 -0.6498
  560MOL0     C73822   0.053   9.969   8.124 -0.0467 -0.1385  0.4221
  560MOL0     O73823  -0.059   9.998   8.039  0.1347 -0.5536  0.0622
  560MOL0     C73824  -0.174  10.061   8.083 -0.0979  0.0282 -0.5240
  560MOL0     C73825  -0.253  10.096   7.956  0.3782 -0.1712  0.8583
  560MOL0     C73826  -0.199  10.226   7.890  0.7976 -0.7722 -0.2746
  560MOL0     C73827  -0.279  10.252   7.762 -0.4745 -0.1768  0.1586
  560MOL0     C73828  -0.277  10.394   7.712 -0.2463 -0.4670  0.1947
  560MOL0     C73829  -0.324  10.492   7.822 -0.3194 -0.2014  0.0781
  560MOL0     C73830  -0.336  10.629   7.756  0.3653  0.0579 -1.0873
  560MOL0     C73831  -0.201  10.690   7.710  0.3408  0.1348 -0.9610
  560MOL0    Cl73832  -0.235  10.818   7.602 -0.0971 -0.0257  0.7566
  560MOL0     C73833   0.055   9.985   8.269  0.4191  0.3786  0.7964
  560MOL0     C73834   0.172   9.963   8.337 -0.5965 -0.2697  0.8040
  560MOL0     O73835   0.414  10.109   8.455  0.0184 -0.1963 -0.5295
  560MOL0     C73836   0.669   9.863   8.477 -0.4695  1.3359  0.0006
  560MOL0     C73837   0.791   9.833   8.550  0.4909  0.1438  0.8521
  560MOL0     N73838   1.448   9.911   8.482 -0.5398 -0.1989 -0.2337
  560MOL0     N73839   1.556   9.983   8.470  0.4652  0.4829  0.1519
  560MOL0     C73840   2.770   9.791   8.351 -0.4927 -0.8760 -0.8700
  560MOL0     C73841   2.901   9.836   8.324 -0.4707  0.3276  0.5210
  560MOL0     C73842   3.364   9.810   8.271 -0.6356 -0.3273  0.1437
  560MOL0     C73843   3.500   9.792   8.306 -0.0458 -0.2207  0.0832
  560MOL0     C73844   3.597   9.881   8.271  0.5341  0.1516  0.5636
  560MOL0     C73845   3.575   9.971   8.172 -0.7468  0.0680  0.7916
  560MOL0     O73846   3.678  10.058   8.137 -1.3321  0.4363 -0.2124
  560MOL0     C73847   3.656  10.162   8.033 -0.8153 -0.0979 -0.4287
  560MOL0     C73848   3.775  10.259   8.017  0.1597  0.1443 -0.7651
  560MOL0     C73849   3.776  10.372   8.133  0.2692  0.3124  0.3475
  560MOL0     C73850   3.706  10.505   8.096  0.0479 -0.1726  0.3029
  560MOL0     C73851   3.793  10.608   8.044  1.0614  0.1308 -0.5883
  560MOL0     C73852   3.859  10.695   7.991 -0.6939 -0.1113 -0.0791
  560MOL0     C73853   3.443   9.980   8.117  0.2315 -0.4953  0.6881
  560MOL0     C73854   3.344   9.902   8.170 -0.0105 -0.3653 -0.0848
  560MOL0     H73855   3.061   9.553   8.410  0.3888  1.3693 -0.3216
  560MOL0     H73856   2.829   9.465   8.438  0.0932  0.4581  1.7571
  560MOL0     H73857   2.475   9.767   8.353 -0.4061  0.0722  0.5332
  560MOL0     H73858   2.545   9.798   8.521 -0.6193  0.2738  2.0052
  560MOL0     H73859   2.414   9.607   8.592 -1.3710 -1.3756 -0.3922
  560MOL0     H73860   2.330   9.600   8.436  2.0681 -2.7314 -0.1885
  560MOL0     H73861   2.234   9.822   8.484 -2.4651  2.6522  2.5603
  560MOL0     H73862   2.339   9.841   8.621 -2.6698 -0.5420  1.0775
  560MOL0     H73863   2.181   9.597   8.677 -0.1322 -0.1738 -0.4415
  560MOL0     H73864   2.154   9.747   8.749 -2.2429  0.2789 -0.3448
  560MOL0     H73865   1.963   9.649   8.625 -1.2598  0.9107 -0.2740
  560MOL0     H73866   2.029   9.692   8.471 -1.0003  0.0196 -0.0000
  560MOL0     H73867   2.030   9.938   8.537 -2.4941 -0.9458 -3.2246
  560MOL0     H73868   1.988   9.885   8.705 -1.6371 -0.0745  0.9160
  560MOL0     H73869   1.814   9.850   8.446 -3.4189 -1.0457  0.8460
  560MOL0     H73870   1.777   9.778   8.596  1.1532  0.1972  1.9628
  560MOL0     H73871   1.817  10.079   8.542  4.1677 -0.0885  2.6598
  560MOL0     H73872   1.797  10.017   8.700 -1.6175 -0.3626  0.7778
  560MOL0     H73873   1.568   9.892   8.778  0.4072 -0.5804  0.0106
  560MOL0     H73874   1.354   9.682   8.694 -2.4215 -0.6937  0.2609
  560MOL0     H73875   1.253   9.762   8.574  0.8569 -2.0481 -0.8921
  560MOL0     H73876   1.222   9.953   8.732  0.1736 -1.2246 -2.5643
  560MOL0     H73877   1.321   9.861   8.847  0.8843  2.3554 -0.8462
  560MOL0     H73878   1.156   9.669   8.851  0.2162  1.0440 -0.0549
  560MOL0     H73879   1.088   9.819   8.908 -1.3181 -1.1041 -0.6631
  560MOL0     H73880   0.944   9.679   8.735 -0.1571 -0.0227 -1.8690
  560MOL0     H73881   1.043   9.752   8.622  1.4114 -2.0657  0.6437
  560MOL0     H73882   0.778  10.079   8.774  0.8469 -0.8272  0.3347
  560MOL0     H73883   0.571  10.135   8.650  0.5302 -0.0636 -1.7378
  560MOL0     H73884   0.378   9.895   8.081 -0.6570  0.1043 -0.4016
  560MOL0     H73885   0.167   9.934   7.958 -0.7643 -1.0018 -0.6865
  560MOL0     H73886  -0.155  10.152   8.141 -3.0407  0.3982 -0.0119
  560MOL0     H73887  -0.232  10.004   8.157 -0.5104  0.7963 -0.2434
  560MOL0     H73888  -0.357  10.116   7.986 -0.1363  1.3986 -1.6502
  560MOL0     H73889  -0.250  10.019   7.879 -0.0743  0.4639  0.1945
  560MOL0     H73890  -0.092  10.225   7.867  0.7459  3.0101 -1.2677
  560MOL0     H73891  -0.211  10.306   7.964  1.7312  1.0531 -1.9937
  560MOL0     H73892  -0.245  10.184   7.683  0.4607 -0.6924  0.9742
  560MOL0     H73893  -0.384  10.235   7.786 -1.2169  4.0979  0.7746
  560MOL0     H73894  -0.344  10.400   7.626  0.2032 -1.2029 -0.2212
  560MOL0     H73895  -0.172  10.417   7.689 -0.5081 -0.8863 -1.5491
  560MOL0     H73896  -0.256  10.490   7.907  3.0689 -0.8927 -2.4487
  560MOL0     H73897  -0.422  10.465   7.862 -0.5155 -1.7930 -1.3598
  560MOL0     H73898  -0.397  10.614   7.667  1.6808 -0.8676 -1.8796
  560MOL0     H73899  -0.397  10.699   7.814  0.1762 -1.1254  0.1920
  560MOL0     H73900  -0.135  10.623   7.654  0.5127 -0.8155  0.3188
  560MOL0     H73901  -0.140  10.709   7.799 -3.0155  0.5932  1.4621
  560MOL0     H73902  -0.031  10.030   8.316  0.4484  0.2450  0.9820
  560MOL0     H73903   0.178   9.991   8.442  0.1941  1.5347  0.3197
  560MOL0     H73904   0.652   9.800   8.390  0.5160  0.0618  0.6959
  560MOL0     H73905   0.840   9.738   8.531  0.7344  0.7983 -2.2531
  560MOL0     H73906   2.685   9.857   8.335 -0.1150 -0.5858 -1.7148
  560MOL0     H73907   2.927   9.934   8.287  4.3294 -1.5727 -1.9859
  560MOL0     H73908   3.524   9.735   8.395 -0.6255 -0.0276  0.3693
  560MOL0     H73909   3.696   9.869   8.312  1.2661 -1.5134 -1.5395
  560MOL0     H73910   3.566  10.224   8.037  1.4588  3.4251  1.2299
  560MOL0     H73911   3.641  10.111   7.937 -1.7004 -2.2093  0.7480
  560MOL0     H73912   3.867  10.200   8.020 -0.9631 -1.6681  1.3311
  560MOL0     H73913   3.769  10.303   7.917  0.6113 -0.0085 -0.8577
  560MOL0     H73914   3.876  10.389   8.174 -0.1457  3.5105  0.2575
  560MOL0     H73915   3.712  10.339   8.216 -0.5146  1.1369  0.0851
  560MOL0     H73916   3.634  10.482   8.017  0.4400  1.1510 -0.4702
  560MOL0     H73917   3.656  10.554   8.180 -1.0316 -0.2168 -0.2963
  560MOL0     H73918   3.910  10.785   7.961 -0.3032 -0.0980  0.5980
  560MOL0     H73919   3.425  10.045   8.032  0.0957  0.3613  1.3577
  560MOL0     H73920   3.241   9.901   8.136  0.1965 -2.0186 -0.7426
  561MOL0     O73921   4.653   7.386   6.961  0.6662 -0.0268  0.0685
  561MOL0     C73922   4.724   7.380   6.864 -0.3301 -0.6295  0.3118
  561MOL0     O73923   4.690   7.364   6.736 -0.9611 -0.1693 -0.2117
  561MOL0     C73924   4.559   7.329   6.711 -0.7342 -0.9998 -0.5369
  561MOL0     C73925   4.476   7.419   6.648  0.5221  0.9793 -0.0633
  561MOL0     C73926   4.340   7.395   6.635  0.4102 -0.6783  0.0773
  561MOL0     C73927   4.286   7.275   6.680 -0.2684 -1.3201 -1.1369
  561MOL0     O73928   4.149   7.262   6.664  1.0052  0.5778  0.0753
  561MOL0     C73929   4.086   7.176   6.747  0.1772  0.6030  0.2657
  561MOL0     C73930   3.930   7.193   6.746 -0.4789 -0.6325  0.1129
  561MOL0     C73931   3.853   7.101   6.843 -0.1276 -1.0165  0.0346
  561MOL0     C73932   3.708   7.127   6.822  0.0147  0.0774  0.0455
  561MOL0     C73933   3.641   7.002   6.883 -0.8534  0.4629  0.7115
  561MOL0     C73934   3.490   7.010   6.894 -0.7065 -0.7543  1.1188
  561MOL0     C73935   3.411   7.062   6.771 -0.9956 -0.3837  0.5860
  561MOL0     C73936   3.257   7.060   6.779  0.2413 -0.4666  0.3211
  561MOL0     N73937   3.173   7.088   6.659  0.0662 -0.3742 -0.1734
  561MOL0     C73938   3.159   7.212   6.603  1.4188  0.4835 -0.1630
  561MOL0     C73939   3.073   7.201   6.506 -0.5378  0.3295 -0.4708
  561MOL0     C73940   3.030   7.309   6.408 -0.2116 -0.6875  0.1634
  561MOL0     C73941   2.950   7.413   6.482 -0.3966 -0.2520  0.1383
  561MOL0     C73942   2.885   7.524   6.402  0.2564 -0.5746  0.3973
  561MOL0     C73943   2.797   7.484   6.286  0.0595 -0.3289  0.2367
  561MOL0     O73944   2.694   7.398   6.330  0.5288 -0.4397  0.0917
  561MOL0     C73945   2.607   7.352   6.232 -0.3470 -0.9440 -0.2335
  561MOL0     C73946   2.581   7.217   6.211  0.6625  0.5817  0.5545
  561MOL0     C73947   2.493   7.175   6.108 -0.3007  0.4928 -0.5605
  561MOL0     C73948   2.416   7.270   6.043 -0.3672  0.0395  0.5060
  561MOL0     C73949   2.305   7.238   5.953  0.2032 -0.0095  0.1544
  561MOL0     O73950   2.206   7.328   5.920  0.2754  0.1792 -0.8235
  561MOL0     C73951   2.107   7.313   5.825  0.7433  0.1185 -0.7883
  561MOL0     C73952   1.975   7.361   5.838  1.0370  0.1178  0.4902
  561MOL0     C73953   1.881   7.334   5.743 -0.3854 -0.0255 -0.9475
  561MOL0     C73954   1.913   7.259   5.627 -0.4839 -0.2446 -0.0001
  561MOL0     O73955   1.844   7.239   5.509 -0.2934  0.1386 -1.0099
  561MOL0     C73956   1.697   7.228   5.518  0.7037 -1.1326  0.4196
  561MOL0     C73957   1.625   7.119   5.599 -0.1320 -1.0236 -0.1515
  561MOL0     C73958   1.547   7.024   5.507 -0.6562  0.4704  0.5064
  561MOL0     C73959   1.422   7.091   5.437  0.7165 -0.9121  0.0217
  561MOL0     C73960   1.356   6.991   5.344 -0.6552  0.0539 -0.1214
  561MOL0     C73961   1.295   7.056   5.229 -0.3251  0.1927 -0.3849
  561MOL0     C73962   1.186   6.957   5.182 -1.1927  0.2111  0.6350
  561MOL0     C73963   1.135   6.994   5.036 -0.8982  0.3436 -1.1203
  561MOL0    Cl73964   1.100   7.172   5.022 -0.3492 -0.3514 -0.1498
  561MOL0     C73965   2.038   7.198   5.623  0.1841  0.3483  0.0302
  561MOL0     C73966   2.134   7.232   5.718  0.0585  0.4963  0.0294
  561MOL0     O73967   2.322   7.125   5.913  0.1990  0.6618 -0.3187
  561MOL0     C73968   2.439   7.407   6.074  0.7994  0.1897 -0.6026
  561MOL0     C73969   2.533   7.450   6.169  0.2514 -0.9279  0.1737
  561MOL0     N73970   3.037   7.065   6.499  0.4370  0.5833 -0.0526
  561MOL0     N73971   3.097   6.999   6.591  0.0918  0.7681  0.1640
  561MOL0     C73972   4.368   7.176   6.732 -0.7500 -0.5320 -0.2483
  561MOL0     C73973   4.501   7.203   6.751 -0.0106 -0.6174  0.2820
  561MOL0     C73974   4.866   7.379   6.898 -1.2155 -0.5556 -0.0944
  561MOL0     C73975   4.951   7.299   6.813  0.0287 -1.3091 -0.4353
  561MOL0     C73976   5.093   7.315   6.831  0.6956 -0.1235  0.7886
  561MOL0     C73977   5.148   7.383   6.938  0.1121 -0.4525 -0.1650
  561MOL0     O73978   5.283   7.382   6.947  0.2510 -0.2992  0.2328
  561MOL0     C73979   5.339   7.472   7.043 -0.5482 -0.7740 -0.3651
  561MOL0     C73980   5.495   7.452   7.044 -0.0743 -0.1744 -0.0630
  561MOL0     C73981   5.564   7.559   7.126 -0.2156  0.9765 -0.1170
  561MOL0     C73982   5.704   7.505   7.153  0.5246 -0.2070  0.2674
  561MOL0     C73983   5.772   7.466   7.031 -0.0906 -0.3133  0.6338
  561MOL0     C73984   5.825   7.454   6.925 -0.0797  0.7917 -0.7317
  561MOL0     C73985   5.054   7.463   7.014  0.2517  0.9799 -0.6897
  561MOL0     C73986   4.919   7.474   6.991 -0.4120 -0.0216  0.5091
  561MOL0     H73987   4.507   7.520   6.622 -2.0923  2.9398  3.5774
  561MOL0     H73988   4.277   7.468   6.585  0.5572 -0.7587 -0.2262
  561MOL0     H73989   4.116   7.185   6.852  0.2629  0.6771  0.2356
  561MOL0     H73990   4.102   7.080   6.697  0.2842  0.6890  0.1319
  561MOL0     H73991   3.906   7.178   6.640  1.9266  0.0947 -0.5960
  561MOL0     H73992   3.910   7.293   6.785  0.2806 -0.6949  0.6749
  561MOL0     H73993   3.889   7.121   6.945 -1.0514  2.8986 -0.2495
  561MOL0     H73994   3.862   6.994   6.824 -1.7488 -1.0460 -0.6943
  561MOL0     H73995   3.676   7.219   6.873 -0.1743  0.8721 -1.4639
  561MOL0     H73996   3.686   7.143   6.716 -1.2312  1.9670  0.5325
  561MOL0     H73997   3.678   6.981   6.983  0.7702  0.9508  0.2428
  561MOL0     H73998   3.678   6.914   6.829  0.1150  1.8934 -1.0770
  561MOL0     H73999   3.472   7.080   6.976  0.2546 -1.6268  2.1120
  561MOL0     H74000   3.458   6.907   6.913  2.6787 -1.8989  1.3711
  561MOL0     H74001   3.426   7.171   6.773 -2.3832 -0.1855  2.8447
  561MOL0     H74002   3.440   7.002   6.684  1.0795  1.8969 -0.4355
  561MOL0     H74003   3.226   7.134   6.853 -1.0328  0.9536 -1.5256
  561MOL0     H74004   3.225   6.965   6.824  2.1645 -0.5137  1.6670
  561MOL0     H74005   3.219   7.296   6.637  1.6886  0.6678 -1.0670
  561MOL0     H74006   2.958   7.263   6.340 -0.6116 -1.2328  0.9433
  561MOL0     H74007   3.115   7.356   6.357  1.2246 -1.0739  2.0657
  561MOL0     H74008   3.018   7.470   6.546  0.4231 -1.7995  0.6916
  561MOL0     H74009   2.870   7.362   6.536 -0.4069 -1.6295 -1.1113
  561MOL0     H74010   2.832   7.597   6.464  2.1514  1.3626 -0.1433
  561MOL0     H74011   2.961   7.591   6.362  0.7302 -0.6032  1.2427
  561MOL0     H74012   2.855   7.442   6.203  0.1016  1.3217 -0.6172
  561MOL0     H74013   2.747   7.576   6.256 -2.7174 -1.3933  1.2303
  561MOL0     H74014   2.636   7.136   6.258 -0.0174 -0.2871 -0.1126
  561MOL0     H74015   2.485   7.068   6.096  2.2282  0.2286 -0.5267
  561MOL0     H74016   1.950   7.415   5.929  1.1097  2.8223 -0.9969
  561MOL0     H74017   1.780   7.373   5.758 -0.0056  0.9412 -0.8484
  561MOL0     H74018   1.661   7.239   5.415 -2.6626 -0.8794  1.5125
  561MOL0     H74019   1.650   7.320   5.556 -1.6938 -1.7499 -0.8394
  561MOL0     H74020   1.560   7.165   5.674  1.3430 -1.4881  1.4697
  561MOL0     H74021   1.700   7.060   5.651 -1.5466 -1.2301  1.7735
  561MOL0     H74022   1.510   6.948   5.577 -0.3508  1.6493  2.0128
  561MOL0     H74023   1.616   6.983   5.433 -0.0287 -1.2158  1.9263
  561MOL0     H74024   1.346   7.123   5.509  0.1324  4.1529 -2.3918
  561MOL0     H74025   1.446   7.179   5.376 -0.7671 -0.0895  0.5726
  561MOL0     H74026   1.285   6.934   5.403 -0.2278 -0.8699 -0.4859
  561MOL0     H74027   1.421   6.913   5.303 -0.8026 -0.2546  0.2289
  561MOL0     H74028   1.367   7.081   5.150 -0.4815  1.8485 -0.0495
  561MOL0     H74029   1.245   7.151   5.251 -0.0119  0.2854 -0.0624
  561MOL0     H74030   1.217   6.852   5.173 -4.1162 -0.5597 -1.9621
  561MOL0     H74031   1.114   6.954   5.265 -0.3725  0.1976  1.3630
  561MOL0     H74032   1.040   6.949   5.007 -1.2468  1.9446 -2.6247
  561MOL0     H74033   1.202   6.964   4.955 -2.6646 -1.1069 -2.1083
  561MOL0     H74034   2.073   7.132   5.544  0.4728  1.1871 -0.5630
  561MOL0     H74035   2.232   7.188   5.699 -0.8061 -1.6429  0.2414
  561MOL0     H74036   2.390   7.479   6.009  1.3603 -0.6152 -1.9703
  561MOL0     H74037   2.552   7.554   6.189  1.0060 -0.6233 -1.8485
  561MOL0     H74038   4.336   7.084   6.778  1.7597 -0.7889  1.1950
  561MOL0     H74039   4.558   7.122   6.795  1.8659  0.5714  0.1422
  561MOL0     H74040   4.902   7.230   6.745  1.3292 -1.4004 -1.3094
  561MOL0     H74041   5.170   7.260   6.778  0.5672 -1.2381  1.7153
  561MOL0     H74042   5.305   7.439   7.141 -0.8898 -0.1106 -0.2539
  561MOL0     H74043   5.315   7.577   7.026  0.8987 -0.9044 -4.3228
  561MOL0     H74044   5.520   7.351   7.077 -1.8394 -0.7904 -0.4716
  561MOL0     H74045   5.532   7.461   6.941  1.8575 -2.8397  0.2862
  561MOL0     H74046   5.514   7.582   7.221 -1.0921  0.0837 -0.3380
  561MOL0     H74047   5.570   7.652   7.070  1.8391 -0.6596 -2.9066
  561MOL0     H74048   5.761   7.584   7.203 -0.1697  1.4616 -1.4578
  561MOL0     H74049   5.707   7.417   7.218 -0.3437 -0.4915 -0.0610
  561MOL0     H74050   5.870   7.440   6.829 -1.0989 -1.1375 -0.9882
  561MOL0     H74051   5.085   7.514   7.105  1.0493  1.9649 -1.4955
  561MOL0     H74052   4.854   7.542   7.046 -0.8545  0.0611 -0.1055
  562MOL0     O74053  11.229   3.444   9.902 -0.0513  0.0532  0.0425
  562MOL0     C74054  11.244   3.474   9.788 -0.4292  0.2820  0.3901
  562MOL0     O74055  11.142   3.508   9.703  0.4086 -0.2867 -0.1701
  562MOL0     C74056  11.012   3.503   9.749 -0.2706  0.6000  0.3319
  562MOL0     C74057  10.914   3.421   9.680 -0.2086 -0.2572  0.9667
  562MOL0     C74058  10.788   3.412   9.743 -1.1438 -0.7870  0.5298
  562MOL0     C74059  10.749   3.495   9.849  0.4901 -0.6772  0.2672
  562MOL0     O74060  10.617   3.499   9.897  0.0652  0.1231 -0.6662
  562MOL0     C74061  10.501   3.494   9.814  0.1763  0.9752 -0.5655
  562MOL0     C74062  10.398   3.594   9.872  0.2714  0.3528  0.3330
  562MOL0     C74063  10.361   3.560  10.017 -0.2264 -0.3211  0.4411
  562MOL0     C74064  10.228   3.631  10.067  0.1306  0.3371 -0.4042
  562MOL0     C74065  10.185   3.602  10.213 -0.3613 -0.7353 -0.0099
  562MOL0     C74066  10.066   3.687  10.246  0.1469  0.5358 -0.1548
  562MOL0     C74067  10.032   3.688  10.399  0.8504  0.4006  0.1552
  562MOL0     C74068   9.897   3.724  10.423  0.6636  0.2471 -0.2258
  562MOL0     N74069   9.805   3.619  10.387 -0.4012 -0.0787  0.3298
  562MOL0     C74070   9.720   3.637  10.282  0.5590  0.7539  1.0000
  562MOL0     C74071   9.621   3.545  10.311  0.4919 -0.7509  0.2460
  562MOL0     C74072   9.500   3.498  10.228 -0.1844 -0.5124  0.8234
  562MOL0     C74073   9.368   3.578  10.243  0.3605  0.7403 -0.5700
  562MOL0     C74074   9.325   3.571  10.393  0.3129  0.5277 -0.7695
  562MOL0     C74075   9.187   3.595  10.425  0.8804 -0.6431  0.2511
  562MOL0     O74076   9.154   3.723  10.367 -0.2610  0.8908 -0.4883
  562MOL0     C74077   9.070   3.816  10.429 -0.0226 -0.4677 -0.2223
  562MOL0     C74078   8.999   3.886  10.337  0.2857 -0.3765  0.5876
  562MOL0     C74079   8.893   3.965  10.388  0.8405  0.2550  0.1231
  562MOL0     C74080   8.875   3.978  10.529  0.0232 -0.1218 -0.3289
  562MOL0     C74081   8.766   4.056  10.580  0.0591 -0.4096 -0.2153
  562MOL0     O74082   8.690   4.117  10.482 -0.2908  0.4058  0.2708
  562MOL0     C74083   8.585   4.191  10.515 -0.0676 -0.7236  0.3052
  562MOL0     C74084   8.470   4.127  10.559 -0.5203 -0.0173  0.3026
  562MOL0     C74085   8.347   4.200  10.565 -0.0534  0.0492  0.6460
  562MOL0     C74086   8.344   4.339  10.538  0.6908 -0.6995 -0.8184
  562MOL0     O74087   8.230   4.416  10.540  0.5780 -0.5056 -0.5567
  562MOL0     C74088   8.109   4.389  10.608  0.6921 -0.6345  0.2693
  562MOL0     C74089   7.996   4.478  10.551 -0.3058  0.3245 -0.1786
  562MOL0     C74090   7.868   4.454  10.627 -0.3442  1.3518  0.4455
  562MOL0     C74091   7.745   4.511  10.564 -0.6489 -0.7027  0.5718
  562MOL0     C74092   7.646   4.575  10.669  0.5219 -0.6232  0.3201
  562MOL0     C74093   7.506   4.585  10.603 -1.0421 -0.3502  0.7693
  562MOL0     C74094   7.390   4.618  10.701 -0.8688 -0.1341  0.4979
  562MOL0     C74095   7.254   4.583  10.632 -0.1329  0.1267  0.5390
  562MOL0    Cl74096   7.191   4.415  10.668  0.3568 -0.6577  0.1042
  562MOL0     C74097   8.467   4.406  10.508 -0.3114  0.4681  0.5591
  562MOL0     C74098   8.586   4.332  10.501  0.4977 -0.8203 -0.6383
  562MOL0     O74099   8.739   4.057  10.700 -0.0852  0.2901  0.8781
  562MOL0     C74100   8.950   3.906  10.624 -0.4872  0.4927  0.4466
  562MOL0     C74101   9.052   3.829  10.570  0.2026 -0.2382  0.8295
  562MOL0     N74102   9.651   3.474  10.424 -0.6030 -0.5897  0.1564
  562MOL0     N74103   9.763   3.527  10.473  0.6378  0.2318 -0.1981
  562MOL0     C74104  10.838   3.589   9.893  0.2016 -0.2794 -1.0057
  562MOL0     C74105  10.969   3.587   9.852 -0.0905  0.3399 -0.7012
  562MOL0     C74106  11.379   3.480   9.737 -0.1506  0.5052 -0.0301
  562MOL0     C74107  11.404   3.501   9.597  0.4786 -0.1269 -1.5912
  562MOL0     C74108  11.540   3.496   9.550  0.2281 -0.5081  0.1679
  562MOL0     C74109  11.652   3.451   9.624  0.6188  0.2790 -0.3852
  562MOL0     O74110  11.771   3.451   9.558 -0.8239  1.0081  0.7685
  562MOL0     C74111  11.889   3.433   9.627  0.2421 -0.3978  0.4342
  562MOL0     C74112  12.009   3.390   9.531  0.3619 -0.2276  0.6433
  562MOL0     C74113  12.140   3.441   9.595 -0.0114  0.2965  0.3943
  562MOL0     C74114  12.263   3.396   9.523  0.5470  0.6169  0.7808
  562MOL0     C74115  12.370   3.415   9.611  0.3086 -0.5404  0.4652
  562MOL0     C74116  12.470   3.423   9.681 -0.0728 -1.0110  0.0739
  562MOL0     C74117  11.621   3.408   9.756  0.3365 -0.1813  1.0541
  562MOL0     C74118  11.482   3.432   9.817  0.7252  0.0620  0.2996
  562MOL0     H74119  10.959   3.366   9.598 -0.8892  0.8426 -0.1865
  562MOL0     H74120  10.709   3.348   9.705 -2.3307  0.6351  0.5306
  562MOL0     H74121  10.461   3.392   9.818  0.4265  0.9045  1.5659
  562MOL0     H74122  10.514   3.512   9.707  2.4154  0.0466 -0.5240
  562MOL0     H74123  10.315   3.588   9.801  1.2478 -0.5001 -0.7786
  562MOL0     H74124  10.433   3.697   9.862 -0.6103  0.5583 -0.7654
  562MOL0     H74125  10.443   3.587  10.083 -1.1248  0.4251  1.2912
  562MOL0     H74126  10.357   3.451  10.019 -0.3451 -0.3150  0.5390
  562MOL0     H74127  10.221   3.738  10.046 -2.4763  0.0086 -1.5593
  562MOL0     H74128  10.158   3.584   9.997 -0.2674  1.8812 -1.0881
  562MOL0     H74129  10.268   3.632  10.277 -1.2458 -1.5117  1.5673
  562MOL0     H74130  10.179   3.494  10.234 -0.4577 -0.6444  0.4329
  562MOL0     H74131   9.983   3.663  10.178  0.6315  0.2931 -0.6800
  562MOL0     H74132  10.097   3.789  10.224  1.4166  0.4531  1.1286
  562MOL0     H74133  10.031   3.584  10.435 -3.8007  1.5223  4.1743
  562MOL0     H74134  10.107   3.740  10.460  0.1699 -1.0627  2.3941
  562MOL0     H74135   9.883   3.819  10.371 -0.8055  2.2415  3.4094
  562MOL0     H74136   9.891   3.739  10.531 -0.5672 -1.3162 -0.0459
  562MOL0     H74137   9.734   3.695  10.192  2.2325 -0.4020  0.4520
  562MOL0     H74138   9.481   3.391  10.246 -0.7753 -0.3614  1.1165
  562MOL0     H74139   9.534   3.504  10.125  0.3447 -1.4456  0.9276
  562MOL0     H74140   9.292   3.541  10.173 -1.7975  1.9033  1.0192
  562MOL0     H74141   9.386   3.685  10.231 -0.7620  0.9665 -0.3813
  562MOL0     H74142   9.353   3.470  10.423 -1.8606  0.1216  0.0805
  562MOL0     H74143   9.387   3.633  10.459  0.0269 -1.8581  1.9645
  562MOL0     H74144   9.176   3.587  10.534  1.8380  1.9052  0.6074
  562MOL0     H74145   9.116   3.524  10.382  1.8480  0.1684 -2.9549
  562MOL0     H74146   9.021   3.864  10.234  2.0689 -0.8824  1.0535
  562MOL0     H74147   8.821   4.001  10.315  0.5316  1.9417  1.1954
  562MOL0     H74148   8.475   4.020  10.574  2.9537  0.2041  1.4789
  562MOL0     H74149   8.254   4.159  10.605 -0.6964  2.3550  1.6841
  562MOL0     H74150   8.116   4.413  10.714  0.1082  0.1621  0.1398
  562MOL0     H74151   8.083   4.286  10.582  0.6240 -0.2706 -1.2233
  562MOL0     H74152   7.985   4.456  10.445  2.3532  0.6699 -0.5702
  562MOL0     H74153   8.028   4.581  10.568  1.8104 -0.2395 -0.4987
  562MOL0     H74154   7.892   4.494  10.726 -0.1206  0.6806  0.6661
  562MOL0     H74155   7.850   4.348  10.643  1.6511  0.5588 -1.9074
  562MOL0     H74156   7.756   4.588  10.487 -3.0852 -1.1160 -0.2482
  562MOL0     H74157   7.697   4.428  10.513  1.6761 -2.3395  0.8905
  562MOL0     H74158   7.674   4.679  10.688 -0.4634 -0.4731  1.0128
  562MOL0     H74159   7.644   4.520  10.763  0.2965 -0.6193  0.3177
  562MOL0     H74160   7.492   4.487  10.555  0.4241 -0.2959  0.1666
  562MOL0     H74161   7.504   4.666  10.529  0.5319 -0.0733  1.0057
  562MOL0     H74162   7.397   4.567  10.797 -0.7691  1.9529  1.6525
  562MOL0     H74163   7.397   4.726  10.720  0.4216 -0.2391  0.7144
  562MOL0     H74164   7.250   4.607  10.525  1.4287 -1.4717  0.0698
  562MOL0     H74165   7.177   4.643  10.680 -0.5822  0.2019 -0.2543
  562MOL0     H74166   8.467   4.512  10.488 -0.7970  0.2665 -0.5853
  562MOL0     H74167   8.681   4.377  10.472 -0.0633  0.5684 -0.3930
  562MOL0     H74168   8.938   3.912  10.731 -0.7572 -1.3018  0.5382
  562MOL0     H74169   9.108   3.772  10.643 -1.5980 -0.1766  2.3302
  562MOL0     H74170  10.810   3.652   9.977  1.0992  1.1364 -1.7382
  562MOL0     H74171  11.031   3.664   9.898  0.2743  0.6023 -1.6152
  562MOL0     H74172  11.319   3.530   9.536  0.8276  0.5803 -1.7502
  562MOL0     H74173  11.539   3.522   9.445  0.1891 -0.0116  0.2890
  562MOL0     H74174  11.878   3.355   9.703  3.4912 -1.5373 -0.1202
  562MOL0     H74175  11.908   3.530   9.673 -0.7188  0.1990 -0.3650
  562MOL0     H74176  12.009   3.282   9.516 -1.9010  0.0900 -2.4521
  562MOL0     H74177  12.001   3.449   9.440 -0.9111 -0.5743  0.5196
  562MOL0     H74178  12.149   3.403   9.696 -0.3525 -1.0721 -0.0752
  562MOL0     H74179  12.144   3.550   9.606  0.1693  0.4017 -0.5751
  562MOL0     H74180  12.255   3.290   9.498  1.4983  0.3469  1.5263
  562MOL0     H74181  12.283   3.463   9.439  0.9955  1.0842  1.2493
  562MOL0     H74182  12.560   3.431   9.738  0.0112 -0.7544 -0.0946
  562MOL0     H74183  11.705   3.373   9.815  2.8066  1.1592 -1.3977
  562MOL0     H74184  11.465   3.395   9.917 -1.5931 -1.5524 -0.6087
  563MOL0     O74185   5.057   5.041  10.070  0.4813  0.0746 -0.2897
  563MOL0     C74186   4.946   4.995  10.039 -0.5155  0.6779  0.5193
  563MOL0     O74187   4.823   5.054  10.062  0.8822  0.1376 -0.4533
  563MOL0     C74188   4.814   5.168  10.139 -0.7899  0.1257  0.0770
  563MOL0     C74189   4.896   5.284  10.112  0.5464  0.1731  0.2960
  563MOL0     C74190   4.863   5.404  10.181  0.0790 -0.2437 -0.6764
  563MOL0     C74191   4.758   5.410  10.271 -0.6892  0.1588  0.6490
  563MOL0     O74192   4.712   5.513  10.351  0.4734 -0.4095  0.7922
  563MOL0     C74193   4.792   5.636  10.361 -0.2070  0.6339 -0.3410
  563MOL0     C74194   4.765   5.732  10.257  0.6999 -0.0018 -0.4371
  563MOL0     C74195   4.626   5.787  10.282  0.9174 -0.3615 -0.2198
  563MOL0     C74196   4.577   5.898  10.174 -0.3275 -0.2585 -0.1587
  563MOL0     C74197   4.648   6.032  10.193  0.1775 -0.1130 -0.1418
  563MOL0     C74198   4.611   6.079  10.345 -0.0632  0.0194 -0.7431
  563MOL0     C74199   4.638   6.231  10.363  0.4407 -0.4803 -0.1570
  563MOL0     C74200   4.589   6.285  10.497 -0.9895 -0.0430  0.8235
  563MOL0     N74201   4.659   6.409  10.536  0.2691 -0.4985  0.3963
  563MOL0     C74202   4.580   6.515  10.581  0.0538  0.1836 -0.5001
  563MOL0     C74203   4.670   6.614  10.578 -0.5253 -0.5210  0.1183
  563MOL0     C74204   4.643   6.759  10.625  0.1078  0.5622  0.0749
  563MOL0     C74205   4.737   6.790  10.741  0.4678  0.1978 -0.6410
  563MOL0     C74206   4.706   6.921  10.784  0.5473 -0.1955 -0.7573
  563MOL0     C74207   4.779   6.977  10.907  0.5275 -0.6517  0.2798
  563MOL0     O74208   4.692   7.091  10.939  0.4188 -0.5206  0.0750
  563MOL0     C74209   4.724   7.177  11.045 -0.2796  0.0022  0.0736
  563MOL0     C74210   4.818   7.144  11.144  0.4450 -0.4181  0.3839
  563MOL0     C74211   4.839   7.228  11.251 -0.3303  0.2029  0.0602
  563MOL0     C74212   4.790   7.357  11.250 -0.3521  0.5450 -0.4235
  563MOL0     C74213   4.825   7.439  11.366  0.5569  0.1553  0.6085
  563MOL0     O74214   4.945   7.413  11.435  0.6305 -0.0244  0.4574
  563MOL0     C74215   4.984   7.501  11.538  0.8357 -0.1105  0.4743
  563MOL0     C74216   4.998   7.639  11.529  0.0180 -0.7770 -0.0324
  563MOL0     C74217   5.041   7.713  11.644  0.5444 -0.1846 -0.2042
  563MOL0     C74218   5.068   7.647  11.769  0.1008 -0.2028 -0.5453
  563MOL0     O74219   5.111   7.713  11.887 -0.5665  0.0309 -0.2292
  563MOL0     C74220   5.158   7.851  11.876 -0.0072  0.5653  0.3207
  563MOL0     C74221   5.038   7.924  11.936  0.3409  0.5444  0.5223
  563MOL0     C74222   4.919   7.930  11.840  0.7063 -0.2955  0.3320
  563MOL0     C74223   4.808   8.005  11.914  0.7055  0.4909  0.1765
  563MOL0     C74224   4.683   7.991  11.825 -1.4561  0.7076  0.0530
  563MOL0     C74225   4.697   8.072  11.691 -0.1732  0.0044 -0.7178
  563MOL0     C74226   4.578   8.055  11.598 -0.4992 -0.0923  0.3500
  563MOL0     C74227   4.448   8.136  11.635 -0.7008 -0.1313 -0.1862
  563MOL0    Cl74228   4.489   8.310  11.614 -0.3827  0.1774 -0.1837
  563MOL0     C74229   5.049   7.509  11.774 -0.1566 -0.4046 -1.0262
  563MOL0     C74230   5.016   7.444  11.658  0.6503  0.2648 -0.1565
  563MOL0     O74231   4.743   7.525  11.402 -0.0348 -0.3486 -0.0763
  563MOL0     C74232   4.691   7.389  11.160 -0.3462  0.3550  1.4062
  563MOL0     C74233   4.652   7.294  11.059 -0.2634 -0.7916  0.0454
  563MOL0     N74234   4.785   6.582  10.510 -0.4314 -0.1235 -0.2140
  563MOL0     N74235   4.773   6.458  10.490  0.2456 -0.0685  0.2606
  563MOL0     C74236   4.675   5.306  10.293  0.1118 -0.2277 -0.3715
  563MOL0     C74237   4.701   5.189  10.222  1.1644  0.1342 -0.6394
  563MOL0     C74238   4.953   4.879   9.954  0.3343  0.3815  0.0677
  563MOL0     C74239   5.041   4.780   9.996  0.2049  0.4281 -0.6288
  563MOL0     C74240   5.040   4.657   9.929  0.8670  0.2433 -1.1226
  563MOL0     C74241   4.950   4.629   9.821 -0.6605 -0.2675 -0.5396
  563MOL0     O74242   4.933   4.515   9.751  0.1238  0.1753  0.4076
  563MOL0     C74243   5.031   4.419   9.792 -0.3402  0.2095 -0.1520
  563MOL0     C74244   5.012   4.282   9.715  0.3023 -0.7135  0.6965
  563MOL0     C74245   5.062   4.283   9.569 -0.4209  0.3715 -0.8099
  563MOL0     C74246   5.105   4.155   9.509 -0.6497 -1.0291 -0.1151
  563MOL0     C74247   5.012   4.049   9.532 -1.2187 -0.6150  0.6931
  563MOL0     C74248   4.930   3.962   9.549 -0.6566 -0.6786 -1.2382
  563MOL0     C74249   4.870   4.730   9.786 -0.0090  0.8018  0.7936
  563MOL0     C74250   4.864   4.857   9.844  0.4423  0.0467  0.1652
  563MOL0     H74251   4.974   5.278  10.037 -0.2821  1.8715 -0.7331
  563MOL0     H74252   4.937   5.482  10.170 -1.6164  1.5813  0.0553
  563MOL0     H74253   4.899   5.615  10.368 -0.3237  0.6640  3.0274
  563MOL0     H74254   4.776   5.673  10.463  4.3180 -2.1199  1.6729
  563MOL0     H74255   4.785   5.697  10.155  1.3761 -0.2330 -0.2305
  563MOL0     H74256   4.826   5.820  10.276  1.0716 -0.3620  0.0647
  563MOL0     H74257   4.612   5.820  10.385  1.7557 -3.5023  1.0328
  563MOL0     H74258   4.556   5.704  10.269 -1.2304  0.8906  2.3503
  563MOL0     H74259   4.597   5.873  10.069  0.7010  2.2394 -0.6330
  563MOL0     H74260   4.469   5.913  10.180 -0.3490  0.0064 -1.0693
  563MOL0     H74261   4.611   6.108  10.124 -0.0407  0.8127  0.9794
  563MOL0     H74262   4.756   6.036  10.177  0.2075 -0.7446 -0.1372
  563MOL0     H74263   4.675   6.036  10.423 -0.6667  0.8923  0.2708
  563MOL0     H74264   4.504   6.065  10.361  0.3397 -1.1183  1.4255
  563MOL0     H74265   4.745   6.255  10.361  0.5836 -0.6549  2.2556
  563MOL0     H74266   4.591   6.285  10.281  0.1769  0.5688  0.6600
  563MOL0     H74267   4.593   6.211  10.577  1.9692 -3.7033 -2.3107
  563MOL0     H74268   4.486   6.320  10.484 -0.8964  0.4580  1.3867
  563MOL0     H74269   4.477   6.517  10.614  0.3023  0.1339  0.2861
  563MOL0     H74270   4.541   6.779  10.659  0.9514  2.5218  1.6591
  563MOL0     H74271   4.673   6.829  10.546 -1.3003 -1.0477 -1.9932
  563MOL0     H74272   4.841   6.777  10.710  0.7451  3.1376 -1.3029
  563MOL0     H74273   4.705   6.728  10.826 -0.7428  1.7827  0.1289
  563MOL0     H74274   4.742   6.979  10.699 -0.7917  0.5942 -0.8292
  563MOL0     H74275   4.598   6.940  10.788  0.5554  0.8880 -3.5633
  563MOL0     H74276   4.880   6.999  10.870 -0.3358  1.1293 -1.2164
  563MOL0     H74277   4.776   6.908  10.991 -2.4782  0.5420  1.2900
  563MOL0     H74278   4.854   7.041  11.146  1.6336 -0.2702 -3.6039
  563MOL0     H74279   4.907   7.187  11.325  1.8797  1.2831 -1.2771
  563MOL0     H74280   4.972   7.704  11.446  1.4150  1.7097  1.3400
  563MOL0     H74281   5.047   7.821  11.649 -0.2662 -0.1340 -0.0562
  563MOL0     H74282   5.204   7.873  11.779  0.9586 -2.9643 -0.1706
  563MOL0     H74283   5.244   7.868  11.942 -0.9077 -1.2220  2.0618
  563MOL0     H74284   5.074   8.026  11.954 -1.2344  1.2189  0.0662
  563MOL0     H74285   5.010   7.869  12.027  3.1987 -2.6127 -0.3102
  563MOL0     H74286   4.892   7.829  11.807  0.6391  0.1177 -0.9457
  563MOL0     H74287   4.937   7.996  11.755 -0.0234  0.1339  0.5030
  563MOL0     H74288   4.781   7.968  12.014  0.1042  0.1059 -0.1201
  563MOL0     H74289   4.833   8.111  11.927 -2.3296  1.3125  0.1306
  563MOL0     H74290   4.587   8.007  11.874 -2.9290  0.8268 -2.6815
  563MOL0     H74291   4.678   7.888  11.788 -0.1908  1.4105 -2.2385
  563MOL0     H74292   4.789   8.041  11.642  0.7809 -1.8366  1.9960
  563MOL0     H74293   4.709   8.179  11.710 -0.6050  0.4712 -2.8600
  563MOL0     H74294   4.596   8.093  11.497 -0.4626  0.1634  0.4530
  563MOL0     H74295   4.573   7.946  11.592  2.1928 -0.4774  2.7438
  563MOL0     H74296   4.418   8.112  11.737  1.6544 -2.3563  0.0741
  563MOL0     H74297   4.360   8.111  11.574  0.3789 -0.9927 -1.4371
  563MOL0     H74298   5.047   7.467  11.874  0.7110  0.3951 -0.6546
  563MOL0     H74299   4.994   7.339  11.676  0.2445  0.3425 -0.2039
  563MOL0     H74300   4.633   7.481  11.162  0.8523  1.2874 -1.3218
  563MOL0     H74301   4.565   7.320  10.998  2.1631  0.9861 -2.9854
  563MOL0     H74302   4.601   5.312  10.372  0.0109 -1.8139 -0.3273
  563MOL0     H74303   4.645   5.098  10.243 -0.3377  0.6500 -2.2224
  563MOL0     H74304   5.105   4.796  10.082  0.2236  0.2542 -0.6095
  563MOL0     H74305   5.105   4.579   9.969 -1.5194 -2.0048 -1.3821
  563MOL0     H74306   5.022   4.397   9.898  0.9828 -2.7817 -0.5724
  563MOL0     H74307   5.132   4.453   9.767 -0.3658 -1.7875 -3.6064
  563MOL0     H74308   5.058   4.197   9.766  1.9015 -0.1457  0.2603
  563MOL0     H74309   4.905   4.260   9.706  0.4798 -1.5177  0.4295
  563MOL0     H74310   5.143   4.356   9.556 -0.3291  0.6234  0.9706
  563MOL0     H74311   4.979   4.316   9.506 -2.2266 -1.1003  0.6819
  563MOL0     H74312   5.109   4.169   9.401 -0.3841  1.1712  0.1246
  563MOL0     H74313   5.197   4.109   9.544 -0.8444 -1.4474 -0.1553
  563MOL0     H74314   4.849   3.892   9.549 -2.9200  1.6522  2.3352
  563MOL0     H74315   4.811   4.710   9.697  0.6497  1.1890  0.2649
  563MOL0     H74316   4.791   4.934   9.820 -0.3818 -0.4352  1.0641
  564MOL0     O74317   0.420   4.422   3.779 -0.1505  0.2034 -0.7667
  564MOL0     C74318   0.450   4.357   3.679  0.2672 -0.9189 -0.1680
  564MOL0     O74319   0.366   4.263   3.615  0.0401 -0.0367  0.3792
  564MOL0     C74320   0.234   4.297   3.623 -0.0604  0.2876  0.6318
  564MOL0     C74321   0.147   4.228   3.703  0.0745  0.4848 -0.9136
  564MOL0     C74322   0.012   4.270   3.709  0.2585 -0.3631  0.6551
  564MOL0     C74323  -0.027   4.382   3.637  0.1584 -0.4502  0.4937
  564MOL0     O74324  -0.159   4.419   3.642  0.0914 -0.2786  0.6359
  564MOL0     C74325  -0.233   4.394   3.765  0.1782 -0.2394  0.4472
  564MOL0     C74326  -0.376   4.432   3.750 -0.6250  0.3906 -0.4878
  564MOL0     C74327  -0.447   4.376   3.631 -0.0060 -0.7662 -0.3644
  564MOL0     C74328  -0.593   4.427   3.620 -0.6081  0.2168 -0.8968
  564MOL0     C74329  -0.667   4.373   3.495 -0.1638  0.8381  0.1711
  564MOL0     C74330  -0.819   4.411   3.501  0.6561 -0.2537 -0.3937
  564MOL0     C74331  -0.892   4.364   3.367  0.0741 -0.4418  0.0503
  564MOL0     C74332  -0.870   4.466   3.254 -0.2680  0.7594  0.7756
  564MOL0     N74333  -0.908   4.600   3.283 -0.2998  0.5937  0.2504
  564MOL0     C74334  -1.036   4.637   3.313 -0.9018 -0.6041  0.0195
  564MOL0     C74335  -1.036   4.776   3.301  0.7985  0.0417  0.2653
  564MOL0     C74336  -1.169   4.855   3.320  0.1741 -0.1387  0.7567
  564MOL0     C74337  -1.255   4.840   3.201 -0.5222  0.2144  0.0534
  564MOL0     C74338  -1.376   4.926   3.223 -0.0282 -0.5671  0.8086
  564MOL0     C74339  -1.478   4.874   3.116 -1.4012 -0.1048 -0.0390
  564MOL0     O74340  -1.589   4.949   3.137  0.2009 -0.2215 -0.1359
  564MOL0     C74341  -1.692   4.933   3.053 -0.4710 -0.4489  0.1605
  564MOL0     C74342  -1.691   4.882   2.925 -0.0253 -0.1122 -0.1956
  564MOL0     C74343  -1.808   4.866   2.853  0.1799  0.3073  0.3014
  564MOL0     C74344  -1.935   4.914   2.900  0.0463 -0.0500  0.6323
  564MOL0     C74345  -2.057   4.912   2.825  0.9436  0.4001  0.0840
  564MOL0     O74346  -2.177   4.926   2.891  0.9609 -0.9542  0.0028
  564MOL0     C74347  -2.290   4.941   2.810  0.3181  0.3191  0.3576
  564MOL0     C74348  -2.349   4.824   2.752 -1.3871  0.3553  0.2308
  564MOL0     C74349  -2.447   4.836   2.660 -0.8043 -0.5231 -0.5118
  564MOL0     C74350  -2.494   4.965   2.622  0.2734  0.6895 -0.1801
  564MOL0     O74351  -2.609   4.979   2.546  0.3930 -0.2258 -0.5573
  564MOL0     C74352  -2.682   4.862   2.495  0.3499 -0.0291  0.7908
  564MOL0     C74353  -2.811   4.914   2.427  0.0950 -0.2301 -0.7052
  564MOL0     C74354  -2.773   4.958   2.286  0.2698 -0.2097  0.7795
  564MOL0     C74355  -2.903   4.992   2.211 -0.4457 -0.3527 -0.0564
  564MOL0     C74356  -2.874   5.089   2.093 -1.3242  0.4066 -0.5821
  564MOL0     C74357  -3.004   5.125   2.023  0.6220 -0.1512 -0.2890
  564MOL0     C74358  -2.987   5.249   1.929 -0.0512 -0.7300 -0.7625
  564MOL0     C74359  -3.119   5.328   1.909 -0.9255  0.0304  0.9398
  564MOL0    Cl74360  -3.262   5.219   1.868  0.5240  0.3563  0.3211
  564MOL0     C74361  -2.443   5.079   2.680  0.1967 -0.2676 -0.2612
  564MOL0     C74362  -2.334   5.070   2.775  0.1469 -1.1418  0.5737
  564MOL0     O74363  -2.052   4.909   2.701 -0.0863  0.8187 -0.2954
  564MOL0     C74364  -1.933   4.967   3.026 -1.6983  0.6580 -0.4779
  564MOL0     C74365  -1.813   4.969   3.105 -0.7753  0.2833 -0.4949
  564MOL0     N74366  -0.914   4.816   3.261  0.4468  0.3509 -0.3350
  564MOL0     N74367  -0.836   4.709   3.255  0.1049  0.2846  0.4714
  564MOL0     C74368   0.058   4.456   3.554 -0.5788 -0.2151  0.4365
  564MOL0     C74369   0.188   4.412   3.547 -0.9211  1.4376  0.0040
  564MOL0     C74370   0.595   4.337   3.649 -0.2814 -0.0364  0.2172
  564MOL0     C74371   0.624   4.258   3.536 -0.1572 -0.0807  0.6110
  564MOL0     C74372   0.759   4.205   3.519  0.3750  1.2650  0.2203
  564MOL0     C74373   0.866   4.256   3.597 -0.0081  0.2365  0.2679
  564MOL0     O74374   0.997   4.209   3.564 -0.1065 -0.4477  0.1700
  564MOL0     C74375   1.109   4.283   3.627 -0.6016  0.0576  0.0342
  564MOL0     C74376   1.236   4.189   3.613  0.1612  0.6167 -0.1476
  564MOL0     C74377   1.287   4.164   3.465  0.2669 -0.4715  0.3614
  564MOL0     C74378   1.424   4.234   3.415 -0.1224 -1.1765 -0.9619
  564MOL0     C74379   1.542   4.210   3.504  0.4588  0.3768  0.4057
  564MOL0     C74380   1.638   4.167   3.559  0.6464  0.6212 -0.5251
  564MOL0     C74381   0.835   4.355   3.693  0.4665  0.2227  0.0983
  564MOL0     C74382   0.703   4.392   3.717  0.1975 -0.0414  0.1580
  564MOL0     H74383   0.175   4.139   3.759 -1.0937  1.5216  1.4709
  564MOL0     H74384  -0.051   4.202   3.765 -1.3707  1.0321  0.5724
  564MOL0     H74385  -0.194   4.445   3.853 -0.2468 -0.0087  0.5032
  564MOL0     H74386  -0.224   4.292   3.805 -1.3387 -0.6051 -0.0731
  564MOL0     H74387  -0.380   4.542   3.746 -3.3097  0.3951  0.2936
  564MOL0     H74388  -0.420   4.399   3.844  2.7078  2.8949  2.1707
  564MOL0     H74389  -0.444   4.269   3.654  1.4407 -1.0967 -1.9198
  564MOL0     H74390  -0.385   4.402   3.544 -0.2627 -0.0247 -0.3353
  564MOL0     H74391  -0.650   4.386   3.703 -0.2421  0.7442 -0.3776
  564MOL0     H74392  -0.596   4.536   3.629  0.1172  0.1971 -0.2903
  564MOL0     H74393  -0.649   4.266   3.490 -0.3370  0.8443 -1.1687
  564MOL0     H74394  -0.618   4.416   3.407  0.3063  1.7733  0.8767
  564MOL0     H74395  -0.823   4.520   3.510 -0.0151 -0.0706 -2.5303
  564MOL0     H74396  -0.860   4.377   3.597  1.4862  1.0778  0.4847
  564MOL0     H74397  -0.854   4.267   3.334 -2.1170 -0.7043 -1.9732
  564MOL0     H74398  -1.000   4.352   3.380 -0.7382  3.8111 -1.0937
  564MOL0     H74399  -0.924   4.446   3.161  2.7134 -0.1636 -0.8835
  564MOL0     H74400  -0.766   4.458   3.221  0.0357 -2.2798  2.1535
  564MOL0     H74401  -1.118   4.568   3.322  0.8015 -2.9372 -1.2156
  564MOL0     H74402  -1.151   4.960   3.347 -1.8334  0.3692  0.2665
  564MOL0     H74403  -1.215   4.823   3.414 -0.0887 -1.0154  0.3331
  564MOL0     H74404  -1.283   4.734   3.202 -1.8431  0.5384 -0.4484
  564MOL0     H74405  -1.189   4.868   3.118  0.1060  1.3697  0.9130
  564MOL0     H74406  -1.423   4.922   3.322 -1.2233  2.7560  0.5107
  564MOL0     H74407  -1.348   5.028   3.196 -0.1227 -0.6845  0.2505
  564MOL0     H74408  -1.498   4.767   3.120 -1.0144 -0.1752  0.1441
  564MOL0     H74409  -1.436   4.894   3.017 -0.7537 -1.3584 -0.0329
  564MOL0     H74410  -1.595   4.862   2.878 -1.0314  0.6470 -2.7283
  564MOL0     H74411  -1.802   4.822   2.753 -0.4212  2.8548 -0.9424
  564MOL0     H74412  -2.302   4.734   2.790  0.6400  1.2463 -0.0433
  564MOL0     H74413  -2.486   4.746   2.613  0.7095 -0.6143 -1.6354
  564MOL0     H74414  -2.709   4.789   2.573 -1.3235 -0.2564  0.0475
  564MOL0     H74415  -2.608   4.811   2.433  0.4994  0.4683  0.5627
  564MOL0     H74416  -2.859   4.995   2.483 -2.1491 -0.4245 -2.1650
  564MOL0     H74417  -2.891   4.839   2.423  0.6315 -0.8386 -0.2234
  564MOL0     H74418  -2.709   4.882   2.242 -0.7342  0.0187 -1.2275
  564MOL0     H74419  -2.719   5.053   2.292 -2.4337  1.3892  1.9636
  564MOL0     H74420  -2.950   4.901   2.172  0.0635  0.9538 -4.2209
  564MOL0     H74421  -2.979   5.040   2.274 -2.2786 -0.2064 -2.2417
  564MOL0     H74422  -2.807   5.043   2.019 -2.2471 -1.2575 -0.4318
  564MOL0     H74423  -2.837   5.178   2.144  2.4194 -2.1313  1.6366
  564MOL0     H74424  -3.084   5.156   2.091  0.5408 -1.1109  0.0765
  564MOL0     H74425  -3.033   5.035   1.968 -0.1150 -0.9616  1.3347
  564MOL0     H74426  -2.920   5.319   1.979  1.1282 -1.4229 -1.3372
  564MOL0     H74427  -2.952   5.213   1.831  0.8754  1.5776 -1.3373
  564MOL0     H74428  -3.117   5.403   1.830  0.5819  0.8231  1.6726
  564MOL0     H74429  -3.127   5.387   2.001  0.4160  1.7225  0.0346
  564MOL0     H74430  -2.482   5.176   2.648 -0.3240 -0.6843 -0.9300
  564MOL0     H74431  -2.294   5.166   2.808  2.0296 -0.8255 -2.1788
  564MOL0     H74432  -2.019   5.007   3.079 -2.2984 -0.3233 -0.6830
  564MOL0     H74433  -1.815   4.993   3.210  1.8177  0.3268 -0.3882
  564MOL0     H74434   0.022   4.539   3.494 -0.2594 -0.7196 -0.4707
  564MOL0     H74435   0.261   4.452   3.477  2.8763 -1.6964  1.8286
  564MOL0     H74436   0.555   4.235   3.456 -1.6441 -0.4316  1.9554
  564MOL0     H74437   0.774   4.143   3.431  1.4929  0.9030  0.6452
  564MOL0     H74438   1.086   4.316   3.729 -1.3457 -2.1247  0.6488
  564MOL0     H74439   1.131   4.367   3.560  0.1739 -0.7495 -0.7517
  564MOL0     H74440   1.306   4.234   3.684  0.3068 -1.5447  1.1635
  564MOL0     H74441   1.227   4.093   3.665  3.1902  1.4968  2.3412
  564MOL0     H74442   1.213   4.189   3.388  2.1215  0.0377 -1.3222
  564MOL0     H74443   1.301   4.056   3.455 -2.0682 -0.8088  0.1987
  564MOL0     H74444   1.446   4.190   3.317  1.7743 -3.2530  0.3117
  564MOL0     H74445   1.405   4.341   3.408 -1.2096 -1.3398 -0.7127
  564MOL0     H74446   1.735   4.138   3.594  0.0538  1.3402  1.9670
  564MOL0     H74447   0.914   4.406   3.746  1.4371 -0.8508 -0.2537
  564MOL0     H74448   0.681   4.467   3.792  1.2640  0.0237  0.4174
  565MOL0     O74449  10.672   2.879   7.409 -0.6229 -0.3606 -0.3275
  565MOL0     C74450  10.723   2.833   7.307 -0.5408 -1.3689 -0.3360
  565MOL0     O74451  10.667   2.745   7.218  0.3185 -0.0315 -0.2526
  565MOL0     C74452  10.528   2.723   7.241 -0.3635 -0.1738  0.5950
  565MOL0     C74453  10.477   2.619   7.318 -0.6739 -0.4969  0.0515
  565MOL0     C74454  10.342   2.603   7.338  0.5661 -0.3273 -1.1401
  565MOL0     C74455  10.255   2.704   7.302  0.0449  0.6364  0.2236
  565MOL0     O74456  10.127   2.687   7.349 -0.4518  0.0454 -0.2028
  565MOL0     C74457  10.032   2.778   7.296  0.1148 -0.0424  0.3129
  565MOL0     C74458   9.894   2.751   7.351  0.4580 -0.4612 -0.5693
  565MOL0     C74459   9.806   2.876   7.356  0.2343  0.0028 -0.4950
  565MOL0     C74460   9.656   2.838   7.384  0.7118 -0.0612  0.6037
  565MOL0     C74461   9.568   2.963   7.358 -0.5765  0.3808 -1.0346
  565MOL0     C74462   9.435   2.918   7.312  0.3411  0.0061 -0.2697
  565MOL0     C74463   9.316   2.989   7.385  0.3565 -0.0264 -0.1994
  565MOL0     C74464   9.182   2.933   7.333 -0.2177 -0.3310  0.2861
  565MOL0     N74465   9.073   3.018   7.387 -0.7644 -0.2754  0.8713
  565MOL0     C74466   9.029   3.126   7.326  0.0089 -0.2385 -0.2219
  565MOL0     C74467   8.921   3.161   7.409  0.0324  0.2055 -0.0742
  565MOL0     C74468   8.831   3.280   7.391 -0.0560  0.4951 -1.1265
  565MOL0     C74469   8.686   3.264   7.452 -1.7496 -0.1016 -0.0386
  565MOL0     C74470   8.611   3.161   7.360 -0.5743  1.0443 -0.4399
  565MOL0     C74471   8.513   3.086   7.458 -0.2222  0.7942 -0.2623
  565MOL0     O74472   8.411   3.179   7.494  0.1222 -0.4299 -0.4114
  565MOL0     C74473   8.279   3.150   7.476  0.2887  0.0521 -0.3178
  565MOL0     C74474   8.188   3.217   7.563  0.1268 -0.4071 -0.3119
  565MOL0     C74475   8.046   3.188   7.559 -0.4973 -0.0416  0.0326
  565MOL0     C74476   7.999   3.105   7.460  0.1930  0.7754 -0.5460
  565MOL0     C74477   7.846   3.065   7.456 -0.7904  0.1830 -0.6472
  565MOL0     O74478   7.763   3.148   7.521  0.2864  1.4082 -0.4480
  565MOL0     C74479   7.628   3.130   7.492 -0.0675  0.1346 -0.1959
  565MOL0     C74480   7.551   3.191   7.395 -0.5870 -0.2160  0.2785
  565MOL0     C74481   7.413   3.163   7.373 -0.5261 -0.5268 -0.1569
  565MOL0     C74482   7.344   3.082   7.464  0.0661  0.2674  0.6862
  565MOL0     O74483   7.213   3.054   7.458 -0.3237  0.2543  0.1539
  565MOL0     C74484   7.141   3.129   7.370 -0.1242 -0.5922  0.4186
  565MOL0     C74485   6.987   3.100   7.374  0.7961  0.4334 -0.3442
  565MOL0     C74486   6.905   3.202   7.298  0.9944  0.7859 -0.8981
  565MOL0     C74487   6.758   3.166   7.293  0.1723 -0.3569  0.4310
  565MOL0     C74488   6.674   3.259   7.223  0.6946 -0.1492 -0.0917
  565MOL0     C74489   6.694   3.266   7.069  0.0369 -0.0933 -0.5246
  565MOL0     C74490   6.649   3.387   7.001 -0.5903  0.2302 -0.5069
  565MOL0     C74491   6.645   3.382   6.842  0.2786  0.1449 -0.5999
  565MOL0    Cl74492   6.553   3.247   6.773  0.1197 -0.0480 -0.1077
  565MOL0     C74493   7.423   3.027   7.567  0.3757 -0.1645  0.2111
  565MOL0     C74494   7.559   3.048   7.581  0.0773 -0.7994  0.0153
  565MOL0     O74495   7.817   2.970   7.398  0.1858 -0.5411 -0.0914
  565MOL0     C74496   8.089   3.047   7.364 -0.2804  0.2722 -0.4205
  565MOL0     C74497   8.225   3.067   7.377 -0.0942  1.1718 -0.0754
  565MOL0     N74498   8.922   3.073   7.519 -0.0423 -0.0280  0.1470
  565MOL0     N74499   9.016   2.990   7.502  0.4737  0.2495 -0.3290
  565MOL0     C74500  10.305   2.810   7.233  0.3201  0.4654 -0.8269
  565MOL0     C74501  10.438   2.817   7.193 -0.2972  0.0225 -0.0619
  565MOL0     C74502  10.864   2.865   7.282  0.2031  0.8310  0.4004
  565MOL0     C74503  10.943   2.911   7.382  0.1839 -0.0149  0.0430
  565MOL0     C74504  11.083   2.947   7.358  0.9088  0.6199  0.0389
  565MOL0     C74505  11.135   2.924   7.231 -0.6472 -0.7660  0.2300
  565MOL0     O74506  11.270   2.962   7.209 -0.0460 -0.1744 -0.1650
  565MOL0     C74507  11.347   2.919   7.098 -0.3691  0.1051 -0.9740
  565MOL0     C74508  11.500   2.944   7.132  0.6018 -0.0134 -0.0261
  565MOL0     C74509  11.599   2.947   7.009  0.5423  0.3072 -0.5872
  565MOL0     C74510  11.629   2.796   6.987  0.5359  0.7523  0.8487
  565MOL0     C74511  11.696   2.778   6.862 -0.3292  0.3746  0.4232
  565MOL0     C74512  11.754   2.790   6.755  0.3775  0.0875 -0.0106
  565MOL0     C74513  11.049   2.875   7.124 -0.4703  0.3714 -0.1462
  565MOL0     C74514  10.923   2.837   7.151  0.6328  0.2542 -0.9008
  565MOL0     H74515  10.549   2.547   7.353 -1.2720 -0.6132  1.0886
  565MOL0     H74516  10.292   2.531   7.401 -0.5849  1.5658  0.2094
  565MOL0     H74517  10.028   2.780   7.187  2.3740  4.6237  0.0823
  565MOL0     H74518  10.049   2.884   7.318  0.4448 -0.2133  0.9055
  565MOL0     H74519   9.900   2.720   7.456  0.7178 -0.6448 -0.6387
  565MOL0     H74520   9.847   2.670   7.295 -1.7105 -0.1891  0.7255
  565MOL0     H74521   9.819   2.920   7.257  2.4216 -1.6342 -0.9996
  565MOL0     H74522   9.845   2.948   7.429 -3.6226 -0.1404  2.0260
  565MOL0     H74523   9.630   2.756   7.316  4.0866 -0.6983 -0.0832
  565MOL0     H74524   9.637   2.795   7.483 -0.2260 -0.2081  0.3754
  565MOL0     H74525   9.610   3.035   7.286  1.2334  1.6827  1.1585
  565MOL0     H74526   9.558   3.015   7.454 -5.0559  0.1160 -1.1594
  565MOL0     H74527   9.415   2.816   7.345 -1.2544  0.5328  0.5306
  565MOL0     H74528   9.434   2.923   7.203  2.7483 -0.3671 -0.3442
  565MOL0     H74529   9.334   2.973   7.492  3.0815 -0.1239 -0.5932
  565MOL0     H74530   9.325   3.095   7.360 -2.7402  0.7580  1.5030
  565MOL0     H74531   9.169   2.833   7.375  0.1887 -1.9538 -3.0451
  565MOL0     H74532   9.173   2.943   7.224  0.4981 -0.1357  0.2356
  565MOL0     H74533   9.055   3.172   7.231 -0.2502  1.1430  0.3493
  565MOL0     H74534   8.824   3.296   7.283  1.0349 -0.4280 -1.3498
  565MOL0     H74535   8.873   3.376   7.421 -1.2210  0.4370  0.8469
  565MOL0     H74536   8.640   3.363   7.446 -1.8106 -0.0190  1.4073
  565MOL0     H74537   8.706   3.247   7.559  2.6600  1.7699 -0.3530
  565MOL0     H74538   8.559   3.197   7.270  0.3804  1.4032 -0.8570
  565MOL0     H74539   8.689   3.089   7.339 -1.4386 -0.5343  1.4567
  565MOL0     H74540   8.573   3.059   7.546  0.5101  1.2587 -0.6131
  565MOL0     H74541   8.477   2.992   7.414  1.1150 -1.7621  3.6163
  565MOL0     H74542   8.228   3.286   7.637 -1.7534  0.3595  0.0469
  565MOL0     H74543   7.972   3.237   7.621 -0.9067  0.8339 -1.1298
  565MOL0     H74544   7.598   3.268   7.335  3.0431  0.8717  4.0300
  565MOL0     H74545   7.387   3.212   7.279  4.2411  4.1027  0.5264
  565MOL0     H74546   7.179   3.103   7.271  1.3959  0.8453  0.5819
  565MOL0     H74547   7.157   3.237   7.370 -1.3660 -0.3554 -1.9089
  565MOL0     H74548   6.962   3.092   7.481  0.7994 -1.0085 -0.4323
  565MOL0     H74549   6.971   2.997   7.340 -0.2718 -0.2859  2.0590
  565MOL0     H74550   6.939   3.203   7.194 -1.1991  1.3406 -1.6739
  565MOL0     H74551   6.916   3.301   7.345 -1.7840  0.2507  1.1437
  565MOL0     H74552   6.733   3.070   7.246 -0.5108 -1.7742  3.4172
  565MOL0     H74553   6.721   3.166   7.396  0.1609  1.4917  0.4592
  565MOL0     H74554   6.698   3.356   7.267  1.2237  0.9891 -2.7178
  565MOL0     H74555   6.570   3.228   7.240  0.7881 -0.6648 -0.4213
  565MOL0     H74556   6.646   3.180   7.022 -0.3024  0.2063 -0.7265
  565MOL0     H74557   6.801   3.276   7.049  0.3741  2.5713  1.9127
  565MOL0     H74558   6.552   3.416   7.043 -0.7927 -2.2510  0.9472
  565MOL0     H74559   6.717   3.465   7.035  0.8315 -1.5652  0.9914
  565MOL0     H74560   6.745   3.391   6.799  0.4990  1.1685  0.0938
  565MOL0     H74561   6.583   3.469   6.817  3.3696  2.5996 -0.4049
  565MOL0     H74562   7.376   2.951   7.629 -3.1752  0.8730 -0.9365
  565MOL0     H74563   7.612   3.005   7.666  0.3064  0.3690  0.4732
  565MOL0     H74564   8.071   2.986   7.276 -1.9683 -0.2349  0.2355
  565MOL0     H74565   8.299   3.023   7.311  1.5217  1.1401  1.6813
  565MOL0     H74566  10.244   2.897   7.212  1.5174  1.6674  0.4682
  565MOL0     H74567  10.477   2.905   7.143 -0.4528  0.5292  0.6807
  565MOL0     H74568  10.908   2.907   7.484  0.3049  4.1020  0.4087
  565MOL0     H74569  11.148   2.979   7.439  1.5124 -0.1841 -0.1168
  565MOL0     H74570  11.313   2.967   7.005  0.4475  0.0790 -1.2954
  565MOL0     H74571  11.336   2.811   7.084  0.1273  0.1092 -1.4362
  565MOL0     H74572  11.504   3.041   7.183 -3.5493  0.3907 -0.0844
  565MOL0     H74573  11.544   2.884   7.211  3.4997 -0.7164 -2.0119
  565MOL0     H74574  11.691   3.005   7.022  2.3497 -2.6806  0.9766
  565MOL0     H74575  11.552   2.994   6.922 -0.9648 -0.1121 -0.0260
  565MOL0     H74576  11.692   2.757   7.068 -0.4400 -3.5364 -0.1934
  565MOL0     H74577  11.543   2.729   6.988  1.2303 -0.2847 -1.2287
  565MOL0     H74578  11.805   2.791   6.661 -0.9402 -1.4440 -0.7818
  565MOL0     H74579  11.085   2.874   7.021  1.5622  0.3627  0.5137
  565MOL0     H74580  10.866   2.798   7.068  1.1311  0.1271 -1.1888
  566MOL0     O74581   5.193   6.215   8.097  0.0831 -0.1232  0.4371
  566MOL0     C74582   5.192   6.342   8.088 -0.1832  0.8055  0.4488
  566MOL0     O74583   5.086   6.409   8.049  0.5383  0.2950  0.3181
  566MOL0     C74584   4.977   6.352   7.983 -0.3251 -0.1313 -0.1623
  566MOL0     C74585   4.981   6.258   7.877 -0.3903  0.3729 -1.0959
  566MOL0     C74586   4.870   6.209   7.811 -0.3937  0.1060  0.0456
  566MOL0     C74587   4.740   6.262   7.845 -0.5098  0.1219  0.0109
  566MOL0     O74588   4.632   6.244   7.769 -0.6082  0.3794 -0.4784
  566MOL0     C74589   4.603   6.112   7.738  1.0778  0.5753  0.2865
  566MOL0     C74590   4.449   6.110   7.713  0.1657  0.0561 -0.6643
  566MOL0     C74591   4.359   5.984   7.727  0.6180  0.2343 -0.1434
  566MOL0     C74592   4.223   5.973   7.651 -0.1985 -0.1467  0.4734
  566MOL0     C74593   4.145   6.098   7.678  0.6998  0.3605  0.1394
  566MOL0     C74594   3.998   6.096   7.623 -1.0870 -1.5356  0.5304
  566MOL0     C74595   3.905   5.997   7.692 -0.4231 -0.1526 -0.6952
  566MOL0     C74596   3.868   6.026   7.840 -0.4365 -0.5669  0.0364
  566MOL0     N74597   3.723   6.015   7.857  0.7493  0.1018  0.1154
  566MOL0     C74598   3.626   6.116   7.858 -0.6811 -0.4355  0.1628
  566MOL0     C74599   3.504   6.051   7.862  0.5477  0.0000 -0.7131
  566MOL0     C74600   3.372   6.119   7.859  0.2294  0.1052  0.5749
  566MOL0     C74601   3.285   6.074   7.971 -0.1230 -0.5913 -0.7518
  566MOL0     C74602   3.184   5.966   7.932  0.1266 -0.0123  0.2401
  566MOL0     C74603   3.060   5.937   8.024  0.7634  0.1302  0.2688
  566MOL0     O74604   2.973   6.057   8.025 -0.4162 -0.2759  0.2457
  566MOL0     C74605   2.847   6.051   8.075 -0.5426 -0.2720  0.9491
  566MOL0     C74606   2.779   6.173   8.076 -0.2676 -0.2806 -0.3888
  566MOL0     C74607   2.656   6.191   8.131  0.5790  0.4953 -0.7391
  566MOL0     C74608   2.585   6.085   8.180  0.1963 -0.1344 -0.7033
  566MOL0     C74609   2.451   6.099   8.241 -0.1111 -0.3099  0.2212
  566MOL0     O74610   2.378   5.985   8.266  0.4159  0.9973  0.3144
  566MOL0     C74611   2.240   5.995   8.266 -0.5945 -0.1157  1.3325
  566MOL0     C74612   2.167   6.001   8.383  0.0922 -0.1228  0.8078
  566MOL0     C74613   2.029   6.009   8.387 -0.3182  0.3841 -0.8076
  566MOL0     C74614   1.957   5.992   8.275  0.3355  0.0249  0.3771
  566MOL0     O74615   1.824   6.000   8.293  0.1155 -0.2261  0.6912
  566MOL0     C74616   1.738   5.961   8.182  0.3867  0.3290  0.9415
  566MOL0     C74617   1.746   5.809   8.160 -0.9617  0.2474 -0.6450
  566MOL0     C74618   1.618   5.752   8.119  0.4024 -0.0081  0.3326
  566MOL0     C74619   1.558   5.825   8.002 -0.1374 -0.5860  0.2381
  566MOL0     C74620   1.443   5.752   7.946  0.2596 -0.4169  0.6381
  566MOL0     C74621   1.367   5.825   7.833 -0.4049  0.8543  0.0031
  566MOL0     C74622   1.256   5.726   7.772  0.8308  0.1563  0.1114
  566MOL0     C74623   1.122   5.716   7.860 -0.2526  0.9087 -0.7682
  566MOL0    Cl74624   0.988   5.631   7.771  0.1301  0.4632  0.0955
  566MOL0     C74625   2.027   5.968   8.150  0.0722  0.8170  0.2635
  566MOL0     C74626   2.167   5.971   8.145  0.6396  0.5945  0.4267
  566MOL0     O74627   2.418   6.215   8.261 -0.1408  0.5815  1.1756
  566MOL0     C74628   2.642   5.952   8.164  0.4920 -0.5209 -0.1483
  566MOL0     C74629   2.772   5.938   8.100  0.3460 -1.1207  0.8060
  566MOL0     N74630   3.523   5.919   7.854 -0.4003  0.4815  0.6793
  566MOL0     N74631   3.658   5.900   7.838  0.5620  0.3667 -0.3503
  566MOL0     C74632   4.733   6.359   7.946 -0.1306 -0.0614 -0.6235
  566MOL0     C74633   4.850   6.397   8.016 -0.2489 -0.9668  0.5315
  566MOL0     C74634   5.308   6.412   8.142 -0.6302 -0.9480 -0.6105
  566MOL0     C74635   5.420   6.335   8.176 -0.1935 -0.1798 -0.2031
  566MOL0     C74636   5.542   6.387   8.209  0.8302  0.1443 -0.2881
  566MOL0     C74637   5.566   6.526   8.210 -0.5040 -0.7428 -0.4631
  566MOL0     O74638   5.684   6.575   8.251  0.0757 -0.5594 -0.1097
  566MOL0     C74639   5.675   6.598   8.391 -0.7106 -0.1925 -0.3227
  566MOL0     C74640   5.796   6.672   8.442  0.3792  0.2029 -0.6438
  566MOL0     C74641   5.919   6.576   8.421  0.6411 -0.5952 -1.4764
  566MOL0     C74642   6.039   6.639   8.479 -0.3046  0.3242 -0.1731
  566MOL0     C74643   6.157   6.570   8.441 -0.1416  0.5140  0.0797
  566MOL0     C74644   6.246   6.502   8.403 -0.4142 -0.0348 -0.2140
  566MOL0     C74645   5.449   6.609   8.181  0.2691 -0.8305 -0.3571
  566MOL0     C74646   5.325   6.553   8.153 -1.3549  0.6270  0.4222
  566MOL0     H74647   5.077   6.233   7.832 -0.4378  0.4579 -1.2471
  566MOL0     H74648   4.875   6.147   7.722  1.3571 -0.5951  0.5790
  566MOL0     H74649   4.618   6.037   7.817 -3.4736 -2.6238 -1.4838
  566MOL0     H74650   4.649   6.069   7.648 -2.2046 -0.7505 -0.9123
  566MOL0     H74651   4.431   6.150   7.612 -0.6109 -0.2072 -0.6376
  566MOL0     H74652   4.407   6.192   7.771  0.8815  0.0996 -0.2080
  566MOL0     H74653   4.333   5.961   7.831 -0.3698 -1.8361 -0.7969
  566MOL0     H74654   4.414   5.898   7.687 -0.5320 -0.0641 -1.1407
  566MOL0     H74655   4.233   5.958   7.543 -1.6709  0.2750  0.2464
  566MOL0     H74656   4.178   5.884   7.695  0.0269 -1.1009 -1.1489
  566MOL0     H74657   4.197   6.183   7.631  0.5474 -0.4913 -1.6571
  566MOL0     H74658   4.137   6.110   7.786  0.6938  0.1520  0.1614
  566MOL0     H74659   4.007   6.078   7.515 -0.5407  0.3701  0.2199
  566MOL0     H74660   3.946   6.192   7.630 -1.6606 -1.6822 -1.2289
  566MOL0     H74661   3.812   6.005   7.634 -0.5173  0.8689 -0.4247
  566MOL0     H74662   3.937   5.893   7.680 -4.9556 -1.5701 -2.7846
  566MOL0     H74663   3.910   6.125   7.860 -2.2869  0.1412  0.7229
  566MOL0     H74664   3.916   5.949   7.901  0.5861  1.4088  1.8606
  566MOL0     H74665   3.651   6.221   7.842  1.1681 -0.5892  1.8024
  566MOL0     H74666   3.325   6.110   7.761  0.7788  0.4200  0.2718
  566MOL0     H74667   3.402   6.224   7.864  3.2443 -0.4967 -1.7113
  566MOL0     H74668   3.232   6.165   8.001 -0.1352 -1.1907  1.1711
  566MOL0     H74669   3.351   6.048   8.054  0.5372  0.5340 -0.9043
  566MOL0     H74670   3.147   6.002   7.836  1.0644  1.1372  0.2760
  566MOL0     H74671   3.240   5.872   7.930  0.6828  0.3183 -0.5143
  566MOL0     H74672   3.079   5.908   8.128 -0.1582 -2.0322 -0.1021
  566MOL0     H74673   3.010   5.844   7.994 -0.0525  0.5685  0.2581
  566MOL0     H74674   2.834   6.264   8.053 -2.4132  0.7542 -1.7625
  566MOL0     H74675   2.612   6.290   8.115  0.5168  1.0174  2.1543
  566MOL0     H74676   2.218   5.998   8.479 -2.0819  0.7648  2.0835
  566MOL0     H74677   1.986   6.010   8.487  4.2092 -0.9349  1.4227
  566MOL0     H74678   1.763   6.003   8.084  0.3490 -3.9314 -1.1298
  566MOL0     H74679   1.636   5.988   8.212 -0.3542 -1.8995  0.5698
  566MOL0     H74680   1.752   5.762   8.259  0.4671 -0.6736 -1.1337
  566MOL0     H74681   1.830   5.782   8.096 -2.4995 -0.9698 -2.2462
  566MOL0     H74682   1.545   5.744   8.199  1.3989 -0.2941  1.2404
  566MOL0     H74683   1.628   5.647   8.090 -4.5453 -1.1285  1.7440
  566MOL0     H74684   1.534   5.931   8.016  1.4358 -0.2231  0.3725
  566MOL0     H74685   1.636   5.825   7.925 -0.2731  2.7975 -0.0654
  566MOL0     H74686   1.367   5.749   8.025 -0.4098  0.9146  0.0643
  566MOL0     H74687   1.473   5.654   7.907 -0.4082 -0.7004  0.8252
  566MOL0     H74688   1.435   5.856   7.754  0.9512  1.8377  1.4813
  566MOL0     H74689   1.324   5.917   7.874 -1.5446 -0.4378  1.8566
  566MOL0     H74690   1.238   5.760   7.669  2.5336 -1.2080 -0.6900
  566MOL0     H74691   1.297   5.625   7.762 -1.7467 -0.9075 -0.6172
  566MOL0     H74692   1.099   5.820   7.885 -2.9204 -0.0793  1.4104
  566MOL0     H74693   1.134   5.655   7.951 -0.8911 -1.1628 -1.9989
  566MOL0     H74694   1.971   5.964   8.056 -0.8901 -1.5568  0.8658
  566MOL0     H74695   2.234   5.962   8.060  0.5038  0.0847  0.3661
  566MOL0     H74696   2.580   5.869   8.197 -1.1171 -0.0174 -1.7286
  566MOL0     H74697   2.817   5.839   8.094 -0.2628 -1.4600  1.5796
  566MOL0     H74698   4.634   6.404   7.953 -0.0813  1.3234 -5.2825
  566MOL0     H74699   4.836   6.474   8.091 -0.8026 -0.1157 -0.4205
  566MOL0     H74700   5.408   6.227   8.175  0.3442 -0.2584  0.7061
  566MOL0     H74701   5.629   6.326   8.230  1.4746  0.7889 -1.0323
  566MOL0     H74702   5.665   6.501   8.441  2.0041 -0.7696 -0.7238
  566MOL0     H74703   5.589   6.662   8.414  0.0859  1.0954 -0.8202
  566MOL0     H74704   5.819   6.755   8.374  2.7826 -1.1111 -1.5806
  566MOL0     H74705   5.776   6.697   8.546 -0.3729 -0.8395 -0.5164
  566MOL0     H74706   5.927   6.563   8.312 -4.7218  2.7349 -2.6548
  566MOL0     H74707   5.895   6.481   8.468  0.0826  0.0602 -0.4120
  566MOL0     H74708   6.050   6.741   8.443 -0.7001 -0.4156 -2.5337
  566MOL0     H74709   6.030   6.630   8.588  2.9020 -4.2411 -0.0118
  566MOL0     H74710   6.323   6.429   8.389 -1.6480 -0.9253 -3.1211
  566MOL0     H74711   5.454   6.715   8.203  1.3830 -0.9201 -0.0904
  566MOL0     H74712   5.237   6.613   8.132 -0.8606  0.7529 -1.5540
  567MOL0     O74713   4.137   1.844   6.456 -0.6793 -0.2481  0.6530
  567MOL0     C74714   4.185   1.958   6.470  0.4168 -0.1992  0.1058
  567MOL0     O74715   4.117   2.067   6.509 -0.1436  0.0902  0.1354
  567MOL0     C74716   3.978   2.055   6.521 -1.0506 -0.3149  0.7998
  567MOL0     C74717   3.927   1.993   6.633  0.7596 -0.5023 -0.4033
  567MOL0     C74718   3.792   1.988   6.655 -0.4781  0.7865 -0.0298
  567MOL0     C74719   3.710   2.061   6.569 -0.0687 -0.1633 -0.2936
  567MOL0     O74720   3.576   2.075   6.576 -0.1741 -0.7432  0.8935
  567MOL0     C74721   3.506   1.976   6.659  0.1874 -1.3220 -0.5941
  567MOL0     C74722   3.498   1.850   6.579  0.3337  0.0479  0.3199
  567MOL0     C74723   3.455   1.872   6.434 -0.1869  0.3747 -0.1217
  567MOL0     C74724   3.408   1.740   6.372  0.0957  0.2019 -0.3000
  567MOL0     C74725   3.267   1.692   6.424  0.4923  0.5203 -0.1134
  567MOL0     C74726   3.282   1.541   6.468 -0.1501 -0.4383  0.4454
  567MOL0     C74727   3.377   1.445   6.394  0.5069 -0.9992  0.1325
  567MOL0     C74728   3.352   1.423   6.245 -0.2253 -0.0149 -0.2122
  567MOL0     N74729   3.209   1.404   6.218 -0.0994 -0.8496 -0.3514
  567MOL0     C74730   3.154   1.280   6.198  0.2253  0.6183  0.2162
  567MOL0     C74731   3.037   1.309   6.126 -0.3981  0.4525  0.6497
  567MOL0     C74732   2.934   1.201   6.097  1.0847 -0.6336 -0.2697
  567MOL0     C74733   2.798   1.262   6.119  0.0108 -0.4148 -1.0819
  567MOL0     C74734   2.690   1.161   6.083  1.3120 -0.7016 -0.2498
  567MOL0     C74735   2.557   1.239   6.056  0.4173  0.0962 -0.2877
  567MOL0     O74736   2.452   1.148   6.035 -0.0708  0.5920  0.4929
  567MOL0     C74737   2.320   1.199   6.045  0.6703 -0.1029 -0.2755
  567MOL0     C74738   2.217   1.109   6.086  0.2076  0.1893  0.1397
  567MOL0     C74739   2.087   1.150   6.103 -0.3349 -0.2987 -0.5694
  567MOL0     C74740   2.055   1.283   6.082 -0.3429  0.4306  0.2465
  567MOL0     C74741   1.923   1.339   6.108  1.4856  0.2290  0.4902
  567MOL0     O74742   1.887   1.457   6.048  0.0147 -0.2345 -0.8389
  567MOL0     C74743   1.758   1.497   6.062  1.4490  0.9963 -0.3535
  567MOL0     C74744   1.729   1.630   6.121 -0.7111 -0.4535  0.5227
  567MOL0     C74745   1.596   1.680   6.109  0.4753  0.3080  0.4932
  567MOL0     C74746   1.489   1.606   6.045 -0.3162 -0.3754  0.5138
  567MOL0     O74747   1.361   1.646   6.022 -0.3044 -0.0173 -0.0164
  567MOL0     C74748   1.298   1.733   6.116 -0.1490  0.1981 -0.1193
  567MOL0     C74749   1.151   1.739   6.096  0.0877  0.5123  0.3247
  567MOL0     C74750   1.074   1.614   6.150 -0.3052 -0.3226 -0.2124
  567MOL0     C74751   0.919   1.617   6.148  0.5210  0.3623 -0.0900
  567MOL0     C74752   0.869   1.716   6.255 -0.0746 -0.5535  0.5003
  567MOL0     C74753   0.733   1.680   6.295  0.8317 -0.2052  0.8156
  567MOL0     C74754   0.681   1.772   6.419 -0.4868 -0.0554 -0.1132
  567MOL0     C74755   0.534   1.756   6.459  0.2211  0.9833  0.7114
  567MOL0    Cl74756   0.444   1.605   6.399 -0.0831  0.0958  0.6570
  567MOL0     C74757   1.521   1.477   5.990  0.5529 -0.0750  0.6490
  567MOL0     C74758   1.652   1.427   6.002  0.2507  0.1299  0.1415
  567MOL0     O74759   1.842   1.265   6.162  0.5723  0.6116  0.0244
  567MOL0     C74760   2.157   1.367   6.035 -0.7029 -0.2474  0.8014
  567MOL0     C74761   2.292   1.332   6.024 -0.2302 -0.1521  0.7879
  567MOL0     N74762   3.028   1.441   6.095  0.1680 -0.4035 -0.0840
  567MOL0     N74763   3.135   1.499   6.147 -0.5472  0.1881  0.3127
  567MOL0     C74764   3.763   2.133   6.464  0.3310  0.1759  0.6735
  567MOL0     C74765   3.902   2.123   6.439 -0.1586 -0.6932 -0.1462
  567MOL0     C74766   4.331   1.972   6.431  0.0336 -1.1071  0.5017
  567MOL0     C74767   4.377   2.110   6.425 -0.1237 -0.9420 -0.2596
  567MOL0     C74768   4.509   2.142   6.391  0.4909  0.1083 -0.1639
  567MOL0     C74769   4.604   2.034   6.375 -0.7276 -0.9473 -0.1632
  567MOL0     O74770   4.745   2.040   6.351  0.5002 -0.2408  0.0410
  567MOL0     C74771   4.806   2.174   6.334  0.4050 -0.4714  0.2627
  567MOL0     C74772   4.855   2.209   6.476  0.0329 -0.2855  0.0928
  567MOL0     C74773   4.891   2.364   6.470 -0.0253 -0.1531 -0.3594
  567MOL0     C74774   4.954   2.429   6.601 -0.6132  0.4562  0.8038
  567MOL0     C74775   5.005   2.561   6.589  0.7273 -0.8475 -0.3285
  567MOL0     C74776   5.058   2.664   6.582 -0.0742 -1.1071  1.2961
  567MOL0     C74777   4.562   1.900   6.383  1.4834  0.3386 -0.3069
  567MOL0     C74778   4.424   1.869   6.412 -0.2438 -0.3238 -0.1058
  567MOL0     H74779   3.989   1.947   6.709  0.4832  0.2704  0.3021
  567MOL0     H74780   3.762   1.949   6.752  1.6698  1.3168  0.9277
  567MOL0     H74781   3.407   2.013   6.687  2.1487  3.7598  0.7160
  567MOL0     H74782   3.556   1.964   6.756 -1.8395  1.4847  0.9438
  567MOL0     H74783   3.431   1.786   6.638  0.4236 -0.0433  0.3234
  567MOL0     H74784   3.590   1.792   6.568  0.1569 -0.3626  0.9295
  567MOL0     H74785   3.543   1.903   6.378  0.1550  0.3747  0.4106
  567MOL0     H74786   3.379   1.951   6.429 -0.6096  0.0057  0.3124
  567MOL0     H74787   3.392   1.767   6.267 -2.9274  2.3000  0.5902
  567MOL0     H74788   3.493   1.672   6.380  2.9681  3.6465  0.8631
  567MOL0     H74789   3.188   1.700   6.349  1.3004 -1.7061 -1.3067
  567MOL0     H74790   3.223   1.743   6.510  0.0893 -0.4537  0.2775
  567MOL0     H74791   3.184   1.493   6.468  0.3736 -1.6346  2.6095
  567MOL0     H74792   3.310   1.547   6.574 -2.3860 -2.4909  1.2243
  567MOL0     H74793   3.481   1.468   6.416  1.1112 -4.0349  0.8913
  567MOL0     H74794   3.369   1.348   6.444 -0.3734 -0.3152  1.3764
  567MOL0     H74795   3.407   1.337   6.207 -0.5359  0.0573 -0.8250
  567MOL0     H74796   3.383   1.515   6.194  0.7296  0.5474  1.2888
  567MOL0     H74797   3.191   1.188   6.241  1.2113  0.5886 -0.6508
  567MOL0     H74798   2.936   1.119   6.169 -1.4042 -0.5087  0.0325
  567MOL0     H74799   2.944   1.162   5.996  3.4392 -0.4512 -0.1558
  567MOL0     H74800   2.789   1.346   6.049 -4.0591  0.6104  0.3676
  567MOL0     H74801   2.778   1.290   6.223  0.6953 -2.4012 -0.3833
  567MOL0     H74802   2.707   1.108   5.989  0.6587  0.3489 -0.9828
  567MOL0     H74803   2.672   1.085   6.159 -1.1402  0.5633  0.5362
  567MOL0     H74804   2.569   1.309   5.972  0.3028  2.1141  1.2937
  567MOL0     H74805   2.544   1.310   6.139  1.5399  1.1323 -0.9598
  567MOL0     H74806   2.247   1.010   6.117 -0.5075 -0.3322 -0.7921
  567MOL0     H74807   2.009   1.076   6.120 -0.0257  0.1908  4.8135
  567MOL0     H74808   1.810   1.683   6.169 -0.2281 -0.2432 -0.4859
  567MOL0     H74809   1.567   1.779   6.143 -1.4019 -0.6161  1.8085
  567MOL0     H74810   1.335   1.836   6.121  1.3004 -0.2886  4.9871
  567MOL0     H74811   1.314   1.694   6.217 -2.9758  3.7068  1.9258
  567MOL0     H74812   1.121   1.749   5.991 -0.3034 -3.7607 -0.1474
  567MOL0     H74813   1.128   1.828   6.155  2.6089 -0.4867  3.0380
  567MOL0     H74814   1.109   1.606   6.253 -1.8390  0.1679  0.3780
  567MOL0     H74815   1.108   1.521   6.104  0.9481  0.2007 -0.3675
  567MOL0     H74816   0.881   1.655   6.052 -0.9260  1.1645  0.7513
  567MOL0     H74817   0.875   1.517   6.154 -2.3633  1.4055 -1.5305
  567MOL0     H74818   0.874   1.821   6.225 -2.4042 -1.2856 -3.1007
  567MOL0     H74819   0.934   1.708   6.343 -0.6520  0.8812  1.1006
  567MOL0     H74820   0.721   1.578   6.331 -2.3786 -0.1286  0.2887
  567MOL0     H74821   0.670   1.690   6.206  1.8457  2.3641  0.2914
  567MOL0     H74822   0.744   1.736   6.501  0.3605  2.9386  0.6859
  567MOL0     H74823   0.700   1.874   6.386 -0.2363 -0.6543 -1.9427
  567MOL0     H74824   0.480   1.846   6.428  0.0154  0.7840  0.4898
  567MOL0     H74825   0.524   1.746   6.568 -0.5966  2.8071  0.8339
  567MOL0     H74826   1.445   1.424   5.932 -0.4254  0.8003  1.0977
  567MOL0     H74827   1.658   1.333   5.948  0.6694 -0.5471  1.3402
  567MOL0     H74828   2.133   1.472   6.017 -1.9473 -0.6892 -0.2328
  567MOL0     H74829   2.371   1.402   5.997  1.6125 -2.1905  0.6205
  567MOL0     H74830   3.700   2.190   6.396  2.8574  0.6745 -1.4302
  567MOL0     H74831   3.947   2.183   6.360  0.3277  2.0739  2.0647
  567MOL0     H74832   4.312   2.191   6.456  0.7542  0.3750 -1.7314
  567MOL0     H74833   4.545   2.243   6.407  0.6590 -0.4720  4.5969
  567MOL0     H74834   4.736   2.252   6.301  3.0596  1.6858 -0.6012
  567MOL0     H74835   4.895   2.172   6.271 -0.3489  0.7928 -0.8836
  567MOL0     H74836   4.779   2.190   6.552  2.5214 -3.3623  2.0286
  567MOL0     H74837   4.946   2.155   6.503 -0.6053 -2.1028 -1.2067
  567MOL0     H74838   4.799   2.417   6.445  0.9561  0.9385 -1.9020
  567MOL0     H74839   4.966   2.381   6.391 -0.9697  1.6667 -0.9327
  567MOL0     H74840   4.868   2.437   6.668 -2.9037 -0.1449 -1.8958
  567MOL0     H74841   5.029   2.363   6.646  0.7867  1.2297 -0.3251
  567MOL0     H74842   5.110   2.758   6.590  0.7138 -1.0089 -2.7943
  567MOL0     H74843   4.634   1.821   6.365  2.4571  0.9367  0.8407
  567MOL0     H74844   4.378   1.771   6.409 -1.6882  0.3173  0.3630
  568MOL0     O74845   2.892   2.047   5.295  0.2728  0.2336  0.3159
  568MOL0     C74846   2.888   1.942   5.235 -0.3998 -0.0902  0.2783
  568MOL0     O74847   2.815   1.921   5.124  0.2095  1.0276 -0.0474
  568MOL0     C74848   2.711   2.005   5.095 -0.2808  0.6385 -0.0585
  568MOL0     C74849   2.586   1.938   5.094 -0.1678  0.7525  0.9945
  568MOL0     C74850   2.473   2.014   5.067  0.3325  1.1610 -0.5753
  568MOL0     C74851   2.481   2.147   5.026  0.6105 -0.3521 -0.3747
  568MOL0     O74852   2.382   2.236   4.984 -0.3223  0.0770 -0.4113
  568MOL0     C74853   2.244   2.190   4.968  0.2701  0.2243  0.6659
  568MOL0     C74854   2.148   2.305   4.941 -0.3882  0.1490  0.5933
  568MOL0     C74855   1.995   2.274   4.965 -0.5511  0.7026  0.7635
  568MOL0     C74856   1.891   2.386   4.921  0.6250  0.0640 -0.5017
  568MOL0     C74857   1.741   2.356   4.958 -0.0829 -0.0818 -0.5171
  568MOL0     C74858   1.642   2.449   4.881 -0.2933 -0.6643 -0.1150
  568MOL0     C74859   1.504   2.383   4.903  0.1525  0.3453 -0.2259
  568MOL0     C74860   1.457   2.340   5.038 -0.8286 -0.1878 -0.2887
  568MOL0     N74861   1.312   2.347   5.054 -0.0294 -0.6971  0.0393
  568MOL0     C74862   1.243   2.459   5.087  1.7012  0.5784 -0.2643
  568MOL0     C74863   1.110   2.425   5.074 -1.3919 -0.2838 -0.0146
  568MOL0     C74864   0.988   2.506   5.095  0.8119 -0.4122  0.2040
  568MOL0     C74865   0.974   2.626   4.998  0.4640  0.0190 -0.3477
  568MOL0     C74866   0.852   2.719   5.043  0.3147 -0.3803  0.4612
  568MOL0     C74867   0.713   2.649   5.032  0.6817  0.8989 -0.4407
  568MOL0     O74868   0.614   2.752   5.046 -0.4645 -0.2651  0.5554
  568MOL0     C74869   0.488   2.724   5.027  0.9735  0.0033 -0.6988
  568MOL0     C74870   0.407   2.837   4.990  0.4300  0.9527 -0.1285
  568MOL0     C74871   0.272   2.827   4.970  0.3619 -0.2006  0.7235
  568MOL0     C74872   0.204   2.698   4.976 -1.0326  0.4945  0.1762
  568MOL0     C74873   0.061   2.678   4.956 -0.3913 -1.4751  0.4052
  568MOL0     O74874   0.010   2.784   4.884  0.1688  0.4481  0.2693
  568MOL0     C74875  -0.126   2.791   4.874  0.0828  0.4617  0.0899
  568MOL0     C74876  -0.196   2.855   4.977  0.0915 -0.1505 -0.4261
  568MOL0     C74877  -0.333   2.856   4.974 -0.4654  0.2718  0.2028
  568MOL0     C74878  -0.396   2.822   4.850 -0.9465  0.0565  0.5357
  568MOL0     O74879  -0.531   2.856   4.850 -0.2975  0.7438  0.3794
  568MOL0     C74880  -0.609   2.779   4.758  0.3734  0.0180 -0.4173
  568MOL0     C74881  -0.745   2.840   4.749 -0.3014 -0.5257 -0.2595
  568MOL0     C74882  -0.840   2.838   4.871  0.4390 -0.5230 -0.3611
  568MOL0     C74883  -0.969   2.920   4.859  0.4602  0.2380  0.5296
  568MOL0     C74884  -1.073   2.908   4.975  0.4704 -0.1017  0.1379
  568MOL0     C74885  -1.162   3.029   4.958  1.0323  0.1104  0.4326
  568MOL0     C74886  -1.301   3.006   5.018  0.7591 -0.5371 -0.0333
  568MOL0     C74887  -1.392   3.142   5.012  0.9053  0.4674 -0.2863
  568MOL0    Cl74888  -1.321   3.302   5.089  0.2522  0.3725  0.1583
  568MOL0     C74889  -0.329   2.757   4.744 -0.0634 -0.2608 -0.7149
  568MOL0     C74890  -0.190   2.749   4.750  0.2952  0.3209 -0.8241
  568MOL0     O74891  -0.003   2.594   5.011 -0.3627 -1.0512  0.2575
  568MOL0     C74892   0.281   2.590   5.014  1.1480 -0.0891  0.0542
  568MOL0     C74893   0.420   2.601   5.038  0.4102  0.0191 -0.0370
  568MOL0     N74894   1.110   2.288   5.048  0.2941  0.6543  0.4215
  568MOL0     N74895   1.230   2.237   5.038  0.1960  0.4152 -0.2246
  568MOL0     C74896   2.600   2.209   5.042  0.2122  0.9171  0.4608
  568MOL0     C74897   2.720   2.140   5.075  0.9687 -0.6886  0.6740
  568MOL0     C74898   2.991   1.848   5.268  0.1584 -0.4559  0.1392
  568MOL0     C74899   3.077   1.868   5.379  0.2772 -0.6190  1.0985
  568MOL0     C74900   3.181   1.782   5.403  0.6951 -0.0929 -0.2218
  568MOL0     C74901   3.205   1.663   5.325  0.1242 -0.3748  0.6666
  568MOL0     O74902   3.309   1.574   5.345 -0.0507 -0.2847 -0.0826
  568MOL0     C74903   3.420   1.592   5.441 -0.4298 -0.5295  0.4114
  568MOL0     C74904   3.547   1.599   5.354 -0.1706 -0.0021 -0.0361
  568MOL0     C74905   3.555   1.742   5.304 -0.7867 -1.3927 -0.8431
  568MOL0     C74906   3.627   1.838   5.402 -0.9307 -1.3095 -0.8387
  568MOL0     C74907   3.643   1.985   5.358 -0.3122  0.4589 -0.0201
  568MOL0     C74908   3.656   2.099   5.316 -0.1860  1.0908 -0.1947
  568MOL0     C74909   3.112   1.635   5.229 -0.1280  0.3387  0.2848
  568MOL0     C74910   3.014   1.728   5.197  1.2581  0.0382  0.3827
  568MOL0     H74911   2.574   1.835   5.126 -2.2501  0.9450  0.9405
  568MOL0     H74912   2.379   1.964   5.089  1.4220 -1.2404 -0.9990
  568MOL0     H74913   2.206   2.141   5.059 -1.1034 -1.4871 -0.7468
  568MOL0     H74914   2.239   2.121   4.884  1.6425 -2.4860  2.6415
  568MOL0     H74915   2.153   2.328   4.834 -2.9483 -2.4306 -0.2009
  568MOL0     H74916   2.166   2.398   4.996 -0.0849  0.9138 -0.7406
  568MOL0     H74917   1.974   2.247   5.069 -1.4736  2.2302  1.0139
  568MOL0     H74918   1.970   2.188   4.901 -1.1670  0.7937  0.8754
  568MOL0     H74919   1.920   2.479   4.971 -2.8939  0.8776  0.3521
  568MOL0     H74920   1.894   2.398   4.812  3.4248  0.6415 -0.4334
  568MOL0     H74921   1.736   2.378   5.065  1.2139 -1.8232 -0.0633
  568MOL0     H74922   1.714   2.251   4.944  1.6005 -0.4878 -0.8922
  568MOL0     H74923   1.661   2.461   4.774  3.0205  1.7018  0.6022
  568MOL0     H74924   1.634   2.551   4.921 -0.5651 -0.7537  0.0645
  568MOL0     H74925   1.428   2.455   4.871 -0.4582 -0.3200 -0.3108
  568MOL0     H74926   1.492   2.292   4.843  0.6016 -1.2668  1.9852
  568MOL0     H74927   1.499   2.413   5.109 -1.8848 -1.2630  1.5183
  568MOL0     H74928   1.497   2.241   5.062  0.1283  0.8098  2.8279
  568MOL0     H74929   1.292   2.555   5.100  1.1664  0.7751  0.3303
  568MOL0     H74930   0.988   2.542   5.199 -1.3332  0.6246 -0.0810
  568MOL0     H74931   0.902   2.440   5.079  0.1675 -0.2279  2.5433
  568MOL0     H74932   0.971   2.594   4.894  0.9836  0.5859 -0.5438
  568MOL0     H74933   1.071   2.677   5.002 -0.2144  1.2896  1.9687
  568MOL0     H74934   0.872   2.754   5.145 -2.3810 -0.5848  1.1170
  568MOL0     H74935   0.856   2.807   4.978  3.1713 -0.8258 -0.1395
  568MOL0     H74936   0.706   2.588   5.123  1.4531  1.3556 -0.0669
  568MOL0     H74937   0.711   2.606   4.932 -1.3246  2.1225 -0.9793
  568MOL0     H74938   0.453   2.930   4.959 -0.8257  1.0817 -1.7624
  568MOL0     H74939   0.217   2.914   4.936  2.6670  0.4032 -1.8891
  568MOL0     H74940  -0.134   2.890   5.059 -1.5000 -0.2723  0.8942
  568MOL0     H74941  -0.404   2.889   5.048 -1.1990  3.1685 -1.6316
  568MOL0     H74942  -0.620   2.677   4.798 -2.9857 -1.3472 -4.1582
  568MOL0     H74943  -0.564   2.776   4.658  1.6819 -1.5762  0.1739
  568MOL0     H74944  -0.796   2.796   4.663 -3.0422  2.8161 -0.5971
  568MOL0     H74945  -0.730   2.944   4.718  0.9425 -0.1672  1.4250
  568MOL0     H74946  -0.788   2.892   4.951 -1.4347  2.0679 -0.7599
  568MOL0     H74947  -0.856   2.740   4.917  2.5124  0.0239  1.7615
  568MOL0     H74948  -0.945   3.026   4.849  3.3109 -0.4297 -0.4968
  568MOL0     H74949  -1.021   2.896   4.766  1.3336  3.6014 -0.9996
  568MOL0     H74950  -1.032   2.923   5.075  1.4127  0.1864 -0.2900
  568MOL0     H74951  -1.132   2.816   4.964 -0.3798  0.5097 -0.5601
  568MOL0     H74952  -1.180   3.037   4.850  0.7685 -3.4389  0.1196
  568MOL0     H74953  -1.119   3.116   5.009 -0.0811  0.2356  1.2031
  568MOL0     H74954  -1.350   2.917   4.977 -1.5127  0.8646 -0.5866
  568MOL0     H74955  -1.290   2.981   5.124  2.2060 -4.3786 -0.9185
  568MOL0     H74956  -1.491   3.134   5.055  1.5666  0.9682  1.3957
  568MOL0     H74957  -1.422   3.161   4.908  1.2286  0.1316 -0.4484
  568MOL0     H74958  -0.376   2.700   4.665 -3.7591 -1.0481  1.8116
  568MOL0     H74959  -0.118   2.714   4.677 -0.5487 -0.7214 -1.1822
  568MOL0     H74960   0.237   2.491   5.023  2.0947 -0.4245  1.3748
  568MOL0     H74961   0.482   2.512   5.045 -0.0915 -0.4989 -1.6958
  568MOL0     H74962   2.626   2.311   5.014  2.7019  0.5271  1.0551
  568MOL0     H74963   2.822   2.177   5.076  1.7723 -2.6094 -1.4769
  568MOL0     H74964   3.052   1.949   5.446 -1.4436  1.1613 -1.5314
  568MOL0     H74965   3.250   1.813   5.480 -1.5149 -0.3124  1.9712
  568MOL0     H74966   3.422   1.508   5.512 -1.8597  2.1667  4.0051
  568MOL0     H74967   3.392   1.678   5.503 -2.9154 -0.8088 -0.1908
  568MOL0     H74968   3.639   1.569   5.405  0.1221 -0.2908 -0.7239
  568MOL0     H74969   3.543   1.526   5.273 -4.1001 -1.0707  0.9335
  568MOL0     H74970   3.454   1.779   5.283 -0.2085  0.4495 -0.5781
  568MOL0     H74971   3.606   1.746   5.207  0.3372 -0.0231 -0.2379
  568MOL0     H74972   3.577   1.827   5.499  1.4151 -0.0362  0.5985
  568MOL0     H74973   3.726   1.803   5.432 -0.5134  1.9546  2.2928
  568MOL0     H74974   3.663   2.202   5.286  1.1251  2.0260  2.8485
  568MOL0     H74975   3.118   1.534   5.189 -2.6611 -1.1125  3.0911
  568MOL0     H74976   2.948   1.695   5.117 -1.4887  0.5389  2.3114
  569MOL0     O74977  11.030   2.354   0.286  0.2374 -0.0842 -0.2968
  569MOL0     C74978  11.047   2.379   0.403  0.4209  0.8845  0.7094
  569MOL0     O74979  11.007   2.488   0.474 -0.2053 -0.0896  0.1299
  569MOL0     C74980  10.913   2.579   0.436  0.5018  0.9166  0.5363
  569MOL0     C74981  10.920   2.703   0.504 -0.1120  0.1881  0.7712
  569MOL0     C74982  10.824   2.800   0.482  0.1254  0.2412  0.1759
  569MOL0     C74983  10.719   2.775   0.392 -0.2469 -0.4974 -0.0557
  569MOL0     O74984  10.639   2.879   0.365 -0.0785 -0.0343  0.0291
  569MOL0     C74985  10.502   2.839   0.347  0.5241  0.0649 -0.9552
  569MOL0     C74986  10.422   2.969   0.323 -0.2940  0.3268 -0.3316
  569MOL0     C74987  10.270   2.936   0.298  0.0912 -0.5413 -0.0866
  569MOL0     C74988  10.200   3.060   0.249 -0.5469 -0.2652 -0.6279
  569MOL0     C74989  10.054   3.049   0.245  0.7224  0.1022  0.2310
  569MOL0     C74990   9.999   2.957   0.139 -0.3938  0.0555 -0.0339
  569MOL0     C74991   9.840   2.955   0.134 -0.1388  0.2685 -0.7645
  569MOL0     C74992   9.772   2.930   0.273  0.8523 -0.3266 -0.4005
  569MOL0     N74993   9.630   2.895   0.259  0.0706  0.6677 -0.1004
  569MOL0     C74994   9.552   2.896   0.145 -0.6465  0.6012 -0.1032
  569MOL0     C74995   9.420   2.878   0.181 -0.0494  0.1252 -0.4121
  569MOL0     C74996   9.305   2.880   0.087  0.0664  0.2345 -0.0288
  569MOL0     C74997   9.287   2.749   0.008  0.4812  0.6686 -0.2733
  569MOL0     C74998   9.232   2.634   0.092 -0.2875 -0.2138 -0.1237
  569MOL0     C74999   9.191   2.514   0.001 -0.1955  0.3386  0.1938
  569MOL0     O75000   9.095   2.432   0.073 -0.5259  0.3188  0.7239
  569MOL0     C75001   8.962   2.448   0.050  0.3983  0.1745  0.4599
  569MOL0     C75002   8.876   2.349   0.098 -0.5007 -0.2840  0.9741
  569MOL0     C75003   8.740   2.357   0.090  0.2100 -0.7186  0.6586
  569MOL0     C75004   8.681   2.471   0.023 -0.4308 -0.5409 -0.0000
  569MOL0     C75005   8.534   2.480   0.016 -0.4963 -0.0455  0.2491
  569MOL0     O75006   8.461   2.378   0.064 -0.2795  0.3669 -0.4412
  569MOL0     C75007   8.330   2.389   0.094  0.2166  0.0453 -0.5656
  569MOL0     C75008   8.261   2.498   0.144 -0.0794 -0.4021  0.3967
  569MOL0     C75009   8.119   2.498   0.164  0.2279 -0.0633 -0.5914
  569MOL0     C75010   8.049   2.377   0.130  0.3094 -0.0120 -0.3790
  569MOL0     O75011   7.911   2.378   0.142 -0.1413 -0.3247  0.2108
  569MOL0     C75012   7.847   2.252   0.183  0.4981 -1.2889  0.4142
  569MOL0     C75013   7.714   2.264   0.259 -0.3797  0.0529 -0.5384
  569MOL0     C75014   7.626   2.140   0.265 -0.9547  0.2129 -0.3223
  569MOL0     C75015   7.513   2.156   0.355 -0.0232 -0.0052 -0.5572
  569MOL0     C75016   7.430   2.032   0.354 -0.8585 -0.8598  0.6179
  569MOL0     C75017   7.308   2.044   0.442 -0.8121 -0.8017  0.2063
  569MOL0     C75018   7.242   1.912   0.441 -0.2632  0.0314  0.3077
  569MOL0     C75019   7.118   1.917   0.536 -0.3589 -0.0647 -0.1299
  569MOL0    Cl75020   7.058   1.745   0.557 -0.2890 -0.2257 -0.1635
  569MOL0     C75021   8.118   2.269   0.082 -0.5344 -0.6081 -0.2136
  569MOL0     C75022   8.254   2.278   0.055  0.6297 -0.1120 -0.8429
  569MOL0     O75023   8.493   2.592  -0.022 -0.2531  0.3333  0.3272
  569MOL0     C75024   8.762   2.572  -0.020 -0.7453 -0.0074 -0.7928
  569MOL0     C75025   8.896   2.564  -0.002  1.0963 -0.3459 -1.0208
  569MOL0     N75026   9.421   2.897   0.323  0.4207 -0.4982  0.5055
  569MOL0     N75027   9.547   2.912   0.363 -0.6788 -0.6451 -0.2561
  569MOL0     C75028  10.717   2.659   0.318 -0.0750  0.1255  0.3922
  569MOL0     C75029  10.815   2.563   0.332 -0.3336  0.4451 -0.4440
  569MOL0     C75030  11.133   2.293   0.482  1.0750 -0.1339 -0.6017
  569MOL0     C75031  11.166   2.326   0.615 -0.2189  0.6263 -0.2258
  569MOL0     C75032  11.247   2.221   0.684  0.1219 -0.7609 -0.4200
  569MOL0     C75033  11.280   2.099   0.637  0.4760 -0.2570  0.0607
  569MOL0     O75034  11.354   2.019   0.714  0.2344  0.9516  0.5771
  569MOL0     C75035  11.427   1.915   0.639  0.6361  0.6730 -1.3194
  569MOL0     C75036  11.385   1.774   0.685 -0.3718 -1.0611  0.1753
  569MOL0     C75037  11.413   1.742   0.830  0.9347 -0.3416 -0.7251
  569MOL0     C75038  11.393   1.607   0.864  0.7283  0.8838 -0.1416
  569MOL0     C75039  11.353   1.559   0.996 -0.4029 -0.3740 -0.1333
  569MOL0     C75040  11.317   1.525   1.105  0.0517  0.2787 -0.1905
  569MOL0     C75041  11.226   2.064   0.510 -0.2187  0.5729 -0.2620
  569MOL0     C75042  11.153   2.159   0.439 -0.4835  0.3669 -0.7175
  569MOL0     H75043  10.979   2.713   0.594  0.8730 -0.7562  0.2517
  569MOL0     H75044  10.836   2.899   0.527 -0.2812  0.5030 -0.2917
  569MOL0     H75045  10.461   2.789   0.435  0.4012  1.1424 -0.3868
  569MOL0     H75046  10.488   2.782   0.255  0.6369  0.5882 -1.3047
  569MOL0     H75047  10.456   3.017   0.231 -0.7236  2.0596  0.3747
  569MOL0     H75048  10.429   3.039   0.406  0.1556 -1.3665  1.1382
  569MOL0     H75049  10.224   2.900   0.391  0.3942  3.5080  1.8400
  569MOL0     H75050  10.264   2.865   0.215 -1.5567  1.8020 -2.1216
  569MOL0     H75051  10.234   3.143   0.312  0.3128 -0.0944 -1.2839
  569MOL0     H75052  10.241   3.079   0.149  2.3464 -1.8368  0.1467
  569MOL0     H75053  10.026   3.151   0.218 -0.3867 -0.6600 -1.6850
  569MOL0     H75054  10.015   3.025   0.344 -0.8384 -1.4205 -0.6987
  569MOL0     H75055  10.039   2.856   0.151 -2.7399 -0.6731  2.7736
  569MOL0     H75056  10.032   2.990   0.040 -1.1810 -1.0895 -0.6883
  569MOL0     H75057   9.809   3.047   0.083 -0.7619 -0.2755 -1.3950
  569MOL0     H75058   9.796   2.880   0.067 -3.7846  2.3828 -1.0569
  569MOL0     H75059   9.789   3.017   0.337 -1.0300  0.3523 -0.7459
  569MOL0     H75060   9.807   2.837   0.320 -0.8629 -0.3436  0.9621
  569MOL0     H75061   9.593   2.911   0.046 -0.4969  4.1136  0.3523
  569MOL0     H75062   9.328   2.964   0.021 -2.2251  0.5624 -0.4650
  569MOL0     H75063   9.214   2.895   0.146 -1.6305  1.2530 -2.7086
  569MOL0     H75064   9.390   2.730  -0.025  1.4560  0.5781  2.4722
  569MOL0     H75065   9.219   2.763  -0.076  0.3218  2.7384  0.1365
  569MOL0     H75066   9.307   2.600   0.164 -0.0793 -1.1560 -0.7509
  569MOL0     H75067   9.143   2.663   0.148  2.1137  1.6769  3.0887
  569MOL0     H75068   9.276   2.456  -0.034  0.5561  0.1524  2.1589
  569MOL0     H75069   9.136   2.550  -0.086  0.9900  2.9957  0.4590
  569MOL0     H75070   8.920   2.258   0.139  1.8402  0.2415 -0.1916
  569MOL0     H75071   8.683   2.278   0.137 -1.4829  1.2465  2.0530
  569MOL0     H75072   8.313   2.586   0.181 -2.6135  0.1179  3.1110
  569MOL0     H75073   8.076   2.586   0.211 -0.1560  1.1288 -3.0065
  569MOL0     H75074   7.912   2.188   0.243 -0.8964 -1.7536  1.4940
  569MOL0     H75075   7.824   2.192   0.095  1.5921  0.5198 -1.1781
  569MOL0     H75076   7.667   2.346   0.204 -0.9430 -0.1664 -0.3914
  569MOL0     H75077   7.734   2.305   0.359 -2.1944  0.8116 -0.4544
  569MOL0     H75078   7.692   2.059   0.299 -2.6369 -0.3962  1.6652
  569MOL0     H75079   7.582   2.115   0.168 -0.6937  0.8102 -0.6011
  569MOL0     H75080   7.549   2.170   0.457 -3.8733 -3.5875  1.5690
  569MOL0     H75081   7.448   2.240   0.329 -0.1719  0.2698  0.6676
  569MOL0     H75082   7.496   1.950   0.384 -0.0638 -0.0687  1.0992
  569MOL0     H75083   7.388   2.021   0.254  0.3222 -0.8874  0.1168
  569MOL0     H75084   7.238   2.123   0.412  0.7048  0.3506 -0.4486
  569MOL0     H75085   7.341   2.066   0.544  2.0220 -0.4616 -0.6801
  569MOL0     H75086   7.189   1.882   0.350 -0.7938  0.5784  0.4298
  569MOL0     H75087   7.309   1.836   0.480  0.5303 -0.3458 -1.6510
  569MOL0     H75088   7.038   1.985   0.505 -1.4390 -1.2497  0.0045
  569MOL0     H75089   7.164   1.941   0.632 -0.3994 -1.9691  0.4106
  569MOL0     H75090   8.057   2.186   0.045 -0.6891 -0.9772  0.8447
  569MOL0     H75091   8.305   2.202  -0.002  0.9828 -0.6838  0.2154
  569MOL0     H75092   8.723   2.656  -0.077 -1.6351 -0.1977 -0.4849
  569MOL0     H75093   8.962   2.641  -0.041  3.4367 -2.9303 -2.4956
  569MOL0     H75094  10.639   2.630   0.248 -1.7396 -0.4974  2.4093
  569MOL0     H75095  10.804   2.476   0.269  0.0453  2.8365 -4.1106
  569MOL0     H75096  11.127   2.416   0.661 -1.6207  0.3608 -0.8404
  569MOL0     H75097  11.270   2.247   0.787 -3.4622  1.2107  0.0625
  569MOL0     H75098  11.529   1.943   0.665 -0.8521  4.7441  0.8999
  569MOL0     H75099  11.431   1.932   0.531 -0.2714 -0.8210 -1.6194
  569MOL0     H75100  11.276   1.768   0.680 -0.4565 -1.3578  1.8442
  569MOL0     H75101  11.440   1.710   0.615 -0.6196 -2.1003  0.9141
  569MOL0     H75102  11.349   1.811   0.886  1.9683 -0.4001  0.6013
  569MOL0     H75103  11.512   1.772   0.866  1.5243 -0.9668 -1.7689
  569MOL0     H75104  11.303   1.586   0.805 -1.1442  0.7753  2.6134
  569MOL0     H75105  11.483   1.557   0.827  1.1142  1.7072 -0.3461
  569MOL0     H75106  11.294   1.501   1.207  0.3921 -0.2470 -0.2347
  569MOL0     H75107  11.236   1.970   0.457 -2.3302  0.6845 -0.9709
  569MOL0     H75108  11.105   2.131   0.346 -3.7889  0.5387  0.7759
  570MOL0     O75109   1.247  10.468   1.292  0.4974 -0.3200 -0.3167
  570MOL0     C75110   1.326  10.410   1.217  0.9823  1.0827 -0.5706
  570MOL0     O75111   1.321  10.277   1.188 -0.8285  0.7996  0.1961
  570MOL0     C75112   1.221  10.189   1.210 -0.3764 -0.8490  0.5583
  570MOL0     C75113   1.090  10.230   1.233  0.1896  0.3419  0.0746
  570MOL0     C75114   0.985  10.141   1.244  0.4856 -0.1859  0.7082
  570MOL0     C75115   1.013  10.011   1.224  0.4011  0.5530 -0.0663
  570MOL0     O75116   0.921   9.913   1.244 -0.1077 -0.0533 -0.0221
  570MOL0     C75117   0.816   9.898   1.153  0.7634  0.4925  0.0986
  570MOL0     C75118   0.780   9.745   1.169 -0.1084  0.1507  0.7003
  570MOL0     C75119   0.900   9.649   1.144 -0.6253  0.7088 -0.4475
  570MOL0     C75120   0.972   9.649   1.009 -0.6040 -0.5068  0.3582
  570MOL0     C75121   1.057   9.529   0.971 -0.7660  0.3098 -0.5231
  570MOL0     C75122   1.186   9.510   1.054  0.0350 -0.9316  0.3989
  570MOL0     C75123   1.273   9.400   1.000  0.8727  0.1167  1.2586
  570MOL0     C75124   1.386   9.442   0.900  0.3060  0.0556  0.2009
  570MOL0     N75125   1.495   9.519   0.969 -0.5476  0.3253 -0.0619
  570MOL0     C75126   1.535   9.645   0.923 -0.2540 -0.6809 -0.1533
  570MOL0     C75127   1.623   9.689   1.016 -0.0719  0.6078  0.2456
  570MOL0     C75128   1.688   9.831   1.023 -0.6126  0.3293  0.3567
  570MOL0     C75129   1.745   9.872   1.160  0.3653 -0.7219  0.3426
  570MOL0     C75130   1.640   9.915   1.256  0.1116  1.0197 -0.5120
  570MOL0     C75131   1.555   9.803   1.305  0.0837  0.3125  0.5246
  570MOL0     O75132   1.503   9.831   1.433  0.2265  0.3756 -0.8964
  570MOL0     C75133   1.410   9.740   1.477  0.1852  0.5695  0.1861
  570MOL0     C75134   1.369   9.620   1.409 -0.8251  0.3107 -0.2920
  570MOL0     C75135   1.278   9.534   1.459 -0.3728 -0.2353 -0.1193
  570MOL0     C75136   1.210   9.555   1.587 -0.0574  0.5180  0.4736
  570MOL0     C75137   1.118   9.456   1.629 -0.7897 -0.0232 -0.2189
  570MOL0     O75138   1.132   9.411   1.760 -1.0779  0.0284  0.6506
  570MOL0     C75139   1.062   9.298   1.784  0.3994  0.6955  0.9545
  570MOL0     C75140   1.107   9.171   1.739 -0.1820 -1.0420  0.4554
  570MOL0     C75141   1.021   9.057   1.756  0.7856 -0.3058 -0.8520
  570MOL0     C75142   0.897   9.067   1.818 -0.5553 -0.2470  0.5560
  570MOL0     O75143   0.816   8.957   1.816  0.5105 -0.1096  0.0105
  570MOL0     C75144   0.681   8.971   1.869  0.3461 -0.0378 -0.4599
  570MOL0     C75145   0.621   8.833   1.888  0.4098  0.2698  0.0087
  570MOL0     C75146   0.537   8.803   1.763  0.1058  0.8792  0.4254
  570MOL0     C75147   0.490   8.654   1.759 -0.4218  0.9798 -0.0491
  570MOL0     C75148   0.382   8.613   1.649 -0.1635 -0.2429 -0.0003
  570MOL0     C75149   0.260   8.693   1.684 -0.3279  0.1564 -0.5267
  570MOL0     C75150   0.148   8.636   1.609 -0.3917 -0.5040 -1.2518
  570MOL0     C75151   0.028   8.721   1.625  0.5541  0.0635 -0.5246
  570MOL0    Cl75152  -0.122   8.626   1.593 -0.4609 -0.0394 -0.2912
  570MOL0     C75153   0.850   9.203   1.851  0.1479 -0.1659  0.0371
  570MOL0     C75154   0.939   9.311   1.848  0.1690 -0.7714  0.1210
  570MOL0     O75155   1.035   9.412   1.546  0.6119 -1.1088  0.2982
  570MOL0     C75156   1.255   9.668   1.660  0.6744 -0.5186 -0.8179
  570MOL0     C75157   1.353   9.768   1.603  0.5150  0.1646 -0.1779
  570MOL0     N75158   1.643   9.587   1.111  0.2490 -0.3264  0.0286
  570MOL0     N75159   1.571   9.486   1.081 -0.2033  0.1511 -0.1290
  570MOL0     C75160   1.139   9.962   1.190  0.0912  0.1778  1.1748
  570MOL0     C75161   1.242  10.051   1.179  0.2026  0.5212 -0.0823
  570MOL0     C75162   1.443  10.493   1.174  0.0460 -0.0645 -0.1314
  570MOL0     C75163   1.448  10.631   1.183 -0.9565  0.2829 -0.2723
  570MOL0     C75164   1.571  10.696   1.159 -1.3531 -0.4716 -0.2074
  570MOL0     C75165   1.682  10.630   1.099  0.1143 -0.5603 -0.0772
  570MOL0     O75166   1.790  10.711   1.055 -0.5239  0.4281  0.5093
  570MOL0     C75167   1.927  10.682   1.104  0.2323  0.3156  0.2313
  570MOL0     C75168   2.006  10.809   1.132  0.5451 -0.6933 -0.7222
  570MOL0     C75169   2.034  10.890   1.008  0.9842  0.4331  0.0608
  570MOL0     C75170   2.158  10.978   1.016  0.3996  1.5528  0.3567
  570MOL0     C75171   2.283  10.902   1.046  0.4389  0.8443 -0.5339
  570MOL0     C75172   2.376  10.829   1.067  0.3496 -0.0855  0.1383
  570MOL0     C75173   1.661  10.498   1.070 -0.2354  0.2071  0.3145
  570MOL0     C75174   1.546  10.424   1.107  0.4569  0.8104 -0.3207
  570MOL0     H75175   1.071  10.334   1.258 -0.2661  0.7054 -1.6646
  570MOL0     H75176   0.888  10.179   1.275 -1.1470 -2.9607 -0.5571
  570MOL0     H75177   0.846   9.912   1.049 -1.2106 -1.7786 -0.8881
  570MOL0     H75178   0.737   9.965   1.189  1.9638  1.4740  0.9462
  570MOL0     H75179   0.709   9.710   1.094  1.1478  0.6258 -0.7565
  570MOL0     H75180   0.737   9.737   1.270 -1.6808 -0.6642 -0.0081
  570MOL0     H75181   0.868   9.546   1.161  1.4574  0.1056  0.1841
  570MOL0     H75182   0.975   9.646   1.224 -1.1225 -1.3211  0.0087
  570MOL0     H75183   0.901   9.655   0.926 -0.1878 -2.4124 -0.1690
  570MOL0     H75184   1.034   9.739   1.011 -0.6840 -0.4635  2.0131
  570MOL0     H75185   1.101   9.550   0.873  0.2011 -2.5192 -0.7648
  570MOL0     H75186   1.001   9.435   0.968 -1.9632  1.0270 -1.7426
  570MOL0     H75187   1.148   9.493   1.155 -2.6940 -1.9461 -0.7031
  570MOL0     H75188   1.245   9.603   1.054  0.5275 -1.2215 -1.0886
  570MOL0     H75189   1.316   9.358   1.091  1.1685  2.3367  2.1962
  570MOL0     H75190   1.206   9.324   0.960 -1.7906  1.4224  3.0097
  570MOL0     H75191   1.343   9.502   0.818  1.2322 -0.6569 -0.8229
  570MOL0     H75192   1.425   9.351   0.853  0.5908  0.0103  0.5247
  570MOL0     H75193   1.506   9.700   0.834  1.4153 -1.0494 -0.9630
  570MOL0     H75194   1.614   9.907   0.997  0.1287  1.3872  1.2516
  570MOL0     H75195   1.762   9.813   0.945 -0.8468 -2.7393  0.7002
  570MOL0     H75196   1.814   9.954   1.137  1.8419 -2.5020 -2.2903
  570MOL0     H75197   1.802   9.791   1.207  1.7807  0.9016  1.5290
  570MOL0     H75198   1.678   9.966   1.344  2.5775 -0.2145 -0.7899
  570MOL0     H75199   1.567   9.975   1.200 -2.7976  0.1317  2.0250
  570MOL0     H75200   1.616   9.715   1.324 -1.9865 -1.4447 -0.4829
  570MOL0     H75201   1.468   9.785   1.241  0.6444 -0.1882 -0.0937
  570MOL0     H75202   1.406   9.582   1.314  1.1433 -0.1028  0.6006
  570MOL0     H75203   1.258   9.453   1.390 -0.6650  0.3058 -0.6815
  570MOL0     H75204   1.206   9.160   1.695 -0.1807  1.1071 -0.1780
  570MOL0     H75205   1.053   8.961   1.716  2.4788 -0.1844  0.1054
  570MOL0     H75206   0.620   9.017   1.790 -1.9800 -4.0079 -1.2535
  570MOL0     H75207   0.677   9.021   1.967  0.8791 -3.5340  1.4904
  570MOL0     H75208   0.540   8.830   1.962 -1.8856  1.2962 -2.3048
  570MOL0     H75209   0.700   8.762   1.916 -1.0646 -0.7082  2.0274
  570MOL0     H75210   0.599   8.815   1.674 -0.4451 -1.0888 -0.2844
  570MOL0     H75211   0.453   8.872   1.761  0.2536  1.0690  0.7562
  570MOL0     H75212   0.585   8.601   1.741 -1.4384 -1.0276  0.1703
  570MOL0     H75213   0.458   8.629   1.861  0.0956  2.8828  0.6220
  570MOL0     H75214   0.372   8.504   1.658  2.6047 -0.5532  0.2346
  570MOL0     H75215   0.401   8.636   1.544 -2.2615  3.1158  0.2317
  570MOL0     H75216   0.264   8.801   1.667 -0.3020  0.0973 -0.8988
  570MOL0     H75217   0.247   8.687   1.793  3.1633 -1.4400 -0.0478
  570MOL0     H75218   0.164   8.629   1.501 -1.8166 -1.0961 -1.4420
  570MOL0     H75219   0.131   8.534   1.644  0.2379  0.2113  1.3733
  570MOL0     H75220   0.040   8.813   1.567  0.3174  0.9188  0.7515
  570MOL0     H75221   0.014   8.750   1.729 -0.9445  2.3224 -1.2674
  570MOL0     H75222   0.750   9.218   1.891  0.3490 -2.3978  1.5729
  570MOL0     H75223   0.914   9.411   1.882 -2.8336 -0.2559 -3.0410
  570MOL0     H75224   1.216   9.690   1.758 -0.0054 -2.5736 -0.5856
  570MOL0     H75225   1.393   9.856   1.652  2.2353 -0.9755  0.5567
  570MOL0     H75226   1.171   9.860   1.173  2.4167  0.7539  1.6552
  570MOL0     H75227   1.340  10.027   1.139  0.4137  2.5326 -0.9066
  570MOL0     H75228   1.365  10.688   1.225  0.3029  3.3401 -1.5986
  570MOL0     H75229   1.577  10.802   1.182  1.3637 -1.1485  3.0586
  570MOL0     H75230   1.981  10.627   1.027  2.7497  0.7966  1.5448
  570MOL0     H75231   1.904  10.628   1.196 -0.5392  0.7285  0.2924
  570MOL0     H75232   1.949  10.869   1.204  1.7512 -0.3376 -0.0364
  570MOL0     H75233   2.095  10.770   1.182  1.0257  1.1974 -0.0097
  570MOL0     H75234   1.947  10.954   0.989  0.7702  0.0513 -0.2706
  570MOL0     H75235   2.036  10.829   0.917 -1.6253  1.5520 -0.8690
  570MOL0     H75236   2.171  11.035   0.924 -2.8400 -0.6468 -1.6767
  570MOL0     H75237   2.148  11.044   1.103 -1.7808  1.5373  0.1822
  570MOL0     H75238   2.469  10.789   1.102 -0.7377 -1.0755  2.0629
  570MOL0     H75239   1.744  10.444   1.024  0.0902  0.5164  0.5313
  570MOL0     H75240   1.539  10.318   1.087  2.5075  0.7670 -0.9661
  571MOL0     O75241   8.102  11.038   6.603  0.6871 -0.1464  0.0005
  571MOL0     C75242   8.035  11.072   6.506 -0.3336 -0.1541 -0.7530
  571MOL0     O75243   7.904  11.129   6.516 -0.1143  0.8702  0.2874
  571MOL0     C75244   7.828  11.124   6.626 -0.0565 -0.1861 -0.4324
  571MOL0     C75245   7.699  11.069   6.619 -0.2955  0.1245  0.1715
  571MOL0     C75246   7.614  11.070   6.728 -0.0703 -0.8929  0.3229
  571MOL0     C75247   7.656  11.131   6.846 -0.5968 -0.8618 -0.0901
  571MOL0     O75248   7.572  11.152   6.949  0.2618 -0.2173 -0.6564
  571MOL0     C75249   7.549  11.023   7.006 -0.0741  0.0036 -0.3968
  571MOL0     C75250   7.473  11.052   7.132 -0.1976  0.1782 -0.3707
  571MOL0     C75251   7.424  10.930   7.206  0.3305 -0.4043  0.3916
  571MOL0     C75252   7.325  10.973   7.322  0.3304 -0.0833  0.2380
  571MOL0     C75253   7.279  10.851   7.410  0.1998 -0.0277  1.0774
  571MOL0     C75254   7.184  10.891   7.504  0.3459  1.1005  0.3282
  571MOL0     C75255   7.161  10.778   7.608 -0.1109  0.1948  0.3748
  571MOL0     C75256   7.052  10.819   7.706  0.3276 -0.8249  1.2345
  571MOL0     N75257   6.924  10.786   7.648  0.5602 -0.3590  0.2252
  571MOL0     C75258   6.833  10.873   7.597 -0.6578 -0.8229 -0.3071
  571MOL0     C75259   6.740  10.796   7.533  0.1050 -0.2964 -0.1526
  571MOL0     C75260   6.612  10.840   7.463 -0.3498  0.0864  0.3948
  571MOL0     C75261   6.508  10.879   7.570  1.0042  0.4520  0.3083
  571MOL0     C75262   6.398  10.955   7.505 -0.1488 -0.0239 -0.5190
  571MOL0     C75263   6.288  10.987   7.607 -0.2674  0.0688 -0.1196
  571MOL0     O75264   6.235  10.861   7.650  1.0578  0.5783 -1.2198
  571MOL0     C75265   6.108  10.852   7.711  0.4034  0.2250 -0.5196
  571MOL0     C75266   6.062  10.725   7.740  0.0262 -0.0491 -0.6791
  571MOL0     C75267   5.935  10.704   7.792 -0.2270 -0.3677  0.0588
  571MOL0     C75268   5.859  10.815   7.828  0.0727 -0.1255  0.0571
  571MOL0     C75269   5.721  10.782   7.878 -1.0344 -0.5494 -0.1817
  571MOL0     O75270   5.691  10.653   7.891  0.0071 -0.2160 -0.4694
  571MOL0     C75271   5.568  10.622   7.939 -0.7443  0.2559  0.0541
  571MOL0     C75272   5.547  10.621   8.075  0.3426  0.2168 -0.3087
  571MOL0     C75273   5.415  10.595   8.128  0.1780  0.1910 -0.5111
  571MOL0     C75274   5.312  10.571   8.044 -0.4031  0.0457  0.1871
  571MOL0     O75275   5.188  10.590   8.092  0.7015 -0.2546  0.0752
  571MOL0     C75276   5.082  10.617   8.006  0.9802 -0.4195 -0.6297
  571MOL0     C75277   4.958  10.576   8.089  0.1838  0.2623 -0.3997
  571MOL0     C75278   4.830  10.632   8.030  0.3186  0.4508 -0.1087
  571MOL0     C75279   4.702  10.549   8.070  0.0812 -0.6215 -1.0096
  571MOL0     C75280   4.571  10.608   8.013  0.2625  0.2021  0.1868
  571MOL0     C75281   4.459  10.508   8.025 -0.1030 -0.1306 -0.6847
  571MOL0     C75282   4.350  10.554   7.932 -0.1732  0.3498  0.2469
  571MOL0     C75283   4.211  10.513   7.981  0.4699 -0.1140 -0.5823
  571MOL0    Cl75284   4.184  10.334   7.969  0.0583  0.0965 -0.3112
  571MOL0     C75285   5.336  10.556   7.901  0.2383  1.0435 -0.1543
  571MOL0     C75286   5.466  10.582   7.855  0.0977  0.7048 -0.2825
  571MOL0     O75287   5.652  10.882   7.904 -0.3083  0.2087 -0.0881
  571MOL0     C75288   5.905  10.946   7.806  0.7909 -0.9829  0.6730
  571MOL0     C75289   6.026  10.966   7.737  0.6841 -0.3365 -0.1174
  571MOL0     N75290   6.775  10.660   7.553  0.3449 -0.5170  0.3013
  571MOL0     N75291   6.880  10.663   7.628 -0.0221  0.3557  0.8733
  571MOL0     C75292   7.782  11.190   6.858  0.4902  0.7421  0.3583
  571MOL0     C75293   7.874  11.179   6.752  0.6503  0.8983 -0.9028
  571MOL0     C75294   8.077  11.046   6.368 -0.1043 -0.3945  0.3645
  571MOL0     C75295   7.982  11.058   6.260 -0.5458  0.1843 -0.0576
  571MOL0     C75296   8.015  11.031   6.126 -0.5037  0.1143 -0.2860
  571MOL0     C75297   8.144  10.967   6.097 -0.3508  0.6616 -0.2019
  571MOL0     O75298   8.190  10.938   5.973 -0.1926  0.2734 -0.3375
  571MOL0     C75299   8.124  11.018   5.872  0.3025 -0.4335 -0.5509
  571MOL0     C75300   8.238  11.101   5.802  0.0146  0.3619  0.2562
  571MOL0     C75301   8.323  11.014   5.715  0.2085 -0.5506 -0.1607
  571MOL0     C75302   8.402  11.104   5.619  0.6395 -0.3208  0.2627
  571MOL0     C75303   8.324  11.176   5.520  0.6425 -0.5300  1.0471
  571MOL0     C75304   8.265  11.229   5.430  0.2341  0.2075  1.3695
  571MOL0     C75305   8.227  10.943   6.206  0.3622 -0.1629  0.4465
  571MOL0     C75306   8.196  10.990   6.332 -0.0844 -0.5977  0.2394
  571MOL0     H75307   7.678  11.017   6.526 -0.7614 -1.3907  1.0831
  571MOL0     H75308   7.514  11.032   6.708  0.4116 -1.9236 -0.2218
  571MOL0     H75309   7.646  10.977   7.027  0.0447  0.2488 -0.4027
  571MOL0     H75310   7.485  10.966   6.939 -0.9253  0.2714  0.1685
  571MOL0     H75311   7.393  11.121   7.103  1.2387  2.0349 -0.1558
  571MOL0     H75312   7.537  11.106   7.203 -0.4076  0.9282 -0.7362
  571MOL0     H75313   7.502  10.865   7.247  0.7572 -0.5261 -0.5749
  571MOL0     H75314   7.369  10.869   7.133  0.3148  2.1534 -1.9099
  571MOL0     H75315   7.364  11.052   7.386 -1.4023  0.0920  1.1582
  571MOL0     H75316   7.239  11.017   7.269 -0.0258 -0.4719  0.4829
  571MOL0     H75317   7.365  10.808   7.462  1.1493  1.0971  0.4800
  571MOL0     H75318   7.223  10.774   7.356  1.0588 -1.1506  1.7412
  571MOL0     H75319   7.088  10.908   7.454  0.6621 -1.7160 -1.4923
  571MOL0     H75320   7.213  10.982   7.556  1.9848  0.5317  0.4670
  571MOL0     H75321   7.130  10.681   7.567 -1.2557  1.2044 -1.2563
  571MOL0     H75322   7.246  10.764   7.676 -0.6480 -0.6360  0.8998
  571MOL0     H75323   7.062  10.924   7.737  2.3491 -0.2118 -1.1577
  571MOL0     H75324   7.063  10.753   7.792  2.2797 -1.6652  0.4073
  571MOL0     H75325   6.821  10.980   7.597 -1.4941 -0.8804 -2.2331
  571MOL0     H75326   6.580  10.759   7.397 -0.7875  0.7297 -0.2016
  571MOL0     H75327   6.645  10.929   7.408  0.6111 -0.2094  0.4630
  571MOL0     H75328   6.553  10.939   7.649  3.2987  1.0619 -1.3699
  571MOL0     H75329   6.466  10.788   7.613  0.7239  1.0471  1.3404
  571MOL0     H75330   6.438  11.051   7.472 -3.6202  1.9915  0.6470
  571MOL0     H75331   6.355  10.896   7.424  0.9117 -0.6681 -0.6418
  571MOL0     H75332   6.211  11.041   7.550 -1.4144 -1.7794 -0.4127
  571MOL0     H75333   6.333  11.041   7.690  2.8792  0.8152 -2.1415
  571MOL0     H75334   6.122  10.636   7.718  0.8154  0.8626 -2.4643
  571MOL0     H75335   5.909  10.601   7.815  0.8695 -0.7314 -0.2407
  571MOL0     H75336   5.626  10.623   8.150  0.3449 -1.1957 -0.2510
  571MOL0     H75337   5.413  10.612   8.235 -0.0407  1.4468 -0.7013
  571MOL0     H75338   5.082  10.561   7.912  0.8896 -0.4861 -0.5900
  571MOL0     H75339   5.086  10.723   7.981  0.8450 -0.5667 -1.3013
  571MOL0     H75340   4.974  10.624   8.186  0.6016  0.2970 -0.4849
  571MOL0     H75341   4.960  10.467   8.091  3.7098  0.1363 -2.4436
  571MOL0     H75342   4.833  10.630   7.920 -0.2935  0.1236 -0.1284
  571MOL0     H75343   4.817  10.735   8.063 -3.9670  0.8045 -2.1411
  571MOL0     H75344   4.701  10.452   8.020 -0.7607 -0.3513 -1.5503
  571MOL0     H75345   4.694  10.535   8.178 -0.7780  0.1577 -0.9541
  571MOL0     H75346   4.586  10.632   7.907 -1.7122  0.2865 -0.0972
  571MOL0     H75347   4.550  10.705   8.060 -0.2100  0.2660 -0.1534
  571MOL0     H75348   4.423  10.507   8.129  0.7695  0.1335 -0.3760
  571MOL0     H75349   4.501  10.409   8.002  1.5492  0.9003 -2.3476
  571MOL0     H75350   4.351  10.662   7.918  1.1712  0.5196  1.5159
  571MOL0     H75351   4.361  10.508   7.834  1.4973 -2.7034  1.7327
  571MOL0     H75352   4.135  10.566   7.924  0.1653 -0.6172 -0.6529
  571MOL0     H75353   4.203  10.558   8.081 -1.9149  0.7134 -1.0911
  571MOL0     H75354   5.265  10.530   7.824 -1.6154 -1.2265  2.1551
  571MOL0     H75355   5.492  10.575   7.749  1.9471  1.7397  0.0524
  571MOL0     H75356   5.850  11.032   7.842  1.0297 -0.3924 -0.3465
  571MOL0     H75357   6.049  11.067   7.704 -2.0884  0.0937 -0.9776
  571MOL0     H75358   7.818  11.247   6.944  0.0379  1.0195  0.3625
  571MOL0     H75359   7.974  11.222   6.748  1.6057 -1.1538 -0.4665
  571MOL0     H75360   7.879  11.082   6.285 -1.1933 -3.4346  1.4582
  571MOL0     H75361   7.930  11.047   6.061  0.8521  0.7615 -1.9746
  571MOL0     H75362   8.058  11.098   5.908  3.7093  1.6264  1.6862
  571MOL0     H75363   8.078  10.954   5.796 -0.1005 -0.9645  0.1281
  571MOL0     H75364   8.190  11.178   5.741  0.4634 -0.9899 -1.9530
  571MOL0     H75365   8.299  11.162   5.869  1.0110  1.5854 -1.6710
  571MOL0     H75366   8.256  10.944   5.665 -1.3212 -0.6156  1.8535
  571MOL0     H75367   8.390  10.950   5.774  0.3974 -0.4086 -0.2186
  571MOL0     H75368   8.443  11.194   5.665 -0.4678  0.8203 -0.8807
  571MOL0     H75369   8.475  11.039   5.570 -1.5583 -2.4826 -0.3518
  571MOL0     H75370   8.209  11.270   5.349  1.7794 -0.4859 -0.1094
  571MOL0     H75371   8.328  10.903   6.200  0.6397  0.4634  0.8046
  571MOL0     H75372   8.282  10.985   6.398 -0.6578 -4.7458  0.9739
  572MOL0     O75373   4.595  10.355   5.626  0.7194 -0.1251  0.0461
  572MOL0     C75374   4.616  10.443   5.709 -0.4319  0.8405 -0.3911
  572MOL0     O75375   4.529  10.498   5.792  0.0251  1.2548  0.4683
  572MOL0     C75376   4.400  10.490   5.759  0.3780 -0.7249  0.2009
  572MOL0     C75377   4.319  10.388   5.811  0.1783  0.2709  0.6080
  572MOL0     C75378   4.187  10.381   5.778  0.4844 -0.0258 -0.3594
  572MOL0     C75379   4.130  10.475   5.696 -0.5422 -0.1800  0.6054
  572MOL0     O75380   3.999  10.473   5.660  0.4506 -0.9492  1.1020
  572MOL0     C75381   3.909  10.398   5.734 -0.1407 -0.3829  0.8180
  572MOL0     C75382   3.761  10.425   5.692 -0.1495  0.3567 -0.3613
  572MOL0     C75383   3.724  10.379   5.548  0.1116  0.0598 -0.0220
  572MOL0     C75384   3.583  10.410   5.510  0.8558  0.6737 -0.1271
  572MOL0     C75385   3.577  10.407   5.356  0.6485 -0.3943 -0.7580
  572MOL0     C75386   3.430  10.407   5.317  0.4555 -0.2942  0.0342
  572MOL0     C75387   3.414  10.408   5.167 -0.4569  0.2687 -1.0811
  572MOL0     C75388   3.281  10.351   5.126  0.3296  0.1675  0.7869
  572MOL0     N75389   3.169  10.392   5.212 -0.0682  0.1416 -0.0406
  572MOL0     C75390   3.058  10.476   5.184 -0.9196  0.2998 -0.1502
  572MOL0     C75391   2.982  10.459   5.291 -0.5505  0.0448 -0.3548
  572MOL0     C75392   2.832  10.486   5.305  0.2413  0.4278 -0.2038
  572MOL0     C75393   2.749  10.354   5.325 -0.4113 -1.7158  0.3641
  572MOL0     C75394   2.611  10.375   5.395 -0.9395 -0.2504  0.4612
  572MOL0     C75395   2.520  10.253   5.363 -0.4454 -0.1015 -0.2200
  572MOL0     O75396   2.478  10.174   5.474  0.5265  0.6136 -0.6302
  572MOL0     C75397   2.380  10.208   5.546  0.8082  1.0123 -0.4889
  572MOL0     C75398   2.307  10.104   5.611 -0.1206 -0.1622 -0.3448
  572MOL0     C75399   2.204  10.135   5.706 -0.1606  0.2819  0.3063
  572MOL0     C75400   2.170  10.266   5.740  0.1277 -0.3005  0.0401
  572MOL0     C75401   2.055  10.302   5.830  0.0568 -0.5110  0.6625
  572MOL0     O75402   2.048  10.433   5.878  0.6268  0.0035 -0.6184
  572MOL0     C75403   1.929  10.482   5.935 -0.5680  0.9278 -0.8897
  572MOL0     C75404   1.955  10.565   6.048 -0.9876 -0.2838  0.5745
  572MOL0     C75405   1.853  10.593   6.136  0.7072 -0.6519 -0.2956
  572MOL0     C75406   1.725  10.550   6.101 -0.1318  0.0719 -0.8843
  572MOL0     O75407   1.608  10.565   6.177 -0.6273 -0.2741  0.3598
  572MOL0     C75408   1.608  10.638   6.303  0.0657  0.1905  0.6563
  572MOL0     C75409   1.464  10.678   6.339 -0.4521 -0.5016 -0.7598
  572MOL0     C75410   1.409  10.572   6.432 -0.4051  0.0305 -0.0786
  572MOL0     C75411   1.272  10.623   6.478 -1.6994  0.3464  0.6213
  572MOL0     C75412   1.207  10.525   6.567  0.1020 -0.1487  0.7286
  572MOL0     C75413   1.068  10.576   6.616  0.0799 -0.0856  0.4954
  572MOL0     C75414   1.001  10.463   6.696  0.6896 -0.2909 -0.2261
  572MOL0     C75415   0.881  10.514   6.769  0.4352 -0.5391  0.6432
  572MOL0    Cl75416   0.780  10.385   6.842  0.5100 -0.3847  0.1953
  572MOL0     C75417   1.704  10.476   5.993 -0.1952 -0.0391 -0.4135
  572MOL0     C75418   1.802  10.442   5.905 -0.8241 -0.3203 -0.2376
  572MOL0     O75419   1.966  10.225   5.857 -0.3170 -0.5107 -0.7715
  572MOL0     C75420   2.237  10.369   5.675  0.6352 -0.0768 -0.2138
  572MOL0     C75421   2.337  10.339   5.573  0.1007 -0.2058 -0.5692
  572MOL0     N75422   3.040  10.366   5.377  0.4747 -0.1820  0.7706
  572MOL0     N75423   3.145  10.324   5.328 -0.2284  0.8245 -0.5641
  572MOL0     C75424   4.215  10.577   5.640  0.1472 -0.6710  0.1077
  572MOL0     C75425   4.353  10.582   5.662 -0.4019 -0.3280  0.0481
  572MOL0     C75426   4.756  10.473   5.719  0.2775  0.1336  0.0406
  572MOL0     C75427   4.841  10.457   5.608 -0.6178 -0.4125  0.6817
  572MOL0     C75428   4.972  10.492   5.620 -1.2975  0.0587  0.2182
  572MOL0     C75429   5.033  10.543   5.734  0.1052 -0.4483 -0.0770
  572MOL0     O75430   5.162  10.589   5.734 -0.2074  0.3501 -0.0380
  572MOL0     C75431   5.274  10.511   5.676 -0.6034 -0.4227 -0.6928
  572MOL0     C75432   5.387  10.486   5.779  1.2305 -0.1885 -0.9631
  572MOL0     C75433   5.509  10.403   5.727 -0.0189  0.1939  0.1143
  572MOL0     C75434   5.599  10.345   5.829 -0.2095 -0.5481 -0.6963
  572MOL0     C75435   5.706  10.266   5.761 -0.0318 -0.0241 -0.9454
  572MOL0     C75436   5.763  10.173   5.705  0.1830 -0.1491 -0.2996
  572MOL0     C75437   4.954  10.553   5.849  0.0311 -0.3891  0.0776
  572MOL0     C75438   4.815  10.526   5.839  0.9744 -0.0234  1.1381
  572MOL0     H75439   4.363  10.322   5.884  2.6791  0.8299 -0.2974
  572MOL0     H75440   4.121  10.314   5.832  1.2494  0.8015  1.7162
  572MOL0     H75441   3.903  10.425   5.840 -0.7268 -0.0557  0.7056
  572MOL0     H75442   3.935  10.294   5.713  1.9634 -0.0702  1.6214
  572MOL0     H75443   3.742  10.532   5.705  0.0196  0.1624  1.8071
  572MOL0     H75444   3.693  10.366   5.755 -1.8762  1.6103 -0.9659
  572MOL0     H75445   3.733  10.270   5.548 -1.5666 -0.1124  0.0212
  572MOL0     H75446   3.793  10.418   5.473  2.8314 -4.4332 -0.2268
  572MOL0     H75447   3.521  10.335   5.561  0.1730 -0.5779 -2.6744
  572MOL0     H75448   3.557  10.512   5.541  2.2320  0.5449  1.6360
  572MOL0     H75449   3.620  10.314   5.316 -1.8971 -2.5314  1.0631
  572MOL0     H75450   3.620  10.496   5.311  0.1543  1.2800  1.8532
  572MOL0     H75451   3.374  10.489   5.363  3.6531  1.4650  1.0680
  572MOL0     H75452   3.393  10.311   5.352 -2.8189  0.9257  0.2476
  572MOL0     H75453   3.418  10.512   5.135 -1.3342  1.4844  2.3746
  572MOL0     H75454   3.487  10.340   5.122  0.7808  0.5110  0.4778
  572MOL0     H75455   3.282  10.242   5.121  0.6989  0.1266  1.5899
  572MOL0     H75456   3.256  10.378   5.023 -0.8703  1.7154  1.4418
  572MOL0     H75457   3.034  10.534   5.096  0.7982  1.1893 -0.0789
  572MOL0     H75458   2.785  10.536   5.219 -0.9050 -1.7317 -0.9073
  572MOL0     H75459   2.823  10.549   5.394 -0.9213 -2.1597  1.6275
  572MOL0     H75460   2.804  10.290   5.394 -0.2920 -1.0803  0.8715
  572MOL0     H75461   2.743  10.306   5.228  0.6664  0.4565 -0.8688
  572MOL0     H75462   2.636  10.368   5.501  0.2255 -0.1928  0.2017
  572MOL0     H75463   2.558  10.468   5.372 -1.6635 -1.1152 -1.7011
  572MOL0     H75464   2.571  10.191   5.289  0.6431 -2.3690  2.2610
  572MOL0     H75465   2.432  10.282   5.305  0.4448  0.2233 -1.4475
  572MOL0     H75466   2.327   9.999   5.593 -0.7828 -0.4176  0.2996
  572MOL0     H75467   2.146  10.051   5.743 -3.5785  0.7220 -3.4045
  572MOL0     H75468   2.057  10.583   6.079  0.1224 -2.0205 -1.6841
  572MOL0     H75469   1.870  10.654   6.224  3.3554 -1.1007 -0.4384
  572MOL0     H75470   1.670  10.727   6.286 -2.3632  1.8587 -0.0235
  572MOL0     H75471   1.659  10.580   6.381  1.1600  0.0739 -0.1152
  572MOL0     H75472   1.405  10.691   6.248 -1.2787 -0.4803 -0.2316
  572MOL0     H75473   1.476  10.775   6.388 -2.6642  0.2654 -1.6000
  572MOL0     H75474   1.471  10.556   6.521 -2.1124  1.5592  1.4665
  572MOL0     H75475   1.402  10.480   6.373  2.5511 -0.6884  0.5348
  572MOL0     H75476   1.269  10.722   6.524 -2.9764  1.9382 -2.5652
  572MOL0     H75477   1.215  10.647   6.389  1.7064  0.9285 -1.6143
  572MOL0     H75478   1.275  10.510   6.652  1.0198  1.4619  0.3126
  572MOL0     H75479   1.186  10.429   6.520 -3.3876  0.8420 -0.0481
  572MOL0     H75480   1.010  10.610   6.530 -0.5520  2.2567  1.7716
  572MOL0     H75481   1.075  10.664   6.680  0.5517  1.5392 -1.6865
  572MOL0     H75482   0.963  10.384   6.631 -1.7305  0.7292 -0.1693
  572MOL0     H75483   1.073  10.426   6.770  0.5608 -0.9705 -0.4310
  572MOL0     H75484   0.824  10.564   6.690  1.2660  1.0468  1.0115
  572MOL0     H75485   0.910  10.587   6.845  2.6542 -0.2247 -0.3961
  572MOL0     H75486   1.603  10.445   5.966 -0.0677 -0.9320  0.1021
  572MOL0     H75487   1.779  10.387   5.814  3.9814 -2.2643 -0.5496
  572MOL0     H75488   2.211  10.471   5.701  0.0669 -0.6958  1.8108
  572MOL0     H75489   2.371  10.423   5.514 -3.3897 -0.1376 -2.7206
  572MOL0     H75490   4.171  10.655   5.579  1.6512 -0.5878 -0.9264
  572MOL0     H75491   4.421  10.656   5.621 -2.2214  0.7145 -1.2377
  572MOL0     H75492   4.806  10.429   5.509  0.2121 -1.1803  0.5954
  572MOL0     H75493   5.035  10.496   5.531 -1.1541  0.8486  0.3523
  572MOL0     H75494   5.319  10.567   5.594  2.9983 -1.5586  0.3490
  572MOL0     H75495   5.239  10.414   5.640 -1.7774  0.2817 -1.4985
  572MOL0     H75496   5.419  10.584   5.816 -1.4992 -0.1300  1.5940
  572MOL0     H75497   5.348  10.419   5.856  1.2942  0.7314 -0.1213
  572MOL0     H75498   5.572  10.460   5.658  1.3843 -3.1958 -1.6776
  572MOL0     H75499   5.464  10.319   5.672  0.7971  0.1175 -0.4543
  572MOL0     H75500   5.656  10.422   5.882  0.2922 -2.3330  1.5026
  572MOL0     H75501   5.546  10.287   5.906  2.3175 -0.4737  1.2377
  572MOL0     H75502   5.794  10.085   5.653 -1.0411 -0.5347 -0.4100
  572MOL0     H75503   4.987  10.587   5.947  1.3866  0.0181 -0.4930
  572MOL0     H75504   4.749  10.529   5.925 -1.8343 -0.8440 -0.8526
  573MOL0     O75505   4.559   1.572   1.236 -0.2196  0.1329  0.5584
  573MOL0     C75506   4.615   1.570   1.344 -0.4039 -0.7005  0.1297
  573MOL0     O75507   4.566   1.519   1.462  0.8083  0.1519  0.6838
  573MOL0     C75508   4.443   1.460   1.459 -0.4565 -0.1271  0.3795
  573MOL0     C75509   4.406   1.356   1.374  0.4501 -0.2291  0.1294
  573MOL0     C75510   4.277   1.302   1.380 -0.1496 -0.5992 -0.3150
  573MOL0     C75511   4.186   1.351   1.474  0.0827 -1.3048  1.1867
  573MOL0     O75512   4.069   1.289   1.489 -0.2825 -0.8726 -0.2847
  573MOL0     C75513   3.982   1.279   1.373 -0.2100  0.0603  0.8851
  573MOL0     C75514   3.850   1.220   1.422  0.1664 -0.0615  0.6261
  573MOL0     C75515   3.743   1.247   1.314 -0.1563 -0.9836 -0.0657
  573MOL0     C75516   3.610   1.180   1.340 -1.2060 -0.9783 -0.4214
  573MOL0     C75517   3.599   1.046   1.272  0.6609  0.2388 -0.0997
  573MOL0     C75518   3.462   0.973   1.294  0.0923 -0.0084  0.0276
  573MOL0     C75519   3.453   0.825   1.252  0.4226  0.6086  0.1882
  573MOL0     C75520   3.444   0.802   1.102 -0.8629  0.3220  0.4764
  573MOL0     N75521   3.484   0.663   1.070 -0.3101 -0.4136 -0.1223
  573MOL0     C75522   3.616   0.613   1.080  0.3711 -0.4604  0.3062
  573MOL0     C75523   3.593   0.482   1.063  1.0571 -0.3098  0.4323
  573MOL0     C75524   3.708   0.383   1.046 -0.4357 -0.2791  0.2056
  573MOL0     C75525   3.748   0.370   0.892  0.4009  0.3220 -0.4561
  573MOL0     C75526   3.684   0.237   0.830 -0.1395  1.0533 -0.1089
  573MOL0     C75527   3.544   0.252   0.807  0.8925  0.1099  0.6485
  573MOL0     O75528   3.475   0.156   0.732 -0.3974 -0.1152  0.3763
  573MOL0     C75529   3.340   0.171   0.730  0.3626  0.5571 -0.2877
  573MOL0     C75530   3.289   0.119   0.613 -0.4953 -0.5715  0.2062
  573MOL0     C75531   3.159   0.108   0.588  0.2074  0.0081  0.5802
  573MOL0     C75532   3.069   0.147   0.686 -0.0393  0.0598  0.4014
  573MOL0     C75533   2.928   0.132   0.653 -0.7180 -0.1964 -0.1189
  573MOL0     O75534   2.897   0.096   0.530  0.5184  0.6436 -0.2365
  573MOL0     C75535   2.770   0.059   0.495 -0.0567 -1.0139  0.7235
  573MOL0     C75536   2.726   0.094   0.368 -0.2858 -0.3505 -0.3011
  573MOL0     C75537   2.597   0.070   0.324 -0.0172 -0.2424 -0.3259
  573MOL0     C75538   2.509   0.015   0.402 -0.0125  0.2262  0.3085
  573MOL0     O75539   2.376   0.008   0.360  0.5696  0.5829  0.2225
  573MOL0     C75540   2.276  -0.054   0.440 -0.7528 -0.0214 -0.0015
  573MOL0     C75541   2.140  -0.051   0.379  0.0289  0.4977 -0.3815
  573MOL0     C75542   2.036  -0.131   0.454 -0.2400 -0.5029 -0.4496
  573MOL0     C75543   2.007  -0.096   0.601  0.1621 -0.6108 -0.5197
  573MOL0     C75544   1.872  -0.145   0.648  0.0970  0.1369  0.2588
  573MOL0     C75545   1.841  -0.298   0.632 -1.1139  0.2756  0.8866
  573MOL0     C75546   1.705  -0.329   0.698  0.1635  0.0723  0.2361
  573MOL0     C75547   1.680  -0.478   0.707 -0.6033 -0.5540  0.0691
  573MOL0    Cl75548   1.521  -0.511   0.773  0.0767 -0.1066  0.6194
  573MOL0     C75549   2.553  -0.039   0.522  0.3731 -0.3340  0.2307
  573MOL0     C75550   2.675  -0.003   0.576 -0.3819  0.1693 -0.0859
  573MOL0     O75551   2.846   0.166   0.732  0.4815 -0.0239 -0.3513
  573MOL0     C75552   3.111   0.197   0.807  0.7666 -0.8814 -1.0616
  573MOL0     C75553   3.251   0.212   0.830  0.4151  0.3912  1.1702
  573MOL0     N75554   3.461   0.458   1.029 -0.4706  0.0408  0.4929
  573MOL0     N75555   3.396   0.561   1.039  0.3250 -0.5266 -0.0341
  573MOL0     C75556   4.213   1.470   1.540 -0.5903 -0.4047  0.9593
  573MOL0     C75557   4.345   1.522   1.535  0.1943  0.9266  0.6125
  573MOL0     C75558   4.757   1.625   1.352  0.5908 -0.0066  0.3097
  573MOL0     C75559   4.829   1.628   1.473 -0.0666  0.2681 -0.2518
  573MOL0     C75560   4.958   1.683   1.480 -0.2374  0.0494 -0.1442
  573MOL0     C75561   5.025   1.737   1.364  0.8936 -0.2514 -0.1514
  573MOL0     O75562   5.150   1.789   1.353 -0.5698 -0.0915  0.0785
  573MOL0     C75563   5.237   1.777   1.470 -0.1648 -0.5127  0.0474
  573MOL0     C75564   5.383   1.821   1.453  0.0089 -0.5988  0.0349
  573MOL0     C75565   5.399   1.970   1.435 -0.4283 -0.4750  0.0385
  573MOL0     C75566   5.536   2.011   1.385  0.4423 -0.5291  0.3120
  573MOL0     C75567   5.568   1.940   1.258  0.2949 -0.7738  0.4835
  573MOL0     C75568   5.595   1.888   1.150  0.8756 -0.5886 -0.5216
  573MOL0     C75569   4.950   1.729   1.245 -0.4209  0.4558 -0.4287
  573MOL0     C75570   4.823   1.674   1.235 -0.3939 -0.8922  0.0661
  573MOL0     H75571   4.472   1.319   1.296 -0.9153 -0.1337 -1.1136
  573MOL0     H75572   4.266   1.217   1.314  0.8921 -1.1416  0.1812
  573MOL0     H75573   4.033   1.208   1.307 -1.3889 -1.0662  1.1406
  573MOL0     H75574   3.964   1.369   1.313  1.4305 -1.1390 -1.5791
  573MOL0     H75575   3.827   1.283   1.509  3.4251  0.3353  1.3371
  573MOL0     H75576   3.862   1.116   1.452  1.3340 -0.2027 -0.2511
  573MOL0     H75577   3.773   1.225   1.212 -1.8126 -0.5999 -0.6619
  573MOL0     H75578   3.719   1.354   1.318  1.2178 -0.6760  2.8427
  573MOL0     H75579   3.605   1.173   1.449 -0.3412 -0.8109 -0.3672
  573MOL0     H75580   3.530   1.241   1.299 -1.0713  0.4300  1.2932
  573MOL0     H75581   3.675   0.975   1.308  0.5772  1.5022  2.8558
  573MOL0     H75582   3.610   1.069   1.165 -0.8850 -0.1898 -0.3714
  573MOL0     H75583   3.386   1.030   1.238  0.5766  0.4456 -0.1742
  573MOL0     H75584   3.440   0.980   1.401 -0.4841  2.9019 -0.1852
  573MOL0     H75585   3.544   0.782   1.294  2.8795  1.4779 -3.7373
  573MOL0     H75586   3.365   0.775   1.294  1.1630 -1.2591 -0.3962
  573MOL0     H75587   3.516   0.873   1.059 -1.8154  0.2883 -1.2399
  573MOL0     H75588   3.345   0.821   1.060 -0.7561  0.5494  0.3203
  573MOL0     H75589   3.709   0.656   1.118 -0.5006  0.5697  1.3356
  573MOL0     H75590   3.686   0.284   1.086  2.0617 -1.1081 -0.2901
  573MOL0     H75591   3.794   0.418   1.102 -1.8102  1.5492  1.2948
  573MOL0     H75592   3.858   0.373   0.885  0.4301  1.6614  0.1793
  573MOL0     H75593   3.726   0.463   0.837  3.8805  1.9496  0.5821
  573MOL0     H75594   3.733   0.219   0.734  1.2534 -0.3803  0.8287
  573MOL0     H75595   3.713   0.151   0.890 -2.6405  0.9107  1.0471
  573MOL0     H75596   3.516   0.343   0.754 -0.3615 -1.7130 -2.0416
  573MOL0     H75597   3.503   0.245   0.908  1.2225  1.7712  0.9343
  573MOL0     H75598   3.363   0.080   0.543 -1.1962 -1.8215  0.1283
  573MOL0     H75599   3.126   0.065   0.494 -0.2211  3.3996 -0.9664
  573MOL0     H75600   2.791   0.141   0.295 -3.3202  1.5931 -1.9966
  573MOL0     H75601   2.578   0.111   0.225  2.0996  1.2551 -0.1845
  573MOL0     H75602   2.274  -0.019   0.544 -1.6041 -0.9106  0.2980
  573MOL0     H75603   2.303  -0.160   0.451 -2.4957 -0.2665  2.8951
  573MOL0     H75604   2.156  -0.101   0.283 -0.8497 -2.6912  1.0089
  573MOL0     H75605   2.105   0.051   0.362 -0.9506 -0.1585 -2.7453
  573MOL0     H75606   2.060  -0.237   0.454  1.7447 -0.1469  2.3248
  573MOL0     H75607   1.943  -0.116   0.398 -0.2025  3.6897  0.2338
  573MOL0     H75608   2.082  -0.150   0.659  1.0307  0.4898 -0.6027
  573MOL0     H75609   2.009   0.013   0.605 -0.4494 -0.6165  0.1760
  573MOL0     H75610   1.793  -0.091   0.594 -0.1299  0.5955  1.0324
  573MOL0     H75611   1.857  -0.116   0.753 -1.4268 -1.9339  0.6695
  573MOL0     H75612   1.907  -0.355   0.698 -0.3958  1.7725  1.5241
  573MOL0     H75613   1.845  -0.343   0.533 -0.8175 -1.4968  1.6651
  573MOL0     H75614   1.716  -0.295   0.801 -3.5921 -0.4834  0.9815
  573MOL0     H75615   1.622  -0.276   0.652 -1.1288 -1.8480  0.2287
  573MOL0     H75616   1.753  -0.510   0.782  1.7687  0.5287 -1.6420
  573MOL0     H75617   1.712  -0.534   0.620 -0.1705 -0.8088  0.3914
  573MOL0     H75618   2.496  -0.096   0.594  2.5950 -0.3773  2.0849
  573MOL0     H75619   2.709  -0.040   0.672  1.8651  0.6448 -0.6449
  573MOL0     H75620   3.043   0.220   0.889  1.6467  0.6329 -0.7108
  573MOL0     H75621   3.288   0.246   0.926 -2.7421 -0.6859  2.9315
  573MOL0     H75622   4.155   1.514   1.621 -1.5057  0.2765 -0.0423
  573MOL0     H75623   4.365   1.612   1.593 -0.6461  0.1799  2.1395
  573MOL0     H75624   4.784   1.600   1.568 -3.0818  1.4689 -1.1941
  573MOL0     H75625   5.009   1.674   1.575  0.4858 -2.1828 -0.6707
  573MOL0     H75626   5.237   1.670   1.492  0.8185 -0.8033 -1.2473
  573MOL0     H75627   5.189   1.840   1.545  0.9108  1.5808 -0.9457
  573MOL0     H75628   5.448   1.778   1.531  0.3815 -0.8355 -0.4018
  573MOL0     H75629   5.423   1.768   1.367  0.5498  1.4952 -1.0575
  573MOL0     H75630   5.389   2.024   1.529  4.1942  0.6232  0.1816
  573MOL0     H75631   5.340   2.008   1.351  2.0884  1.0594 -1.1722
  573MOL0     H75632   5.543   2.120   1.375 -3.5547 -0.0106  1.2027
  573MOL0     H75633   5.615   1.990   1.457  1.7977  0.3516 -0.8713
  573MOL0     H75634   5.616   1.845   1.054 -1.2710  1.0810 -1.8331
  573MOL0     H75635   5.006   1.771   1.162  0.5634 -1.4732 -0.7968
  573MOL0     H75636   4.771   1.670   1.140  0.6457 -0.3330 -0.5380
  574MOL0     O75637   6.847   2.084   0.724  0.8692 -0.0694 -0.6703
  574MOL0     C75638   6.815   2.123   0.839 -0.5635  0.8573  1.1478
  574MOL0     O75639   6.909   2.181   0.920  0.4792  0.2683 -0.5351
  574MOL0     C75640   7.034   2.202   0.879  0.2206 -0.3954  0.7673
  574MOL0     C75641   7.066   2.249   0.749  0.4381 -0.1845  0.0194
  574MOL0     C75642   7.208   2.264   0.717  0.4681  0.4910  0.5266
  574MOL0     C75643   7.309   2.255   0.811  0.2218 -1.5370  0.3005
  574MOL0     O75644   7.431   2.294   0.771 -0.2314 -0.1145  0.0852
  574MOL0     C75645   7.507   2.375   0.869  0.2206 -0.1572  0.4574
  574MOL0     C75646   7.657   2.383   0.836 -0.5983  0.5235  0.1433
  574MOL0     C75647   7.739   2.495   0.920  0.9165 -0.3924  0.9827
  574MOL0     C75648   7.885   2.522   0.866  0.4468  0.5319 -0.3528
  574MOL0     C75649   7.975   2.402   0.886 -0.5121 -0.2590  0.7038
  574MOL0     C75650   8.012   2.375   1.029  0.2058 -0.7239  0.1231
  574MOL0     C75651   8.073   2.236   1.054  0.5250  0.7391 -0.1486
  574MOL0     C75652   7.984   2.117   1.026 -0.2279  0.1193  0.0387
  574MOL0     N75653   7.864   2.112   1.105  0.3238  0.0076  0.0647
  574MOL0     C75654   7.847   2.171   1.228  0.0759 -1.0149  0.2874
  574MOL0     C75655   7.716   2.176   1.248 -0.6805 -0.8911  0.3091
  574MOL0     C75656   7.647   2.240   1.357  0.2059  0.2788  0.5591
  574MOL0     C75657   7.529   2.323   1.302 -1.0939  0.1316  0.0446
  574MOL0     C75658   7.484   2.414   1.415 -0.6894  0.0999  0.2680
  574MOL0     C75659   7.388   2.348   1.507  0.5699 -0.4158 -0.3643
  574MOL0     O75660   7.319   2.424   1.610  0.1551 -0.2141  0.7209
  574MOL0     C75661   7.213   2.490   1.558 -0.7424  0.2277  0.3317
  574MOL0     C75662   7.094   2.417   1.582 -0.3275 -0.0545 -1.1336
  574MOL0     C75663   6.974   2.465   1.535  0.2963  0.3900  0.8412
  574MOL0     C75664   6.966   2.589   1.469 -0.4196  0.3402  0.0971
  574MOL0     C75665   6.835   2.641   1.430  0.3786  0.0935  0.5122
  574MOL0     O75666   6.837   2.762   1.374 -0.1243 -0.9151  0.0291
  574MOL0     C75667   6.719   2.818   1.339  0.0248  0.3135 -1.3014
  574MOL0     C75668   6.622   2.763   1.260  0.4467 -0.8827  0.0372
  574MOL0     C75669   6.498   2.827   1.249 -0.1116 -0.4140 -0.4654
  574MOL0     C75670   6.468   2.948   1.306 -0.7781  0.7593 -0.9119
  574MOL0     O75671   6.346   3.000   1.289 -0.4127 -0.0506  0.0901
  574MOL0     C75672   6.289   3.068   1.399  0.1295 -0.3520 -0.5866
  574MOL0     C75673   6.146   3.117   1.359 -0.0130  0.1629  0.3059
  574MOL0     C75674   6.067   2.984   1.361 -1.1776  0.2519  0.4530
  574MOL0     C75675   5.922   3.013   1.338  1.0779  0.1037 -0.2120
  574MOL0     C75676   5.834   2.893   1.311 -1.2831 -0.4490  0.6825
  574MOL0     C75677   5.686   2.936   1.323 -0.3450 -0.4138 -0.0655
  574MOL0     C75678   5.601   2.810   1.307 -0.5569  0.1936  0.3249
  574MOL0     C75679   5.484   2.807   1.399 -0.1987  0.5164  0.8674
  574MOL0    Cl75680   5.416   2.650   1.416  0.0756  0.1009 -0.3549
  574MOL0     C75681   6.568   3.009   1.374 -0.8927 -0.2243 -0.3240
  574MOL0     C75682   6.689   2.940   1.404  0.6734  0.2989 -0.4110
  574MOL0     O75683   6.741   2.564   1.441  0.4707 -0.4744 -0.0859
  574MOL0     C75684   7.085   2.657   1.441  0.3545 -0.3680  0.7146
  574MOL0     C75685   7.208   2.611   1.488 -0.4402  0.0599  0.0703
  574MOL0     N75686   7.653   2.111   1.144 -0.4638 -1.4515  0.2117
  574MOL0     N75687   7.739   2.076   1.055 -0.0008  0.4472  0.0986
  574MOL0     C75688   7.270   2.234   0.946  0.1098 -0.1721 -0.3038
  574MOL0     C75689   7.137   2.198   0.984  0.6334  0.5597  0.0830
  574MOL0     C75690   6.678   2.114   0.893  0.3283  0.6893 -0.2381
  574MOL0     C75691   6.565   2.070   0.815 -0.7599  0.2848  1.0461
  574MOL0     C75692   6.445   2.043   0.864 -0.4368 -0.2727 -0.6282
  574MOL0     C75693   6.430   2.053   1.000  0.1243  0.4123  0.4115
  574MOL0     O75694   6.311   2.020   1.062  0.3722 -0.6353 -0.2941
  574MOL0     C75695   6.230   2.136   1.092 -0.6268  0.1806 -0.5199
  574MOL0     C75696   6.105   2.089   1.168  0.2166 -0.2512  1.0950
  574MOL0     C75697   6.154   2.008   1.294 -0.2280 -0.1968 -0.1916
  574MOL0     C75698   6.043   1.948   1.385  0.0398  0.7248  0.9504
  574MOL0     C75699   5.955   2.059   1.423  0.0697  0.5786  0.7812
  574MOL0     C75700   5.869   2.141   1.447 -0.3828 -0.1112 -0.5003
  574MOL0     C75701   6.534   2.104   1.079  0.6144 -0.6514  0.2942
  574MOL0     C75702   6.662   2.131   1.032 -0.1805  0.1169  0.7362
  574MOL0     H75703   6.999   2.275   0.667 -0.2086  1.9323  1.1490
  574MOL0     H75704   7.245   2.283   0.617  0.7459  0.2568  0.5847
  574MOL0     H75705   7.512   2.324   0.966  0.2001 -0.3793  0.3399
  574MOL0     H75706   7.466   2.475   0.891  1.3567  0.1562  1.2580
  574MOL0     H75707   7.678   2.401   0.730  2.0461  1.6697  0.8029
  574MOL0     H75708   7.701   2.285   0.856 -1.1065 -0.0345 -1.2740
  574MOL0     H75709   7.737   2.473   1.028 -0.2683  3.5862  1.9448
  574MOL0     H75710   7.693   2.594   0.915 -1.0251 -1.2079  1.7268
  574MOL0     H75711   7.871   2.532   0.758 -1.5087 -0.7737 -0.2906
  574MOL0     H75712   7.934   2.613   0.902  2.7335  0.8117 -3.7246
  574MOL0     H75713   8.067   2.412   0.828  0.3006  1.1190  2.1415
  574MOL0     H75714   7.920   2.315   0.850 -0.7856  0.5941 -1.0077
  574MOL0     H75715   7.917   2.381   1.084  0.8879 -0.3607  1.2836
  574MOL0     H75716   8.075   2.454   1.071 -0.5199 -0.6931  1.2165
  574MOL0     H75717   8.157   2.218   0.986  2.3454 -0.1841  2.2136
  574MOL0     H75718   8.118   2.235   1.154  0.9476  3.8347 -0.2048
  574MOL0     H75719   8.040   2.023   1.029 -0.5171 -0.1227 -1.5372
  574MOL0     H75720   7.947   2.119   0.924 -0.9911  1.1163  0.3231
  574MOL0     H75721   7.927   2.222   1.280 -0.8307  0.4091  0.3379
  574MOL0     H75722   7.716   2.312   1.401  0.0273  0.4635  0.5396
  574MOL0     H75723   7.620   2.169   1.436  0.7966 -0.3079  0.2378
  574MOL0     H75724   7.445   2.255   1.286 -1.9338  0.4964  2.4404
  574MOL0     H75725   7.561   2.383   1.216  0.1329 -0.3267  0.1566
  574MOL0     H75726   7.569   2.466   1.461  0.3234 -0.8500 -0.4674
  574MOL0     H75727   7.423   2.493   1.371  1.1449  1.2724 -0.2763
  574MOL0     H75728   7.444   2.271   1.561  0.1618 -0.7455 -0.4058
  574MOL0     H75729   7.312   2.284   1.462 -1.1485 -0.2159  2.0181
  574MOL0     H75730   7.097   2.323   1.637 -1.9984 -0.0685 -1.0154
  574MOL0     H75731   6.883   2.408   1.550 -0.4137  0.7292 -1.6426
  574MOL0     H75732   6.640   2.667   1.213 -0.5135 -1.5394  0.9734
  574MOL0     H75733   6.413   2.782   1.197 -0.9911  2.4543 -1.6896
  574MOL0     H75734   6.347   3.156   1.426 -0.9183  0.0091  0.6483
  574MOL0     H75735   6.292   3.007   1.490 -0.3663 -1.1489 -1.0873
  574MOL0     H75736   6.146   3.175   1.266  1.2705 -2.1694 -1.2620
  574MOL0     H75737   6.100   3.167   1.445  0.7551  0.1578  0.7306
  574MOL0     H75738   6.078   2.929   1.455 -1.3348 -0.8865 -0.1706
  574MOL0     H75739   6.093   2.920   1.275 -1.4990 -2.3721  2.1817
  574MOL0     H75740   5.888   3.065   1.428  1.6821  0.4094 -0.1531
  574MOL0     H75741   5.907   3.081   1.254  0.4210  0.0034 -0.1750
  574MOL0     H75742   5.864   2.812   1.377  1.4790  0.2115  0.3765
  574MOL0     H75743   5.859   2.844   1.216 -1.5767 -2.1529  1.4445
  574MOL0     H75744   5.662   3.017   1.254 -1.9624 -2.6572 -2.2797
  574MOL0     H75745   5.672   2.979   1.423 -0.5891 -2.7044  0.9437
  574MOL0     H75746   5.574   2.807   1.202  3.8846 -2.2483 -1.0315
  574MOL0     H75747   5.658   2.719   1.327 -0.1182  0.0828 -1.3354
  574MOL0     H75748   5.397   2.855   1.354 -1.9104 -2.7340  0.4374
  574MOL0     H75749   5.518   2.851   1.493  2.1302  0.8149 -0.0484
  574MOL0     H75750   6.559   3.114   1.400 -1.5251 -0.5991  1.0986
  574MOL0     H75751   6.767   2.984   1.464 -0.1790 -0.5116  1.3867
  574MOL0     H75752   7.083   2.742   1.373 -1.7405  0.4100  1.6833
  574MOL0     H75753   7.303   2.661   1.471  0.4755 -1.3900  0.6288
  574MOL0     H75754   7.348   2.228   1.021 -0.7326 -0.5704  0.5509
  574MOL0     H75755   7.098   2.181   1.084 -1.5607  3.1596 -0.2392
  574MOL0     H75756   6.568   2.057   0.707 -4.4438  0.2464  0.8280
  574MOL0     H75757   6.366   1.999   0.804  0.3115  0.5975 -2.3135
  574MOL0     H75758   6.208   2.191   1.000 -1.2715  2.4787  0.9266
  574MOL0     H75759   6.283   2.209   1.153 -0.8189  1.9630 -2.3746
  574MOL0     H75760   6.056   2.178   1.207  1.7831  0.6745  1.0229
  574MOL0     H75761   6.036   2.029   1.108 -0.7637 -1.9342  3.7143
  574MOL0     H75762   6.217   2.077   1.350 -0.5672  0.4003 -0.5357
  574MOL0     H75763   6.212   1.918   1.273 -0.8945 -0.1912 -2.3241
  574MOL0     H75764   5.986   1.871   1.333 -2.9556  2.6150  1.1806
  574MOL0     H75765   6.088   1.899   1.472 -2.1485 -1.0897  1.1643
  574MOL0     H75766   5.785   2.200   1.476  0.2566  0.7004 -0.2421
  574MOL0     H75767   6.518   2.104   1.186 -1.0114 -2.5479  0.1127
  574MOL0     H75768   6.741   2.171   1.095  1.1851 -1.3998  0.0387
  575MOL0     O75769   1.872   4.191   8.736 -0.0083  0.0369 -0.0511
  575MOL0     C75770   1.866   4.304   8.776  1.2933 -0.2777 -0.1320
  575MOL0     O75771   1.772   4.401   8.731  0.2385  0.1755  0.2673
  575MOL0     C75772   1.679   4.356   8.649 -0.0674  0.2609 -0.2817
  575MOL0     C75773   1.693   4.383   8.515  0.1355 -0.1237 -0.2265
  575MOL0     C75774   1.601   4.330   8.424  0.0215 -0.8427 -0.5394
  575MOL0     C75775   1.493   4.251   8.464  0.5570 -0.3780  0.2666
  575MOL0     O75776   1.411   4.200   8.359 -0.5268  0.4202 -0.4441
  575MOL0     C75777   1.305   4.104   8.399  0.1589 -1.0989 -0.3981
  575MOL0     C75778   1.266   4.023   8.278 -0.1876  0.2771 -0.3298
  575MOL0     C75779   1.156   3.918   8.303  0.3749  0.2557  0.2003
  575MOL0     C75780   1.234   3.787   8.341  0.4889  0.0648 -0.7652
  575MOL0     C75781   1.145   3.652   8.323 -0.4464  0.1647 -0.1788
  575MOL0     C75782   1.003   3.674   8.365 -0.0457 -0.3900  0.7430
  575MOL0     C75783   0.922   3.543   8.364  0.5323 -0.9944 -0.3713
  575MOL0     C75784   0.863   3.502   8.234  0.7374 -0.7023  0.1078
  575MOL0     N75785   0.753   3.416   8.259  0.1455  0.4483 -0.2739
  575MOL0     C75786   0.755   3.286   8.290 -0.6417 -0.0202 -0.9127
  575MOL0     C75787   0.628   3.262   8.311  0.6559  0.5162 -0.2675
  575MOL0     C75788   0.568   3.128   8.359 -0.9464 -0.0509 -0.0621
  575MOL0     C75789   0.506   3.034   8.250  0.4747  0.4226  0.8369
  575MOL0     C75790   0.373   3.084   8.189 -0.5316 -0.4453 -0.5494
  575MOL0     C75791   0.321   2.984   8.093 -1.0181  0.0439  0.2007
  575MOL0     O75792   0.289   2.873   8.176 -0.2531 -0.4750 -0.3619
  575MOL0     C75793   0.160   2.838   8.174 -0.3667 -0.5148  0.6586
  575MOL0     C75794   0.078   2.872   8.276 -0.0081  0.2564 -0.3977
  575MOL0     C75795  -0.059   2.841   8.275 -0.4107  0.2924  0.3002
  575MOL0     C75796  -0.113   2.785   8.157 -0.0337  0.1334 -0.7596
  575MOL0     C75797  -0.251   2.754   8.147  0.4192 -0.3794 -0.0397
  575MOL0     O75798  -0.290   2.685   8.039  1.1132 -0.3700  0.7278
  575MOL0     C75799  -0.427   2.695   8.015  0.2984 -0.2543 -0.9357
  575MOL0     C75800  -0.491   2.782   7.926 -0.5000  0.1761  0.2867
  575MOL0     C75801  -0.622   2.762   7.898  0.6299 -0.5619  0.2460
  575MOL0     C75802  -0.695   2.658   7.960 -0.1049  0.6023 -0.1192
  575MOL0     O75803  -0.827   2.627   7.920 -0.3898  0.3760  0.3087
  575MOL0     C75804  -0.871   2.694   7.799  1.1302 -0.1050 -0.2333
  575MOL0     C75805  -1.009   2.634   7.762  0.0875  0.8348  1.0841
  575MOL0     C75806  -1.103   2.624   7.889 -0.0280  0.0660 -0.4445
  575MOL0     C75807  -1.239   2.596   7.830  0.6394 -0.6081  0.0497
  575MOL0     C75808  -1.355   2.602   7.932 -0.2152  0.0156 -0.2447
  575MOL0     C75809  -1.328   2.495   8.047  0.9341 -0.3553  0.7045
  575MOL0     C75810  -1.457   2.457   8.121 -0.1814  0.7670  0.4833
  575MOL0     C75811  -1.547   2.570   8.178  0.6300  0.1588  0.1560
  575MOL0    Cl75812  -1.675   2.513   8.295  0.0075 -0.1761 -0.0839
  575MOL0     C75813  -0.631   2.575   8.051 -0.2327  0.2927 -0.6464
  575MOL0     C75814  -0.500   2.597   8.082 -0.5340 -0.2908 -0.6187
  575MOL0     O75815  -0.326   2.804   8.231 -0.0323 -0.3597  0.4332
  575MOL0     C75816  -0.026   2.736   8.062 -0.3794  0.5986  0.7762
  575MOL0     C75817   0.109   2.765   8.068 -0.7820 -0.1397 -0.5776
  575MOL0     N75818   0.547   3.371   8.277 -0.2872  0.4631  0.2244
  575MOL0     N75819   0.629   3.467   8.246  0.0235 -0.1207 -0.9392
  575MOL0     C75820   1.473   4.232   8.601  0.2094 -0.4111 -0.0471
  575MOL0     C75821   1.569   4.274   8.697  0.0630  0.4847  0.5960
  575MOL0     C75822   1.980   4.341   8.866  0.4378 -0.0874 -1.3019
  575MOL0     C75823   2.083   4.255   8.886 -0.2660  0.2324  0.0296
  575MOL0     C75824   2.191   4.281   8.970  0.1097  0.6438 -0.0124
  575MOL0     C75825   2.203   4.402   9.031 -0.3109  0.0422 -0.1698
  575MOL0     O75826   2.311   4.433   9.121 -0.0208 -0.2859 -0.1003
  575MOL0     C75827   2.438   4.362   9.111  0.3034  0.8688  0.0948
  575MOL0     C75828   2.515   4.398   9.240  0.3588 -0.0460 -0.4352
  575MOL0     C75829   2.447   4.348   9.372  0.3993 -1.2499  0.4281
  575MOL0     C75830   2.419   4.201   9.369  0.2666  0.0472  0.1200
  575MOL0     C75831   2.538   4.124   9.360  0.1655  0.7463 -0.1926
  575MOL0     C75832   2.644   4.061   9.366  0.3761  0.5278 -1.0321
  575MOL0     C75833   2.091   4.482   9.023 -0.4934 -0.1490  0.2615
  575MOL0     C75834   1.988   4.459   8.938 -0.0210 -0.3379  0.3633
  575MOL0     H75835   1.775   4.447   8.484  0.6272 -0.9160 -0.5903
  575MOL0     H75836   1.615   4.348   8.317 -0.5214 -2.9737 -1.0044
  575MOL0     H75837   1.224   4.168   8.436  0.3024 -2.0907  1.8338
  575MOL0     H75838   1.335   4.035   8.479 -1.8499 -2.6892 -0.9196
  575MOL0     H75839   1.365   3.987   8.247 -0.4803  1.3678 -2.7580
  575MOL0     H75840   1.227   4.089   8.201 -0.4842 -0.6696 -1.0040
  575MOL0     H75841   1.098   3.905   8.211  0.3859  2.6107 -0.1954
  575MOL0     H75842   1.089   3.938   8.387 -1.6077  2.4028 -1.7346
  575MOL0     H75843   1.320   3.771   8.275  1.4577 -1.0203  0.7071
  575MOL0     H75844   1.262   3.809   8.444 -2.1591  0.9985 -0.1782
  575MOL0     H75845   1.189   3.568   8.377 -1.3188  1.8114  3.4250
  575MOL0     H75846   1.140   3.636   8.215 -0.6324  3.9028 -0.8842
  575MOL0     H75847   0.956   3.756   8.311  0.6556 -1.6326 -1.8819
  575MOL0     H75848   1.005   3.706   8.470 -1.3512 -1.8459  1.2547
  575MOL0     H75849   0.975   3.462   8.416  0.5161 -0.1134  1.0804
  575MOL0     H75850   0.832   3.563   8.424  0.2701  0.1755 -1.1360
  575MOL0     H75851   0.932   3.450   8.166 -0.1646  0.2606 -1.6358
  575MOL0     H75852   0.828   3.592   8.183 -4.3536  0.0204  4.1178
  575MOL0     H75853   0.835   3.212   8.290 -1.5262 -1.0363  0.9151
  575MOL0     H75854   0.495   3.154   8.436  1.9365  2.8787  1.9530
  575MOL0     H75855   0.648   3.074   8.410  0.1502  1.0866 -0.5152
  575MOL0     H75856   0.487   2.942   8.306 -1.6297  1.2023  1.4948
  575MOL0     H75857   0.592   3.027   8.183  0.0469  1.8178  0.0985
  575MOL0     H75858   0.309   3.106   8.275  1.6709 -1.0256  1.3425
  575MOL0     H75859   0.390   3.176   8.133  0.4370 -1.0155 -1.2260
  575MOL0     H75860   0.394   2.957   8.016  0.3296 -1.2293  1.8674
  575MOL0     H75861   0.227   3.022   8.051 -0.7156  0.4696 -0.1049
  575MOL0     H75862   0.129   2.923   8.356  1.2844 -1.9534  0.2867
  575MOL0     H75863  -0.119   2.871   8.361 -1.0788 -0.6103  0.1556
  575MOL0     H75864  -0.426   2.852   7.875  0.5475  1.5774  3.3304
  575MOL0     H75865  -0.658   2.825   7.818 -1.3925 -1.9457 -0.0071
  575MOL0     H75866  -0.794   2.677   7.724  1.3332 -1.2427  0.2112
  575MOL0     H75867  -0.876   2.803   7.814  1.0502 -0.2226  0.6444
  575MOL0     H75868  -0.975   2.535   7.729 -0.5572  1.1566 -0.6815
  575MOL0     H75869  -1.063   2.673   7.675  0.8089 -2.6886 -1.1482
  575MOL0     H75870  -1.100   2.714   7.952 -2.0920  0.4443 -0.8252
  575MOL0     H75871  -1.063   2.541   7.948 -0.1878 -2.0355 -3.0971
  575MOL0     H75872  -1.264   2.672   7.755 -0.4472 -1.5029 -0.5205
  575MOL0     H75873  -1.230   2.494   7.793 -1.1550 -0.1192 -1.9479
  575MOL0     H75874  -1.449   2.601   7.877 -0.3782  1.5931 -0.0217
  575MOL0     H75875  -1.354   2.698   7.983  2.2267  0.3974 -0.8674
  575MOL0     H75876  -1.254   2.532   8.119  0.8283  0.2245  0.5163
  575MOL0     H75877  -1.270   2.412   8.005  1.3431 -1.2813  2.9515
  575MOL0     H75878  -1.518   2.387   8.063 -0.2885 -0.0711  1.5693
  575MOL0     H75879  -1.417   2.400   8.205 -1.7048  1.1456  1.5055
  575MOL0     H75880  -1.594   2.615   8.090 -0.0787 -1.0231 -0.0967
  575MOL0     H75881  -1.484   2.636   8.238  0.3386  0.6251 -0.0443
  575MOL0     H75882  -0.696   2.496   8.090  0.3194 -0.1162 -0.5302
  575MOL0     H75883  -0.449   2.525   8.145 -0.0090  1.3821  0.9932
  575MOL0     H75884  -0.061   2.686   7.972  1.3359  3.0988 -1.4542
  575MOL0     H75885   0.176   2.729   7.990 -1.9424 -0.7482 -1.3255
  575MOL0     H75886   1.396   4.167   8.642 -0.1728  0.0039 -0.0988
  575MOL0     H75887   1.543   4.250   8.800 -3.3030 -1.7050 -0.5810
  575MOL0     H75888   2.088   4.160   8.834  0.8699  0.3239 -0.0456
  575MOL0     H75889   2.257   4.195   8.965  1.0378  1.3834 -0.6327
  575MOL0     H75890   2.496   4.402   9.027 -1.0086  2.2902 -0.1837
  575MOL0     H75891   2.420   4.254   9.106  1.4311  0.6314  0.7306
  575MOL0     H75892   2.615   4.353   9.234  0.8605  0.7095  1.4125
  575MOL0     H75893   2.516   4.508   9.237 -0.4591 -0.0189 -0.0024
  575MOL0     H75894   2.365   4.419   9.383  1.4344  0.1827 -0.5493
  575MOL0     H75895   2.513   4.374   9.456 -0.9431  1.6411  0.7225
  575MOL0     H75896   2.375   4.170   9.464  0.5223  3.0141  1.3111
  575MOL0     H75897   2.343   4.180   9.294  0.3317  1.4242 -0.3546
  575MOL0     H75898   2.732   4.001   9.373  0.3383  0.4355 -1.3241
  575MOL0     H75899   2.093   4.572   9.084  0.1239  0.4247 -0.5925
  575MOL0     H75900   1.916   4.540   8.924  1.3282  0.7311 -0.6767
  576MOL0     O75901  10.584   7.987   0.810 -0.6493 -0.2392 -0.0713
  576MOL0     C75902  10.585   7.957   0.930 -0.7332  0.1505 -0.2601
  576MOL0     O75903  10.486   7.961   1.016 -0.5914  0.3745  0.5357
  576MOL0     C75904  10.361   8.008   0.978 -0.0625  0.5211 -0.8578
  576MOL0     C75905  10.285   8.059   1.087 -0.0590  0.2082 -0.0412
  576MOL0     C75906  10.149   8.103   1.065  0.3715  0.0215 -0.5416
  576MOL0     C75907  10.092   8.092   0.936 -0.5375  1.5041  0.3374
  576MOL0     O75908   9.959   8.124   0.920 -0.6530 -0.0966  0.3073
  576MOL0     C75909   9.910   8.118   0.785  0.1297  0.1875  0.2690
  576MOL0     C75910   9.761   8.153   0.791  0.0088 -0.2725  0.6431
  576MOL0     C75911   9.745   8.301   0.852 -1.1510  0.3593 -0.4439
  576MOL0     C75912   9.601   8.359   0.832 -0.1890 -0.7522 -0.0399
  576MOL0     C75913   9.500   8.285   0.920 -0.6747  0.6538 -0.3749
  576MOL0     C75914   9.364   8.349   0.910  0.5140  0.4419  0.5192
  576MOL0     C75915   9.253   8.273   0.994 -0.2541 -0.2178 -0.5198
  576MOL0     C75916   9.118   8.348   0.984  1.5323 -0.1401  1.0186
  576MOL0     N75917   9.013   8.289   1.069  0.3352 -0.1818  0.7755
  576MOL0     C75918   8.954   8.169   1.047 -0.6264 -0.4524  0.1179
  576MOL0     C75919   8.849   8.171   1.131  0.0756  0.7961 -0.3050
  576MOL0     C75920   8.764   8.044   1.153  0.0774 -0.3314 -0.3082
  576MOL0     C75921   8.636   8.070   1.241  0.0550  0.2737  0.3995
  576MOL0     C75922   8.530   8.159   1.173 -0.0318 -0.0823 -0.0846
  576MOL0     C75923   8.397   8.152   1.254  1.3173 -1.2065  0.3530
  576MOL0     O75924   8.294   8.220   1.176 -0.1839 -0.2796  0.1557
  576MOL0     C75925   8.161   8.191   1.217  0.5741  0.8359  0.4698
  576MOL0     C75926   8.123   8.147   1.341  0.2159 -0.3360  0.3709
  576MOL0     C75927   7.990   8.110   1.367 -0.4961 -0.4191  0.1640
  576MOL0     C75928   7.892   8.141   1.271  0.5336  0.2525  0.3637
  576MOL0     C75929   7.745   8.128   1.311  0.3163 -0.5661 -0.4621
  576MOL0     O75930   7.654   8.149   1.216 -0.3953 -0.7432 -0.0351
  576MOL0     C75931   7.523   8.163   1.250 -1.2053 -0.0778  0.1195
  576MOL0     C75932   7.424   8.097   1.183  0.9496  0.3462 -0.1491
  576MOL0     C75933   7.288   8.132   1.204  0.4683  1.1015 -0.6833
  576MOL0     C75934   7.256   8.225   1.305  0.4734  0.3264 -0.2503
  576MOL0     O75935   7.121   8.234   1.323 -0.3619  0.3027  0.2922
  576MOL0     C75936   7.067   8.316   1.426  0.4094  0.3239 -0.0650
  576MOL0     C75937   6.918   8.289   1.449  0.5860  0.4767 -0.1478
  576MOL0     C75938   6.918   8.147   1.516  0.1459  0.1248 -0.6640
  576MOL0     C75939   6.777   8.111   1.565 -0.6872  0.0294  0.1140
  576MOL0     C75940   6.785   7.994   1.661  0.4104  0.2438 -0.4836
  576MOL0     C75941   6.648   7.932   1.677  0.5916 -0.4268  0.5782
  576MOL0     C75942   6.630   7.842   1.808 -0.7805  1.1897  0.0737
  576MOL0     C75943   6.541   7.726   1.761 -0.7938 -0.8491 -0.0224
  576MOL0    Cl75944   6.472   7.659   1.918 -0.3141  0.2069  0.6353
  576MOL0     C75945   7.354   8.292   1.385  0.4091 -0.0098  0.2418
  576MOL0     C75946   7.488   8.251   1.354  0.4164  0.1846  0.1185
  576MOL0     O75947   7.727   8.097   1.429  0.4430 -0.2238 -0.2770
  576MOL0     C75948   7.936   8.180   1.147 -0.3596 -0.7486 -0.3093
  576MOL0     C75949   8.069   8.208   1.119 -0.4740 -0.0435  0.6727
  576MOL0     N75950   8.830   8.297   1.181 -0.8595  0.0444 -0.6665
  576MOL0     N75951   8.927   8.363   1.140 -0.1420 -0.0468 -0.6587
  576MOL0     C75952  10.171   8.032   0.834  0.2029 -0.1595  0.9786
  576MOL0     C75953  10.303   7.991   0.855  1.1986 -0.2898  1.5375
  576MOL0     C75954  10.719   7.919   0.987  0.5218  0.2869 -0.5105
  576MOL0     C75955  10.737   7.923   1.126  0.2345  0.6711 -0.0015
  576MOL0     C75956  10.856   7.882   1.186  0.7105  1.0135 -0.9816
  576MOL0     C75957  10.964   7.836   1.109  0.6775  0.4007 -0.4930
  576MOL0     O75958  11.094   7.802   1.145  0.3475 -0.1027  0.7297
  576MOL0     C75959  11.142   7.792   1.281  0.9702  0.3727 -0.9141
  576MOL0     C75960  11.164   7.642   1.314 -0.5656 -0.4526 -0.3132
  576MOL0     C75961  11.173   7.613   1.468 -0.7622  0.5766 -0.4940
  576MOL0     C75962  11.299   7.691   1.526  0.5162  0.9478  0.2240
  576MOL0     C75963  11.276   7.825   1.582  0.9147 -0.1385  0.6183
  576MOL0     C75964  11.275   7.941   1.634 -0.2171 -0.1409  0.3442
  576MOL0     C75965  10.945   7.845   0.968  0.2206  0.2964  0.8241
  576MOL0     C75966  10.824   7.873   0.908  0.0335 -0.1541 -0.0166
  576MOL0     H75967  10.340   8.066   1.181  0.8062 -1.5180 -0.3839
  576MOL0     H75968  10.084   8.148   1.139  1.3633 -0.0436  0.4050
  576MOL0     H75969   9.918   8.019   0.738  0.2546  0.1530  0.3627
  576MOL0     H75970   9.978   8.183   0.729  0.6376  0.0960  0.7716
  576MOL0     H75971   9.690   8.077   0.827 -2.7910  1.6769 -0.4949
  576MOL0     H75972   9.723   8.170   0.691  0.6579  0.9914  0.5981
  576MOL0     H75973   9.812   8.367   0.796 -0.3345  0.0996  0.2059
  576MOL0     H75974   9.777   8.299   0.957  0.6327  0.1228 -0.9500
  576MOL0     H75975   9.593   8.465   0.860 -3.3201 -0.8837 -0.1710
  576MOL0     H75976   9.568   8.357   0.728 -1.2839 -0.4713  0.2911
  576MOL0     H75977   9.534   8.278   1.024  0.4853 -0.0947 -0.7867
  576MOL0     H75978   9.495   8.182   0.885  1.0312  0.2653  0.4168
  576MOL0     H75979   9.343   8.354   0.803 -0.6024 -0.0924  0.6971
  576MOL0     H75980   9.376   8.450   0.950 -1.4079  0.2458  1.6902
  576MOL0     H75981   9.241   8.172   0.956  0.9344  0.5115 -3.0614
  576MOL0     H75982   9.290   8.273   1.097 -1.3373 -0.4347 -0.1217
  576MOL0     H75983   9.083   8.344   0.881 -3.9802  0.3238  2.5824
  576MOL0     H75984   9.133   8.453   1.013 -2.6492  1.0831 -0.5289
  576MOL0     H75985   8.988   8.078   0.998 -4.3355 -2.2969  0.5867
  576MOL0     H75986   8.819   7.962   1.199  0.2235  0.0221  0.1652
  576MOL0     H75987   8.725   8.009   1.057 -3.3136  1.3824  0.2632
  576MOL0     H75988   8.652   8.097   1.345 -0.4754 -1.7029  1.0422
  576MOL0     H75989   8.593   7.970   1.250 -0.8168  0.7665  2.1154
  576MOL0     H75990   8.555   8.265   1.167 -0.0164 -0.1004 -0.3210
  576MOL0     H75991   8.512   8.112   1.076  2.0705 -1.1269 -0.0236
  576MOL0     H75992   8.407   8.200   1.352 -0.7233  0.7610 -0.3001
  576MOL0     H75993   8.353   8.052   1.259 -1.3375 -0.0784  1.9840
  576MOL0     H75994   8.196   8.125   1.418  0.8493  1.3518  0.2824
  576MOL0     H75995   7.957   8.070   1.463 -0.8604 -0.1185  0.1660
  576MOL0     H75996   7.453   8.033   1.100  0.3743  0.7937 -0.7063
  576MOL0     H75997   7.206   8.084   1.152 -0.8107  1.6160  0.7532
  576MOL0     H75998   7.065   8.421   1.395 -0.0194 -0.7546 -4.3850
  576MOL0     H75999   7.119   8.296   1.520  0.2833  1.0177  0.1578
  576MOL0     H76000   6.848   8.294   1.366 -1.2598  1.4150  1.3754
  576MOL0     H76001   6.884   8.363   1.523 -1.3673  3.5526 -3.7784
  576MOL0     H76002   6.989   8.129   1.597 -0.6488  2.1071  0.5635
  576MOL0     H76003   6.942   8.076   1.437  0.4275  0.8950 -1.2820
  576MOL0     H76004   6.715   8.189   1.610 -1.9439 -0.4103 -0.7989
  576MOL0     H76005   6.717   8.086   1.477  0.6245 -1.1414 -0.4941
  576MOL0     H76006   6.810   8.030   1.762 -2.4224 -0.1858  0.4877
  576MOL0     H76007   6.862   7.924   1.629 -0.3511  0.1306 -2.1630
  576MOL0     H76008   6.643   7.864   1.591  1.8572  1.0928 -0.7555
  576MOL0     H76009   6.563   7.998   1.661  0.0122 -1.1073  0.8141
  576MOL0     H76010   6.724   7.801   1.847 -3.4354 -1.1184  4.9237
  576MOL0     H76011   6.587   7.894   1.894 -1.6461  1.0250 -0.2533
  576MOL0     H76012   6.598   7.650   1.705  0.2646  0.1217 -0.3051
  576MOL0     H76013   6.460   7.749   1.691  1.3149  0.9898 -2.0171
  576MOL0     H76014   7.334   8.364   1.463 -0.4680  0.0649 -0.0434
  576MOL0     H76015   7.569   8.294   1.412  2.1162 -2.6693  0.0870
  576MOL0     H76016   7.867   8.213   1.070  0.4891 -0.4153 -0.9441
  576MOL0     H76017   8.095   8.247   1.021  0.2523  1.9231  1.5977
  576MOL0     H76018  10.127   8.027   0.734  3.5151  2.1505 -0.7882
  576MOL0     H76019  10.357   7.954   0.768 -1.4978  1.2084 -0.9562
  576MOL0     H76020  10.665   7.963   1.197  0.2321  0.1004  0.3234
  576MOL0     H76021  10.869   7.892   1.293 -1.8864  3.6789 -0.7536
  576MOL0     H76022  11.082   7.841   1.358  2.7085 -1.6465  1.9289
  576MOL0     H76023  11.234   7.848   1.297  0.9367  1.0140 -2.7567
  576MOL0     H76024  11.076   7.587   1.279 -1.6531  0.9396  0.1261
  576MOL0     H76025  11.249   7.604   1.259  0.2236 -0.7909  1.0924
  576MOL0     H76026  11.182   7.504   1.480  0.9990  0.8084  0.6985
  576MOL0     H76027  11.090   7.651   1.528  0.7144  0.5234  1.6895
  576MOL0     H76028  11.354   7.640   1.605  0.7147  1.5495  0.4793
  576MOL0     H76029  11.373   7.695   1.446 -2.0621 -1.1458 -2.5243
  576MOL0     H76030  11.288   8.037   1.680 -1.7739 -0.2607  1.1357
  576MOL0     H76031  11.027   7.828   0.899  0.9608  0.9780  1.5034
  576MOL0     H76032  10.808   7.866   0.801 -0.3040  2.7091 -0.2298
  577MOL0     O76033   4.619   0.684   7.643 -0.2430  0.4456 -0.2312
  577MOL0     C76034   4.607   0.568   7.606 -0.6072 -0.3767  0.2232
  577MOL0     O76035   4.667   0.517   7.497 -0.6863  0.3069 -0.5507
  577MOL0     C76036   4.752   0.605   7.424  0.2995  0.0317 -0.9854
  577MOL0     C76037   4.732   0.629   7.289  0.6091  0.0035  0.8931
  577MOL0     C76038   4.819   0.712   7.213 -0.6060 -0.0755 -0.1005
  577MOL0     C76039   4.937   0.760   7.271 -0.6354  0.0232 -0.3424
  577MOL0     O76040   5.033   0.840   7.206  0.7289 -0.7364  0.4618
  577MOL0     C76041   5.024   0.857   7.068 -0.9937  0.7985 -0.3666
  577MOL0     C76042   5.144   0.927   7.005 -0.0984 -0.0788  0.0387
  577MOL0     C76043   5.114   0.929   6.856 -0.1068 -0.4205  0.5109
  577MOL0     C76044   5.227   1.006   6.793  0.3597 -0.6748  0.3766
  577MOL0     C76045   5.189   1.026   6.650  0.0514  0.4914  0.0218
  577MOL0     C76046   5.159   0.894   6.569 -0.2377 -0.0351 -0.5141
  577MOL0     C76047   5.136   0.929   6.420  0.2974  0.0512 -0.1875
  577MOL0     C76048   5.057   0.827   6.336 -0.7383  0.4158 -0.4966
  577MOL0     N76049   4.911   0.837   6.344 -0.1620  0.1624  0.1367
  577MOL0     C76050   4.833   0.761   6.417 -0.0147  0.5615  0.1346
  577MOL0     C76051   4.708   0.808   6.394 -0.2614 -0.8320  0.2188
  577MOL0     C76052   4.577   0.762   6.455 -0.2205 -1.2408  0.0135
  577MOL0     C76053   4.559   0.810   6.599  0.4010  0.6644  0.2357
  577MOL0     C76054   4.422   0.769   6.656  0.9531 -0.3960 -0.1634
  577MOL0     C76055   4.300   0.832   6.585 -0.0749 -0.4563 -0.2365
  577MOL0     O76056   4.180   0.790   6.655 -0.0201 -0.2865  0.1458
  577MOL0     C76057   4.060   0.842   6.611 -0.9311 -1.0958  0.5529
  577MOL0     C76058   4.043   0.923   6.500 -0.1591 -1.1553  0.7107
  577MOL0     C76059   3.913   0.965   6.465  0.0039 -0.1217  1.2261
  577MOL0     C76060   3.802   0.923   6.530  1.4531 -0.5985  0.2680
  577MOL0     C76061   3.661   0.963   6.497 -0.0130 -0.7074 -0.0077
  577MOL0     O76062   3.554   0.915   6.577 -0.0430  0.8294  0.1233
  577MOL0     C76063   3.424   0.959   6.560  0.8074 -0.2590  0.8719
  577MOL0     C76064   3.361   1.007   6.675 -0.5374  0.4075  0.2015
  577MOL0     C76065   3.226   1.060   6.658 -0.5481 -0.4387 -0.0270
  577MOL0     C76066   3.155   1.047   6.536 -0.3876  0.2523  0.3957
  577MOL0     O76067   3.017   1.073   6.524 -1.0589 -0.0955 -0.2514
  577MOL0     C76068   2.954   1.161   6.626  0.5245 -0.9689  0.3405
  577MOL0     C76069   2.918   1.292   6.537 -0.5780 -0.4623 -0.0045
  577MOL0     C76070   2.842   1.395   6.626  0.1457  0.7160  0.4310
  577MOL0     C76071   2.894   1.544   6.621 -0.1670  0.1978 -0.5745
  577MOL0     C76072   2.887   1.619   6.494 -0.1638 -0.2314  1.2186
  577MOL0     C76073   2.737   1.634   6.449 -0.6214 -0.8157  0.2988
  577MOL0     C76074   2.724   1.747   6.344 -0.8362  0.0224  0.2616
  577MOL0     C76075   2.600   1.722   6.249  0.3148 -0.2881 -0.2770
  577MOL0    Cl76076   2.607   1.583   6.138 -0.2147 -0.0518  0.0771
  577MOL0     C76077   3.224   0.982   6.433  0.6562  0.4009 -0.0214
  577MOL0     C76078   3.365   0.949   6.437  0.3959  0.2486  0.3041
  577MOL0     O76079   3.646   1.046   6.411  0.4692 -0.1391  0.3517
  577MOL0     C76080   3.821   0.832   6.639  1.2425 -0.1819 -0.3544
  577MOL0     C76081   3.947   0.802   6.681  0.0290 -0.5919 -0.0405
  577MOL0     N76082   4.715   0.924   6.314  0.0078  0.5229 -0.3557
  577MOL0     N76083   4.836   0.936   6.280 -0.9259  0.3202  1.2696
  577MOL0     C76084   4.958   0.733   7.408  1.1056  0.0238 -0.0395
  577MOL0     C76085   4.861   0.661   7.489  1.1587 -0.4576  0.0104
  577MOL0     C76086   4.522   0.479   7.685  0.7150 -0.1364 -0.8270
  577MOL0     C76087   4.450   0.519   7.801 -0.0737 -0.5029 -0.0446
  577MOL0     C76088   4.359   0.424   7.856  0.7997 -0.8153 -0.3885
  577MOL0     C76089   4.336   0.300   7.801 -0.0773 -0.5259  0.5902
  577MOL0     O76090   4.251   0.196   7.848 -0.3532 -0.0866  0.3411
  577MOL0     C76091   4.234   0.190   7.989 -0.2986 -0.4341  0.5566
  577MOL0     C76092   4.108   0.270   8.026 -0.2670 -0.1780  1.8341
  577MOL0     C76093   4.073   0.242   8.177 -0.3570  0.6566 -0.4169
  577MOL0     C76094   3.992   0.117   8.189  0.7058  0.2335  0.2882
  577MOL0     C76095   3.846   0.153   8.160  0.0144  1.1860 -0.6332
  577MOL0     C76096   3.728   0.179   8.139  1.6022 -0.3533 -0.1204
  577MOL0     C76097   4.394   0.270   7.677  0.1522  0.4911 -0.5292
  577MOL0     C76098   4.485   0.351   7.625  0.0405  0.0621 -0.1332
  577MOL0     H76099   4.643   0.586   7.243 -1.0962  2.3800  1.7265
  577MOL0     H76100   4.786   0.739   7.113 -0.7664  2.0406  0.4632
  577MOL0     H76101   4.935   0.918   7.047  1.2497  4.4202 -0.2598
  577MOL0     H76102   5.020   0.764   7.011 -0.0754  0.2113  0.4993
  577MOL0     H76103   5.238   0.873   7.020  2.3240  3.2426 -1.7804
  577MOL0     H76104   5.150   1.030   7.041  0.1610  0.8066 -2.3155
  577MOL0     H76105   5.018   0.971   6.826  1.2884  1.9542 -0.9695
  577MOL0     H76106   5.120   0.825   6.824 -1.4264  0.3182 -2.5066
  577MOL0     H76107   5.234   1.107   6.835  0.7824  1.5190 -4.3426
  577MOL0     H76108   5.322   0.953   6.803  1.9992  1.8707 -0.8743
  577MOL0     H76109   5.279   1.072   6.610  0.5401 -1.5553 -1.3735
  577MOL0     H76110   5.102   1.092   6.653  1.2339  2.0949  0.8413
  577MOL0     H76111   5.069   0.846   6.609  1.0060 -0.2669  2.1583
  577MOL0     H76112   5.241   0.823   6.575 -0.3866 -0.0421  2.5674
  577MOL0     H76113   5.109   1.032   6.396  0.9095  0.2495 -0.0338
  577MOL0     H76114   5.237   0.935   6.379  0.1521  0.1840 -0.5331
  577MOL0     H76115   5.082   0.726   6.371 -0.5177  1.1519  1.6594
  577MOL0     H76116   5.075   0.841   6.229 -0.8690  2.6529 -0.2695
  577MOL0     H76117   4.855   0.684   6.489 -2.4042  1.1557  1.6297
  577MOL0     H76118   4.578   0.653   6.444 -1.3647 -1.1793 -0.8742
  577MOL0     H76119   4.494   0.815   6.408  0.0362  0.0899  1.0176
  577MOL0     H76120   4.576   0.917   6.615 -1.2163  0.7164  1.8685
  577MOL0     H76121   4.642   0.761   6.651  0.8100  1.7752  0.6712
  577MOL0     H76122   4.407   0.662   6.641  0.0411 -0.2710 -0.2250
  577MOL0     H76123   4.425   0.782   6.765 -0.2316  3.0649 -0.4148
  577MOL0     H76124   4.303   0.800   6.481  3.0069 -3.1364  0.5144
  577MOL0     H76125   4.310   0.941   6.589  0.3106 -0.4786 -0.5334
  577MOL0     H76126   4.118   0.950   6.426 -0.8185 -1.8499 -0.2479
  577MOL0     H76127   3.894   1.031   6.381 -2.7073  0.3017  2.0608
  577MOL0     H76128   3.420   1.013   6.766  1.4300  1.7954 -1.0868
  577MOL0     H76129   3.197   1.111   6.749  2.6412 -0.9729  1.4292
  577MOL0     H76130   3.010   1.191   6.715 -4.1451  1.2074  2.9102
  577MOL0     H76131   2.860   1.122   6.666  0.6841 -1.0143  0.6762
  577MOL0     H76132   2.853   1.257   6.456 -1.2804 -0.6078  0.6066
  577MOL0     H76133   3.010   1.336   6.498  0.0928 -1.5325  0.3433
  577MOL0     H76134   2.831   1.347   6.723  2.7938  0.5975  0.7535
  577MOL0     H76135   2.747   1.402   6.571  0.1337  0.5967  0.4356
  577MOL0     H76136   2.843   1.602   6.699  0.6586 -0.3535  0.4102
  577MOL0     H76137   2.995   1.525   6.660  0.1266 -1.4118 -2.0091
  577MOL0     H76138   2.940   1.571   6.412 -1.0556  0.0909  0.4391
  577MOL0     H76139   2.929   1.718   6.514 -2.3398  0.8521  0.7098
  577MOL0     H76140   2.683   1.653   6.541  0.9357 -1.7319  1.4585
  577MOL0     H76141   2.701   1.542   6.403  2.0339 -0.7599 -2.2795
  577MOL0     H76142   2.711   1.840   6.400  0.3648 -0.4754  1.4247
  577MOL0     H76143   2.819   1.752   6.290 -2.4580  3.1402 -2.7255
  577MOL0     H76144   2.603   1.810   6.185 -2.0565 -0.6047 -0.8793
  577MOL0     H76145   2.514   1.722   6.316  0.9432 -1.2445  0.5747
  577MOL0     H76146   3.176   0.960   6.339 -0.5269  0.4539  0.5445
  577MOL0     H76147   3.415   0.904   6.352 -1.6963 -1.0529 -0.2971
  577MOL0     H76148   3.744   0.788   6.702  1.2034  2.0660  1.2724
  577MOL0     H76149   3.953   0.742   6.771 -2.0978 -0.4225  0.2718
  577MOL0     H76150   5.049   0.772   7.453  0.6948  2.7927 -1.3876
  577MOL0     H76151   4.872   0.659   7.597 -0.7829  0.3513  0.2657
  577MOL0     H76152   4.467   0.618   7.841 -4.1391  0.0254  0.8097
  577MOL0     H76153   4.311   0.447   7.950  0.5344 -0.2877 -0.6459
  577MOL0     H76154   4.317   0.231   8.047 -1.7740  0.0570  2.4421
  577MOL0     H76155   4.238   0.084   8.014  0.7519  0.0337  2.5343
  577MOL0     H76156   4.129   0.378   8.019 -2.7829  0.3561  1.5166
  577MOL0     H76157   4.023   0.243   7.963 -1.0450  2.4827  1.6178
  577MOL0     H76158   4.016   0.327   8.216  1.5584  1.8649 -0.1413
  577MOL0     H76159   4.167   0.233   8.232 -1.8936 -2.2553  2.0424
  577MOL0     H76160   4.024   0.028   8.134 -0.9746 -0.3922  0.2790
  577MOL0     H76161   3.989   0.088   8.295 -0.3922 -0.4926  0.0703
  577MOL0     H76162   3.624   0.205   8.138  1.3356 -1.3689 -0.1989
  577MOL0     H76163   4.371   0.172   7.635  2.6886  0.8565 -3.0886
  577MOL0     H76164   4.534   0.312   7.536  0.5960  0.6834 -0.1109
  578MOL0     O76165  10.581  10.850  11.118 -0.0249 -0.2736 -0.4664
  578MOL0     C76166  10.567  10.789  11.014  0.4234  0.9000 -0.1870
  578MOL0     O76167  10.452  10.737  10.963 -0.2901  0.0674 -0.2974
  578MOL0     C76168  10.367  10.712  11.061  0.7597  0.7015 -0.5867
  578MOL0     C76169  10.306  10.818  11.129 -0.2059  0.1246 -0.0989
  578MOL0     C76170  10.224  10.783  11.236 -0.5494 -0.5368 -0.5356
  578MOL0     C76171  10.217  10.654  11.289 -0.3058  1.2764 -0.5531
  578MOL0     O76172  10.124  10.617  11.395 -0.3507  0.5977  0.2713
  578MOL0     C76173   9.989  10.620  11.348  0.0224  0.8566  0.7345
  578MOL0     C76174   9.921  10.739  11.412  0.8573 -0.3621 -0.2670
  578MOL0     C76175   9.776  10.710  11.457 -0.5015 -0.2476 -0.1085
  578MOL0     C76176   9.748  10.572  11.527 -0.0306 -0.0319 -0.3145
  578MOL0     C76177   9.612  10.542  11.590 -0.0445  0.7555  0.0226
  578MOL0     C76178   9.564  10.626  11.707 -0.3285 -0.6169  1.2034
  578MOL0     C76179   9.415  10.607  11.716 -0.2575  1.2096  0.0851
  578MOL0     C76180   9.369  10.687  11.830  0.0446 -0.8260 -0.3077
  578MOL0     N76181   9.228  10.654  11.872 -0.8505  0.6371 -0.5973
  578MOL0     C76182   9.190  10.527  11.908 -0.5376  0.3229  0.2798
  578MOL0     C76183   9.058  10.539  11.929 -1.0037 -0.1982  0.5213
  578MOL0     C76184   8.964  10.425  11.941 -0.4496  0.4657 -0.2447
  578MOL0     C76185   8.819  10.467  11.977  0.7681 -0.1337  0.4779
  578MOL0     C76186   8.718  10.348  11.989 -0.6474 -0.0987 -0.2387
  578MOL0     C76187   8.583  10.388  12.036 -0.0380 -0.5640 -0.6711
  578MOL0     O76188   8.524  10.281  12.093  0.5515  0.0614 -0.7756
  578MOL0     C76189   8.400  10.289  12.144 -1.0919 -0.3347 -0.4481
  578MOL0     C76190   8.319  10.399  12.132  0.2240  0.8873 -0.7572
  578MOL0     C76191   8.184  10.397  12.172 -0.4327 -0.0624  0.5164
  578MOL0     C76192   8.130  10.290  12.248 -0.2749  0.4960  0.7490
  578MOL0     C76193   8.007  10.287  12.302 -0.9642  0.0165  0.1040
  578MOL0     O76194   7.968  10.161  12.332  0.4766  0.2394  0.2769
  578MOL0     C76195   7.847  10.141  12.396  0.0301 -0.4564  0.0455
  578MOL0     C76196   7.818  10.008  12.380  0.5674 -0.0187  1.6885
  578MOL0     C76197   7.710   9.946  12.443  0.0287 -0.5525  0.3419
  578MOL0     C76198   7.618  10.029  12.513 -0.4090  0.3348  0.7482
  578MOL0     O76199   7.508   9.979  12.561  0.2316 -0.2455  0.5484
  578MOL0     C76200   7.419   9.897  12.480  0.7674 -1.1850 -0.3334
  578MOL0     C76201   7.277   9.898  12.548  0.0134  0.4294 -0.3169
  578MOL0     C76202   7.204  10.022  12.506  0.9273 -0.3106 -0.7808
  578MOL0     C76203   7.047   9.995  12.528  0.0262  0.4016  0.0377
  578MOL0     C76204   7.001   9.921  12.404 -0.5504  0.0103 -0.5741
  578MOL0     C76205   6.846   9.880  12.425  0.3396  0.0274 -1.2891
  578MOL0     C76206   6.762   9.889  12.292  0.0185 -0.5854  0.4320
  578MOL0     C76207   6.637   9.807  12.301 -0.0783  0.5036  0.2254
  578MOL0    Cl76208   6.517   9.892  12.408 -0.2391  0.4025  0.3738
  578MOL0     C76209   7.657  10.166  12.547  0.3845 -0.0041 -0.2389
  578MOL0     C76210   7.760  10.225  12.471  0.3946 -0.3633  0.0197
  578MOL0     O76211   7.949  10.391  12.343  0.2904 -0.1032  0.2263
  578MOL0     C76212   8.216  10.184  12.266 -0.0981  0.6069 -0.2112
  578MOL0     C76213   8.344  10.178  12.207 -0.2691  0.1753 -0.3882
  578MOL0     N76214   9.025  10.673  11.920  0.2479  0.0726 -0.5018
  578MOL0     N76215   9.131  10.737  11.900 -0.4591  0.0060 -0.1816
  578MOL0     C76216  10.290  10.561  11.216  0.0070  0.9649  0.2344
  578MOL0     C76217  10.369  10.581  11.113  0.7905  0.0257  0.2413
  578MOL0     C76218  10.681  10.788  10.927  0.2872  0.5735 -0.0606
  578MOL0     C76219  10.804  10.846  10.966 -0.0999 -0.4733  0.2388
  578MOL0     C76220  10.909  10.844  10.875  0.5006  0.1366  0.3574
  578MOL0     C76221  10.889  10.794  10.739  0.1149  0.1350 -0.6966
  578MOL0     O76222  10.982  10.801  10.639 -0.0621 -0.6421 -0.1581
  578MOL0     C76223  10.959  10.907  10.542 -1.1557  0.8155 -0.6554
  578MOL0     C76224  11.061  10.917  10.426 -0.4805  0.1440 -0.3355
  578MOL0     C76225  11.047  10.800  10.326 -0.5702 -0.0454  0.0569
  578MOL0     C76226  11.132  10.830  10.198  0.7902 -0.7177 -1.6487
  578MOL0     C76227  11.104  10.719  10.103  0.5679 -0.3433 -0.4708
  578MOL0     C76228  11.087  10.629  10.027 -0.7487 -0.1472 -0.3734
  578MOL0     C76229  10.767  10.726  10.711 -0.5927  0.0284 -0.2394
  578MOL0     C76230  10.663  10.737  10.799  0.8926 -0.6628  0.5744
  578MOL0     H76231  10.313  10.914  11.078  1.9500 -0.0935 -0.3074
  578MOL0     H76232  10.178  10.869  11.284 -0.5757  1.0702 -3.2648
  578MOL0     H76233   9.947  10.521  11.369  1.5442 -0.1347 -0.6949
  578MOL0     H76234   9.990  10.633  11.239  0.1742  0.2067  0.6550
  578MOL0     H76235   9.915  10.815  11.334  1.6708  0.9635  0.9173
  578MOL0     H76236   9.983  10.771  11.497  0.9263  0.5792 -0.6685
  578MOL0     H76237   9.713  10.711  11.367 -2.1228 -0.0440  0.9849
  578MOL0     H76238   9.733  10.789  11.519 -1.1375 -1.1925  0.6734
  578MOL0     H76239   9.767  10.487  11.460 -0.6842 -1.6943  1.5343
  578MOL0     H76240   9.822  10.575  11.607 -1.9819  1.4192  1.5568
  578MOL0     H76241   9.611  10.435  11.612  1.9303  0.8204  0.5816
  578MOL0     H76242   9.540  10.542  11.507  0.0308 -0.4813 -0.0573
  578MOL0     H76243   9.583  10.729  11.678  0.5068 -0.3273  2.7054
  578MOL0     H76244   9.609  10.590  11.800 -0.5794 -1.6505  0.9389
  578MOL0     H76245   9.356  10.628  11.626  0.4028  0.3393 -0.5699
  578MOL0     H76246   9.406  10.499  11.733  1.0558  0.9903 -0.4276
  578MOL0     H76247   9.372  10.789  11.793  1.4597 -1.4267 -1.9536
  578MOL0     H76248   9.438  10.685  11.915  0.0871  1.7186 -0.2226
  578MOL0     H76249   9.243  10.433  11.913 -1.2173 -0.0557  0.6265
  578MOL0     H76250   8.994  10.354  12.019 -4.7351 -0.0373  1.2298
  578MOL0     H76251   8.975  10.375  11.844  1.5837  0.8584 -0.2517
  578MOL0     H76252   8.797  10.535  11.894  2.0393 -0.1125  0.1302
  578MOL0     H76253   8.831  10.520  12.072  0.8535  0.6321  0.0534
  578MOL0     H76254   8.703  10.300  11.892 -0.3953  0.8987 -0.7857
  578MOL0     H76255   8.754  10.279  12.066 -2.2052 -1.3975 -0.6142
  578MOL0     H76256   8.521  10.407  11.949  2.7973 -1.1677 -2.9693
  578MOL0     H76257   8.584  10.480  12.096 -1.0836  0.1744 -1.7548
  578MOL0     H76258   8.366  10.489  12.092  1.6370  0.7341  0.5185
  578MOL0     H76259   8.119  10.475  12.135  0.7027 -0.7083 -3.1869
  578MOL0     H76260   7.890   9.943  12.331 -0.6134 -1.3139  1.6076
  578MOL0     H76261   7.698   9.840  12.423 -0.3602 -0.4504  0.0282
  578MOL0     H76262   7.454   9.793  12.471 -0.6214 -1.6855 -0.2215
  578MOL0     H76263   7.409   9.947  12.383 -1.5874 -0.1556  0.3650
  578MOL0     H76264   7.287   9.896  12.657 -0.8505 -0.0195 -0.2383
  578MOL0     H76265   7.235   9.802  12.517  1.7590 -0.7858  0.8758
  578MOL0     H76266   7.219  10.059  12.404 -2.4390  0.7207 -1.0426
  578MOL0     H76267   7.228  10.106  12.572  4.5497 -2.5369  1.0157
  578MOL0     H76268   7.046   9.938  12.621  1.0941  1.5100  0.7748
  578MOL0     H76269   6.988  10.085  12.550 -3.3884 -1.4400 -0.9063
  578MOL0     H76270   7.069   9.835  12.394  0.8405  1.1651 -1.3359
  578MOL0     H76271   7.007   9.992  12.322 -1.5663  1.5041  0.5973
  578MOL0     H76272   6.796   9.954  12.489 -1.1575 -2.8264  1.0787
  578MOL0     H76273   6.842   9.781  12.472 -1.2932  0.8963  0.5767
  578MOL0     H76274   6.757   9.994  12.260  1.9538 -0.0403  1.7180
  578MOL0     H76275   6.823   9.846  12.212 -0.7634 -1.9050  0.5062
  578MOL0     H76276   6.651   9.707  12.343 -1.0242  1.0645  1.9933
  578MOL0     H76277   6.588   9.794  12.204  3.1757 -0.6963 -1.4093
  578MOL0     H76278   7.600  10.220  12.621 -0.3521 -1.8936  0.6386
  578MOL0     H76279   7.786  10.328  12.491 -0.7101  0.1892 -1.2552
  578MOL0     H76280   8.199  10.096  12.327  0.4607  0.1395 -0.7244
  578MOL0     H76281   8.408  10.090  12.218  0.1570  0.6782  1.5814
  578MOL0     H76282  10.278  10.457  11.246 -2.1245  0.6180 -1.5556
  578MOL0     H76283  10.434  10.503  11.075  1.0361 -1.4305  3.3589
  578MOL0     H76284  10.813  10.894  11.063 -2.0445 -1.0981  0.7830
  578MOL0     H76285  10.999  10.900  10.898  1.5409 -1.6081  0.7049
  578MOL0     H76286  10.959  10.997  10.605 -1.4044 -0.5526  1.3705
  578MOL0     H76287  10.861  10.891  10.498 -0.9367  0.4022 -0.9992
  578MOL0     H76288  11.055  11.020  10.388  0.3200  0.7007  0.9725
  578MOL0     H76289  11.163  10.909  10.465 -0.8059 -0.4413  0.4036
  578MOL0     H76290  10.942  10.790  10.297 -0.1180 -2.3858 -0.9504
  578MOL0     H76291  11.082  10.711  10.379  0.9222  0.2709 -0.3605
  578MOL0     H76292  11.115  10.932  10.164  0.7192 -0.1416  0.0370
  578MOL0     H76293  11.238  10.836  10.224  0.3407  2.4926 -0.0822
  578MOL0     H76294  11.085  10.535   9.977  0.2265 -2.4993  3.5963
  578MOL0     H76295  10.758  10.675  10.615  2.3759 -1.0299 -0.0583
  578MOL0     H76296  10.568  10.699  10.761  1.6175 -1.1009 -0.8985
  579MOL0     O76297   2.404   4.612   4.467 -0.2392 -0.4312  0.4696
  579MOL0     C76298   2.477   4.713   4.466 -0.3270 -0.1874  0.1816
  579MOL0     O76299   2.443   4.842   4.496  0.0357 -0.0849  0.6773
  579MOL0     C76300   2.311   4.866   4.517 -0.1826  0.6066  0.4096
  579MOL0     C76301   2.258   4.958   4.422  0.6638 -0.2040  0.4228
  579MOL0     C76302   2.124   5.005   4.443  0.7079 -0.4042  0.2694
  579MOL0     C76303   2.044   4.958   4.550 -0.3023 -0.5795 -0.0391
  579MOL0     O76304   1.914   4.999   4.574 -0.4260  0.4823  1.1152
  579MOL0     C76305   1.866   5.118   4.520 -0.8158 -0.4221 -0.2642
  579MOL0     C76306   1.733   5.153   4.585 -0.0461 -0.3881  0.5378
  579MOL0     C76307   1.733   5.178   4.729  0.9587  0.1647 -0.1748
  579MOL0     C76308   1.605   5.242   4.779  0.1236  0.7532  0.6038
  579MOL0     C76309   1.474   5.165   4.763  0.8294  0.1820 -0.3161
  579MOL0     C76310   1.342   5.237   4.814 -0.0410  0.2731  0.3146
  579MOL0     C76311   1.221   5.166   4.744  0.3065 -0.0667  0.7258
  579MOL0     C76312   1.088   5.239   4.781 -0.1679  0.4007  0.1515
  579MOL0     N76313   0.977   5.157   4.833 -0.1518  0.7763  0.0233
  579MOL0     C76314   0.970   5.083   4.952 -0.1227 -0.1925  0.2349
  579MOL0     C76315   0.841   5.044   4.955  0.3361 -0.9188 -0.3192
  579MOL0     C76316   0.768   4.963   5.056  0.2574  0.3721  0.2255
  579MOL0     C76317   0.628   5.017   5.082 -0.1318  1.1750 -0.8696
  579MOL0     C76318   0.614   5.127   5.177  0.5250 -0.2391  0.3736
  579MOL0     C76319   0.467   5.159   5.207  0.1321 -0.0778 -0.1881
  579MOL0     O76320   0.375   5.047   5.253  0.1061 -0.4713  0.1178
  579MOL0     C76321   0.241   5.066   5.235  0.1486 -1.1627  0.1627
  579MOL0     C76322   0.177   5.189   5.205 -1.0777  0.8298 -0.5843
  579MOL0     C76323   0.036   5.201   5.199 -0.4538  0.7484  0.0988
  579MOL0     C76324  -0.045   5.087   5.229 -0.7207  0.4439 -0.0406
  579MOL0     C76325  -0.202   5.089   5.234  0.2592 -0.0831  0.1160
  579MOL0     O76326  -0.263   5.001   5.317  0.4921 -0.7034  0.3467
  579MOL0     C76327  -0.401   5.011   5.327  0.6020  0.9738 -0.4896
  579MOL0     C76328  -0.486   5.116   5.375 -0.1034 -0.6604 -0.3508
  579MOL0     C76329  -0.626   5.103   5.369  0.2344  0.4493 -0.5313
  579MOL0     C76330  -0.684   4.988   5.321 -0.2010 -0.6687 -0.2498
  579MOL0     O76331  -0.815   4.981   5.321 -0.4222 -0.9566  0.2645
  579MOL0     C76332  -0.876   4.848   5.320  0.1131 -0.3762  0.0276
  579MOL0     C76333  -1.029   4.870   5.319 -0.2405  0.2574  0.0900
  579MOL0     C76334  -1.073   4.906   5.463 -1.0320  0.7904  1.2153
  579MOL0     C76335  -1.225   4.882   5.473  0.0790 -0.2280  0.2123
  579MOL0     C76336  -1.295   4.934   5.607  0.6959  0.1548  0.6934
  579MOL0     C76337  -1.340   5.077   5.598  0.2925 -0.0006 -0.1613
  579MOL0     C76338  -1.339   5.129   5.739  0.4844  0.3111 -0.5812
  579MOL0     C76339  -1.407   5.257   5.771 -0.5060  0.3386  0.9277
  579MOL0    Cl76340  -1.579   5.246   5.818  0.1712  0.1748  0.0446
  579MOL0     C76341  -0.601   4.884   5.282 -0.6791  1.1803  0.1385
  579MOL0     C76342  -0.461   4.895   5.279 -0.7149  0.0037  1.0872
  579MOL0     O76343  -0.257   5.173   5.164 -0.4450 -0.6034  0.0040
  579MOL0     C76344   0.019   4.959   5.245 -0.6297 -0.5943 -0.3638
  579MOL0     C76345   0.157   4.954   5.250  0.2243 -0.7341  0.8470
  579MOL0     N76346   0.777   5.110   4.847  0.1653  0.9946 -0.1300
  579MOL0     N76347   0.853   5.167   4.770  0.7458 -0.4829 -0.0628
  579MOL0     C76348   2.098   4.866   4.633 -0.7224 -0.4680  0.0436
  579MOL0     C76349   2.230   4.816   4.620  0.0304  0.0054 -0.1469
  579MOL0     C76350   2.623   4.691   4.437 -0.2213  0.4138  1.1611
  579MOL0     C76351   2.710   4.799   4.438 -0.2944  0.2202  0.0318
  579MOL0     C76352   2.853   4.775   4.397  0.4540 -1.7204 -0.6529
  579MOL0     C76353   2.899   4.643   4.370 -0.3489  0.0048  0.8568
  579MOL0     O76354   3.030   4.612   4.325 -0.2410  0.0559 -0.4476
  579MOL0     C76355   3.107   4.720   4.262 -0.2128  0.5525 -0.3489
  579MOL0     C76356   3.053   4.756   4.122  1.0034  0.5184  0.3134
  579MOL0     C76357   3.093   4.653   4.016 -0.0537 -1.1508 -0.5753
  579MOL0     C76358   3.018   4.527   3.995  0.7455 -0.1670  0.6234
  579MOL0     C76359   2.877   4.552   3.943 -0.3958 -0.0265  0.7119
  579MOL0     C76360   2.773   4.568   3.897  0.3303  0.3066  0.9724
  579MOL0     C76361   2.809   4.540   4.374  0.6101 -0.2584  0.8458
  579MOL0     C76362   2.669   4.562   4.398  0.1222  0.1988  0.0418
  579MOL0     H76363   2.310   5.001   4.337 -1.8504  2.5590  0.1255
  579MOL0     H76364   2.079   5.083   4.382  2.4426  1.0098  0.6931
  579MOL0     H76365   1.854   5.105   4.412 -1.2846  0.5821 -0.3462
  579MOL0     H76366   1.944   5.195   4.527 -1.4079  0.3663 -1.7246
  579MOL0     H76367   1.669   5.068   4.562  1.0739 -0.9935 -0.4019
  579MOL0     H76368   1.702   5.242   4.529  1.3226  0.8704  1.6906
  579MOL0     H76369   1.814   5.247   4.755  0.0208  1.0581  0.4531
  579MOL0     H76370   1.760   5.091   4.789  0.8626  3.0545  4.5393
  579MOL0     H76371   1.603   5.268   4.886 -2.0525 -0.3067  0.8810
  579MOL0     H76372   1.586   5.331   4.718  0.2460  0.2819 -0.1273
  579MOL0     H76373   1.483   5.070   4.815 -1.3048  0.5417  0.8374
  579MOL0     H76374   1.453   5.147   4.657 -1.0755  1.6211 -0.2325
  579MOL0     H76375   1.344   5.344   4.789  0.4844  0.8797  2.7218
  579MOL0     H76376   1.332   5.216   4.921  0.9113 -1.6568  0.0651
  579MOL0     H76377   1.223   5.170   4.635 -0.9864  3.4995  0.7208
  579MOL0     H76378   1.224   5.064   4.784  4.7659 -0.6683 -0.5102
  579MOL0     H76379   1.054   5.291   4.691  2.0496 -0.0744 -1.0142
  579MOL0     H76380   1.115   5.320   4.850  0.2560  2.4016 -2.1881
  579MOL0     H76381   1.050   5.068   5.024  0.0873 -0.1598  0.0091
  579MOL0     H76382   0.818   4.963   5.154  0.6500 -1.9066  0.0944
  579MOL0     H76383   0.782   4.857   5.031 -1.9901 -0.3194  1.6864
  579MOL0     H76384   0.567   4.936   5.125  1.3643  1.2468  1.6044
  579MOL0     H76385   0.581   5.045   4.988  3.6402  1.0643 -2.9485
  579MOL0     H76386   0.656   5.090   5.271  1.1016 -4.1701 -1.2575
  579MOL0     H76387   0.659   5.222   5.148 -0.0787  0.4137  1.5150
  579MOL0     H76388   0.417   5.201   5.119  0.0522  2.0867  0.8407
  579MOL0     H76389   0.464   5.242   5.278 -1.0739 -1.0542  0.9646
  579MOL0     H76390   0.236   5.277   5.184  1.9154 -0.2211  2.4478
  579MOL0     H76391  -0.002   5.302   5.184 -0.4149  0.5504 -1.5618
  579MOL0     H76392  -0.431   5.207   5.397  1.6270 -1.8478  0.4912
  579MOL0     H76393  -0.694   5.182   5.400 -0.2046 -0.4829  0.9620
  579MOL0     H76394  -0.856   4.797   5.415 -0.9028  2.5072  1.9225
  579MOL0     H76395  -0.851   4.804   5.224 -0.3267  0.5770 -0.5392
  579MOL0     H76396  -1.074   4.779   5.279  0.6068 -0.3963  0.5857
  579MOL0     H76397  -1.063   4.943   5.246 -0.1316 -1.5877 -1.9094
  579MOL0     H76398  -1.063   5.010   5.493 -0.4452  1.5423 -1.3830
  579MOL0     H76399  -1.029   4.837   5.536 -1.1368 -1.1988 -0.4973
  579MOL0     H76400  -1.261   4.934   5.384  3.1743  2.4592  0.3377
  579MOL0     H76401  -1.254   4.778   5.456 -2.0166 -0.2429  3.0824
  579MOL0     H76402  -1.222   4.926   5.688  0.7249  1.0184  0.7591
  579MOL0     H76403  -1.383   4.871   5.624 -1.8265  2.2943 -2.7975
  579MOL0     H76404  -1.434   5.092   5.545  0.6831  0.8065 -0.6443
  579MOL0     H76405  -1.263   5.121   5.535 -0.4061 -0.5665 -1.4614
  579MOL0     H76406  -1.399   5.055   5.792 -1.3453  1.4112 -1.0243
  579MOL0     H76407  -1.236   5.130   5.776  0.7178  1.1417 -1.2159
  579MOL0     H76408  -1.415   5.326   5.686 -0.4752  0.6851  1.1998
  579MOL0     H76409  -1.357   5.316   5.848  2.2784  1.0948 -1.2770
  579MOL0     H76410  -0.644   4.794   5.239  1.7165  0.1375 -0.2723
  579MOL0     H76411  -0.405   4.815   5.231 -0.6655  1.5600 -1.5999
  579MOL0     H76412  -0.039   4.869   5.229 -2.3240  0.6441 -1.5200
  579MOL0     H76413   0.201   4.855   5.258  0.6813 -0.5993  0.0608
  579MOL0     H76414   2.038   4.828   4.714 -0.6841  0.4406  0.5140
  579MOL0     H76415   2.269   4.746   4.693 -1.7634  1.1113  1.9865
  579MOL0     H76416   2.670   4.897   4.463 -2.4900 -0.5172 -0.3785
  579MOL0     H76417   2.928   4.852   4.390  0.4914 -1.6918  0.0040
  579MOL0     H76418   3.211   4.688   4.249 -0.1603  0.3204  0.5688
  579MOL0     H76419   3.106   4.806   4.329 -2.1538 -0.2821  0.7707
  579MOL0     H76420   2.944   4.770   4.117  0.8691 -0.6965 -0.7376
  579MOL0     H76421   3.092   4.853   4.089  1.8366 -0.3665 -1.4541
  579MOL0     H76422   3.195   4.618   4.039  0.3277  0.9111  1.1929
  579MOL0     H76423   3.105   4.701   3.919  0.3884 -1.6925 -0.7950
  579MOL0     H76424   3.061   4.462   3.919  0.0178 -0.5714  0.5441
  579MOL0     H76425   3.009   4.473   4.089 -0.7105 -0.2513  0.4639
  579MOL0     H76426   2.672   4.566   3.862  1.2227 -4.8484 -2.3679
  579MOL0     H76427   2.831   4.437   4.347 -1.6414 -0.0964 -2.1843
  579MOL0     H76428   2.598   4.480   4.388 -0.0183  0.5697 -2.4507
  580MOL0     O76429   3.626   3.655  10.266  0.3829 -0.6315 -0.7169
  580MOL0     C76430   3.670   3.554  10.226  0.1431  0.2032  0.0673
  580MOL0     O76431   3.609   3.474  10.144  0.0529  0.0448 -0.5489
  580MOL0     C76432   3.484   3.503  10.101 -0.2851 -0.1845  1.0327
  580MOL0     C76433   3.463   3.568   9.975 -0.4857 -0.0273  0.1414
  580MOL0     C76434   3.337   3.591   9.930 -0.1555  0.4741  0.0674
  580MOL0     C76435   3.221   3.553  10.002 -0.5693  0.7429 -0.2300
  580MOL0     O76436   3.102   3.594   9.943 -0.5072  0.1688 -0.0878
  580MOL0     C76437   2.974   3.559   9.994  0.0623 -0.8438  0.8102
  580MOL0     C76438   2.877   3.568   9.875 -0.3995 -0.7964  0.2135
  580MOL0     C76439   2.734   3.606   9.920 -0.6040  0.1383  0.2792
  580MOL0     C76440   2.636   3.634   9.804 -0.4023 -1.0957 -0.4333
  580MOL0     C76441   2.494   3.659   9.861  0.2132 -0.8591 -0.1198
  580MOL0     C76442   2.382   3.596   9.774 -0.3751  0.1041 -0.1942
  580MOL0     C76443   2.249   3.651   9.820 -0.7564  0.0820 -0.2881
  580MOL0     C76444   2.134   3.593   9.745  0.6327  0.2134 -0.0476
  580MOL0     N76445   2.009   3.663   9.764 -0.3505 -0.0506 -0.1371
  580MOL0     C76446   1.957   3.758   9.681  0.4092 -0.7941  0.7382
  580MOL0     C76447   1.822   3.768   9.716 -0.7299  0.8488 -1.0612
  580MOL0     C76448   1.703   3.856   9.673 -0.2523 -0.3195  1.0565
  580MOL0     C76449   1.745   3.990   9.611  0.5122  0.0640  0.4391
  580MOL0     C76450   1.767   4.095   9.722  0.0901  0.2062  0.6579
  580MOL0     C76451   1.681   4.214   9.705 -0.2458  0.1344  0.1724
  580MOL0     O76452   1.537   4.174   9.716  0.1348  0.5370  0.1924
  580MOL0     C76453   1.440   4.262   9.686 -0.2898 -0.5361 -0.6611
  580MOL0     C76454   1.319   4.213   9.722 -0.1731  0.2253 -0.8706
  580MOL0     C76455   1.207   4.282   9.708  0.8534  0.2385  0.0964
  580MOL0     C76456   1.215   4.406   9.637  0.2204  0.2989  0.2712
  580MOL0     C76457   1.090   4.478   9.632 -0.2481 -0.0612 -0.7303
  580MOL0     O76458   0.975   4.418   9.660 -0.2062  0.5406  0.6579
  580MOL0     C76459   0.861   4.487   9.669  0.3830  0.3576 -0.4192
  580MOL0     C76460   0.818   4.534   9.793 -0.3220 -0.1263 -0.3009
  580MOL0     C76461   0.695   4.587   9.819  0.4104  0.0837  0.8154
  580MOL0     C76462   0.594   4.582   9.714  1.0377 -0.6112  0.5559
  580MOL0     O76463   0.469   4.641   9.724 -0.2313  0.4531  0.8392
  580MOL0     C76464   0.464   4.749   9.819  0.2181  0.1703  0.6584
  580MOL0     C76465   0.322   4.820   9.821 -0.3425 -0.4717  0.0104
  580MOL0     C76466   0.196   4.725   9.851 -0.7257 -0.5825  0.0096
  580MOL0     C76467   0.076   4.817   9.868  0.7965 -0.3953  1.0725
  580MOL0     C76468  -0.061   4.746   9.882  0.0423 -1.0417 -0.1232
  580MOL0     C76469  -0.169   4.845   9.934 -0.3966 -0.1000 -0.2806
  580MOL0     C76470  -0.300   4.771   9.943  0.4884 -0.5046  0.5767
  580MOL0     C76471  -0.418   4.875   9.939  0.6892 -0.2709  0.7938
  580MOL0    Cl76472  -0.577   4.815   9.985  0.0695  0.3051  0.3617
  580MOL0     C76473   0.648   4.543   9.585  0.5525 -0.3403  0.2842
  580MOL0     C76474   0.776   4.488   9.559  0.0771 -0.7164 -0.0789
  580MOL0     O76475   1.103   4.595   9.611  0.4332  0.6459 -0.4311
  580MOL0     C76476   1.337   4.460   9.598 -0.9786  0.7538  0.2733
  580MOL0     C76477   1.446   4.380   9.615 -0.1481  0.2206  0.3535
  580MOL0     N76478   1.802   3.675   9.820  0.6229 -0.3010  0.5225
  580MOL0     N76479   1.906   3.606   9.835 -0.2014 -0.1112  0.8541
  580MOL0     C76480   3.233   3.491  10.134  0.2796  0.9360  0.5067
  580MOL0     C76481   3.366   3.462  10.170  0.5973 -0.7688 -0.0500
  580MOL0     C76482   3.800   3.515  10.284 -0.0429  0.5959  0.1696
  580MOL0     C76483   3.890   3.615  10.335  0.1188  0.5439  0.8092
  580MOL0     C76484   4.020   3.577  10.369 -0.2428  0.5625 -0.1124
  580MOL0     C76485   4.060   3.442  10.368  0.4863 -0.5404 -0.1961
  580MOL0     O76486   4.190   3.415  10.430  0.4982  0.1869  0.0283
  580MOL0     C76487   4.227   3.274  10.426  0.4077  0.0457  0.4461
  580MOL0     C76488   4.357   3.258  10.512 -0.2024  0.1869  0.1497
  580MOL0     C76489   4.321   3.257  10.659  0.1980  0.4058 -0.0559
  580MOL0     C76490   4.449   3.228  10.759  0.8856 -0.6798  0.6151
  580MOL0     C76491   4.509   3.097  10.735 -0.3791 -0.6660  0.2718
  580MOL0     C76492   4.564   2.988  10.736 -0.1893 -0.1058 -0.2164
  580MOL0     C76493   3.971   3.350  10.321  0.4160  0.0008  0.3216
  580MOL0     C76494   3.845   3.384  10.279 -0.0021 -0.1614 -0.0529
  580MOL0     H76495   3.538   3.593   9.900 -2.1167  1.1038 -1.1931
  580MOL0     H76496   3.318   3.627   9.829  0.7937  0.7871 -0.0108
  580MOL0     H76497   2.942   3.626  10.074 -0.0053  0.8524 -0.5759
  580MOL0     H76498   2.977   3.459  10.039  1.4782 -0.4136  1.7429
  580MOL0     H76499   2.876   3.467   9.833  0.0015 -1.0055  0.7022
  580MOL0     H76500   2.911   3.655   9.818  3.0181 -0.2164  2.8314
  580MOL0     H76501   2.736   3.689   9.991 -1.1879 -1.3572  2.1339
  580MOL0     H76502   2.687   3.521   9.971 -1.3931 -0.2400 -1.0423
  580MOL0     H76503   2.658   3.727   9.752 -3.4416 -0.7913 -1.4102
  580MOL0     H76504   2.642   3.546   9.740 -0.2050  0.0486 -2.0289
  580MOL0     H76505   2.485   3.768   9.859 -0.9289 -0.9309  0.4810
  580MOL0     H76506   2.476   3.623   9.963 -1.4128 -1.3781 -0.5692
  580MOL0     H76507   2.385   3.487   9.778  1.9428  0.1543  0.8600
  580MOL0     H76508   2.393   3.627   9.670 -0.1690 -1.8561 -0.7874
  580MOL0     H76509   2.242   3.622   9.926  3.4926 -1.3358 -0.2153
  580MOL0     H76510   2.250   3.760   9.805 -1.8479  0.2034  0.4194
  580MOL0     H76511   2.131   3.487   9.773 -1.6339  0.0266 -0.7531
  580MOL0     H76512   2.156   3.591   9.638  0.2013  1.7475 -0.1886
  580MOL0     H76513   2.002   3.823   9.607  0.5519 -1.5867  0.1128
  580MOL0     H76514   1.648   3.899   9.757 -0.4992  1.3859  0.0620
  580MOL0     H76515   1.636   3.798   9.609 -1.5323 -2.2359  3.9446
  580MOL0     H76516   1.670   4.015   9.535  0.3304  2.5716  1.3525
  580MOL0     H76517   1.838   3.993   9.552  1.5416  0.8115  2.0284
  580MOL0     H76518   1.753   4.050   9.821  0.3610 -3.7068 -0.8926
  580MOL0     H76519   1.870   4.131   9.718  2.3532 -5.3560 -1.3215
  580MOL0     H76520   1.696   4.247   9.602 -1.4765 -0.2323 -0.1471
  580MOL0     H76521   1.710   4.295   9.772 -0.6301  1.6646 -1.4432
  580MOL0     H76522   1.316   4.117   9.773  1.2001  0.6207  0.0080
  580MOL0     H76523   1.117   4.236   9.749  0.5318 -0.7503 -1.6183
  580MOL0     H76524   0.892   4.530   9.872 -0.6917  0.1629  0.0612
  580MOL0     H76525   0.676   4.625   9.918  0.4445 -1.0864  1.2873
  580MOL0     H76526   0.540   4.826   9.799 -0.6623  0.8647 -0.0755
  580MOL0     H76527   0.485   4.716   9.921  1.1133  1.8282  1.0627
  580MOL0     H76528   0.311   4.871   9.725  0.8495  0.8822  0.5517
  580MOL0     H76529   0.328   4.903   9.892  1.9127  0.4446 -1.1525
  580MOL0     H76530   0.219   4.661   9.936  1.6913  1.5752  1.1060
  580MOL0     H76531   0.186   4.665   9.760  0.7320  0.5176 -0.9094
  580MOL0     H76532   0.108   4.873   9.956  1.9632 -0.7119  0.8666
  580MOL0     H76533   0.072   4.883   9.782  0.8988 -1.1359  0.4874
  580MOL0     H76534  -0.048   4.662   9.950 -0.5866 -0.3440  0.8845
  580MOL0     H76535  -0.094   4.713   9.783 -1.8543  0.2576  0.0332
  580MOL0     H76536  -0.171   4.918   9.852  1.1724  0.5206  0.2055
  580MOL0     H76537  -0.135   4.884  10.030  1.7618 -0.0208 -1.0218
  580MOL0     H76538  -0.318   4.715   9.851  1.2064  1.5185 -0.8629
  580MOL0     H76539  -0.309   4.714  10.037 -1.2617  2.0387  2.0749
  580MOL0     H76540  -0.431   4.930   9.846 -0.9504 -0.5596  0.8181
  580MOL0     H76541  -0.394   4.958  10.006 -2.4096  4.2647 -3.1133
  580MOL0     H76542   0.575   4.549   9.505 -0.6972  0.7871  1.4380
  580MOL0     H76543   0.812   4.455   9.463  0.1025 -0.1400 -0.2688
  580MOL0     H76544   1.348   4.553   9.544  1.6694  0.5824  0.3999
  580MOL0     H76545   1.542   4.401   9.568  2.2256 -1.4492  3.9957
  580MOL0     H76546   3.152   3.445  10.189  0.9001 -0.8594  0.0172
  580MOL0     H76547   3.373   3.394  10.255 -0.8854 -1.1255 -0.1806
  580MOL0     H76548   3.868   3.720  10.325 -2.2777  0.0610  0.3125
  580MOL0     H76549   4.083   3.656  10.408  2.0456 -2.8929  4.1374
  580MOL0     H76550   4.249   3.245  10.323 -0.9277  0.0620  0.1435
  580MOL0     H76551   4.150   3.211  10.472  0.1831 -0.3015 -0.3884
  580MOL0     H76552   4.417   3.167  10.499 -0.1616 -0.2002  2.4891
  580MOL0     H76553   4.420   3.344  10.488  0.9248 -1.2956 -2.7112
  580MOL0     H76554   4.252   3.178  10.687 -0.7982  0.8710 -1.1141
  580MOL0     H76555   4.270   3.348  10.692 -3.3463 -1.2551 -0.5247
  580MOL0     H76556   4.516   3.312  10.735 -1.9157  0.9192 -2.3384
  580MOL0     H76557   4.412   3.240  10.861  0.5311 -0.7038  0.4884
  580MOL0     H76558   4.621   2.897  10.731 -1.4705 -0.9573  0.0015
  580MOL0     H76559   4.003   3.246  10.315 -0.4924 -0.2490 -0.5066
  580MOL0     H76560   3.777   3.305  10.247  0.9663 -1.5288  1.1438
  581MOL0     O76561   3.199   4.421  10.954 -0.0826  0.2516  0.0671
  581MOL0     C76562   3.170   4.321  10.894 -0.7808  1.3875  0.0188
  581MOL0     O76563   3.040   4.279  10.861 -0.0653  0.3795  0.1216
  581MOL0     C76564   2.927   4.363  10.870  0.2427 -0.2196  0.7803
  581MOL0     C76565   2.800   4.291  10.868 -0.5438 -0.9772  1.0066
  581MOL0     C76566   2.680   4.373  10.857 -0.3327  0.4167 -0.3204
  581MOL0     C76567   2.681   4.510  10.846  0.3514 -0.3964  0.4812
  581MOL0     O76568   2.572   4.596  10.843  0.5321 -0.3141 -0.0408
  581MOL0     C76569   2.442   4.543  10.840  0.0451  0.3100 -0.2457
  581MOL0     C76570   2.335   4.643  10.856 -0.1092  0.6622 -0.2780
  581MOL0     C76571   2.197   4.575  10.871 -0.3912  0.1981 -0.4766
  581MOL0     C76572   2.081   4.670  10.895 -0.3447  0.3022  0.1785
  581MOL0     C76573   1.956   4.595  10.937  0.2063 -0.2297  0.3238
  581MOL0     C76574   1.842   4.700  10.936  1.0618 -0.7219  0.0229
  581MOL0     C76575   1.720   4.629  10.970 -0.3895  0.6650 -0.2277
  581MOL0     C76576   1.607   4.723  11.032 -0.8474 -0.4252 -0.7877
  581MOL0     N76577   1.479   4.662  11.050  0.1130  0.1141  1.1902
  581MOL0     C76578   1.366   4.723  11.102  0.1916  0.4927  0.0227
  581MOL0     C76579   1.269   4.633  11.099  0.0798 -0.3653  0.9340
  581MOL0     C76580   1.130   4.654  11.151  0.8842 -0.0634 -0.1503
  581MOL0     C76581   1.090   4.516  11.217  0.4949 -0.1722  0.3708
  581MOL0     C76582   0.973   4.525  11.318 -0.1390 -0.4263  0.1442
  581MOL0     C76583   0.876   4.407  11.335 -0.3367 -0.3726 -0.3573
  581MOL0     O76584   0.777   4.443  11.436 -0.3281  0.0397  0.1768
  581MOL0     C76585   0.665   4.517  11.390 -1.0664  0.1485  1.2890
  581MOL0     C76586   0.565   4.514  11.482  0.3825 -0.5013 -0.0153
  581MOL0     C76587   0.439   4.562  11.449  0.6525 -0.1705 -0.0289
  581MOL0     C76588   0.417   4.635  11.326 -0.2193 -0.3728  0.1564
  581MOL0     C76589   0.308   4.719  11.299 -0.4664 -0.3728  0.2386
  581MOL0     O76590   0.197   4.682  11.369 -0.4765 -0.0814 -0.2222
  581MOL0     C76591   0.077   4.744  11.365 -0.1365  0.7387  0.7233
  581MOL0     C76592   0.016   4.789  11.244  0.4750 -1.0002  0.0173
  581MOL0     C76593  -0.120   4.828  11.237  0.1078  0.6889 -0.1321
  581MOL0     C76594  -0.186   4.845  11.359  0.0555 -0.1070  0.3838
  581MOL0     O76595  -0.315   4.893  11.367 -0.8113 -0.7845  0.2622
  581MOL0     C76596  -0.394   4.922  11.245  0.4557 -0.0249 -0.5843
  581MOL0     C76597  -0.532   4.879  11.277  0.1645 -0.5719  1.0495
  581MOL0     C76598  -0.629   4.886  11.155  0.1053  0.7005  0.6743
  581MOL0     C76599  -0.771   4.855  11.192 -0.1934  0.4440  0.1759
  581MOL0     C76600  -0.851   4.972  11.247 -0.0120  0.4337 -0.3918
  581MOL0     C76601  -0.998   4.942  11.265 -0.6151 -0.3006  0.1728
  581MOL0     C76602  -1.038   4.880  11.400 -0.3456 -0.2655 -1.1928
  581MOL0     C76603  -1.196   4.859  11.417  0.3839  0.3512 -0.1506
  581MOL0    Cl76604  -1.228   4.775  11.570  0.2774 -0.2533  0.2640
  581MOL0     C76605  -0.120   4.810  11.478  0.4055  0.1050 -0.1917
  581MOL0     C76606   0.006   4.755  11.481  0.0773  0.0913  0.1711
  581MOL0     O76607   0.317   4.804  11.209  0.6201  0.5852  0.1905
  581MOL0     C76608   0.529   4.636  11.237  0.0295 -0.4401  0.3799
  581MOL0     C76609   0.651   4.579  11.263 -0.3606 -0.4543 -0.4422
  581MOL0     N76610   1.321   4.517  11.053  0.7121 -0.3672 -0.5489
  581MOL0     N76611   1.446   4.530  11.034 -0.3521 -0.0837 -0.4645
  581MOL0     C76612   2.810   4.570  10.851 -0.1849 -0.5807 -0.1051
  581MOL0     C76613   2.930   4.503  10.864 -0.0384 -1.0777 -0.4652
  581MOL0     C76614   3.284   4.240  10.844  0.3456  0.5612  0.9027
  581MOL0     C76615   3.416   4.273  10.863  1.0105  0.0702  0.1278
  581MOL0     C76616   3.517   4.191  10.827 -0.0891 -0.4576 -0.2775
  581MOL0     C76617   3.502   4.073  10.763  0.3589  0.1912 -0.9248
  581MOL0     O76618   3.613   4.007  10.721  0.0710 -0.3883 -0.6398
  581MOL0     C76619   3.597   3.894  10.634  0.4354 -0.0077 -0.4547
  581MOL0     C76620   3.726   3.820  10.602 -0.1363  0.2134 -0.0990
  581MOL0     C76621   3.840   3.909  10.554  0.2292 -0.2617  0.1579
  581MOL0     C76622   3.956   3.906  10.643  0.2334 -0.6718  0.1857
  581MOL0     C76623   3.952   3.985  10.770  0.8024  0.4577  0.4852
  581MOL0     C76624   3.939   4.043  10.868  0.2707 -0.5490  0.7767
  581MOL0     C76625   3.372   4.030  10.752  0.7622  0.2261 -0.2720
  581MOL0     C76626   3.267   4.110  10.788  0.4263  0.3302 -0.2541
  581MOL0     H76627   2.797   4.182  10.862  0.8075 -1.0269  0.8768
  581MOL0     H76628   2.582   4.327  10.868 -0.8229  0.8285 -2.5291
  581MOL0     H76629   2.421   4.477  10.925  0.5246  2.7667  1.9171
  581MOL0     H76630   2.439   4.497  10.741  0.5091 -0.3271  0.0294
  581MOL0     H76631   2.333   4.719  10.778  0.5745  3.2874  2.0554
  581MOL0     H76632   2.351   4.697  10.951 -0.6274  2.2366 -1.0474
  581MOL0     H76633   2.214   4.503  10.952 -0.7175  0.8633  0.1845
  581MOL0     H76634   2.167   4.512  10.787 -1.9713 -0.5759  0.6232
  581MOL0     H76635   2.115   4.739  10.973  3.4877  0.2386 -1.1829
  581MOL0     H76636   2.062   4.729  10.804  2.1499  0.1543 -0.5136
  581MOL0     H76637   1.964   4.541  11.032 -1.6822  1.2786  1.4181
  581MOL0     H76638   1.938   4.527  10.854  0.0707  0.2007 -0.0042
  581MOL0     H76639   1.841   4.756  10.842  0.7404  0.9274  0.9665
  581MOL0     H76640   1.879   4.770  11.011  1.7959  1.8056 -2.5214
  581MOL0     H76641   1.674   4.590  10.878 -0.7430  0.1207  0.1686
  581MOL0     H76642   1.738   4.540  11.031  1.8259  1.1356 -0.1342
  581MOL0     H76643   1.599   4.811  10.967 -0.7578  0.4171  0.3128
  581MOL0     H76644   1.638   4.756  11.132 -0.4230  0.5479 -1.2218
  581MOL0     H76645   1.359   4.828  11.129  1.2334  0.2545  1.3180
  581MOL0     H76646   1.056   4.689  11.079 -1.0836 -0.7235  1.4475
  581MOL0     H76647   1.132   4.739  11.220 -0.2273  0.0381 -0.2255
  581MOL0     H76648   1.184   4.482  11.263  1.1887  2.2290  0.8829
  581MOL0     H76649   1.062   4.439  11.145 -1.6248 -0.9491  1.9156
  581MOL0     H76650   1.001   4.560  11.417 -1.5259  1.8275 -0.1961
  581MOL0     H76651   0.915   4.611  11.285  0.0593  0.3352  1.7257
  581MOL0     H76652   0.921   4.314  11.372 -0.0699 -0.1950 -0.2314
  581MOL0     H76653   0.839   4.379  11.236  2.8224  0.8942 -2.0369
  581MOL0     H76654   0.585   4.457  11.572  0.0059  0.1469  0.4846
  581MOL0     H76655   0.362   4.539  11.522  0.4559 -2.2596 -0.8064
  581MOL0     H76656   0.069   4.782  11.149  1.6576 -1.2509  0.6688
  581MOL0     H76657  -0.171   4.851  11.144 -1.0098 -0.4215  0.1677
  581MOL0     H76658  -0.357   4.878  11.152  1.7151 -0.8433  0.2666
  581MOL0     H76659  -0.390   5.030  11.231 -0.3722  0.0521 -0.2490
  581MOL0     H76660  -0.578   4.953  11.344 -0.2869  3.3167 -3.0726
  581MOL0     H76661  -0.536   4.777  11.317  2.2002 -1.2005 -0.2171
  581MOL0     H76662  -0.603   4.808  11.082 -1.3447 -1.3546  2.2221
  581MOL0     H76663  -0.611   4.980  11.102 -0.1710  0.9862  1.0863
  581MOL0     H76664  -0.807   4.827  11.092  0.4574  1.1569 -0.2622
  581MOL0     H76665  -0.773   4.766  11.254  2.0556 -0.1452 -0.5023
  581MOL0     H76666  -0.847   5.057  11.178  0.6699 -0.0051 -0.9067
  581MOL0     H76667  -0.807   5.003  11.342  1.8483 -0.8826 -0.7660
  581MOL0     H76668  -1.031   4.871  11.189  0.7559  0.8669 -1.6027
  581MOL0     H76669  -1.050   5.039  11.264 -0.1895 -0.0705  0.0236
  581MOL0     H76670  -0.986   4.784  11.406 -2.4085 -1.3814  0.8706
  581MOL0     H76671  -1.007   4.953  11.476  2.2435  0.4968 -2.8665
  581MOL0     H76672  -1.232   4.805  11.330  3.9815 -1.2013 -0.8741
  581MOL0     H76673  -1.256   4.951  11.411  1.3222  1.0026  0.1343
  581MOL0     H76674  -0.177   4.818  11.570  2.2546 -0.0157  1.0436
  581MOL0     H76675   0.044   4.715  11.574 -0.7611 -1.1393  0.0201
  581MOL0     H76676   0.521   4.668  11.134 -3.4411  0.7674  0.9131
  581MOL0     H76677   0.728   4.582  11.186 -2.0855  3.6084 -2.3218
  581MOL0     H76678   2.831   4.676  10.853  1.4766 -0.8866 -0.3592
  581MOL0     H76679   3.019   4.564  10.872 -1.2483  0.8360 -0.6988
  581MOL0     H76680   3.434   4.373  10.901  0.5510 -0.9935  3.5180
  581MOL0     H76681   3.613   4.242  10.832 -0.0674 -0.2409 -2.1121
  581MOL0     H76682   3.561   3.940  10.541  0.4094  0.0918 -0.3958
  581MOL0     H76683   3.517   3.829  10.668 -1.9141  1.9432 -1.9252
  581MOL0     H76684   3.751   3.780  10.700  0.3258  0.3213 -0.1721
  581MOL0     H76685   3.713   3.744  10.524  0.9445  0.7636 -0.8438
  581MOL0     H76686   3.810   4.014  10.560  1.6065  0.1028  0.9154
  581MOL0     H76687   3.858   3.894  10.447 -1.4905  0.4338 -0.2771
  581MOL0     H76688   3.977   3.802  10.669 -1.1257 -0.6856  1.3432
  581MOL0     H76689   4.042   3.932  10.580  1.1188 -0.1927  1.5318
  581MOL0     H76690   3.937   4.108  10.953  0.2931  1.3270 -0.5807
  581MOL0     H76691   3.343   3.933  10.713  3.5475 -0.1641 -1.6275
  581MOL0     H76692   3.167   4.070  10.800 -0.8261  2.4493 -2.5799
  582MOL0     O76693  11.163   4.031  10.604  0.1786  0.0503  0.5638
  582MOL0     C76694  11.230   4.131  10.631 -0.2605 -1.1101 -0.9840
  582MOL0     O76695  11.181   4.245  10.682  0.4025 -0.1137 -0.0897
  582MOL0     C76696  11.053   4.250  10.729  0.3097 -0.4894  0.3752
  582MOL0     C76697  11.032   4.288  10.859  0.5787  0.6147  0.1749
  582MOL0     C76698  10.893   4.308  10.904 -0.7208 -0.2899 -0.6909
  582MOL0     C76699  10.783   4.294  10.816 -0.0817  0.3115 -0.5941
  582MOL0     O76700  10.650   4.313  10.848  0.4651 -0.3835 -0.0944
  582MOL0     C76701  10.601   4.296  10.984  0.2079 -0.3843 -0.7496
  582MOL0     C76702  10.503   4.410  11.004 -0.5854  0.1789 -0.4511
  582MOL0     C76703  10.367   4.414  10.944  0.4631 -0.3666 -0.1893
  582MOL0     C76704  10.266   4.511  11.014 -0.3111  0.4218 -0.6751
  582MOL0     C76705  10.143   4.557  10.934 -0.0440 -0.6667 -0.5533
  582MOL0     C76706  10.041   4.445  10.897 -0.0957 -1.2102  0.4867
  582MOL0     C76707   9.910   4.509  10.849 -0.6733  0.7670  0.1759
  582MOL0     C76708   9.835   4.579  10.951  0.8202 -0.4416 -0.3585
  582MOL0     N76709   9.710   4.518  10.996 -0.5155 -0.3474  0.0414
  582MOL0     C76710   9.703   4.395  11.044 -0.1457 -0.3893 -1.4387
  582MOL0     C76711   9.572   4.372  11.064 -0.0074  0.0425  0.0251
  582MOL0     C76712   9.519   4.236  11.111  0.2056 -0.0468 -0.2436
  582MOL0     C76713   9.371   4.246  11.170  0.6228  0.5669 -0.3421
  582MOL0     C76714   9.318   4.113  11.234 -0.0454  0.6463  0.3500
  582MOL0     C76715   9.171   4.111  11.275 -0.7165  0.9363 -0.5582
  582MOL0     O76716   9.088   4.080  11.160 -0.3283  0.4908  0.5396
  582MOL0     C76717   8.952   4.043  11.175  0.0829  1.3995 -0.7235
  582MOL0     C76718   8.878   4.058  11.292 -0.1940  0.0120  1.0966
  582MOL0     C76719   8.741   4.033  11.286 -0.3742  0.2283 -0.4320
  582MOL0     C76720   8.685   3.985  11.159  0.6928 -0.4660 -0.6397
  582MOL0     C76721   8.541   3.941  11.145 -1.1128 -0.4194 -0.0293
  582MOL0     O76722   8.493   3.906  11.023  0.4014 -0.1154  0.1785
  582MOL0     C76723   8.367   3.863  11.025  0.5478  0.0370 -0.5323
  582MOL0     C76724   8.267   3.952  11.054 -0.3943 -0.1484  0.6614
  582MOL0     C76725   8.142   3.903  11.082  0.2492  0.5220  0.5955
  582MOL0     C76726   8.113   3.766  11.089  0.5447 -0.4061  0.0502
  582MOL0     O76727   7.993   3.720  11.135 -0.1717  0.3169 -0.2923
  582MOL0     C76728   7.874   3.778  11.092 -0.3453 -1.1042  0.3970
  582MOL0     C76729   7.807   3.837  11.221  0.6395 -1.2400  0.5432
  582MOL0     C76730   7.759   3.725  11.309  0.4061 -0.2838 -0.0373
  582MOL0     C76731   7.678   3.773  11.433 -0.1584 -0.2907 -0.1354
  582MOL0     C76732   7.657   3.664  11.535 -0.3299 -0.3692  0.7007
  582MOL0     C76733   7.556   3.704  11.640  0.1666  0.1613 -1.2673
  582MOL0     C76734   7.414   3.714  11.580  0.1642 -0.2385 -0.0424
  582MOL0     C76735   7.306   3.718  11.684  0.2509 -0.3040 -0.2791
  582MOL0    Cl76736   7.145   3.760  11.619  0.5162 -0.4949 -0.0823
  582MOL0     C76737   8.220   3.679  11.071  0.5386  0.6599 -0.7805
  582MOL0     C76738   8.344   3.723  11.032 -0.4478 -1.1039  0.5945
  582MOL0     O76739   8.475   3.951  11.250  0.7750  0.1667 -0.4600
  582MOL0     C76740   8.763   3.979  11.045 -0.6213 -0.3629 -0.1361
  582MOL0     C76741   8.896   4.001  11.054 -0.8365  0.4816 -0.2887
  582MOL0     N76742   9.498   4.483  11.022  0.0589 -0.0020  0.5714
  582MOL0     N76743   9.589   4.566  10.988  0.1760  0.1693  0.7677
  582MOL0     C76744  10.807   4.275  10.682  0.6298 -0.1704 -0.5642
  582MOL0     C76745  10.938   4.244  10.634 -0.6850  0.4089 -1.1497
  582MOL0     C76746  11.381   4.120  10.608  1.7288 -0.0987 -0.2763
  582MOL0     C76747  11.427   4.017  10.540 -0.0337  0.1665 -0.8010
  582MOL0     C76748  11.562   3.993  10.529  1.1444  0.0888 -0.0444
  582MOL0     C76749  11.664   4.083  10.580  0.3846  0.1456 -0.4193
  582MOL0     O76750  11.798   4.076  10.539 -0.0949  0.5798 -0.1999
  582MOL0     C76751  11.848   3.959  10.464  0.4909  0.0021 -0.1838
  582MOL0     C76752  12.007   3.929  10.443  0.1182 -0.3393 -0.3040
  582MOL0     C76753  12.086   3.953  10.578 -0.0870 -0.2294 -0.1826
  582MOL0     C76754  12.235   3.932  10.544 -0.0284 -0.0805  0.8949
  582MOL0     C76755  12.278   4.046  10.464 -0.6671  0.5699  0.1433
  582MOL0     C76756  12.326   4.128  10.392 -0.4140 -0.4524  0.0459
  582MOL0     C76757  11.612   4.196  10.641 -0.2251 -0.5236  0.0304
  582MOL0     C76758  11.472   4.217  10.659  0.7413 -0.3565  0.7750
  582MOL0     H76759  11.114   4.289  10.931  1.3896 -1.1470 -0.6580
  582MOL0     H76760  10.885   4.351  11.003 -1.8981  0.5831 -1.1352
  582MOL0     H76761  10.681   4.303  11.059  0.2663 -0.8644 -0.7623
  582MOL0     H76762  10.547   4.202  11.001 -1.2280  0.6093  0.5597
  582MOL0     H76763  10.560   4.499  10.975  0.3924 -0.6227 -1.0466
  582MOL0     H76764  10.490   4.424  11.112  0.6858 -0.9695 -0.1401
  582MOL0     H76765  10.324   4.313  10.949  1.5214 -0.7967  0.9074
  582MOL0     H76766  10.382   4.447  10.841 -2.1909  0.5924 -0.3428
  582MOL0     H76767  10.227   4.460  11.102  1.8021  2.3486  1.5299
  582MOL0     H76768  10.310   4.605  11.051  0.6161  0.1906 -1.1557
  582MOL0     H76769  10.163   4.603  10.836  3.4160 -2.9840 -1.1303
  582MOL0     H76770  10.102   4.637  10.997  2.9102 -1.8974  3.3373
  582MOL0     H76771  10.026   4.372  10.976 -1.5055 -3.4040 -1.6676
  582MOL0     H76772  10.077   4.380  10.817  1.7354 -0.0721  0.3296
  582MOL0     H76773   9.932   4.569  10.760  0.6068 -2.3184 -1.7534
  582MOL0     H76774   9.841   4.431  10.817  0.2653  0.3691 -0.9799
  582MOL0     H76775   9.797   4.679  10.925 -0.7595 -1.1884 -1.1154
  582MOL0     H76776   9.892   4.585  11.044  2.0318  1.8677 -1.1641
  582MOL0     H76777   9.783   4.327  11.073 -1.9272 -2.2209 -0.5510
  582MOL0     H76778   9.571   4.181  11.189 -1.1998 -2.6833 -1.0659
  582MOL0     H76779   9.513   4.163  11.030  1.2928 -2.6657  1.9043
  582MOL0     H76780   9.312   4.273  11.081  2.1307  0.5897 -1.3618
  582MOL0     H76781   9.357   4.322  11.247 -1.6030 -0.5883  0.4939
  582MOL0     H76782   9.339   4.029  11.166 -0.4769  1.4555 -0.8025
  582MOL0     H76783   9.379   4.103  11.324  1.2871  2.2378 -0.3146
  582MOL0     H76784   9.138   4.204  11.325 -0.6893  1.6115 -1.7679
  582MOL0     H76785   9.151   4.033  11.349  1.7938  1.9204  1.3348
  582MOL0     H76786   8.918   4.095  11.386  0.9055  1.4676  0.0926
  582MOL0     H76787   8.675   4.045  11.371 -1.5590 -0.3263 -1.2378
  582MOL0     H76788   8.287   4.057  11.072  1.5648 -0.5741  1.1318
  582MOL0     H76789   8.062   3.975  11.099 -2.8551 -2.2613 -1.1624
  582MOL0     H76790   7.807   3.709  11.039 -0.1182 -2.4883  1.8424
  582MOL0     H76791   7.890   3.863  11.024 -0.2403 -0.3719  1.3225
  582MOL0     H76792   7.723   3.889  11.174  1.2707 -2.0800 -1.6421
  582MOL0     H76793   7.875   3.909  11.268 -0.8964  1.1656 -0.7081
  582MOL0     H76794   7.840   3.660  11.343  0.3212 -0.8341 -0.8335
  582MOL0     H76795   7.701   3.658  11.245  1.4286 -0.4049 -0.8607
  582MOL0     H76796   7.734   3.855  11.478  3.2252 -1.1633 -2.4283
  582MOL0     H76797   7.587   3.827  11.403 -0.4757  0.1651  1.5665
  582MOL0     H76798   7.753   3.642  11.584 -1.4004 -2.1337  2.1289
  582MOL0     H76799   7.605   3.578  11.492 -3.2389  0.4440  2.2806
  582MOL0     H76800   7.581   3.800  11.686  1.0276 -1.5138  2.0491
  582MOL0     H76801   7.548   3.634  11.724 -2.6281  0.9207 -0.7901
  582MOL0     H76802   7.403   3.797  11.509 -0.4642 -0.5935 -0.3650
  582MOL0     H76803   7.392   3.629  11.515 -1.6934  0.5218 -0.4906
  582MOL0     H76804   7.337   3.789  11.761  0.6644  0.9934 -1.5962
  582MOL0     H76805   7.303   3.621  11.733  2.4258 -0.2030  0.1332
  582MOL0     H76806   8.199   3.573  11.080  0.1669  0.7773 -0.1887
  582MOL0     H76807   8.426   3.658  11.004 -0.7141 -1.9349  1.6846
  582MOL0     H76808   8.717   3.952  10.951 -1.2756 -2.0942  0.6286
  582MOL0     H76809   8.960   3.993  10.966 -0.1498  2.2901  0.0100
  582MOL0     H76810  10.730   4.281  10.606  0.5410 -2.4586 -0.7190
  582MOL0     H76811  10.952   4.228  10.528  4.0473 -4.6918 -0.2336
  582MOL0     H76812  11.356   3.948  10.495 -1.7530  0.2564  1.6247
  582MOL0     H76813  11.596   3.913  10.463  1.5478  1.5218 -1.6454
  582MOL0     H76814  11.809   3.975  10.363  1.7842  5.2892 -0.1493
  582MOL0     H76815  11.803   3.869  10.507  0.3472  0.1833  0.0467
  582MOL0     H76816  12.019   3.822  10.424  1.4806 -0.5116  1.3247
  582MOL0     H76817  12.037   3.992  10.358 -0.5369 -0.9472 -1.0034
  582MOL0     H76818  12.055   3.885  10.658  2.5958 -0.5161  0.7219
  582MOL0     H76819  12.073   4.054  10.618  0.7634 -0.5122  0.8685
  582MOL0     H76820  12.293   3.936  10.637 -0.6475  3.5115  1.2846
  582MOL0     H76821  12.242   3.841  10.485 -4.0234  0.7151 -1.1202
  582MOL0     H76822  12.369   4.210  10.337  1.6398  0.1521  2.3758
  582MOL0     H76823  11.681   4.273  10.674  1.6080 -1.2051 -1.9583
  582MOL0     H76824  11.437   4.308  10.707  0.1382  0.8969 -1.8328
  583MOL0     O76825   7.553   3.463  10.087 -0.3096  0.9801  0.0695
  583MOL0     C76826   7.590   3.536  10.181 -0.4425  0.4541  0.6714
  583MOL0     O76827   7.509   3.591  10.277 -0.2350  0.8442 -0.8835
  583MOL0     C76828   7.378   3.567  10.257 -0.0203 -0.2585  0.0143
  583MOL0     C76829   7.310   3.444  10.241 -0.1794 -0.1252 -0.4287
  583MOL0     C76830   7.175   3.437  10.203  0.8198 -0.1895 -0.2966
  583MOL0     C76831   7.100   3.561  10.194 -0.2193 -0.0481  0.8325
  583MOL0     O76832   6.979   3.569  10.138  0.7130  0.0538  0.6680
  583MOL0     C76833   6.923   3.454  10.074  0.4065  0.3767  0.1113
  583MOL0     C76834   6.791   3.501  10.017 -0.4071 -0.3651 -0.2368
  583MOL0     C76835   6.729   3.417   9.919  0.0192 -0.1928 -0.3415
  583MOL0     C76836   6.808   3.384   9.790 -0.5260  0.0616  0.2400
  583MOL0     C76837   6.722   3.316   9.687 -0.0619 -0.0481  0.3253
  583MOL0     C76838   6.697   3.176   9.728 -0.5049 -0.2065  0.0603
  583MOL0     C76839   6.627   3.099   9.613 -0.6806  0.6409 -0.4932
  583MOL0     C76840   6.494   3.168   9.593 -0.4223  0.1200  0.7409
  583MOL0     N76841   6.396   3.156   9.699  0.1973 -0.2205  0.3213
  583MOL0     C76842   6.366   3.037   9.765  0.1406 -0.3924 -0.0888
  583MOL0     C76843   6.284   3.087   9.862 -0.1947 -0.3144  0.0144
  583MOL0     C76844   6.227   2.993   9.960  0.1680  0.4478 -0.2591
  583MOL0     C76845   6.134   2.886   9.895 -0.2381 -0.6859 -0.4458
  583MOL0     C76846   6.049   2.790   9.982  0.3988  0.2833 -0.6816
  583MOL0     C76847   6.125   2.718  10.094  0.4143 -0.2287  0.4209
  583MOL0     O76848   6.080   2.581  10.105 -0.0092 -0.5185 -1.2418
  583MOL0     C76849   6.157   2.487  10.171 -0.5411  0.7264 -0.0422
  583MOL0     C76850   6.109   2.359  10.177 -1.0061  0.7100 -0.2390
  583MOL0     C76851   6.184   2.249  10.227 -0.1737  0.2738  0.8544
  583MOL0     C76852   6.314   2.271  10.281  0.0812 -0.6995  0.3123
  583MOL0     C76853   6.387   2.162  10.341  0.2395  0.4155  0.0760
  583MOL0     O76854   6.516   2.189  10.382 -0.1112  0.9626  0.6372
  583MOL0     C76855   6.586   2.083  10.439 -0.1388 -0.2095 -0.3167
  583MOL0     C76856   6.565   2.046  10.570  0.0873 -1.1211 -0.2716
  583MOL0     C76857   6.645   1.946  10.636  0.5264  0.2738 -0.4456
  583MOL0     C76858   6.750   1.887  10.562 -0.7978  0.6391 -0.4228
  583MOL0     O76859   6.821   1.772  10.607  0.0344 -0.4075 -0.2690
  583MOL0     C76860   6.966   1.766  10.578 -0.4213  0.7389  0.2231
  583MOL0     C76861   7.046   1.720  10.700 -0.1473 -0.0826  0.4174
  583MOL0     C76862   7.033   1.813  10.822  0.3216 -1.3970  0.3272
  583MOL0     C76863   7.150   1.772  10.923  0.4727  0.2366 -0.3535
  583MOL0     C76864   7.098   1.775  11.067  0.5143  0.1800 -0.3948
  583MOL0     C76865   7.081   1.922  11.111 -0.1639 -0.4020 -0.0017
  583MOL0     C76866   7.015   1.952  11.249 -0.2122  0.2349 -1.0468
  583MOL0     C76867   7.059   2.089  11.311 -0.0549  0.0113  0.4861
  583MOL0    Cl76868   7.014   2.114  11.476 -0.2936  0.3682 -0.0584
  583MOL0     C76869   6.762   1.920  10.426  0.3409  0.3928 -0.0804
  583MOL0     C76870   6.689   2.023  10.367  0.9359  0.7333 -0.3788
  583MOL0     O76871   6.331   2.059  10.371  0.5261  0.5838 -0.3965
  583MOL0     C76872   6.362   2.400  10.284 -0.4592  0.4749  0.4233
  583MOL0     C76873   6.282   2.506  10.229  0.5606 -0.0655 -0.7235
  583MOL0     N76874   6.271   3.222   9.867  0.3755  0.1150  0.7131
  583MOL0     N76875   6.339   3.264   9.764 -0.4686  0.2268  0.0061
  583MOL0     C76876   7.166   3.677  10.229 -0.2978  0.2123 -0.0513
  583MOL0     C76877   7.305   3.685  10.262 -0.0633  0.8668  0.1549
  583MOL0     C76878   7.732   3.560  10.181 -0.6878  0.1207 -1.1059
  583MOL0     C76879   7.782   3.665  10.257 -0.1802  0.0070 -0.0278
  583MOL0     C76880   7.920   3.685  10.268 -0.2167  0.2188  0.0921
  583MOL0     C76881   8.012   3.604  10.207 -0.2824  0.6645  0.1085
  583MOL0     O76882   8.146   3.637  10.217 -0.3481 -0.0352 -0.9992
  583MOL0     C76883   8.255   3.548  10.183 -0.0222  0.2159  0.4243
  583MOL0     C76884   8.375   3.598  10.260 -0.3723 -0.0222  0.2209
  583MOL0     C76885   8.424   3.712  10.164  0.3732 -0.0852  0.2306
  583MOL0     C76886   8.545   3.801  10.215 -0.5464 -0.6783  0.6933
  583MOL0     C76887   8.673   3.740  10.235  0.3056  1.2580 -0.0785
  583MOL0     C76888   8.775   3.681  10.240  0.3659 -0.0767 -0.1009
  583MOL0     C76889   7.965   3.489  10.145  0.2852 -0.1043  0.1239
  583MOL0     C76890   7.821   3.466  10.131 -0.4381  0.3164 -1.0180
  583MOL0     H76891   7.360   3.348  10.239 -0.6046 -0.3580  0.0178
  583MOL0     H76892   7.131   3.342  10.173 -0.3385  0.9955 -2.6694
  583MOL0     H76893   6.910   3.385  10.158 -3.4093  0.1520 -0.4840
  583MOL0     H76894   6.986   3.414   9.994 -1.3858  0.3209 -1.3455
  583MOL0     H76895   6.813   3.597   9.968  0.0106  0.7464  1.9964
  583MOL0     H76896   6.729   3.532  10.102  0.5955  1.6787 -0.1762
  583MOL0     H76897   6.642   3.477   9.891  0.6828  1.7877  1.5459
  583MOL0     H76898   6.698   3.320   9.958  2.3976 -1.8781 -2.2754
  583MOL0     H76899   6.833   3.481   9.745 -0.4714 -1.1437 -2.5122
  583MOL0     H76900   6.903   3.332   9.803 -1.0866 -0.5385  2.3003
  583MOL0     H76901   6.764   3.324   9.586 -2.5679  0.0773 -0.8075
  583MOL0     H76902   6.632   3.379   9.680  1.8869  2.9221  0.2716
  583MOL0     H76903   6.635   3.157   9.816  3.0662 -5.0677  2.0016
  583MOL0     H76904   6.794   3.126   9.739 -1.7743 -2.7078  0.5344
  583MOL0     H76905   6.684   3.103   9.519 -0.6762 -0.1434 -0.5328
  583MOL0     H76906   6.614   2.997   9.649  3.9321  1.1311  3.7370
  583MOL0     H76907   6.441   3.117   9.512 -1.0423  1.8501  0.0146
  583MOL0     H76908   6.497   3.275   9.572 -0.6915 -0.3495 -2.0806
  583MOL0     H76909   6.390   2.932   9.755  3.2033  0.2826 -1.1606
  583MOL0     H76910   6.177   3.048  10.041  0.1064 -0.8468  0.6240
  583MOL0     H76911   6.311   2.935  10.000 -1.2181 -3.0135 -1.9969
  583MOL0     H76912   6.192   2.833   9.818 -0.9635 -0.7744 -0.9384
  583MOL0     H76913   6.063   2.937   9.829 -1.4994  1.3456  2.3179
  583MOL0     H76914   5.961   2.838  10.025  0.8859  0.7177 -0.1567
  583MOL0     H76915   6.007   2.715   9.914 -2.8216  1.5212 -0.2646
  583MOL0     H76916   6.089   2.765  10.186 -4.3877  3.0259 -2.6837
  583MOL0     H76917   6.233   2.724  10.078  0.0664 -0.8023 -2.8390
  583MOL0     H76918   6.012   2.336  10.136 -1.5442  1.9773  0.2740
  583MOL0     H76919   6.142   2.149  10.221  1.7046 -0.5512  1.0178
  583MOL0     H76920   6.486   2.091  10.631 -0.2125 -0.7622 -0.9166
  583MOL0     H76921   6.614   1.914  10.735  2.4797 -2.6755 -0.6641
  583MOL0     H76922   7.007   1.864  10.555  3.4947 -1.0963 -1.5077
  583MOL0     H76923   6.983   1.693  10.498  1.5669 -1.7003  2.6499
  583MOL0     H76924   7.151   1.702  10.676  0.2079  1.3401  0.7734
  583MOL0     H76925   7.008   1.619  10.715  1.4758 -0.7076  0.5057
  583MOL0     H76926   6.932   1.818  10.865  1.0785  3.4071  2.2665
  583MOL0     H76927   7.061   1.916  10.797 -1.5285 -0.4958  1.6392
  583MOL0     H76928   7.192   1.672  10.910  0.6575 -0.1190  2.2503
  583MOL0     H76929   7.238   1.833  10.902  0.1293  1.3033  1.1112
  583MOL0     H76930   7.166   1.733  11.140 -0.3879 -0.5509  0.0482
  583MOL0     H76931   7.002   1.723  11.076  1.3762 -1.2119  1.4245
  583MOL0     H76932   7.022   1.972  11.034 -0.5128  1.1160  1.1775
  583MOL0     H76933   7.178   1.971  11.097 -0.0783 -1.3239 -3.6936
  583MOL0     H76934   6.906   1.961  11.237 -0.7343 -1.3506  1.6748
  583MOL0     H76935   7.023   1.868  11.318 -0.1739  0.7802 -0.3795
  583MOL0     H76936   7.014   2.174  11.259  1.2610  0.5256  0.1359
  583MOL0     H76937   7.167   2.101  11.302  0.4580 -1.7984  3.1274
  583MOL0     H76938   6.834   1.869  10.363 -0.3670 -0.3112 -0.3315
  583MOL0     H76939   6.701   2.060  10.266  0.4939  1.9611 -0.0059
  583MOL0     H76940   6.461   2.420  10.325 -1.2828  3.0250  1.3883
  583MOL0     H76941   6.332   2.602  10.221  0.5069  0.3104  2.2413
  583MOL0     H76942   7.114   3.768  10.204 -0.9647 -0.8679 -2.9803
  583MOL0     H76943   7.339   3.788  10.267 -1.0003  1.1352  2.0632
  583MOL0     H76944   7.720   3.736  10.311  0.5020 -1.0548  2.2794
  583MOL0     H76945   7.943   3.766  10.337  1.4915 -1.1509  1.2341
  583MOL0     H76946   8.270   3.542  10.074  1.0967  0.7284  0.5371
  583MOL0     H76947   8.246   3.443  10.213  0.6322  0.0448  0.0491
  583MOL0     H76948   8.346   3.637  10.358 -2.0393  0.3582 -0.3866
  583MOL0     H76949   8.449   3.519  10.275 -0.1703  0.5052  2.2874
  583MOL0     H76950   8.344   3.784  10.143 -0.3081 -0.9856 -0.3615
  583MOL0     H76951   8.457   3.659  10.074 -2.1843 -3.6860  1.1724
  583MOL0     H76952   8.556   3.875  10.135 -0.1277 -0.6005  0.8196
  583MOL0     H76953   8.518   3.845  10.312 -0.0648  0.9422  0.1308
  583MOL0     H76954   8.857   3.612  10.237  1.0840  0.7826 -1.3112
  583MOL0     H76955   8.035   3.415  10.107  2.3998 -0.2917  3.8356
  583MOL0     H76956   7.792   3.381  10.070 -2.5332 -1.0625  1.6816
  584MOL0     O76957   3.219   4.852   8.795 -0.2802 -0.4165  0.3393
  584MOL0     C76958   3.157   4.935   8.858 -0.0810  0.3677 -0.3147
  584MOL0     O76959   3.056   4.902   8.941 -0.1236 -0.0367 -0.1279
  584MOL0     C76960   3.029   4.766   8.956  0.3868 -0.1587  0.5738
  584MOL0     C76961   3.099   4.692   9.050  0.1427  0.0031 -0.0199
  584MOL0     C76962   3.047   4.569   9.098  0.3727  0.3278  0.1161
  584MOL0     C76963   2.920   4.521   9.053  0.2360 -0.4130 -1.3512
  584MOL0     O76964   2.871   4.400   9.103  0.6253 -0.2297 -0.1923
  584MOL0     C76965   2.949   4.284   9.080 -1.3320 -0.7902 -0.5193
  584MOL0     C76966   2.873   4.196   8.979  0.2700  0.3824  1.0468
  584MOL0     C76967   2.769   4.102   9.038  0.9197 -0.0454 -0.0629
  584MOL0     C76968   2.673   4.044   8.944 -0.0099  0.1533  0.4913
  584MOL0     C76969   2.537   3.998   9.001 -0.7795 -0.2745 -0.2083
  584MOL0     C76970   2.443   3.958   8.892 -0.4366  1.0439 -0.2031
  584MOL0     C76971   2.473   3.830   8.821  0.4970  0.5558 -0.0525
  584MOL0     C76972   2.374   3.773   8.713 -0.4384  0.0242  0.4178
  584MOL0     N76973   2.246   3.722   8.760 -0.4212  0.1281  0.1645
  584MOL0     C76974   2.131   3.797   8.764 -0.0718 -0.1499  0.9261
  584MOL0     C76975   2.034   3.710   8.813 -0.1061  0.1036  0.6766
  584MOL0     C76976   1.881   3.755   8.826  0.3991 -0.0409 -0.4064
  584MOL0     C76977   1.780   3.639   8.834  0.3127 -0.3046 -0.0108
  584MOL0     C76978   1.641   3.693   8.882 -0.0328  0.1878 -0.4711
  584MOL0     C76979   1.536   3.574   8.893 -0.1011 -0.0799  0.4051
  584MOL0     O76980   1.512   3.526   8.752  0.3459 -0.2238 -1.0431
  584MOL0     C76981   1.418   3.431   8.731 -0.4171  0.4300 -0.3376
  584MOL0     C76982   1.395   3.389   8.602  0.4633 -0.1612 -1.1533
  584MOL0     C76983   1.291   3.299   8.567  0.8601 -0.0452  0.2337
  584MOL0     C76984   1.207   3.243   8.672  0.6278 -0.0052  0.5341
  584MOL0     C76985   1.097   3.147   8.640  0.3298  0.1160  0.3231
  584MOL0     O76986   1.052   3.073   8.741 -0.1218 -0.8269  1.1583
  584MOL0     C76987   0.941   2.993   8.722  0.0317  0.4705 -0.3999
  584MOL0     C76988   0.958   2.853   8.740 -0.4545 -0.0577 -0.1173
  584MOL0     C76989   0.848   2.768   8.748  0.5243  0.2665 -0.3834
  584MOL0     C76990   0.725   2.820   8.709  0.3459 -0.2903  0.3947
  584MOL0     O76991   0.609   2.746   8.721 -0.2188 -0.0252 -0.1028
  584MOL0     C76992   0.478   2.798   8.702 -0.2900  0.8095  0.1620
  584MOL0     C76993   0.367   2.689   8.726 -0.2636  0.8529  0.7635
  584MOL0     C76994   0.230   2.747   8.678  0.2160  0.1612 -0.6328
  584MOL0     C76995   0.112   2.676   8.743 -0.3557  0.9811 -0.6732
  584MOL0     C76996  -0.026   2.714   8.682 -1.0974  0.2786 -0.5533
  584MOL0     C76997  -0.090   2.825   8.767 -0.2255  0.2317  0.2984
  584MOL0     C76998  -0.202   2.887   8.689 -0.8877 -0.5019  0.1490
  584MOL0     C76999  -0.320   2.794   8.646  0.4885 -0.0221 -0.2946
  584MOL0    Cl77000  -0.416   2.726   8.789  0.0091 -0.0920 -0.1515
  584MOL0     C77001   0.715   2.956   8.665 -0.4809  0.0867  0.4260
  584MOL0     C77002   0.821   3.050   8.675 -0.0726 -0.0055 -0.0740
  584MOL0     O77003   1.056   3.145   8.525  0.4771 -0.2516 -0.8689
  584MOL0     C77004   1.238   3.287   8.806 -0.6729  0.5832 -0.4669
  584MOL0     C77005   1.341   3.376   8.836  0.8599 -0.1842  1.0335
  584MOL0     N77006   2.097   3.587   8.836 -0.3213 -0.0305 -0.2827
  584MOL0     N77007   2.222   3.597   8.806 -0.8147  0.5789 -0.4073
  584MOL0     C77008   2.847   4.599   8.971  0.2041 -0.5533  0.3480
  584MOL0     C77009   2.901   4.721   8.913 -0.5126  0.8811  0.4720
  584MOL0     C77010   3.179   5.073   8.827  0.5057 -0.5950 -0.1772
  584MOL0     C77011   3.092   5.175   8.874 -0.3614  0.9519  0.2772
  584MOL0     C77012   3.116   5.311   8.850 -0.0042 -0.5782 -0.3478
  584MOL0     C77013   3.233   5.349   8.786 -0.5198 -1.2062  0.1699
  584MOL0     O77014   3.274   5.473   8.763  0.2381 -1.3042 -0.1524
  584MOL0     C77015   3.297   5.559   8.877 -0.1312  0.2200 -0.7190
  584MOL0     C77016   3.392   5.671   8.858 -0.3310  0.0599  0.4256
  584MOL0     C77017   3.520   5.611   8.810 -0.0561 -0.1082 -0.2262
  584MOL0     C77018   3.632   5.712   8.774 -0.1392 -0.6898 -0.0741
  584MOL0     C77019   3.677   5.779   8.898  0.2516 -0.4381 -0.3065
  584MOL0     C77020   3.716   5.836   9.000 -0.7026 -0.1875 -0.3192
  584MOL0     C77021   3.321   5.252   8.733  0.6339  0.1642  0.5628
  584MOL0     C77022   3.297   5.116   8.763  0.2211 -0.3104 -0.2378
  584MOL0     H77023   3.193   4.735   9.084  0.8601 -3.5934  3.1360
  584MOL0     H77024   3.106   4.504   9.161  1.7996 -0.4951 -1.9475
  584MOL0     H77025   2.959   4.227   9.173  0.1912  1.3286  0.7146
  584MOL0     H77026   3.051   4.303   9.045 -1.1153 -1.3158 -0.2048
  584MOL0     H77027   2.939   4.122   8.932  0.3468  1.6283 -0.9210
  584MOL0     H77028   2.830   4.264   8.905  0.1847 -1.9661 -1.2081
  584MOL0     H77029   2.727   4.156   9.124 -2.1687  1.3728 -2.2575
  584MOL0     H77030   2.815   4.014   9.083 -0.1048 -1.4132 -1.5693
  584MOL0     H77031   2.657   4.113   8.861 -0.3872 -1.0813 -0.4799
  584MOL0     H77032   2.720   3.956   8.899  1.3918  0.3872  1.4093
  584MOL0     H77033   2.486   4.080   9.053  2.4581  2.8365 -1.4551
  584MOL0     H77034   2.556   3.914   9.068  0.3538 -0.2976 -0.5347
  584MOL0     H77035   2.440   4.037   8.816  2.7631  1.0426 -0.4622
  584MOL0     H77036   2.345   3.953   8.940 -1.3585  0.8880 -2.0268
  584MOL0     H77037   2.566   3.847   8.767  1.3572 -1.8119  0.5648
  584MOL0     H77038   2.488   3.748   8.892 -2.1049  1.0364  1.1953
  584MOL0     H77039   2.425   3.690   8.663 -3.0780 -1.9835  0.8652
  584MOL0     H77040   2.361   3.854   8.641 -3.3297 -1.0913 -0.4485
  584MOL0     H77041   2.130   3.902   8.738  3.6247 -0.0937  0.4672
  584MOL0     H77042   1.856   3.817   8.740 -1.2880 -0.2185 -0.0825
  584MOL0     H77043   1.870   3.813   8.918 -1.2919 -1.1293  0.1235
  584MOL0     H77044   1.812   3.567   8.910  0.7886  0.9207  0.9789
  584MOL0     H77045   1.767   3.585   8.740  0.6112 -0.2818 -0.0645
  584MOL0     H77046   1.639   3.720   8.988 -0.8025 -1.0046 -0.1545
  584MOL0     H77047   1.601   3.778   8.826  0.0897  1.0330  0.6775
  584MOL0     H77048   1.440   3.601   8.938 -0.9523 -2.5867  0.2209
  584MOL0     H77049   1.584   3.493   8.949 -0.9805 -0.5634  0.4724
  584MOL0     H77050   1.462   3.438   8.532 -0.8897  0.0052 -2.3701
  584MOL0     H77051   1.275   3.270   8.463 -0.8524  1.9856 -0.1399
  584MOL0     H77052   1.059   2.819   8.758  0.6753  2.3972 -1.2961
  584MOL0     H77053   0.862   2.667   8.786  1.3415  0.8271  0.8996
  584MOL0     H77054   0.466   2.841   8.602  0.0598  0.6391  0.0471
  584MOL0     H77055   0.449   2.885   8.762 -0.6485  0.3825  0.6193
  584MOL0     H77056   0.374   2.658   8.831  2.8134 -1.3834  0.0523
  584MOL0     H77057   0.391   2.600   8.667 -1.7699  1.8983 -1.5404
  584MOL0     H77058   0.229   2.739   8.569 -0.1264 -1.1790 -0.5485
  584MOL0     H77059   0.220   2.854   8.702  0.4163  1.0732 -4.1102
  584MOL0     H77060   0.120   2.567   8.730  1.7298  0.7673  1.5711
  584MOL0     H77061   0.114   2.687   8.851  0.9984 -0.3837 -0.5207
  584MOL0     H77062  -0.091   2.626   8.679  0.7549 -1.2865  1.6103
  584MOL0     H77063  -0.011   2.751   8.581  2.4285  0.7904  0.0115
  584MOL0     H77064  -0.014   2.901   8.784  0.7570 -0.4402 -0.9760
  584MOL0     H77065  -0.131   2.790   8.863 -2.1563  1.5858  0.0469
  584MOL0     H77066  -0.245   2.974   8.740  0.1410 -0.1969  0.5232
  584MOL0     H77067  -0.164   2.929   8.595 -1.1627 -0.4512  0.0588
  584MOL0     H77068  -0.269   2.723   8.580  2.0210 -1.0459  1.8560
  584MOL0     H77069  -0.385   2.859   8.588 -2.5909 -1.3538  1.4015
  584MOL0     H77070   0.619   2.996   8.634 -0.6232  0.2190  1.0344
  584MOL0     H77071   0.825   3.157   8.655 -0.4821  0.3322  1.5375
  584MOL0     H77072   1.172   3.245   8.881  0.3218 -2.0425 -0.9551
  584MOL0     H77073   1.339   3.426   8.932 -0.4922  2.2586 -0.1453
  584MOL0     H77074   2.748   4.566   8.941  0.1930  0.1126 -0.3838
  584MOL0     H77075   2.833   4.777   8.850 -0.5604  0.0470 -0.2245
  584MOL0     H77076   3.003   5.152   8.932 -0.7798 -2.6471 -1.5338
  584MOL0     H77077   3.043   5.383   8.885 -0.0372 -0.9626  0.4093
  584MOL0     H77078   3.336   5.509   8.966 -2.3835  0.9081  0.7612
  584MOL0     H77079   3.199   5.596   8.910 -1.8425 -4.3300 -0.0721
  584MOL0     H77080   3.349   5.739   8.784  0.4055 -0.4179 -0.4617
  584MOL0     H77081   3.409   5.733   8.946  2.7456  0.1151 -0.0944
  584MOL0     H77082   3.503   5.564   8.713  0.3659 -1.7787  0.4633
  584MOL0     H77083   3.551   5.533   8.880  0.0450  0.3587  0.2539
  584MOL0     H77084   3.720   5.664   8.731 -0.4455 -0.5188 -0.9152
  584MOL0     H77085   3.604   5.778   8.691  1.1411 -0.6876 -0.5235
  584MOL0     H77086   3.747   5.900   9.079  0.3725 -0.7325 -0.2751
  584MOL0     H77087   3.401   5.281   8.667  1.6737  0.1386  1.7743
  584MOL0     H77088   3.373   5.044   8.734  0.0667 -0.3944 -0.4399
  585MOL0     O77089   4.452   9.333   2.007 -0.3577 -1.0084  0.1246
  585MOL0     C77090   4.471   9.369   1.893  0.9612 -0.5085  0.7566
  585MOL0     O77091   4.373   9.375   1.787  0.2682  0.3002  1.0165
  585MOL0     C77092   4.239   9.347   1.804 -0.2196  0.1941 -0.9334
  585MOL0     C77093   4.165   9.311   1.687 -0.8981  0.4107 -0.3670
  585MOL0     C77094   4.026   9.289   1.693 -0.5858 -0.5769  0.9967
  585MOL0     C77095   3.951   9.319   1.806 -0.6833  0.5254 -0.1291
  585MOL0     O77096   3.815   9.298   1.800  0.1447  0.6718  0.6514
  585MOL0     C77097   3.735   9.351   1.909  0.5745  0.0336  0.4929
  585MOL0     C77098   3.584   9.335   1.895  0.1298  0.0971 -0.8011
  585MOL0     C77099   3.544   9.404   1.765 -0.0527 -0.2096  0.0086
  585MOL0     C77100   3.401   9.371   1.737 -0.3064 -0.3727 -0.2188
  585MOL0     C77101   3.354   9.461   1.612  0.2302  0.2667  0.7848
  585MOL0     C77102   3.218   9.411   1.547  0.3759  0.3026  0.1381
  585MOL0     C77103   3.248   9.298   1.455 -0.0759 -0.1020  0.0993
  585MOL0     C77104   3.135   9.255   1.366  0.7181 -0.1535 -0.1256
  585MOL0     N77105   3.181   9.149   1.283 -0.0364  0.1667  0.0279
  585MOL0     C77106   3.293   9.150   1.194  0.3909 -0.4727 -0.4925
  585MOL0     C77107   3.317   9.022   1.160 -0.2936 -0.0869  0.2677
  585MOL0     C77108   3.445   8.987   1.092 -0.1964 -0.1605  0.0572
  585MOL0     C77109   3.414   8.898   0.970  0.2394 -0.1116 -0.6240
  585MOL0     C77110   3.525   8.809   0.935  0.5498  0.0710  1.2413
  585MOL0     C77111   3.511   8.775   0.781  0.4560  0.4500 -0.0794
  585MOL0     O77112   3.619   8.696   0.720 -0.7312 -0.4572  0.2928
  585MOL0     C77113   3.745   8.745   0.740  0.1036 -0.4662  0.0228
  585MOL0     C77114   3.832   8.678   0.818 -0.6767  0.4600 -1.2859
  585MOL0     C77115   3.958   8.728   0.828 -0.6422 -0.9285 -0.8446
  585MOL0     C77116   4.001   8.837   0.754 -0.0858  0.2262  0.2030
  585MOL0     C77117   4.136   8.896   0.773  0.1530 -0.2152  0.0262
  585MOL0     O77118   4.215   8.839   0.866 -0.0740 -0.2615 -0.5838
  585MOL0     C77119   4.351   8.857   0.880  0.8229  0.0249 -0.1705
  585MOL0     C77120   4.440   8.939   0.801  1.0203 -0.2374 -0.3352
  585MOL0     C77121   4.581   8.945   0.831 -0.8715  0.3226 -0.2669
  585MOL0     C77122   4.627   8.885   0.950 -0.4310  0.1430 -0.9679
  585MOL0     O77123   4.752   8.894   0.996 -0.9206 -0.0770  0.4247
  585MOL0     C77124   4.825   9.016   0.966 -0.9170  0.4859  0.9681
  585MOL0     C77125   4.958   8.991   1.039  0.0750  0.5245  1.0363
  585MOL0     C77126   5.025   8.873   0.974 -0.1516 -0.4786 -0.0423
  585MOL0     C77127   5.185   8.857   0.994  0.3580  0.0314 -0.1181
  585MOL0     C77128   5.261   8.979   0.950 -0.6555 -0.6597 -0.2541
  585MOL0     C77129   5.413   8.958   0.940  0.9280  0.3671 -0.1055
  585MOL0     C77130   5.487   9.067   0.871  0.1193  0.1763  0.6641
  585MOL0     C77131   5.638   9.054   0.859 -0.1119  0.2195  0.0693
  585MOL0    Cl77132   5.720   9.012   1.017 -0.1797  0.2030  0.0002
  585MOL0     C77133   4.541   8.806   1.025 -0.3804  0.0626 -0.0615
  585MOL0     C77134   4.402   8.798   0.990 -0.6055  0.6257 -0.1007
  585MOL0     O77135   4.167   8.996   0.704 -0.0297 -0.1547  0.3011
  585MOL0     C77136   3.909   8.908   0.674 -0.1620  0.3419 -0.1684
  585MOL0     C77137   3.780   8.857   0.663 -0.1028 -0.0379 -0.0149
  585MOL0     N77138   3.234   8.944   1.224  0.7318 -0.6638  0.1251
  585MOL0     N77139   3.147   9.018   1.297 -0.6152 -0.3749 -0.7767
  585MOL0     C77140   4.029   9.356   1.921  0.1078  0.2698  0.5888
  585MOL0     C77141   4.164   9.371   1.920 -0.5339 -0.2030  0.6870
  585MOL0     C77142   4.608   9.400   1.860  0.9842  0.1471  0.7969
  585MOL0     C77143   4.637   9.435   1.722 -0.0463 -0.2760 -0.4258
  585MOL0     C77144   4.765   9.462   1.676  0.2987 -0.8494 -0.0007
  585MOL0     C77145   4.866   9.452   1.769 -0.6751  0.5571 -0.5303
  585MOL0     O77146   4.994   9.487   1.725  0.1247 -0.8043  0.1699
  585MOL0     C77147   5.102   9.492   1.825  1.0600  0.1433 -0.0015
  585MOL0     C77148   5.226   9.543   1.764 -0.4702 -0.3579  0.2367
  585MOL0     C77149   5.294   9.446   1.669  0.3395  0.2325  1.0819
  585MOL0     C77150   5.398   9.352   1.730  0.2324  0.2795  0.7474
  585MOL0     C77151   5.531   9.412   1.758 -1.0593  0.2091  0.3293
  585MOL0     C77152   5.633   9.470   1.780 -0.1837 -0.2893  0.7689
  585MOL0     C77153   4.842   9.429   1.906 -0.7899 -0.5624 -0.0687
  585MOL0     C77154   4.716   9.393   1.950  0.8062 -0.3468 -0.2120
  585MOL0     H77155   4.205   9.285   1.589 -2.0787 -2.1345 -0.2725
  585MOL0     H77156   3.968   9.267   1.604 -0.4597  3.4245 -0.2637
  585MOL0     H77157   3.758   9.458   1.913 -0.2376  0.1715  2.1903
  585MOL0     H77158   3.775   9.292   1.992  2.5677 -1.2184 -1.2222
  585MOL0     H77159   3.523   9.384   1.971  0.9801  0.0253 -0.0574
  585MOL0     H77160   3.553   9.230   1.896 -1.9612  0.6696  0.1939
  585MOL0     H77161   3.603   9.375   1.677  1.0090 -1.6129  1.1483
  585MOL0     H77162   3.564   9.511   1.777  0.6808 -0.1589 -1.3719
  585MOL0     H77163   3.390   9.267   1.707  0.0273 -0.5039  0.1095
  585MOL0     H77164   3.339   9.397   1.823  0.5308  1.5141 -0.1113
  585MOL0     H77165   3.433   9.448   1.538  0.1193 -2.5712  1.0400
  585MOL0     H77166   3.345   9.568   1.634 -2.1479  0.6808 -1.6018
  585MOL0     H77167   3.185   9.499   1.491  0.0760  0.5641  0.7104
  585MOL0     H77168   3.145   9.393   1.627  0.4202 -2.4642 -0.3710
  585MOL0     H77169   3.331   9.334   1.392 -0.6133  1.4629  0.2556
  585MOL0     H77170   3.288   9.208   1.503 -0.8302 -0.4940  0.0011
  585MOL0     H77171   3.085   9.329   1.303  0.3557  0.5687  0.9763
  585MOL0     H77172   3.065   9.221   1.442  1.5347  1.3477  1.3724
  585MOL0     H77173   3.354   9.233   1.157  1.0775 -0.1182  1.3022
  585MOL0     H77174   3.509   8.936   1.165  0.9671 -0.3476 -1.0510
  585MOL0     H77175   3.497   9.077   1.058 -0.4150  0.5022  1.3926
  585MOL0     H77176   3.394   8.967   0.888 -0.1214  1.2318  0.5644
  585MOL0     H77177   3.323   8.839   0.983 -1.9628  2.8710 -1.3169
  585MOL0     H77178   3.617   8.866   0.952  2.9106 -3.2636  0.5494
  585MOL0     H77179   3.541   8.723   1.001  0.5097  0.4406  1.7430
  585MOL0     H77180   3.501   8.862   0.715 -1.0680  0.6273  0.3407
  585MOL0     H77181   3.415   8.724   0.764  1.0395 -0.9435  0.7157
  585MOL0     H77182   3.803   8.595   0.882 -2.4880  1.3412 -0.8995
  585MOL0     H77183   4.023   8.678   0.899 -1.8735 -1.9411 -0.3984
  585MOL0     H77184   4.402   8.983   0.709  0.3925  2.3731  1.0881
  585MOL0     H77185   4.643   9.000   0.761 -1.5706 -0.9340 -1.9155
  585MOL0     H77186   4.772   9.107   0.996 -1.8508  1.2240 -2.4892
  585MOL0     H77187   4.842   9.023   0.858  0.5688  0.5369  1.1924
  585MOL0     H77188   4.942   8.953   1.140  0.5439 -1.8412  0.2762
  585MOL0     H77189   5.017   9.083   1.030 -0.0036  0.3455 -3.0754
  585MOL0     H77190   5.002   8.890   0.868  0.3272 -1.0354 -0.2408
  585MOL0     H77191   4.978   8.775   0.990 -0.6203 -0.3709 -0.6928
  585MOL0     H77192   5.205   8.843   1.100  0.1033  1.0025  0.0707
  585MOL0     H77193   5.223   8.768   0.942 -2.3438 -2.2029  1.4944
  585MOL0     H77194   5.251   9.058   1.024 -0.0312 -1.3496  0.5992
  585MOL0     H77195   5.219   9.010   0.854 -0.6932 -1.7925 -0.6207
  585MOL0     H77196   5.418   8.867   0.879  0.7669  1.4489 -1.7865
  585MOL0     H77197   5.462   8.929   1.033  1.0236  0.1934 -0.2098
  585MOL0     H77198   5.441   9.080   0.773  0.4158 -0.7490  0.3927
  585MOL0     H77199   5.478   9.151   0.941  4.3308  1.0050  0.5166
  585MOL0     H77200   5.690   9.144   0.824  1.1939 -0.9232 -1.1022
  585MOL0     H77201   5.661   8.981   0.780  1.5704 -0.9002  1.5205
  585MOL0     H77202   4.580   8.767   1.119  1.2515  1.0791 -0.2818
  585MOL0     H77203   4.336   8.739   1.052  0.4290  0.3196  0.7392
  585MOL0     H77204   3.947   8.990   0.614  3.5839 -0.0403  1.4541
  585MOL0     H77205   3.706   8.913   0.608 -2.3577 -0.3494  2.4976
  585MOL0     H77206   3.978   9.376   2.014 -0.0965  0.3869  0.4539
  585MOL0     H77207   4.212   9.407   2.011 -1.4241  1.2881  0.5882
  585MOL0     H77208   4.554   9.454   1.655 -4.1434  1.0120  4.4089
  585MOL0     H77209   4.776   9.493   1.572 -1.1187  0.2633  0.1520
  585MOL0     H77210   5.113   9.389   1.858 -1.3397 -0.1626 -0.0343
  585MOL0     H77211   5.067   9.550   1.911  2.9136 -1.1205  1.7098
  585MOL0     H77212   5.201   9.629   1.702 -1.4635 -1.9936 -1.7459
  585MOL0     H77213   5.292   9.585   1.841  0.5445  0.1319 -0.8630
  585MOL0     H77214   5.342   9.497   1.585 -0.6286  2.0414  1.5777
  585MOL0     H77215   5.221   9.387   1.614  2.1037 -0.8293 -0.2278
  585MOL0     H77216   5.354   9.323   1.826  0.1273 -0.6779  0.4130
  585MOL0     H77217   5.409   9.255   1.681 -0.6844  0.9404 -0.8454
  585MOL0     H77218   5.732   9.510   1.787  0.7329 -2.3020 -0.0949
  585MOL0     H77219   4.917   9.428   1.984  0.9849 -0.8068 -1.7072
  585MOL0     H77220   4.692   9.382   2.055 -1.3927  0.9283 -0.5371
  586MOL0     O77221   3.019   9.134   4.732  0.6159 -0.0801  0.0765
  586MOL0     C77222   3.106   9.061   4.701 -0.9991  0.7431 -0.1806
  586MOL0     O77223   3.096   8.933   4.652  0.0644 -0.5986 -0.8870
  586MOL0     C77224   2.982   8.910   4.586 -0.1020 -0.6265 -0.6862
  586MOL0     C77225   2.938   8.988   4.477 -0.6696 -0.2804 -0.2879
  586MOL0     C77226   2.820   8.954   4.410  0.3828 -0.2106  0.1583
  586MOL0     C77227   2.748   8.836   4.447 -0.2011 -0.3576  0.5702
  586MOL0     O77228   2.642   8.799   4.375  0.6592 -0.5013  0.6706
  586MOL0     C77229   2.526   8.887   4.381  0.1478  0.4046  0.3567
  586MOL0     C77230   2.410   8.802   4.350  0.9414 -0.0479 -0.1127
  586MOL0     C77231   2.277   8.890   4.336  0.2454  0.3576 -0.3041
  586MOL0     C77232   2.154   8.811   4.284  0.9689 -0.0354 -0.9268
  586MOL0     C77233   2.046   8.913   4.267  0.5230  1.3147  0.1350
  586MOL0     C77234   1.923   8.845   4.208 -0.9698  0.6708  0.0990
  586MOL0     C77235   1.811   8.939   4.201  0.1253  0.5577  0.1644
  586MOL0     C77236   1.702   8.878   4.108 -0.4188 -0.1255  0.2574
  586MOL0     N77237   1.565   8.900   4.154 -0.2425 -0.1406  0.4375
  586MOL0     C77238   1.478   8.798   4.184 -0.8234  0.7339 -0.1560
  586MOL0     C77239   1.364   8.862   4.215 -0.3052  0.0561 -0.0154
  586MOL0     C77240   1.249   8.793   4.270  0.1788  0.0023  0.2618
  586MOL0     C77241   1.250   8.789   4.424  0.0059  0.5782 -0.3741
  586MOL0     C77242   1.226   8.930   4.480  0.2992 -0.1859 -0.2966
  586MOL0     C77243   1.261   8.941   4.627  0.0860  0.9603  0.4051
  586MOL0     O77244   1.188   8.834   4.695 -0.1620 -0.6346  0.1216
  586MOL0     C77245   1.050   8.835   4.718 -0.2265  1.2465  0.9743
  586MOL0     C77246   0.979   8.713   4.725 -0.7511 -0.1437 -0.4653
  586MOL0     C77247   0.840   8.710   4.723 -0.2395 -0.0700  0.6268
  586MOL0     C77248   0.763   8.823   4.713 -0.1435 -0.6090  0.6257
  586MOL0     C77249   0.617   8.804   4.705 -0.1518  0.2009 -0.0603
  586MOL0     O77250   0.539   8.912   4.706  0.1618  0.4423 -0.1748
  586MOL0     C77251   0.408   8.892   4.741 -0.3372 -0.3549  0.3860
  586MOL0     C77252   0.315   8.919   4.638  0.2201 -0.0031  0.3881
  586MOL0     C77253   0.175   8.911   4.669 -0.2804  0.2201 -0.1976
  586MOL0     C77254   0.133   8.876   4.803 -0.5872 -0.1181  0.4529
  586MOL0     O77255   0.000   8.872   4.831 -0.2123 -0.4144 -0.4779
  586MOL0     C77256  -0.057   8.750   4.801  0.2357 -0.0087  0.2568
  586MOL0     C77257  -0.201   8.744   4.816  0.3959 -0.7298 -0.0034
  586MOL0     C77258  -0.254   8.802   4.946 -0.1935 -0.3281 -0.3609
  586MOL0     C77259  -0.410   8.815   4.958 -0.7117 -0.7131  1.3194
  586MOL0     C77260  -0.468   8.876   5.085 -0.1094 -0.4906 -0.0237
  586MOL0     C77261  -0.621   8.848   5.080  0.1772  0.2096  0.3109
  586MOL0     C77262  -0.699   8.935   4.984  0.9268  0.5895  0.5161
  586MOL0     C77263  -0.849   8.898   4.972 -0.4401 -0.0137  0.4182
  586MOL0    Cl77264  -0.953   8.980   4.838 -0.1124  0.1567  0.3850
  586MOL0     C77265   0.229   8.853   4.898  0.2037  0.2043 -0.4465
  586MOL0     C77266   0.364   8.849   4.872  0.4947  0.3902 -0.1326
  586MOL0     O77267   0.577   8.688   4.701  0.0534 -0.2206  0.0913
  586MOL0     C77268   0.832   8.945   4.715 -0.3041 -0.3771 -1.0338
  586MOL0     C77269   0.971   8.946   4.714  0.2822  0.0117  0.2050
  586MOL0     N77270   1.381   9.005   4.206  0.2882  1.2775  0.6026
  586MOL0     N77271   1.503   9.024   4.171  0.2036  0.5630  0.8261
  586MOL0     C77272   2.789   8.762   4.562  0.1023  0.1396  0.1282
  586MOL0     C77273   2.911   8.799   4.625  0.5972 -0.1363 -0.3086
  586MOL0     C77274   3.248   9.108   4.733  0.6448  0.4513  0.1099
  586MOL0     C77275   3.355   9.013   4.750  0.1314  0.4879  0.4101
  586MOL0     C77276   3.476   9.062   4.789  0.1208 -0.6822 -0.3190
  586MOL0     C77277   3.503   9.200   4.810 -0.7873  0.0299 -1.0176
  586MOL0     O77278   3.625   9.249   4.851 -0.4202  0.6444  0.7688
  586MOL0     C77279   3.741   9.159   4.858  0.1657  0.5128 -0.3712
  586MOL0     C77280   3.866   9.234   4.914  0.1095 -0.4658  0.5231
  586MOL0     C77281   3.988   9.132   4.924 -0.0650 -0.4847 -0.1500
  586MOL0     C77282   4.116   9.192   4.988 -0.4700  0.3427 -0.9812
  586MOL0     C77283   4.233   9.108   4.936  0.4090 -0.1323  0.5616
  586MOL0     C77284   4.320   9.028   4.905  0.4042  0.3769 -0.2767
  586MOL0     C77285   3.393   9.289   4.797 -0.1410 -0.3196  0.1027
  586MOL0     C77286   3.268   9.243   4.767  0.2436 -0.3552  1.0182
  586MOL0     H77287   2.981   9.085   4.459  2.7201 -2.0515 -2.8082
  586MOL0     H77288   2.787   9.022   4.332 -2.6093 -1.5539  0.0968
  586MOL0     H77289   2.534   8.956   4.297  1.4314 -0.3279 -0.1388
  586MOL0     H77290   2.525   8.952   4.469  3.6398  3.9196 -1.9129
  586MOL0     H77291   2.395   8.733   4.434 -0.6286  1.6418  1.0728
  586MOL0     H77292   2.433   8.758   4.253  0.9196  3.3343 -1.7851
  586MOL0     H77293   2.286   8.981   4.276 -0.5613  1.3971  1.1034
  586MOL0     H77294   2.256   8.929   4.436 -0.7091 -2.0108  0.4862
  586MOL0     H77295   2.173   8.755   4.192 -3.0777 -0.7532 -1.5235
  586MOL0     H77296   2.117   8.736   4.354  0.6702  1.1258  0.1977
  586MOL0     H77297   2.063   9.000   4.204 -1.2782 -0.6239 -3.3521
  586MOL0     H77298   2.022   8.957   4.364 -1.0938  0.1715  0.3029
  586MOL0     H77299   1.897   8.764   4.277  0.1348  1.3817  1.4062
  586MOL0     H77300   1.939   8.798   4.111 -1.9923  3.6700 -1.6559
  586MOL0     H77301   1.754   8.941   4.294 -1.9305  0.7440 -1.0317
  586MOL0     H77302   1.837   9.040   4.168  3.7378  0.4304  2.0767
  586MOL0     H77303   1.721   8.771   4.094  3.8158  0.6772 -1.9288
  586MOL0     H77304   1.706   8.929   4.012 -0.5099 -0.0352  0.3016
  586MOL0     H77305   1.505   8.694   4.201  1.8426  0.7124 -3.3078
  586MOL0     H77306   1.259   8.695   4.222 -1.1946  0.1641 -0.4017
  586MOL0     H77307   1.153   8.838   4.242 -1.0284 -1.6106  1.5696
  586MOL0     H77308   1.347   8.755   4.461  0.1407  0.5713 -0.7272
  586MOL0     H77309   1.183   8.712   4.465  1.0946 -0.3218 -0.2325
  586MOL0     H77310   1.271   9.007   4.417 -0.3538 -1.7149 -2.7799
  586MOL0     H77311   1.119   8.952   4.482 -0.0359 -1.2865  4.2791
  586MOL0     H77312   1.231   9.043   4.651 -0.5541  0.3787  2.2940
  586MOL0     H77313   1.366   8.921   4.649 -0.0603 -1.5076 -0.7763
  586MOL0     H77314   1.030   8.617   4.721 -2.6555 -1.3263  1.2620
  586MOL0     H77315   0.796   8.614   4.747  2.3831 -0.9043  2.5420
  586MOL0     H77316   0.354   8.962   4.546  0.1435 -3.5770 -1.4674
  586MOL0     H77317   0.100   8.923   4.591  1.0302 -0.3364 -1.5980
  586MOL0     H77318  -0.009   8.670   4.859  0.3813  1.5491  2.4294
  586MOL0     H77319  -0.036   8.734   4.695  1.9800  1.8103  0.2692
  586MOL0     H77320  -0.257   8.651   4.803 -1.7489  0.1235  2.3105
  586MOL0     H77321  -0.240   8.806   4.735 -0.2602 -0.9897  0.1031
  586MOL0     H77322  -0.213   8.903   4.956 -2.1826  0.4542  0.4189
  586MOL0     H77323  -0.221   8.749   5.036  0.8270  1.5247  0.3943
  586MOL0     H77324  -0.433   8.881   4.874 -0.3041 -0.5468  1.3346
  586MOL0     H77325  -0.458   8.718   4.940 -0.8049 -0.4920  0.2860
  586MOL0     H77326  -0.451   8.984   5.091 -3.0250  0.1077 -0.9096
  586MOL0     H77327  -0.417   8.834   5.172 -1.1552 -0.3736  0.6660
  586MOL0     H77328  -0.653   8.856   5.184  0.5722 -2.1925  0.6613
  586MOL0     H77329  -0.639   8.744   5.051 -3.5222  0.7642  0.1844
  586MOL0     H77330  -0.691   9.037   5.023 -3.2639  1.8609 -1.3663
  586MOL0     H77331  -0.655   8.930   4.884 -2.8273  0.7329 -1.3164
  586MOL0     H77332  -0.894   8.925   5.068  2.3497  1.0466  1.5574
  586MOL0     H77333  -0.867   8.790   4.963  1.8004 -0.7257  3.0266
  586MOL0     H77334   0.194   8.835   4.999  0.5510  3.5359  0.3943
  586MOL0     H77335   0.436   8.814   4.945 -2.1964 -0.3779  2.3730
  586MOL0     H77336   0.784   9.042   4.718  0.9638  0.2595 -0.5730
  586MOL0     H77337   1.016   9.042   4.690  0.8202 -0.8225 -2.3692
  586MOL0     H77338   2.726   8.681   4.597  0.9612 -1.2180 -1.3046
  586MOL0     H77339   2.938   8.734   4.707  0.6981  1.5375  1.0525
  586MOL0     H77340   3.346   8.906   4.737 -1.7838 -0.2688  5.3715
  586MOL0     H77341   3.557   8.992   4.807 -1.1283 -1.9370  0.7082
  586MOL0     H77342   3.767   9.107   4.765  0.8126  2.2946 -1.2294
  586MOL0     H77343   3.713   9.097   4.943 -0.5501  0.1807 -0.8395
  586MOL0     H77344   3.872   9.317   4.844  1.2452 -1.9390 -1.2069
  586MOL0     H77345   3.843   9.272   5.014 -0.4436  1.4494 -0.2805
  586MOL0     H77346   4.023   9.098   4.826  0.7942  0.8931 -0.3535
  586MOL0     H77347   3.959   9.047   4.986  1.4730  0.4176  1.9357
  586MOL0     H77348   4.127   9.298   4.962 -0.8848  0.5540 -0.3096
  586MOL0     H77349   4.113   9.174   5.095 -3.3475 -0.2811 -1.0971
  586MOL0     H77350   4.403   8.970   4.870  0.0317 -0.5896  0.3909
  586MOL0     H77351   3.404   9.396   4.815  1.3955 -0.4078 -0.1702
  586MOL0     H77352   3.188   9.316   4.758 -0.7031 -1.0787  2.9996
  587MOL0     O77353   6.183   5.241   0.378 -0.4910  0.9158 -0.1670
  587MOL0     C77354   6.196   5.140   0.312 -0.0250  0.4285  0.9475
  587MOL0     O77355   6.123   5.018   0.320 -0.7229 -0.3614 -0.8875
  587MOL0     C77356   6.000   5.007   0.391 -0.2824 -0.1544  0.5453
  587MOL0     C77357   5.975   4.876   0.439  1.1245  0.0920  0.3778
  587MOL0     C77358   5.842   4.848   0.491 -0.4917 -0.6783  0.0510
  587MOL0     C77359   5.745   4.953   0.501  0.4335  0.0214 -0.5066
  587MOL0     O77360   5.619   4.914   0.550  0.1510 -0.1364  0.3536
  587MOL0     C77361   5.619   4.849   0.675 -0.9218 -0.9713  1.0589
  587MOL0     C77362   5.476   4.860   0.730 -0.4361  0.1890  0.3060
  587MOL0     C77363   5.471   4.778   0.853 -0.6482 -0.1449  0.0339
  587MOL0     C77364   5.370   4.826   0.958 -0.1016  0.4312  0.3689
  587MOL0     C77365   5.329   4.716   1.052  0.3660  0.6461 -0.5010
  587MOL0     C77366   5.225   4.621   0.994  0.4109 -0.7332  0.6200
  587MOL0     C77367   5.177   4.517   1.094  0.0937 -0.0447 -0.5829
  587MOL0     C77368   5.276   4.401   1.089 -0.0460  0.0274 -0.0791
  587MOL0     N77369   5.241   4.301   1.193  0.0917 -0.4955  0.1473
  587MOL0     C77370   5.115   4.256   1.205  0.0320  0.1486 -0.0310
  587MOL0     C77371   5.112   4.173   1.313 -0.5044 -0.5900 -0.1358
  587MOL0     C77372   4.996   4.107   1.379 -0.6229 -0.1834 -0.2125
  587MOL0     C77373   4.902   4.197   1.457  0.9475  0.0861  0.5835
  587MOL0     C77374   4.968   4.290   1.554 -0.1310  0.0059  0.3454
  587MOL0     C77375   5.023   4.416   1.495 -0.9080 -1.0451  0.4645
  587MOL0     O77376   5.047   4.495   1.611 -0.3627  0.3493 -0.5500
  587MOL0     C77377   4.982   4.617   1.624  0.4647 -0.4714  0.2297
  587MOL0     C77378   4.968   4.703   1.513 -0.6142 -0.5367  0.8823
  587MOL0     C77379   4.898   4.828   1.528  0.1329 -0.1224  0.2965
  587MOL0     C77380   4.846   4.866   1.655 -0.1631 -0.5295 -0.4735
  587MOL0     C77381   4.778   4.994   1.678  0.3143  1.6354 -0.2899
  587MOL0     O77382   4.705   5.044   1.579  0.3058 -0.6014  0.0560
  587MOL0     C77383   4.659   5.176   1.588  0.2885 -0.6484  0.0835
  587MOL0     C77384   4.530   5.193   1.546  0.4926  0.8726 -0.6052
  587MOL0     C77385   4.475   5.325   1.545  0.2452  0.5254 -0.3927
  587MOL0     C77386   4.546   5.436   1.581  0.8703  0.0508  0.5843
  587MOL0     O77387   4.482   5.556   1.570  0.1142  0.1843  0.3464
  587MOL0     C77388   4.542   5.634   1.465  0.8629 -0.7804 -0.3809
  587MOL0     C77389   4.480   5.604   1.321 -1.0544  0.0385  0.8308
  587MOL0     C77390   4.336   5.639   1.316 -0.6752  0.1222  0.4295
  587MOL0     C77391   4.271   5.605   1.180  0.4772 -0.7421 -0.5581
  587MOL0     C77392   4.114   5.598   1.195 -0.0977 -0.4430  0.9429
  587MOL0     C77393   4.052   5.555   1.060 -0.0509  0.1895 -0.6356
  587MOL0     C77394   3.903   5.508   1.062  0.2926  0.2888  0.7477
  587MOL0     C77395   3.873   5.439   0.928  0.5336  0.5792  0.1318
  587MOL0    Cl77396   3.729   5.329   0.955 -0.0277 -0.0601 -0.2208
  587MOL0     C77397   4.678   5.420   1.618  0.4794  0.5097 -0.5731
  587MOL0     C77398   4.731   5.286   1.620 -0.8145 -0.7103  1.2363
  587MOL0     O77399   4.800   5.048   1.786 -0.7385  0.2661 -1.0126
  587MOL0     C77400   4.857   4.781   1.760  0.9347 -0.0561 -0.8403
  587MOL0     C77401   4.927   4.653   1.750  0.5822  0.1429 -0.7675
  587MOL0     N77402   5.238   4.171   1.368 -0.5466  0.1848  0.3217
  587MOL0     N77403   5.308   4.263   1.305 -0.9104 -0.2213 -0.3915
  587MOL0     C77404   5.774   5.083   0.447  0.2389 -0.3153 -0.6690
  587MOL0     C77405   5.903   5.106   0.393 -0.4516  0.3312 -1.1049
  587MOL0     C77406   6.317   5.127   0.217 -0.8038  0.0152  0.0180
  587MOL0     C77407   6.419   5.220   0.221 -1.3209  0.6009 -0.6610
  587MOL0     C77408   6.542   5.205   0.152  0.9709 -0.6439  0.8004
  587MOL0     C77409   6.555   5.101   0.069  0.2165  1.2394 -0.2789
  587MOL0     O77410   6.661   5.099  -0.015 -0.6179  0.8388  0.6812
  587MOL0     C77411   6.624   5.091  -0.156  0.5125  0.6397  0.3026
  587MOL0     C77412   6.689   4.957  -0.216 -0.4805  0.2870 -0.1359
  587MOL0     C77413   6.849   4.957  -0.228 -0.3385 -0.0032  0.4981
  587MOL0     C77414   6.915   4.884  -0.109 -0.5989 -0.3801  0.4121
  587MOL0     C77415   7.054   4.884  -0.142 -0.1547 -1.0557 -0.0940
  587MOL0     C77416   7.173   4.869  -0.168  0.4473 -0.1172 -0.0072
  587MOL0     C77417   6.453   4.997   0.061 -0.5632 -0.6954  0.2606
  587MOL0     C77418   6.330   5.016   0.131  0.0174  0.3827 -0.3152
  587MOL0     H77419   6.054   4.803   0.443  0.4199 -0.6535  1.0350
  587MOL0     H77420   5.815   4.748   0.522 -2.5384 -1.4957 -3.7586
  587MOL0     H77421   5.693   4.900   0.738  2.4298 -2.3350 -1.4385
  587MOL0     H77422   5.644   4.743   0.672 -0.9535 -0.9856  1.2832
  587MOL0     H77423   5.413   4.826   0.648 -0.6008  4.5088 -1.6167
  587MOL0     H77424   5.450   4.963   0.755 -1.3283  0.0335  0.0405
  587MOL0     H77425   5.568   4.797   0.901 -1.6671  2.7370  1.1999
  587MOL0     H77426   5.443   4.676   0.825 -2.9960 -0.0501  1.7113
  587MOL0     H77427   5.402   4.912   1.018 -1.8120  0.1381  1.7985
  587MOL0     H77428   5.282   4.862   0.904 -0.2654 -0.2458  0.1753
  587MOL0     H77429   5.279   4.758   1.140  0.5938 -4.5205  2.5278
  587MOL0     H77430   5.414   4.656   1.085  1.8218  3.1417  0.5539
  587MOL0     H77431   5.275   4.563   0.916  0.0635 -2.8604  1.8866
  587MOL0     H77432   5.146   4.684   0.955 -0.4139  0.1056  3.4288
  587MOL0     H77433   5.173   4.555   1.197  0.8481  4.2831 -1.9613
  587MOL0     H77434   5.081   4.483   1.054  1.1418 -0.9115 -2.4603
  587MOL0     H77435   5.373   4.442   1.116 -0.7197  1.4095  0.3240
  587MOL0     H77436   5.272   4.353   0.990  0.7913  0.0310 -0.1178
  587MOL0     H77437   5.033   4.287   1.141  0.1394  0.3295 -0.0833
  587MOL0     H77438   5.027   4.040   1.459 -2.6793  2.0463  2.6752
  587MOL0     H77439   4.934   4.055   1.305 -0.4431 -2.0981  0.9121
  587MOL0     H77440   4.835   4.128   1.509  0.0123  1.9982  2.0216
  587MOL0     H77441   4.840   4.251   1.384  1.0512 -1.1978 -0.4955
  587MOL0     H77442   4.889   4.313   1.627  0.6833 -0.1238  1.2892
  587MOL0     H77443   5.038   4.237   1.621  0.4972  1.0391  0.5193
  587MOL0     H77444   4.970   4.471   1.417 -0.8727 -1.7462 -0.0677
  587MOL0     H77445   5.125   4.397   1.460 -0.2657  2.0743  0.3882
  587MOL0     H77446   5.005   4.672   1.415  4.0113  1.1157  1.8495
  587MOL0     H77447   4.870   4.886   1.440 -0.9680 -1.6826 -0.4380
  587MOL0     H77448   4.469   5.109   1.513  3.0901 -0.6290 -1.9457
  587MOL0     H77449   4.368   5.333   1.530 -0.8803 -4.4122  2.7653
  587MOL0     H77450   4.651   5.625   1.463  1.1212  1.5753  0.4521
  587MOL0     H77451   4.519   5.739   1.485 -0.1631 -1.0657  0.0395
  587MOL0     H77452   4.500   5.499   1.298 -0.7678  0.4391 -0.9042
  587MOL0     H77453   4.524   5.660   1.238 -3.6303  2.3641  0.8833
  587MOL0     H77454   4.316   5.746   1.327 -4.8570 -0.4488  0.0176
  587MOL0     H77455   4.295   5.577   1.396 -1.0114 -3.1936 -2.0848
  587MOL0     H77456   4.290   5.695   1.121 -0.7649  0.9435  1.4442
  587MOL0     H77457   4.312   5.518   1.130  1.8485 -0.7384  0.4920
  587MOL0     H77458   4.069   5.694   1.219 -1.1980 -0.4858 -0.7830
  587MOL0     H77459   4.076   5.538   1.279  0.1649  0.2444  1.5602
  587MOL0     H77460   4.110   5.468   1.029  0.4017  0.2293  0.0709
  587MOL0     H77461   4.058   5.637   0.987 -1.0371  2.2395  1.4485
  587MOL0     H77462   3.890   5.424   1.131  0.2655 -2.3676 -2.2961
  587MOL0     H77463   3.841   5.597   1.077  0.6661  0.9637 -1.4441
  587MOL0     H77464   3.955   5.371   0.904  1.1320  1.4108 -0.2696
  587MOL0     H77465   3.859   5.515   0.850  1.3000  0.5062 -0.0871
  587MOL0     H77466   4.731   5.512   1.639  0.7796 -0.0122  1.1621
  587MOL0     H77467   4.833   5.281   1.656 -0.9581  0.3879  1.8523
  587MOL0     H77468   4.821   4.811   1.858  1.1113 -0.0603 -0.7748
  587MOL0     H77469   4.951   4.602   1.842  0.7772 -1.0019 -1.4310
  587MOL0     H77470   5.705   5.166   0.447  1.6229  0.8850 -1.2190
  587MOL0     H77471   5.936   5.202   0.355  3.1775  0.4075  1.6171
  587MOL0     H77472   6.401   5.307   0.284  0.9984 -0.2546  1.3475
  587MOL0     H77473   6.621   5.278   0.163  1.4918 -1.2086  0.8319
  587MOL0     H77474   6.656   5.179  -0.213  2.5990 -1.1521 -1.4784
  587MOL0     H77475   6.516   5.091  -0.172  0.8114  0.3265 -2.1512
  587MOL0     H77476   6.643   4.869  -0.170 -2.9258  0.5728 -1.8530
  587MOL0     H77477   6.654   4.958  -0.320 -0.8410  1.1049 -0.0181
  587MOL0     H77478   6.886   5.059  -0.238 -2.4684  0.5866 -3.9783
  587MOL0     H77479   6.873   4.909  -0.324 -0.8329  1.6503 -0.4859
  587MOL0     H77480   6.907   4.941  -0.016  1.4185 -1.7970  1.5377
  587MOL0     H77481   6.887   4.779  -0.098  0.2952 -0.8874 -1.7267
  587MOL0     H77482   7.275   4.861  -0.199  1.3292  1.2245  2.2614
  587MOL0     H77483   6.475   4.919  -0.012 -0.1512  0.2809 -0.6767
  587MOL0     H77484   6.253   4.942   0.108 -0.0512 -0.0910  1.3155
  588MOL0     O77485   2.246   3.713   6.497  0.5138  0.4633  0.3496
  588MOL0     C77486   2.254   3.599   6.450  0.2711 -0.7779  0.5333
  588MOL0     O77487   2.158   3.510   6.440 -0.3216  0.3940 -0.3979
  588MOL0     C77488   2.030   3.550   6.484  0.9296 -0.2702  0.0555
  588MOL0     C77489   1.917   3.511   6.399 -0.0739 -0.3128  0.2007
  588MOL0     C77490   1.790   3.522   6.448 -0.1645 -0.5257 -0.0370
  588MOL0     C77491   1.769   3.575   6.575 -0.2534 -0.1298 -0.8295
  588MOL0     O77492   1.644   3.581   6.618 -0.0499  0.0545  0.4920
  588MOL0     C77493   1.615   3.615   6.754  1.5954  0.9221  0.2359
  588MOL0     C77494   1.458   3.620   6.784  0.3456 -0.1186 -0.5281
  588MOL0     C77495   1.389   3.727   6.713  0.0938  0.3838  1.1509
  588MOL0     C77496   1.240   3.721   6.746 -0.0167 -0.3773 -0.4133
  588MOL0     C77497   1.158   3.846   6.703 -0.0090  0.3421 -0.9493
  588MOL0     C77498   1.129   3.861   6.557 -0.3327 -0.3101 -0.0176
  588MOL0     C77499   1.059   3.998   6.523 -0.0758 -0.1655 -0.3305
  588MOL0     C77500   1.016   3.998   6.379  0.0703  0.2369 -0.2680
  588MOL0     N77501   0.886   3.939   6.353 -0.0845 -0.2637 -0.0446
  588MOL0     C77502   0.778   3.997   6.299 -0.0480  0.1129  0.2392
  588MOL0     C77503   0.696   3.899   6.263  0.4506  0.2742  0.5750
  588MOL0     C77504   0.564   3.910   6.178 -0.3678 -0.3539 -0.3942
  588MOL0     C77505   0.447   3.837   6.239  0.2497 -0.4097 -1.6151
  588MOL0     C77506   0.324   3.794   6.156 -0.1325 -0.0905  0.6898
  588MOL0     C77507   0.266   3.911   6.077 -0.1535  0.3998 -0.0708
  588MOL0     O77508   0.235   4.025   6.154  0.3563 -0.6883  0.0392
  588MOL0     C77509   0.107   4.025   6.208 -0.3768 -0.3548 -0.3892
  588MOL0     C77510  -0.003   4.060   6.127 -0.2096 -0.3823  0.3631
  588MOL0     C77511  -0.133   4.063   6.182 -0.1870  0.0736 -0.3010
  588MOL0     C77512  -0.151   4.027   6.316  0.1215 -0.1460  0.8640
  588MOL0     C77513  -0.289   4.018   6.381 -0.4833  0.4413 -0.4624
  588MOL0     O77514  -0.389   4.090   6.319  0.0216 -0.3759  0.1225
  588MOL0     C77515  -0.522   4.099   6.354 -0.1411 -0.0964  0.9728
  588MOL0     C77516  -0.589   4.013   6.447 -0.1309 -0.8790  0.3229
  588MOL0     C77517  -0.727   4.031   6.472  0.4113  0.2862  0.4034
  588MOL0     C77518  -0.798   4.129   6.399 -0.1192  0.7670  0.1579
  588MOL0     O77519  -0.932   4.151   6.417 -0.3212  0.1629  0.7361
  588MOL0     C77520  -1.015   4.054   6.480 -0.1086  0.2980  0.2070
  588MOL0     C77521  -1.157   4.096   6.461 -0.7113  0.2799  0.1250
  588MOL0     C77522  -1.250   3.990   6.524  0.8341  1.1811 -0.7588
  588MOL0     C77523  -1.397   4.040   6.534 -0.5604  0.1433 -0.5030
  588MOL0     C77524  -1.418   4.165   6.610 -0.6207 -0.1094  0.1719
  588MOL0     C77525  -1.559   4.179   6.674 -0.2582 -0.3755  0.2083
  588MOL0     C77526  -1.679   4.156   6.587  0.2578 -0.2781  0.1390
  588MOL0     C77527  -1.677   4.270   6.474  0.2786  0.4030 -0.6212
  588MOL0    Cl77528  -1.838   4.260   6.388 -0.1602  0.0814 -0.1688
  588MOL0     C77529  -0.740   4.210   6.303  0.3080  0.5489  0.6778
  588MOL0     C77530  -0.603   4.194   6.284  0.2970 -0.0370  0.5886
  588MOL0     O77531  -0.304   3.933   6.472  0.2176 -0.6979  0.0751
  588MOL0     C77532  -0.038   3.996   6.396  0.2935  0.4417  0.0052
  588MOL0     C77533   0.089   3.986   6.344  0.2394 -0.0957  0.3141
  588MOL0     N77534   0.750   3.775   6.297 -0.2683  0.1522 -0.6694
  588MOL0     N77535   0.860   3.806   6.356 -0.8517 -0.0166  0.4674
  588MOL0     C77536   1.879   3.616   6.652 -0.1858 -0.1672 -0.6205
  588MOL0     C77537   2.008   3.587   6.620  0.1760  0.5519  0.6713
  588MOL0     C77538   2.370   3.557   6.384 -0.8511  0.7103  0.0227
  588MOL0     C77539   2.369   3.440   6.305 -0.2824 -0.4130 -0.9457
  588MOL0     C77540   2.491   3.402   6.250  0.5399  0.4128 -0.0544
  588MOL0     C77541   2.602   3.484   6.258 -0.4183  0.5160  0.1705
  588MOL0     O77542   2.721   3.459   6.197  0.0528 -0.7258  0.0842
  588MOL0     C77543   2.756   3.338   6.131  0.9622  0.3731  0.9755
  588MOL0     C77544   2.902   3.319   6.092 -0.9009  0.8291 -0.2742
  588MOL0     C77545   3.001   3.354   6.206  0.6892 -0.6124  0.2389
  588MOL0     C77546   2.975   3.273   6.329 -1.0225  0.2991 -0.0639
  588MOL0     C77547   3.077   3.273   6.433  0.3142 -0.6680  0.0527
  588MOL0     C77548   3.167   3.279   6.518 -0.2859  1.8658  0.5771
  588MOL0     C77549   2.593   3.609   6.322 -0.0026  0.1123 -0.8998
  588MOL0     C77550   2.483   3.641   6.390  0.7509  1.2086  0.3841
  588MOL0     H77551   1.934   3.472   6.299  0.3513 -0.7221  0.4278
  588MOL0     H77552   1.713   3.492   6.376 -0.7455 -1.8911  1.0897
  588MOL0     H77553   1.663   3.713   6.765 -0.2053  1.9511 -0.5861
  588MOL0     H77554   1.662   3.546   6.824  0.4130  0.1318  0.2830
  588MOL0     H77555   1.435   3.625   6.891 -1.1375 -0.8308 -0.7905
  588MOL0     H77556   1.415   3.525   6.751  2.7220 -0.7636 -2.0521
  588MOL0     H77557   1.407   3.725   6.605 -0.9570  0.4652  0.9596
  588MOL0     H77558   1.429   3.820   6.753  3.2803  0.0551 -0.8772
  588MOL0     H77559   1.203   3.626   6.705  1.9347 -1.4064  0.1285
  588MOL0     H77560   1.230   3.713   6.854  0.9467  1.6856 -0.1210
  588MOL0     H77561   1.217   3.930   6.739 -1.1732  0.0354  1.9988
  588MOL0     H77562   1.058   3.834   6.746  0.9923 -2.2940  0.9203
  588MOL0     H77563   1.065   3.778   6.529  1.8066 -1.9094 -0.4645
  588MOL0     H77564   1.220   3.849   6.497 -0.7972  0.0392 -0.8069
  588MOL0     H77565   0.974   4.025   6.587  0.7253  0.2442  0.5954
  588MOL0     H77566   1.138   4.073   6.532  0.9173 -1.3693  1.9310
  588MOL0     H77567   1.087   3.949   6.312 -0.7621 -1.0675 -0.2290
  588MOL0     H77568   1.023   4.098   6.336 -0.3814  1.0981  1.5634
  588MOL0     H77569   0.751   4.102   6.287 -0.6591  0.4119  3.2951
  588MOL0     H77570   0.577   3.885   6.072 -0.5383  0.7753 -0.6925
  588MOL0     H77571   0.549   4.018   6.173 -3.2856 -0.7250 -2.5064
  588MOL0     H77572   0.403   3.893   6.322  2.1566 -0.9735 -0.1480
  588MOL0     H77573   0.496   3.745   6.272  0.5559  0.0470 -0.7895
  588MOL0     H77574   0.363   3.719   6.087  0.4316  2.2362 -1.7046
  588MOL0     H77575   0.260   3.742   6.228 -0.1536  1.0471  1.5307
  588MOL0     H77576   0.178   3.868   6.030  1.3435 -1.9359 -0.9075
  588MOL0     H77577   0.346   3.942   6.010 -0.4870  0.5372 -0.4046
  588MOL0     H77578   0.020   4.089   6.025 -0.9868  2.9279  1.0196
  588MOL0     H77579  -0.219   4.087   6.120  0.4258 -0.4417 -1.3703
  588MOL0     H77580  -0.540   3.938   6.509  0.9994 -0.3996  0.0190
  588MOL0     H77581  -0.782   3.963   6.536 -0.8824 -0.1940 -1.1423
  588MOL0     H77582  -0.994   4.062   6.587 -0.1820  2.3030  0.1091
  588MOL0     H77583  -0.999   3.955   6.437 -3.0928  0.8838 -2.6452
  588MOL0     H77584  -1.187   4.105   6.356 -1.2405  0.1910  0.2647
  588MOL0     H77585  -1.165   4.193   6.511  1.8026  0.4321  0.3540
  588MOL0     H77586  -1.221   3.953   6.622  0.6258  0.8352 -0.8276
  588MOL0     H77587  -1.251   3.898   6.465 -2.7232  0.1266  0.7331
  588MOL0     H77588  -1.427   4.062   6.431 -0.7244  3.4526  0.1347
  588MOL0     H77589  -1.450   3.953   6.574 -1.4073  0.9278  0.1060
  588MOL0     H77590  -1.408   4.256   6.550  1.9314  0.8897  1.9779
  588MOL0     H77591  -1.344   4.177   6.689 -1.2720  2.2664  0.4912
  588MOL0     H77592  -1.563   4.277   6.722  1.7081  0.0609 -0.4042
  588MOL0     H77593  -1.566   4.111   6.759  0.8638  1.6191  1.9906
  588MOL0     H77594  -1.683   4.064   6.528  0.5602  0.8651 -1.7453
  588MOL0     H77595  -1.774   4.163   6.641 -0.2954 -0.8630 -0.7358
  588MOL0     H77596  -1.597   4.254   6.402  0.5951  2.6257 -0.8495
  588MOL0     H77597  -1.674   4.374   6.510 -0.1476 -0.2254  1.3436
  588MOL0     H77598  -0.799   4.277   6.242 -2.0613 -2.2495 -0.2721
  588MOL0     H77599  -0.541   4.258   6.223  0.7039 -0.9731 -0.0011
  588MOL0     H77600  -0.049   3.957   6.497  0.9302  1.1335  0.3565
  588MOL0     H77601   0.171   3.965   6.411 -0.6186 -1.8041  0.9056
  588MOL0     H77602   1.871   3.672   6.744  0.2938  0.4768 -0.9612
  588MOL0     H77603   2.088   3.628   6.682  0.7682  0.7595 -0.2021
  588MOL0     H77604   2.284   3.375   6.286 -0.6762 -0.6808  1.4927
  588MOL0     H77605   2.506   3.303   6.208  2.5259  1.5732 -2.3492
  588MOL0     H77606   2.702   3.332   6.036  0.5882  2.6896  0.9765
  588MOL0     H77607   2.713   3.261   6.195 -2.4628 -0.2404 -1.7791
  588MOL0     H77608   2.912   3.212   6.071 -0.0073  0.9587 -0.5422
  588MOL0     H77609   2.925   3.376   6.002 -1.0014 -0.0411 -0.8610
  588MOL0     H77610   2.998   3.461   6.228 -1.3697 -0.7755  0.8946
  588MOL0     H77611   3.106   3.341   6.176  1.2315 -1.3389  2.2597
  588MOL0     H77612   2.877   3.302   6.368 -1.4637 -0.3130 -0.6967
  588MOL0     H77613   2.972   3.167   6.302  3.9196  0.0441 -0.4706
  588MOL0     H77614   3.225   3.281   6.607  0.1572 -0.1170  0.3879
  588MOL0     H77615   2.671   3.683   6.330  3.1406 -2.7755 -2.2619
  588MOL0     H77616   2.493   3.735   6.442  1.1609  2.2942 -1.5342
  589MOL0     O77617   9.197   5.207   1.573 -0.0917  0.0125  0.0450
  589MOL0     C77618   9.167   5.296   1.661  0.2537 -0.2684 -0.3515
  589MOL0     O77619   9.045   5.317   1.707  0.0787  0.8467 -0.7705
  589MOL0     C77620   8.931   5.266   1.643 -0.1461 -0.1896 -0.4824
  589MOL0     C77621   8.824   5.264   1.733 -0.1970  0.2447 -0.5537
  589MOL0     C77622   8.694   5.241   1.688  0.5042 -0.3476  0.6796
  589MOL0     C77623   8.666   5.212   1.550 -0.0315  0.1694 -0.8421
  589MOL0     O77624   8.540   5.198   1.499  0.4422  0.1126  0.8575
  589MOL0     C77625   8.429   5.261   1.561  1.0864 -0.3472 -0.0042
  589MOL0     C77626   8.301   5.266   1.477  0.1784  0.4886  0.2967
  589MOL0     C77627   8.256   5.130   1.414  0.9350  0.2883  1.5607
  589MOL0     C77628   8.099   5.139   1.386  0.6658 -0.7508  0.7438
  589MOL0     C77629   8.009   5.082   1.496  0.4780 -0.0468  0.1743
  589MOL0     C77630   7.857   5.120   1.463  0.2670  0.4500 -0.0567
  589MOL0     C77631   7.829   5.268   1.494 -0.1066  0.2890  0.1167
  589MOL0     C77632   7.694   5.312   1.432  0.5848  0.2372 -0.1662
  589MOL0     N77633   7.573   5.247   1.474 -0.5208  0.0506 -0.6558
  589MOL0     C77634   7.519   5.151   1.395 -0.2489 -0.0899 -0.1967
  589MOL0     C77635   7.393   5.142   1.434  1.2019  0.2154 -1.1553
  589MOL0     C77636   7.273   5.059   1.376  0.2442  0.1056  0.5503
  589MOL0     C77637   7.139   5.126   1.314 -0.3991  0.5159 -0.7120
  589MOL0     C77638   7.021   5.040   1.331 -0.2795  0.4803  0.2350
  589MOL0     C77639   6.893   5.106   1.290  0.5716  0.3080 -0.0926
  589MOL0     O77640   6.806   5.003   1.243 -0.0387  0.8370  0.4841
  589MOL0     C77641   6.675   5.033   1.232 -0.2419  0.1013  0.3696
  589MOL0     C77642   6.631   5.070   1.110  0.4984 -0.4158  0.1713
  589MOL0     C77643   6.492   5.094   1.093 -0.1179 -0.6420 -0.1068
  589MOL0     C77644   6.400   5.078   1.203 -0.9728  0.5247 -0.6099
  589MOL0     C77645   6.259   5.116   1.193  0.4165  0.6317 -1.1522
  589MOL0     O77646   6.170   5.079   1.291 -0.6676 -0.7408  0.2134
  589MOL0     C77647   6.034   5.114   1.280  0.8868 -0.5199 -0.0685
  589MOL0     C77648   5.981   5.201   1.369 -0.4436 -0.4508 -0.1380
  589MOL0     C77649   5.846   5.248   1.354  0.8062  0.9973  0.0442
  589MOL0     C77650   5.758   5.176   1.280  0.2233  0.4508  0.7094
  589MOL0     O77651   5.623   5.199   1.285 -0.5037  0.4485 -0.3424
  589MOL0     C77652   5.557   5.213   1.413  0.8514  0.5527 -0.7179
  589MOL0     C77653   5.430   5.294   1.399  0.7832 -0.0530 -0.1553
  589MOL0     C77654   5.324   5.266   1.503  0.2357  0.2563  0.6335
  589MOL0     C77655   5.247   5.137   1.471 -0.7624  0.5359  0.9766
  589MOL0     C77656   5.130   5.125   1.571 -0.3781 -0.3700 -0.3416
  589MOL0     C77657   5.172   5.118   1.715 -0.8011  0.6581 -0.1656
  589MOL0     C77658   5.200   4.968   1.751 -0.1727  0.9335  0.7308
  589MOL0     C77659   5.226   4.936   1.891  0.8481 -0.3603 -0.0647
  589MOL0    Cl77660   5.214   4.759   1.921  0.2281  0.3108 -0.1857
  589MOL0     C77661   5.810   5.083   1.189  0.1442 -0.2271 -0.3571
  589MOL0     C77662   5.946   5.051   1.187 -0.6407 -0.7229 -0.2280
  589MOL0     O77663   6.227   5.185   1.097 -0.1719  0.1535  0.1490
  589MOL0     C77664   6.458   5.047   1.330 -0.2463  1.1577  0.2594
  589MOL0     C77665   6.595   5.020   1.344  1.4656  1.3750  0.6333
  589MOL0     N77666   7.374   5.241   1.538 -0.4480  0.5641  0.6340
  589MOL0     N77667   7.484   5.301   1.561  0.1169  0.8265 -0.0057
  589MOL0     C77668   8.770   5.217   1.462 -0.2124  0.5552 -0.2273
  589MOL0     C77669   8.900   5.239   1.504 -0.3985 -0.1088 -0.7083
  589MOL0     C77670   9.274   5.395   1.706  0.6703  0.6098 -0.1027
  589MOL0     C77671   9.231   5.501   1.784 -0.3624  0.1549  0.1097
  589MOL0     C77672   9.318   5.600   1.833  0.5612  0.2403  0.1284
  589MOL0     C77673   9.452   5.594   1.805 -0.1248 -0.0892 -0.0374
  589MOL0     O77674   9.548   5.679   1.866  0.4237  0.1096 -0.0329
  589MOL0     C77675   9.601   5.636   1.994  0.5524  0.4045  0.0070
  589MOL0     C77676   9.754   5.625   2.000  0.1488 -0.4979 -0.2869
  589MOL0     C77677   9.802   5.625   2.147 -0.2147  0.8358 -0.2457
  589MOL0     C77678   9.730   5.517   2.230 -0.0115 -0.1145  0.0229
  589MOL0     C77679   9.779   5.518   2.373 -0.3253 -0.2588  0.1955
  589MOL0     C77680   9.812   5.538   2.490  0.2993 -0.5641  0.1940
  589MOL0     C77681   9.503   5.491   1.724  0.7345  0.2990 -0.8466
  589MOL0     C77682   9.416   5.388   1.670 -0.9730 -0.3817 -0.0318
  589MOL0     H77683   8.839   5.277   1.839 -0.0986 -0.7036 -0.4410
  589MOL0     H77684   8.615   5.243   1.762  0.8992 -0.4722  1.1066
  589MOL0     H77685   8.460   5.365   1.574  2.6272 -1.0017  2.0269
  589MOL0     H77686   8.415   5.217   1.660 -0.9590 -1.2789 -0.6582
  589MOL0     H77687   8.328   5.339   1.400  2.8827  2.4355  2.8545
  589MOL0     H77688   8.222   5.311   1.537  0.2480  1.0280 -0.0112
  589MOL0     H77689   8.277   5.052   1.487  0.0656 -0.8681  0.6269
  589MOL0     H77690   8.322   5.110   1.329 -0.1508  0.1797  0.7207
  589MOL0     H77691   8.075   5.244   1.370 -2.4400 -1.0468  2.6291
  589MOL0     H77692   8.082   5.097   1.287  3.0850  0.3926 -0.2366
  589MOL0     H77693   8.039   5.121   1.594  2.2004 -0.3556 -0.1848
  589MOL0     H77694   8.014   4.973   1.499 -0.1400 -0.1332 -1.2369
  589MOL0     H77695   7.786   5.055   1.516  0.6886  1.5485  1.9440
  589MOL0     H77696   7.837   5.101   1.357 -2.2871 -1.1258  0.6048
  589MOL0     H77697   7.838   5.278   1.602 -1.0912  0.4374  0.1927
  589MOL0     H77698   7.902   5.339   1.453 -1.3774  0.9890 -1.0265
  589MOL0     H77699   7.703   5.304   1.323 -1.5629  1.9113 -0.5334
  589MOL0     H77700   7.690   5.419   1.455 -1.3891  0.1099  0.2428
  589MOL0     H77701   7.551   5.099   1.305  0.6090  1.0157 -0.5565
  589MOL0     H77702   7.245   4.999   1.463  0.6437 -0.5378  0.2378
  589MOL0     H77703   7.303   4.982   1.305 -2.3058  0.5514 -1.1217
  589MOL0     H77704   7.156   5.162   1.212 -1.5009  1.2584 -0.6632
  589MOL0     H77705   7.124   5.217   1.373  0.0960  0.3385 -0.2974
  589MOL0     H77706   7.031   4.953   1.266 -0.4951  0.2201  0.5473
  589MOL0     H77707   7.004   5.005   1.433 -1.0317  2.4876  0.8481
  589MOL0     H77708   6.903   5.186   1.216  2.2743  0.5665  0.3752
  589MOL0     H77709   6.859   5.156   1.381  1.4492 -1.8703  1.5167
  589MOL0     H77710   6.703   5.076   1.028  0.7406 -2.0357  0.2300
  589MOL0     H77711   6.457   5.122   0.994  0.2505  0.2492  0.0112
  589MOL0     H77712   6.042   5.258   1.439 -1.7991  2.6416 -1.2897
  589MOL0     H77713   5.812   5.328   1.419 -1.0057 -2.6547  4.1474
  589MOL0     H77714   5.618   5.248   1.496  0.3505 -0.9425  0.3226
  589MOL0     H77715   5.530   5.112   1.446  0.0112  0.8478 -0.4809
  589MOL0     H77716   5.383   5.269   1.304 -0.8834 -0.8204  0.8265
  589MOL0     H77717   5.442   5.403   1.405  0.0210  0.1612 -2.0180
  589MOL0     H77718   5.260   5.355   1.511  1.0740  0.9949 -0.4970
  589MOL0     H77719   5.371   5.259   1.602 -1.3214 -0.6943  1.3428
  589MOL0     H77720   5.208   5.144   1.369 -4.1247 -1.9737  1.9040
  589MOL0     H77721   5.309   5.047   1.472 -0.7320  0.4524 -1.5304
  589MOL0     H77722   5.072   5.035   1.546 -1.2255  0.0010  0.2204
  589MOL0     H77723   5.072   5.217   1.556  1.2547  0.5599 -1.3154
  589MOL0     H77724   5.079   5.147   1.765 -0.0526  1.1499  0.9891
  589MOL0     H77725   5.251   5.180   1.758 -0.9203 -1.7667  4.0695
  589MOL0     H77726   5.138   4.890   1.706  0.9220  1.4682 -1.8848
  589MOL0     H77727   5.297   4.947   1.704  0.2451 -0.0014  1.9489
  589MOL0     H77728   5.140   4.978   1.944  0.3754 -3.3565  1.7609
  589MOL0     H77729   5.313   4.996   1.918 -0.5803  1.3711  0.9119
  589MOL0     H77730   5.748   5.030   1.118  1.6332 -1.9563 -0.4544
  589MOL0     H77731   5.991   4.992   1.109  0.0075 -0.9723  0.3264
  589MOL0     H77732   6.403   5.038   1.423  2.7467  3.7494  2.4910
  589MOL0     H77733   6.627   4.981   1.440 -1.3014 -2.0713  0.3348
  589MOL0     H77734   8.761   5.199   1.355  0.9715 -0.6032 -0.1651
  589MOL0     H77735   8.979   5.236   1.430  0.2657  0.8617 -0.0751
  589MOL0     H77736   9.133   5.526   1.823 -0.2750 -0.3498  0.6501
  589MOL0     H77737   9.278   5.673   1.902  1.4159  0.1331  0.7570
  589MOL0     H77738   9.562   5.539   2.029 -0.0888  0.1413 -1.3946
  589MOL0     H77739   9.564   5.709   2.067 -2.5688  0.5090 -1.5090
  589MOL0     H77740   9.789   5.531   1.956  1.1140 -0.6626  0.7809
  589MOL0     H77741   9.815   5.700   1.950 -0.0315  0.3666  0.7719
  589MOL0     H77742   9.785   5.724   2.189  2.0283  0.7956  0.8777
  589MOL0     H77743   9.910   5.605   2.138 -0.6330 -2.1456  0.1149
  589MOL0     H77744   9.621   5.520   2.227 -0.3570 -5.2386 -0.5831
  589MOL0     H77745   9.750   5.419   2.186  1.4411  0.2151 -0.1088
  589MOL0     H77746   9.827   5.575   2.589  1.2563 -0.2923 -0.0447
  589MOL0     H77747   9.609   5.475   1.708  0.4328 -3.2533 -0.1325
  589MOL0     H77748   9.441   5.314   1.594 -2.3818 -0.8357 -0.1011
  590MOL0     O77749   7.083   4.330   9.907 -0.5372  0.1118 -0.0440
  590MOL0     C77750   7.062   4.221   9.848 -0.4109 -0.1659  0.1369
  590MOL0     O77751   7.140   4.181   9.748 -0.0306  0.3061 -0.0828
  590MOL0     C77752   7.226   4.266   9.683  1.1308  0.2451  0.4179
  590MOL0     C77753   7.207   4.285   9.548 -0.1158  1.1614 -0.2356
  590MOL0     C77754   7.304   4.355   9.468 -0.1674  0.8787 -0.2571
  590MOL0     C77755   7.413   4.409   9.529  0.0383  0.4036 -0.0167
  590MOL0     O77756   7.493   4.504   9.467 -0.0914 -0.2549  0.0811
  590MOL0     C77757   7.636   4.468   9.438  0.7222  0.5288 -0.7221
  590MOL0     C77758   7.638   4.405   9.295  1.1899  0.2476  0.4655
  590MOL0     C77759   7.771   4.359   9.232  0.6631 -0.0216  0.0520
  590MOL0     C77760   7.742   4.286   9.095  0.6543  0.5352  0.4300
  590MOL0     C77761   7.622   4.195   9.075  0.4573  0.6825 -0.7276
  590MOL0     C77762   7.604   4.122   8.943  0.3449 -0.1097  0.1837
  590MOL0     C77763   7.610   4.229   8.829 -0.2615 -0.3139  0.3412
  590MOL0     C77764   7.576   4.163   8.700  1.3382  0.2866  1.2763
  590MOL0     N77765   7.573   4.260   8.591  0.4728 -0.6721  0.2393
  590MOL0     C77766   7.504   4.381   8.594  0.0989  0.1950  0.1702
  590MOL0     C77767   7.504   4.421   8.467  0.5833 -1.0105  0.4165
  590MOL0     C77768   7.446   4.551   8.422  0.6653  0.4058  0.1975
  590MOL0     C77769   7.290   4.554   8.416  0.6072 -0.3438 -0.0041
  590MOL0     C77770   7.253   4.496   8.279  0.0540  0.9804  1.0702
  590MOL0     C77771   7.097   4.512   8.259  0.6402 -0.3879  0.4948
  590MOL0     O77772   7.058   4.653   8.270  0.1025  0.2237 -0.1289
  590MOL0     C77773   6.953   4.705   8.202 -0.6421  0.2771  0.1553
  590MOL0     C77774   6.957   4.840   8.169 -0.0234  0.1921 -0.4829
  590MOL0     C77775   6.852   4.891   8.102  0.6873  0.2269  0.1841
  590MOL0     C77776   6.740   4.813   8.067 -0.2141  0.1483  0.0578
  590MOL0     C77777   6.627   4.860   7.985  0.1036  0.2105 -0.6504
  590MOL0     O77778   6.507   4.798   8.005 -0.0324  0.8993  0.1151
  590MOL0     C77779   6.404   4.820   7.916 -0.1396 -0.5225  0.8853
  590MOL0     C77780   6.307   4.910   7.954 -0.5266 -0.0740 -0.6645
  590MOL0     C77781   6.189   4.921   7.875  0.1643 -0.4364 -0.2682
  590MOL0     C77782   6.187   4.858   7.743 -0.1747 -1.3844 -1.0498
  590MOL0     O77783   6.074   4.876   7.659  0.8356  0.2305  0.1033
  590MOL0     C77784   6.071   4.802   7.528 -0.8361 -0.7140 -0.1469
  590MOL0     C77785   5.954   4.840   7.432  0.4437 -0.0694 -0.4993
  590MOL0     C77786   5.963   4.794   7.284 -0.1255 -0.1310  0.6925
  590MOL0     C77787   5.845   4.854   7.199  0.2970  1.3839 -0.1396
  590MOL0     C77788   5.822   4.789   7.065  0.2880  0.1850  1.2040
  590MOL0     C77789   5.698   4.832   6.991 -0.0459 -0.8926  0.1878
  590MOL0     C77790   5.718   4.972   6.945  1.1516  0.0852  0.0431
  590MOL0     C77791   5.677   5.010   6.801  0.7801 -0.0692 -0.7615
  590MOL0    Cl77792   5.766   4.916   6.676 -0.0211 -0.6564 -0.0605
  590MOL0     C77793   6.298   4.777   7.703 -0.7107  0.0349  0.1539
  590MOL0     C77794   6.412   4.774   7.785  0.1325 -0.2477  0.2858
  590MOL0     O77795   6.649   4.959   7.913 -0.4891  1.1599 -0.2599
  590MOL0     C77796   6.737   4.673   8.106 -0.6982 -0.0423 -0.4787
  590MOL0     C77797   6.842   4.624   8.177 -0.7581  0.2195 -1.0746
  590MOL0     N77798   7.564   4.323   8.388  0.6661 -0.0864  0.2577
  590MOL0     N77799   7.602   4.223   8.458  0.2097  0.6019  0.2743
  590MOL0     C77800   7.435   4.387   9.670 -0.2169  0.1760  0.8526
  590MOL0     C77801   7.338   4.310   9.744  0.0916 -0.1461  0.8127
  590MOL0     C77802   6.973   4.120   9.909 -1.0110 -0.2914 -0.2384
  590MOL0     C77803   7.006   3.983   9.898  0.6445 -0.7124  0.0474
  590MOL0     C77804   6.918   3.889   9.946 -0.2168  0.1961  0.4433
  590MOL0     C77805   6.798   3.932  10.015 -0.2211 -0.2959 -0.4741
  590MOL0     O77806   6.713   3.834  10.059 -0.7497 -0.5023 -0.2226
  590MOL0     C77807   6.608   3.878  10.149 -0.1130  0.3869 -0.0419
  590MOL0     C77808   6.509   3.763  10.176 -0.4641 -0.1745  0.4662
  590MOL0     C77809   6.446   3.707  10.046 -0.3902 -0.4874  0.6264
  590MOL0     C77810   6.320   3.632  10.082 -1.2569  0.0264  0.6473
  590MOL0     C77811   6.216   3.716  10.142 -0.1460 -0.4441 -0.4552
  590MOL0     C77812   6.137   3.795  10.196 -1.5362 -0.3027  0.1979
  590MOL0     C77813   6.780   4.071  10.041 -0.1957  0.4978 -0.2189
  590MOL0     C77814   6.856   4.165   9.981  0.6343 -0.7356  0.2096
  590MOL0     H77815   7.113   4.248   9.506  0.4924 -2.8940  1.5520
  590MOL0     H77816   7.295   4.358   9.360 -1.4602 -0.0002 -0.2111
  590MOL0     H77817   7.686   4.405   9.512 -1.9660  0.7753  1.4468
  590MOL0     H77818   7.701   4.555   9.432  3.8281 -1.6042 -0.5930
  590MOL0     H77819   7.578   4.465   9.226  0.8955 -2.3708 -1.7653
  590MOL0     H77820   7.578   4.314   9.309  2.6523 -0.6094  1.4491
  590MOL0     H77821   7.833   4.304   9.303  2.2649  0.5462 -0.8428
  590MOL0     H77822   7.826   4.450   9.205  0.7935 -0.0264  0.3062
  590MOL0     H77823   7.742   4.362   9.017  0.2388  1.0955  0.9630
  590MOL0     H77824   7.829   4.222   9.081 -0.0585 -0.2905 -0.2954
  590MOL0     H77825   7.535   4.262   9.073 -0.0365  0.3431  3.1539
  590MOL0     H77826   7.613   4.124   9.157 -0.6787  2.9692  1.2347
  590MOL0     H77827   7.504   4.077   8.944  0.5782 -0.6757 -0.9453
  590MOL0     H77828   7.671   4.036   8.942 -1.9495 -2.0343 -1.2613
  590MOL0     H77829   7.543   4.315   8.842 -0.2748  0.2930 -3.0243
  590MOL0     H77830   7.711   4.270   8.823 -0.2005 -0.5092 -5.8973
  590MOL0     H77831   7.482   4.108   8.704  0.3567  1.7520 -0.5059
  590MOL0     H77832   7.644   4.082   8.670  0.3227  0.2220 -1.0779
  590MOL0     H77833   7.455   4.421   8.682 -1.7845 -1.2388 -0.1762
  590MOL0     H77834   7.494   4.583   8.328 -1.4514  1.4631 -0.5828
  590MOL0     H77835   7.481   4.619   8.501 -0.0774 -0.9009  1.6859
  590MOL0     H77836   7.259   4.658   8.428  2.0767  0.0961  0.1390
  590MOL0     H77837   7.249   4.490   8.495  0.9554 -1.5248 -0.7557
  590MOL0     H77838   7.294   4.548   8.191  1.0464 -3.1349 -1.1316
  590MOL0     H77839   7.282   4.391   8.283 -4.5898 -0.5546  0.1086
  590MOL0     H77840   7.034   4.444   8.317  1.5154 -3.0123 -1.4815
  590MOL0     H77841   7.077   4.477   8.158  3.7953 -0.5478 -0.1976
  590MOL0     H77842   7.043   4.904   8.185  1.0456 -0.3540 -3.5244
  590MOL0     H77843   6.863   4.996   8.074 -1.5497 -0.1968 -2.7692
  590MOL0     H77844   6.301   4.945   8.057 -1.7336  0.3611 -0.8556
  590MOL0     H77845   6.108   4.982   7.911  0.4696 -0.8969  1.2612
  590MOL0     H77846   6.061   4.697   7.557  2.0714 -1.6113 -1.9200
  590MOL0     H77847   6.169   4.811   7.481 -0.1172 -0.4621  1.3189
  590MOL0     H77848   5.946   4.949   7.431 -2.5131 -0.2029 -1.8384
  590MOL0     H77849   5.865   4.798   7.479 -0.2378  2.9476  1.1079
  590MOL0     H77850   5.939   4.687   7.277 -5.2632  0.7235  1.5492
  590MOL0     H77851   6.061   4.822   7.244  0.0042 -0.4613  0.7733
  590MOL0     H77852   5.762   4.823   7.263  2.1171 -1.0722  1.1910
  590MOL0     H77853   5.847   4.963   7.204  0.9989  1.4318 -1.1146
  590MOL0     H77854   5.828   4.681   7.075  0.2004  0.0741  0.1562
  590MOL0     H77855   5.911   4.813   7.006  1.3291 -1.2785  2.1308
  590MOL0     H77856   5.622   4.829   7.069  0.5340 -0.3502  0.7937
  590MOL0     H77857   5.668   4.767   6.908 -0.4781 -0.0537 -0.3313
  590MOL0     H77858   5.662   5.043   7.007  3.6026  2.5156 -0.3360
  590MOL0     H77859   5.825   4.994   6.957  1.5214 -1.0606 -0.9533
  590MOL0     H77860   5.708   5.114   6.787  0.5438 -0.1190 -1.7434
  590MOL0     H77861   5.569   5.000   6.785  0.2335 -0.4088  2.4805
  590MOL0     H77862   6.293   4.725   7.608  0.4102  0.4351 -0.1354
  590MOL0     H77863   6.499   4.722   7.746 -0.3273 -0.6964 -0.1580
  590MOL0     H77864   6.646   4.618   8.087 -0.9576  0.7434 -1.6005
  590MOL0     H77865   6.823   4.523   8.212  1.0842 -0.9182 -3.1113
  590MOL0     H77866   7.531   4.415   9.711 -0.0082 -0.0015  0.4903
  590MOL0     H77867   7.351   4.285   9.849  3.0458 -3.0972 -0.0835
  590MOL0     H77868   7.098   3.950   9.851  1.9144 -0.1873  2.0513
  590MOL0     H77869   6.948   3.785   9.946  0.2516  0.3273 -0.0328
  590MOL0     H77870   6.560   3.961  10.097  0.4048  0.5307 -0.2997
  590MOL0     H77871   6.638   3.923  10.244  1.0606 -1.9448  0.7665
  590MOL0     H77872   6.553   3.678  10.229  1.9271 -0.0081 -1.1269
  590MOL0     H77873   6.440   3.810  10.246 -0.2133 -1.3517  1.5320
  590MOL0     H77874   6.527   3.649  10.001  1.3537  2.0421  0.2642
  590MOL0     H77875   6.405   3.787   9.984 -1.9009  0.0442  2.2330
  590MOL0     H77876   6.265   3.593   9.995 -1.4116  1.9125 -0.1535
  590MOL0     H77877   6.345   3.546  10.144  0.4964  0.9201  1.2366
  590MOL0     H77878   6.085   3.870  10.252 -0.1779  0.9734 -0.1817
  590MOL0     H77879   6.710   4.117  10.110 -0.5178 -1.2665  0.7086
  590MOL0     H77880   6.850   4.273   9.987  1.6900 -0.6685  0.0956
  591MOL0     O77881   2.704   9.249   1.599  0.4508  0.2603  0.5584
  591MOL0     C77882   2.736   9.356   1.541 -0.6847  1.0870 -0.4881
  591MOL0     O77883   2.752   9.473   1.604  0.3919 -0.0437  0.4520
  591MOL0     C77884   2.710   9.484   1.736  0.4362  0.1411 -0.0591
  591MOL0     C77885   2.593   9.555   1.763 -0.1506  0.1032  0.1264
  591MOL0     C77886   2.551   9.567   1.896  0.6640  1.4005  0.1062
  591MOL0     C77887   2.624   9.514   2.002  0.9423 -0.3868  1.2782
  591MOL0     O77888   2.568   9.530   2.128 -0.0555 -0.0480  0.1693
  591MOL0     C77889   2.528   9.412   2.196  0.6085  0.3937 -0.4215
  591MOL0     C77890   2.376   9.388   2.171 -0.2236  0.5837  0.1663
  591MOL0     C77891   2.300   9.491   2.252 -0.2344 -0.1710 -0.7799
  591MOL0     C77892   2.152   9.464   2.234  0.5060 -0.1448  0.7029
  591MOL0     C77893   2.071   9.544   2.331 -1.2106 -0.1306 -0.3198
  591MOL0     C77894   1.923   9.511   2.298  0.6655  0.3645 -0.6301
  591MOL0     C77895   1.820   9.578   2.384 -0.3145  0.9161 -0.2366
  591MOL0     C77896   1.684   9.530   2.353  0.1346  0.2585  0.0225
  591MOL0     N77897   1.570   9.572   2.434 -0.1214  0.0629 -0.7259
  591MOL0     C77898   1.441   9.517   2.426  0.1435 -0.1169 -0.3932
  591MOL0     C77899   1.363   9.610   2.486  0.4803  0.3579 -0.1204
  591MOL0     C77900   1.220   9.581   2.496  0.0877  0.0793  0.5587
  591MOL0     C77901   1.161   9.619   2.630 -0.0496 -0.4046 -0.3935
  591MOL0     C77902   1.010   9.643   2.640  0.0221 -0.2508  0.2043
  591MOL0     C77903   0.986   9.784   2.594 -0.2525 -0.2299  0.1223
  591MOL0     O77904   0.868   9.788   2.515 -0.4237  0.5406  0.5396
  591MOL0     C77905   0.735   9.777   2.565 -0.6117 -0.0474  0.4970
  591MOL0     C77906   0.638   9.729   2.472 -0.5605 -0.9414 -0.9099
  591MOL0     C77907   0.503   9.703   2.517  0.3111  0.3125 -0.2185
  591MOL0     C77908   0.463   9.738   2.641  0.1031  0.2926 -0.5573
  591MOL0     C77909   0.323   9.730   2.683 -0.1606  0.7877  0.5394
  591MOL0     O77910   0.225   9.709   2.587  0.8685 -0.0110 -0.7009
  591MOL0     C77911   0.094   9.682   2.632 -0.2298  0.4927  0.1370
  591MOL0     C77912   0.069   9.549   2.666 -0.4677  0.5205  0.3289
  591MOL0     C77913  -0.058   9.488   2.676  0.1951  0.6207  0.3156
  591MOL0     C77914  -0.172   9.572   2.668 -0.2103  0.3911  0.5620
  591MOL0     O77915  -0.300   9.521   2.691 -0.7850 -0.1881 -0.6659
  591MOL0     C77916  -0.317   9.421   2.789 -0.0216 -0.3477  0.3149
  591MOL0     C77917  -0.449   9.434   2.852 -0.1325 -0.0041 -0.1229
  591MOL0     C77918  -0.491   9.329   2.947  0.5822  0.5941 -0.5175
  591MOL0     C77919  -0.521   9.197   2.878 -0.4017 -0.3883  0.1840
  591MOL0     C77920  -0.573   9.093   2.968  0.2354 -0.7134 -0.0387
  591MOL0     C77921  -0.720   9.104   2.986 -0.3053 -0.4327  0.6905
  591MOL0     C77922  -0.773   9.044   3.116  0.6958  0.0938 -0.0785
  591MOL0     C77923  -0.902   9.107   3.148  0.1933 -0.2505 -0.1218
  591MOL0    Cl77924  -0.967   9.039   3.300  0.0852  0.1746 -0.1344
  591MOL0     C77925  -0.147   9.712   2.652  1.0205  0.1602 -1.0372
  591MOL0     C77926  -0.015   9.765   2.623  0.4106  0.4219 -0.0197
  591MOL0     O77927   0.298   9.749   2.800 -0.0769  0.1178  0.1145
  591MOL0     C77928   0.547   9.790   2.735  0.2312  0.2012 -0.2536
  591MOL0     C77929   0.686   9.810   2.694  0.6188  0.1889 -0.2632
  591MOL0     N77930   1.439   9.719   2.530 -0.7356  0.1693  0.0249
  591MOL0     N77931   1.564   9.681   2.511  0.4579 -0.3005  0.5095
  591MOL0     C77932   2.741   9.442   1.979  0.0851 -0.4781  0.3597
  591MOL0     C77933   2.788   9.428   1.843 -0.4705 -0.7050  0.0203
  591MOL0     C77934   2.773   9.348   1.401  0.4182  0.8329 -0.7862
  591MOL0     C77935   2.787   9.225   1.334 -0.4476  0.4474 -0.1223
  591MOL0     C77936   2.821   9.232   1.200 -0.2405  0.4230 -0.4744
  591MOL0     C77937   2.845   9.355   1.129  0.1001  1.3972  0.5350
  591MOL0     O77938   2.877   9.357   0.999  0.0881  0.1740  0.5476
  591MOL0     C77939   3.013   9.315   0.992 -0.4741  0.1546  0.0937
  591MOL0     C77940   3.070   9.344   0.857  0.0808 -1.0180  0.4333
  591MOL0     C77941   3.213   9.310   0.859 -0.0772 -0.7036 -0.3641
  591MOL0     C77942   3.266   9.349   0.720 -0.5138 -0.0637 -0.6513
  591MOL0     C77943   3.396   9.290   0.693  0.3616 -0.3434 -0.6672
  591MOL0     C77944   3.505   9.235   0.685  0.8405  0.3631  0.3762
  591MOL0     C77945   2.824   9.470   1.197 -0.4219  0.3262  0.3419
  591MOL0     C77946   2.789   9.467   1.330 -0.2944 -0.3462  0.7689
  591MOL0     H77947   2.526   9.568   1.678 -2.1777  0.1231  1.6726
  591MOL0     H77948   2.456   9.609   1.926  1.2699  2.3961  0.6618
  591MOL0     H77949   2.540   9.431   2.303  0.8094 -2.7064  0.1859
  591MOL0     H77950   2.584   9.322   2.167  0.3645  1.0648 -3.2540
  591MOL0     H77951   2.338   9.288   2.192 -1.2692  0.8103 -0.5594
  591MOL0     H77952   2.363   9.402   2.063 -0.0549  1.0550  0.2017
  591MOL0     H77953   2.340   9.590   2.230 -0.8891  0.3831  0.4009
  591MOL0     H77954   2.315   9.484   2.360  0.4067  0.2655 -0.8407
  591MOL0     H77955   2.139   9.485   2.127  2.8910 -3.6682 -0.4429
  591MOL0     H77956   2.119   9.364   2.264 -3.3382  1.1535  1.4232
  591MOL0     H77957   2.095   9.649   2.314  1.6588 -1.0367 -2.8546
  591MOL0     H77958   2.098   9.515   2.433 -0.1444 -0.6639 -0.7374
  591MOL0     H77959   1.909   9.403   2.304  1.3141  0.1612 -2.3365
  591MOL0     H77960   1.907   9.537   2.194  0.3412 -0.4476 -0.7921
  591MOL0     H77961   1.834   9.554   2.490 -0.9010  4.7134  0.8322
  591MOL0     H77962   1.831   9.686   2.373  0.8381  0.6281 -2.8845
  591MOL0     H77963   1.673   9.421   2.363 -1.2928  0.3631 -0.2284
  591MOL0     H77964   1.669   9.540   2.245  2.2066 -2.1941 -0.5954
  591MOL0     H77965   1.414   9.439   2.356  0.6561  0.6237 -1.4488
  591MOL0     H77966   1.198   9.480   2.459 -1.8619  1.1391 -1.4129
  591MOL0     H77967   1.171   9.654   2.431  1.6483  0.3003 -0.3950
  591MOL0     H77968   1.221   9.702   2.669  1.3522 -1.5764  0.0556
  591MOL0     H77969   1.179   9.528   2.689  0.7584 -0.4867 -0.7597
  591MOL0     H77970   0.960   9.574   2.571 -0.4050  0.0340  0.2292
  591MOL0     H77971   0.965   9.638   2.740 -0.3576 -1.0471  0.0003
  591MOL0     H77972   1.065   9.814   2.525  1.6758 -0.4997  2.1146
  591MOL0     H77973   0.969   9.858   2.674 -1.7111  0.5949 -0.8997
  591MOL0     H77974   0.668   9.712   2.369 -3.9182 -0.7132 -2.0722
  591MOL0     H77975   0.432   9.658   2.449 -0.6249 -1.2660  1.6929
  591MOL0     H77976   0.145   9.471   2.661  0.0744  1.1182 -1.7441
  591MOL0     H77977  -0.063   9.381   2.694  1.4440  0.4495 -0.2399
  591MOL0     H77978  -0.240   9.435   2.865  2.8323 -2.3854 -1.9606
  591MOL0     H77979  -0.310   9.321   2.745  1.2403 -0.8312  1.5418
  591MOL0     H77980  -0.525   9.452   2.775 -1.4621  2.2053  1.5587
  591MOL0     H77981  -0.462   9.527   2.909 -2.9006  0.1329 -0.8478
  591MOL0     H77982  -0.588   9.364   2.984  0.6071  2.3857 -1.9731
  591MOL0     H77983  -0.417   9.321   3.027 -0.3400 -0.1440  0.2944
  591MOL0     H77984  -0.596   9.225   2.803  0.9244  1.4869 -0.4997
  591MOL0     H77985  -0.428   9.168   2.828  1.2476  3.9757  0.3228
  591MOL0     H77986  -0.518   9.104   3.062 -0.8883  1.1276  0.4625
  591MOL0     H77987  -0.559   8.991   2.932  1.0672 -0.3030 -0.9187
  591MOL0     H77988  -0.771   9.056   2.902 -0.8455 -3.8844  2.7923
  591MOL0     H77989  -0.749   9.209   2.998 -0.4180 -0.4489  0.5617
  591MOL0     H77990  -0.776   8.935   3.109  2.7137 -0.0349  0.3465
  591MOL0     H77991  -0.701   9.062   3.196  1.9035 -0.6371 -0.9540
  591MOL0     H77992  -0.973   9.086   3.068 -0.8641 -2.0217  1.2129
  591MOL0     H77993  -0.886   9.215   3.158 -0.9101 -0.0441 -0.5276
  591MOL0     H77994  -0.234   9.776   2.650  0.2801 -0.6956  1.0725
  591MOL0     H77995  -0.004   9.863   2.578 -1.9849  1.1132  0.7457
  591MOL0     H77996   0.523   9.825   2.834  0.9547 -1.3897  0.5155
  591MOL0     H77997   0.763   9.858   2.753  0.6216 -0.2413  0.0840
  591MOL0     H77998   2.805   9.405   2.059  0.6072  1.0359  0.6637
  591MOL0     H77999   2.881   9.377   1.823  0.0546 -0.5749  1.9421
  591MOL0     H78000   2.768   9.129   1.381 -0.9100 -1.3508 -3.6855
  591MOL0     H78001   2.839   9.132   1.162 -0.9340 -1.8312  4.2900
  591MOL0     H78002   3.028   9.211   1.022  1.3423  0.9565  2.2008
  591MOL0     H78003   3.069   9.374   1.065 -1.9186 -2.7795  3.8764
  591MOL0     H78004   3.006   9.288   0.790 -2.3996  1.2028  0.7878
  591MOL0     H78005   3.052   9.450   0.834  1.3124 -1.3732 -2.6288
  591MOL0     H78006   3.228   9.202   0.865 -0.6947 -0.7222  2.3631
  591MOL0     H78007   3.273   9.363   0.934 -0.0401  1.2278 -1.6731
  591MOL0     H78008   3.200   9.311   0.641  1.3917 -0.0499 -2.3453
  591MOL0     H78009   3.266   9.458   0.709 -1.2349 -0.1239 -1.3366
  591MOL0     H78010   3.600   9.193   0.661  0.2046  0.4011 -2.5200
  591MOL0     H78011   2.824   9.563   1.142 -0.1912 -0.2298 -0.6124
  591MOL0     H78012   2.780   9.559   1.387  1.6908  0.1062  0.4422
  592MOL0     O78013   0.715   4.586   7.410  0.0729  0.0955  0.1662
  592MOL0     C78014   0.759   4.694   7.431  0.7572  0.2640 -0.6965
  592MOL0     O78015   0.684   4.815   7.449 -0.7579  0.2998  0.8640
  592MOL0     C78016   0.544   4.818   7.420 -0.9024 -0.1734 -0.0832
  592MOL0     C78017   0.475   4.732   7.335 -0.2860 -0.4401  0.4106
  592MOL0     C78018   0.339   4.765   7.309 -0.1560 -0.4655 -0.1933
  592MOL0     C78019   0.274   4.867   7.378 -0.0546 -0.6942 -0.3158
  592MOL0     O78020   0.142   4.884   7.345 -0.3086 -0.8724 -0.0757
  592MOL0     C78021   0.054   4.906   7.456  0.2714 -0.6784  0.4765
  592MOL0     C78022  -0.091   4.921   7.392 -1.0549  0.3225  0.4269
  592MOL0     C78023  -0.158   4.787   7.346  1.3918  0.0875 -0.9799
  592MOL0     C78024  -0.272   4.812   7.249 -0.0649 -0.3333  0.1068
  592MOL0     C78025  -0.381   4.906   7.319  0.1827  0.1326 -0.0031
  592MOL0     C78026  -0.520   4.897   7.250  0.6528 -0.2673  0.1326
  592MOL0     C78027  -0.614   5.010   7.295 -0.0068 -0.3765 -0.5159
  592MOL0     C78028  -0.695   4.961   7.409  0.9821 -0.0792  0.1394
  592MOL0     N78029  -0.825   5.036   7.416 -0.3290 -0.0169  0.0745
  592MOL0     C78030  -0.834   5.147   7.500  0.3063 -0.6589  0.6935
  592MOL0     C78031  -0.964   5.183   7.483  0.7456  0.3350 -0.1225
  592MOL0     C78032  -1.060   5.288   7.552 -0.0460 -0.1236  0.2555
  592MOL0     C78033  -1.205   5.244   7.562  0.1805 -0.7460  1.0423
  592MOL0     C78034  -1.219   5.132   7.659 -0.2230  0.4933  0.0888
  592MOL0     C78035  -1.362   5.075   7.653  0.2474  0.4296 -0.4884
  592MOL0     O78036  -1.452   5.178   7.681  0.1258 -0.7229  0.0646
  592MOL0     C78037  -1.587   5.159   7.695  0.6159 -0.1799 -0.2225
  592MOL0     C78038  -1.675   5.265   7.679  0.3200  0.5699  0.0891
  592MOL0     C78039  -1.813   5.247   7.688 -0.1875 -1.1092  0.6236
  592MOL0     C78040  -1.868   5.123   7.698  0.0045 -0.3040 -0.5267
  592MOL0     C78041  -2.007   5.097   7.664 -0.9771 -0.4954  0.8314
  592MOL0     O78042  -2.051   4.967   7.660  0.1584 -0.0508 -0.4529
  592MOL0     C78043  -2.163   4.950   7.586 -0.6597  0.8170  0.6886
  592MOL0     C78044  -2.287   4.934   7.646 -0.4024 -0.3495  0.3093
  592MOL0     C78045  -2.401   4.925   7.569  0.2567 -0.4945 -0.6362
  592MOL0     C78046  -2.397   4.932   7.432 -0.4899 -0.0170  0.0999
  592MOL0     O78047  -2.503   4.918   7.340  0.3088 -0.1340 -0.1560
  592MOL0     C78048  -2.625   4.971   7.398 -0.3318 -0.2913 -0.6419
  592MOL0     C78049  -2.738   4.959   7.290 -0.0763  0.7995 -0.2129
  592MOL0     C78050  -2.876   4.982   7.340 -0.8117  0.4619  0.2954
  592MOL0     C78051  -2.962   5.007   7.222  0.6233  0.4585 -0.3170
  592MOL0     C78052  -3.107   5.038   7.270 -0.0600 -0.2501 -0.6093
  592MOL0     C78053  -3.183   5.098   7.148 -0.6358  0.4330  0.3140
  592MOL0     C78054  -3.317   5.179   7.181 -0.9646  0.2180 -0.4500
  592MOL0     C78055  -3.430   5.113   7.097 -0.7575 -0.0728  0.8551
  592MOL0    Cl78056  -3.602   5.148   7.163 -0.3051 -0.2047  0.0134
  592MOL0     C78057  -2.270   4.945   7.376 -0.6620 -0.3310  0.5897
  592MOL0     C78058  -2.147   4.940   7.449 -0.1567 -0.9917 -0.4917
  592MOL0     O78059  -2.074   5.196   7.644  0.3909  0.1442 -0.6796
  592MOL0     C78060  -1.774   5.012   7.712 -0.3136 -0.1239 -0.0145
  592MOL0     C78061  -1.638   5.029   7.710 -0.7951 -0.2652  0.1424
  592MOL0     N78062  -1.023   5.101   7.390  0.5456 -0.2314  0.1714
  592MOL0     N78063  -0.936   5.016   7.338  0.0194 -0.1742 -0.6517
  592MOL0     C78064   0.337   4.944   7.477 -0.4403  1.2597 -0.1798
  592MOL0     C78065   0.472   4.924   7.485  0.0943 -0.5510 -1.1985
  592MOL0     C78066   0.910   4.699   7.444  0.7253  0.6328 -0.7230
  592MOL0     C78067   0.981   4.813   7.471  0.3407  0.0165  0.3208
  592MOL0     C78068   1.121   4.818   7.474  0.2236 -0.9128  0.2561
  592MOL0     C78069   1.189   4.698   7.488 -0.7985  0.7592  0.2507
  592MOL0     O78070   1.326   4.691   7.502 -0.4270 -1.0970  0.2098
  592MOL0     C78071   1.401   4.812   7.465 -0.1272 -0.4629  0.5020
  592MOL0     C78072   1.541   4.769   7.442  0.7967  0.3608  0.0832
  592MOL0     C78073   1.560   4.685   7.310  0.1130  0.0030  0.2525
  592MOL0     C78074   1.709   4.651   7.307 -0.2374  0.0588  0.2775
  592MOL0     C78075   1.741   4.566   7.189 -0.0517 -0.6627 -0.5534
  592MOL0     C78076   1.751   4.487   7.095 -1.0437  0.3729  0.4791
  592MOL0     C78077   1.116   4.579   7.486  0.4661  0.7206 -0.4529
  592MOL0     C78078   0.980   4.579   7.457 -0.0348  0.1073  0.0262
  592MOL0     H78079   0.527   4.660   7.273  0.4460 -0.8938  1.5277
  592MOL0     H78080   0.291   4.717   7.223 -1.9452  3.1550 -1.4079
  592MOL0     H78081   0.076   4.996   7.514 -2.7142 -1.1656  2.6038
  592MOL0     H78082   0.063   4.820   7.523  0.5566 -3.8271 -3.2475
  592MOL0     H78083  -0.081   4.997   7.314  1.1390  0.1154  0.4446
  592MOL0     H78084  -0.153   4.955   7.476 -0.2984  3.1810 -0.0685
  592MOL0     H78085  -0.197   4.743   7.439  2.6259  0.2346 -0.3628
  592MOL0     H78086  -0.082   4.716   7.312  1.2525 -0.8114  0.4908
  592MOL0     H78087  -0.234   4.866   7.162  5.3459  0.4964  2.5534
  592MOL0     H78088  -0.309   4.713   7.221  2.4815 -1.1613 -0.6833
  592MOL0     H78089  -0.348   5.010   7.326  1.2625 -0.2738  1.6133
  592MOL0     H78090  -0.386   4.871   7.423  3.5381 -2.9476 -0.6871
  592MOL0     H78091  -0.550   4.792   7.264  0.6303 -1.3621 -5.5475
  592MOL0     H78092  -0.500   4.916   7.144 -1.0372  1.7622  0.1322
  592MOL0     H78093  -0.580   5.114   7.307 -0.7715 -0.1555 -0.1089
  592MOL0     H78094  -0.693   5.031   7.222 -0.3527  2.6531  0.5767
  592MOL0     H78095  -0.647   4.969   7.507 -0.3286 -2.7396  1.0831
  592MOL0     H78096  -0.726   4.857   7.400 -1.3673  0.4295  1.4563
  592MOL0     H78097  -0.761   5.186   7.570  2.0895 -3.1634  0.3324
  592MOL0     H78098  -1.058   5.380   7.494 -1.6891 -0.6108 -0.6571
  592MOL0     H78099  -1.018   5.312   7.650  0.7173 -1.7282  0.3608
  592MOL0     H78100  -1.240   5.200   7.468  0.7561 -0.6950  0.8032
  592MOL0     H78101  -1.278   5.322   7.586 -3.2095 -2.4976 -2.3976
  592MOL0     H78102  -1.158   5.045   7.635  0.9942  0.8399  1.7462
  592MOL0     H78103  -1.202   5.171   7.760  0.9999 -0.3433  0.2279
  592MOL0     H78104  -1.362   5.000   7.732  0.6167 -0.0949 -0.9722
  592MOL0     H78105  -1.383   5.026   7.558 -1.6555 -0.0220  0.1269
  592MOL0     H78106  -1.613   5.354   7.684 -0.4948  1.1098  0.8945
  592MOL0     H78107  -1.875   5.336   7.677 -2.2511 -2.5501  0.0248
  592MOL0     H78108  -2.298   4.945   7.754  0.3050  0.1068  0.3380
  592MOL0     H78109  -2.493   4.928   7.627  0.3553 -0.4611 -0.4808
  592MOL0     H78110  -2.611   5.073   7.434 -2.0956 -0.2875  0.0900
  592MOL0     H78111  -2.658   4.907   7.480 -1.5874  1.6247  0.3937
  592MOL0     H78112  -2.736   4.854   7.260 -0.3648  0.1776  1.7997
  592MOL0     H78113  -2.710   5.007   7.195 -0.5217 -2.6635 -2.2855
  592MOL0     H78114  -2.881   5.072   7.401  4.4504  2.2488 -1.3220
  592MOL0     H78115  -2.901   4.891   7.395 -1.2939 -1.1892 -2.4724
  592MOL0     H78116  -2.921   5.090   7.164  2.8057  0.5413  1.2021
  592MOL0     H78117  -2.962   4.919   7.158  0.4743 -1.1227  1.7279
  592MOL0     H78118  -3.112   5.116   7.347 -0.3079 -3.0332  2.4305
  592MOL0     H78119  -3.148   4.948   7.316 -0.6792  0.2935 -0.0599
  592MOL0     H78120  -3.207   5.008   7.090 -1.3345 -2.0304  4.0688
  592MOL0     H78121  -3.121   5.165   7.089 -1.1607  1.6123  1.0722
  592MOL0     H78122  -3.357   5.170   7.283  0.5525  1.6681  0.3219
  592MOL0     H78123  -3.306   5.281   7.143 -1.9751 -0.2494 -2.1126
  592MOL0     H78124  -3.426   5.004   7.103  0.0200 -0.0232  1.4001
  592MOL0     H78125  -3.432   5.151   6.994  0.9624  0.0501  0.8354
  592MOL0     H78126  -2.254   4.958   7.269  0.3927 -0.4563  0.7283
  592MOL0     H78127  -2.053   4.955   7.398 -1.2486  0.7759 -2.1445
  592MOL0     H78128  -1.808   4.909   7.710  0.0775 -0.2812 -2.9049
  592MOL0     H78129  -1.575   4.940   7.719  0.9794  1.0744  2.0447
  592MOL0     H78130   0.283   5.008   7.545 -1.3716 -0.8457  1.1801
  592MOL0     H78131   0.517   4.983   7.565 -1.5158 -0.8281 -0.0510
  592MOL0     H78132   0.938   4.913   7.470  2.8533  1.1904 -1.6368
  592MOL0     H78133   1.176   4.912   7.481 -2.6725  0.8120  2.1728
  592MOL0     H78134   1.381   4.881   7.548  1.8843 -0.4543  1.0382
  592MOL0     H78135   1.353   4.854   7.377 -2.6218 -0.3872  1.7954
  592MOL0     H78136   1.614   4.851   7.443  2.4542 -1.0336 -1.0211
  592MOL0     H78137   1.560   4.708   7.531 -2.4072 -1.0121 -0.0362
  592MOL0     H78138   1.518   4.743   7.227  2.6603  1.1504 -0.3241
  592MOL0     H78139   1.493   4.599   7.319  2.0965 -1.6050  0.3936
  592MOL0     H78140   1.763   4.745   7.292 -1.0591  0.5480  0.3391
  592MOL0     H78141   1.740   4.583   7.387 -0.6034 -1.2041 -0.6195
  592MOL0     H78142   1.751   4.423   7.009 -3.5108  1.4535 -0.4045
  592MOL0     H78143   1.156   4.485   7.523  0.9990  1.3726  0.6890
  592MOL0     H78144   0.925   4.486   7.451  0.0774  0.1316 -2.2051
  593MOL0     O78145   3.318   2.270   1.743  0.2843 -0.1956  0.1723
  593MOL0     C78146   3.405   2.308   1.821 -0.0996 -0.4312  0.2563
  593MOL0     O78147   3.414   2.270   1.954  0.2808 -0.7962  0.5882
  593MOL0     C78148   3.313   2.201   2.015 -0.4102 -0.0767 -0.7181
  593MOL0     C78149   3.323   2.063   2.032  0.6664  0.5991 -0.2906
  593MOL0     C78150   3.217   1.996   2.084 -0.3535 -0.1352  0.3206
  593MOL0     C78151   3.106   2.055   2.132  0.6024 -0.4401  0.3437
  593MOL0     O78152   3.012   1.975   2.192 -0.0175  0.3091  0.3114
  593MOL0     C78153   2.887   2.027   2.237 -0.6595  0.7575  0.7687
  593MOL0     C78154   2.787   2.020   2.116 -0.1287 -0.0896  0.0704
  593MOL0     C78155   2.648   2.075   2.156  0.5044  0.0529  0.1740
  593MOL0     C78156   2.558   1.972   2.238 -0.1753  0.5966  0.3584
  593MOL0     C78157   2.433   2.038   2.292  0.3497  0.0194  0.5460
  593MOL0     C78158   2.343   2.066   2.169 -0.2458 -0.7230  0.1067
  593MOL0     C78159   2.194   2.081   2.210  0.2361  0.1531 -0.1358
  593MOL0     C78160   2.163   2.219   2.275 -0.1234 -0.1149  0.7206
  593MOL0     N78161   2.034   2.282   2.243  0.1850  0.1465  0.2407
  593MOL0     C78162   2.002   2.393   2.176 -0.0775  0.5901 -0.9288
  593MOL0     C78163   1.872   2.416   2.195 -0.5857  0.7959 -0.4060
  593MOL0     C78164   1.807   2.538   2.137  0.1594 -0.3495  0.0689
  593MOL0     C78165   1.675   2.512   2.073 -0.0986 -0.1733  0.1310
  593MOL0     C78166   1.620   2.631   1.999 -1.3817 -0.3148  0.8496
  593MOL0     C78167   1.482   2.617   1.959  0.9512  0.4095  0.2368
  593MOL0     O78168   1.403   2.737   1.953  0.1195  0.0294 -0.1247
  593MOL0     C78169   1.288   2.735   1.877 -0.6258  1.4792  0.1028
  593MOL0     C78170   1.258   2.839   1.794 -0.3375  0.4608 -0.2390
  593MOL0     C78171   1.149   2.828   1.712  0.1528 -1.0713  0.0930
  593MOL0     C78172   1.066   2.720   1.713 -0.7885 -0.2439  0.6460
  593MOL0     C78173   0.940   2.719   1.632  0.3183 -1.2204  0.5653
  593MOL0     O78174   0.883   2.844   1.602  0.3326 -0.0109  0.3384
  593MOL0     C78175   0.769   2.860   1.534  0.0614 -0.1908  0.2127
  593MOL0     C78176   0.662   2.916   1.605 -0.7613 -0.2538  1.2876
  593MOL0     C78177   0.549   2.949   1.535  0.1923  0.4528 -0.3658
  593MOL0     C78178   0.527   2.913   1.395 -0.0259 -0.5222 -0.4262
  593MOL0     O78179   0.418   2.946   1.325  0.0609 -0.0171 -0.4437
  593MOL0     C78180   0.380   3.087   1.333  0.1637  0.6115  0.1919
  593MOL0     C78181   0.315   3.121   1.202 -0.1006 -0.1329  0.8382
  593MOL0     C78182   0.158   3.117   1.212 -0.1621  0.3898  0.6010
  593MOL0     C78183   0.101   3.190   1.081  0.5331 -0.2705  0.8801
  593MOL0     C78184  -0.040   3.142   1.046 -0.8360 -0.1545 -0.3963
  593MOL0     C78185  -0.150   3.137   1.156  0.1122 -0.1812  0.5642
  593MOL0     C78186  -0.282   3.077   1.092 -0.7338 -0.9163 -0.7421
  593MOL0     C78187  -0.384   3.048   1.202  0.8645 -0.4397  0.4597
  593MOL0    Cl78188  -0.528   2.951   1.147  0.2115 -0.0559  0.3278
  593MOL0     C78189   0.634   2.850   1.329 -0.0791  0.5362  0.8615
  593MOL0     C78190   0.758   2.823   1.399  0.1851  0.6707  0.0045
  593MOL0     O78191   0.903   2.612   1.585 -0.0049  0.0543  0.3629
  593MOL0     C78192   1.091   2.619   1.808  0.8053 -0.3875  0.5168
  593MOL0     C78193   1.200   2.623   1.887 -0.6570 -0.9250 -0.2005
  593MOL0     N78194   1.826   2.323   2.269 -0.2787  0.6056  0.1765
  593MOL0     N78195   1.916   2.247   2.307  0.4849  0.0648  0.3841
  593MOL0     C78196   3.088   2.196   2.100  1.0549  0.0887  1.1555
  593MOL0     C78197   3.191   2.265   2.040  0.2728  0.1254  0.3600
  593MOL0     C78198   3.515   2.374   1.765 -0.4405  0.0702  0.0026
  593MOL0     C78199   3.512   2.406   1.624  0.5876 -0.0908 -0.6427
  593MOL0     C78200   3.619   2.486   1.569 -0.0281  0.7156  0.1164
  593MOL0     C78201   3.727   2.529   1.647  0.1195 -0.4521 -0.5238
  593MOL0     O78202   3.823   2.606   1.591 -0.7182 -0.0707  0.3896
  593MOL0     C78203   3.846   2.736   1.648 -0.4968 -0.3389  0.0638
  593MOL0     C78204   3.937   2.809   1.557  0.4018  0.4566  0.0653
  593MOL0     C78205   4.074   2.743   1.559 -1.1085 -0.2727 -0.0431
  593MOL0     C78206   4.177   2.755   1.672  0.5529 -0.3723 -0.1839
  593MOL0     C78207   4.240   2.885   1.684 -0.3910 -0.1355 -0.1622
  593MOL0     C78208   4.289   2.995   1.696 -0.2112 -0.1863  0.4820
  593MOL0     C78209   3.735   2.493   1.778  0.1858  0.4577  0.5427
  593MOL0     C78210   3.632   2.413   1.840  0.5961  0.2973 -0.1857
  593MOL0     H78211   3.411   2.003   2.012  0.7296  0.7137 -0.3591
  593MOL0     H78212   3.236   1.892   2.111  1.0505 -0.1099 -0.5080
  593MOL0     H78213   2.905   2.126   2.279 -0.7747  1.4791 -0.8157
  593MOL0     H78214   2.851   1.959   2.315  2.9376 -0.6878  1.4000
  593MOL0     H78215   2.787   1.917   2.078  2.2903 -0.6920  1.5205
  593MOL0     H78216   2.828   2.074   2.031  0.2122 -0.8309 -0.2453
  593MOL0     H78217   2.597   2.105   2.064  1.2515  3.6081  0.7562
  593MOL0     H78218   2.659   2.167   2.215  0.3946 -0.8984  1.7245
  593MOL0     H78219   2.542   1.889   2.170  4.3064  0.5827 -1.0081
  593MOL0     H78220   2.630   1.924   2.305  0.3536 -1.7945 -1.7954
  593MOL0     H78221   2.456   2.133   2.339 -0.2964  0.5205 -0.1282
  593MOL0     H78222   2.382   1.979   2.369 -1.0092  0.2438 -0.1501
  593MOL0     H78223   2.350   1.980   2.101  0.4093 -1.5354  1.1665
  593MOL0     H78224   2.367   2.153   2.107 -1.2711 -0.8859 -0.5386
  593MOL0     H78225   2.140   2.069   2.116  1.3679 -0.5091 -0.7218
  593MOL0     H78226   2.165   2.000   2.278 -1.3450  1.2831  0.5988
  593MOL0     H78227   2.241   2.289   2.243  0.6335 -0.5096  1.6730
  593MOL0     H78228   2.167   2.214   2.384  2.0209 -0.5387  0.6779
  593MOL0     H78229   2.061   2.455   2.108  2.2197 -0.1562  0.2706
  593MOL0     H78230   1.873   2.590   2.067 -1.9302  0.5144 -1.3538
  593MOL0     H78231   1.795   2.601   2.226 -2.7171 -0.9902  0.2297
  593MOL0     H78232   1.611   2.485   2.158  1.8015  2.4049  2.5910
  593MOL0     H78233   1.689   2.428   2.005  1.1264  0.0455  0.0837
  593MOL0     H78234   1.624   2.717   2.067 -2.3771 -0.2834  0.8888
  593MOL0     H78235   1.679   2.646   1.908 -0.7269 -2.6736  0.8169
  593MOL0     H78236   1.437   2.546   2.029  2.3296 -1.8964 -1.0824
  593MOL0     H78237   1.487   2.574   1.858  3.6925 -0.5438  0.6739
  593MOL0     H78238   1.331   2.917   1.776 -0.9959  1.4714  1.2720
  593MOL0     H78239   1.138   2.918   1.652 -1.4173  0.2522  2.2031
  593MOL0     H78240   0.666   2.943   1.710  0.2535  1.5447  0.8375
  593MOL0     H78241   0.464   2.983   1.594  1.2038 -1.1422  2.1785
  593MOL0     H78242   0.472   3.145   1.345 -1.3650  3.0028  0.9963
  593MOL0     H78243   0.312   3.101   1.418  0.3205 -1.1519  0.6573
  593MOL0     H78244   0.367   3.060   1.127  1.2598 -1.8699  3.0827
  593MOL0     H78245   0.344   3.224   1.180 -0.4947 -0.2557 -0.3783
  593MOL0     H78246   0.118   3.168   1.300  1.8390  0.9579  1.2235
  593MOL0     H78247   0.123   3.014   1.224  2.7161 -0.7178  0.2653
  593MOL0     H78248   0.106   3.298   1.098 -0.4987 -0.1654  0.6057
  593MOL0     H78249   0.174   3.175   1.001 -1.1569  1.0753 -1.0169
  593MOL0     H78250  -0.028   3.038   1.014  2.0687  0.1413 -0.5385
  593MOL0     H78251  -0.079   3.206   0.967  0.7130 -2.6272 -3.3972
  593MOL0     H78252  -0.171   3.242   1.181 -0.9063 -0.3052  0.3012
  593MOL0     H78253  -0.130   3.078   1.246  2.0014  0.0403  0.3275
  593MOL0     H78254  -0.333   3.149   1.028  2.2118  2.3132  0.2088
  593MOL0     H78255  -0.257   2.986   1.036 -1.0006 -1.6545  0.3033
  593MOL0     H78256  -0.417   3.134   1.260  1.5279  0.8597 -1.0127
  593MOL0     H78257  -0.323   2.989   1.272  3.6205  1.1372 -0.4692
  593MOL0     H78258   0.617   2.837   1.223 -2.3054 -1.0507  1.3571
  593MOL0     H78259   0.833   2.777   1.336 -1.2387 -1.9081  0.0536
  593MOL0     H78260   1.032   2.529   1.821 -2.0647  0.7043 -3.3151
  593MOL0     H78261   1.220   2.542   1.957  0.8395  0.1554  0.6920
  593MOL0     H78262   2.991   2.240   2.124  1.7023  1.2696  1.6969
  593MOL0     H78263   3.190   2.366   2.000 -1.8944 -0.3374 -0.9352
  593MOL0     H78264   3.425   2.373   1.569  0.1289 -1.0847  0.6231
  593MOL0     H78265   3.622   2.514   1.464  0.5441 -1.4773 -0.5022
  593MOL0     H78266   3.888   2.721   1.748  1.0075 -0.2081 -0.5325
  593MOL0     H78267   3.753   2.794   1.655 -0.3624 -0.3458  3.1677
  593MOL0     H78268   3.910   2.811   1.451  0.9459  1.7732 -0.0597
  593MOL0     H78269   3.945   2.910   1.599  0.8614  0.1042  0.8532
  593MOL0     H78270   4.128   2.784   1.473  1.8722 -0.3437  1.6637
  593MOL0     H78271   4.068   2.638   1.530  0.3180 -0.6562  0.9364
  593MOL0     H78272   4.127   2.747   1.769 -2.2328  0.7884 -1.4265
  593MOL0     H78273   4.258   2.683   1.658  1.2746  0.9171 -3.6357
  593MOL0     H78274   4.344   3.088   1.700 -1.0586  0.3229  0.5345
  593MOL0     H78275   3.818   2.522   1.840 -0.0605  0.3083  0.9483
  593MOL0     H78276   3.638   2.380   1.943 -2.6638 -1.0092 -0.2714
  594MOL0     O78277   2.353   5.830   9.960 -0.7283 -0.2754  0.1130
  594MOL0     C78278   2.401   5.896   9.871 -0.9830 -0.0830  0.1935
  594MOL0     O78279   2.337   5.945   9.762 -0.7528 -0.0690 -0.8114
  594MOL0     C78280   2.202   5.931   9.737 -0.0666  0.3663 -0.0989
  594MOL0     C78281   2.166   5.950   9.603 -1.0180  0.3811  0.1173
  594MOL0     C78282   2.040   5.940   9.561 -0.4224  0.5975  0.6992
  594MOL0     C78283   1.937   5.886   9.643 -0.7087 -0.0621 -0.0120
  594MOL0     O78284   1.806   5.879   9.604  0.0678  0.4219  0.0981
  594MOL0     C78285   1.769   5.900   9.467  0.0631  0.2820  0.6677
  594MOL0     C78286   1.627   5.849   9.458  1.3293  0.6412  0.0730
  594MOL0     C78287   1.567   5.842   9.318 -0.1345  0.0898 -0.4003
  594MOL0     C78288   1.437   5.759   9.312  0.1521  0.5589  0.6415
  594MOL0     C78289   1.387   5.737   9.162  0.4927 -0.2278 -0.4136
  594MOL0     C78290   1.306   5.862   9.128 -0.3576 -0.3014  0.6572
  594MOL0     C78291   1.249   5.838   8.992  0.2788 -0.2088  0.5581
  594MOL0     C78292   1.197   5.957   8.905  0.1858 -0.3700 -1.1722
  594MOL0     N78293   1.074   6.007   8.973 -0.9312  0.9389  0.9868
  594MOL0     C78294   1.083   6.122   9.051 -0.0809  0.4361 -0.1705
  594MOL0     C78295   0.957   6.173   9.052  0.4809  0.4069  0.1363
  594MOL0     C78296   0.906   6.290   9.144 -0.4696  0.4157  0.2908
  594MOL0     C78297   0.852   6.254   9.281 -0.5642 -0.6394  0.3684
  594MOL0     C78298   0.811   6.384   9.351  0.9171  0.2526 -0.5010
  594MOL0     C78299   0.804   6.365   9.503  0.3347 -1.1883 -0.5121
  594MOL0     O78300   0.734   6.473   9.576 -0.1989  0.0265  0.1616
  594MOL0     C78301   0.599   6.494   9.546 -0.2082 -0.1586 -0.0636
  594MOL0     C78302   0.554   6.620   9.585  0.3918  0.3539  0.1813
  594MOL0     C78303   0.425   6.668   9.554 -0.8803 -0.6079  0.2387
  594MOL0     C78304   0.347   6.594   9.467  0.3810  0.4598  0.1784
  594MOL0     C78305   0.203   6.629   9.433 -0.3422 -0.4154 -0.0802
  594MOL0     O78306   0.113   6.526   9.418  0.5664 -0.0162  0.3129
  594MOL0     C78307  -0.018   6.566   9.384 -0.6474  0.5191  0.3428
  594MOL0     C78308  -0.089   6.655   9.476 -0.6277  1.0339  0.6764
  594MOL0     C78309  -0.210   6.717   9.435 -0.0988  0.0516  0.3667
  594MOL0     C78310  -0.257   6.696   9.306  0.0648  0.2253  0.0277
  594MOL0     O78311  -0.380   6.752   9.277 -0.3821  0.8213  0.3886
  594MOL0     C78312  -0.435   6.734   9.150  0.2516 -0.6357 -0.0848
  594MOL0     C78313  -0.563   6.808   9.154  0.4892  0.8047 -0.2896
  594MOL0     C78314  -0.661   6.731   9.237 -0.7162 -0.0415 -0.5443
  594MOL0     C78315  -0.787   6.816   9.246 -0.2266 -0.2806  0.4086
  594MOL0     C78316  -0.900   6.737   9.308  0.3198 -0.3032  1.2345
  594MOL0     C78317  -1.030   6.821   9.302  1.1263  0.3982  0.5953
  594MOL0     C78318  -1.149   6.725   9.346 -0.3604 -1.2437 -0.5959
  594MOL0     C78319  -1.269   6.803   9.393  0.5503  0.4327  0.4853
  594MOL0    Cl78320  -1.311   6.931   9.261 -0.0698  0.2473  0.0956
  594MOL0     C78321  -0.174   6.622   9.213 -0.8202 -0.3872  0.2424
  594MOL0     C78322  -0.055   6.560   9.253  0.0242 -0.1077  0.1551
  594MOL0     O78323   0.184   6.753   9.425  0.3212 -0.0361  0.3986
  594MOL0     C78324   0.385   6.466   9.439 -0.1654  0.0498  0.4127
  594MOL0     C78325   0.508   6.414   9.477 -0.2993  0.6013 -0.5199
  594MOL0     N78326   0.876   6.093   8.971 -0.4785  0.0363  0.6142
  594MOL0     N78327   0.950   5.998   8.925  0.1988  0.0883  0.6747
  594MOL0     C78328   1.973   5.857   9.775 -0.5255 -0.1930 -0.8086
  594MOL0     C78329   2.107   5.880   9.822  0.7181  0.2872  0.4850
  594MOL0     C78330   2.539   5.942   9.879  0.6375 -0.0849 -0.8334
  594MOL0     C78331   2.614   5.919  10.002  0.3309  0.7962 -0.2566
  594MOL0     C78332   2.747   5.970  10.015 -0.0739 -0.0618 -0.6741
  594MOL0     C78333   2.807   6.046   9.913 -0.0316  0.0001 -0.4077
  594MOL0     O78334   2.935   6.089   9.927  0.1355 -0.4331  0.4453
  594MOL0     C78335   2.992   6.161   9.821 -0.1856  0.3433 -0.4985
  594MOL0     C78336   3.143   6.150   9.852  0.0236  0.5472 -0.2496
  594MOL0     C78337   3.183   6.222   9.987  0.6242  1.1929 -0.1252
  594MOL0     C78338   3.337   6.217  10.004  0.1316 -0.0851  0.6787
  594MOL0     C78339   3.404   6.316   9.912  0.1548  0.1494  0.2848
  594MOL0     C78340   3.442   6.411   9.846 -1.6137  0.9041  0.1382
  594MOL0     C78341   2.726   6.078   9.804 -0.0953 -0.8514  0.7310
  594MOL0     C78342   2.601   6.014   9.773 -1.3469 -0.3286 -0.3489
  594MOL0     H78343   2.248   5.966   9.533  2.0126 -3.3766  2.4428
  594MOL0     H78344   2.029   5.969   9.457  0.8248 -0.2210  0.3185
  594MOL0     H78345   1.830   5.840   9.398 -1.4356  0.5933 -1.0126
  594MOL0     H78346   1.774   6.005   9.438  0.4099  1.3737  4.2535
  594MOL0     H78347   1.560   5.907   9.521  0.8366 -1.6192  1.7477
  594MOL0     H78348   1.627   5.747   9.495 -0.3166  1.0147  1.1916
  594MOL0     H78349   1.630   5.788   9.247  0.1145  0.6374 -0.6110
  594MOL0     H78350   1.545   5.942   9.278 -3.4706 -0.4289 -0.1335
  594MOL0     H78351   1.453   5.657   9.347 -1.1038  0.0317 -0.2281
  594MOL0     H78352   1.350   5.796   9.367 -1.1409 -2.4430  0.8264
  594MOL0     H78353   1.319   5.652   9.157  2.4012 -1.7722 -1.7772
  594MOL0     H78354   1.474   5.720   9.098 -0.7548 -0.2776 -2.1339
  594MOL0     H78355   1.378   5.944   9.120 -2.2156  1.2028 -3.5375
  594MOL0     H78356   1.228   5.894   9.196  1.3507  2.4577  1.4840
  594MOL0     H78357   1.321   5.795   8.923 -2.7095 -0.2693 -2.8190
  594MOL0     H78358   1.171   5.764   9.012  2.5552 -3.3840 -1.4595
  594MOL0     H78359   1.171   5.921   8.804  0.1721  3.5458 -2.7270
  594MOL0     H78360   1.269   6.038   8.894 -0.3676  0.5036  1.1458
  594MOL0     H78361   1.168   6.158   9.108 -0.2941  0.1442  0.3399
  594MOL0     H78362   0.826   6.335   9.084 -1.6429  0.1654  1.5969
  594MOL0     H78363   0.993   6.357   9.151 -1.5267  1.8936 -0.1139
  594MOL0     H78364   0.929   6.202   9.338  0.8154  0.4426 -0.4250
  594MOL0     H78365   0.762   6.192   9.268 -1.9199  0.6944  2.6761
  594MOL0     H78366   0.879   6.466   9.330  1.3148  0.0953  0.1443
  594MOL0     H78367   0.709   6.408   9.320  0.3845  1.0111  1.6642
  594MOL0     H78368   0.908   6.356   9.536 -0.2430 -1.4388  1.3393
  594MOL0     H78369   0.755   6.270   9.525  3.5570 -2.4261  2.0562
  594MOL0     H78370   0.616   6.683   9.649 -0.8930  1.4910  0.3391
  594MOL0     H78371   0.400   6.762   9.602 -0.7842 -0.2959 -0.3108
  594MOL0     H78372  -0.047   6.678   9.573  1.4632  2.3079 -0.4475
  594MOL0     H78373  -0.262   6.776   9.509 -0.7150  1.8088 -1.3625
  594MOL0     H78374  -0.448   6.628   9.125 -1.3813 -0.3611 -0.4561
  594MOL0     H78375  -0.365   6.785   9.083  0.2378  1.7777  1.6187
  594MOL0     H78376  -0.601   6.805   9.052 -0.7884  2.2328  0.1143
  594MOL0     H78377  -0.546   6.914   9.172  1.9981  0.6959 -0.9142
  594MOL0     H78378  -0.616   6.724   9.336  1.3085  3.0783 -1.0920
  594MOL0     H78379  -0.691   6.639   9.187  1.7486  0.3977 -3.0706
  594MOL0     H78380  -0.758   6.908   9.297  0.6897 -1.0497  1.2957
  594MOL0     H78381  -0.820   6.852   9.148 -1.5235  1.2953  1.3658
  594MOL0     H78382  -0.870   6.711   9.409  0.3881  0.9956  1.5662
  594MOL0     H78383  -0.911   6.646   9.248  1.3342  0.5281 -0.2918
  594MOL0     H78384  -1.050   6.848   9.198  1.8706 -0.5750  0.1911
  594MOL0     H78385  -1.015   6.910   9.365  2.9702  0.0158  0.7555
  594MOL0     H78386  -1.165   6.653   9.265  1.9143 -3.1455  0.5097
  594MOL0     H78387  -1.107   6.662   9.424 -0.2704  0.7262  1.0342
  594MOL0     H78388  -1.266   6.851   9.491 -2.2576 -2.1958  2.0105
  594MOL0     H78389  -1.355   6.736   9.400  1.7438 -1.0512  1.3657
  594MOL0     H78390  -0.209   6.609   9.111 -4.5757  1.5304  1.1213
  594MOL0     H78391   0.004   6.506   9.180  2.2615  1.3568  0.7842
  594MOL0     H78392   0.322   6.402   9.378  1.0389  1.2017 -2.1946
  594MOL0     H78393   0.536   6.314   9.444 -1.9952  0.2825 -1.1245
  594MOL0     H78394   1.888   5.828   9.836 -2.8399 -1.3927 -4.2811
  594MOL0     H78395   2.128   5.846   9.923 -1.8926  1.4088  1.4914
  594MOL0     H78396   2.570   5.863  10.085 -1.4721  0.7579 -1.1713
  594MOL0     H78397   2.792   5.969  10.114  1.8891  0.3653 -1.5085
  594MOL0     H78398   2.969   6.267   9.837 -2.2465 -0.2455  0.8914
  594MOL0     H78399   2.970   6.133   9.718  0.1997  0.5453 -0.6357
  594MOL0     H78400   3.170   6.044   9.852  1.5786  0.9209 -1.3104
  594MOL0     H78401   3.200   6.184   9.765  1.7042 -0.6510  0.3453
  594MOL0     H78402   3.133   6.163  10.064 -0.9986  0.3288 -1.7624
  594MOL0     H78403   3.142   6.323   9.994 -3.2326 -0.2744  0.6572
  594MOL0     H78404   3.373   6.237  10.105 -0.6741  3.3195  0.4006
  594MOL0     H78405   3.370   6.117   9.973 -2.0152  0.1034 -2.7915
  594MOL0     H78406   3.483   6.491   9.788 -0.2464  1.3425  1.6428
  594MOL0     H78407   2.760   6.139   9.721 -0.9985  0.4439  1.2986
  594MOL0     H78408   2.560   6.035   9.675 -0.8730 -0.1974 -0.5175
  595MOL0     O78409   7.502   6.593   0.184  0.0973 -0.4872  0.5450
  595MOL0     C78410   7.514   6.502   0.261  0.4577 -0.0084 -0.1157
  595MOL0     O78411   7.433   6.480   0.374  0.6407  0.7594  0.1065
  595MOL0     C78412   7.344   6.566   0.432 -1.4037 -0.4639 -0.7300
  595MOL0     C78413   7.289   6.528   0.554  0.7894 -0.7627 -0.5365
  595MOL0     C78414   7.187   6.597   0.615  0.0587  1.1070 -0.9848
  595MOL0     C78415   7.131   6.704   0.549 -0.5756 -0.1094 -0.0021
  595MOL0     O78416   7.021   6.755   0.609  0.2335  0.0458  0.3523
  595MOL0     C78417   6.921   6.822   0.531  0.5044  0.0033 -0.2046
  595MOL0     C78418   6.796   6.845   0.617  0.3235 -0.2305 -0.2251
  595MOL0     C78419   6.722   6.713   0.639  1.0561  0.2511 -0.1670
  595MOL0     C78420   6.584   6.739   0.720  0.1436  0.1482  0.1264
  595MOL0     C78421   6.504   6.614   0.720  0.6432 -0.3112  0.1742
  595MOL0     C78422   6.485   6.563   0.570  0.1068 -0.1214 -0.3514
  595MOL0     C78423   6.369   6.468   0.551  0.0331  0.0205  0.1689
  595MOL0     C78424   6.380   6.405   0.408 -0.9049 -0.0365  1.1017
  595MOL0     N78425   6.261   6.335   0.369  0.1996 -0.2205  0.6704
  595MOL0     C78426   6.134   6.386   0.364 -0.4109 -0.3816  0.8114
  595MOL0     C78427   6.054   6.271   0.350 -0.3217 -0.2466 -0.8585
  595MOL0     C78428   5.906   6.262   0.353 -0.3137  0.3385 -0.0546
  595MOL0     C78429   5.855   6.136   0.281  0.2402  0.3003  1.0632
  595MOL0     C78430   5.708   6.107   0.326  0.1669 -0.4024  0.4488
  595MOL0     C78431   5.650   5.994   0.247 -0.9397 -0.6840  0.1071
  595MOL0     O78432   5.523   5.965   0.301 -0.4310  0.3497 -0.3451
  595MOL0     C78433   5.447   5.866   0.244  0.6134  0.0939  0.1059
  595MOL0     C78434   5.493   5.772   0.156  0.1813 -0.4894 -0.4800
  595MOL0     C78435   5.400   5.681   0.098 -1.0558  0.0753 -0.1609
  595MOL0     C78436   5.266   5.693   0.112 -1.1429  0.1935 -0.6709
  595MOL0     C78437   5.177   5.606   0.042  0.3011 -0.3414  0.3093
  595MOL0     O78438   5.062   5.566   0.110 -0.4524 -0.3802 -0.3149
  595MOL0     C78439   5.023   5.446   0.078 -0.8197  0.4701  0.3857
  595MOL0     C78440   4.889   5.423   0.052 -0.6235 -0.0407  0.6446
  595MOL0     C78441   4.835   5.293   0.027 -0.4511  0.0383 -0.0280
  595MOL0     C78442   4.929   5.185   0.035  0.3011  0.3426 -0.4079
  595MOL0     O78443   4.868   5.063   0.012  0.1382  0.9090 -0.0929
  595MOL0     C78444   4.926   4.970  -0.081 -0.2419  0.3660  0.1209
  595MOL0     C78445   4.815   4.876  -0.140 -0.3821  0.6172  0.1062
  595MOL0     C78446   4.876   4.749  -0.209 -0.3501 -0.4599  0.5433
  595MOL0     C78447   4.951   4.783  -0.343 -0.5714 -0.6895  0.5650
  595MOL0     C78448   5.034   4.677  -0.403 -0.6834 -0.6460 -0.0868
  595MOL0     C78449   4.943   4.559  -0.438  0.0126  0.2246  0.5021
  595MOL0     C78450   4.842   4.595  -0.546 -0.5384 -0.4418  0.2055
  595MOL0     C78451   4.784   4.474  -0.622  0.3115 -0.2261  0.0643
  595MOL0    Cl78452   4.704   4.353  -0.510  0.1783 -0.1866 -0.0422
  595MOL0     C78453   5.065   5.205   0.060 -0.4405 -0.1391  0.3020
  595MOL0     C78454   5.113   5.333   0.078 -0.1517 -0.3169  0.5715
  595MOL0     O78455   5.216   5.556  -0.064 -0.4556  0.6837 -0.0075
  595MOL0     C78456   5.229   5.786   0.212 -0.5242  0.1236 -0.1624
  595MOL0     C78457   5.312   5.876   0.278 -1.1283 -0.3873 -0.2797
  595MOL0     N78458   6.138   6.162   0.334  0.7974 -0.3743  0.3305
  595MOL0     N78459   6.257   6.202   0.356 -0.2697 -0.5142  1.1098
  595MOL0     C78460   7.182   6.753   0.427  0.5951 -0.1844  0.2936
  595MOL0     C78461   7.288   6.677   0.369 -0.4866  0.2033  0.2339
  595MOL0     C78462   7.615   6.399   0.242 -0.2998 -0.3143  0.1356
  595MOL0     C78463   7.639   6.309   0.342 -0.0993 -0.4290 -0.0179
  595MOL0     C78464   7.742   6.215   0.330  0.1688 -0.2511 -0.9590
  595MOL0     C78465   7.832   6.225   0.222  1.6717 -0.2857  0.0471
  595MOL0     O78466   7.934   6.134   0.223 -0.8804  0.0388  0.3796
  595MOL0     C78467   8.009   6.105   0.100  0.4769 -0.3920 -0.5708
  595MOL0     C78468   8.069   5.962   0.096 -0.3963  0.7111 -0.3735
  595MOL0     C78469   8.166   5.937  -0.019 -0.4683 -0.3986 -0.1151
  595MOL0     C78470   8.246   5.811  -0.016 -0.8402  0.5135  0.4442
  595MOL0     C78471   8.327   5.815  -0.135 -1.1429  0.1362  0.3235
  595MOL0     C78472   8.409   5.782  -0.220  1.0708 -0.9412 -0.1516
  595MOL0     C78473   7.822   6.327   0.128 -0.1439  0.3315 -0.0139
  595MOL0     C78474   7.715   6.413   0.139 -0.3427  0.3102  0.0950
  595MOL0     H78475   7.322   6.434   0.597  2.7230  0.1345  0.0529
  595MOL0     H78476   7.161   6.576   0.719  3.6840 -0.4691 -0.2262
  595MOL0     H78477   6.898   6.762   0.443 -1.0434 -1.3820  1.0811
  595MOL0     H78478   6.962   6.920   0.504  1.1588 -0.4336 -0.8485
  595MOL0     H78479   6.736   6.925   0.573 -2.4645 -2.3828 -0.6645
  595MOL0     H78480   6.819   6.882   0.717 -1.4732  0.9386 -0.2083
  595MOL0     H78481   6.789   6.652   0.700  1.7115  2.5074  1.5021
  595MOL0     H78482   6.714   6.664   0.541 -1.4594 -0.8351  0.4808
  595MOL0     H78483   6.601   6.769   0.824 -2.2773 -0.2994  0.7082
  595MOL0     H78484   6.525   6.815   0.667  0.4844 -0.7724 -1.6665
  595MOL0     H78485   6.407   6.623   0.769  0.8746  2.5963  0.2906
  595MOL0     H78486   6.566   6.534   0.762  2.3865  0.0895 -1.5070
  595MOL0     H78487   6.578   6.516   0.536  0.2363  0.3559 -0.6614
  595MOL0     H78488   6.472   6.640   0.494 -0.6457 -1.3655 -1.5242
  595MOL0     H78489   6.380   6.377   0.611 -3.5736 -1.9022 -1.7077
  595MOL0     H78490   6.276   6.513   0.587  0.7564  1.1090  0.7515
  595MOL0     H78491   6.474   6.352   0.386 -0.2325  1.3988  0.4212
  595MOL0     H78492   6.392   6.495   0.347  1.6356  0.2232  1.8547
  595MOL0     H78493   6.115   6.493   0.373  0.8324  0.0213 -0.8366
  595MOL0     H78494   5.863   6.355   0.315 -2.2934  0.0746  1.3888
  595MOL0     H78495   5.885   6.258   0.460  0.0204  1.5595  0.0662
  595MOL0     H78496   5.915   6.048   0.306  0.9526 -0.0511 -1.6561
  595MOL0     H78497   5.852   6.151   0.173 -1.9620  5.3135  1.4886
  595MOL0     H78498   5.725   6.075   0.430  2.6639 -0.7515 -0.0133
  595MOL0     H78499   5.644   6.194   0.310  0.0634 -1.0934 -3.9975
  595MOL0     H78500   5.714   5.906   0.236 -1.2125 -0.8592 -0.1163
  595MOL0     H78501   5.636   6.025   0.143  2.3863 -0.0196 -0.2493
  595MOL0     H78502   5.598   5.755   0.134  0.6477  0.2445  1.0564
  595MOL0     H78503   5.452   5.616   0.029  2.2523  1.8485  0.4549
  595MOL0     H78504   4.828   5.513   0.049  3.0040  2.6406  0.9704
  595MOL0     H78505   4.731   5.278   0.002 -0.5783  0.7252  0.0551
  595MOL0     H78506   4.996   4.910  -0.023 -2.4313 -2.4577  0.0818
  595MOL0     H78507   4.983   5.017  -0.161 -1.0302 -0.6700 -1.0823
  595MOL0     H78508   4.742   4.930  -0.201 -2.8993 -1.7812  0.8132
  595MOL0     H78509   4.752   4.829  -0.065 -1.0084 -0.5660 -1.1111
  595MOL0     H78510   4.793   4.681  -0.229 -1.0446  0.6665 -0.6348
  595MOL0     H78511   4.945   4.697  -0.143  1.8589  0.9864 -0.5032
  595MOL0     H78512   4.881   4.824  -0.416  1.4264 -1.2058 -1.7911
  595MOL0     H78513   5.024   4.862  -0.324  1.4953 -2.3682  0.0262
  595MOL0     H78514   5.110   4.660  -0.327 -0.4686  2.7085  0.6075
  595MOL0     H78515   5.095   4.717  -0.484  2.4125 -0.9691  1.9361
  595MOL0     H78516   4.890   4.528  -0.347 -0.6915  0.7371  0.2727
  595MOL0     H78517   5.001   4.474  -0.477 -1.3430  1.3625 -4.7307
  595MOL0     H78518   4.766   4.647  -0.487 -0.4239 -1.6283  1.4587
  595MOL0     H78519   4.887   4.667  -0.615 -0.9367  1.8960  2.2615
  595MOL0     H78520   4.875   4.430  -0.664 -0.5997 -2.5943  0.4191
  595MOL0     H78521   4.704   4.502  -0.692  0.9604  2.5730  0.3529
  595MOL0     H78522   5.144   5.134   0.042 -0.1881  0.8718 -3.5835
  595MOL0     H78523   5.218   5.351   0.099  0.5957 -1.2452 -2.0454
  595MOL0     H78524   5.125   5.785   0.244 -0.0366 -0.6556  1.5363
  595MOL0     H78525   5.277   5.937   0.361 -2.5178 -1.7627  0.1806
  595MOL0     H78526   7.138   6.829   0.363  1.7020  0.1600 -0.0906
  595MOL0     H78527   7.333   6.708   0.275  1.6814 -1.9007  0.4633
  595MOL0     H78528   7.578   6.314   0.431  1.7128 -1.9333  1.3795
  595MOL0     H78529   7.754   6.143   0.410  2.2485 -0.4317 -1.3809
  595MOL0     H78530   8.097   6.170   0.097  0.7226 -0.6582  0.5236
  595MOL0     H78531   7.954   6.138   0.011  0.4044 -0.8206 -0.6831
  595MOL0     H78532   8.117   5.958   0.194 -1.7252  3.9485  0.5371
  595MOL0     H78533   7.994   5.882   0.087  2.5988 -2.6744  1.9190
  595MOL0     H78534   8.244   6.013  -0.027 -1.8227  0.8351 -3.0474
  595MOL0     H78535   8.100   5.937  -0.106 -2.0757  0.9873  1.0537
  595MOL0     H78536   8.295   5.807   0.082 -3.9888 -0.0760  2.1418
  595MOL0     H78537   8.179   5.725  -0.019  1.0784 -1.1001  1.5726
  595MOL0     H78538   8.464   5.759  -0.309 -1.5077  2.7304 -3.0112
  595MOL0     H78539   7.905   6.344   0.061 -1.3540 -1.4847 -2.0742
  595MOL0     H78540   7.709   6.501   0.075 -0.5491 -1.4465 -2.4180
  596MOL0     O78541   8.483   9.989   4.988 -0.4796  0.3112  0.3308
  596MOL0     C78542   8.485   9.968   4.870  0.3996 -0.3222 -0.1571
  596MOL0     O78543   8.378   9.980   4.786 -0.3753  0.3365  0.4332
  596MOL0     C78544   8.254  10.000   4.843  0.2772  0.1816  0.1435
  596MOL0     C78545   8.202   9.942   4.968  0.8189 -0.0483  0.0200
  596MOL0     C78546   8.070   9.960   5.002  0.3645 -0.2118  0.2655
  596MOL0     C78547   7.985  10.046   4.933 -0.0749  0.2078  0.8752
  596MOL0     O78548   7.866  10.071   4.988 -0.0234  0.2239 -0.5964
  596MOL0     C78549   7.781   9.958   5.011 -0.3637  0.7061  0.4988
  596MOL0     C78550   7.643   9.989   5.068 -0.2743 -0.1992  0.3236
  596MOL0     C78551   7.658  10.058   5.198  0.5501  0.2338  0.7414
  596MOL0     C78552   7.518  10.099   5.257 -0.6029  0.6491 -0.6468
  596MOL0     C78553   7.525  10.111   5.412 -0.3691 -0.0866 -0.1462
  596MOL0     C78554   7.578  10.251   5.468  0.3690 -0.3669 -0.7417
  596MOL0     C78555   7.502  10.379   5.430 -0.6562  0.5555  0.8593
  596MOL0     C78556   7.598  10.499   5.428  0.9391 -0.5860  0.8411
  596MOL0     N78557   7.652  10.521   5.285 -0.4008  0.3669 -0.3748
  596MOL0     C78558   7.778  10.481   5.236  0.5291 -1.2030 -0.1906
  596MOL0     C78559   7.779  10.512   5.112 -0.2205 -0.5537  0.2137
  596MOL0     C78560   7.886  10.480   5.011  1.0907  0.3178 -0.6016
  596MOL0     C78561   7.960  10.602   4.963 -0.1701  0.1211  0.8025
  596MOL0     C78562   7.923  10.650   4.818 -0.4885  0.7786  0.5901
  596MOL0     C78563   7.937  10.550   4.698  0.1211  0.0634  0.6886
  596MOL0     O78564   8.054  10.464   4.702 -0.1742  0.7193 -0.0015
  596MOL0     C78565   8.100  10.421   4.576 -0.5789 -0.1252 -0.0288
  596MOL0     C78566   8.019  10.362   4.487  0.3687 -0.7142 -0.0947
  596MOL0     C78567   8.065  10.291   4.376  0.3308 -0.8211 -0.3904
  596MOL0     C78568   8.204  10.282   4.343  0.0394  0.6037 -0.0973
  596MOL0     C78569   8.249  10.219   4.220  0.3113  0.1241  0.0778
  596MOL0     O78570   8.378  10.216   4.208  0.3600  0.6488 -1.5063
  596MOL0     C78571   8.439  10.127   4.126 -0.0068  0.1998  0.1393
  596MOL0     C78572   8.397  10.077   4.000 -0.3009 -0.4669 -0.6031
  596MOL0     C78573   8.473   9.982   3.935 -0.1951  0.5261  0.2327
  596MOL0     C78574   8.602   9.945   3.977  0.2135  0.0544 -0.8462
  596MOL0     O78575   8.688   9.869   3.895  0.6054 -0.4669 -0.1784
  596MOL0     C78576   8.804   9.934   3.844  0.1821 -0.4480 -0.3876
  596MOL0     C78577   8.777   9.946   3.694 -0.0749  0.4447  0.6105
  596MOL0     C78578   8.863  10.026   3.609 -0.2446  1.1345  0.2022
  596MOL0     C78579   8.824  10.171   3.615  0.4811 -0.0473  0.2173
  596MOL0     C78580   8.931  10.259   3.538  1.0607 -0.4570 -0.2436
  596MOL0     C78581   8.907  10.245   3.386 -0.5168 -0.3888 -0.1366
  596MOL0     C78582   9.015  10.331   3.313  0.0439  0.3543  0.2634
  596MOL0     C78583   9.157  10.260   3.308 -0.1206  0.3948 -0.2622
  596MOL0    Cl78584   9.273  10.363   3.200 -0.0334 -0.2883 -0.3874
  596MOL0     C78585   8.647  10.004   4.097  0.0559  0.5915  1.6500
  596MOL0     C78586   8.572  10.095   4.166  0.2443  0.8174 -0.8609
  596MOL0     O78587   8.162  10.160   4.151  0.0495  0.3272  0.3697
  596MOL0     C78588   8.291  10.328   4.443 -0.5068 -0.2206 -0.4672
  596MOL0     C78589   8.243  10.403   4.552  0.8682 -0.0849 -0.3384
  596MOL0     N78590   7.655  10.568   5.076  0.5727 -0.2158  0.0318
  596MOL0     N78591   7.577  10.572   5.188  0.7380 -0.2752  1.2638
  596MOL0     C78592   8.039  10.118   4.822 -0.1362 -0.9223 -1.1302
  596MOL0     C78593   8.165  10.087   4.773 -0.4013  0.0282 -0.0918
  596MOL0     C78594   8.610   9.939   4.805 -0.3060 -0.3248 -1.2395
  596MOL0     C78595   8.621   9.842   4.705  1.5178  0.0213 -0.0276
  596MOL0     C78596   8.747   9.800   4.654  1.6176 -0.0604  0.0754
  596MOL0     C78597   8.865   9.847   4.711 -0.5291  0.4461 -0.2427
  596MOL0     O78598   8.981   9.792   4.665 -0.4818 -0.1839 -0.1770
  596MOL0     C78599   9.111   9.843   4.714 -0.2987 -0.2773  0.1986
  596MOL0     C78600   9.212   9.723   4.693  0.7590  0.0965 -0.2792
  596MOL0     C78601   9.282   9.708   4.557  0.5917  0.4414 -0.8770
  596MOL0     C78602   9.201   9.706   4.435 -0.1276 -1.0220 -0.6988
  596MOL0     C78603   9.114   9.595   4.435  0.3735  0.4473 -0.3158
  596MOL0     C78604   9.033   9.500   4.417  0.1336 -0.3320  0.3491
  596MOL0     C78605   8.850   9.952   4.805 -0.8618 -0.1000  0.1497
  596MOL0     C78606   8.727   9.989   4.855  0.8000 -0.2355 -0.5420
  596MOL0     H78607   8.266   9.889   5.038  0.7029 -2.7109 -1.7357
  596MOL0     H78608   8.032   9.915   5.093 -0.1579 -4.0328 -1.6475
  596MOL0     H78609   7.836   9.890   5.077 -0.1140  1.4425  1.0617
  596MOL0     H78610   7.770   9.914   4.911  1.0891  2.1203 -0.3143
  596MOL0     H78611   7.586   9.897   5.083  2.3903 -2.1543 -0.8394
  596MOL0     H78612   7.592  10.051   4.994  0.8330  1.4393  0.8713
  596MOL0     H78613   7.714  10.148   5.174 -1.4652  0.9127 -1.8394
  596MOL0     H78614   7.719   9.990   5.259 -1.0647 -0.4918  1.6092
  596MOL0     H78615   7.492  10.197   5.215  0.3042  1.2816  0.2130
  596MOL0     H78616   7.447  10.022   5.227 -0.1097  0.1367 -0.5122
  596MOL0     H78617   7.577  10.024   5.451  0.6740 -0.4715 -2.2339
  596MOL0     H78618   7.419  10.097   5.437 -0.1275  1.6917  2.2111
  596MOL0     H78619   7.680  10.268   5.431  1.2551 -1.0889  1.2344
  596MOL0     H78620   7.592  10.245   5.576 -1.4475  1.0595 -0.3743
  596MOL0     H78621   7.461  10.370   5.329  0.5324 -1.3373  0.5059
  596MOL0     H78622   7.417  10.389   5.498 -0.8776 -0.8914  0.8130
  596MOL0     H78623   7.674  10.478   5.503  2.8086  0.0898 -0.7847
  596MOL0     H78624   7.545  10.587   5.466 -0.5595 -1.9091  1.9946
  596MOL0     H78625   7.852  10.427   5.293  0.8823 -1.5325 -0.9551
  596MOL0     H78626   7.832  10.430   4.930 -0.7796 -0.6236  1.1360
  596MOL0     H78627   7.956  10.406   5.051 -0.2563 -1.4627 -1.4040
  596MOL0     H78628   8.067  10.585   4.977 -0.5840 -0.8703  3.3018
  596MOL0     H78629   7.931  10.685   5.028 -2.4783  2.2216 -2.5856
  596MOL0     H78630   7.817  10.675   4.829 -1.0305 -2.2139  4.0599
  596MOL0     H78631   7.981  10.738   4.792  1.9082 -1.0077 -0.5560
  596MOL0     H78632   7.949  10.614   4.610 -3.4735  0.2815  0.2189
  596MOL0     H78633   7.844  10.496   4.679 -1.1510  1.7700  1.7719
  596MOL0     H78634   7.913  10.358   4.509  0.3068 -2.6333 -0.6024
  596MOL0     H78635   7.996  10.239   4.309 -0.4258  0.1644 -0.3973
  596MOL0     H78636   8.302  10.114   3.963 -1.2104 -2.4843 -0.3945
  596MOL0     H78637   8.444   9.937   3.841  1.8173 -1.8366  0.6502
  596MOL0     H78638   8.894   9.872   3.851 -0.1956 -0.7805  2.9826
  596MOL0     H78639   8.817  10.026   3.901 -3.4008  0.3676 -0.6209
  596MOL0     H78640   8.673   9.980   3.695 -1.2031 -2.6846  1.8049
  596MOL0     H78641   8.770   9.853   3.637 -2.7112  1.8982 -1.7753
  596MOL0     H78642   8.855   9.995   3.504  2.3249  0.4456  0.1400
  596MOL0     H78643   8.969  10.016   3.636 -0.3811 -1.2716  0.0633
  596MOL0     H78644   8.727  10.179   3.564  0.5315 -1.4153 -0.1425
  596MOL0     H78645   8.822  10.209   3.717  0.5560 -0.1150  0.2433
  596MOL0     H78646   9.029  10.222   3.571 -0.1672 -3.8556  0.0207
  596MOL0     H78647   8.920  10.363   3.568  2.8669 -0.3691  0.2209
  596MOL0     H78648   8.807  10.279   3.357 -0.4999 -0.5801 -0.4237
  596MOL0     H78649   8.909  10.139   3.360  0.8893 -0.8707  1.7126
  596MOL0     H78650   8.979  10.332   3.210 -0.8471  0.8921  0.5695
  596MOL0     H78651   9.028  10.434   3.347  1.5307  0.1183  0.5016
  596MOL0     H78652   9.138  10.162   3.264 -1.6044  0.8207 -0.6324
  596MOL0     H78653   9.205  10.261   3.407  1.0985  1.8167 -0.8184
  596MOL0     H78654   8.748   9.976   4.125  0.9541  2.1137  0.0591
  596MOL0     H78655   8.608  10.127   4.263  2.2444 -0.6482 -1.0453
  596MOL0     H78656   8.399  10.318   4.435 -0.6352 -0.8671 -1.5643
  596MOL0     H78657   8.319  10.431   4.624 -0.3490 -0.0544  0.9951
  596MOL0     H78658   7.980  10.197   4.777  0.0964 -0.1277 -0.0726
  596MOL0     H78659   8.186  10.131   4.677 -2.0387 -2.9508 -1.9692
  596MOL0     H78660   8.532   9.785   4.678  0.9777  0.7242  0.2258
  596MOL0     H78661   8.743   9.721   4.580  0.8819  0.9318 -0.9843
  596MOL0     H78662   9.111   9.868   4.820 -0.9725 -1.1838  0.4159
  596MOL0     H78663   9.132   9.931   4.652 -3.4237  0.0277 -0.6022
  596MOL0     H78664   9.301   9.743   4.752  2.0677 -0.4828 -1.9719
  596MOL0     H78665   9.160   9.629   4.715 -1.8388  1.0981 -1.7053
  596MOL0     H78666   9.342   9.616   4.553  1.5299  0.9598  0.5682
  596MOL0     H78667   9.350   9.793   4.564 -0.9078  1.6073  4.8589
  596MOL0     H78668   9.137   9.794   4.436  3.9855  2.2943 -1.4022
  596MOL0     H78669   9.259   9.718   4.343  0.8465 -1.3560 -0.1440
  596MOL0     H78670   8.966   9.417   4.407 -0.5644 -0.0369  2.2625
  596MOL0     H78671   8.942   9.991   4.847  0.2835 -0.1170 -2.2425
  596MOL0     H78672   8.724  10.059   4.938  1.1194 -1.8982  0.9446
  597MOL0     O78673   4.986   2.079  10.993  0.1294 -0.7219  0.9318
  597MOL0     C78674   5.041   2.135  11.088  0.2761 -0.5011 -0.1900
  597MOL0     O78675   4.977   2.173  11.203  0.0187 -0.5335 -0.3096
  597MOL0     C78676   4.850   2.118  11.222 -0.4092  0.1915  0.5441
  597MOL0     C78677   4.740   2.150  11.135  1.1189  0.3494  0.3547
  597MOL0     C78678   4.609   2.095  11.162  0.1996 -0.5889  0.3159
  597MOL0     C78679   4.588   2.014  11.276  0.9058  0.6033  0.5050
  597MOL0     O78680   4.463   1.965  11.319  0.5597  0.2133  0.4141
  597MOL0     C78681   4.359   2.062  11.332 -0.0283 -0.1690 -0.3348
  597MOL0     C78682   4.260   2.030  11.227  1.0716  0.3258  0.7836
  597MOL0     C78683   4.149   2.130  11.228  0.4516  0.4087  0.9380
  597MOL0     C78684   4.047   2.106  11.337  0.9852 -0.1649 -0.4177
  597MOL0     C78685   3.902   2.157  11.296 -1.3391  1.0609 -0.6217
  597MOL0     C78686   3.795   2.129  11.399 -0.1033  0.3072  0.3203
  597MOL0     C78687   3.684   2.239  11.389  0.0060 -0.2838  0.1456
  597MOL0     C78688   3.605   2.233  11.263 -0.5213  0.2531  0.1119
  597MOL0     N78689   3.466   2.175  11.267 -0.1476 -0.7604  0.1381
  597MOL0     C78690   3.355   2.214  11.191 -0.3581 -0.6849 -0.8920
  597MOL0     C78691   3.261   2.118  11.203 -1.0869 -0.4354 -0.7706
  597MOL0     C78692   3.125   2.116  11.134 -0.0263 -0.1351 -0.6272
  597MOL0     C78693   3.006   2.114  11.230 -0.4060  0.1972  0.5661
  597MOL0     C78694   2.998   1.970  11.296 -0.0672  0.0770  0.0105
  597MOL0     C78695   2.855   1.924  11.349 -0.1281  0.9881 -0.0848
  597MOL0     O78696   2.801   2.021  11.434 -0.8716  0.4867 -0.0376
  597MOL0     C78697   2.672   2.023  11.461 -0.8974  0.1419 -0.7124
  597MOL0     C78698   2.620   2.151  11.501 -0.0736 -0.0464  0.2441
  597MOL0     C78699   2.487   2.172  11.526 -1.1721 -0.2739  0.7369
  597MOL0     C78700   2.400   2.057  11.523 -0.0991 -1.3568  0.1571
  597MOL0     C78701   2.250   2.080  11.539  0.5621  0.0133  0.1499
  597MOL0     O78702   2.165   1.987  11.489  0.3592  0.5972  0.6481
  597MOL0     C78703   2.031   1.992  11.515  0.5336 -0.2885  0.0511
  597MOL0     C78704   1.980   2.043  11.634 -0.4155  0.3748  0.6080
  597MOL0     C78705   1.844   2.068  11.665  0.2889 -0.8371 -0.0108
  597MOL0     C78706   1.750   2.045  11.566 -0.6501  0.5875 -0.4393
  597MOL0     O78707   1.622   2.096  11.589  0.0770  0.7038 -0.3651
  597MOL0     C78708   1.525   2.077  11.487 -0.0595 -0.4289  0.4308
  597MOL0     C78709   1.391   2.151  11.513 -0.0791  0.0007  0.9008
  597MOL0     C78710   1.271   2.102  11.441 -0.3400  0.2742 -1.0895
  597MOL0     C78711   1.137   2.156  11.506 -0.1510 -0.4944  0.0623
  597MOL0     C78712   1.019   2.097  11.437  1.4153 -0.3216 -0.1325
  597MOL0     C78713   0.895   2.180  11.469  0.2271  0.1397  0.1483
  597MOL0     C78714   0.772   2.090  11.442  1.1111 -0.7313  0.3944
  597MOL0     C78715   0.642   2.160  11.503  0.6386 -0.6205 -0.2232
  597MOL0    Cl78716   0.484   2.088  11.467 -0.0441  0.1199 -0.1863
  597MOL0     C78717   1.797   1.984  11.447  0.5469 -1.0833 -0.7017
  597MOL0     C78718   1.934   1.958  11.420  0.0165  0.6562  0.1026
  597MOL0     O78719   2.216   2.189  11.586  0.5536 -0.5188 -1.1204
  597MOL0     C78720   2.452   1.924  11.502  0.0006  0.4613 -0.3292
  597MOL0     C78721   2.590   1.912  11.474 -0.1177 -0.5861  0.0965
  597MOL0     N78722   3.321   2.016  11.282 -0.7551  0.2599  0.0553
  597MOL0     N78723   3.449   2.052  11.310 -0.3246  0.5564 -0.7875
  597MOL0     C78724   4.687   1.989  11.362 -0.9428  0.1278  0.0885
  597MOL0     C78725   4.822   2.039  11.336  0.7936  0.6612 -0.1451
  597MOL0     C78726   5.190   2.153  11.092 -0.3349 -0.4595  0.2693
  597MOL0     C78727   5.258   2.217  11.190 -0.4040  0.3518  0.3770
  597MOL0     C78728   5.393   2.250  11.166 -0.2454  0.3985  0.3262
  597MOL0     C78729   5.461   2.223  11.049  0.6100  0.5687 -0.3436
  597MOL0     O78730   5.591   2.260  11.037 -0.0332 -0.4708  0.0224
  597MOL0     C78731   5.667   2.248  10.918  0.3608  0.9531 -1.0846
  597MOL0     C78732   5.806   2.295  10.956  0.4778  0.5452  0.3310
  597MOL0     C78733   5.906   2.286  10.844  0.5175 -0.2780  0.6009
  597MOL0     C78734   6.045   2.261  10.888  0.1162  0.1321  0.2730
  597MOL0     C78735   6.136   2.274  10.770  0.3436  0.5477 -0.2172
  597MOL0     C78736   6.207   2.295  10.678  0.0670 -0.4821  0.3284
  597MOL0     C78737   5.395   2.148  10.953  0.0774 -1.0112 -0.4755
  597MOL0     C78738   5.259   2.115  10.976 -0.7753 -0.2037 -0.0406
  597MOL0     H78739   4.755   2.204  11.042  1.6133 -1.4286 -0.6483
  597MOL0     H78740   4.525   2.116  11.097  0.4592 -2.5140 -0.7198
  597MOL0     H78741   4.398   2.164  11.320  3.7653 -1.5473 -1.3264
  597MOL0     H78742   4.308   2.047  11.427  0.4399 -2.5775 -0.4098
  597MOL0     H78743   4.222   1.928  11.242  1.4730 -0.0230 -0.4349
  597MOL0     H78744   4.317   2.026  11.134  2.5839 -0.3246  1.7058
  597MOL0     H78745   4.105   2.139  11.129  2.5154 -2.6031 -0.3914
  597MOL0     H78746   4.202   2.224  11.242 -0.8907  1.1365  1.3417
  597MOL0     H78747   4.019   2.002  11.352 -4.6895  1.3708  2.3279
  597MOL0     H78748   4.088   2.144  11.430  0.9556 -2.7128  0.6993
  597MOL0     H78749   3.876   2.122  11.196  1.5862 -0.8048 -0.8289
  597MOL0     H78750   3.916   2.266  11.293  1.0179  0.8843  1.3085
  597MOL0     H78751   3.839   2.129  11.499  3.5204 -0.4111 -1.1150
  597MOL0     H78752   3.767   2.024  11.400  1.5476 -0.1662 -0.2069
  597MOL0     H78753   3.615   2.219  11.471 -0.4476  0.0039 -0.1667
  597MOL0     H78754   3.725   2.340  11.394 -2.8286  1.1053 -2.1640
  597MOL0     H78755   3.662   2.185  11.182 -0.8245 -1.7755  1.0502
  597MOL0     H78756   3.585   2.336  11.234 -1.1845  0.1087  0.0448
  597MOL0     H78757   3.330   2.304  11.137 -3.2187 -0.1650  1.0819
  597MOL0     H78758   3.128   2.030  11.066 -0.7164  0.4862 -1.4785
  597MOL0     H78759   3.121   2.204  11.069  0.7562 -0.1272 -0.6715
  597MOL0     H78760   2.924   2.112  11.157  1.1784  1.4955 -1.3697
  597MOL0     H78761   3.010   2.204  11.292  1.8591 -0.9386  2.2129
  597MOL0     H78762   3.036   1.896  11.225 -0.6649  0.3001 -0.5607
  597MOL0     H78763   3.069   1.979  11.378 -1.6723 -3.3909  1.9958
  597MOL0     H78764   2.871   1.826  11.394 -3.0240 -0.1430 -1.2730
  597MOL0     H78765   2.797   1.919  11.256  2.1599  0.9975 -1.6086
  597MOL0     H78766   2.688   2.234  11.491 -0.2327 -0.0920 -1.3647
  597MOL0     H78767   2.450   2.274  11.536  0.7335  0.4951  0.4282
  597MOL0     H78768   2.051   2.062  11.714  3.0948  1.8336 -2.5058
  597MOL0     H78769   1.806   2.137  11.740 -0.7418 -2.2498  0.8039
  597MOL0     H78770   1.489   1.974  11.475 -1.8872  0.0564  1.3533
  597MOL0     H78771   1.561   2.109  11.388 -1.1996 -0.8681 -0.1514
  597MOL0     H78772   1.400   2.259  11.497 -1.4664 -0.0131 -0.1306
  597MOL0     H78773   1.363   2.137  11.618  0.3149  2.2670  1.3743
  597MOL0     H78774   1.261   1.994  11.434  4.5370 -0.5156  0.0290
  597MOL0     H78775   1.281   2.138  11.338  0.6812  3.5533  0.0171
  597MOL0     H78776   1.133   2.160  11.616  5.9633 -0.4640  0.6531
  597MOL0     H78777   1.139   2.262  11.478 -0.9526 -0.7948 -1.1902
  597MOL0     H78778   1.005   1.996  11.477 -3.0153 -0.2190 -0.9329
  597MOL0     H78779   1.023   2.093  11.328 -0.0120 -0.5935 -0.1927
  597MOL0     H78780   0.890   2.274  11.412 -3.9012 -0.0990 -0.1768
  597MOL0     H78781   0.892   2.209  11.574 -0.7171  1.3654 -0.1878
  597MOL0     H78782   0.763   2.094  11.333  0.2280  0.7026  0.4871
  597MOL0     H78783   0.781   1.985  11.471 -3.8175 -0.4221  4.4211
  597MOL0     H78784   0.645   2.268  11.486  0.5971 -0.6503 -0.4230
  597MOL0     H78785   0.651   2.146  11.611 -0.3927  3.9307  0.6581
  597MOL0     H78786   1.724   1.944  11.376  1.3506 -1.9871 -1.0296
  597MOL0     H78787   1.976   1.913  11.330 -2.0527 -3.8310  1.1032
  597MOL0     H78788   2.395   1.833  11.520  0.9205 -0.5908 -2.3187
  597MOL0     H78789   2.626   1.810  11.472  4.2599  0.6950  1.4604
  597MOL0     H78790   4.669   1.929  11.451 -0.0699 -4.8392 -2.7075
  597MOL0     H78791   4.901   1.998  11.399 -1.8174 -0.5504  2.6038
  597MOL0     H78792   5.203   2.242  11.280 -2.7073 -1.5220 -0.4064
  597MOL0     H78793   5.451   2.304  11.239  0.2416 -2.2618  2.0377
  597MOL0     H78794   5.625   2.312  10.839  1.3314  1.4404 -1.2189
  597MOL0     H78795   5.665   2.142  10.893 -0.4763  0.5639  0.5437
  597MOL0     H78796   5.787   2.397  10.988  3.7271  1.6212 -0.7834
  597MOL0     H78797   5.820   2.227  11.041 -0.6656 -1.9068 -1.2968
  597MOL0     H78798   5.895   2.372  10.777 -1.5122 -1.9538 -1.3913
  597MOL0     H78799   5.870   2.196  10.793  1.7658 -0.4320 -0.0275
  597MOL0     H78800   6.081   2.332  10.964 -1.1296 -0.3298  1.3282
  597MOL0     H78801   6.059   2.162  10.931  0.7604 -0.5667 -1.4511
  597MOL0     H78802   6.278   2.325  10.605  2.1527 -2.4001  1.4637
  597MOL0     H78803   5.449   2.116  10.864  1.3233 -4.2388  1.2604
  597MOL0     H78804   5.209   2.062  10.896  2.5082  0.7110 -2.9372
  598MOL0     O78805  10.902   7.583   9.817  0.2064 -0.4975  0.0935
  598MOL0     C78806  10.966   7.601   9.715 -0.1612 -0.2635 -0.2470
  598MOL0     O78807  10.915   7.644   9.593 -0.0874 -0.0829  0.6052
  598MOL0     C78808  10.776   7.646   9.575  0.0918  0.3717  0.1180
  598MOL0     C78809  10.682   7.708   9.655 -0.1597 -0.3153  0.3795
  598MOL0     C78810  10.557   7.717   9.613  0.0936 -0.4309 -0.5293
  598MOL0     C78811  10.510   7.668   9.489 -0.0986  0.1874 -0.1330
  598MOL0     O78812  10.370   7.684   9.450 -0.4671 -0.0811 -0.3132
  598MOL0     C78813  10.318   7.662   9.315 -0.0904 -0.8008 -0.1675
  598MOL0     C78814  10.200   7.759   9.312  0.6757  1.0345  0.2028
  598MOL0     C78815  10.112   7.748   9.186 -0.0143 -0.5787 -0.1187
  598MOL0     C78816   9.983   7.831   9.201 -0.3040 -0.1528 -0.1521
  598MOL0     C78817   9.897   7.854   9.074  0.3971  0.2065  0.2804
  598MOL0     C78818   9.755   7.915   9.115  0.0164  0.0303  0.4181
  598MOL0     C78819   9.672   7.953   8.996  0.0128 -0.6390  0.4008
  598MOL0     C78820   9.656   7.841   8.885 -0.3228  0.0360 -0.3561
  598MOL0     N78821   9.576   7.737   8.943  0.7802 -0.5962 -1.1636
  598MOL0     C78822   9.440   7.731   8.939  0.2977 -1.1581  0.9481
  598MOL0     C78823   9.406   7.610   8.987 -1.1223  0.6578  0.1765
  598MOL0     C78824   9.268   7.559   8.987  0.4227  0.5416 -0.3382
  598MOL0     C78825   9.260   7.407   9.026 -0.0194 -0.4153  0.2495
  598MOL0     C78826   9.155   7.333   8.950 -0.3421 -0.2570 -0.1877
  598MOL0     C78827   9.013   7.375   8.993 -1.2448 -0.0245  0.0934
  598MOL0     O78828   8.922   7.278   8.939  0.0230 -1.0509  0.8792
  598MOL0     C78829   8.788   7.292   8.955  0.4466  0.0362 -0.9491
  598MOL0     C78830   8.729   7.177   8.912 -0.1133  0.8153  0.3633
  598MOL0     C78831   8.590   7.162   8.941  0.7369 -0.4601  0.9390
  598MOL0     C78832   8.519   7.259   9.015  0.4874 -1.0239 -0.4892
  598MOL0     C78833   8.377   7.245   9.025  0.3199  0.3300 -0.9127
  598MOL0     O78834   8.310   7.153   8.961  0.3964  0.2493 -0.2594
  598MOL0     C78835   8.175   7.149   8.963 -0.1874 -0.2106  0.4634
  598MOL0     C78836   8.099   7.258   8.919 -0.2667  0.5338 -0.9042
  598MOL0     C78837   7.959   7.252   8.918 -0.0765 -0.0643  0.4683
  598MOL0     C78838   7.894   7.136   8.945  0.5045  0.4832  0.0158
  598MOL0     O78839   7.768   7.140   8.904  0.4694 -0.4928 -1.1284
  598MOL0     C78840   7.678   7.035   8.933  0.3185 -0.3451 -0.3532
  598MOL0     C78841   7.561   7.063   9.022  0.5350 -1.0746  0.3096
  598MOL0     C78842   7.598   7.119   9.156 -0.1072  0.2077 -0.0345
  598MOL0     C78843   7.573   7.270   9.158  0.6011  0.1080 -1.1066
  598MOL0     C78844   7.610   7.336   9.288 -0.3593  0.0726  0.3983
  598MOL0     C78845   7.748   7.319   9.326 -0.4655 -0.2339  0.0823
  598MOL0     C78846   7.854   7.380   9.230 -0.5473 -0.5259  0.8280
  598MOL0     C78847   7.994   7.417   9.276 -0.4956 -0.2804 -0.0954
  598MOL0    Cl78848   8.070   7.264   9.351  0.1226  0.0048  0.3032
  598MOL0     C78849   7.973   7.018   8.991  0.5722  0.2059 -0.4798
  598MOL0     C78850   8.112   7.034   9.006 -0.0149 -0.1256 -0.3529
  598MOL0     O78851   8.328   7.324   9.106  0.6224  0.1587  0.0619
  598MOL0     C78852   8.588   7.373   9.052 -0.5782 -0.1810  0.0566
  598MOL0     C78853   8.718   7.387   9.022  0.0565  0.3956  0.1798
  598MOL0     N78854   9.527   7.548   9.026 -0.1587  0.0367 -0.7657
  598MOL0     N78855   9.626   7.616   8.988  0.0947 -0.4984  0.6069
  598MOL0     C78856  10.600   7.595   9.417 -0.4084 -0.3263 -0.2662
  598MOL0     C78857  10.733   7.591   9.451 -0.0233 -0.5416 -0.2951
  598MOL0     C78858  11.103   7.558   9.720  0.0149  0.3990 -0.8493
  598MOL0     C78859  11.172   7.532   9.599  0.8429 -0.0289 -0.4707
  598MOL0     C78860  11.300   7.495   9.601 -0.3226  0.4935  0.2683
  598MOL0     C78861  11.379   7.480   9.717 -0.5396  0.0193 -0.0500
  598MOL0     O78862  11.498   7.426   9.695 -0.0462  0.0503  0.1528
  598MOL0     C78863  11.590   7.394   9.802  0.5102 -0.0046 -0.0673
  598MOL0     C78864  11.583   7.240   9.811  0.0503 -0.2853  0.4832
  598MOL0     C78865  11.626   7.167   9.682 -0.0264  0.0481  0.5678
  598MOL0     C78866  11.778   7.162   9.653 -0.3236 -0.7454 -0.2911
  598MOL0     C78867  11.853   7.069   9.733 -0.0048 -0.6887 -0.4191
  598MOL0     C78868  11.924   6.981   9.781 -0.6799 -0.4898  0.0277
  598MOL0     C78869  11.310   7.499   9.838 -0.0916  0.5310  0.1251
  598MOL0     C78870  11.175   7.527   9.840  0.1708 -0.0286  0.0630
  598MOL0     H78871  10.702   7.763   9.747 -1.8331  0.7342  0.1578
  598MOL0     H78872  10.481   7.763   9.675  0.6283 -0.5973  0.2743
  598MOL0     H78873  10.290   7.557   9.303 -4.4906 -0.2845  3.0718
  598MOL0     H78874  10.389   7.679   9.234 -1.6100 -1.6349 -1.7416
  598MOL0     H78875  10.235   7.863   9.312 -0.1413  1.3284 -0.4608
  598MOL0     H78876  10.139   7.743   9.401  1.3523 -0.2522  0.4477
  598MOL0     H78877  10.092   7.640   9.177  0.3592 -0.9496  2.6166
  598MOL0     H78878  10.163   7.783   9.096 -0.6491  0.1207 -0.2102
  598MOL0     H78879   9.924   7.786   9.281 -0.7101 -0.6957 -0.7414
  598MOL0     H78880  10.028   7.923   9.238  1.8709 -1.6477  1.2251
  598MOL0     H78881   9.874   7.754   9.038  0.9619  0.0851  0.2537
  598MOL0     H78882   9.953   7.907   8.996  1.0014 -2.6744 -1.4001
  598MOL0     H78883   9.780   7.997   9.182 -2.3733  0.7274  0.5573
  598MOL0     H78884   9.690   7.852   9.177 -3.2948  1.6188 -1.2058
  598MOL0     H78885   9.572   7.986   9.024 -0.3445 -0.9586 -0.4517
  598MOL0     H78886   9.704   8.045   8.944 -2.7900  1.8854  2.7793
  598MOL0     H78887   9.756   7.809   8.854  0.3502  0.5882  1.0973
  598MOL0     H78888   9.616   7.889   8.796 -2.1328  0.6920  0.7566
  598MOL0     H78889   9.374   7.806   8.895  1.3550  0.6203  2.2403
  598MOL0     H78890   9.231   7.570   8.884 -0.0417 -1.7314 -0.4611
  598MOL0     H78891   9.201   7.617   9.050  0.5852  0.5719 -0.1914
  598MOL0     H78892   9.257   7.391   9.134 -0.2737 -2.3914 -0.0128
  598MOL0     H78893   9.345   7.352   8.985 -0.3694 -0.8470  0.0971
  598MOL0     H78894   9.170   7.358   8.845  4.3482 -0.2094  0.2931
  598MOL0     H78895   9.164   7.225   8.965 -0.6752 -0.2580  0.0428
  598MOL0     H78896   9.000   7.474   8.949  0.9329  0.6075  0.7307
  598MOL0     H78897   9.000   7.387   9.101  1.8284  1.4568  0.4156
  598MOL0     H78898   8.785   7.099   8.860  3.1542  2.0879  1.6996
  598MOL0     H78899   8.548   7.072   8.897  2.2358  0.5313 -2.8496
  598MOL0     H78900   8.152   7.348   8.889  1.7602 -0.1015  0.5216
  598MOL0     H78901   7.909   7.338   8.876  4.2662  1.0524 -3.1369
  598MOL0     H78902   7.732   6.952   8.980 -0.3749  0.0272  1.1847
  598MOL0     H78903   7.642   6.990   8.840  0.4859 -2.1150  0.3952
  598MOL0     H78904   7.507   6.968   9.028 -1.0491 -0.3984 -1.8307
  598MOL0     H78905   7.489   7.130   8.975  0.5415 -0.3163  1.3330
  598MOL0     H78906   7.698   7.087   9.186 -0.7721 -2.4605 -0.4040
  598MOL0     H78907   7.530   7.074   9.229  0.9923  1.0899  1.6004
  598MOL0     H78908   7.633   7.312   9.077  2.5101  1.1282  0.7423
  598MOL0     H78909   7.467   7.294   9.141  0.4846  0.7434  0.3976
  598MOL0     H78910   7.545   7.289   9.362 -0.9435  0.9597  0.4647
  598MOL0     H78911   7.583   7.442   9.281  1.1997  0.4702 -0.0621
  598MOL0     H78912   7.777   7.217   9.350  1.1837  0.1591 -0.0521
  598MOL0     H78913   7.758   7.362   9.426 -0.2420 -0.1617  0.0296
  598MOL0     H78914   7.858   7.299   9.156 -2.2495  1.2525 -1.3370
  598MOL0     H78915   7.817   7.467   9.175  1.6040 -0.7349 -1.1322
  598MOL0     H78916   8.003   7.491   9.357 -3.2045 -0.8521  0.8263
  598MOL0     H78917   8.065   7.447   9.198 -0.9819 -0.2878 -0.5448
  598MOL0     H78918   7.937   6.920   9.019  0.2091 -0.4077 -2.8283
  598MOL0     H78919   8.179   6.962   9.052 -1.1321 -0.5604  0.6725
  598MOL0     H78920   8.526   7.445   9.103 -1.5843  0.1315 -1.5212
  598MOL0     H78921   8.766   7.474   9.065 -1.2689  0.4447  1.6809
  598MOL0     H78922  10.565   7.547   9.326  3.4643 -1.4766 -1.3210
  598MOL0     H78923  10.794   7.543   9.375  0.4949  0.0514 -0.2647
  598MOL0     H78924  11.130   7.540   9.499  2.8524  0.8758 -1.2997
  598MOL0     H78925  11.352   7.466   9.510  1.9566  2.3982  0.8739
  598MOL0     H78926  11.570   7.451   9.894  2.4035 -0.3303  0.5720
  598MOL0     H78927  11.693   7.425   9.783  0.7127 -1.3499 -1.3165
  598MOL0     H78928  11.644   7.207   9.895  2.7791  2.1230 -0.3978
  598MOL0     H78929  11.478   7.216   9.832  0.5607 -2.1923  1.0533
  598MOL0     H78930  11.567   7.214   9.603 -0.5463  1.0794  1.5462
  598MOL0     H78931  11.585   7.066   9.690 -0.4081  0.1891  0.3944
  598MOL0     H78932  11.784   7.125   9.550  1.3134 -0.2140 -0.4190
  598MOL0     H78933  11.827   7.259   9.662 -0.7446 -0.3102 -2.3000
  598MOL0     H78934  11.975   6.923   9.856 -2.1165 -2.9004 -0.7166
  598MOL0     H78935  11.350   7.479   9.937 -0.8609  1.0024  0.5427
  598MOL0     H78936  11.120   7.541   9.933 -2.0107  0.9919 -1.3027
  599MOL0     O78937   9.821   9.631   3.112 -0.3567  0.3862 -0.2512
  599MOL0     C78938   9.895   9.561   3.041  0.9026  0.5914  1.2443
  599MOL0     O78939   9.854   9.496   2.924 -0.1749 -0.7369 -0.1915
  599MOL0     C78940   9.722   9.496   2.899 -0.6989  0.4395  0.1184
  599MOL0     C78941   9.654   9.591   2.823 -0.1199  0.4467 -0.0590
  599MOL0     C78942   9.522   9.572   2.791 -0.0590 -0.0807 -0.2102
  599MOL0     C78943   9.443   9.470   2.848  0.2609  0.1381 -0.0932
  599MOL0     O78944   9.312   9.441   2.826 -0.3920  0.5204 -0.1018
  599MOL0     C78945   9.214   9.534   2.777  0.3881  0.3712 -0.1759
  599MOL0     C78946   9.065   9.487   2.821  0.1337  0.0073  1.2348
  599MOL0     C78947   8.945   9.565   2.761  0.2835 -0.4799  0.1314
  599MOL0     C78948   8.810   9.538   2.841  0.9113 -0.1780  0.1240
  599MOL0     C78949   8.722   9.659   2.804  0.4137 -0.2999  0.1385
  599MOL0     C78950   8.589   9.657   2.874  0.2400  0.0575 -1.0387
  599MOL0     C78951   8.504   9.769   2.819  0.9048  0.0431 -0.3603
  599MOL0     C78952   8.379   9.782   2.903  0.0749  0.0883  0.0352
  599MOL0     N78953   8.311   9.910   2.880 -0.1783 -0.2460 -0.5672
  599MOL0     C78954   8.191   9.930   2.811  0.5501 -0.0421 -0.0526
  599MOL0     C78955   8.167  10.069   2.815  0.3390  0.3449 -0.0128
  599MOL0     C78956   8.051  10.147   2.761  0.8713  0.6384  0.2049
  599MOL0     C78957   7.914  10.107   2.823  0.0864  1.1286 -0.3839
  599MOL0     C78958   7.807  10.200   2.785  0.0734 -0.5110  0.0105
  599MOL0     C78959   7.673  10.166   2.840  0.1378  0.1649  0.3572
  599MOL0     O78960   7.608  10.064   2.758  0.6914 -0.0046 -0.1243
  599MOL0     C78961   7.507  10.107   2.676 -0.4858  0.4939  0.3576
  599MOL0     C78962   7.386  10.150   2.725 -0.1682  0.0804  0.1470
  599MOL0     C78963   7.287  10.172   2.633  0.5759  0.5443 -0.5614
  599MOL0     C78964   7.294  10.154   2.498 -0.1690 -0.5875  0.0466
  599MOL0     C78965   7.203  10.209   2.394 -0.1309  0.0510  0.3271
  599MOL0     O78966   7.265  10.238   2.272 -0.0868 -0.7399 -0.1773
  599MOL0     C78967   7.170  10.271   2.173 -0.3662 -0.5111 -0.1182
  599MOL0     C78968   7.147  10.407   2.138 -0.0481 -0.3782 -0.0637
  599MOL0     C78969   7.043  10.440   2.042  1.5424  0.2219 -0.5988
  599MOL0     C78970   6.971  10.334   1.985  0.2073 -0.7757  0.6172
  599MOL0     O78971   6.870  10.364   1.904 -0.1707 -0.6777 -0.4512
  599MOL0     C78972   6.801  10.491   1.914 -0.3249 -0.0443 -0.0418
  599MOL0     C78973   6.671  10.485   1.834 -0.8942 -0.3336 -0.9345
  599MOL0     C78974   6.707  10.493   1.681 -0.6760 -0.0953  0.5178
  599MOL0     C78975   6.581  10.465   1.597 -0.6518 -0.6770  0.1327
  599MOL0     C78976   6.610  10.464   1.447  0.3329 -0.0452 -0.0138
  599MOL0     C78977   6.696  10.348   1.397  0.6621  0.0234  0.5754
  599MOL0     C78978   6.701  10.364   1.236  0.5013  0.1037  0.1864
  599MOL0     C78979   6.733  10.228   1.168 -0.6586  0.7200 -0.1159
  599MOL0    Cl78980   6.757  10.236   0.989 -0.1935 -0.1679 -0.4064
  599MOL0     C78981   7.001  10.203   2.017  0.3523 -0.6217  0.5340
  599MOL0     C78982   7.102  10.168   2.113  0.2441  0.5236  0.3226
  599MOL0     O78983   7.079  10.231   2.417  0.4804 -0.4536  0.0985
  599MOL0     C78984   7.421  10.100   2.453 -0.1839 -0.3102 -1.4922
  599MOL0     C78985   7.526  10.076   2.543  0.4506 -0.0135  0.8361
  599MOL0     N78986   8.271  10.123   2.885 -0.0152  0.5928 -0.4165
  599MOL0     N78987   8.356  10.032   2.921  0.2124  0.5738 -0.3455
  599MOL0     C78988   9.511   9.376   2.935  0.3293 -0.6803  0.0367
  599MOL0     C78989   9.651   9.386   2.953  0.5569  0.1157  0.4352
  599MOL0     C78990  10.033   9.557   3.077 -0.6342 -0.0348  0.6361
  599MOL0     C78991  10.076   9.606   3.196 -0.0448  0.3766  0.0782
  599MOL0     C78992  10.206   9.582   3.230 -0.7828  0.0900 -0.0914
  599MOL0     C78993  10.302   9.508   3.158  0.8711  0.7928  0.6062
  599MOL0     O78994  10.426   9.483   3.185 -0.2695  0.5273  0.5725
  599MOL0     C78995  10.472   9.519   3.314 -0.4360  0.1239 -0.0846
  599MOL0     C78996  10.604   9.449   3.340 -0.0316 -0.5224 -0.1562
  599MOL0     C78997  10.647   9.470   3.489  1.1238  1.4929  1.0823
  599MOL0     C78998  10.795   9.450   3.514 -0.8983 -0.5178  0.2173
  599MOL0     C78999  10.842   9.324   3.457  1.0534  0.3799 -0.0414
  599MOL0     C79000  10.870   9.229   3.388 -0.4119  0.9504 -0.0275
  599MOL0     C79001  10.261   9.473   3.031 -0.1478  0.1603 -0.6709
  599MOL0     C79002  10.125   9.497   2.992  0.0965 -0.3497  0.4480
  599MOL0     H79003   9.709   9.677   2.785 -1.4439  0.9013 -1.0586
  599MOL0     H79004   9.471   9.636   2.719 -0.4076 -0.0703  0.0420
  599MOL0     H79005   9.225   9.537   2.669 -2.7117  1.6228 -0.5558
  599MOL0     H79006   9.232   9.633   2.820 -1.9513  0.7250  0.1118
  599MOL0     H79007   9.063   9.490   2.931  3.1082  0.1029  1.3832
  599MOL0     H79008   9.050   9.384   2.788  0.2467 -1.0999  4.2930
  599MOL0     H79009   8.938   9.541   2.655 -0.1497  0.6976 -0.1144
  599MOL0     H79010   8.978   9.669   2.757 -0.5512 -0.2335 -2.3398
  599MOL0     H79011   8.763   9.444   2.811 -1.4741  1.8767 -3.2387
  599MOL0     H79012   8.834   9.535   2.948  0.7310  3.2870  0.3917
  599MOL0     H79013   8.708   9.667   2.696  2.2855 -0.5996 -0.1488
  599MOL0     H79014   8.774   9.746   2.844 -1.7174  0.3997  1.5794
  599MOL0     H79015   8.609   9.667   2.981 -2.1939 -1.1652 -0.3946
  599MOL0     H79016   8.540   9.559   2.870  0.7099 -0.4782  2.7430
  599MOL0     H79017   8.553   9.867   2.817 -0.2886  0.6478 -0.9359
  599MOL0     H79018   8.472   9.758   2.715  2.8278  0.8094 -1.0656
  599MOL0     H79019   8.412   9.781   3.008  0.5296  0.4533 -0.1003
  599MOL0     H79020   8.309   9.701   2.882 -0.4383  0.1864  1.3010
  599MOL0     H79021   8.139   9.848   2.762  1.2536 -0.2884 -0.3983
  599MOL0     H79022   8.058  10.127   2.653 -0.1894 -3.9843  0.7744
  599MOL0     H79023   8.064  10.254   2.780  1.1732  0.3509  1.7128
  599MOL0     H79024   7.930  10.117   2.931  0.8928  2.5853 -0.6138
  599MOL0     H79025   7.884  10.006   2.792  0.4446  1.2480 -1.1505
  599MOL0     H79026   7.820  10.302   2.823 -1.1469  0.0072 -0.8787
  599MOL0     H79027   7.795  10.207   2.676  2.0603  2.3764 -0.1251
  599MOL0     H79028   7.609  10.254   2.847  1.8172  1.5011 -0.2792
  599MOL0     H79029   7.684  10.125   2.941  0.0904 -1.6056 -0.3133
  599MOL0     H79030   7.381  10.176   2.831 -0.9597  2.9283 -0.4937
  599MOL0     H79031   7.205  10.225   2.679 -0.3591 -2.1577  1.1164
  599MOL0     H79032   7.201  10.480   2.197  1.2078 -1.0140 -0.3786
  599MOL0     H79033   7.032  10.543   2.008 -1.2631  0.3651  0.4265
  599MOL0     H79034   6.859  10.575   1.876  2.3306 -3.1156 -3.5738
  599MOL0     H79035   6.786  10.513   2.020  4.1843 -1.0507  0.9921
  599MOL0     H79036   6.611  10.574   1.853  0.6107  0.7222 -0.9440
  599MOL0     H79037   6.615  10.396   1.862  1.4459 -1.3122  0.9848
  599MOL0     H79038   6.788  10.423   1.660 -0.2754  0.5729 -0.1876
  599MOL0     H79039   6.738  10.597   1.665 -0.3058 -0.1652  0.7512
  599MOL0     H79040   6.552  10.362   1.620  1.5239 -1.6886 -1.3423
  599MOL0     H79041   6.510  10.546   1.619 -2.5119 -2.3296  0.4531
  599MOL0     H79042   6.672  10.550   1.420  0.9488 -1.0907 -2.1768
  599MOL0     H79043   6.515  10.468   1.393  0.9024  1.8001 -0.9495
  599MOL0     H79044   6.655  10.250   1.423  1.0535 -0.0111  1.0756
  599MOL0     H79045   6.794  10.345   1.446  1.0571 -3.4107 -0.2127
  599MOL0     H79046   6.604  10.388   1.191  0.3020 -2.0844 -0.6896
  599MOL0     H79047   6.773  10.442   1.213 -1.0049  1.3717 -0.3985
  599MOL0     H79048   6.654  10.158   1.197 -0.5138  0.9800  0.9418
  599MOL0     H79049   6.826  10.194   1.214 -0.6765  0.6940 -0.0991
  599MOL0     H79050   6.943  10.117   1.985 -1.7049  1.0322 -0.4592
  599MOL0     H79051   7.109  10.061   2.128  0.5814  0.4524 -0.3395
  599MOL0     H79052   7.444  10.078   2.349 -1.4774  1.0785 -2.1061
  599MOL0     H79053   7.616  10.025   2.513  1.1887  0.3009  2.3855
  599MOL0     H79054   9.441   9.302   2.974  1.1103 -3.0186 -2.7049
  599MOL0     H79055   9.691   9.301   3.007 -3.9498 -0.2075  3.8246
  599MOL0     H79056  10.024   9.680   3.255 -2.0577  0.3029 -1.5142
  599MOL0     H79057  10.232   9.628   3.325 -0.2382  0.5364 -0.4494
  599MOL0     H79058  10.395   9.494   3.388 -1.3805  2.9808  0.0005
  599MOL0     H79059  10.502   9.624   3.318 -2.9080  0.8890 -0.0067
  599MOL0     H79060  10.591   9.342   3.317 -0.4889 -0.1573 -1.7399
  599MOL0     H79061  10.678   9.485   3.268 -3.9334  1.1774 -3.7757
  599MOL0     H79062  10.588   9.413   3.561  0.9357  1.7223  1.1119
  599MOL0     H79063  10.631   9.575   3.517 -1.6295  1.3625  0.3702
  599MOL0     H79064  10.855   9.537   3.488  0.2965 -0.5659  2.5537
  599MOL0     H79065  10.814   9.446   3.621  2.4492 -2.9860 -0.3148
  599MOL0     H79066  10.911   9.141   3.342  0.0463  0.5782  1.0457
  599MOL0     H79067  10.337   9.427   2.969  1.9939  0.8308  1.3122
  599MOL0     H79068  10.102   9.469   2.889 -6.5707  0.9846  1.1163
  600MOL0     O79069  10.639   1.865   7.289  0.4510  0.2244 -0.1812
  600MOL0     C79070  10.723   1.887   7.373 -0.0714  0.3605 -1.1010
  600MOL0     O79071  10.703   1.879   7.519 -0.4119  0.2674  0.4010
  600MOL0     C79072  10.582   1.856   7.582  0.2558 -0.0803 -0.2234
  600MOL0     C79073  10.463   1.810   7.522  0.2522 -0.0344  1.5131
  600MOL0     C79074  10.344   1.799   7.594 -0.3380 -0.2188  0.3406
  600MOL0     C79075  10.347   1.813   7.736  0.6600  0.1608 -0.1874
  600MOL0     O79076  10.236   1.785   7.817  0.4140 -0.1335 -0.1802
  600MOL0     C79077  10.101   1.767   7.761 -0.6925 -0.8926  0.2599
  600MOL0     C79078  10.012   1.787   7.891  0.1055  0.9679 -0.5913
  600MOL0     C79079   9.862   1.785   7.861  0.1508 -0.4316 -0.1319
  600MOL0     C79080   9.794   1.767   7.990  0.2829 -0.1875 -0.2347
  600MOL0     C79081   9.645   1.754   7.962  1.5482  0.0426 -0.0990
  600MOL0     C79082   9.581   1.752   8.106 -0.1433  0.6926  0.3055
  600MOL0     C79083   9.429   1.748   8.103  0.2868 -0.8539  0.2400
  600MOL0     C79084   9.376   1.773   8.245  0.5703 -0.4961 -0.6445
  600MOL0     N79085   9.235   1.748   8.259 -0.0434  0.5348 -0.1582
  600MOL0     C79086   9.133   1.790   8.177 -0.2731  0.9873 -0.7111
  600MOL0     C79087   9.027   1.737   8.240  0.3929 -0.4620  0.1852
  600MOL0     C79088   8.881   1.752   8.197  0.0067  0.0303 -0.3661
  600MOL0     C79089   8.814   1.883   8.226 -0.3174 -0.1419 -0.1934
  600MOL0     C79090   8.671   1.909   8.174 -0.5737  0.5367 -0.2292
  600MOL0     C79091   8.561   1.865   8.272  0.3373  0.6868 -0.2079
  600MOL0     O79092   8.439   1.910   8.209 -0.6649  0.8974  0.6363
  600MOL0     C79093   8.318   1.875   8.261  0.5309 -0.7957 -0.1289
  600MOL0     C79094   8.296   1.804   8.380  0.4411 -0.6505 -0.1665
  600MOL0     C79095   8.167   1.790   8.426  0.1659  0.3679 -0.1597
  600MOL0     C79096   8.052   1.831   8.349  0.7373 -0.6997  0.4407
  600MOL0     C79097   7.918   1.815   8.405  0.7732 -0.1626 -0.0699
  600MOL0     O79098   7.913   1.764   8.528  1.4110 -0.0252  0.2748
  600MOL0     C79099   7.796   1.778   8.596 -0.2575 -0.1823 -0.2661
  600MOL0     C79100   7.758   1.900   8.640 -0.4780 -1.0043 -0.7872
  600MOL0     C79101   7.634   1.925   8.696 -0.0756 -1.0034  0.5978
  600MOL0     C79102   7.545   1.822   8.726  0.2879  0.3024  0.3371
  600MOL0     O79103   7.422   1.858   8.777  0.4266  0.5154  0.3749
  600MOL0     C79104   7.324   1.754   8.790 -0.1554 -0.0213  0.1439
  600MOL0     C79105   7.214   1.806   8.870 -0.2921 -0.8901 -0.4554
  600MOL0     C79106   7.112   1.890   8.799 -0.1827  0.4102  0.4001
  600MOL0     C79107   7.035   1.816   8.680 -0.5511 -0.0735 -0.0124
  600MOL0     C79108   6.939   1.906   8.602  0.2719  0.2395 -0.2336
  600MOL0     C79109   6.876   1.817   8.499 -0.0212  0.0410 -0.0222
  600MOL0     C79110   6.758   1.880   8.422 -0.1482  0.2501 -1.0072
  600MOL0     C79111   6.696   1.784   8.318 -0.1708 -0.0260 -0.1556
  600MOL0    Cl79112   6.823   1.709   8.210  0.8063  0.2383 -0.0973
  600MOL0     C79113   7.596   1.696   8.702 -0.0691 -0.3285 -0.0497
  600MOL0     C79114   7.713   1.677   8.629  0.2280  0.1486 -0.0768
  600MOL0     O79115   7.816   1.851   8.342 -1.0626  0.0603 -0.1664
  600MOL0     C79116   8.071   1.902   8.231  0.3210  0.8004 -0.7558
  600MOL0     C79117   8.207   1.927   8.196 -0.2550 -0.7709  0.1735
  600MOL0     N79118   9.060   1.664   8.351 -0.6163  0.1744 -0.5769
  600MOL0     N79119   9.188   1.677   8.370 -0.0072 -0.2821  0.8226
  600MOL0     C79120  10.464   1.859   7.800  0.0255  0.4815  0.0172
  600MOL0     C79121  10.578   1.880   7.721 -1.2575 -0.9023 -0.4877
  600MOL0     C79122  10.857   1.932   7.336  0.2279  0.5993  0.5311
  600MOL0     C79123  10.926   2.007   7.431  0.0544  0.1858  0.6131
  600MOL0     C79124  11.052   2.061   7.395 -0.6976  0.5573  0.1285
  600MOL0     C79125  11.099   2.040   7.262  0.0276 -0.7348  0.1416
  600MOL0     O79126  11.226   2.079   7.221 -0.7843  0.5204  0.3389
  600MOL0     C79127  11.329   2.118   7.309  0.0871  0.0358  0.2974
  600MOL0     C79128  11.430   2.213   7.250  0.2078  0.6543 -0.4317
  600MOL0     C79129  11.345   2.346   7.228 -0.4671 -0.1632 -0.0250
  600MOL0     C79130  11.443   2.456   7.173  0.8262  0.3925 -0.1741
  600MOL0     C79131  11.563   2.480   7.254 -0.8749  0.2253  0.3820
  600MOL0     C79132  11.659   2.507   7.324 -0.1513  0.4439 -1.5270
  600MOL0     C79133  11.026   1.962   7.167  0.2789 -0.2323 -0.8400
  600MOL0     C79134  10.900   1.907   7.199 -0.9444  0.0884 -0.0095
  600MOL0     H79135  10.454   1.789   7.415  0.7973  1.6565  1.0990
  600MOL0     H79136  10.248   1.785   7.546 -0.0930  0.6282 -0.4224
  600MOL0     H79137  10.094   1.672   7.707  2.8565 -0.3776 -1.4186
  600MOL0     H79138  10.077   1.845   7.689  1.4295 -1.2107 -0.8801
  600MOL0     H79139  10.033   1.877   7.948  3.3116 -0.9940  1.6667
  600MOL0     H79140  10.040   1.706   7.959 -0.1922  1.5708  0.2727
  600MOL0     H79141   9.843   1.698   7.797  0.6972 -0.5382 -0.1561
  600MOL0     H79142   9.824   1.873   7.808  0.5243 -0.0238  0.2681
  600MOL0     H79143   9.834   1.678   8.040  1.4739  1.4870  1.9397
  600MOL0     H79144   9.811   1.840   8.069  0.9247  0.1567 -0.6832
  600MOL0     H79145   9.624   1.662   7.907  3.5273  0.8764 -2.4726
  600MOL0     H79146   9.608   1.838   7.903 -0.9676 -1.1759 -0.3931
  600MOL0     H79147   9.609   1.848   8.149 -2.4949  0.9130  1.4761
  600MOL0     H79148   9.618   1.665   8.161  1.2248 -0.5609 -2.4068
  600MOL0     H79149   9.387   1.828   8.041  2.1001 -0.1884 -0.2018
  600MOL0     H79150   9.401   1.646   8.074 -0.9896 -0.5863  0.4842
  600MOL0     H79151   9.381   1.877   8.278 -4.1514  0.1646 -1.2857
  600MOL0     H79152   9.423   1.717   8.327 -2.3728  0.5996  2.0154
  600MOL0     H79153   9.137   1.845   8.083 -1.3445  1.1699 -0.6517
  600MOL0     H79154   8.832   1.679   8.263  1.9419 -2.3355 -1.4125
  600MOL0     H79155   8.865   1.719   8.094 -0.2558 -1.3647  0.1027
  600MOL0     H79156   8.884   1.959   8.192 -0.3430  0.5157  1.1944
  600MOL0     H79157   8.820   1.885   8.335 -0.2658 -1.1430 -0.1621
  600MOL0     H79158   8.656   2.015   8.155 -0.1935  0.6663  0.1733
  600MOL0     H79159   8.655   1.861   8.077 -1.1274  1.9391 -0.8605
  600MOL0     H79160   8.571   1.890   8.378 -1.3974 -1.3879  0.5009
  600MOL0     H79161   8.549   1.756   8.271  1.6816  0.4749 -2.8173
  600MOL0     H79162   8.373   1.754   8.438 -0.4208 -0.1073  1.4975
  600MOL0     H79163   8.167   1.737   8.520 -0.1119  0.7342  0.0460
  600MOL0     H79164   7.827   1.981   8.619 -2.1369  0.0526 -2.5512
  600MOL0     H79165   7.612   2.028   8.724  0.4548 -0.0122 -2.2829
  600MOL0     H79166   7.363   1.673   8.852  1.1478  1.8617  1.9421
  600MOL0     H79167   7.296   1.719   8.690  0.2741  0.8832 -0.3066
  600MOL0     H79168   7.244   1.872   8.952 -2.4647 -0.0629 -0.2646
  600MOL0     H79169   7.168   1.718   8.916 -1.5403  0.7974  1.7402
  600MOL0     H79170   7.165   1.974   8.752 -1.1056 -0.8305 -3.2373
  600MOL0     H79171   7.042   1.922   8.876 -0.6262 -0.3748  0.3308
  600MOL0     H79172   7.114   1.782   8.613 -0.5291 -0.1929  0.0749
  600MOL0     H79173   6.980   1.730   8.719 -2.1969  0.5229 -0.9075
  600MOL0     H79174   6.983   1.990   8.547  0.1824 -1.0197 -2.3490
  600MOL0     H79175   6.856   1.947   8.660 -1.4919  1.6966 -3.4986
  600MOL0     H79176   6.827   1.728   8.540 -3.0617  1.6536  0.1627
  600MOL0     H79177   6.953   1.791   8.427 -1.1014 -0.4737 -1.0160
  600MOL0     H79178   6.672   1.893   8.489 -0.7877  2.2909 -2.1268
  600MOL0     H79179   6.786   1.974   8.374  2.3163 -0.6175 -1.4008
  600MOL0     H79180   6.611   1.819   8.259 -0.3420 -0.8925 -0.4400
  600MOL0     H79181   6.665   1.698   8.377  0.2087  1.1136  1.7913
  600MOL0     H79182   7.537   1.612   8.737 -0.0756 -0.3032 -0.0009
  600MOL0     H79183   7.760   1.582   8.611 -5.0993 -2.9699  0.4413
  600MOL0     H79184   7.996   1.929   8.157 -0.0406  1.9858  0.0180
  600MOL0     H79185   8.210   1.994   8.110 -3.5189  1.9707  1.9354
  600MOL0     H79186  10.462   1.875   7.907  2.3656  0.6174  0.1111
  600MOL0     H79187  10.668   1.919   7.767 -1.3755  0.2390 -1.1849
  600MOL0     H79188  10.881   2.034   7.526 -2.0778  1.4362 -0.6681
  600MOL0     H79189  11.123   2.108   7.462  1.9203 -1.2472 -1.2168
  600MOL0     H79190  11.388   2.034   7.346  2.6473  0.5648 -2.3020
  600MOL0     H79191  11.285   2.171   7.394  0.7572 -2.3866  2.2827
  600MOL0     H79192  11.504   2.227   7.330 -1.3025  0.8459  0.9844
  600MOL0     H79193  11.476   2.181   7.156  1.5279 -2.5168  1.1512
  600MOL0     H79194  11.299   2.390   7.317 -0.0130  0.5886 -0.1578
  600MOL0     H79195  11.262   2.327   7.160 -2.7261 -3.6466  3.2601
  600MOL0     H79196  11.467   2.439   7.068 -0.6713  1.1573 -0.6666
  600MOL0     H79197  11.390   2.551   7.185 -2.6978 -1.4138  0.1340
  600MOL0     H79198  11.745   2.537   7.382  0.6684  0.1945 -2.5880
  600MOL0     H79199  11.055   1.949   7.063 -0.4498  1.6413 -1.3323
  600MOL0     H79200  10.835   1.864   7.124 -2.0406  0.4987  0.6900
  601MOL0     O79201   9.548   0.738   9.887 -0.1663  0.4326 -0.3714
  601MOL0     C79202   9.519   0.758  10.003 -0.1844 -0.4432 -0.9296
  601MOL0     O79203   9.402   0.730  10.063  0.2582 -0.5753 -0.1135
  601MOL0     C79204   9.291   0.710   9.990  0.2092  0.0507  0.2384
  601MOL0     C79205   9.258   0.786   9.875 -0.1751  0.6423 -0.1620
  601MOL0     C79206   9.137   0.771   9.807  0.1192  0.4899  0.1487
  601MOL0     C79207   9.048   0.683   9.860 -0.4240  0.6245  0.0616
  601MOL0     O79208   8.927   0.677   9.792  0.2218 -0.2515 -0.2196
  601MOL0     C79209   8.820   0.599   9.854  0.3571 -0.6626  0.0946
  601MOL0     C79210   8.716   0.571   9.739  0.5788  0.4978  0.1989
  601MOL0     C79211   8.631   0.703   9.721 -0.3747  0.4233  0.2409
  601MOL0     C79212   8.537   0.696   9.599  0.0453  0.5029 -0.3591
  601MOL0     C79213   8.424   0.591   9.625  0.5053  0.6758 -0.4404
  601MOL0     C79214   8.309   0.612   9.526 -0.1889 -0.0472  1.1942
  601MOL0     C79215   8.172   0.558   9.571  0.8574  0.2372 -0.8255
  601MOL0     C79216   8.193   0.405   9.594  0.4210  0.6218  0.0731
  601MOL0     N79217   8.083   0.321   9.537  0.1690 -0.3473 -0.8311
  601MOL0     C79218   7.963   0.287   9.590 -1.4472 -0.6552 -0.3298
  601MOL0     C79219   7.893   0.231   9.484  1.1723 -0.1087 -0.1160
  601MOL0     C79220   7.750   0.179   9.498  0.3395  0.1967  0.5508
  601MOL0     C79221   7.642   0.275   9.438 -0.0899 -0.1660 -0.8215
  601MOL0     C79222   7.619   0.398   9.524 -0.8993 -0.5583  0.1262
  601MOL0     C79223   7.549   0.512   9.445  0.4162 -0.8384 -0.1295
  601MOL0     O79224   7.424   0.478   9.379  0.4077  0.2922  0.7271
  601MOL0     C79225   7.311   0.470   9.451 -0.0190 -0.4476  1.3127
  601MOL0     C79226   7.287   0.494   9.585 -0.0571 -0.2551  0.8626
  601MOL0     C79227   7.159   0.476   9.643 -0.1117 -1.0112 -0.3672
  601MOL0     C79228   7.050   0.427   9.582  0.2391  0.2345 -0.5167
  601MOL0     C79229   6.918   0.431   9.646  0.8586 -0.6530 -0.5171
  601MOL0     O79230   6.817   0.380   9.572  0.3180 -0.3615  0.2186
  601MOL0     C79231   6.690   0.361   9.617 -0.3317 -0.6177  0.2364
  601MOL0     C79232   6.678   0.301   9.741 -0.1895 -0.1601 -0.1144
  601MOL0     C79233   6.558   0.243   9.773  0.0542 -0.4617 -0.5926
  601MOL0     C79234   6.445   0.253   9.691 -0.2274  0.4208 -0.7687
  601MOL0     O79235   6.330   0.202   9.743  0.5203  0.3138  0.0619
  601MOL0     C79236   6.208   0.240   9.679  0.1467 -0.0849 -0.9335
  601MOL0     C79237   6.082   0.230   9.764 -0.2873 -0.1202  0.0394
  601MOL0     C79238   5.967   0.184   9.675 -0.0575 -0.2862 -0.9797
  601MOL0     C79239   5.841   0.128   9.754 -0.0474  0.5633 -0.6404
  601MOL0     C79240   5.737   0.079   9.665  0.4500  0.2004  0.2818
  601MOL0     C79241   5.615   0.025   9.736  0.8521 -0.1333  0.3040
  601MOL0     C79242   5.534   0.115   9.825 -0.0881  0.3594 -0.2008
  601MOL0     C79243   5.406   0.042   9.858  0.2365 -0.4337  0.2279
  601MOL0    Cl79244   5.314   0.164   9.962  0.0851 -0.0330  0.2435
  601MOL0     C79245   6.463   0.310   9.570 -0.5897  0.2711  0.7959
  601MOL0     C79246   6.582   0.375   9.537 -0.1816  0.3625  0.7999
  601MOL0     O79247   6.903   0.489   9.754  0.1530  0.6696 -0.2518
  601MOL0     C79248   7.075   0.381   9.452 -0.0943  0.2115 -0.0676
  601MOL0     C79249   7.200   0.402   9.388 -0.1304 -0.2758 -1.7230
  601MOL0     N79250   7.976   0.231   9.370 -0.7941 -0.2392  0.0637
  601MOL0     N79251   8.088   0.283   9.404  0.1356 -0.2965  0.0408
  601MOL0     C79252   9.078   0.597   9.966 -0.5865  0.3171 -0.2527
  601MOL0     C79253   9.197   0.618  10.034 -0.1262 -0.0141 -0.0007
  601MOL0     C79254   9.622   0.820  10.085  0.6534 -0.2595 -1.0045
  601MOL0     C79255   9.735   0.879  10.035 -0.4605  0.0047  0.0555
  601MOL0     C79256   9.836   0.939  10.109 -0.2205  0.0936 -0.2600
  601MOL0     C79257   9.814   0.938  10.254 -0.2284 -0.1972  1.0040
  601MOL0     O79258   9.908   0.995  10.338  0.1114 -0.1986 -0.0728
  601MOL0     C79259  10.050   0.953  10.332  0.4532  0.8349 -0.4591
  601MOL0     C79260  10.072   0.810  10.374 -0.5567 -0.3503  0.3213
  601MOL0     C79261  10.064   0.793  10.524 -0.5772 -0.9006  0.6927
  601MOL0     C79262  10.073   0.654  10.563  0.3345 -0.4408 -0.5449
  601MOL0     C79263  10.201   0.600  10.535 -0.3551  0.4063  0.2291
  601MOL0     C79264  10.310   0.565  10.493  0.9964 -0.2029 -0.3352
  601MOL0     C79265   9.692   0.901  10.304  0.4974  0.3664  0.6053
  601MOL0     C79266   9.599   0.834  10.220  0.5936 -0.8359  0.0295
  601MOL0     H79267   9.329   0.860   9.837  1.0172  1.1757  2.8439
  601MOL0     H79268   9.115   0.835   9.722  1.6316  3.1137  1.6033
  601MOL0     H79269   8.774   0.643   9.943  0.6656 -0.3284  0.0894
  601MOL0     H79270   8.870   0.507   9.886  2.6478  1.0430  1.6946
  601MOL0     H79271   8.652   0.491   9.778 -0.6321  1.7880  0.9638
  601MOL0     H79272   8.769   0.539   9.649  0.0904 -1.2357  0.4977
  601MOL0     H79273   8.695   0.791   9.708  1.4963 -1.0158 -0.8947
  601MOL0     H79274   8.571   0.710   9.812  1.7134 -1.3708  1.8615
  601MOL0     H79275   8.489   0.794   9.593  0.0587  0.5171 -0.2350
  601MOL0     H79276   8.593   0.679   9.507  2.2115 -0.4316  1.0457
  601MOL0     H79277   8.388   0.584   9.728  1.1118 -0.5182 -0.2844
  601MOL0     H79278   8.473   0.493   9.616  0.5852  0.7930 -1.3186
  601MOL0     H79279   8.348   0.568   9.434 -1.0615 -0.1157  0.8537
  601MOL0     H79280   8.294   0.717   9.499 -1.8760 -0.7037 -0.6337
  601MOL0     H79281   8.136   0.610   9.660  0.3237  0.7040 -1.3025
  601MOL0     H79282   8.092   0.569   9.497  0.7138  0.9947 -0.5720
  601MOL0     H79283   8.200   0.376   9.700  1.5141  1.2594  0.1917
  601MOL0     H79284   8.291   0.380   9.553 -0.5706 -2.5579 -0.6293
  601MOL0     H79285   7.932   0.295   9.693 -1.5833  1.0529 -0.4686
  601MOL0     H79286   7.720   0.163   9.602 -1.8474 -0.4120 -0.1106
  601MOL0     H79287   7.736   0.083   9.448 -1.4643  0.1784  0.9947
  601MOL0     H79288   7.549   0.217   9.432  0.3961 -0.9739 -0.5678
  601MOL0     H79289   7.674   0.316   9.342  1.2750  1.4882  0.2772
  601MOL0     H79290   7.563   0.372   9.615  1.4799 -0.5792  1.6770
  601MOL0     H79291   7.718   0.428   9.560 -1.2029  0.4446  0.1526
  601MOL0     H79292   7.619   0.559   9.375  2.3296 -1.9852  0.9374
  601MOL0     H79293   7.522   0.583   9.523 -1.9071 -3.0278  1.2081
  601MOL0     H79294   7.366   0.513   9.656  1.1685 -0.5217 -0.3787
  601MOL0     H79295   7.147   0.505   9.747 -1.0357 -1.2331 -0.4011
  601MOL0     H79296   6.770   0.292   9.798 -0.9141  0.0263  1.1058
  601MOL0     H79297   6.559   0.192   9.869 -1.9445  0.5408  0.0103
  601MOL0     H79298   6.194   0.176   9.591  1.2106 -2.2373  0.3744
  601MOL0     H79299   6.225   0.341   9.639  1.7672 -0.3250 -0.9216
  601MOL0     H79300   6.057   0.323   9.815  2.8560  0.9377 -0.1427
  601MOL0     H79301   6.107   0.156   9.840 -1.9760 -1.0694 -0.2731
  601MOL0     H79302   5.998   0.104   9.607  0.5357 -1.0753  0.1761
  601MOL0     H79303   5.945   0.269   9.611  1.6680  0.5411 -0.5313
  601MOL0     H79304   5.862   0.054   9.832  1.1856  2.5480  1.0039
  601MOL0     H79305   5.801   0.216   9.806 -2.3250  0.2877 -1.8110
  601MOL0     H79306   5.770   0.009   9.588 -0.6197  0.3747 -0.3505
  601MOL0     H79307   5.702   0.156   9.596  0.2162 -0.1864 -0.0403
  601MOL0     H79308   5.654  -0.051   9.804  2.2208 -0.0315 -0.3328
  601MOL0     H79309   5.558  -0.026   9.657  3.4008  0.3228 -1.9794
  601MOL0     H79310   5.587   0.121   9.921 -1.4777  1.3957  0.5300
  601MOL0     H79311   5.528   0.220   9.793 -0.4418  0.9350  1.6343
  601MOL0     H79312   5.438  -0.045   9.916 -0.2146 -0.6032  0.2226
  601MOL0     H79313   5.339   0.018   9.776  1.7286  0.4230 -1.3176
  601MOL0     H79314   6.383   0.317   9.497  1.2289 -0.9536 -1.4371
  601MOL0     H79315   6.589   0.432   9.444 -0.0087 -0.1271  0.5075
  601MOL0     H79316   6.997   0.332   9.395  1.2011 -0.3789 -1.4022
  601MOL0     H79317   7.210   0.369   9.284  2.8476  0.4739 -1.7682
  601MOL0     H79318   9.021   0.514  10.007  1.2344 -1.3966 -0.9795
  601MOL0     H79319   9.215   0.550  10.116  0.9121  0.6003  0.3045
  601MOL0     H79320   9.743   0.881   9.927 -1.7854 -0.7835 -0.0714
  601MOL0     H79321   9.920   0.986  10.060 -0.4618  3.1912  1.9980
  601MOL0     H79322  10.092   1.025  10.403 -1.7254  1.5983  0.1273
  601MOL0     H79323  10.093   0.976  10.234 -1.9505  1.2428 -1.4672
  601MOL0     H79324  10.004   0.749  10.313 -1.4958  0.8743  0.0999
  601MOL0     H79325  10.176   0.784  10.351  0.6069  1.9824  2.4596
  601MOL0     H79326   9.968   0.835  10.557  0.0643  0.2107  1.2362
  601MOL0     H79327  10.138   0.859  10.571  0.3873 -0.9739 -0.6591
  601MOL0     H79328  10.057   0.644  10.671  0.5719  0.3386 -0.4332
  601MOL0     H79329   9.986   0.604  10.522 -0.8340  0.8001  0.3448
  601MOL0     H79330  10.405   0.540  10.451  0.2736 -1.2085 -1.4287
  601MOL0     H79331   9.685   0.915  10.412  2.4795  1.8626  0.5949
  601MOL0     H79332   9.517   0.793  10.279  0.0184 -0.5223 -0.5424
  602MOL0     O79333   4.650   1.209  11.137 -0.1889 -0.3863 -0.0057
  602MOL0     C79334   4.656   1.154  11.250 -0.1224 -0.5955  0.0266
  602MOL0     O79335   4.554   1.101  11.315  0.5016  0.4372  0.0631
  602MOL0     C79336   4.429   1.119  11.259  0.8053 -0.4001  0.1274
  602MOL0     C79337   4.364   1.240  11.268  1.0697 -0.3949 -0.0314
  602MOL0     C79338   4.228   1.247  11.239 -0.9595 -0.6575  0.9649
  602MOL0     C79339   4.152   1.135  11.195  0.7265  0.3253  0.3192
  602MOL0     O79340   4.019   1.158  11.177  0.0963 -0.7855 -1.2278
  602MOL0     C79341   3.953   1.083  11.078  0.4023  0.0740 -0.2287
  602MOL0     C79342   3.815   1.162  11.043 -0.7676  0.1186  0.0092
  602MOL0     C79343   3.683   1.083  11.036 -0.0949 -0.2660 -0.1048
  602MOL0     C79344   3.571   1.153  10.956 -0.5081  0.2494  0.2825
  602MOL0     C79345   3.551   1.298  11.006  0.0686  0.0334  0.5924
  602MOL0     C79346   3.449   1.393  10.947  0.0441  0.2931  0.3117
  602MOL0     C79347   3.308   1.335  10.977  0.0767  0.4213 -0.0433
  602MOL0     C79348   3.262   1.262  10.854  0.1389 -0.8157 -0.3569
  602MOL0     N79349   3.149   1.173  10.889  0.0414  0.7169 -0.2623
  602MOL0     C79350   3.019   1.201  10.863 -0.3428 -0.4617 -0.4002
  602MOL0     C79351   2.947   1.093  10.897 -0.5767 -0.1106  0.3093
  602MOL0     C79352   2.804   1.061  10.873 -0.1425 -0.0526 -0.0811
  602MOL0     C79353   2.709   1.137  10.954  0.0539  0.0622  0.3132
  602MOL0     C79354   2.567   1.105  10.911  0.1762  0.3230  0.0249
  602MOL0     C79355   2.480   1.195  11.001  0.1294  0.3118 -0.0583
  602MOL0     O79356   2.338   1.180  10.978 -0.0303 -0.2452  0.2092
  602MOL0     C79357   2.269   1.162  11.101  0.7674 -0.5102 -0.2893
  602MOL0     C79358   2.145   1.097  11.091  0.2906 -0.6392  0.6668
  602MOL0     C79359   2.056   1.076  11.201  0.4580  0.0873 -0.5568
  602MOL0     C79360   2.085   1.129  11.322  0.0043  0.6890 -0.5944
  602MOL0     C79361   2.000   1.107  11.438  0.0003 -0.0862 -0.0371
  602MOL0     O79362   1.896   1.026  11.430  0.1586  0.3588  0.7576
  602MOL0     C79363   1.795   1.030  11.525 -0.1403 -0.6833  0.1902
  602MOL0     C79364   1.790   0.908  11.605  0.2658 -0.1677  0.7285
  602MOL0     C79365   1.699   0.902  11.718  0.0866 -0.2560  0.6687
  602MOL0     C79366   1.625   1.015  11.753  0.4995 -0.1523 -0.3871
  602MOL0     O79367   1.512   1.008  11.832 -0.4971  0.2579 -0.3025
  602MOL0     C79368   1.440   0.876  11.849 -0.2702 -0.7452  0.0828
  602MOL0     C79369   1.334   0.874  11.738 -0.7182  0.0671  0.0391
  602MOL0     C79370   1.374   0.805  11.606 -0.2730  0.1346  0.6853
  602MOL0     C79371   1.241   0.803  11.517  0.2945  0.9429  0.4440
  602MOL0     C79372   1.254   0.718  11.390  0.5238 -0.5683  0.0228
  602MOL0     C79373   1.339   0.786  11.288  0.6112 -0.2194 -0.3465
  602MOL0     C79374   1.363   0.687  11.178  0.0365  0.6842 -0.2215
  602MOL0     C79375   1.457   0.753  11.084 -0.1553  0.4195  0.2082
  602MOL0    Cl79376   1.380   0.872  10.972  0.1371 -0.1054 -0.5062
  602MOL0     C79377   1.636   1.129  11.671  0.0320 -0.3145 -0.4265
  602MOL0     C79378   1.718   1.136  11.560 -0.4820 -0.9965 -0.8309
  602MOL0     O79379   2.026   1.180  11.537  0.4744 -1.3106 -0.4160
  602MOL0     C79380   2.202   1.200  11.338 -0.2897 -0.7692 -0.1694
  602MOL0     C79381   2.292   1.217  11.226 -0.0246 -0.5700  0.6245
  602MOL0     N79382   3.041   0.997  10.936  0.7390  0.0028 -0.0237
  602MOL0     N79383   3.159   1.045  10.936  0.2476  0.6218  0.0395
  602MOL0     C79384   4.218   1.018  11.174 -0.4354  0.1340 -1.1255
  602MOL0     C79385   4.354   1.006  11.209 -0.1825 -0.2209 -0.2016
  602MOL0     C79386   4.796   1.123  11.292 -0.9301 -0.9158 -0.4156
  602MOL0     C79387   4.825   1.004  11.362 -0.3961 -0.5551  0.1754
  602MOL0     C79388   4.961   0.989  11.397 -1.4460 -0.6004  0.4247
  602MOL0     C79389   5.057   1.084  11.376  0.7643  0.3189  0.1937
  602MOL0     O79390   5.185   1.076  11.417  0.0760 -0.0642 -0.0928
  602MOL0     C79391   5.237   0.941  11.440  0.2325 -1.1842 -0.5504
  602MOL0     C79392   5.388   0.948  11.475  0.6987 -0.7037 -0.0499
  602MOL0     C79393   5.466   1.004  11.365 -0.5781  1.2025 -0.0086
  602MOL0     C79394   5.606   1.047  11.403  0.5004  0.6630  0.3768
  602MOL0     C79395   5.706   1.008  11.298  0.5873  0.1124  0.0323
  602MOL0     C79396   5.796   0.970  11.220  0.2966 -0.0636  0.0333
  602MOL0     C79397   5.027   1.201  11.311 -0.5558  0.1690 -0.2980
  602MOL0     C79398   4.902   1.212  11.261 -0.2513 -0.8077 -0.0920
  602MOL0     H79399   4.432   1.320  11.294  1.5805 -0.6294 -0.6116
  602MOL0     H79400   4.181   1.344  11.254 -0.8852 -0.4503 -0.0922
  602MOL0     H79401   3.931   0.980  11.108  1.2845 -0.2357 -0.6221
  602MOL0     H79402   4.012   1.092  10.986  1.0937 -0.6494  0.1325
  602MOL0     H79403   3.828   1.213  10.947 -1.3396 -1.3730 -0.8822
  602MOL0     H79404   3.805   1.237  11.122  3.7746 -1.6501  2.6708
  602MOL0     H79405   3.639   1.064  11.135 -1.1632 -3.2619 -1.0494
  602MOL0     H79406   3.711   0.983  11.000  0.4513 -0.5653  1.0885
  602MOL0     H79407   3.596   1.151  10.850  1.1585 -2.7126  0.6325
  602MOL0     H79408   3.482   1.093  10.978  1.7538 -2.1915  3.8394
  602MOL0     H79409   3.642   1.354  10.981 -0.7849  1.3126  0.2428
  602MOL0     H79410   3.535   1.309  11.113  2.3867 -1.6136  1.1788
  602MOL0     H79411   3.471   1.409  10.841  2.9892 -0.7766  0.6958
  602MOL0     H79412   3.462   1.490  10.996  0.9488  0.8959 -1.0579
  602MOL0     H79413   3.306   1.270  11.064  1.2872  0.5601  0.0928
  602MOL0     H79414   3.226   1.405  10.998 -0.9433 -1.0033  0.8884
  602MOL0     H79415   3.340   1.200  10.809  2.1440  2.1617 -1.2815
  602MOL0     H79416   3.236   1.341  10.782 -0.2483  1.4831  2.1733
  602MOL0     H79417   2.975   1.286  10.810 -3.1510 -0.4574  1.6962
  602MOL0     H79418   2.786   0.955  10.893  0.1597 -0.1388 -0.2592
  602MOL0     H79419   2.785   1.083  10.768 -0.2203 -2.2990 -0.5929
  602MOL0     H79420   2.723   1.244  10.936  2.3054 -0.4807 -1.7710
  602MOL0     H79421   2.733   1.111  11.057 -1.8765  1.3519  1.1496
  602MOL0     H79422   2.560   1.132  10.806  2.7141  3.1139  0.4207
  602MOL0     H79423   2.551   0.998  10.929 -1.1664  0.6125  0.7261
  602MOL0     H79424   2.507   1.299  10.981 -1.9069  0.6710 -1.2046
  602MOL0     H79425   2.508   1.176  11.106 -2.2964  1.0543  0.7987
  602MOL0     H79426   2.115   1.070  10.991  1.2358 -0.1993  0.2494
  602MOL0     H79427   1.960   1.030  11.182  0.3772 -0.1586  0.4036
  602MOL0     H79428   1.870   0.835  11.597 -0.5689 -1.2296  1.7346
  602MOL0     H79429   1.695   0.808  11.772  0.3862  0.7450  2.5369
  602MOL0     H79430   1.383   0.870  11.942 -1.2158 -2.5956 -0.5726
  602MOL0     H79431   1.507   0.789  11.844 -0.0828 -0.5851 -0.2570
  602MOL0     H79432   1.309   0.975  11.705  1.2033  1.1331  1.6003
  602MOL0     H79433   1.246   0.823  11.778 -0.0930 -0.3864  0.9000
  602MOL0     H79434   1.401   0.700  11.621 -0.7324 -0.3348 -1.4406
  602MOL0     H79435   1.461   0.847  11.555  0.2975  0.2446  1.7113
  602MOL0     H79436   1.171   0.766  11.593  1.1164  1.2950  1.4043
  602MOL0     H79437   1.205   0.903  11.490 -1.5280 -0.2099 -1.7429
  602MOL0     H79438   1.152   0.706  11.354 -0.7901  3.8431  1.5851
  602MOL0     H79439   1.296   0.620  11.415  1.3199  0.1427  1.5752
  602MOL0     H79440   1.435   0.814  11.332  0.6650  0.1783 -0.7146
  602MOL0     H79441   1.302   0.882  11.251  3.2932  1.0973  0.1659
  602MOL0     H79442   1.413   0.598  11.219 -3.0466 -1.2060 -0.3011
  602MOL0     H79443   1.269   0.653  11.133  1.1943 -3.4720  0.0030
  602MOL0     H79444   1.495   0.666  11.030 -2.9044 -0.5971 -0.2672
  602MOL0     H79445   1.539   0.807  11.133 -1.2592  0.6134  1.9443
  602MOL0     H79446   1.578   1.216  11.702  2.2067  0.8639  0.5757
  602MOL0     H79447   1.736   1.229  11.507 -0.7968 -0.6018 -0.2514
  602MOL0     H79448   2.222   1.251  11.432 -0.1388  2.6503 -1.9119
  602MOL0     H79449   2.361   1.300  11.219 -0.9773  0.0918 -2.1320
  602MOL0     H79450   4.157   0.936  11.139 -1.7094  0.4972  0.1305
  602MOL0     H79451   4.408   0.912  11.205 -0.3582 -0.4660  1.9885
  602MOL0     H79452   4.744   0.933  11.378  0.2841 -1.9773 -2.2080
  602MOL0     H79453   4.979   0.897  11.451  1.5123 -1.0586 -1.0998
  602MOL0     H79454   5.213   0.880  11.352 -0.4880  1.6282 -2.4308
  602MOL0     H79455   5.175   0.903  11.521  0.9301 -2.1589 -0.4439
  602MOL0     H79456   5.407   1.007  11.564 -4.0046 -2.2784  2.3529
  602MOL0     H79457   5.417   0.845  11.496  0.1479 -0.9715 -0.5631
  602MOL0     H79458   5.425   1.101  11.337  3.2056  4.0691  3.2078
  602MOL0     H79459   5.464   0.935  11.279  0.2738  0.6619  0.3977
  602MOL0     H79460   5.632   1.149  11.433  5.6525  0.0966 -1.1951
  602MOL0     H79461   5.640   0.986  11.487  1.8607 -1.0496 -1.3079
  602MOL0     H79462   5.878   0.941  11.158  1.2995 -0.5493  1.5293
  602MOL0     H79463   5.111   1.266  11.292  0.6320 -1.0022  0.7409
  602MOL0     H79464   4.874   1.297  11.200 -1.2334  0.5361  2.0767
  603MOL0     O79465   2.678   6.654   1.771  0.3846  0.2173  0.2162
  603MOL0     C79466   2.652   6.570   1.857 -0.0169  0.0855 -0.7760
  603MOL0     O79467   2.575   6.462   1.841 -0.4478  0.1694  0.0684
  603MOL0     C79468   2.514   6.437   1.719  0.4046 -0.1673  1.1701
  603MOL0     C79469   2.583   6.443   1.596 -0.3067 -0.2839  0.7537
  603MOL0     C79470   2.513   6.420   1.479 -0.6097  0.5431 -0.8452
  603MOL0     C79471   2.380   6.386   1.471  0.5690 -0.1068 -0.3757
  603MOL0     O79472   2.321   6.360   1.351 -0.3343 -0.4041 -0.0091
  603MOL0     C79473   2.182   6.359   1.347  1.1418 -0.6665  0.5749
  603MOL0     C79474   2.113   6.230   1.382  0.1350 -0.3818 -1.4836
  603MOL0     C79475   1.973   6.250   1.431  0.1421 -0.1404 -0.1212
  603MOL0     C79476   1.889   6.126   1.436 -0.5257 -0.3878  0.0553
  603MOL0     C79477   1.781   6.147   1.524 -0.5979  0.3006 -0.2401
  603MOL0     C79478   1.702   6.012   1.538  0.4499 -0.6805  0.2921
  603MOL0     C79479   1.614   6.036   1.653 -0.3991  0.1075 -0.0537
  603MOL0     C79480   1.507   5.927   1.647 -0.4320 -0.3401  0.1965
  603MOL0     N79481   1.403   5.935   1.754 -0.1134  0.2594 -0.2698
  603MOL0     C79482   1.429   5.904   1.886  0.5468  0.1983  0.4330
  603MOL0     C79483   1.318   5.942   1.960 -0.1976 -0.3753  0.4742
  603MOL0     C79484   1.297   5.925   2.101  0.9733 -0.6669 -1.0281
  603MOL0     C79485   1.152   5.964   2.151  0.1504 -0.3466  0.5460
  603MOL0     C79486   1.048   5.861   2.123 -0.5585  0.2868 -0.2906
  603MOL0     C79487   0.903   5.895   2.163  0.4326 -0.3828 -0.4522
  603MOL0     O79488   0.878   6.018   2.093 -0.0346  0.2332  0.2347
  603MOL0     C79489   0.761   6.085   2.108  0.0106  0.4281  0.0132
  603MOL0     C79490   0.666   6.050   2.210  0.0628  0.3760  0.5345
  603MOL0     C79491   0.553   6.123   2.229 -0.4040  0.4635  0.1895
  603MOL0     C79492   0.520   6.227   2.143  0.4525  0.4673  0.4708
  603MOL0     C79493   0.400   6.303   2.155 -0.7707  1.0591 -0.4294
  603MOL0     O79494   0.345   6.302   2.279 -0.7109  0.7763 -0.3051
  603MOL0     C79495   0.233   6.377   2.311 -0.0450 -0.0800 -0.1775
  603MOL0     C79496   0.107   6.354   2.247  0.3496  0.3562  0.8603
  603MOL0     C79497  -0.009   6.406   2.288 -0.3609  0.2685 -0.3868
  603MOL0     C79498  -0.004   6.485   2.409  0.9395  0.2961  0.4313
  603MOL0     O79499  -0.116   6.537   2.476  0.0665  0.2637  0.0653
  603MOL0     C79500  -0.219   6.563   2.390  0.1474 -0.3025 -0.0485
  603MOL0     C79501  -0.297   6.677   2.440  0.3003 -0.0250 -0.8052
  603MOL0     C79502  -0.410   6.710   2.344 -1.0299  0.8168 -1.1238
  603MOL0     C79503  -0.446   6.861   2.356  0.0906 -0.1808 -0.0296
  603MOL0     C79504  -0.539   6.904   2.251 -0.3357 -0.1004  0.2743
  603MOL0     C79505  -0.684   6.839   2.258 -0.4516 -0.0658  0.8142
  603MOL0     C79506  -0.773   6.891   2.150 -0.3313 -0.7734 -0.3180
  603MOL0     C79507  -0.898   6.800   2.131 -0.0723 -0.8125 -0.1705
  603MOL0    Cl79508  -1.021   6.889   2.026 -0.0498  0.2399  0.2997
  603MOL0     C79509   0.113   6.492   2.480 -0.2550  0.7314  0.0638
  603MOL0     C79510   0.235   6.452   2.428  0.6884  0.7409 -0.3447
  603MOL0     O79511   0.364   6.377   2.064  0.6518 -0.4431 -0.7047
  603MOL0     C79512   0.608   6.261   2.042 -0.5679  0.7750  0.1469
  603MOL0     C79513   0.729   6.188   2.022  0.5405 -0.9600  0.0715
  603MOL0     N79514   1.235   6.003   1.866 -0.8412  0.5158 -0.1989
  603MOL0     N79515   1.288   6.003   1.746 -0.1026 -0.0007  0.1060
  603MOL0     C79516   2.306   6.377   1.596 -0.3192  0.0360  0.2149
  603MOL0     C79517   2.379   6.396   1.715 -0.2598  0.0887 -0.2614
  603MOL0     C79518   2.699   6.604   1.997 -0.8171  0.0945  0.2624
  603MOL0     C79519   2.685   6.499   2.092  0.2712 -1.4206 -0.5331
  603MOL0     C79520   2.726   6.526   2.223 -0.2460  0.1175  0.1796
  603MOL0     C79521   2.782   6.657   2.255 -0.2970  0.0573  0.1029
  603MOL0     O79522   2.813   6.695   2.387  1.0267  0.0304  0.8283
  603MOL0     C79523   2.820   6.582   2.480 -0.6920 -0.8810 -0.3142
  603MOL0     C79524   2.903   6.641   2.598  0.2516  0.3966  0.1378
  603MOL0     C79525   3.051   6.634   2.558  0.4839  0.3394 -1.8839
  603MOL0     C79526   3.128   6.729   2.652 -0.5607 -0.6744 -0.5180
  603MOL0     C79527   3.274   6.720   2.647 -0.3237  0.0734  0.3606
  603MOL0     C79528   3.398   6.704   2.645  0.1771  0.0161  0.5913
  603MOL0     C79529   2.803   6.751   2.147 -1.0325  0.2367 -0.1362
  603MOL0     C79530   2.765   6.718   2.020 -1.0634 -0.0771 -0.6302
  603MOL0     H79531   2.689   6.465   1.589 -0.5068  0.3617 -0.5303
  603MOL0     H79532   2.570   6.435   1.388 -2.3113  0.1695 -2.0249
  603MOL0     H79533   2.148   6.386   1.246 -2.4307  1.2095  2.0825
  603MOL0     H79534   2.147   6.439   1.413  2.9691  1.3547 -0.7604
  603MOL0     H79535   2.159   6.182   1.468 -0.7822  2.1217  0.5368
  603MOL0     H79536   2.115   6.168   1.292  1.1968  2.2477 -3.4227
  603MOL0     H79537   1.926   6.326   1.369 -0.8082 -0.6800 -0.0774
  603MOL0     H79538   1.970   6.286   1.534 -0.5369 -1.2627  0.2671
  603MOL0     H79539   1.855   6.100   1.336 -1.4973  0.7368  0.0745
  603MOL0     H79540   1.953   6.048   1.479  1.6511  2.1590  1.8430
  603MOL0     H79541   1.725   6.224   1.470  1.9413  0.5872 -2.6917
  603MOL0     H79542   1.829   6.178   1.617  1.3426  0.0116 -1.0956
  603MOL0     H79543   1.769   5.925   1.544  1.7439  0.0010 -2.3693
  603MOL0     H79544   1.647   5.997   1.445  3.6111  1.3085 -2.1458
  603MOL0     H79545   1.669   6.039   1.748 -2.2520  0.8487  1.0385
  603MOL0     H79546   1.567   6.133   1.636  0.5626  0.8180  1.1575
  603MOL0     H79547   1.571   5.838   1.643 -0.5667 -0.4223 -2.4535
  603MOL0     H79548   1.459   5.935   1.548 -2.1050  2.0331  1.1101
  603MOL0     H79549   1.515   5.847   1.920 -0.3009 -0.8466  0.8827
  603MOL0     H79550   1.372   5.987   2.151  1.5531 -2.1253 -0.0048
  603MOL0     H79551   1.327   5.824   2.130  1.7654 -0.3983 -0.8827
  603MOL0     H79552   1.116   6.048   2.091 -1.9213 -1.1577  0.5717
  603MOL0     H79553   1.164   5.990   2.257  2.2145  1.2942  0.0056
  603MOL0     H79554   1.060   5.825   2.020  1.0586  1.4675 -0.5658
  603MOL0     H79555   1.079   5.777   2.185 -1.0288 -0.9766 -1.7164
  603MOL0     H79556   0.902   5.898   2.272 -1.3815 -1.0508 -0.4037
  603MOL0     H79557   0.849   5.805   2.130  0.9478 -0.6374 -0.6112
  603MOL0     H79558   0.655   5.967   2.279 -1.6116  0.8297  0.8441
  603MOL0     H79559   0.469   6.100   2.294 -1.5767  1.1300 -1.0299
  603MOL0     H79560   0.116   6.294   2.156  0.1348  2.3277 -0.5196
  603MOL0     H79561  -0.096   6.376   2.231 -1.6614 -1.0555  2.1360
  603MOL0     H79562  -0.287   6.477   2.386  1.6098 -1.4960 -0.0973
  603MOL0     H79563  -0.181   6.587   2.291  2.8646  3.0423  1.6100
  603MOL0     H79564  -0.227   6.762   2.437  0.4316 -0.0864  0.1857
  603MOL0     H79565  -0.320   6.663   2.546 -0.9476  1.9133 -0.7775
  603MOL0     H79566  -0.498   6.645   2.358 -1.7136  1.0289 -3.9144
  603MOL0     H79567  -0.378   6.695   2.241 -0.0937  1.1033 -0.8838
  603MOL0     H79568  -0.487   6.891   2.453 -2.1722 -1.4018 -0.5410
  603MOL0     H79569  -0.356   6.922   2.341 -0.2800  0.7518  1.2746
  603MOL0     H79570  -0.495   6.883   2.153  1.4015  0.1311  0.9732
  603MOL0     H79571  -0.555   7.012   2.249  1.3351  0.1651 -0.9241
  603MOL0     H79572  -0.728   6.873   2.352  0.0236  1.8590  0.3870
  603MOL0     H79573  -0.666   6.733   2.235 -1.6797  0.3645 -2.8200
  603MOL0     H79574  -0.799   6.995   2.174 -3.4465 -2.0200  2.3725
  603MOL0     H79575  -0.714   6.901   2.058 -1.0800  2.8017 -0.5680
  603MOL0     H79576  -0.956   6.783   2.222  0.3763  1.7458  0.6802
  603MOL0     H79577  -0.852   6.709   2.092 -1.2709 -1.4246 -0.1998
  603MOL0     H79578   0.118   6.550   2.571  1.3993  3.3109 -1.5309
  603MOL0     H79579   0.324   6.462   2.490 -0.6276 -0.2950  1.8540
  603MOL0     H79580   0.589   6.336   1.966  2.5799 -2.1392 -3.9782
  603MOL0     H79581   0.796   6.215   1.942  0.7373 -0.9402  0.2417
  603MOL0     H79582   2.199   6.356   1.596  0.0062 -1.8041 -0.5327
  603MOL0     H79583   2.323   6.385   1.808  0.3351  1.4344  0.2812
  603MOL0     H79584   2.645   6.402   2.064 -0.1973 -1.5641  0.5670
  603MOL0     H79585   2.694   6.449   2.293 -1.7179  1.6441  1.2635
  603MOL0     H79586   2.874   6.495   2.441 -1.2179 -2.5871  2.4993
  603MOL0     H79587   2.724   6.551   2.521 -0.4900  0.8893  1.6686
  603MOL0     H79588   2.870   6.744   2.615 -0.0641  0.2583  0.3960
  603MOL0     H79589   2.880   6.579   2.686 -3.1333 -0.0338 -0.9030
  603MOL0     H79590   3.057   6.682   2.460 -3.5863  0.2721 -2.3365
  603MOL0     H79591   3.090   6.532   2.560  0.6968  0.3988  0.6008
  603MOL0     H79592   3.106   6.834   2.632  1.5030  0.0028  0.4756
  603MOL0     H79593   3.110   6.712   2.759 -0.0698 -0.4876 -0.4028
  603MOL0     H79594   3.504   6.693   2.633  0.5060  1.0626  2.2314
  603MOL0     H79595   2.862   6.836   2.180  0.0804 -0.5581 -0.0113
  603MOL0     H79596   2.781   6.797   1.948 -1.6614  0.1160 -0.5515
  604MOL0     O79597   6.256   2.789   0.432  1.3917 -0.4954  0.2207
  604MOL0     C79598   6.268   2.903   0.477 -0.4439 -0.7902 -0.5956
  604MOL0     O79599   6.181   3.005   0.484 -0.8370  0.7563  0.7236
  604MOL0     C79600   6.060   2.979   0.418  0.0458  0.0257 -0.7643
  604MOL0     C79601   5.948   2.954   0.496 -0.2704  0.7584 -0.0743
  604MOL0     C79602   5.822   2.912   0.441  0.2552  1.0179  0.4559
  604MOL0     C79603   5.814   2.920   0.298  1.6530 -0.2341  0.0330
  604MOL0     O79604   5.692   2.890   0.246 -0.1731 -0.1039  0.3584
  604MOL0     C79605   5.661   2.961   0.127 -0.5205  0.8541 -0.2992
  604MOL0     C79606   5.510   2.956   0.120  0.4557 -0.5720 -0.8042
  604MOL0     C79607   5.472   3.081   0.045  0.1548 -0.1785 -0.2885
  604MOL0     C79608   5.320   3.102   0.055 -0.0451  0.2567  0.4968
  604MOL0     C79609   5.283   3.225  -0.033 -0.1324  0.2520  0.0500
  604MOL0     C79610   5.357   3.356  -0.022  0.5104 -0.0890  0.6582
  604MOL0     C79611   5.352   3.412   0.123 -0.2837 -0.1547  0.2500
  604MOL0     C79612   5.242   3.519   0.138 -0.0953  0.0119  1.0075
  604MOL0     N79613   5.107   3.453   0.162  0.8392 -0.2644  0.1351
  604MOL0     C79614   5.083   3.345   0.250 -0.4064  0.1384  0.4826
  604MOL0     C79615   4.956   3.316   0.243 -0.4963  0.2926  0.4293
  604MOL0     C79616   4.886   3.208   0.324 -0.7766  0.3118 -0.4809
  604MOL0     C79617   4.848   3.260   0.459  0.1301  0.1521 -0.8221
  604MOL0     C79618   4.763   3.385   0.454  0.0613 -0.8604 -0.4554
  604MOL0     C79619   4.617   3.350   0.423 -0.7049  0.4152  0.6790
  604MOL0     O79620   4.565   3.268   0.518 -0.5938  0.1577 -0.2227
  604MOL0     C79621   4.429   3.257   0.526 -0.3195 -0.4207  0.2639
  604MOL0     C79622   4.389   3.170   0.628  0.2059 -0.2371  0.6138
  604MOL0     C79623   4.255   3.146   0.660 -0.1787 -0.0984 -0.5596
  604MOL0     C79624   4.156   3.219   0.582 -0.4130  0.7387 -0.7461
  604MOL0     C79625   4.015   3.170   0.601  0.2540 -0.5103 -0.3300
  604MOL0     O79626   3.996   3.074   0.700  0.1321  0.4383  0.7436
  604MOL0     C79627   3.877   3.006   0.681  0.0236  0.3911 -0.6916
  604MOL0     C79628   3.773   3.020   0.777 -0.1079  0.3533 -0.0959
  604MOL0     C79629   3.659   2.940   0.774  0.0740  0.3066  0.2601
  604MOL0     C79630   3.654   2.848   0.667 -0.3069  0.5965  0.1796
  604MOL0     O79631   3.540   2.771   0.655 -0.3449  0.0944  0.1999
  604MOL0     C79632   3.434   2.781   0.758  0.3493  0.2460 -0.0229
  604MOL0     C79633   3.308   2.700   0.712  0.0000 -0.3374 -0.0378
  604MOL0     C79634   3.210   2.694   0.824  0.1879  0.4174  0.2309
  604MOL0     C79635   3.073   2.627   0.777 -0.0536 -0.9727  0.1973
  604MOL0     C79636   2.981   2.588   0.880 -0.2306  0.2577  0.2651
  604MOL0     C79637   2.963   2.690   0.990 -0.0998  0.1676 -0.5241
  604MOL0     C79638   2.854   2.638   1.084  0.2842  0.0682 -0.5309
  604MOL0     C79639   2.783   2.744   1.160 -0.3544 -0.7133 -1.0091
  604MOL0    Cl79640   2.904   2.819   1.292  0.0508  0.4818  0.0298
  604MOL0     C79641   3.753   2.837   0.572  0.2439  0.4397 -0.7256
  604MOL0     C79642   3.863   2.912   0.582 -0.7740  0.2875 -0.2791
  604MOL0     O79643   3.934   3.204   0.509  0.2310  0.5388  0.0036
  604MOL0     C79644   4.193   3.302   0.476 -0.6015  0.2244  0.0748
  604MOL0     C79645   4.323   3.319   0.445  0.1216 -0.2739  0.5197
  604MOL0     N79646   4.901   3.401   0.147  0.3802 -0.1901 -0.7231
  604MOL0     N79647   4.988   3.480   0.098  0.6069  0.2909  1.0794
  604MOL0     C79648   5.923   2.951   0.219 -0.5658  0.2548  0.1445
  604MOL0     C79649   6.047   2.985   0.278  0.5065  0.2657 -0.1261
  604MOL0     C79650   6.406   2.928   0.539  0.7085 -0.3102  0.2962
  604MOL0     C79651   6.509   2.839   0.522 -0.6042 -0.3219 -0.3696
  604MOL0     C79652   6.639   2.868   0.552 -0.7917  0.3400  0.2589
  604MOL0     C79653   6.670   2.995   0.603  0.6391 -0.1297  0.1752
  604MOL0     O79654   6.808   3.016   0.625  0.1183  0.7753  0.0784
  604MOL0     C79655   6.855   3.149   0.648 -0.0507 -0.3636  0.6421
  604MOL0     C79656   7.008   3.154   0.627  0.1085 -0.2769  0.8599
  604MOL0     C79657   7.081   3.089   0.743  0.1667  0.2107 -0.0808
  604MOL0     C79658   7.227   3.078   0.717  0.1154 -0.5033  0.0460
  604MOL0     C79659   7.279   3.216   0.678 -0.1581 -0.2135 -0.0761
  604MOL0     C79660   7.317   3.326   0.640  0.5380 -0.0302  0.4471
  604MOL0     C79661   6.566   3.093   0.606 -0.1311 -0.4185 -0.7515
  604MOL0     C79662   6.439   3.059   0.584 -0.0926  0.4922 -0.1958
  604MOL0     H79663   5.964   2.962   0.603  3.4160 -0.1516 -0.3970
  604MOL0     H79664   5.752   2.879   0.517  0.4229 -0.3619  0.0520
  604MOL0     H79665   5.697   2.920   0.032 -0.5052 -0.5109  0.2727
  604MOL0     H79666   5.703   3.062   0.137  0.4918  0.2178  3.6575
  604MOL0     H79667   5.472   2.948   0.222 -1.0504 -2.5995 -1.4421
  604MOL0     H79668   5.487   2.862   0.069  0.0214  0.7337 -3.1496
  604MOL0     H79669   5.501   3.084  -0.060  1.0460  0.9303 -0.0314
  604MOL0     H79670   5.509   3.171   0.096 -1.6465  1.1728 -1.2153
  604MOL0     H79671   5.271   3.012   0.016  1.7602 -0.0174 -1.3329
  604MOL0     H79672   5.270   3.120   0.150 -0.4352 -2.1956  0.8283
  604MOL0     H79673   5.177   3.248  -0.043 -0.0580  1.4009  1.5210
  604MOL0     H79674   5.300   3.186  -0.134 -1.3527  3.0728 -1.3764
  604MOL0     H79675   5.316   3.430  -0.091 -1.0392 -0.0026  1.6103
  604MOL0     H79676   5.462   3.347  -0.050  1.1794  2.5835  1.9862
  604MOL0     H79677   5.338   3.326   0.189 -0.6667 -1.1442 -1.0780
  604MOL0     H79678   5.453   3.450   0.141 -0.3906 -0.4302  1.5730
  604MOL0     H79679   5.241   3.572   0.042 -1.3089 -1.1121  0.3763
  604MOL0     H79680   5.266   3.589   0.219  0.9329 -1.2623  1.8364
  604MOL0     H79681   5.141   3.283   0.317 -1.7115 -1.5640  0.1090
  604MOL0     H79682   4.952   3.122   0.337 -2.6853 -1.2421 -0.6872
  604MOL0     H79683   4.804   3.160   0.270  1.9196 -1.8080 -2.9995
  604MOL0     H79684   4.935   3.281   0.522 -0.2088  0.0668 -0.3185
  604MOL0     H79685   4.788   3.181   0.506  1.5733  0.9935  2.8331
  604MOL0     H79686   4.765   3.439   0.549  0.2621  2.6896 -2.2998
  604MOL0     H79687   4.809   3.454   0.382  1.3967  1.3383  2.3058
  604MOL0     H79688   4.605   3.298   0.327 -3.7812 -0.9495  1.6635
  604MOL0     H79689   4.553   3.437   0.407 -1.3253 -0.2380 -0.6372
  604MOL0     H79690   4.473   3.114   0.667 -0.5877 -2.3053 -0.5293
  604MOL0     H79691   4.232   3.075   0.739 -1.3401  2.0825  1.1797
  604MOL0     H79692   3.789   3.095   0.854 -2.5231  2.6909 -1.7072
  604MOL0     H79693   3.586   2.978   0.844  3.8349  2.5979  3.3075
  604MOL0     H79694   3.400   2.885   0.766 -1.0893 -0.1810 -0.3387
  604MOL0     H79695   3.476   2.735   0.848  0.1492 -1.5920 -0.8206
  604MOL0     H79696   3.343   2.597   0.697  0.7244 -0.6460  3.0063
  604MOL0     H79697   3.276   2.749   0.620 -0.6705 -3.2061 -1.4508
  604MOL0     H79698   3.196   2.791   0.873 -1.5245 -0.3533  1.3580
  604MOL0     H79699   3.248   2.637   0.909  2.0008  0.9452 -0.1872
  604MOL0     H79700   3.024   2.705   0.717 -1.6753 -2.6942 -0.8182
  604MOL0     H79701   3.099   2.536   0.723  0.4086 -0.2901 -0.7565
  604MOL0     H79702   3.026   2.507   0.938  0.3172 -0.2276 -0.8174
  604MOL0     H79703   2.887   2.552   0.837  2.4211 -2.2423 -4.1591
  604MOL0     H79704   2.919   2.780   0.946 -0.2317  0.1497 -0.4281
  604MOL0     H79705   3.049   2.716   1.051 -0.7291  0.4944  0.2293
  604MOL0     H79706   2.774   2.596   1.022 -0.3344 -1.9919  1.5261
  604MOL0     H79707   2.889   2.557   1.149 -1.1917  0.3502  0.6534
  604MOL0     H79708   2.704   2.692   1.215 -0.9018 -0.4751 -1.5571
  604MOL0     H79709   2.740   2.816   1.090 -0.5472 -0.3738 -0.5444
  604MOL0     H79710   3.734   2.766   0.493  1.7026  0.4567 -1.1204
  604MOL0     H79711   3.946   2.912   0.512 -0.6997  2.3307 -0.2689
  604MOL0     H79712   4.124   3.338   0.400  0.3982  0.0222 -0.9492
  604MOL0     H79713   4.352   3.385   0.364  2.1857 -0.5941  0.9507
  604MOL0     H79714   5.914   2.957   0.111  0.7009  0.8139  0.0550
  604MOL0     H79715   6.126   3.017   0.211  1.5604 -0.6094  0.6464
  604MOL0     H79716   6.480   2.744   0.479  0.0756 -0.0039 -1.5936
  604MOL0     H79717   6.717   2.794   0.537 -1.2347 -0.0341 -0.2368
  604MOL0     H79718   6.841   3.179   0.753  0.3634  1.4952  0.2172
  604MOL0     H79719   6.801   3.218   0.582 -1.0961 -0.9394  0.8755
  604MOL0     H79720   7.033   3.116   0.527 -3.4104  0.7672 -0.5980
  604MOL0     H79721   7.032   3.261   0.628 -1.8004  0.2146  3.5629
  604MOL0     H79722   7.032   2.992   0.752  0.5622  0.0755  0.7058
  604MOL0     H79723   7.065   3.151   0.831  0.2130  1.8793 -1.2024
  604MOL0     H79724   7.269   3.043   0.812 -1.6448  0.5799  1.2800
  604MOL0     H79725   7.266   3.009   0.641  0.2637 -0.0202 -0.3253
  604MOL0     H79726   7.346   3.418   0.594  1.0467 -0.5966 -0.4045
  604MOL0     H79727   6.597   3.193   0.635 -0.1375 -1.3652  3.0625
  604MOL0     H79728   6.369   3.142   0.590  0.0445  0.5003  2.4007
  605MOL0     O79729   2.956   4.470   5.756  0.3007 -0.6092  0.2103
  605MOL0     C79730   3.059   4.524   5.758 -0.4878  0.5126 -0.2851
  605MOL0     O79731   3.086   4.642   5.827  0.2919  0.0561 -0.0456
  605MOL0     C79732   2.987   4.702   5.884  0.1496  0.5610 -0.9161
  605MOL0     C79733   2.929   4.815   5.826 -0.7062  0.7376 -0.6049
  605MOL0     C79734   2.814   4.859   5.888  0.3245 -0.7386  0.1682
  605MOL0     C79735   2.776   4.830   6.019 -0.7367  0.5636  0.1621
  605MOL0     O79736   2.676   4.909   6.063  0.0374 -0.0587  0.5893
  605MOL0     C79737   2.628   4.881   6.197 -0.7263  0.0797 -0.7345
  605MOL0     C79738   2.523   4.778   6.224  0.1033  0.2779 -0.5974
  605MOL0     C79739   2.400   4.812   6.131  0.2311  0.8246 -0.3294
  605MOL0     C79740   2.294   4.900   6.202  0.2165  0.0616  0.1258
  605MOL0     C79741   2.215   4.977   6.091  0.2590  0.1438  0.9483
  605MOL0     C79742   2.106   5.057   6.159  0.5125  0.1004  0.1314
  605MOL0     C79743   2.018   5.124   6.047 -0.9458  0.4718 -0.6288
  605MOL0     C79744   1.922   5.036   5.975 -0.0324 -0.0558 -0.7755
  605MOL0     N79745   1.829   4.979   6.068  0.2242 -0.5911 -0.5421
  605MOL0     C79746   1.715   5.040   6.126  0.3657  0.2490  0.1600
  605MOL0     C79747   1.631   4.947   6.171 -0.0126 -0.0628  0.3809
  605MOL0     C79748   1.507   4.966   6.256  0.0357  0.6476 -0.1469
  605MOL0     C79749   1.396   5.030   6.166  0.1137 -0.1115 -1.1476
  605MOL0     C79750   1.281   5.072   6.254 -0.3051  0.6212 -0.3523
  605MOL0     C79751   1.154   5.111   6.167 -0.1426  0.5699  0.2876
  605MOL0     O79752   1.051   5.013   6.180 -0.1832  0.4649  0.2297
  605MOL0     C79753   0.920   5.060   6.173 -0.4366 -0.6222  0.6998
  605MOL0     C79754   0.878   5.154   6.075  0.3710  0.4466  0.2079
  605MOL0     C79755   0.736   5.181   6.063 -0.5284  0.2502  0.0102
  605MOL0     C79756   0.641   5.111   6.141 -1.0281  0.3009  1.3099
  605MOL0     C79757   0.498   5.135   6.125  1.6559  0.2639  0.6106
  605MOL0     O79758   0.459   5.231   6.034 -0.0391 -0.2450  0.2041
  605MOL0     C79759   0.328   5.256   6.010 -1.0942 -1.1962 -1.1164
  605MOL0     C79760   0.242   5.175   5.934 -0.2960 -0.1343 -0.1070
  605MOL0     C79761   0.105   5.194   5.911 -0.2468  0.5473 -0.1997
  605MOL0     C79762   0.053   5.314   5.950  1.5050  0.3844  0.1510
  605MOL0     O79763  -0.079   5.335   5.928 -0.0846 -0.0869  0.5550
  605MOL0     C79764  -0.153   5.412   6.016  0.5638 -0.1726 -0.3160
  605MOL0     C79765  -0.304   5.391   6.000  1.2491 -0.2501  0.9869
  605MOL0     C79766  -0.360   5.439   5.860  0.0895  0.3726  0.3255
  605MOL0     C79767  -0.500   5.378   5.855 -0.1276  0.9243  0.8797
  605MOL0     C79768  -0.581   5.428   5.737  0.3494  0.1067  0.8780
  605MOL0     C79769  -0.695   5.329   5.695 -0.4496 -0.3334 -0.4058
  605MOL0     C79770  -0.817   5.353   5.791 -0.6781 -0.0262 -0.5447
  605MOL0     C79771  -0.934   5.243   5.783 -0.4798  0.3417 -0.8934
  605MOL0    Cl79772  -0.864   5.073   5.819 -0.3614  0.0221  0.2235
  605MOL0     C79773   0.133   5.405   6.026  0.1992  0.2174 -0.4841
  605MOL0     C79774   0.269   5.371   6.057  0.0911  0.4936  0.2355
  605MOL0     O79775   0.421   5.066   6.195  1.0476  0.3510  0.6754
  605MOL0     C79776   0.687   5.022   6.238 -0.2510  0.9928  0.6817
  605MOL0     C79777   0.821   4.994   6.248  0.4525  0.1423  0.4076
  605MOL0     N79778   1.692   4.825   6.143  0.1524 -0.2259 -0.1882
  605MOL0     N79779   1.802   4.846   6.075 -0.1736 -0.4478 -0.2708
  605MOL0     C79780   2.849   4.733   6.083 -0.4148  0.7305  0.5030
  605MOL0     C79781   2.951   4.656   6.011  0.3276 -0.3220 -0.1411
  605MOL0     C79782   3.169   4.467   5.681 -0.0007  0.2433 -0.6386
  605MOL0     C79783   3.289   4.531   5.680 -0.2323 -0.6008  1.0284
  605MOL0     C79784   3.402   4.476   5.613 -0.3318 -0.2029 -0.0688
  605MOL0     C79785   3.397   4.351   5.559  0.3493 -0.1919  0.8418
  605MOL0     O79786   3.512   4.296   5.488  0.2129 -0.0235  0.1062
  605MOL0     C79787   3.643   4.320   5.530  0.6192  0.4085 -0.2940
  605MOL0     C79788   3.656   4.242   5.667 -0.6343 -0.6503 -0.3234
  605MOL0     C79789   3.803   4.237   5.713 -0.7453  0.4393 -0.3266
  605MOL0     C79790   3.816   4.191   5.860 -0.1857  0.0654  0.1303
  605MOL0     C79791   3.941   4.129   5.895  0.3129  1.0032 -0.3005
  605MOL0     C79792   4.048   4.079   5.924 -0.4254 -1.1203 -0.8659
  605MOL0     C79793   3.267   4.295   5.540 -0.6022 -0.5286 -1.4937
  605MOL0     C79794   3.158   4.350   5.598  0.2810 -0.5659 -0.1682
  605MOL0     H79795   2.950   4.842   5.724 -3.6788  2.1238 -0.9609
  605MOL0     H79796   2.743   4.914   5.827 -0.1271 -4.1269 -2.7419
  605MOL0     H79797   2.588   4.977   6.231  1.9838  1.2445 -0.6174
  605MOL0     H79798   2.704   4.860   6.273 -1.1233 -1.1274 -0.6544
  605MOL0     H79799   2.484   4.774   6.326 -2.5574 -5.2724 -1.4923
  605MOL0     H79800   2.577   4.685   6.203 -0.3085 -0.0020 -0.4084
  605MOL0     H79801   2.355   4.714   6.110 -0.8925  1.4696 -1.0452
  605MOL0     H79802   2.430   4.848   6.032  1.5387  2.2513  0.5526
  605MOL0     H79803   2.222   4.848   6.265 -0.0696 -0.3455 -0.5271
  605MOL0     H79804   2.345   4.979   6.259  0.2845 -1.1716  1.8269
  605MOL0     H79805   2.164   4.904   6.027 -2.9785 -0.0330  3.4908
  605MOL0     H79806   2.279   5.032   6.020 -0.4218 -1.6276 -1.1547
  605MOL0     H79807   2.151   5.133   6.223  1.7807  0.8675 -1.5916
  605MOL0     H79808   2.036   5.007   6.227  0.9956 -0.2137  0.4020
  605MOL0     H79809   1.955   5.204   6.086 -0.2152  1.4270 -1.3383
  605MOL0     H79810   2.088   5.157   5.969 -2.6923 -0.3733 -2.6685
  605MOL0     H79811   1.987   4.956   5.938 -1.0295 -0.5966 -1.3967
  605MOL0     H79812   1.872   5.095   5.899  0.4943  0.1470 -0.9673
  605MOL0     H79813   1.693   5.146   6.124 -0.5145  0.0878 -2.1166
  605MOL0     H79814   1.512   5.017   6.352 -4.8615  0.5516  0.4427
  605MOL0     H79815   1.469   4.864   6.270  1.7383 -0.4043 -2.5337
  605MOL0     H79816   1.369   4.956   6.091 -0.7720  0.1733 -1.1263
  605MOL0     H79817   1.437   5.124   6.128  0.1896  0.7086  0.8076
  605MOL0     H79818   1.257   4.984   6.314 -1.2623 -2.0223 -4.1857
  605MOL0     H79819   1.308   5.152   6.323 -0.0778 -1.4311  2.0522
  605MOL0     H79820   1.191   5.122   6.065  1.7483 -0.1527  0.8567
  605MOL0     H79821   1.117   5.207   6.202 -0.7168 -0.2227  1.9793
  605MOL0     H79822   0.940   5.200   5.999 -0.0527  0.1665 -0.3193
  605MOL0     H79823   0.701   5.253   5.989 -1.7720  1.5675  1.7971
  605MOL0     H79824   0.282   5.081   5.896 -0.1138 -0.5577  1.1121
  605MOL0     H79825   0.044   5.126   5.853 -0.8278  0.1446  0.8766
  605MOL0     H79826  -0.134   5.518   5.997 -0.3603  0.1191  0.2930
  605MOL0     H79827  -0.133   5.375   6.117  2.1685 -1.1244 -0.9566
  605MOL0     H79828  -0.363   5.450   6.071 -3.1724 -0.1506 -2.3143
  605MOL0     H79829  -0.335   5.287   6.018 -3.3701  0.6320 -0.4082
  605MOL0     H79830  -0.292   5.401   5.783 -0.2923 -2.8845  1.4426
  605MOL0     H79831  -0.365   5.548   5.853 -2.5980  0.2323 -1.1611
  605MOL0     H79832  -0.486   5.270   5.839  0.0812  1.3839 -3.0307
  605MOL0     H79833  -0.562   5.384   5.945 -0.9264 -2.8603  0.7741
  605MOL0     H79834  -0.520   5.440   5.648 -0.0349  0.0388  0.6055
  605MOL0     H79835  -0.621   5.528   5.760  2.9034  1.0888  1.4921
  605MOL0     H79836  -0.663   5.225   5.706 -0.3673 -0.2352  0.3030
  605MOL0     H79837  -0.710   5.348   5.588 -0.9498 -1.4142 -0.5387
  605MOL0     H79838  -0.781   5.354   5.894  2.1122  1.2574 -1.4245
  605MOL0     H79839  -0.870   5.445   5.766 -2.4240 -0.4216  1.5165
  605MOL0     H79840  -0.987   5.236   5.687  1.2455  0.1723 -1.8621
  605MOL0     H79841  -1.014   5.270   5.853  1.0397 -0.5016  1.2621
  605MOL0     H79842   0.080   5.489   6.069  1.3287  1.1876 -0.9350
  605MOL0     H79843   0.332   5.430   6.122 -1.8427  1.7460  1.0553
  605MOL0     H79844   0.626   4.965   6.306 -1.1748  1.0369 -0.0859
  605MOL0     H79845   0.861   4.920   6.317  1.7806 -1.0888 -1.5648
  605MOL0     H79846   2.843   4.712   6.189 -1.1129 -2.2838 -0.0527
  605MOL0     H79847   3.004   4.572   6.056 -0.2269 -2.1822 -2.7248
  605MOL0     H79848   3.298   4.632   5.719  0.0127 -0.0887 -0.2813
  605MOL0     H79849   3.489   4.538   5.632 -0.1296 -1.0101  1.9522
  605MOL0     H79850   3.656   4.426   5.555  1.9865 -0.1805  1.7016
  605MOL0     H79851   3.712   4.283   5.454  0.6177  2.7402 -1.5378
  605MOL0     H79852   3.613   4.311   5.741  0.9501  2.1419 -1.8323
  605MOL0     H79853   3.609   4.144   5.657 -0.5446 -0.5752 -1.7228
  605MOL0     H79854   3.847   4.335   5.694 -2.5688  1.3659 -0.0609
  605MOL0     H79855   3.855   4.181   5.634 -0.8491  2.4756 -1.9374
  605MOL0     H79856   3.800   4.274   5.929 -0.0545 -1.4732  2.1080
  605MOL0     H79857   3.733   4.123   5.882 -1.4138  2.0360  1.8497
  605MOL0     H79858   4.137   4.025   5.949 -0.1750 -0.2236  0.2956
  605MOL0     H79859   3.257   4.201   5.487 -0.7237  0.5842 -3.5427
  605MOL0     H79860   3.063   4.298   5.588 -0.2245  0.2775  0.0634
  606MOL0     O79861   5.790   3.708   1.115  0.3762  0.5564  0.6299
  606MOL0     C79862   5.884   3.641   1.151  0.7306 -0.5220 -0.4661
  606MOL0     O79863   5.894   3.509   1.135  0.2252  0.1417 -1.2014
  606MOL0     C79864   5.789   3.427   1.104 -0.5757 -0.6543  0.4757
  606MOL0     C79865   5.657   3.452   1.136 -0.5580  0.0404  0.6775
  606MOL0     C79866   5.569   3.351   1.088 -0.0363  0.4980 -0.1799
  606MOL0     C79867   5.607   3.234   1.020  0.2669 -0.0929  0.9270
  606MOL0     O79868   5.513   3.153   0.962  0.1727 -0.1835 -0.4263
  606MOL0     C79869   5.400   3.118   1.042 -0.7033  0.1871  0.7231
  606MOL0     C79870   5.347   2.984   0.963 -0.8387  0.0841  1.4820
  606MOL0     C79871   5.224   2.922   1.033 -0.8978  0.4798  0.1496
  606MOL0     C79872   5.183   2.795   0.957 -0.5939 -0.5841  0.0785
  606MOL0     C79873   5.085   2.717   1.043 -0.2445  0.0453 -0.5836
  606MOL0     C79874   5.156   2.617   1.147 -0.2253 -0.2415  0.7254
  606MOL0     C79875   5.059   2.577   1.251  0.4509 -0.5901  0.1352
  606MOL0     C79876   4.957   2.493   1.181 -0.9666 -0.1460  0.4078
  606MOL0     N79877   4.891   2.412   1.290  0.3415 -0.2615 -0.1955
  606MOL0     C79878   4.898   2.281   1.313 -0.8573 -0.2339 -1.2342
  606MOL0     C79879   4.812   2.261   1.416 -0.5151  0.1288 -0.3032
  606MOL0     C79880   4.791   2.128   1.482  0.7027 -0.4184 -1.3465
  606MOL0     C79881   4.716   2.033   1.390 -0.4126 -0.0532  0.7995
  606MOL0     C79882   4.564   2.051   1.411 -0.4261  0.2327 -0.2131
  606MOL0     C79883   4.470   1.938   1.357  0.0708  0.5279 -0.5161
  606MOL0     O79884   4.341   2.003   1.343  0.2644  0.3349  0.6377
  606MOL0     C79885   4.235   1.915   1.313 -0.4841  0.5141 -0.2259
  606MOL0     C79886   4.246   1.780   1.296 -0.5973  0.1050 -1.3805
  606MOL0     C79887   4.128   1.703   1.273  0.0085 -0.6423 -0.1358
  606MOL0     C79888   4.005   1.769   1.241 -0.4654  0.3869  0.1522
  606MOL0     C79889   3.887   1.686   1.195 -0.5269 -0.1947  0.3595
  606MOL0     O79890   3.769   1.754   1.157 -0.1502  0.0135  0.2071
  606MOL0     C79891   3.649   1.686   1.149 -0.4276  0.0156  1.1597
  606MOL0     C79892   3.585   1.641   1.257  0.0941  0.1516  0.4512
  606MOL0     C79893   3.470   1.567   1.255  0.9753 -0.7058 -0.1527
  606MOL0     C79894   3.419   1.532   1.128  0.0463  0.1410 -0.3564
  606MOL0     O79895   3.305   1.459   1.095 -0.6613 -0.3578 -1.2376
  606MOL0     C79896   3.218   1.448   1.200  0.3465  0.3015  0.2877
  606MOL0     C79897   3.085   1.403   1.125 -0.5176 -0.4423 -0.0661
  606MOL0     C79898   2.951   1.415   1.194 -0.0516 -0.7515  0.1977
  606MOL0     C79899   2.921   1.534   1.277 -0.7300 -0.7955 -0.2780
  606MOL0     C79900   2.780   1.540   1.319 -0.0692 -0.0861 -0.3642
  606MOL0     C79901   2.745   1.671   1.390  0.4265 -0.0142 -0.9159
  606MOL0     C79902   2.604   1.676   1.439 -0.4078 -0.4861  0.5694
  606MOL0     C79903   2.538   1.816   1.443  0.2661 -0.6235  0.0311
  606MOL0    Cl79904   2.638   1.927   1.528 -0.1042  0.3196  0.0974
  606MOL0     C79905   3.476   1.588   1.017 -1.7426 -0.0273 -0.5796
  606MOL0     C79906   3.594   1.656   1.025  0.0806 -0.2364 -0.1342
  606MOL0     O79907   3.901   1.567   1.196  0.1084 -0.3904 -0.4181
  606MOL0     C79908   4.000   1.908   1.256  1.0242  1.2341  0.1715
  606MOL0     C79909   4.109   1.976   1.292  1.1331  0.7250 -0.5092
  606MOL0     N79910   4.749   2.371   1.446 -0.2712  0.1077 -0.2235
  606MOL0     N79911   4.803   2.470   1.377  0.5214 -1.0229 -0.7290
  606MOL0     C79912   5.744   3.218   0.995 -0.3101  1.2537  0.3191
  606MOL0     C79913   5.838   3.314   1.033  0.0709  1.4228 -0.8403
  606MOL0     C79914   6.003   3.719   1.203  0.6290  0.2334 -0.6500
  606MOL0     C79915   6.129   3.657   1.187 -0.0175  0.3397  0.1409
  606MOL0     C79916   6.240   3.712   1.247 -0.7682 -0.9392  0.0296
  606MOL0     C79917   6.228   3.832   1.326 -1.1929 -0.2855  0.3705
  606MOL0     O79918   6.336   3.897   1.383 -0.2962 -0.6439  0.0227
  606MOL0     C79919   6.465   3.837   1.397  0.4893 -0.7277  0.1195
  606MOL0     C79920   6.557   3.855   1.278  0.5245  0.5702  0.5189
  606MOL0     C79921   6.668   3.748   1.287 -0.0660 -0.2559  0.4351
  606MOL0     C79922   6.763   3.750   1.162 -0.1054  0.2510  0.8521
  606MOL0     C79923   6.689   3.715   1.044  0.8309  1.5772 -0.1994
  606MOL0     C79924   6.636   3.686   0.933  1.0622  0.2117 -0.1019
  606MOL0     C79925   6.107   3.884   1.332  0.3526  0.5388 -0.0273
  606MOL0     C79926   5.989   3.834   1.270  0.2433  0.7469 -0.1195
  606MOL0     H79927   5.629   3.547   1.181  0.7437  0.3581  0.8366
  606MOL0     H79928   5.463   3.368   1.102 -0.0571  0.0660  0.1972
  606MOL0     H79929   5.321   3.193   1.036 -2.6597 -1.6102  2.3754
  606MOL0     H79930   5.421   3.096   1.147 -2.1268 -0.9299  0.8086
  606MOL0     H79931   5.433   2.917   0.965 -1.0041 -0.2299 -0.2500
  606MOL0     H79932   5.327   3.003   0.858  3.9091 -1.8660 -0.0422
  606MOL0     H79933   5.143   2.996   1.028 -1.8065 -0.4802  0.2086
  606MOL0     H79934   5.261   2.891   1.131  1.1429 -1.0348 -1.0117
  606MOL0     H79935   5.142   2.818   0.858  0.7356  1.6440 -0.0121
  606MOL0     H79936   5.267   2.730   0.932  1.3112  1.0237  1.9995
  606MOL0     H79937   5.000   2.679   0.985 -2.0791  2.4970  0.3003
  606MOL0     H79938   5.037   2.796   1.102  3.5854  1.8699  0.3813
  606MOL0     H79939   5.239   2.671   1.194  2.2071 -2.2407 -1.0117
  606MOL0     H79940   5.207   2.531   1.102 -1.0485 -0.9608  1.1435
  606MOL0     H79941   5.102   2.527   1.338 -2.5568  1.1088  2.8316
  606MOL0     H79942   5.012   2.663   1.300  0.1987 -0.4850 -0.2816
  606MOL0     H79943   5.013   2.434   1.108  1.3129  0.2569  1.7346
  606MOL0     H79944   4.882   2.554   1.129  0.3313  0.5604 -0.6745
  606MOL0     H79945   4.948   2.196   1.267  0.1218  0.4810 -1.5556
  606MOL0     H79946   4.740   2.143   1.578  1.6213  1.6277 -1.1040
  606MOL0     H79947   4.891   2.084   1.489  0.4973 -0.6130  2.2379
  606MOL0     H79948   4.745   1.931   1.415 -0.7931 -0.0257  1.3810
  606MOL0     H79949   4.730   2.055   1.284  2.0393  2.3394  1.5113
  606MOL0     H79950   4.543   2.062   1.518  1.5370 -2.8499  0.6003
  606MOL0     H79951   4.540   2.143   1.357 -0.8534 -1.2395 -2.7271
  606MOL0     H79952   4.468   1.849   1.421  2.0131  1.0560  0.3386
  606MOL0     H79953   4.521   1.901   1.267  1.0901 -0.8629  0.5820
  606MOL0     H79954   4.338   1.725   1.316  0.3841  2.8285  3.0853
  606MOL0     H79955   4.134   1.594   1.274 -1.7830 -0.8121 -2.0918
  606MOL0     H79956   3.626   1.668   1.354 -0.0176  1.1459  0.2369
  606MOL0     H79957   3.412   1.530   1.339 -1.0244  0.5968 -0.8854
  606MOL0     H79958   3.206   1.542   1.253  0.7108  0.9299 -0.7129
  606MOL0     H79959   3.254   1.371   1.269 -0.3978 -2.0383 -1.7699
  606MOL0     H79960   3.098   1.300   1.089  0.2665 -0.3818  0.0473
  606MOL0     H79961   3.082   1.467   1.036  0.9581  3.8640  2.6905
  606MOL0     H79962   2.925   1.329   1.256 -2.5063 -2.0945 -2.4386
  606MOL0     H79963   2.875   1.415   1.115 -0.5983  1.2073  0.6626
  606MOL0     H79964   2.979   1.527   1.370 -0.5264  2.7424  0.0105
  606MOL0     H79965   2.957   1.621   1.221 -0.5617  0.0583  1.0941
  606MOL0     H79966   2.763   1.462   1.394 -0.4674  2.1809  2.0570
  606MOL0     H79967   2.723   1.534   1.226 -0.2153 -1.6829 -0.1999
  606MOL0     H79968   2.771   1.755   1.325  2.6459 -0.0134 -0.1112
  606MOL0     H79969   2.811   1.687   1.476 -1.1705 -1.1203  0.5877
  606MOL0     H79970   2.541   1.608   1.381 -1.0141  0.1722  0.4481
  606MOL0     H79971   2.605   1.635   1.541  2.5949  0.0276  0.8443
  606MOL0     H79972   2.445   1.794   1.497  0.9533  0.9464  1.9519
  606MOL0     H79973   2.521   1.856   1.342 -2.7472  2.1618  1.4628
  606MOL0     H79974   3.435   1.570   0.918 -0.7621 -3.1714 -0.5088
  606MOL0     H79975   3.638   1.694   0.933  0.7494 -1.0906 -0.1856
  606MOL0     H79976   3.908   1.966   1.252 -1.3809 -2.2907  0.4872
  606MOL0     H79977   4.104   2.083   1.311  2.7215  0.3646  2.5299
  606MOL0     H79978   5.759   3.128   0.936 -2.4970  2.5052 -2.4415
  606MOL0     H79979   5.940   3.317   0.994  0.4860  0.0373  0.0662
  606MOL0     H79980   6.133   3.583   1.107  0.6971 -0.0989  0.5721
  606MOL0     H79981   6.333   3.662   1.218 -1.1088 -0.4184 -2.1500
  606MOL0     H79982   6.449   3.730   1.411  1.1301 -1.0383 -1.3792
  606MOL0     H79983   6.514   3.877   1.486 -0.5688  2.5845 -0.6463
  606MOL0     H79984   6.491   3.832   1.193  1.9833  0.7126 -0.6999
  606MOL0     H79985   6.592   3.958   1.267  1.4073  0.2207 -0.1067
  606MOL0     H79986   6.636   3.643   1.295  0.1542 -0.2699  1.2475
  606MOL0     H79987   6.728   3.763   1.378  0.0113  2.0721  0.0573
  606MOL0     H79988   6.808   3.850   1.155  2.6787 -1.0311 -1.9302
  606MOL0     H79989   6.846   3.680   1.171 -0.8188 -0.6171  0.8174
  606MOL0     H79990   6.584   3.650   0.847  2.6239 -0.4200 -0.8150
  606MOL0     H79991   6.085   3.977   1.383 -1.8091  0.7249 -1.1938
  606MOL0     H79992   5.899   3.892   1.279  0.4597  0.8363  1.9735
  607MOL0     O79993   1.471   9.107   2.677 -0.4014  0.7796 -0.4316
  607MOL0     C79994   1.460   9.171   2.576  0.4978  0.3457  0.1065
  607MOL0     O79995   1.343   9.235   2.526 -0.2859 -0.0296 -0.3039
  607MOL0     C79996   1.231   9.229   2.603  1.2697 -0.4963 -0.7391
  607MOL0     C79997   1.103   9.225   2.538  0.2037  0.4824  0.9263
  607MOL0     C79998   0.987   9.219   2.610 -0.0062 -0.0081 -0.2647
  607MOL0     C79999   0.987   9.242   2.748  0.3964  0.2531 -0.4307
  607MOL0     O80000   0.873   9.258   2.826 -0.0632  0.9152  0.5239
  607MOL0     C80001   0.792   9.369   2.791 -0.3328  0.1099  0.0815
  607MOL0     C80002   0.664   9.337   2.863  0.2305  0.0561  0.3367
  607MOL0     C80003   0.562   9.450   2.845  0.9921  1.2433 -0.3105
  607MOL0     C80004   0.434   9.419   2.924 -0.0489 -0.6879  0.5402
  607MOL0     C80005   0.353   9.303   2.870 -0.0653 -0.5711  0.2974
  607MOL0     C80006   0.237   9.264   2.968  0.0942 -0.1139  0.1991
  607MOL0     C80007   0.166   9.128   2.927 -0.6711  0.0819 -0.3253
  607MOL0     C80008   0.064   9.149   2.819 -0.8640 -0.8549  0.1446
  607MOL0     N80009   0.014   9.019   2.774  0.0017  0.5952  0.3131
  607MOL0     C80010   0.065   8.944   2.667  0.6004 -0.3810 -0.4256
  607MOL0     C80011  -0.034   8.861   2.643 -0.0891  0.1654 -0.2182
  607MOL0     C80012  -0.027   8.753   2.535 -0.0302  0.3973  0.1456
  607MOL0     C80013   0.100   8.671   2.552 -0.0535 -0.5750  0.2255
  607MOL0     C80014   0.086   8.554   2.459 -0.0127  0.9700 -0.2507
  607MOL0     C80015   0.211   8.467   2.470 -0.8335  0.0702 -0.1551
  607MOL0     O80016   0.192   8.346   2.397  0.1202 -0.1181  0.6157
  607MOL0     C80017   0.309   8.274   2.356  0.7844 -0.4630  0.0669
  607MOL0     C80018   0.435   8.291   2.407 -0.4500 -0.2030 -0.3444
  607MOL0     C80019   0.542   8.253   2.333  0.0378  0.5480  0.7941
  607MOL0     C80020   0.518   8.160   2.230 -0.3587  0.7756  0.1026
  607MOL0     C80021   0.627   8.094   2.160 -0.6835 -0.1698 -0.4286
  607MOL0     O80022   0.754   8.149   2.182 -0.1475  0.5050 -0.1500
  607MOL0     C80023   0.863   8.082   2.128 -0.8982 -0.1575 -0.0182
  607MOL0     C80024   0.906   8.112   1.994 -0.4187 -0.0187 -0.1160
  607MOL0     C80025   1.018   8.044   1.946 -0.3400 -0.1563 -1.2391
  607MOL0     C80026   1.086   7.949   2.022 -0.1053  0.6051 -0.3075
  607MOL0     O80027   1.180   7.869   1.961 -0.0062  0.0415  0.3956
  607MOL0     C80028   1.253   7.772   2.041 -0.5824  0.0180  1.2236
  607MOL0     C80029   1.376   7.714   1.971 -1.2779  0.0815 -0.5942
  607MOL0     C80030   1.473   7.833   1.946 -0.9417  0.4147  0.6191
  607MOL0     C80031   1.602   7.801   1.871 -0.0895 -0.1520 -0.6767
  607MOL0     C80032   1.702   7.913   1.887 -0.5723  0.0246  0.5297
  607MOL0     C80033   1.834   7.872   1.815 -0.4987  1.0278  0.3900
  607MOL0     C80034   1.952   7.956   1.871 -0.2227  0.0092  0.1695
  607MOL0     C80035   2.089   7.885   1.823 -0.1776  0.5070  0.2566
  607MOL0    Cl80036   2.140   7.957   1.673 -0.4742 -0.3631  0.4494
  607MOL0     C80037   1.044   7.924   2.153  0.2878  0.3286  0.4639
  607MOL0     C80038   0.927   7.980   2.199  0.4331  0.4876  0.2686
  607MOL0     O80039   0.599   8.004   2.080 -1.0911 -0.3255  0.8440
  607MOL0     C80040   0.393   8.139   2.185 -0.0743  1.1078  0.1889
  607MOL0     C80041   0.289   8.192   2.255  0.3237  0.4008  0.6480
  607MOL0     N80042  -0.135   8.878   2.743  0.0473 -0.0775  0.5816
  607MOL0     N80043  -0.099   8.971   2.820  0.2328 -0.3162  0.0296
  607MOL0     C80044   1.105   9.258   2.817 -0.5524  0.9515 -0.3280
  607MOL0     C80045   1.225   9.246   2.748 -0.4430 -0.0258  0.6950
  607MOL0     C80046   1.565   9.155   2.479  0.1556  0.2297 -0.0331
  607MOL0     C80047   1.551   9.164   2.341  0.0587 -0.0792  0.4050
  607MOL0     C80048   1.662   9.159   2.262 -1.0685  0.7871 -0.3178
  607MOL0     C80049   1.786   9.115   2.311  0.9917  0.0118  0.2379
  607MOL0     O80050   1.880   9.120   2.212 -0.4219  0.1552  0.0418
  607MOL0     C80051   2.022   9.088   2.247 -0.3510 -0.3745 -0.2150
  607MOL0     C80052   2.058   8.949   2.202  0.7725  0.0085 -0.1630
  607MOL0     C80053   2.088   8.951   2.050 -0.4560  0.6005 -0.1279
  607MOL0     C80054   2.149   8.818   2.000  0.6396 -0.3337 -0.3214
  607MOL0     C80055   2.053   8.705   2.021 -0.8018 -0.9596 -0.0437
  607MOL0     C80056   1.974   8.614   2.029 -0.6162 -0.0975 -0.1312
  607MOL0     C80057   1.802   9.098   2.448  0.0228 -0.5165 -0.0412
  607MOL0     C80058   1.694   9.121   2.534  0.9834  0.1402 -0.1915
  607MOL0     H80059   1.093   9.193   2.435 -1.3007 -1.3363  1.5588
  607MOL0     H80060   0.897   9.196   2.554  0.0085  0.7784 -0.6191
  607MOL0     H80061   0.777   9.379   2.683 -1.3660 -3.6170 -0.2896
  607MOL0     H80062   0.845   9.460   2.818 -3.6128  1.6080  2.0628
  607MOL0     H80063   0.682   9.327   2.971  1.2461  0.4686  0.2112
  607MOL0     H80064   0.624   9.240   2.830  1.2602  0.1051 -1.1425
  607MOL0     H80065   0.534   9.463   2.740 -3.9211  1.8963  0.8149
  607MOL0     H80066   0.602   9.548   2.873  0.0490  1.1724  1.4436
  607MOL0     H80067   0.458   9.395   3.028  0.1573 -0.3066  0.5812
  607MOL0     H80068   0.377   9.512   2.917  3.3745  1.4801 -2.9878
  607MOL0     H80069   0.417   9.214   2.865  1.3813  0.5066 -1.1777
  607MOL0     H80070   0.321   9.319   2.767 -1.3168 -1.0691  0.5829
  607MOL0     H80071   0.168   9.348   2.975 -1.3680 -1.2207 -0.5020
  607MOL0     H80072   0.276   9.249   3.070 -1.1924  4.1407  1.5296
  607MOL0     H80073   0.249   9.064   2.896  1.5417  1.6721  1.9596
  607MOL0     H80074   0.131   9.074   3.015 -0.3014  2.5397  1.4533
  607MOL0     H80075   0.112   9.197   2.733  1.2583 -1.5964  0.8514
  607MOL0     H80076  -0.015   9.215   2.855 -0.3060 -1.0704  1.9046
  607MOL0     H80077   0.157   8.928   2.611  0.0370 -2.8951 -0.7643
  607MOL0     H80078  -0.035   8.798   2.435  0.4187 -1.5801 -0.8257
  607MOL0     H80079  -0.119   8.693   2.538 -1.4307  2.4074 -0.1476
  607MOL0     H80080   0.106   8.636   2.656 -0.5673  2.1853  1.2655
  607MOL0     H80081   0.190   8.728   2.531 -1.0236  0.9712  0.1280
  607MOL0     H80082  -0.005   8.498   2.481  1.1749 -1.0519 -0.2169
  607MOL0     H80083   0.080   8.597   2.359  2.6800  0.4546 -0.7164
  607MOL0     H80084   0.220   8.435   2.575 -0.8684  0.6487  0.0290
  607MOL0     H80085   0.302   8.521   2.443 -0.0898 -2.4885 -3.4148
  607MOL0     H80086   0.461   8.365   2.482 -2.7279  0.8642 -0.4996
  607MOL0     H80087   0.643   8.275   2.366  0.6535 -1.8673  0.7223
  607MOL0     H80088   0.848   8.176   1.928  0.1168  0.5635 -0.0349
  607MOL0     H80089   1.047   8.065   1.843  3.8610  1.8794  0.1137
  607MOL0     H80090   1.177   7.694   2.052 -2.9729  1.9937 -0.2632
  607MOL0     H80091   1.286   7.821   2.133  0.6510 -1.1630  1.4478
  607MOL0     H80092   1.342   7.671   1.877 -1.0319 -0.1825 -0.5637
  607MOL0     H80093   1.424   7.627   2.017 -1.6244  0.2449  0.0842
  607MOL0     H80094   1.505   7.852   2.049  1.7023  0.3542 -0.1414
  607MOL0     H80095   1.417   7.915   1.901 -0.3554  0.2726 -0.3945
  607MOL0     H80096   1.653   7.716   1.917  1.0418  1.7496  1.8478
  607MOL0     H80097   1.590   7.785   1.763  1.9587  0.5595 -1.0529
  607MOL0     H80098   1.719   7.911   1.995 -0.4612 -0.0974  0.5105
  607MOL0     H80099   1.662   8.009   1.853 -1.3898 -0.5797 -0.2778
  607MOL0     H80100   1.831   7.892   1.708  0.9633 -2.5014 -0.4405
  607MOL0     H80101   1.855   7.766   1.830 -1.9442  0.9523  2.3404
  607MOL0     H80102   1.947   8.061   1.838 -2.7010 -0.0832  0.1248
  607MOL0     H80103   1.955   7.959   1.980  0.7625  1.5791  0.1437
  607MOL0     H80104   2.079   7.776   1.824  1.8803  0.2111 -2.0878
  607MOL0     H80105   2.161   7.913   1.901  0.4257 -2.4214  0.8750
  607MOL0     H80106   1.094   7.838   2.197  1.3721  0.5462 -0.2922
  607MOL0     H80107   0.889   7.960   2.299 -1.9296  3.0917  0.0246
  607MOL0     H80108   0.361   8.080   2.099 -0.1758 -1.3976  1.8260
  607MOL0     H80109   0.186   8.166   2.230  1.1156 -1.4080 -0.9883
  607MOL0     H80110   1.112   9.268   2.925 -1.5165 -0.0128 -0.1502
  607MOL0     H80111   1.319   9.262   2.800 -1.2401  1.6804  1.7193
  607MOL0     H80112   1.452   9.176   2.296 -1.2739  2.6877  3.6852
  607MOL0     H80113   1.671   9.181   2.156  3.0851  0.3165 -0.2211
  607MOL0     H80114   2.049   9.090   2.353 -0.0809  0.5765 -0.2982
  607MOL0     H80115   2.089   9.161   2.200  0.6225 -0.8440  0.4141
  607MOL0     H80116   2.145   8.915   2.258 -0.4715 -0.7065  1.4158
  607MOL0     H80117   1.969   8.888   2.218  0.7603  0.0290 -0.1536
  607MOL0     H80118   2.156   9.031   2.020  0.8025 -0.2793  0.2973
  607MOL0     H80119   1.994   8.974   1.998  1.2550  2.3049 -2.7033
  607MOL0     H80120   2.178   8.827   1.895 -4.9848  0.1182 -2.1803
  607MOL0     H80121   2.235   8.788   2.059  0.9927 -1.2003 -1.2536
  607MOL0     H80122   1.900   8.536   2.032 -0.5424 -0.2015 -0.9135
  607MOL0     H80123   1.894   9.072   2.499 -0.2492 -2.9620 -0.6934
  607MOL0     H80124   1.708   9.100   2.640 -0.6270  2.1112  0.4676
  608MOL0     O80125   2.822   1.860   8.129 -0.1750 -0.0629 -0.3723
  608MOL0     C80126   2.833   1.876   8.007  0.5845  0.6151  0.2215
  608MOL0     O80127   2.737   1.839   7.916 -0.3914 -0.0789  0.4568
  608MOL0     C80128   2.623   1.772   7.956  0.2105  0.1164  1.1236
  608MOL0     C80129   2.631   1.643   8.007 -0.3131 -0.2731 -0.1242
  608MOL0     C80130   2.514   1.567   8.029  0.0656 -0.6206 -0.7465
  608MOL0     C80131   2.394   1.637   8.035  0.9904  0.0113  0.0142
  608MOL0     O80132   2.286   1.559   8.073  0.7522 -0.5435  0.1784
  608MOL0     C80133   2.155   1.578   8.017  0.6541  0.4962  0.1172
  608MOL0     C80134   2.066   1.460   8.073 -0.0862  0.8306  0.6615
  608MOL0     C80135   1.919   1.471   8.015 -0.4200 -0.1777  0.8472
  608MOL0     C80136   1.837   1.352   8.067 -0.4821  0.2255 -0.4923
  608MOL0     C80137   1.715   1.330   7.982  0.2039 -0.5211 -0.2757
  608MOL0     C80138   1.625   1.454   7.990  0.1149  0.2510 -0.3037
  608MOL0     C80139   1.472   1.440   7.932 -0.0600  0.0743 -0.0544
  608MOL0     C80140   1.425   1.578   7.888  0.0746 -0.1385  0.6198
  608MOL0     N80141   1.297   1.577   7.823  1.7870 -0.8302 -0.1308
  608MOL0     C80142   1.170   1.566   7.883 -0.8276 -0.8299 -0.7623
  608MOL0     C80143   1.078   1.573   7.789  0.9227  0.0254 -0.2736
  608MOL0     C80144   0.927   1.564   7.822 -0.7696 -0.1207  0.1848
  608MOL0     C80145   0.889   1.694   7.884  0.4234 -0.1881 -0.0637
  608MOL0     C80146   0.738   1.711   7.917 -0.1634  0.3343 -0.0120
  608MOL0     C80147   0.651   1.698   7.795  0.2502 -0.8393 -0.2101
  608MOL0     O80148   0.509   1.717   7.834  0.1401  0.5944 -0.3267
  608MOL0     C80149   0.418   1.642   7.768 -0.9351  0.4171 -0.4540
  608MOL0     C80150   0.310   1.612   7.845 -0.3560  0.0604  0.6644
  608MOL0     C80151   0.204   1.545   7.792  0.3007 -0.6364  0.4456
  608MOL0     C80152   0.212   1.488   7.663 -0.3613  0.2903  0.0240
  608MOL0     C80153   0.081   1.434   7.617 -0.0435  0.8813  0.0878
  608MOL0     O80154   0.022   1.354   7.711 -0.0256 -0.4234  0.2247
  608MOL0     C80155  -0.097   1.286   7.681  0.2984  0.2886 -0.7137
  608MOL0     C80156  -0.210   1.322   7.749  0.0794 -0.6927  0.1277
  608MOL0     C80157  -0.333   1.278   7.703 -0.8107  0.8055  0.0374
  608MOL0     C80158  -0.343   1.185   7.604  0.5872  0.0463 -0.4255
  608MOL0     O80159  -0.464   1.129   7.592  0.6880 -0.6887 -0.6107
  608MOL0     C80160  -0.496   1.060   7.472 -0.2908  0.7417 -0.4102
  608MOL0     C80161  -0.634   1.016   7.454 -0.0003 -0.1417  0.2349
  608MOL0     C80162  -0.661   0.921   7.342 -0.3243  0.8404 -0.3655
  608MOL0     C80163  -0.798   0.857   7.346 -0.5591  0.9627 -0.1506
  608MOL0     C80164  -0.906   0.956   7.311 -0.3535  0.5183  0.0124
  608MOL0     C80165  -1.005   0.903   7.205 -0.2142 -0.2711  0.5196
  608MOL0     C80166  -1.081   1.021   7.150  0.1336 -0.4891  0.0456
  608MOL0     C80167  -1.195   0.965   7.056 -0.1623 -0.0709 -0.6728
  608MOL0    Cl80168  -1.131   0.877   6.915  0.0262 -0.2156  0.2233
  608MOL0     C80169  -0.231   1.149   7.536 -0.9646  0.5170 -0.7014
  608MOL0     C80170  -0.106   1.198   7.571  0.5339 -0.2428  0.5670
  608MOL0     O80171   0.044   1.461   7.507  0.0830 -0.2414 -0.2581
  608MOL0     C80172   0.324   1.514   7.583  1.0192  0.6939  0.1005
  608MOL0     C80173   0.436   1.582   7.642 -0.5249  0.0622 -0.1511
  608MOL0     N80174   1.138   1.626   7.680 -0.3560 -1.4106 -0.5456
  608MOL0     N80175   1.260   1.632   7.700 -0.1223 -0.1660  0.3249
  608MOL0     C80176   2.388   1.775   8.001  0.4044 -0.4621 -0.7837
  608MOL0     C80177   2.502   1.839   7.958 -0.7131 -0.2271  0.3587
  608MOL0     C80178   2.952   1.939   7.957 -0.2889  0.9024  0.2962
  608MOL0     C80179   3.027   2.036   8.029 -0.1245  0.6973  0.1184
  608MOL0     C80180   3.137   2.107   7.983  1.1175  0.1846  0.8109
  608MOL0     C80181   3.182   2.074   7.853  0.1537 -0.3173  0.1811
  608MOL0     O80182   3.288   2.127   7.791 -0.4629 -0.6602 -0.1495
  608MOL0     C80183   3.385   2.214   7.858 -0.1660  0.1470  0.2085
  608MOL0     C80184   3.524   2.198   7.778  0.3191 -0.9569 -0.2939
  608MOL0     C80185   3.638   2.264   7.860  0.6333  0.5070 -1.1911
  608MOL0     C80186   3.774   2.236   7.793 -0.0810 -0.7815  0.0108
  608MOL0     C80187   3.893   2.265   7.880  0.1893 -0.4433 -0.4494
  608MOL0     C80188   3.993   2.285   7.955 -0.3414 -0.4480 -0.0999
  608MOL0     C80189   3.105   1.982   7.777 -0.8438  0.2624  0.2871
  608MOL0     C80190   2.991   1.918   7.822  0.9778  1.4218  0.3249
  608MOL0     H80191   2.725   1.593   8.027 -0.4876 -2.0455 -3.0820
  608MOL0     H80192   2.512   1.460   8.046  1.2210 -1.0500 -3.0738
  608MOL0     H80193   2.154   1.580   7.908 -0.4877 -1.2255  0.0604
  608MOL0     H80194   2.117   1.675   8.050  2.6046  1.4574 -0.3004
  608MOL0     H80195   2.065   1.458   8.183 -1.8501 -0.1890  0.6657
  608MOL0     H80196   2.102   1.365   8.035 -2.5218 -0.3160  1.0385
  608MOL0     H80197   1.919   1.461   7.906 -0.6215  1.6327  0.6402
  608MOL0     H80198   1.866   1.563   8.044  1.6108  0.9276  1.2572
  608MOL0     H80199   1.899   1.262   8.071 -1.9245 -0.7351  1.1128
  608MOL0     H80200   1.810   1.378   8.169  4.7673 -1.3089  1.6069
  608MOL0     H80201   1.654   1.251   8.028  1.3911 -0.0597  2.2293
  608MOL0     H80202   1.736   1.298   7.879  0.2639  0.6631 -0.6431
  608MOL0     H80203   1.671   1.540   7.940  0.5448  1.4375  1.9706
  608MOL0     H80204   1.622   1.488   8.094  2.0895  0.3340 -0.2377
  608MOL0     H80205   1.466   1.376   7.843  0.3707 -0.7791  0.5184
  608MOL0     H80206   1.403   1.409   8.010  0.4887 -0.9321  0.0503
  608MOL0     H80207   1.497   1.630   7.824 -0.1706 -0.6341 -0.0650
  608MOL0     H80208   1.415   1.641   7.977 -2.1043  0.0625  0.2905
  608MOL0     H80209   1.149   1.537   7.986 -1.8629 -0.9932 -1.0106
  608MOL0     H80210   0.898   1.482   7.888 -3.3378  1.4922  1.2277
  608MOL0     H80211   0.874   1.558   7.727  0.2477  1.2082 -0.4882
  608MOL0     H80212   0.918   1.780   7.823  2.8563 -1.5017 -0.9020
  608MOL0     H80213   0.944   1.710   7.977  0.2345  1.1735 -0.1744
  608MOL0     H80214   0.703   1.626   7.976 -2.1020  0.5013 -0.8625
  608MOL0     H80215   0.729   1.807   7.968  0.0593  1.0872 -1.3386
  608MOL0     H80216   0.676   1.611   7.734 -1.2256 -0.8685 -0.8185
  608MOL0     H80217   0.680   1.793   7.748 -1.6367  0.1049  0.4122
  608MOL0     H80218   0.302   1.670   7.937 -0.3778 -1.2276  1.5026
  608MOL0     H80219   0.118   1.536   7.857  0.0914  1.5142  0.5415
  608MOL0     H80220  -0.210   1.402   7.822 -3.1071 -0.2198 -0.2584
  608MOL0     H80221  -0.418   1.304   7.766  1.5272  1.9011  2.9668
  608MOL0     H80222  -0.429   0.973   7.464  2.6848  2.7292  1.1974
  608MOL0     H80223  -0.463   1.118   7.386 -0.7142  1.9390  0.2212
  608MOL0     H80224  -0.695   1.105   7.440  2.7416  1.6758 -1.0600
  608MOL0     H80225  -0.665   0.980   7.552 -3.3757  0.5632 -0.4354
  608MOL0     H80226  -0.588   0.840   7.336  0.8069  1.8938 -1.9322
  608MOL0     H80227  -0.658   0.959   7.239 -0.2055 -0.8844 -1.0357
  608MOL0     H80228  -0.805   0.775   7.274 -0.7178  0.5427  0.3339
  608MOL0     H80229  -0.809   0.812   7.445 -0.2250 -2.3655 -1.5093
  608MOL0     H80230  -0.857   1.042   7.264 -1.0268  0.1727 -1.3940
  608MOL0     H80231  -0.963   0.990   7.397 -1.3902 -1.1855  0.0476
  608MOL0     H80232  -1.058   0.821   7.253  2.4272  0.4571  5.2794
  608MOL0     H80233  -0.943   0.862   7.124 -1.3654 -1.7974  0.3674
  608MOL0     H80234  -1.134   1.088   7.217  3.4617  1.7831  0.6250
  608MOL0     H80235  -1.007   1.083   7.098 -0.6715 -1.8841 -3.0194
  608MOL0     H80236  -1.260   1.045   7.020 -0.2144 -0.1837 -0.8273
  608MOL0     H80237  -1.251   0.893   7.117  1.7667 -1.7680 -0.7762
  608MOL0     H80238  -0.237   1.074   7.458 -0.2980 -0.3088  0.0159
  608MOL0     H80239  -0.021   1.178   7.507  0.2072 -1.5768  0.5242
  608MOL0     H80240   0.325   1.461   7.489  0.3048  0.6365  0.1181
  608MOL0     H80241   0.522   1.579   7.576 -0.3173  2.1756 -0.0521
  608MOL0     H80242   2.294   1.828   8.008  2.1038  2.6031  0.8706
  608MOL0     H80243   2.502   1.941   7.922  3.0091  0.5030  1.9589
  608MOL0     H80244   3.006   2.054   8.134  1.1825  2.6831  0.0919
  608MOL0     H80245   3.197   2.174   8.045  1.3360 -1.5360  2.5188
  608MOL0     H80246   3.405   2.181   7.960 -0.6861 -2.1647 -0.3854
  608MOL0     H80247   3.353   2.319   7.867 -0.9044 -0.1978  2.1430
  608MOL0     H80248   3.543   2.092   7.760  1.8899 -0.4135 -2.3149
  608MOL0     H80249   3.526   2.249   7.681 -0.1000 -1.7771 -0.7481
  608MOL0     H80250   3.627   2.228   7.963 -0.8360  2.2663 -0.6781
  608MOL0     H80251   3.618   2.371   7.856 -3.5472  0.0061  0.4110
  608MOL0     H80252   3.780   2.135   7.753 -0.8537 -1.1206  0.7029
  608MOL0     H80253   3.768   2.298   7.703 -0.1656 -0.3112  0.3359
  608MOL0     H80254   4.086   2.287   8.008  0.6998  1.0187 -1.8613
  608MOL0     H80255   3.141   1.958   7.677  0.9170  1.6778  0.5199
  608MOL0     H80256   2.943   1.855   7.748  1.8352 -0.1904  1.0895
  609MOL0     O80257   0.490   9.895   6.062 -0.7825  0.2281  0.1280
  609MOL0     C80258   0.524   9.848   5.951 -0.3733  0.0945 -0.7008
  609MOL0     O80259   0.449   9.756   5.880  0.1517 -0.4652  0.3488
  609MOL0     C80260   0.346   9.682   5.938  0.0016  0.3387 -0.2283
  609MOL0     C80261   0.221   9.674   5.864  0.0104 -0.4442  0.8915
  609MOL0     C80262   0.126   9.584   5.911 -0.0206 -1.1080  0.0667
  609MOL0     C80263   0.137   9.505   6.020 -0.6032  0.9049  0.2708
  609MOL0     O80264   0.036   9.414   6.033  0.3216  0.3226 -0.5121
  609MOL0     C80265   0.052   9.326   6.143  0.1160  0.7786  0.4537
  609MOL0     C80266  -0.060   9.222   6.149  0.1379 -0.5651  0.4708
  609MOL0     C80267  -0.194   9.270   6.195  0.2766 -0.2028 -0.8244
  609MOL0     C80268  -0.285   9.161   6.230  0.3805  0.5929 -0.0878
  609MOL0     C80269  -0.424   9.220   6.262 -0.2803  0.6081  0.1904
  609MOL0     C80270  -0.518   9.116   6.326 -0.2578  0.0273  0.2029
  609MOL0     C80271  -0.653   9.191   6.371 -0.3119  0.1041  0.5170
  609MOL0     C80272  -0.732   9.263   6.265 -0.4547 -0.0848  0.1083
  609MOL0     N80273  -0.870   9.296   6.310 -0.1438 -0.5305  0.1706
  609MOL0     C80274  -0.895   9.399   6.393 -0.5052  0.1236 -0.5352
  609MOL0     C80275  -1.029   9.398   6.424 -0.1945 -1.0006  2.1387
  609MOL0     C80276  -1.111   9.490   6.510  0.0898  0.1666  0.7134
  609MOL0     C80277  -1.228   9.547   6.430  1.2142  0.0315 -0.3030
  609MOL0     C80278  -1.313   9.650   6.510 -0.3076 -0.0082  0.1232
  609MOL0     C80279  -1.368   9.594   6.637  0.4318 -0.0013 -0.0807
  609MOL0     O80280  -1.461   9.485   6.630  0.4866 -0.2898  0.3772
  609MOL0     C80281  -1.592   9.500   6.574 -0.2268  0.1322  0.1193
  609MOL0     C80282  -1.666   9.390   6.521 -0.4212  0.3878 -0.5162
  609MOL0     C80283  -1.795   9.393   6.460  0.1531 -0.3548 -0.2953
  609MOL0     C80284  -1.866   9.515   6.461 -1.0250 -0.1494  0.2831
  609MOL0     C80285  -2.004   9.525   6.410  0.5378 -0.0965 -0.3797
  609MOL0     O80286  -2.052   9.661   6.392  0.2616  0.0669  0.0592
  609MOL0     C80287  -2.173   9.696   6.337  0.9181  0.0072 -0.2575
  609MOL0     C80288  -2.224   9.824   6.368  0.0475 -0.9223 -0.0511
  609MOL0     C80289  -2.343   9.877   6.295 -0.7875 -0.2712 -0.4881
  609MOL0     C80290  -2.397   9.797   6.185  0.2384 -0.2600 -0.1504
  609MOL0     O80291  -2.498   9.840   6.100  0.6715  0.9204 -0.9801
  609MOL0     C80292  -2.586   9.925   6.169  0.6190  0.0611 -0.2663
  609MOL0     C80293  -2.711   9.924   6.078 -0.1686  0.1341  0.7615
  609MOL0     C80294  -2.804  10.026   6.149  0.4280 -0.2341  0.2553
  609MOL0     C80295  -2.919  10.047   6.056  0.4638 -0.1743 -0.4646
  609MOL0     C80296  -3.042  10.134   6.103 -0.6689 -0.0151  0.6801
  609MOL0     C80297  -3.140  10.036   6.178  1.3251 -1.3506 -0.0207
  609MOL0     C80298  -3.249  10.139   6.235 -0.0651 -0.4747 -0.5858
  609MOL0     C80299  -3.350  10.068   6.332 -0.8771 -0.2349 -0.4663
  609MOL0    Cl80300  -3.267   9.965   6.464 -0.1765 -0.4517  0.4030
  609MOL0     C80301  -2.333   9.675   6.153 -0.3930  0.8716  0.0079
  609MOL0     C80302  -2.217   9.626   6.220 -0.1118  0.2367 -0.4099
  609MOL0     O80303  -2.068   9.423   6.395  0.4802  1.0625  0.3273
  609MOL0     C80304  -1.794   9.624   6.522  0.0498 -0.7885 -0.1025
  609MOL0     C80305  -1.666   9.619   6.572 -0.0147  0.1770  0.4857
  609MOL0     N80306  -1.079   9.307   6.335 -0.4626  0.2958  0.5788
  609MOL0     N80307  -0.988   9.237   6.272  0.2044 -0.8364  0.5511
  609MOL0     C80308   0.252   9.528   6.100  0.4843  0.4034 -0.6338
  609MOL0     C80309   0.356   9.611   6.062 -1.2343 -0.3255 -0.1530
  609MOL0     C80310   0.635   9.913   5.878  1.2860  0.1735 -0.1019
  609MOL0     C80311   0.721  10.016   5.929  1.2081 -0.2744 -0.0577
  609MOL0     C80312   0.813  10.081   5.849  0.4576 -0.5805 -0.5074
  609MOL0     C80313   0.833  10.039   5.717  0.2172  0.0794 -0.4258
  609MOL0     O80314   0.922  10.108   5.642 -0.1666  0.0067  0.7112
  609MOL0     C80315   1.050  10.047   5.606  0.1776 -0.1355  0.4668
  609MOL0     C80316   1.169  10.117   5.677  0.6707 -0.6412  0.0146
  609MOL0     C80317   1.303  10.082   5.612 -0.1971  0.0470  0.6749
  609MOL0     C80318   1.413  10.123   5.703  0.5878  0.3263  0.1437
  609MOL0     C80319   1.542  10.090   5.639 -0.0046  0.4857 -0.2123
  609MOL0     C80320   1.642  10.056   5.580  0.7052 -0.3713  0.0978
  609MOL0     C80321   0.758   9.928   5.667  0.1707  0.9969  0.9797
  609MOL0     C80322   0.663   9.869   5.750  0.1601 -0.5701  0.4582
  609MOL0     H80323   0.198   9.737   5.779 -0.3136  0.3026  1.5210
  609MOL0     H80324   0.038   9.582   5.848 -0.2422  0.5248  0.2760
  609MOL0     H80325   0.050   9.377   6.240  1.1523  2.9403 -0.6117
  609MOL0     H80326   0.152   9.284   6.132 -0.0203  0.4947  0.2899
  609MOL0     H80327  -0.020   9.145   6.216  0.6684 -2.7375 -2.2058
  609MOL0     H80328  -0.075   9.169   6.055  2.2137 -2.1692  0.9565
  609MOL0     H80329  -0.220   9.328   6.105  0.6869  0.2546 -0.6511
  609MOL0     H80330  -0.177   9.328   6.286 -2.6897 -1.9349  0.9861
  609MOL0     H80331  -0.298   9.089   6.149 -0.5289  0.3505  0.2578
  609MOL0     H80332  -0.240   9.091   6.302  0.5550 -1.1337 -1.7890
  609MOL0     H80333  -0.469   9.257   6.170 -1.0355 -0.9793 -0.1083
  609MOL0     H80334  -0.419   9.311   6.322 -1.9866 -0.1177  1.5062
  609MOL0     H80335  -0.461   9.073   6.409  1.8220 -2.3724 -2.2790
  609MOL0     H80336  -0.537   9.036   6.253 -0.8594  0.8985 -0.6191
  609MOL0     H80337  -0.716   9.111   6.411 -1.0372  0.0421 -0.7207
  609MOL0     H80338  -0.636   9.258   6.456 -1.6415 -0.9932  1.7101
  609MOL0     H80339  -0.744   9.205   6.173 -1.0717  0.0803  0.0813
  609MOL0     H80340  -0.690   9.359   6.233 -1.4186  0.3070 -0.0106
  609MOL0     H80341  -0.821   9.462   6.441 -0.4984 -0.2366 -0.0704
  609MOL0     H80342  -1.047   9.561   6.563 -0.6444  0.4922  1.1812
  609MOL0     H80343  -1.146   9.420   6.586  0.3987 -3.3816 -2.1620
  609MOL0     H80344  -1.290   9.461   6.403  0.5973  0.5920 -0.6865
  609MOL0     H80345  -1.190   9.604   6.345 -1.6359  0.4699 -1.4131
  609MOL0     H80346  -1.249   9.734   6.539  0.5065 -1.3418  2.4188
  609MOL0     H80347  -1.391   9.683   6.440  0.6610  1.5399 -0.2795
  609MOL0     H80348  -1.424   9.672   6.689 -0.1966 -0.3868 -0.1585
  609MOL0     H80349  -1.282   9.569   6.699  1.4318  2.2450 -0.4557
  609MOL0     H80350  -1.621   9.292   6.526  0.7652  0.9330 -0.3050
  609MOL0     H80351  -1.845   9.302   6.428 -2.0249  1.2367 -1.7687
  609MOL0     H80352  -2.180   9.878   6.451 -2.0632 -2.1856  2.0282
  609MOL0     H80353  -2.385   9.974   6.319  2.9278  0.7066  3.2881
  609MOL0     H80354  -2.554  10.028   6.151  2.0323 -0.8965 -4.2239
  609MOL0     H80355  -2.599   9.899   6.274  0.9818  0.8040 -0.0281
  609MOL0     H80356  -2.764   9.828   6.082  0.4153 -0.1557  1.7545
  609MOL0     H80357  -2.673   9.944   5.977  4.0763 -1.8054  1.7903
  609MOL0     H80358  -2.753  10.120   6.174  0.0191 -0.6053  2.7724
  609MOL0     H80359  -2.839   9.988   6.246  2.4271 -0.0300  1.1033
  609MOL0     H80360  -2.880  10.100   5.969  0.7742  1.1081  0.4119
  609MOL0     H80361  -2.948   9.950   6.016 -0.9782 -0.0514  0.2314
  609MOL0     H80362  -3.074  10.182   6.010  0.9217 -1.4353 -0.6675
  609MOL0     H80363  -3.003  10.221   6.157  0.2606  0.6580 -1.0137
  609MOL0     H80364  -3.096   9.987   6.265  1.0826  0.5145  1.2240
  609MOL0     H80365  -3.182   9.958   6.115  2.9090 -2.0267 -0.3025
  609MOL0     H80366  -3.196  10.218   6.289  1.9181 -2.2401  0.1559
  609MOL0     H80367  -3.296  10.195   6.154 -0.4940 -0.1131 -0.0980
  609MOL0     H80368  -3.414  10.004   6.271 -1.3454  1.8899 -2.3003
  609MOL0     H80369  -3.409  10.149   6.374 -0.8155 -1.4909  2.2829
  609MOL0     H80370  -2.385   9.612   6.081 -1.1421 -5.4559  5.1190
  609MOL0     H80371  -2.159   9.540   6.190 -1.5056 -1.7630  2.1845
  609MOL0     H80372  -1.850   9.709   6.559 -0.8704 -0.9212 -1.1291
  609MOL0     H80373  -1.630   9.715   6.607 -0.2438  0.5774 -0.3588
  609MOL0     H80374   0.259   9.484   6.199 -1.4978  0.7230 -0.3072
  609MOL0     H80375   0.446   9.624   6.120 -0.8209 -0.0366 -0.8461
  609MOL0     H80376   0.710  10.046   6.033  0.7453  1.5129 -0.5948
  609MOL0     H80377   0.886  10.156   5.879 -0.4002  0.6820 -1.4801
  609MOL0     H80378   1.075  10.056   5.500 -0.5551 -1.0430  0.2024
  609MOL0     H80379   1.047   9.939   5.624 -2.2580 -0.2699 -0.2946
  609MOL0     H80380   1.171  10.226   5.673  2.8564 -0.6147  0.7278
  609MOL0     H80381   1.172  10.085   5.782 -1.1702 -1.7502 -0.2199
  609MOL0     H80382   1.317  10.142   5.522  0.5238  2.8138  2.4886
  609MOL0     H80383   1.307   9.979   5.576  4.5535 -0.3428  1.6695
  609MOL0     H80384   1.404  10.232   5.709 -0.1691  0.3357 -0.8918
  609MOL0     H80385   1.389  10.073   5.797 -1.9874  0.0632 -0.5593
  609MOL0     H80386   1.730  10.017   5.533  2.0411 -1.1528  3.0083
  609MOL0     H80387   0.785   9.892   5.569  2.3890 -1.2788  2.3018
  609MOL0     H80388   0.610   9.783   5.709 -1.6567  1.1211 -0.9701
  610MOL0     O80389   4.012   0.126   6.984 -0.1226  1.0114 -0.0043
  610MOL0     C80390   4.075   0.133   7.087  0.4342  0.4307 -0.8923
  610MOL0     O80391   4.024   0.107   7.210  0.4168  0.5509  0.7014
  610MOL0     C80392   3.904   0.048   7.233  0.4599 -0.4799 -0.6312
  610MOL0     C80393   3.830  -0.043   7.149  0.0675  0.0967 -0.0888
  610MOL0     C80394   3.709  -0.104   7.202 -1.2782 -0.9244  0.4113
  610MOL0     C80395   3.655  -0.066   7.318 -0.4920  0.6253 -0.2012
  610MOL0     O80396   3.543  -0.125   7.358  0.2818  0.5229 -0.1791
  610MOL0     C80397   3.536  -0.158   7.500 -0.0359 -0.6085  0.1499
  610MOL0     C80398   3.412  -0.240   7.522 -0.4695  0.4958  1.0150
  610MOL0     C80399   3.415  -0.294   7.666  0.7711 -0.6715  0.5657
  610MOL0     C80400   3.361  -0.433   7.648 -0.1959 -0.6333  0.3815
  610MOL0     C80401   3.215  -0.449   7.587 -1.0477  0.0382  0.5174
  610MOL0     C80402   3.162  -0.584   7.577 -0.2150 -0.5711  0.1973
  610MOL0     C80403   3.026  -0.594   7.510  0.1058  0.1700 -1.3323
  610MOL0     C80404   3.026  -0.570   7.357 -0.5429 -0.5590  0.2080
  610MOL0     N80405   2.887  -0.584   7.309  0.7456  0.0819  0.1686
  610MOL0     C80406   2.820  -0.698   7.304  0.0775 -0.0289 -0.1915
  610MOL0     C80407   2.687  -0.664   7.280 -0.4928 -0.4882 -0.1867
  610MOL0     C80408   2.578  -0.762   7.261  1.0320 -0.0421  1.3766
  610MOL0     C80409   2.602  -0.865   7.152  1.1361  0.3106  0.4224
  610MOL0     C80410   2.468  -0.902   7.076 -0.7878 -0.4474  0.4864
  610MOL0     C80411   2.360  -0.955   7.175 -0.3865 -0.4999 -0.3083
  610MOL0     O80412   2.234  -0.973   7.107  0.0772 -0.6563 -0.0396
  610MOL0     C80413   2.130  -1.001   7.189  0.2597  0.3895 -0.3020
  610MOL0     C80414   2.144  -1.029   7.332 -0.3038 -0.0176 -0.0393
  610MOL0     C80415   2.024  -1.046   7.406 -0.4222  0.8325  0.4238
  610MOL0     C80416   1.899  -1.055   7.352 -0.6237 -0.1929  0.1247
  610MOL0     C80417   1.775  -1.082   7.440  0.9468 -0.3658  0.4498
  610MOL0     O80418   1.659  -1.072   7.374 -0.1503 -0.2000  0.0107
  610MOL0     C80419   1.536  -1.080   7.440 -0.1785  0.2545  0.8679
  610MOL0     C80420   1.494  -1.202   7.494 -0.2441  0.1228 -0.1945
  610MOL0     C80421   1.375  -1.207   7.561  0.3631 -0.5166 -0.0717
  610MOL0     C80422   1.278  -1.100   7.551 -0.2945 -0.0960 -0.3135
  610MOL0     O80423   1.142  -1.111   7.593  0.2134  0.6252 -1.0192
  610MOL0     C80424   1.109  -1.217   7.688 -0.0602 -0.2101  0.0164
  610MOL0     C80425   0.968  -1.205   7.760 -0.5318 -0.8550  0.3086
  610MOL0     C80426   0.905  -1.343   7.798  0.0374  0.9950  0.2992
  610MOL0     C80427   0.967  -1.409   7.926  0.0977 -0.0400 -0.4181
  610MOL0     C80428   0.942  -1.331   8.065  0.4878  0.1345 -0.2176
  610MOL0     C80429   0.994  -1.404   8.186 -0.1551 -0.5649  0.0425
  610MOL0     C80430   1.139  -1.386   8.215 -0.7240 -0.3447  0.5519
  610MOL0     C80431   1.201  -1.497   8.299 -0.1418 -0.0884 -0.5510
  610MOL0    Cl80432   1.197  -1.645   8.199  0.0087 -0.4932  0.1342
  610MOL0     C80433   1.318  -0.978   7.482 -0.2759 -0.0239  0.3804
  610MOL0     C80434   1.445  -0.980   7.426  0.0399  0.3328 -0.3592
  610MOL0     O80435   1.780  -1.083   7.561 -0.2092  0.3566  0.8611
  610MOL0     C80436   1.886  -1.033   7.215  0.0797 -0.5390 -0.2069
  610MOL0     C80437   1.997  -1.006   7.137 -0.3432  0.0702  0.3010
  610MOL0     N80438   2.680  -0.526   7.264 -0.2233 -0.0655 -0.0973
  610MOL0     N80439   2.802  -0.483   7.295 -0.0528  0.2298  0.5346
  610MOL0     C80440   3.731   0.022   7.406  0.3846  0.2785  0.8549
  610MOL0     C80441   3.853   0.077   7.353  0.2799 -0.4694  0.1709
  610MOL0     C80442   4.214   0.173   7.086 -0.2880 -0.5012  0.5841
  610MOL0     C80443   4.283   0.176   6.960 -0.0877 -0.0548 -1.2619
  610MOL0     C80444   4.415   0.203   6.952 -0.1400  0.3129  1.0263
  610MOL0     C80445   4.502   0.223   7.061  1.0518 -0.3743 -0.2841
  610MOL0     O80446   4.637   0.252   7.042 -0.0733 -0.2792  1.0279
  610MOL0     C80447   4.724   0.277   7.157  0.4011  0.8865 -0.2392
  610MOL0     C80448   4.857   0.344   7.108  0.0723 -1.0472  0.3411
  610MOL0     C80449   4.954   0.375   7.220  0.2635 -0.2718  0.4919
  610MOL0     C80450   5.095   0.426   7.167  0.0398  0.1436  1.0344
  610MOL0     C80451   5.187   0.444   7.279  0.8610 -0.5992  0.2122
  610MOL0     C80452   5.255   0.483   7.373  0.3687 -0.8402  0.6469
  610MOL0     C80453   4.442   0.210   7.191  0.9667 -0.0780  0.0706
  610MOL0     C80454   4.297   0.195   7.199 -0.6408 -0.4390 -0.1691
  610MOL0     H80455   3.876  -0.083   7.060 -0.0073  2.4184 -1.2351
  610MOL0     H80456   3.654  -0.175   7.140 -2.0374  0.7239 -0.8883
  610MOL0     H80457   3.518  -0.067   7.558 -1.4467 -0.4353 -0.5012
  610MOL0     H80458   3.626  -0.218   7.514  0.3485 -0.6238 -2.0580
  610MOL0     H80459   3.408  -0.321   7.449 -3.7786  1.6419 -0.2825
  610MOL0     H80460   3.326  -0.173   7.511  1.2811  2.7038  0.0542
  610MOL0     H80461   3.371  -0.223   7.737  0.1956  0.6157 -1.0110
  610MOL0     H80462   3.519  -0.301   7.700  1.0823  1.3743  0.1505
  610MOL0     H80463   3.429  -0.489   7.583 -0.7055 -3.2552  1.9380
  610MOL0     H80464   3.364  -0.485   7.744  0.6461 -2.0521 -0.3726
  610MOL0     H80465   3.215  -0.413   7.484 -3.5518 -3.3178 -0.8461
  610MOL0     H80466   3.147  -0.382   7.640 -1.0365  0.5650 -0.1201
  610MOL0     H80467   3.164  -0.623   7.680  1.5164 -0.6352  0.1617
  610MOL0     H80468   3.226  -0.653   7.522 -0.3155 -1.6687  1.3997
  610MOL0     H80469   2.985  -0.693   7.528 -0.4566  0.7897  1.1103
  610MOL0     H80470   2.958  -0.520   7.555 -0.1965 -0.4307 -0.7866
  610MOL0     H80471   3.103  -0.640   7.324  0.1389  0.4859 -0.4921
  610MOL0     H80472   3.063  -0.473   7.320  0.1667 -0.0368  2.1834
  610MOL0     H80473   2.854  -0.800   7.318  1.7998  0.3388 -1.3397
  610MOL0     H80474   2.494  -0.708   7.216  2.5175 -1.5273 -3.7569
  610MOL0     H80475   2.536  -0.812   7.349 -1.2001 -2.0197 -0.6468
  610MOL0     H80476   2.637  -0.954   7.204  0.4857  0.1118  0.5272
  610MOL0     H80477   2.686  -0.845   7.086  1.0595 -1.8552 -0.3879
  610MOL0     H80478   2.434  -0.809   7.029  0.9110 -0.2684 -0.4609
  610MOL0     H80479   2.479  -0.976   6.996 -0.0326  1.1981 -0.9857
  610MOL0     H80480   2.345  -0.882   7.255 -2.6032 -1.4093  0.1814
  610MOL0     H80481   2.402  -1.049   7.214  3.2994  1.4647  0.9759
  610MOL0     H80482   2.240  -1.036   7.383 -0.5896  1.5073  0.7627
  610MOL0     H80483   2.032  -1.054   7.514  0.0177  0.2150  0.3505
  610MOL0     H80484   1.563  -1.284   7.512 -1.1418 -0.1730  2.1915
  610MOL0     H80485   1.351  -1.311   7.582  4.0420 -1.7431 -1.2060
  610MOL0     H80486   1.188  -1.198   7.761  0.1396 -0.1284 -0.2226
  610MOL0     H80487   1.114  -1.315   7.640 -1.1447  0.8554 -2.4918
  610MOL0     H80488   0.899  -1.171   7.682  0.4029 -0.8195 -0.5256
  610MOL0     H80489   0.961  -1.140   7.848 -2.8923 -1.0049  0.2935
  610MOL0     H80490   0.912  -1.409   7.712 -2.7095 -0.5883  1.1573
  610MOL0     H80491   0.797  -1.328   7.813 -0.4712 -0.8027 -1.2310
  610MOL0     H80492   0.918  -1.504   7.945 -1.3113  0.9019  0.8969
  610MOL0     H80493   1.076  -1.417   7.914 -0.0220  1.0006 -2.6012
  610MOL0     H80494   0.833  -1.328   8.063  0.5128  1.2604 -1.5513
  610MOL0     H80495   0.970  -1.225   8.069  1.4546 -0.1053 -0.4958
  610MOL0     H80496   0.976  -1.512   8.188  3.1919 -1.2341 -0.3924
  610MOL0     H80497   0.953  -1.363   8.278 -0.4180 -0.7965  0.0320
  610MOL0     H80498   1.186  -1.372   8.117 -0.8439  0.2964  0.5810
  610MOL0     H80499   1.138  -1.289   8.265 -0.8390  1.8388 -3.2922
  610MOL0     H80500   1.150  -1.512   8.395  1.0168  0.5781  0.1838
  610MOL0     H80501   1.306  -1.476   8.321 -0.3586 -0.7086  1.3368
  610MOL0     H80502   1.247  -0.897   7.472 -0.3294 -0.1027  0.1239
  610MOL0     H80503   1.465  -0.883   7.383  1.2364  0.1452 -0.2559
  610MOL0     H80504   1.783  -1.017   7.182 -0.6207  0.1848  2.0804
  610MOL0     H80505   1.982  -0.994   7.030  0.4183  1.0349  0.2843
  610MOL0     H80506   3.695   0.075   7.494  1.3102  4.5535 -1.0588
  610MOL0     H80507   3.920   0.127   7.421  0.2412 -1.8592  1.2875
  610MOL0     H80508   4.234   0.161   6.865  0.6236  0.5472 -1.7359
  610MOL0     H80509   4.459   0.198   6.853 -1.1587 -1.8255  0.6155
  610MOL0     H80510   4.751   0.184   7.207  2.3995  0.0875 -2.5597
  610MOL0     H80511   4.676   0.349   7.223  0.1575  0.7833 -0.3039
  610MOL0     H80512   4.909   0.272   7.044  0.8341  1.0512 -1.5438
  610MOL0     H80513   4.829   0.430   7.045 -3.6566 -2.6002 -0.4118
  610MOL0     H80514   4.962   0.279   7.273 -1.1526 -0.5364  0.2789
  610MOL0     H80515   4.896   0.448   7.278 -4.9025 -0.2970 -3.8135
  610MOL0     H80516   5.135   0.356   7.093 -0.8008  1.9033 -1.2139
  610MOL0     H80517   5.092   0.520   7.111  0.6448  1.9612  3.8613
  610MOL0     H80518   5.328   0.510   7.447  0.2591  3.6723 -0.6461
  610MOL0     H80519   4.500   0.219   7.282 -0.5309  1.3078  0.9481
  610MOL0     H80520   4.257   0.194   7.299  0.2234 -0.8650  0.1808
  611MOL0     O80521   5.771   2.461   7.143 -0.3408 -0.1199 -0.3915
  611MOL0     C80522   5.828   2.418   7.046  0.2953 -0.6413 -0.7137
  611MOL0     O80523   5.765   2.354   6.943 -0.5479  0.2992 -0.4611
  611MOL0     C80524   5.636   2.324   6.954  0.1938  0.0349 -0.7168
  611MOL0     C80525   5.533   2.429   6.973 -0.6734  0.6343 -0.1055
  611MOL0     C80526   5.402   2.411   6.940 -0.7265 -0.6311 -0.0346
  611MOL0     C80527   5.359   2.288   6.908  0.1234  0.2018 -0.5796
  611MOL0     O80528   5.225   2.272   6.892  0.1250  0.8212 -0.0697
  611MOL0     C80529   5.157   2.154   6.934  0.4861  0.0734 -0.8557
  611MOL0     C80530   5.077   2.198   7.063  0.7484 -0.1784  0.1200
  611MOL0     C80531   5.149   2.245   7.186 -0.2563 -0.1319 -0.6217
  611MOL0     C80532   5.263   2.148   7.228  1.1136  0.0408  0.8502
  611MOL0     C80533   5.324   2.217   7.349 -0.8539 -0.4618  0.0823
  611MOL0     C80534   5.438   2.318   7.312 -0.4199 -0.0718  0.5059
  611MOL0     C80535   5.489   2.378   7.442  0.0432 -1.0563  0.3846
  611MOL0     C80536   5.556   2.512   7.414 -0.1252  0.0165 -0.0823
  611MOL0     N80537   5.669   2.544   7.495 -0.6104  0.7469  0.1000
  611MOL0     C80538   5.799   2.488   7.495  0.9326  0.1708  0.2566
  611MOL0     C80539   5.881   2.566   7.566 -0.7673 -0.2490  0.0182
  611MOL0     C80540   6.021   2.540   7.597 -0.9473  0.8246 -0.3691
  611MOL0     C80541   6.112   2.636   7.680  0.0450 -0.5346 -0.2651
  611MOL0     C80542   6.047   2.663   7.826  0.1743  0.3111 -0.0113
  611MOL0     C80543   5.989   2.544   7.900 -0.3409 -0.2770 -0.4234
  611MOL0     O80544   5.962   2.585   8.036 -0.9779  0.4457 -0.5397
  611MOL0     C80545   5.851   2.662   8.059  0.5769 -0.2073  0.5053
  611MOL0     C80546   5.812   2.694   8.186 -0.9238  0.3214 -0.3734
  611MOL0     C80547   5.693   2.761   8.211 -0.5814  0.8402 -0.2633
  611MOL0     C80548   5.600   2.793   8.113 -0.2909 -0.2607  0.2701
  611MOL0     C80549   5.467   2.841   8.141  0.6319 -0.1261 -0.1764
  611MOL0     O80550   5.366   2.804   8.056 -0.7443  0.0097 -0.7648
  611MOL0     C80551   5.239   2.862   8.080  0.1330 -0.7199  0.4750
  611MOL0     C80552   5.171   2.849   8.200 -0.0906 -0.5864  0.2058
  611MOL0     C80553   5.067   2.939   8.228  0.6150 -0.5829 -0.4930
  611MOL0     C80554   5.012   3.022   8.135 -1.4414  0.6659 -0.7712
  611MOL0     O80555   4.901   3.096   8.127 -0.3035  0.0591  0.4461
  611MOL0     C80556   4.828   3.113   8.249 -0.5515 -1.0394 -0.4645
  611MOL0     C80557   4.707   3.021   8.262 -0.5352  0.1968  0.1263
  611MOL0     C80558   4.700   2.944   8.389 -0.8411  0.6249  0.0338
  611MOL0     C80559   4.715   3.029   8.515  0.9229 -0.1638 -1.0187
  611MOL0     C80560   4.704   2.951   8.648  0.3335  0.2274  0.4361
  611MOL0     C80561   4.766   3.027   8.771 -0.3375 -0.3008  0.0455
  611MOL0     C80562   4.745   3.173   8.797 -0.1644 -0.0943 -0.7696
  611MOL0     C80563   4.591   3.214   8.821 -0.1586 -0.2315  0.8598
  611MOL0    Cl80564   4.548   3.165   8.987 -0.0947  0.1306  0.2341
  611MOL0     C80565   5.074   3.030   8.008  0.0553 -0.2124 -0.5606
  611MOL0     C80566   5.194   2.952   7.983  0.4078  0.2609  0.1205
  611MOL0     O80567   5.457   2.923   8.228  0.0264 -0.1971 -1.0494
  611MOL0     C80568   5.637   2.762   7.980 -0.1882  0.4831  0.1733
  611MOL0     C80569   5.761   2.699   7.950 -0.0736 -0.0905 -0.6316
  611MOL0     N80570   5.805   2.684   7.594 -0.0590 -2.1281  0.2849
  611MOL0     N80571   5.683   2.663   7.561  0.3781 -0.0563  0.1767
  611MOL0     C80572   5.447   2.175   6.916  0.2900 -0.5675  0.6513
  611MOL0     C80573   5.582   2.194   6.937  0.5835 -1.2902  0.7028
  611MOL0     C80574   5.975   2.422   7.032 -1.0023 -1.0486 -0.8637
  611MOL0     C80575   6.042   2.360   6.927  0.3152 -0.2558  0.7436
  611MOL0     C80576   6.175   2.369   6.898 -0.0824 -0.5514  0.9520
  611MOL0     C80577   6.259   2.448   6.976  0.5641 -1.3003  0.7235
  611MOL0     O80578   6.392   2.461   6.969 -0.3460 -0.7028 -0.0594
  611MOL0     C80579   6.451   2.381   6.864  0.4951 -0.3157 -0.0939
  611MOL0     C80580   6.590   2.412   6.869 -0.6608 -0.0346 -0.2617
  611MOL0     C80581   6.667   2.343   6.985 -0.4429 -0.7458 -0.7485
  611MOL0     C80582   6.631   2.410   7.113 -0.8697 -0.3776 -0.4728
  611MOL0     C80583   6.732   2.377   7.210 -0.0569 -0.0104  0.6737
  611MOL0     C80584   6.813   2.344   7.293 -0.5141 -0.2470  0.1941
  611MOL0     C80585   6.195   2.520   7.079 -0.3528  0.8096 -0.4165
  611MOL0     C80586   6.054   2.506   7.112  0.0795  0.5306  0.5742
  611MOL0     H80587   5.573   2.528   6.996  3.8244 -0.6071 -1.5288
  611MOL0     H80588   5.331   2.493   6.946 -1.0462 -0.9809  1.1883
  611MOL0     H80589   5.221   2.067   6.955 -0.1707 -1.2800 -3.8296
  611MOL0     H80590   5.087   2.129   6.853 -0.3562  0.9748 -0.4208
  611MOL0     H80591   4.999   2.123   7.077  0.5666 -0.1899 -0.8301
  611MOL0     H80592   5.019   2.280   7.019 -1.7478 -3.5024 -3.5359
  611MOL0     H80593   5.077   2.264   7.267  1.2208  1.1802  0.4289
  611MOL0     H80594   5.195   2.340   7.161 -0.8515  1.3963  3.3076
  611MOL0     H80595   5.222   2.053   7.263 -0.3849  1.0359  1.9052
  611MOL0     H80596   5.328   2.116   7.146  1.7425 -0.4055  1.5096
  611MOL0     H80597   5.373   2.142   7.412 -4.4273 -2.8242  0.2802
  611MOL0     H80598   5.250   2.270   7.410 -3.4136 -2.6920 -0.9199
  611MOL0     H80599   5.405   2.399   7.246  2.7305  0.2817 -0.8344
  611MOL0     H80600   5.519   2.269   7.256 -1.5759 -0.5214 -0.8544
  611MOL0     H80601   5.403   2.395   7.508 -1.1815 -1.8978 -0.9556
  611MOL0     H80602   5.557   2.307   7.490 -0.2752 -0.7814  1.2624
  611MOL0     H80603   5.484   2.587   7.448  1.3019 -0.5015  4.8407
  611MOL0     H80604   5.580   2.514   7.307 -1.7454 -1.6762 -0.5378
  611MOL0     H80605   5.820   2.398   7.436 -0.7804 -0.3718  0.4342
  611MOL0     H80606   6.075   2.527   7.503 -0.9036 -0.6981 -0.1721
  611MOL0     H80607   6.033   2.441   7.642  5.7801  0.8219 -1.1144
  611MOL0     H80608   6.113   2.727   7.620 -2.4449  0.6350  1.3241
  611MOL0     H80609   6.216   2.603   7.691  0.2177 -0.7684 -2.2650
  611MOL0     H80610   6.129   2.702   7.886  0.2932  0.3206 -0.1768
  611MOL0     H80611   5.967   2.737   7.819 -1.4206 -1.4397 -2.2510
  611MOL0     H80612   6.051   2.454   7.894  1.6333  0.7890  2.1341
  611MOL0     H80613   5.898   2.506   7.852  0.5646 -3.5648  0.2066
  611MOL0     H80614   5.869   2.670   8.276 -2.0888  1.1390  0.6109
  611MOL0     H80615   5.671   2.780   8.316  2.8946 -0.0899  0.7733
  611MOL0     H80616   5.214   2.775   8.266  1.5714 -0.5685 -0.7908
  611MOL0     H80617   5.030   2.942   8.330  2.5414  1.5502  0.2352
  611MOL0     H80618   4.799   3.218   8.260  1.2696 -0.5633  0.1633
  611MOL0     H80619   4.898   3.111   8.333  0.5391 -0.7864 -1.3412
  611MOL0     H80620   4.708   2.952   8.177 -1.3010  0.7119 -0.3171
  611MOL0     H80621   4.612   3.074   8.252 -0.3992  0.3404 -0.4602
  611MOL0     H80622   4.774   2.863   8.385 -2.1012 -0.6597  1.4674
  611MOL0     H80623   4.603   2.894   8.391 -1.0738  1.1031  0.9834
  611MOL0     H80624   4.816   3.070   8.510  1.0118 -0.1406  0.5490
  611MOL0     H80625   4.633   3.102   8.523 -1.8988 -3.2964  1.5109
  611MOL0     H80626   4.747   2.853   8.623 -0.6944 -0.7149  2.1491
  611MOL0     H80627   4.600   2.930   8.676  0.7464 -0.6076  1.3969
  611MOL0     H80628   4.873   3.006   8.761 -0.3493 -0.4507  0.2198
  611MOL0     H80629   4.727   2.984   8.864 -2.3010  0.3479 -0.4286
  611MOL0     H80630   4.807   3.205   8.881  4.0351  1.8720 -4.2263
  611MOL0     H80631   4.785   3.228   8.710 -2.1880 -3.4479 -4.1356
  611MOL0     H80632   4.528   3.154   8.754  1.8079 -1.0107 -0.3947
  611MOL0     H80633   4.577   3.321   8.806 -1.5544 -0.2970  1.5407
  611MOL0     H80634   5.038   3.107   7.941  0.3374  1.1645  0.8297
  611MOL0     H80635   5.252   2.965   7.892  0.3345 -0.2132  0.0025
  611MOL0     H80636   5.578   2.791   7.894 -0.2489 -0.3539 -0.0732
  611MOL0     H80637   5.773   2.665   7.848  2.9520  0.2442 -0.5049
  611MOL0     H80638   5.420   2.071   6.896 -2.0808  0.2926 -0.9825
  611MOL0     H80639   5.655   2.119   6.911  1.1012 -0.6139  0.1633
  611MOL0     H80640   5.990   2.305   6.849  2.2767 -0.0212 -0.8347
  611MOL0     H80641   6.207   2.304   6.818 -2.5215 -1.6403  0.7839
  611MOL0     H80642   6.419   2.412   6.764  1.8238  4.5105  0.7523
  611MOL0     H80643   6.437   2.272   6.865 -0.2163 -0.2751 -1.8435
  611MOL0     H80644   6.629   2.375   6.773 -1.6974 -1.1773 -0.2656
  611MOL0     H80645   6.596   2.521   6.866 -0.9349 -0.0069  0.2272
  611MOL0     H80646   6.775   2.341   6.964  0.0412 -0.0385  1.3363
  611MOL0     H80647   6.645   2.239   7.007  0.2051 -0.6214  0.6443
  611MOL0     H80648   6.640   2.519   7.101  4.0161 -0.4047  0.6724
  611MOL0     H80649   6.530   2.382   7.146 -1.7022  3.5647  0.9185
  611MOL0     H80650   6.889   2.317   7.363 -2.1878 -0.2076  2.0900
  611MOL0     H80651   6.248   2.588   7.145 -0.3798  1.0397 -0.6299
  611MOL0     H80652   6.010   2.567   7.190  1.4494  1.4648  0.6508
  612MOL0     O80653   5.569   6.022   5.355 -0.6149  0.1486 -0.6833
  612MOL0     C80654   5.661   5.934   5.335 -0.6647  0.0405  1.1578
  612MOL0     O80655   5.658   5.842   5.238 -0.3648 -0.0604 -0.3752
  612MOL0     C80656   5.558   5.826   5.143  0.1280 -0.0187  0.1405
  612MOL0     C80657   5.424   5.874   5.160  0.4026 -0.3316  0.5250
  612MOL0     C80658   5.344   5.862   5.051  0.4777 -0.3041 -0.5776
  612MOL0     C80659   5.376   5.795   4.938 -0.6329 -0.3477  0.5273
  612MOL0     O80660   5.296   5.792   4.824  0.0339  0.6655 -0.3622
  612MOL0     C80661   5.208   5.908   4.819 -0.4389 -0.1925 -0.5107
  612MOL0     C80662   5.145   5.931   4.680 -0.0914  0.9542 -0.5019
  612MOL0     C80663   5.069   5.806   4.623  0.6459 -0.1410 -0.6950
  612MOL0     C80664   4.970   5.752   4.737 -0.8843 -0.3512  0.0588
  612MOL0     C80665   4.856   5.671   4.674  0.3165  0.4955  0.4104
  612MOL0     C80666   4.732   5.644   4.760 -0.4853  0.7676 -0.3256
  612MOL0     C80667   4.641   5.535   4.692  0.0807  0.2332 -0.2397
  612MOL0     C80668   4.681   5.391   4.723  0.6599 -0.2758  0.0488
  612MOL0     N80669   4.555   5.320   4.693 -0.2210  0.1583  0.1199
  612MOL0     C80670   4.523   5.257   4.574 -0.3783  0.4116 -0.0096
  612MOL0     C80671   4.425   5.171   4.614 -0.3352  0.8783  0.0599
  612MOL0     C80672   4.376   5.072   4.517  0.2937 -0.1551 -0.3326
  612MOL0     C80673   4.292   5.141   4.413 -0.4196  0.2209 -0.3439
  612MOL0     C80674   4.166   5.190   4.479  0.6112  0.4648 -0.6116
  612MOL0     C80675   4.051   5.209   4.386  0.0786  0.3214  0.0213
  612MOL0     O80676   3.961   5.304   4.452  0.1686  0.0800 -0.6176
  612MOL0     C80677   3.845   5.300   4.387 -0.9499 -0.0578 -0.1267
  612MOL0     C80678   3.731   5.247   4.454 -1.3376 -0.0124  0.5769
  612MOL0     C80679   3.604   5.252   4.396  1.0501 -0.6933  0.3879
  612MOL0     C80680   3.590   5.291   4.263  0.2819 -0.1493  1.1643
  612MOL0     C80681   3.454   5.279   4.192 -0.0863  0.0902  0.2048
  612MOL0     O80682   3.344   5.252   4.275  0.1506  0.4130  0.0969
  612MOL0     C80683   3.214   5.236   4.224  0.0396 -0.1931  0.6906
  612MOL0     C80684   3.153   5.331   4.145  0.5723 -0.1218 -0.1052
  612MOL0     C80685   3.024   5.323   4.101  0.3339  0.1313  0.0847
  612MOL0     C80686   2.951   5.211   4.137 -0.2537  0.2849 -0.0769
  612MOL0     O80687   2.824   5.188   4.096  0.2122  0.3635 -0.0648
  612MOL0     C80688   2.722   5.286   4.144  0.1201 -0.3062 -0.4848
  612MOL0     C80689   2.577   5.258   4.102 -0.4066 -0.1860 -0.4040
  612MOL0     C80690   2.480   5.331   4.201 -0.8636 -0.2880 -0.1218
  612MOL0     C80691   2.331   5.309   4.166  0.2115  0.0139  0.1174
  612MOL0     C80692   2.224   5.353   4.266  0.1069 -0.1254  0.0834
  612MOL0     C80693   2.079   5.348   4.211 -0.4359  0.5983  0.6007
  612MOL0     C80694   1.983   5.412   4.307 -0.6066  0.7701  0.5581
  612MOL0     C80695   1.834   5.382   4.264 -0.1666  0.1788 -0.1913
  612MOL0    Cl80696   1.719   5.471   4.376 -0.2552  0.4212 -0.3724
  612MOL0     C80697   3.007   5.112   4.211 -0.3307  0.9248  0.8690
  612MOL0     C80698   3.141   5.120   4.251 -0.2064  0.3939 -0.3483
  612MOL0     O80699   3.456   5.290   4.072 -0.5930  0.5571  0.4317
  612MOL0     C80700   3.708   5.339   4.194 -0.1096 -0.1564  0.2622
  612MOL0     C80701   3.831   5.341   4.258  0.3041  0.3511 -0.1599
  612MOL0     N80702   4.387   5.198   4.742 -0.0608 -0.2122 -0.4377
  612MOL0     N80703   4.474   5.277   4.783  0.2856  0.4375  0.0616
  612MOL0     C80704   5.501   5.744   4.919  1.1734 -0.5265  0.4028
  612MOL0     C80705   5.596   5.759   5.019  0.7069  0.3669 -0.1355
  612MOL0     C80706   5.789   5.960   5.398 -0.2713  0.0497 -0.4865
  612MOL0     C80707   5.795   6.046   5.517 -0.0747  0.0457 -0.3487
  612MOL0     C80708   5.912   6.073   5.586  0.5893  0.5459 -0.4424
  612MOL0     C80709   6.028   6.001   5.552  0.0096  0.2508 -0.4661
  612MOL0     O80710   6.142   6.034   5.612  0.0372 -0.5037  0.7028
  612MOL0     C80711   6.261   6.038   5.534 -0.9881 -0.4253 -0.3497
  612MOL0     C80712   6.342   6.153   5.574  0.1890 -0.0721 -0.2925
  612MOL0     C80713   6.480   6.157   5.513  0.6035 -0.0505 -0.0055
  612MOL0     C80714   6.568   6.249   5.589 -0.4126 -0.3316 -0.4240
  612MOL0     C80715   6.709   6.240   5.543  0.1585 -0.1994  0.3971
  612MOL0     C80716   6.829   6.225   5.517  0.0443  0.8339  0.2875
  612MOL0     C80717   6.012   5.905   5.452 -0.5916 -0.1011  0.4138
  612MOL0     C80718   5.898   5.887   5.371 -0.9834  0.5077  0.1404
  612MOL0     H80719   5.387   5.915   5.253  1.0609 -1.3292  1.2530
  612MOL0     H80720   5.248   5.911   5.067  1.5536  2.2293 -1.4444
  612MOL0     H80721   5.253   6.006   4.836 -1.9369  0.5156 -0.5068
  612MOL0     H80722   5.128   5.895   4.892  2.2120 -2.0727  2.3482
  612MOL0     H80723   5.216   5.946   4.598 -4.4839 -0.2878 -5.0537
  612MOL0     H80724   5.082   6.020   4.691 -0.0483  1.0840 -1.2652
  612MOL0     H80725   5.129   5.726   4.580 -0.3241 -0.4583 -1.4828
  612MOL0     H80726   5.013   5.850   4.541 -0.6659  0.2458  0.3699
  612MOL0     H80727   5.033   5.692   4.804  0.1693  0.6664  0.0163
  612MOL0     H80728   4.928   5.842   4.781 -1.1629 -0.3228 -0.2675
  612MOL0     H80729   4.898   5.572   4.655  0.0365 -0.5104  4.2066
  612MOL0     H80730   4.826   5.718   4.580 -1.2115  2.8801  1.9896
  612MOL0     H80731   4.678   5.736   4.781  0.9832  1.4129  0.7622
  612MOL0     H80732   4.755   5.604   4.859  0.3025  1.4363 -0.2355
  612MOL0     H80733   4.537   5.550   4.722 -0.2161 -1.0715 -0.5593
  612MOL0     H80734   4.648   5.549   4.584  1.3049  2.9714  0.1095
  612MOL0     H80735   4.706   5.371   4.828  0.1704  0.8110  0.3857
  612MOL0     H80736   4.765   5.372   4.656 -0.6823  0.7637 -2.0244
  612MOL0     H80737   4.587   5.248   4.487 -2.4429 -1.7701 -1.4201
  612MOL0     H80738   4.320   4.989   4.561  0.7777  0.3812  1.3667
  612MOL0     H80739   4.465   5.024   4.474  0.7127  1.3592 -1.2329
  612MOL0     H80740   4.263   5.067   4.338 -1.2027  0.2779 -0.1093
  612MOL0     H80741   4.347   5.216   4.354  0.0686  1.7104  1.8936
  612MOL0     H80742   4.139   5.113   4.552  1.5237 -0.5035 -1.2446
  612MOL0     H80743   4.171   5.279   4.541 -4.3936 -0.0844  1.0894
  612MOL0     H80744   3.998   5.115   4.371 -3.6997  1.9222  1.7731
  612MOL0     H80745   4.069   5.237   4.282  1.4750 -1.8745 -0.3824
  612MOL0     H80746   3.742   5.222   4.559 -1.1140 -0.2844  0.4906
  612MOL0     H80747   3.522   5.216   4.457  0.0864 -0.5224 -0.7738
  612MOL0     H80748   3.199   5.424   4.113 -1.8313  0.7015 -1.3974
  612MOL0     H80749   2.976   5.403   4.046 -0.2716 -0.5188 -0.3473
  612MOL0     H80750   2.749   5.389   4.117 -2.5806  0.4484 -0.5538
  612MOL0     H80751   2.727   5.281   4.253 -2.6086  2.1657 -0.1221
  612MOL0     H80752   2.556   5.151   4.100  1.0251 -0.5057  0.7013
  612MOL0     H80753   2.571   5.308   4.004 -0.6500  1.0751  0.2259
  612MOL0     H80754   2.500   5.437   4.217 -0.9662 -0.2871  0.0055
  612MOL0     H80755   2.495   5.291   4.302  0.8342  0.2230 -0.1396
  612MOL0     H80756   2.311   5.362   4.073 -1.2812 -0.3223  0.2318
  612MOL0     H80757   2.320   5.203   4.139 -0.1009 -0.4267  1.8691
  612MOL0     H80758   2.256   5.454   4.295  3.0609 -1.2086  0.9802
  612MOL0     H80759   2.237   5.300   4.361  1.6932  0.4427  0.2232
  612MOL0     H80760   2.052   5.246   4.184  0.6905  0.4828 -0.1482
  612MOL0     H80761   2.079   5.396   4.113  0.7161 -1.6348 -0.5724
  612MOL0     H80762   2.005   5.370   4.405 -0.2431 -0.5686 -0.0684
  612MOL0     H80763   2.009   5.518   4.310 -3.1594  1.4321  3.2461
  612MOL0     H80764   1.815   5.275   4.260 -2.5003  0.5649 -1.1229
  612MOL0     H80765   1.829   5.421   4.162  2.1258  0.5758 -0.1993
  612MOL0     H80766   2.947   5.027   4.243  0.0373  0.3226  0.0054
  612MOL0     H80767   3.195   5.040   4.301  2.1803  0.0927 -3.1289
  612MOL0     H80768   3.693   5.383   4.096 -2.3151  1.4728  1.2590
  612MOL0     H80769   3.918   5.368   4.199  0.9382  0.4929  0.8052
  612MOL0     H80770   5.535   5.686   4.834  2.5595  0.6532  0.1140
  612MOL0     H80771   5.689   5.707   4.996 -1.2212 -2.1102 -2.9019
  612MOL0     H80772   5.703   6.095   5.546  1.5058  0.7869  4.1808
  612MOL0     H80773   5.911   6.153   5.659  2.8974 -1.1840  1.6337
  612MOL0     H80774   6.243   6.048   5.427  0.0324  0.9796 -0.4273
  612MOL0     H80775   6.313   5.942   5.541 -2.0835 -1.1328 -1.6004
  612MOL0     H80776   6.299   6.247   5.537 -1.6828 -0.5790  0.4603
  612MOL0     H80777   6.354   6.158   5.683  1.8253  4.1262 -0.4566
  612MOL0     H80778   6.485   6.177   5.405 -0.1502  3.2895  0.4768
  612MOL0     H80779   6.530   6.063   5.540  0.8918  0.2636  0.5594
  612MOL0     H80780   6.532   6.353   5.590  1.0169  0.1845  1.0044
  612MOL0     H80781   6.575   6.221   5.694  0.4254 -1.0996 -0.6810
  612MOL0     H80782   6.935   6.222   5.501  0.0013 -4.1551 -0.8429
  612MOL0     H80783   6.094   5.839   5.427  1.0685  1.6976  0.9355
  612MOL0     H80784   5.902   5.821   5.285 -0.6579 -2.0975  2.0153
  613MOL0     O80785   2.869   0.308   8.615  0.1254  0.0241  0.3223
  613MOL0     C80786   2.942   0.266   8.701 -0.2819  0.1518  1.0011
  613MOL0     O80787   2.923   0.139   8.758  0.0442  0.2688 -0.3265
  613MOL0     C80788   2.795   0.108   8.798 -0.9616 -0.1189  0.5382
  613MOL0     C80789   2.704   0.209   8.822  0.8166  0.5996  0.4926
  613MOL0     C80790   2.569   0.180   8.852 -0.5564 -0.4108 -0.0791
  613MOL0     C80791   2.524   0.047   8.862 -0.2830 -1.0449  0.1717
  613MOL0     O80792   2.397   0.032   8.900 -0.1649 -0.8894 -0.3788
  613MOL0     C80793   2.347  -0.093   8.946 -0.3125  0.5138 -0.0104
  613MOL0     C80794   2.210  -0.061   9.018 -0.1853  0.2097  0.1079
  613MOL0     C80795   2.125  -0.002   8.909  0.3959  0.2261 -0.2480
  613MOL0     C80796   1.985   0.023   8.954  0.0277  0.0525  0.5555
  613MOL0     C80797   1.901   0.075   8.832 -0.2304  0.8150 -0.7247
  613MOL0     C80798   1.763   0.108   8.886  0.5414  0.1290 -0.9923
  613MOL0     C80799   1.672   0.147   8.774 -0.4172  0.0002 -0.8817
  613MOL0     C80800   1.611   0.290   8.783  0.6049 -0.7430  0.0285
  613MOL0     N80801   1.475   0.297   8.730  0.2579 -0.7927 -0.1458
  613MOL0     C80802   1.440   0.362   8.607 -0.0518  0.5710 -0.1343
  613MOL0     C80803   1.316   0.334   8.593  0.3857  0.2404 -0.6981
  613MOL0     C80804   1.222   0.364   8.480 -1.0155  0.6645 -0.1101
  613MOL0     C80805   1.072   0.364   8.517 -0.0312  0.9682 -0.4690
  613MOL0     C80806   1.003   0.419   8.385  0.3603 -0.1790  0.4563
  613MOL0     C80807   0.853   0.406   8.388  0.2813 -0.5940  0.1815
  613MOL0     O80808   0.798   0.514   8.474 -0.2103 -0.1488 -0.4506
  613MOL0     C80809   0.663   0.526   8.489 -0.1753  0.6758  0.1593
  613MOL0     C80810   0.626   0.587   8.614  0.8769  0.2006  0.0100
  613MOL0     C80811   0.483   0.596   8.641 -0.9699  0.6732  0.5827
  613MOL0     C80812   0.397   0.531   8.563  0.7350 -0.3864  1.0491
  613MOL0     C80813   0.255   0.532   8.604  0.1373  0.3894  1.0698
  613MOL0     O80814   0.160   0.511   8.506 -0.1891  0.2264  0.1306
  613MOL0     C80815   0.032   0.508   8.548 -0.7560  0.5811 -0.7759
  613MOL0     C80816  -0.019   0.417   8.650 -0.6912 -0.8025  1.0653
  613MOL0     C80817  -0.156   0.419   8.668 -0.5156 -0.2087 -0.7211
  613MOL0     C80818  -0.246   0.506   8.606 -0.2445  0.1269 -0.0817
  613MOL0     O80819  -0.374   0.477   8.632  0.6598  0.0083  0.7543
  613MOL0     C80820  -0.463   0.588   8.593 -1.0643 -0.1348  1.0551
  613MOL0     C80821  -0.511   0.565   8.444 -0.1836  0.5099 -0.6741
  613MOL0     C80822  -0.647   0.485   8.436 -0.0368  0.1528 -1.0789
  613MOL0     C80823  -0.701   0.462   8.291 -0.3756  0.3360 -0.6211
  613MOL0     C80824  -0.839   0.402   8.285  0.4395 -0.2144 -0.3963
  613MOL0     C80825  -0.945   0.509   8.312 -0.6673 -0.1079 -0.5814
  613MOL0     C80826  -1.076   0.447   8.276  0.3898 -0.4376 -0.2016
  613MOL0     C80827  -1.195   0.543   8.310  0.6923 -0.0291  0.1842
  613MOL0    Cl80828  -1.358   0.469   8.265  0.2586  0.2200  0.2440
  613MOL0     C80829  -0.187   0.591   8.508 -0.5593 -0.0662 -0.0301
  613MOL0     C80830  -0.051   0.592   8.490 -0.4651  1.0593 -0.0391
  613MOL0     O80831   0.230   0.558   8.724  0.1686 -0.5030  0.3183
  613MOL0     C80832   0.436   0.476   8.440 -0.0637 -0.7827 -0.5242
  613MOL0     C80833   0.570   0.473   8.404 -0.1030 -0.0304 -0.3135
  613MOL0     N80834   1.267   0.275   8.710  0.0060  0.6686 -0.0985
  613MOL0     N80835   1.361   0.248   8.789 -0.7262 -0.2362 -0.6720
  613MOL0     C80836   2.616  -0.058   8.834 -0.0199 -0.0852 -0.7249
  613MOL0     C80837   2.750  -0.026   8.814 -0.2176  0.3320  0.2529
  613MOL0     C80838   3.066   0.342   8.729  0.0813  0.5160  1.2720
  613MOL0     C80839   3.091   0.469   8.681 -0.2932 -0.3468 -0.0256
  613MOL0     C80840   3.212   0.543   8.703 -0.2094  0.1520 -0.6384
  613MOL0     C80841   3.317   0.481   8.776 -1.4900 -0.0354 -0.1235
  613MOL0     O80842   3.434   0.556   8.791 -0.4350 -0.6670  0.7195
  613MOL0     C80843   3.528   0.523   8.895 -0.1372 -0.8913 -0.5861
  613MOL0     C80844   3.647   0.629   8.911  0.6704  0.6024  0.2307
  613MOL0     C80845   3.723   0.618   9.043  0.0534 -0.0933  0.1368
  613MOL0     C80846   3.859   0.685   9.029 -0.5112 -0.3496 -0.1885
  613MOL0     C80847   3.943   0.590   8.953 -0.0219  0.1557 -0.0493
  613MOL0     C80848   4.023   0.513   8.904 -0.1925  0.2669  0.6305
  613MOL0     C80849   3.306   0.349   8.820  0.2636  0.3943 -0.3029
  613MOL0     C80850   3.181   0.279   8.785  0.2379 -0.0421  0.0722
  613MOL0     H80851   2.716   0.316   8.807  0.6185  0.6865  0.9346
  613MOL0     H80852   2.512   0.269   8.875  1.1753 -0.3701  5.4667
  613MOL0     H80853   2.414  -0.133   9.023 -0.0390 -0.6152 -0.8064
  613MOL0     H80854   2.348  -0.170   8.869 -0.5899  2.0960 -1.6580
  613MOL0     H80855   2.230   0.022   9.088 -0.5628  1.7238 -1.5105
  613MOL0     H80856   2.164  -0.139   9.079  0.6067  2.4362  3.9769
  613MOL0     H80857   2.119  -0.084   8.837 -0.2355  0.3641 -0.3624
  613MOL0     H80858   2.168   0.089   8.866 -1.0015  0.2815 -1.6553
  613MOL0     H80859   1.934  -0.062   9.000  0.4133  0.8177  2.4999
  613MOL0     H80860   1.985   0.099   9.032  1.0260  0.0896  0.5415
  613MOL0     H80861   1.894   0.000   8.753  2.7327 -1.3290  0.8678
  613MOL0     H80862   1.945   0.166   8.791  1.1224  1.1345  1.3114
  613MOL0     H80863   1.779   0.184   8.964 -0.0302 -3.4306  2.9093
  613MOL0     H80864   1.717   0.032   8.949 -0.4109 -0.9192 -2.8848
  613MOL0     H80865   1.733   0.146   8.683 -1.0641  0.4887 -1.3258
  613MOL0     H80866   1.608   0.058   8.767 -0.2200 -0.2331  0.1839
  613MOL0     H80867   1.677   0.359   8.730  0.5852 -0.2108  0.6764
  613MOL0     H80868   1.616   0.320   8.888 -5.3187 -0.5321  0.5781
  613MOL0     H80869   1.508   0.410   8.537  2.6123 -1.1264  1.1103
  613MOL0     H80870   1.230   0.297   8.394 -3.4619 -1.1691  0.9693
  613MOL0     H80871   1.249   0.468   8.456 -2.5656  0.7137 -1.8781
  613MOL0     H80872   1.042   0.423   8.605 -0.4861 -1.7168  1.2967
  613MOL0     H80873   1.041   0.261   8.536  1.6239  0.7091  1.1826
  613MOL0     H80874   1.024   0.526   8.374 -2.6963  0.6513  1.6466
  613MOL0     H80875   1.034   0.362   8.297 -1.7374 -1.9290  0.7695
  613MOL0     H80876   0.807   0.312   8.420 -0.6280 -0.7317 -1.4378
  613MOL0     H80877   0.817   0.436   8.290  1.1357  1.0305  0.3231
  613MOL0     H80878   0.693   0.616   8.694  0.1673  0.3120  0.5771
  613MOL0     H80879   0.465   0.628   8.743 -1.1059  0.2869  0.6824
  613MOL0     H80880   0.047   0.342   8.693  1.3842 -0.0591 -0.6300
  613MOL0     H80881  -0.206   0.340   8.724 -0.8681 -0.9554 -2.0354
  613MOL0     H80882  -0.410   0.684   8.594 -0.3407 -0.3867 -2.3112
  613MOL0     H80883  -0.551   0.604   8.657 -1.1599  1.2818  0.5925
  613MOL0     H80884  -0.441   0.502   8.388 -0.0399 -1.1614  1.2702
  613MOL0     H80885  -0.541   0.659   8.398  0.3759  0.8496 -0.3636
  613MOL0     H80886  -0.716   0.540   8.501  0.0937  0.2943 -1.0607
  613MOL0     H80887  -0.625   0.385   8.475  1.7891  0.1233 -2.0778
  613MOL0     H80888  -0.698   0.556   8.235 -4.6826  0.7893 -0.4194
  613MOL0     H80889  -0.638   0.390   8.237  0.8705  0.6643  0.3672
  613MOL0     H80890  -0.844   0.320   8.356  0.8606 -0.3009 -0.4653
  613MOL0     H80891  -0.852   0.352   8.189 -3.8664 -0.2401  0.0141
  613MOL0     H80892  -0.930   0.601   8.253 -2.3613 -0.3527 -1.4611
  613MOL0     H80893  -0.944   0.534   8.418 -0.9368 -1.4345 -0.2482
  613MOL0     H80894  -1.086   0.429   8.169  0.5067  1.4639 -0.5655
  613MOL0     H80895  -1.087   0.352   8.329 -1.4211  0.1585  0.5715
  613MOL0     H80896  -1.183   0.639   8.260 -1.3890  0.0414 -0.2545
  613MOL0     H80897  -1.195   0.557   8.419 -1.8543  0.0920  0.2353
  613MOL0     H80898  -0.244   0.674   8.467  3.7716  1.7532 -3.0896
  613MOL0     H80899  -0.012   0.662   8.416 -3.7696  1.5517 -1.4740
  613MOL0     H80900   0.360   0.434   8.375 -0.1227 -1.8424  0.2063
  613MOL0     H80901   0.591   0.424   8.310 -0.6374  0.7068 -0.8287
  613MOL0     H80902   2.581  -0.161   8.848 -3.1096  0.5098 -2.9465
  613MOL0     H80903   2.818  -0.110   8.806  1.5877  1.6733  0.9481
  613MOL0     H80904   3.012   0.526   8.632  2.0103  1.4345 -1.8651
  613MOL0     H80905   3.226   0.642   8.660 -2.9759  1.3828  1.0708
  613MOL0     H80906   3.583   0.433   8.867 -0.1201 -0.8090 -0.8133
  613MOL0     H80907   3.468   0.508   8.986 -4.2106  1.0293 -2.6909
  613MOL0     H80908   3.709   0.607   8.823  1.2635 -0.6227  0.9232
  613MOL0     H80909   3.613   0.733   8.902 -1.0965  0.2530  2.1304
  613MOL0     H80910   3.742   0.515   9.073  3.3007  0.7047  1.2207
  613MOL0     H80911   3.659   0.659   9.122 -0.2946  0.4308 -0.4094
  613MOL0     H80912   3.845   0.786   8.989  1.8562 -0.1178 -0.5676
  613MOL0     H80913   3.909   0.693   9.126  0.7077 -1.1031 -0.7297
  613MOL0     H80914   4.088   0.440   8.861 -0.0897 -0.1649  1.5103
  613MOL0     H80915   3.386   0.296   8.872 -1.8264 -2.2454  0.4434
  613MOL0     H80916   3.159   0.177   8.818 -1.0850  0.5290  1.0724
  614MOL0     O80917   2.157   9.998   6.813 -0.0547  0.4366  0.2676
  614MOL0     C80918   2.159  10.018   6.695  0.0823  0.2142  0.0047
  614MOL0     O80919   2.050  10.029   6.615  0.8151  1.0158  0.7188
  614MOL0     C80920   1.923  10.019   6.674 -0.4109  0.2987 -0.1702
  614MOL0     C80921   1.859   9.891   6.690  0.0441  0.2558 -0.8682
  614MOL0     C80922   1.749   9.879   6.775  0.8684 -0.1230  0.0709
  614MOL0     C80923   1.707   9.985   6.846  0.2786 -0.3349 -0.9445
  614MOL0     O80924   1.600   9.968   6.930  0.7826  0.2928  0.2471
  614MOL0     C80925   1.542  10.080   7.007 -0.3138  0.4492  0.7648
  614MOL0     C80926   1.442  10.021   7.098 -0.1391 -0.3083  0.0979
  614MOL0     C80927   1.336   9.919   7.031 -0.5648 -0.2393 -0.4579
  614MOL0     C80928   1.222   9.889   7.135 -0.3722 -0.5615 -0.3531
  614MOL0     C80929   1.268   9.798   7.245  0.0064 -0.3514 -0.8141
  614MOL0     C80930   1.153   9.772   7.343  0.9082 -0.9826  0.0302
  614MOL0     C80931   1.166   9.644   7.400  0.8916  0.7415 -0.4995
  614MOL0     C80932   1.285   9.641   7.487 -0.3508  0.4007  0.3410
  614MOL0     N80933   1.292   9.527   7.571  1.1087  0.7290 -1.0021
  614MOL0     C80934   1.319   9.404   7.532 -0.8577 -0.7701 -1.3316
  614MOL0     C80935   1.295   9.319   7.635 -0.4292 -1.3520  0.0116
  614MOL0     C80936   1.319   9.175   7.666  0.1092 -0.2448  0.8103
  614MOL0     C80937   1.209   9.085   7.611 -0.2884 -0.5168  0.1781
  614MOL0     C80938   1.184   8.958   7.697  0.3084  0.1474  0.7594
  614MOL0     C80939   1.105   8.856   7.617 -0.0569 -0.2594 -0.1280
  614MOL0     O80940   1.072   8.748   7.705 -0.7387 -0.9884 -0.0781
  614MOL0     C80941   0.933   8.727   7.723  0.2578  0.0928  0.7039
  614MOL0     C80942   0.858   8.806   7.810  0.3216 -0.7144 -0.1177
  614MOL0     C80943   0.724   8.799   7.811 -0.1511  0.3655  0.5323
  614MOL0     C80944   0.649   8.714   7.723  0.2667 -0.8396 -0.3179
  614MOL0     C80945   0.500   8.702   7.738 -0.2255 -0.1879 -0.2102
  614MOL0     O80946   0.440   8.604   7.677  0.5439  0.4287 -0.5735
  614MOL0     C80947   0.293   8.574   7.680 -0.4803 -0.1149 -0.3688
  614MOL0     C80948   0.196   8.609   7.778  0.2128 -0.5090 -0.1569
  614MOL0     C80949   0.065   8.549   7.766  0.0287 -1.5689  0.3872
  614MOL0     C80950   0.036   8.463   7.659  0.1769 -0.1033  0.8378
  614MOL0     O80951  -0.090   8.404   7.646  0.2923  0.0965 -0.3065
  614MOL0     C80952  -0.160   8.375   7.766  0.4091  0.7629 -0.3287
  614MOL0     C80953  -0.262   8.265   7.755  0.5253  0.2326  0.1070
  614MOL0     C80954  -0.390   8.323   7.694  0.0731  0.2938 -0.6516
  614MOL0     C80955  -0.498   8.215   7.685  0.5053 -0.7634  0.4223
  614MOL0     C80956  -0.600   8.263   7.586  0.0207  0.4006  0.2630
  614MOL0     C80957  -0.700   8.154   7.561 -0.1882  0.5933 -0.2582
  614MOL0     C80958  -0.828   8.199   7.499 -0.6616  0.7159  0.5478
  614MOL0     C80959  -0.939   8.235   7.604 -0.3356 -0.3256  0.1054
  614MOL0    Cl80960  -1.080   8.304   7.523 -0.1156  0.1502 -0.0616
  614MOL0     C80961   0.139   8.429   7.565  0.2445 -0.2533 -0.7559
  614MOL0     C80962   0.262   8.493   7.565 -0.0603  0.2329 -0.4582
  614MOL0     O80963   0.447   8.780   7.816 -0.2384 -0.1100  0.0672
  614MOL0     C80964   0.726   8.628   7.638 -0.0382 -0.0160  0.3526
  614MOL0     C80965   0.866   8.630   7.642  0.8097  0.9620 -0.6866
  614MOL0     N80966   1.235   9.397   7.724  0.0239  0.2259  0.1615
  614MOL0     N80967   1.231   9.518   7.690  0.0593 -0.5869 -0.8320
  614MOL0     C80968   1.763  10.115   6.834  0.1913  0.6569  0.0786
  614MOL0     C80969   1.875  10.122   6.748  0.4689  0.2399  0.6779
  614MOL0     C80970   2.278  10.036   6.618 -1.8933  0.1639 -0.5405
  614MOL0     C80971   2.289  10.068   6.484  0.8203 -1.2151  0.6178
  614MOL0     C80972   2.403  10.104   6.417  0.3622 -0.2508  0.0081
  614MOL0     C80973   2.531  10.064   6.474 -0.0516  0.4368 -0.0082
  614MOL0     O80974   2.656  10.085   6.421 -0.2788  0.2401  1.1329
  614MOL0     C80975   2.662  10.051   6.281  0.2766  1.1249  0.4840
  614MOL0     C80976   2.691   9.906   6.246  0.1133  0.3129 -0.4946
  614MOL0     C80977   2.814   9.854   6.330 -0.5586  0.1952  0.3191
  614MOL0     C80978   2.949   9.883   6.263  0.5267  0.1865  1.0407
  614MOL0     C80979   2.964   9.816   6.131 -0.3495 -0.1198 -0.4247
  614MOL0     C80980   2.986   9.778   6.020 -0.1817  0.8557  0.6962
  614MOL0     C80981   2.526  10.024   6.603 -0.0769  0.0557  0.3634
  614MOL0     C80982   2.411  10.015   6.681  0.8853  0.0314  0.3732
  614MOL0     H80983   1.892   9.796   6.649 -3.3655 -1.4543 -0.0144
  614MOL0     H80984   1.690   9.788   6.786 -1.5168  1.0510 -1.9404
  614MOL0     H80985   1.497  10.148   6.934 -0.2298  0.7854  1.0259
  614MOL0     H80986   1.627  10.129   7.056  0.9054 -1.5657  0.7694
  614MOL0     H80987   1.391  10.105   7.145 -2.2393 -1.6388  0.3719
  614MOL0     H80988   1.486   9.962   7.179 -1.3311 -1.5443 -0.1110
  614MOL0     H80989   1.383   9.824   7.002 -1.2506  0.5299 -4.7733
  614MOL0     H80990   1.286   9.972   6.949 -1.5456  1.7296  1.3071
  614MOL0     H80991   1.184   9.981   7.180 -0.1795 -0.6857  0.0728
  614MOL0     H80992   1.134   9.851   7.083  0.0509 -1.7240 -0.2713
  614MOL0     H80993   1.353   9.837   7.301  1.0237  0.4761 -2.8229
  614MOL0     H80994   1.304   9.712   7.188  0.6594  0.7796 -2.1772
  614MOL0     H80995   1.059   9.766   7.288  0.0473 -0.6450  1.4282
  614MOL0     H80996   1.130   9.852   7.414  0.9292 -1.1166  0.1871
  614MOL0     H80997   1.075   9.627   7.458  1.7254 -2.5954  0.0812
  614MOL0     H80998   1.175   9.562   7.328  1.4212 -3.3185  3.7104
  614MOL0     H80999   1.286   9.736   7.543  0.6808  2.1542 -2.4275
  614MOL0     H81000   1.380   9.647   7.433  0.1785 -3.5041  0.5780
  614MOL0     H81001   1.354   9.372   7.434 -2.6078  0.0452 -2.2674
  614MOL0     H81002   1.328   9.159   7.774 -2.5747  0.9318  1.2940
  614MOL0     H81003   1.415   9.148   7.621 -0.6070  0.3546 -1.1621
  614MOL0     H81004   1.239   9.068   7.507  0.8041  0.2754  0.3381
  614MOL0     H81005   1.115   9.140   7.598  0.1432  1.3063  3.7193
  614MOL0     H81006   1.278   8.912   7.727  0.5805 -1.1964 -1.8899
  614MOL0     H81007   1.125   9.004   7.777 -0.0157 -2.2768  1.9995
  614MOL0     H81008   1.158   8.818   7.529  3.0127  0.6489  1.1854
  614MOL0     H81009   1.011   8.895   7.576 -0.5120 -2.6635 -1.5419
  614MOL0     H81010   0.912   8.870   7.878  2.1945  0.5061 -2.6035
  614MOL0     H81011   0.683   8.876   7.876  1.6743  1.7844  0.0891
  614MOL0     H81012   0.210   8.666   7.869 -2.4549 -1.7091  1.1234
  614MOL0     H81013  -0.010   8.586   7.836 -0.8006  1.5106 -1.8901
  614MOL0     H81014  -0.216   8.466   7.792  0.6560  0.5306  1.1356
  614MOL0     H81015  -0.094   8.345   7.848  0.1552  0.1238 -0.3511
  614MOL0     H81016  -0.272   8.218   7.853 -3.0477 -0.8034 -0.6337
  614MOL0     H81017  -0.222   8.188   7.687  1.8428  0.2336  0.8346
  614MOL0     H81018  -0.378   8.357   7.590 -2.3928  0.5603 -0.8977
  614MOL0     H81019  -0.430   8.401   7.759 -2.1630 -2.3197  1.3668
  614MOL0     H81020  -0.445   8.128   7.645  0.6424  0.9112 -3.5322
  614MOL0     H81021  -0.527   8.187   7.787  0.4300 -0.4380  0.4910
  614MOL0     H81022  -0.559   8.285   7.487  2.0085 -2.5012  0.3437
  614MOL0     H81023  -0.649   8.351   7.631  2.1423  0.8430  1.8870
  614MOL0     H81024  -0.728   8.100   7.652 -2.5366 -0.4109 -1.4942
  614MOL0     H81025  -0.663   8.074   7.496 -1.5333 -0.2146 -0.0723
  614MOL0     H81026  -0.812   8.279   7.426  0.0204  0.0728 -0.0208
  614MOL0     H81027  -0.872   8.113   7.447 -3.2552  3.0060 -1.3359
  614MOL0     H81028  -0.894   8.307   7.673 -0.1476 -0.9375  0.6265
  614MOL0     H81029  -0.970   8.147   7.661 -1.2263  0.1459  0.3839
  614MOL0     H81030   0.109   8.380   7.474  2.5064  0.8212 -2.1693
  614MOL0     H81031   0.339   8.453   7.500  0.2127 -2.7316  1.5166
  614MOL0     H81032   0.672   8.569   7.566 -1.6907  0.8161  0.8485
  614MOL0     H81033   0.927   8.574   7.572 -0.1816  0.4934 -1.1859
  614MOL0     H81034   1.723  10.209   6.873  0.7641  0.0723  2.2360
  614MOL0     H81035   1.924  10.215   6.721 -1.3701  1.8898  2.6747
  614MOL0     H81036   2.201  10.066   6.421  2.1368  2.3801 -1.6602
  614MOL0     H81037   2.396  10.144   6.317  1.3292 -0.1215 -0.0176
  614MOL0     H81038   2.729  10.118   6.227 -0.5767  0.8233 -1.0317
  614MOL0     H81039   2.575  10.080   6.222  0.1997  0.7787  0.4218
  614MOL0     H81040   2.598   9.852   6.266 -1.8462  2.9597 -1.7562
  614MOL0     H81041   2.713   9.893   6.139  0.4918  0.6621 -0.4620
  614MOL0     H81042   2.808   9.747   6.351 -0.9735 -0.2814 -1.9324
  614MOL0     H81043   2.812   9.902   6.428  1.7967  1.5585 -0.2360
  614MOL0     H81044   2.962   9.991   6.256 -1.5696  0.6080  2.8292
  614MOL0     H81045   3.032   9.856   6.330  0.0526  0.1634  1.6237
  614MOL0     H81046   2.995   9.737   5.922  2.2252  0.8604  0.8681
  614MOL0     H81047   2.623  10.009   6.649 -1.9409  1.4272  5.3600
  614MOL0     H81048   2.413   9.995   6.788 -0.4446 -1.2066  0.1850
  615MOL0     O81049   8.224   4.256   1.705  0.1808  0.0467 -0.2094
  615MOL0     C81050   8.297   4.171   1.665 -0.8560 -0.1965 -0.0563
  615MOL0     O81051   8.265   4.038   1.635 -0.2897 -0.2369 -0.4018
  615MOL0     C81052   8.143   3.991   1.672 -0.1602  0.1848  0.9664
  615MOL0     C81053   8.095   4.006   1.797 -0.4260 -0.3378 -0.0075
  615MOL0     C81054   7.974   3.958   1.850  0.1232  0.8005 -0.1712
  615MOL0     C81055   7.884   3.899   1.757  0.4484 -0.1546 -0.0399
  615MOL0     O81056   7.760   3.850   1.793  0.0250 -0.2708  0.0151
  615MOL0     C81057   7.647   3.865   1.707  0.4393  0.0226 -0.0696
  615MOL0     C81058   7.546   3.773   1.763 -1.0093 -0.1132 -0.1055
  615MOL0     C81059   7.419   3.782   1.680  0.0736 -0.8306  0.0926
  615MOL0     C81060   7.315   3.675   1.716  0.7827 -0.1448  0.0698
  615MOL0     C81061   7.182   3.696   1.627 -0.7396 -0.5077 -0.3122
  615MOL0     C81062   7.097   3.574   1.654 -0.5569  0.6677  0.2101
  615MOL0     C81063   6.961   3.584   1.591 -0.5838  0.0364  0.5618
  615MOL0     C81064   6.899   3.445   1.615  0.7215  0.8369 -0.1359
  615MOL0     N81065   6.764   3.431   1.570  0.1807 -0.7252 -0.2498
  615MOL0     C81066   6.658   3.475   1.649 -0.7341 -0.6798 -0.5894
  615MOL0     C81067   6.558   3.475   1.562 -0.7380 -0.2028  0.7852
  615MOL0     C81068   6.427   3.533   1.607 -0.7095 -0.1598 -0.0510
  615MOL0     C81069   6.310   3.484   1.526 -0.4297 -0.4393 -1.0457
  615MOL0     C81070   6.177   3.533   1.590  0.3335 -0.1212 -0.3966
  615MOL0     C81071   6.060   3.453   1.540 -0.1008  0.1085 -0.5106
  615MOL0     O81072   5.954   3.487   1.628 -0.4475  0.1922  0.8549
  615MOL0     C81073   5.828   3.447   1.586  0.1878  0.3368 -0.6559
  615MOL0     C81074   5.727   3.487   1.672 -0.5186 -0.7673  0.6421
  615MOL0     C81075   5.594   3.459   1.648  0.4642 -0.0030 -0.1107
  615MOL0     C81076   5.557   3.375   1.544  0.4209 -0.3332  0.6572
  615MOL0     C81077   5.421   3.322   1.514  0.3941 -0.3963 -0.0426
  615MOL0     O81078   5.401   3.257   1.399  0.6288 -0.7890 -0.6847
  615MOL0     C81079   5.276   3.201   1.373 -0.2656 -0.1483 -0.5373
  615MOL0     C81080   5.191   3.265   1.291 -0.2248  0.1488  0.7500
  615MOL0     C81081   5.077   3.204   1.251 -0.2878 -0.7183  0.0614
  615MOL0     C81082   5.034   3.088   1.310 -0.7528  0.0961  0.6184
  615MOL0     O81083   4.914   3.026   1.261  0.3960 -0.3944  0.2737
  615MOL0     C81084   4.831   2.953   1.360  0.2640 -0.1649 -0.1762
  615MOL0     C81085   4.708   2.917   1.304  0.2720  0.5753  0.2460
  615MOL0     C81086   4.592   2.887   1.408  0.3410 -0.1333  0.2170
  615MOL0     C81087   4.477   2.820   1.332  0.3372 -0.1926  0.2376
  615MOL0     C81088   4.486   2.660   1.335 -0.0153  0.3198 -0.0871
  615MOL0     C81089   4.351   2.599   1.283 -0.2358  0.4857 -0.6234
  615MOL0     C81090   4.361   2.448   1.261  0.9823 -0.2944 -0.1329
  615MOL0     C81091   4.251   2.409   1.157  1.3990 -0.5794 -0.0031
  615MOL0    Cl81092   4.089   2.408   1.239  0.1604 -0.7683 -0.0282
  615MOL0     C81093   5.117   3.021   1.403  0.1917  0.6064  0.4371
  615MOL0     C81094   5.243   3.082   1.431 -0.5951 -0.2656 -0.3611
  615MOL0     O81095   5.330   3.340   1.599  0.6684  0.0654  0.7639
  615MOL0     C81096   5.666   3.340   1.458 -0.0597 -0.2164 -0.4801
  615MOL0     C81097   5.799   3.370   1.483  0.0545  0.7965  0.1704
  615MOL0     N81098   6.600   3.440   1.431 -0.9193 -0.0523  0.2202
  615MOL0     N81099   6.724   3.403   1.443 -0.3400  0.2370  0.4278
  615MOL0     C81100   7.933   3.883   1.623  0.3409 -0.0405 -0.3283
  615MOL0     C81101   8.060   3.927   1.578  0.8174  0.1599 -0.4854
  615MOL0     C81102   8.428   4.231   1.612  0.0705 -1.1025  0.1208
  615MOL0     C81103   8.499   4.162   1.512 -0.5920 -1.0368  0.8781
  615MOL0     C81104   8.615   4.219   1.466  0.0251  0.1718 -0.5055
  615MOL0     C81105   8.685   4.330   1.531  0.7376 -0.7285 -0.2520
  615MOL0     O81106   8.808   4.386   1.493 -0.3273  0.0026 -0.0213
  615MOL0     C81107   8.910   4.288   1.468 -0.1284  0.7572  0.0782
  615MOL0     C81108   9.038   4.359   1.437 -1.0572  0.3132 -0.0495
  615MOL0     C81109   9.139   4.365   1.551  0.4395  0.1055 -0.0292
  615MOL0     C81110   9.081   4.455   1.662  0.2584  0.3087 -0.1609
  615MOL0     C81111   9.182   4.520   1.752  0.1798 -0.2720 -0.8506
  615MOL0     C81112   9.270   4.579   1.808  0.8453 -0.0522  0.7766
  615MOL0     C81113   8.612   4.397   1.627 -0.1300  1.0709 -0.0968
  615MOL0     C81114   8.484   4.350   1.660 -1.3722 -0.3752 -0.1730
  615MOL0     H81115   8.163   4.045   1.872  1.7637 -2.8329 -0.5329
  615MOL0     H81116   7.954   3.967   1.956 -0.1743  2.1773 -0.3311
  615MOL0     H81117   7.668   3.842   1.603 -1.4603  2.0196 -0.9773
  615MOL0     H81118   7.621   3.971   1.723  3.9869  0.6799  2.5052
  615MOL0     H81119   7.532   3.789   1.871 -1.5706 -0.2782 -0.1544
  615MOL0     H81120   7.584   3.671   1.756  0.1100  0.1190  1.6721
  615MOL0     H81121   7.446   3.777   1.574 -0.1212 -0.9756  0.0502
  615MOL0     H81122   7.370   3.877   1.704  1.2782 -0.1526 -0.0490
  615MOL0     H81123   7.357   3.576   1.699  1.0509  0.5527 -4.6887
  615MOL0     H81124   7.288   3.671   1.822  0.6833 -4.0763  0.0273
  615MOL0     H81125   7.209   3.702   1.521  2.7389  1.2216  0.5249
  615MOL0     H81126   7.127   3.787   1.655 -0.5573 -0.4413 -0.1682
  615MOL0     H81127   7.089   3.554   1.762  0.8560  1.6365  0.5115
  615MOL0     H81128   7.153   3.495   1.604 -2.5360 -1.6909  1.4378
  615MOL0     H81129   6.907   3.658   1.650  0.5174 -0.3557  2.1286
  615MOL0     H81130   6.962   3.601   1.483 -0.3713 -3.8899 -0.2252
  615MOL0     H81131   6.911   3.428   1.723  2.6425 -2.4545 -0.7439
  615MOL0     H81132   6.957   3.371   1.559  1.0092  0.4773  0.6194
  615MOL0     H81133   6.665   3.501   1.755 -0.7575 -1.6425 -0.3414
  615MOL0     H81134   6.426   3.642   1.596 -0.6488 -0.0889  0.6043
  615MOL0     H81135   6.424   3.515   1.715 -0.4346  1.2965  0.2199
  615MOL0     H81136   6.312   3.375   1.530 -0.5538 -0.4267 -0.4343
  615MOL0     H81137   6.323   3.519   1.424  0.3533  0.5533 -0.6295
  615MOL0     H81138   6.179   3.532   1.699 -1.3327 -6.3066 -0.0963
  615MOL0     H81139   6.157   3.633   1.551 -1.5183 -0.6160 -0.7860
  615MOL0     H81140   6.091   3.349   1.553 -2.1999 -0.2001  3.5642
  615MOL0     H81141   6.030   3.483   1.439 -2.0616 -1.3055 -0.4062
  615MOL0     H81142   5.756   3.550   1.755 -1.6481  0.4301  0.1618
  615MOL0     H81143   5.520   3.499   1.717  0.1444 -2.6660  1.2351
  615MOL0     H81144   5.236   3.354   1.247  1.3950 -0.8755  0.2728
  615MOL0     H81145   5.028   3.264   1.175  1.1082  1.7926  1.0316
  615MOL0     H81146   4.824   3.016   1.449  2.7973  1.0061 -0.7345
  615MOL0     H81147   4.871   2.856   1.392  0.6506 -0.0627 -0.3412
  615MOL0     H81148   4.727   2.837   1.232 -3.0965  1.6507 -2.0524
  615MOL0     H81149   4.675   3.001   1.242 -2.5891  0.6682  1.7112
  615MOL0     H81150   4.568   2.986   1.448  1.0917 -0.8158  2.4871
  615MOL0     H81151   4.628   2.820   1.486  1.5573 -0.2231 -0.4043
  615MOL0     H81152   4.378   2.853   1.362 -1.4726 -3.4149 -1.6309
  615MOL0     H81153   4.486   2.843   1.225 -0.4989  3.2710  0.7965
  615MOL0     H81154   4.512   2.623   1.435 -0.4992  0.3924  0.0646
  615MOL0     H81155   4.567   2.624   1.270 -1.9269  0.0842 -2.4652
  615MOL0     H81156   4.319   2.648   1.191 -2.3393 -0.1416 -0.2880
  615MOL0     H81157   4.267   2.623   1.349 -0.1746 -0.4534 -0.1838
  615MOL0     H81158   4.451   2.413   1.208  0.6829  0.9815 -1.5399
  615MOL0     H81159   4.341   2.395   1.354 -0.4840 -2.0375 -1.3812
  615MOL0     H81160   4.264   2.307   1.118 -0.5421 -1.1455  0.7407
  615MOL0     H81161   4.237   2.476   1.072  1.1729 -3.7771 -2.7001
  615MOL0     H81162   5.100   2.926   1.452 -0.3076 -0.7615 -2.1823
  615MOL0     H81163   5.312   3.039   1.503 -1.6480  0.3049  1.0393
  615MOL0     H81164   5.630   3.292   1.368 -3.6603  0.3769  0.5048
  615MOL0     H81165   5.868   3.338   1.406  1.3212  1.3044  1.0723
  615MOL0     H81166   7.869   3.836   1.549  0.1312 -5.1797  2.6331
  615MOL0     H81167   8.103   3.906   1.481 -2.8368  2.7015 -2.9227
  615MOL0     H81168   8.450   4.081   1.460 -0.6692 -0.8887  0.7160
  615MOL0     H81169   8.663   4.159   1.389  0.2673 -2.6305  1.6910
  615MOL0     H81170   8.880   4.221   1.388 -0.6585 -2.3678  2.6672
  615MOL0     H81171   8.926   4.223   1.555  0.5738 -0.6249 -1.0377
  615MOL0     H81172   9.083   4.295   1.361 -2.0615 -0.3011 -0.1486
  615MOL0     H81173   9.029   4.456   1.387 -0.6737  0.0038 -0.7277
  615MOL0     H81174   9.238   4.400   1.520  1.2723 -2.6056 -0.6729
  615MOL0     H81175   9.154   4.264   1.589  1.1911  0.2175 -0.0177
  615MOL0     H81176   9.012   4.530   1.622 -0.6366 -0.9005 -0.9605
  615MOL0     H81177   9.017   4.391   1.723  1.2495  2.0641  2.9941
  615MOL0     H81178   9.339   4.638   1.865  0.2340 -0.4432  1.9455
  615MOL0     H81179   8.664   4.479   1.675  1.7578  0.4175 -0.9055
  615MOL0     H81180   8.438   4.408   1.740  1.6354  1.4482  0.3946
  616MOL0     O81181   0.248   8.205   0.568 -0.1154 -0.2232  0.1185
  616MOL0     C81182   0.284   8.293   0.497  0.2806  0.0439 -0.6968
  616MOL0     O81183   0.201   8.380   0.423  0.5338 -0.4003 -0.1189
  616MOL0     C81184   0.067   8.409   0.444 -0.1909  0.8568  0.0268
  616MOL0     C81185  -0.005   8.462   0.338  0.1140  0.1511  0.5134
  616MOL0     C81186  -0.145   8.482   0.346 -1.1818  0.4108  0.5889
  616MOL0     C81187  -0.206   8.464   0.466 -0.2880 -0.5285 -0.3469
  616MOL0     O81188  -0.342   8.484   0.490 -0.1181  0.2828  0.2473
  616MOL0     C81189  -0.423   8.574   0.403 -0.1603 -0.1838  0.7325
  616MOL0     C81190  -0.567   8.592   0.455  0.2893  0.3092  0.2263
  616MOL0     C81191  -0.644   8.699   0.384  0.2493  1.0707 -0.2814
  616MOL0     C81192  -0.780   8.704   0.457  0.0245 -1.0605  0.4340
  616MOL0     C81193  -0.870   8.811   0.385  0.4889 -0.0054  0.3723
  616MOL0     C81194  -1.016   8.790   0.437 -0.4764  0.6881 -1.1394
  616MOL0     C81195  -1.128   8.880   0.377  0.6955 -0.7364 -0.2552
  616MOL0     C81196  -1.124   9.018   0.440  0.7649  0.4950 -0.4641
  616MOL0     N81197  -1.220   9.099   0.368 -0.4374  0.7852  0.3293
  616MOL0     C81198  -1.212   9.149   0.237 -0.4252 -0.3717 -0.0190
  616MOL0     C81199  -1.329   9.221   0.215  0.2315 -0.2040 -0.0302
  616MOL0     C81200  -1.382   9.286   0.090 -0.9120 -0.4609  0.4614
  616MOL0     C81201  -1.535   9.252   0.067  0.2481  0.3785 -0.2129
  616MOL0     C81202  -1.636   9.337   0.147 -0.6532  0.6496  0.2704
  616MOL0     C81203  -1.774   9.315   0.094 -0.4721 -0.7732  0.4710
  616MOL0     O81204  -1.867   9.379   0.186 -0.5183  0.2384  0.1858
  616MOL0     C81205  -1.999   9.361   0.175  0.0149 -0.2429 -0.5660
  616MOL0     C81206  -2.073   9.271   0.094  0.2400  1.0046  0.5197
  616MOL0     C81207  -2.209   9.247   0.107  0.3553 -0.2112 -0.0448
  616MOL0     C81208  -2.275   9.328   0.202 -0.0674  0.4920  0.3410
  616MOL0     C81209  -2.420   9.309   0.232 -0.2724 -0.2886  0.6072
  616MOL0     O81210  -2.478   9.381   0.336 -0.2870 -1.1821 -0.1795
  616MOL0     C81211  -2.598   9.343   0.378  0.0002  0.1567  0.9705
  616MOL0     C81212  -2.608   9.255   0.484 -0.5934 -0.7570  0.2496
  616MOL0     C81213  -2.733   9.214   0.531 -0.0856 -0.1324 -0.1530
  616MOL0     C81214  -2.849   9.259   0.467  0.2085  0.6172 -0.6150
  616MOL0     O81215  -2.962   9.202   0.514 -0.0157  0.0757 -0.2675
  616MOL0     C81216  -3.079   9.292   0.509 -0.1935 -0.1440 -0.7586
  616MOL0     C81217  -3.173   9.234   0.616 -0.4837 -0.5540  0.3175
  616MOL0     C81218  -3.298   9.319   0.637 -0.4555  0.4294  0.3871
  616MOL0     C81219  -3.412   9.255   0.712 -0.1812 -0.7308 -0.7387
  616MOL0     C81220  -3.533   9.349   0.733 -0.6070  1.0923 -0.0144
  616MOL0     C81221  -3.652   9.285   0.807  0.0368  0.4207 -0.0397
  616MOL0     C81222  -3.784   9.362   0.801 -0.4125  0.2278  0.6427
  616MOL0     C81223  -3.849   9.361   0.664  0.3085 -0.0805 -0.1575
  616MOL0    Cl81224  -3.953   9.503   0.645  0.1710  0.0647  0.0660
  616MOL0     C81225  -2.839   9.341   0.355  0.5141  0.1741  0.3125
  616MOL0     C81226  -2.715   9.383   0.311  0.0506 -0.3407 -0.5257
  616MOL0     O81227  -2.479   9.229   0.163 -0.1864 -0.8445  0.6628
  616MOL0     C81228  -2.208   9.423   0.280  0.0554 -0.9092  0.2878
  616MOL0     C81229  -2.072   9.441   0.267 -0.3290 -0.0198 -0.3866
  616MOL0     N81230  -1.395   9.222   0.340  0.0323 -0.1207  0.5007
  616MOL0     N81231  -1.333   9.145   0.422  0.7180 -0.9548  0.5271
  616MOL0     C81232  -0.129   8.422   0.577 -0.7537  0.4735  0.1505
  616MOL0     C81233   0.008   8.389   0.565 -0.1444 -0.2193 -0.3995
  616MOL0     C81234   0.425   8.312   0.455 -0.5355  0.4120 -0.4009
  616MOL0     C81235   0.469   8.434   0.396 -0.0411 -0.0396 -0.3800
  616MOL0     C81236   0.602   8.442   0.356  0.4477  0.3344 -0.2677
  616MOL0     C81237   0.697   8.340   0.382 -0.0424  0.4800 -0.2835
  616MOL0     O81238   0.820   8.368   0.334 -0.0210 -0.3662 -0.0545
  616MOL0     C81239   0.907   8.255   0.308  0.0345  0.5399 -0.0538
  616MOL0     C81240   1.028   8.308   0.224 -0.0360 -0.1214  0.3319
  616MOL0     C81241   0.979   8.357   0.087 -0.6155 -0.0811 -0.2499
  616MOL0     C81242   1.057   8.482   0.040  0.2785  0.2587  0.2621
  616MOL0     C81243   1.004   8.529  -0.086  0.1026 -0.7316 -0.0894
  616MOL0     C81244   0.961   8.547  -0.197  0.3524  0.1605  0.0907
  616MOL0     C81245   0.654   8.225   0.447  0.3676 -0.0856 -0.2274
  616MOL0     C81246   0.517   8.209   0.477 -1.1730 -0.7547  0.3413
  616MOL0     H81247   0.032   8.485   0.239  1.4509  0.6904  1.1177
  616MOL0     H81248  -0.201   8.514   0.259 -2.4116 -1.1837  0.7593
  616MOL0     H81249  -0.434   8.528   0.305 -0.0688  1.3296 -0.0100
  616MOL0     H81250  -0.381   8.675   0.401 -1.9116  0.5887  0.9966
  616MOL0     H81251  -0.554   8.622   0.559  3.6740  0.9140 -0.2351
  616MOL0     H81252  -0.621   8.498   0.445 -0.5486  0.7119  0.8027
  616MOL0     H81253  -0.659   8.687   0.276 -1.7090  3.2844 -0.3457
  616MOL0     H81254  -0.596   8.796   0.399  0.3439  1.1887 -1.2642
  616MOL0     H81255  -0.824   8.606   0.435 -2.1636  0.0852 -0.6167
  616MOL0     H81256  -0.767   8.720   0.564 -1.5697 -1.1862  0.6730
  616MOL0     H81257  -0.868   8.802   0.276 -1.2401  2.7206  0.0332
  616MOL0     H81258  -0.830   8.907   0.418  3.9310 -1.2507  0.2700
  616MOL0     H81259  -1.016   8.800   0.546  0.6018 -0.6436 -0.9948
  616MOL0     H81260  -1.042   8.684   0.426 -0.7299  0.8006 -1.6867
  616MOL0     H81261  -1.110   8.907   0.272  1.5052  3.8557  0.8226
  616MOL0     H81262  -1.226   8.836   0.396 -0.3165  0.9389 -1.3539
  616MOL0     H81263  -1.023   9.060   0.440  1.2048 -0.5160  0.3931
  616MOL0     H81264  -1.160   9.000   0.542 -0.0266 -0.4561 -0.8871
  616MOL0     H81265  -1.129   9.122   0.173 -0.2926  0.3768 -0.1745
  616MOL0     H81266  -1.330   9.248   0.002 -3.2055 -0.2096 -1.0999
  616MOL0     H81267  -1.346   9.388   0.107  0.5068 -1.0739  1.3201
  616MOL0     H81268  -1.563   9.154   0.104 -1.6058  1.2954  0.9707
  616MOL0     H81269  -1.557   9.267  -0.040 -0.8142  0.7502  0.0373
  616MOL0     H81270  -1.627   9.316   0.254 -3.1084  2.8977  1.0219
  616MOL0     H81271  -1.614   9.443   0.129  0.0132  0.7198  1.4166
  616MOL0     H81272  -1.779   9.206   0.090  2.2411 -0.9418  0.3529
  616MOL0     H81273  -1.800   9.360  -0.002 -1.3805 -0.3881  0.8819
  616MOL0     H81274  -2.012   9.215   0.024 -1.7613  0.7012 -1.0718
  616MOL0     H81275  -2.264   9.176   0.047 -2.4811 -0.1641  2.2671
  616MOL0     H81276  -2.524   9.210   0.537  1.2121  1.6215 -0.4235
  616MOL0     H81277  -2.725   9.151   0.619  1.0990  0.3765  0.1140
  616MOL0     H81278  -3.133   9.293   0.414 -0.8915  3.5142 -0.4954
  616MOL0     H81279  -3.049   9.395   0.532 -0.1298 -0.1938 -0.6218
  616MOL0     H81280  -3.121   9.226   0.713 -5.1876 -1.9105  3.0584
  616MOL0     H81281  -3.191   9.129   0.592  0.8295 -0.8374  0.4986
  616MOL0     H81282  -3.329   9.349   0.537 -0.3733  0.5860  0.4084
  616MOL0     H81283  -3.269   9.411   0.689 -1.4270  1.3523 -0.6473
  616MOL0     H81284  -3.439   9.155   0.677 -3.0475 -1.0087  1.8243
  616MOL0     H81285  -3.376   9.231   0.812 -0.4956  0.5194 -0.3066
  616MOL0     H81286  -3.568   9.382   0.635 -1.9177  1.5065  0.5770
  616MOL0     H81287  -3.510   9.438   0.792 -0.2344  0.8053  0.2760
  616MOL0     H81288  -3.632   9.264   0.913  0.6449 -1.1952 -0.4471
  616MOL0     H81289  -3.662   9.197   0.743  0.4582  1.6933 -1.9365
  616MOL0     H81290  -3.851   9.327   0.880 -1.1662  3.0713  1.3976
  616MOL0     H81291  -3.758   9.466   0.824  1.2506  0.2864 -1.1914
  616MOL0     H81292  -3.904   9.268   0.643 -0.9747  0.6278 -0.0228
  616MOL0     H81293  -3.773   9.366   0.586  0.9520 -0.3642  0.4439
  616MOL0     H81294  -2.933   9.362   0.306 -0.3371  1.6401  2.4153
  616MOL0     H81295  -2.709   9.453   0.228 -1.3175 -2.0734 -2.1898
  616MOL0     H81296  -2.258   9.485   0.353  1.3533  0.0876  0.3660
  616MOL0     H81297  -2.014   9.507   0.331  0.2056 -2.2297  1.5512
  616MOL0     H81298  -0.180   8.419   0.673  1.2720 -0.4843  1.2657
  616MOL0     H81299   0.071   8.352   0.645  1.9666  1.6229 -1.0973
  616MOL0     H81300   0.401   8.516   0.377 -1.6808 -1.5056 -1.1874
  616MOL0     H81301   0.634   8.542   0.327  2.4664  0.6047  2.4241
  616MOL0     H81302   0.851   8.179   0.252  0.6902 -0.5647  0.7477
  616MOL0     H81303   0.935   8.216   0.406 -0.6116  3.0968  1.2124
  616MOL0     H81304   1.087   8.383   0.277  2.6991 -2.2497  0.5167
  616MOL0     H81305   1.102   8.228   0.211 -0.9511 -0.8788 -0.3736
  616MOL0     H81306   0.871   8.376   0.085 -0.2548  2.3478 -1.2925
  616MOL0     H81307   0.997   8.282   0.010 -1.5047 -0.4976 -0.0699
  616MOL0     H81308   1.062   8.559   0.118  2.9277 -0.6899  1.1410
  616MOL0     H81309   1.159   8.448   0.022 -0.6013 -1.3017 -2.3573
  616MOL0     H81310   0.907   8.555  -0.289 -0.1378  0.3853  0.3922
  616MOL0     H81311   0.717   8.146   0.488  2.1069  0.7719 -1.1434
  616MOL0     H81312   0.488   8.109   0.508 -0.3905 -1.2345 -0.4122
  617MOL0     O81313   9.167   3.667   0.781 -0.3603  0.2260 -0.6080
  617MOL0     C81314   9.154   3.787   0.811  0.8710  0.7738 -0.0249
  617MOL0     O81315   9.042   3.866   0.799 -0.0516 -0.9180 -0.2510
  617MOL0     C81316   8.917   3.803   0.797 -0.0572 -0.6324 -0.5430
  617MOL0     C81317   8.873   3.724   0.695  0.3083  0.0101 -0.2202
  617MOL0     C81318   8.751   3.664   0.686  0.4301 -0.2004 -0.6590
  617MOL0     C81319   8.670   3.652   0.799 -0.8104 -0.2709  0.4263
  617MOL0     O81320   8.571   3.570   0.789 -0.0183  0.5144  0.4303
  617MOL0     C81321   8.461   3.588   0.876  0.8303 -0.2802 -0.7036
  617MOL0     C81322   8.331   3.513   0.820 -0.0181  0.0480 -0.1635
  617MOL0     C81323   8.210   3.551   0.901 -0.4558  0.9455  0.2903
  617MOL0     C81324   8.093   3.480   0.837  0.6117 -0.7201  0.5256
  617MOL0     C81325   7.968   3.532   0.900  0.3662  0.6114  0.8095
  617MOL0     C81326   7.858   3.429   0.871 -0.0002  0.7592  1.0791
  617MOL0     C81327   7.727   3.478   0.916 -0.7149  0.1436 -0.5691
  617MOL0     C81328   7.608   3.364   0.896 -0.2556 -0.7452  0.4145
  617MOL0     N81329   7.640   3.244   0.960  0.0784 -0.0979 -0.3944
  617MOL0     C81330   7.676   3.130   0.895 -1.0822 -0.0033 -0.0441
  617MOL0     C81331   7.733   3.049   0.997 -0.2863  0.4053 -0.0765
  617MOL0     C81332   7.771   2.901   0.971  0.2835 -0.1168 -0.6623
  617MOL0     C81333   7.901   2.904   0.882 -0.6966  0.3114 -1.4129
  617MOL0     C81334   8.025   2.949   0.972  0.1127  0.2202 -0.4302
  617MOL0     C81335   8.160   2.919   0.910 -0.3607 -0.4767  0.0101
  617MOL0     O81336   8.164   3.012   0.801 -0.0571 -0.5541  0.0606
  617MOL0     C81337   8.286   3.033   0.748 -0.3916 -0.7377 -0.5026
  617MOL0     C81338   8.410   2.962   0.775 -0.0598 -0.1162 -0.4754
  617MOL0     C81339   8.534   3.002   0.722  0.0591 -0.2174 -0.0613
  617MOL0     C81340   8.533   3.116   0.636  1.0364  0.4705 -0.4806
  617MOL0     C81341   8.662   3.146   0.582 -0.2305 -0.3320  0.0502
  617MOL0     O81342   8.775   3.085   0.634 -0.2615  0.5828 -0.6179
  617MOL0     C81343   8.898   3.145   0.617 -0.4253  0.0951 -0.1987
  617MOL0     C81344   8.989   3.064   0.564 -0.3692  0.1212  0.4444
  617MOL0     C81345   9.126   3.104   0.536  0.5444 -0.3729  1.0625
  617MOL0     C81346   9.173   3.230   0.580 -0.4544  0.1663  0.5553
  617MOL0     O81347   9.303   3.277   0.555  0.3830  0.1204 -0.1898
  617MOL0     C81348   9.408   3.186   0.504  0.2932 -0.1665 -0.2141
  617MOL0     C81349   9.545   3.250   0.516 -0.4316  0.1613 -0.1724
  617MOL0     C81350   9.564   3.352   0.403 -0.7478 -0.5413 -0.5641
  617MOL0     C81351   9.626   3.305   0.266 -0.3325  0.9094 -0.4612
  617MOL0     C81352   9.579   3.396   0.153 -0.6477 -0.1129  0.4722
  617MOL0     C81353   9.613   3.339   0.014  0.0980  0.0547 -0.6535
  617MOL0     C81354   9.755   3.316  -0.019  0.1544 -0.1339 -0.3016
  617MOL0     C81355   9.792   3.235  -0.133 -0.8834  0.0145  0.7371
  617MOL0    Cl81356   9.736   3.334  -0.274 -0.1071 -0.0231  0.1190
  617MOL0     C81357   9.071   3.315   0.621  0.2281  0.3976  0.1621
  617MOL0     C81358   8.934   3.281   0.635 -0.4374  0.1535  0.5415
  617MOL0     O81359   8.663   3.218   0.491  0.0520  0.6826 -0.3480
  617MOL0     C81360   8.418   3.184   0.617 -0.0538  0.2524 -0.1157
  617MOL0     C81361   8.292   3.140   0.667 -0.2325 -0.0077  0.5423
  617MOL0     N81362   7.717   3.119   1.120 -0.3937  0.3462  0.2855
  617MOL0     N81363   7.670   3.233   1.094  0.1103  0.1253 -0.1976
  617MOL0     C81364   8.711   3.738   0.908  0.3894  0.2087 -0.6051
  617MOL0     C81365   8.832   3.815   0.905 -0.3821  0.5057 -1.2479
  617MOL0     C81366   9.279   3.835   0.870 -1.1753  0.3144  0.2806
  617MOL0     C81367   9.312   3.970   0.900 -0.2248 -0.4847  0.5949
  617MOL0     C81368   9.434   4.012   0.956 -0.6571  0.0598  0.2633
  617MOL0     C81369   9.533   3.920   0.987 -0.2490 -0.3931 -0.8845
  617MOL0     O81370   9.654   3.945   1.046  0.8894  0.2679  0.3881
  617MOL0     C81371   9.712   4.080   1.040 -0.2287  0.9084  0.1657
  617MOL0     C81372   9.855   4.054   1.094  0.6007  0.5693 -0.1237
  617MOL0     C81373   9.956   4.007   0.989 -0.0427 -0.1843 -0.2147
  617MOL0     C81374  10.091   4.006   1.045 -1.0991 -0.0602 -0.4103
  617MOL0     C81375  10.195   3.950   0.954  0.8661 -0.2761  0.2540
  617MOL0     C81376  10.280   3.899   0.888 -0.2707  0.5778  0.2485
  617MOL0     C81377   9.503   3.788   0.963 -0.3252  0.1121 -0.0535
  617MOL0     C81378   9.384   3.742   0.899 -0.3730  0.1590  1.0991
  617MOL0     H81379   8.939   3.715   0.610  0.1918  1.4718 -0.5031
  617MOL0     H81380   8.709   3.611   0.601 -2.4737  0.0659  0.4893
  617MOL0     H81381   8.443   3.696   0.879  0.4027 -0.3527  1.7175
  617MOL0     H81382   8.487   3.546   0.974  0.9335 -0.0191 -0.6176
  617MOL0     H81383   8.356   3.406   0.816  2.4244  0.5990 -1.8227
  617MOL0     H81384   8.321   3.545   0.716  1.6005  1.4699  0.0667
  617MOL0     H81385   8.198   3.660   0.902 -1.3984  0.9368 -2.0177
  617MOL0     H81386   8.216   3.511   1.002 -1.5711 -0.5725 -0.2120
  617MOL0     H81387   8.083   3.482   0.728  2.1666  0.7321  0.3680
  617MOL0     H81388   8.103   3.374   0.860 -0.9361 -1.2844 -1.1474
  617MOL0     H81389   7.951   3.637   0.873 -0.9698  0.6630  1.7170
  617MOL0     H81390   7.972   3.528   1.009  1.0749 -2.0456  0.7414
  617MOL0     H81391   7.881   3.328   0.906 -0.6659 -0.2449 -1.2123
  617MOL0     H81392   7.849   3.412   0.763  0.0917 -0.6678  1.2823
  617MOL0     H81393   7.735   3.518   1.017  3.3165 -1.6708  0.0224
  617MOL0     H81394   7.693   3.561   0.853 -1.0496  0.4950  0.0713
  617MOL0     H81395   7.596   3.339   0.790  0.8325 -0.4130  0.1983
  617MOL0     H81396   7.510   3.391   0.936 -1.5072 -0.8656 -2.2928
  617MOL0     H81397   7.679   3.108   0.789 -0.5896  2.0527 -0.4865
  617MOL0     H81398   7.686   2.856   0.919 -1.1186  4.0420 -2.4277
  617MOL0     H81399   7.793   2.852   1.066  0.9182 -2.5944 -2.0027
  617MOL0     H81400   7.901   2.985   0.808  3.7146  1.5746 -0.3016
  617MOL0     H81401   7.917   2.809   0.830  2.2971 -1.7366  2.6938
  617MOL0     H81402   8.033   3.056   0.994  0.8328 -0.1122  1.0291
  617MOL0     H81403   8.024   2.898   1.068  3.6723  0.1550 -0.2988
  617MOL0     H81404   8.166   2.814   0.877 -1.2283 -0.8861  1.1031
  617MOL0     H81405   8.239   2.930   0.985 -1.3326 -1.6039  1.2342
  617MOL0     H81406   8.407   2.888   0.854  0.0914  1.2714  0.8761
  617MOL0     H81407   8.621   2.944   0.752 -0.1615  0.1218  1.3093
  617MOL0     H81408   8.961   2.960   0.548  1.1719 -0.1979 -0.3640
  617MOL0     H81409   9.187   3.030   0.485  2.0859  0.8669  1.0017
  617MOL0     H81410   9.378   3.150   0.405 -1.8488 -0.2213  0.3974
  617MOL0     H81411   9.405   3.097   0.568  0.5839  1.3113  1.9728
  617MOL0     H81412   9.623   3.173   0.510  0.5507  1.1381 -0.2692
  617MOL0     H81413   9.549   3.287   0.619 -2.4662 -2.8227  1.1273
  617MOL0     H81414   9.610   3.447   0.430  1.2881 -1.1796 -1.5734
  617MOL0     H81415   9.463   3.393   0.389 -0.1149  1.3222  0.0893
  617MOL0     H81416   9.734   3.301   0.279 -0.1982  1.0803 -1.4492
  617MOL0     H81417   9.585   3.208   0.236 -0.5998  1.8350 -3.3733
  617MOL0     H81418   9.625   3.495   0.159  1.7858 -1.0645 -0.8944
  617MOL0     H81419   9.471   3.410   0.155 -0.6464 -0.0822  0.3702
  617MOL0     H81420   9.561   3.399  -0.061  0.3101  1.6192  0.4179
  617MOL0     H81421   9.580   3.235   0.023 -2.9340  0.9543 -0.1480
  617MOL0     H81422   9.795   3.418  -0.026 -0.1329 -0.0740 -1.2242
  617MOL0     H81423   9.805   3.267   0.065  2.0842  0.0518 -1.2919
  617MOL0     H81424   9.761   3.130  -0.131  1.0641 -0.6147  0.0729
  617MOL0     H81425   9.901   3.237  -0.144 -0.8246  0.3898  1.3572
  617MOL0     H81426   9.110   3.415   0.636  0.7290  0.6140 -2.1373
  617MOL0     H81427   8.862   3.347   0.682 -0.8250 -0.7013  1.1739
  617MOL0     H81428   8.425   3.274   0.557 -0.3910  0.3204 -0.0548
  617MOL0     H81429   8.200   3.191   0.639 -0.7153 -1.3161 -0.3554
  617MOL0     H81430   8.656   3.742   1.001  2.6835  2.4519  0.8055
  617MOL0     H81431   8.857   3.883   0.986  1.9120 -2.9090  1.1860
  617MOL0     H81432   9.237   4.042   0.867  2.1530  1.7024 -0.2955
  617MOL0     H81433   9.441   4.119   0.977  0.9307  0.6333 -2.5802
  617MOL0     H81434   9.650   4.146   1.101  0.9226  1.7243  0.5116
  617MOL0     H81435   9.723   4.127   0.941  1.1418 -0.6092 -0.4435
  617MOL0     H81436   9.890   4.148   1.138  0.4977 -0.0859  1.4325
  617MOL0     H81437   9.854   3.971   1.166 -0.5328  0.8598  0.2108
  617MOL0     H81438   9.939   4.083   0.911 -1.2801  2.3418  2.3286
  617MOL0     H81439   9.932   3.907   0.953  0.4874 -0.4251  0.0932
  617MOL0     H81440  10.130   4.104   1.074  0.6600 -0.6029 -0.7996
  617MOL0     H81441  10.099   3.942   1.133  3.8429 -0.1539 -0.6171
  617MOL0     H81442  10.348   3.842   0.828  0.1162 -0.1109  1.3141
  617MOL0     H81443   9.585   3.723   0.990  0.8006 -0.1902 -3.6759
  617MOL0     H81444   9.383   3.635   0.882  2.8949  0.2084 -0.0885
  618MOL0     O81445  10.689   2.470   6.213  0.8511  0.6070 -0.0095
  618MOL0     C81446  10.763   2.392   6.277 -0.2785 -0.0013 -0.4518
  618MOL0     O81447  10.725   2.292   6.369  0.9899 -0.1030  0.0160
  618MOL0     C81448  10.600   2.292   6.416  1.2923 -0.0046  0.5127
  618MOL0     C81449  10.554   2.348   6.542  0.1525 -0.4857  0.6698
  618MOL0     C81450  10.425   2.338   6.583  0.3929  0.2352 -0.7215
  618MOL0     C81451  10.335   2.276   6.499 -0.9149  0.5147  0.0504
  618MOL0     O81452  10.201   2.256   6.523 -0.4710  0.5243 -0.0423
  618MOL0     C81453  10.151   2.324   6.639 -0.4938  0.4341  0.6112
  618MOL0     C81454   9.997   2.329   6.632 -0.1012  0.4939 -0.7738
  618MOL0     C81455   9.942   2.200   6.706 -0.0441 -0.3708  0.0341
  618MOL0     C81456   9.788   2.205   6.705 -1.3043  0.2102 -0.0525
  618MOL0     C81457   9.738   2.109   6.812  0.4609  0.1539  0.2004
  618MOL0     C81458   9.592   2.079   6.776  0.4583 -0.3346 -0.2674
  618MOL0     C81459   9.491   2.205   6.749 -0.0334  0.6762 -0.5637
  618MOL0     C81460   9.479   2.309   6.864  0.8436  0.0140  0.4441
  618MOL0     N81461   9.420   2.243   6.978 -0.1226 -0.2787  0.2622
  618MOL0     C81462   9.487   2.167   7.069 -0.9847 -0.5188 -0.4064
  618MOL0     C81463   9.390   2.128   7.160 -0.6262  0.5852 -0.0908
  618MOL0     C81464   9.413   2.049   7.290 -0.5903  0.3894 -0.5706
  618MOL0     C81465   9.449   1.903   7.255 -0.6967 -0.2093  1.8277
  618MOL0     C81466   9.343   1.840   7.177  0.4334  0.4860 -0.3944
  618MOL0     C81467   9.389   1.705   7.129 -0.9104 -0.4213 -0.2422
  618MOL0     O81468   9.497   1.723   7.037 -1.0267 -0.3045  0.1600
  618MOL0     C81469   9.535   1.596   6.988 -0.0427 -0.5142 -0.3666
  618MOL0     C81470   9.672   1.570   6.971  0.0860  0.6966 -0.0408
  618MOL0     C81471   9.712   1.449   6.914 -0.2493  0.5838 -0.5133
  618MOL0     C81472   9.620   1.347   6.879 -0.5083 -0.7755 -0.1085
  618MOL0     C81473   9.661   1.214   6.812 -0.1654 -0.7750 -0.0851
  618MOL0     O81474   9.563   1.151   6.742  0.6823  0.2092  0.6795
  618MOL0     C81475   9.579   1.018   6.707 -1.3311 -0.3395  0.2856
  618MOL0     C81476   9.692   0.967   6.636  0.6255 -0.1266  0.6955
  618MOL0     C81477   9.701   0.833   6.611 -0.2802  0.6553  0.1362
  618MOL0     C81478   9.595   0.749   6.631  0.1042  0.3251 -0.5363
  618MOL0     O81479   9.591   0.619   6.592 -0.2792  0.3937 -0.3927
  618MOL0     C81480   9.708   0.539   6.618  0.1382 -0.1383 -0.2768
  618MOL0     C81481   9.683   0.394   6.591 -0.7748 -0.2067  0.0936
  618MOL0     C81482   9.656   0.373   6.442 -0.0581  0.1777  0.5123
  618MOL0     C81483   9.591   0.230   6.426 -0.1719  0.2857  0.1016
  618MOL0     C81484   9.537   0.217   6.284 -0.3076  1.1314 -0.3450
  618MOL0     C81485   9.462   0.082   6.249 -0.1203 -1.0054  0.2889
  618MOL0     C81486   9.552  -0.046   6.246  0.5949 -0.0767  0.2342
  618MOL0     C81487   9.516  -0.122   6.108 -0.2218  0.0876 -0.3278
  618MOL0    Cl81488   9.577  -0.021   5.984  0.0784  0.0245  0.2880
  618MOL0     C81489   9.482   0.799   6.687 -0.2004 -0.4319  0.1922
  618MOL0     C81490   9.474   0.937   6.720  0.6782 -0.0325  0.4029
  618MOL0     O81491   9.773   1.174   6.828 -1.0399  0.2655 -0.2945
  618MOL0     C81492   9.487   1.371   6.895  0.3261  0.5499  0.1428
  618MOL0     C81493   9.446   1.492   6.946  0.5717  0.3015  1.0320
  618MOL0     N81494   9.278   2.202   7.124  1.0502  0.0017 -0.3223
  618MOL0     N81495   9.298   2.269   7.021  0.8366  0.1471 -0.2661
  618MOL0     C81496  10.378   2.228   6.370  0.4332  0.1660 -0.3877
  618MOL0     C81497  10.507   2.228   6.339 -0.6709  0.2601  0.6450
  618MOL0     C81498  10.912   2.421   6.250  0.1548 -0.7212 -0.3293
  618MOL0     C81499  10.952   2.525   6.163 -0.9477 -0.1240  0.2921
  618MOL0     C81500  11.091   2.550   6.133 -0.0399  0.0870 -0.0341
  618MOL0     C81501  11.193   2.481   6.208 -0.2983 -0.5970 -0.7186
  618MOL0     O81502  11.317   2.522   6.201  0.1508 -0.1027  0.2863
  618MOL0     C81503  11.381   2.508   6.075  0.1032 -0.8499 -0.0922
  618MOL0     C81504  11.519   2.448   6.077  0.0121 -0.3544 -1.0803
  618MOL0     C81505  11.536   2.319   6.166 -0.1501 -0.3619  0.0456
  618MOL0     C81506  11.668   2.240   6.145  1.2053  0.4755 -0.3621
  618MOL0     C81507  11.649   2.100   6.173  1.4399 -0.6439 -0.7900
  618MOL0     C81508  11.631   1.985   6.186 -0.7664 -0.2223 -0.5092
  618MOL0     C81509  11.156   2.379   6.299 -0.3608  0.4675 -0.0456
  618MOL0     C81510  11.017   2.347   6.305 -0.2161 -0.3866 -0.9621
  618MOL0     H81511  10.624   2.389   6.613  0.2812  1.6715 -0.6230
  618MOL0     H81512  10.396   2.359   6.686 -0.2516 -2.3050 -0.3188
  618MOL0     H81513  10.197   2.423   6.645 -0.1328  0.2992  0.1374
  618MOL0     H81514  10.192   2.270   6.725 -2.9707 -1.9982  0.4276
  618MOL0     H81515   9.963   2.325   6.528 -1.5211 -2.2505 -0.3055
  618MOL0     H81516   9.969   2.417   6.690 -2.6158  0.5053 -1.8533
  618MOL0     H81517   9.969   2.207   6.811  1.4956 -1.3017 -0.2618
  618MOL0     H81518   9.984   2.107   6.665 -0.1166  0.1495 -1.2642
  618MOL0     H81519   9.762   2.309   6.730  1.5406  1.3529 -1.4313
  618MOL0     H81520   9.754   2.171   6.606  1.9813 -2.4985 -0.3966
  618MOL0     H81521   9.742   2.144   6.915  2.2870  0.7001 -0.0250
  618MOL0     H81522   9.795   2.016   6.806  1.7078  0.9281 -0.3552
  618MOL0     H81523   9.560   2.014   6.858  3.1720 -1.3743  0.0587
  618MOL0     H81524   9.596   2.026   6.681 -0.1954  1.2191 -1.1848
  618MOL0     H81525   9.522   2.251   6.655 -1.0225  3.8827  0.5517
  618MOL0     H81526   9.392   2.165   6.728  0.4931 -0.2610 -1.3742
  618MOL0     H81527   9.403   2.383   6.836  0.9130  0.4051  1.2490
  618MOL0     H81528   9.573   2.359   6.888 -0.1811  1.5720  1.3798
  618MOL0     H81529   9.588   2.129   7.063 -0.8179  0.1112 -2.5158
  618MOL0     H81530   9.326   2.042   7.355  0.3232 -0.4402  0.6163
  618MOL0     H81531   9.500   2.092   7.340 -1.7952  1.9287  0.2356
  618MOL0     H81532   9.462   1.846   7.347  1.4631 -2.0305  0.4938
  618MOL0     H81533   9.540   1.918   7.197 -1.6642  1.8667  0.7274
  618MOL0     H81534   9.249   1.833   7.231 -2.1625 -0.5971 -4.5846
  618MOL0     H81535   9.316   1.902   7.091 -1.2681 -2.0100 -1.7962
  618MOL0     H81536   9.301   1.655   7.087 -1.3202  1.6166 -1.9783
  618MOL0     H81537   9.432   1.645   7.210  0.4136 -1.0223 -1.3609
  618MOL0     H81538   9.744   1.646   7.001 -0.4945  1.0532  0.4648
  618MOL0     H81539   9.816   1.420   6.925 -0.4432  0.6589  2.2446
  618MOL0     H81540   9.770   1.034   6.601 -0.1744  1.2926  1.5386
  618MOL0     H81541   9.788   0.780   6.574  0.2301 -3.0618  5.5225
  618MOL0     H81542   9.724   0.535   6.726 -2.4258 -0.9866  0.1245
  618MOL0     H81543   9.794   0.576   6.560 -0.2809  0.7311 -0.3659
  618MOL0     H81544   9.591   0.377   6.648 -3.4847  4.4817 -2.2864
  618MOL0     H81545   9.765   0.329   6.624 -3.1776 -1.9947  3.1130
  618MOL0     H81546   9.743   0.379   6.376 -1.6071  1.3802 -1.5386
  618MOL0     H81547   9.587   0.450   6.407  1.1644  0.9841 -0.1861
  618MOL0     H81548   9.670   0.155   6.438 -1.0148 -1.1631 -2.4451
  618MOL0     H81549   9.513   0.207   6.500 -0.8381 -1.6341 -1.1145
  618MOL0     H81550   9.619   0.231   6.214 -0.0656  1.2951 -0.0354
  618MOL0     H81551   9.464   0.297   6.266  0.3974  2.1654  1.1658
  618MOL0     H81552   9.418   0.100   6.150  0.2540  0.2544  0.3272
  618MOL0     H81553   9.381   0.070   6.321  2.8774  0.1339  4.1848
  618MOL0     H81554   9.658  -0.022   6.238  0.0977  2.1108 -0.3399
  618MOL0     H81555   9.531  -0.123   6.321 -1.6389  0.2283 -0.0093
  618MOL0     H81556   9.408  -0.133   6.093 -0.3089  1.7038 -1.0395
  618MOL0     H81557   9.563  -0.221   6.116  0.9232  0.3574 -2.9007
  618MOL0     H81558   9.392   0.738   6.679  0.9187 -1.9868 -1.0213
  618MOL0     H81559   9.385   0.986   6.756  0.8856 -0.4327  1.5023
  618MOL0     H81560   9.415   1.296   6.866  0.2054 -0.3806  2.5672
  618MOL0     H81561   9.339   1.504   6.952  0.0434 -2.3624 -1.2903
  618MOL0     H81562  10.307   2.188   6.299 -0.4564  3.1892 -1.3870
  618MOL0     H81563  10.527   2.183   6.242  2.7159  1.5118  0.6281
  618MOL0     H81564  10.874   2.577   6.108  1.5283  3.5037 -0.1147
  618MOL0     H81565  11.140   2.623   6.069 -1.5687 -0.3137 -1.7248
  618MOL0     H81566  11.401   2.606   6.030 -0.2729 -2.2888 -3.7424
  618MOL0     H81567  11.310   2.456   6.010 -1.3237 -0.8941  1.4503
  618MOL0     H81568  11.557   2.443   5.974 -1.0209 -0.4644 -1.4692
  618MOL0     H81569  11.576   2.528   6.124 -2.5949  1.1197 -0.2037
  618MOL0     H81570  11.458   2.249   6.135 -1.5677 -0.6252  3.7371
  618MOL0     H81571  11.530   2.331   6.274 -0.1957 -0.1081  0.0160
  618MOL0     H81572  11.692   2.247   6.039  1.0162  3.1337 -0.3078
  618MOL0     H81573  11.757   2.278   6.196  1.4527 -1.7300  1.0088
  618MOL0     H81574  11.609   1.881   6.195  1.6553 -0.6160  2.9800
  618MOL0     H81575  11.234   2.333   6.359 -0.6810  0.7745  0.6245
  618MOL0     H81576  10.985   2.267   6.372  0.9125  0.5549  0.7756
  619MOL0     O81577   3.998   5.771   1.511 -0.8507  0.3457 -0.0882
  619MOL0     C81578   4.006   5.889   1.468  0.7715  0.1462 -0.5172
  619MOL0     O81579   3.911   5.949   1.399  0.4502  0.8354  0.5126
  619MOL0     C81580   3.813   5.876   1.342  0.9529 -0.3059 -0.1990
  619MOL0     C81581   3.789   5.916   1.210  0.0201  1.0204  0.0027
  619MOL0     C81582   3.681   5.846   1.142 -0.5790  0.3751  0.7046
  619MOL0     C81583   3.604   5.749   1.213  0.5122  0.2828  0.1165
  619MOL0     O81584   3.497   5.688   1.147  0.1463 -0.3035  1.0782
  619MOL0     C81585   3.551   5.581   1.076  0.1788  0.3324  0.3673
  619MOL0     C81586   3.451   5.552   0.967  0.1185 -0.4514  0.4821
  619MOL0     C81587   3.311   5.505   1.018 -0.7437  0.5740 -0.4907
  619MOL0     C81588   3.241   5.436   0.895  0.1359  1.4041  0.3559
  619MOL0     C81589   3.098   5.393   0.927  0.0474 -0.3476  0.4153
  619MOL0     C81590   3.098   5.265   1.010  0.0820 -0.0783  0.6060
  619MOL0     C81591   2.947   5.222   1.041 -0.6704 -0.1135  0.6503
  619MOL0     C81592   2.862   5.165   0.920 -0.4439 -1.0605 -0.5432
  619MOL0     N81593   2.716   5.159   0.935  0.3156 -0.1422  0.4555
  619MOL0     C81594   2.635   5.067   0.878 -0.3786 -0.6407  0.5742
  619MOL0     C81595   2.520   5.082   0.946 -0.1278  0.4703 -0.4235
  619MOL0     C81596   2.391   5.011   0.914 -0.7767  0.1356 -0.6849
  619MOL0     C81597   2.324   5.070   0.791 -0.5409 -0.3652 -0.4392
  619MOL0     C81598   2.217   4.975   0.739 -0.2864  0.3787  1.0102
  619MOL0     C81599   2.113   4.926   0.841  1.2249 -0.0921 -0.0947
  619MOL0     O81600   2.009   5.029   0.850 -0.5047 -0.0901 -0.0060
  619MOL0     C81601   1.895   4.983   0.911 -0.9827 -0.4734  0.0391
  619MOL0     C81602   1.898   4.880   1.008 -0.3992 -0.5888 -0.1716
  619MOL0     C81603   1.791   4.839   1.077  0.5864  0.0461 -0.1969
  619MOL0     C81604   1.667   4.891   1.048  0.4843  0.7289 -0.5443
  619MOL0     C81605   1.544   4.838   1.110  0.8672 -0.0914 -0.1441
  619MOL0     O81606   1.542   4.744   1.212 -1.0735  0.6753  0.1446
  619MOL0     C81607   1.426   4.710   1.283  0.7541  0.7063  0.2704
  619MOL0     C81608   1.404   4.767   1.409 -1.1739  0.0288 -0.0195
  619MOL0     C81609   1.283   4.740   1.475 -0.3253 -0.2433 -0.0674
  619MOL0     C81610   1.194   4.647   1.426 -0.7179 -0.2244 -0.0666
  619MOL0     O81611   1.075   4.613   1.487  0.2572  0.3524  0.2457
  619MOL0     C81612   1.037   4.675   1.611 -0.5525  0.9192  0.5196
  619MOL0     C81613   0.924   4.598   1.672 -0.9937 -0.9011 -0.0310
  619MOL0     C81614   0.899   4.648   1.814 -0.5368 -0.5179  0.1004
  619MOL0     C81615   0.786   4.572   1.881  0.4366 -0.1821 -0.6951
  619MOL0     C81616   0.775   4.584   2.039 -0.1974  0.0511  0.2421
  619MOL0     C81617   0.645   4.526   2.108  1.1222  0.1974 -0.2047
  619MOL0     C81618   0.532   4.627   2.077  0.9498 -0.1929 -0.2989
  619MOL0     C81619   0.398   4.566   2.148 -0.7405 -0.5560 -0.0557
  619MOL0    Cl81620   0.290   4.691   2.113  0.4292 -0.2484  0.0145
  619MOL0     C81621   1.219   4.588   1.300 -0.3171 -0.7791  0.4161
  619MOL0     C81622   1.337   4.614   1.235 -0.6836 -1.0410  0.1231
  619MOL0     O81623   1.438   4.889   1.072  0.0896  0.4830 -0.7526
  619MOL0     C81624   1.654   4.973   0.931 -0.1178 -0.0084 -1.0221
  619MOL0     C81625   1.769   5.023   0.867 -0.2020  0.2895 -0.3933
  619MOL0     N81626   2.526   5.182   1.043 -0.7503  0.5938  0.5465
  619MOL0     N81627   2.649   5.218   1.040 -0.1401 -0.3016  0.0229
  619MOL0     C81628   3.624   5.720   1.347 -0.3078  0.0393 -0.7690
  619MOL0     C81629   3.724   5.784   1.410  0.7238 -0.8769 -1.0549
  619MOL0     C81630   4.128   5.974   1.484 -0.0624 -0.2870 -0.0518
  619MOL0     C81631   4.127   6.108   1.433  0.1650 -0.6044  0.1003
  619MOL0     C81632   4.236   6.195   1.451  0.4795 -0.1792  0.2433
  619MOL0     C81633   4.359   6.144   1.511 -0.3832  0.4043 -0.1169
  619MOL0     O81634   4.479   6.206   1.535 -0.0303  0.2931 -0.2507
  619MOL0     C81635   4.493   6.344   1.507 -0.6014  0.8572  0.4405
  619MOL0     C81636   4.435   6.424   1.621  0.1164  0.3108 -0.8064
  619MOL0     C81637   4.360   6.556   1.583 -0.5419 -0.1038  0.0311
  619MOL0     C81638   4.354   6.650   1.704 -0.0609  0.2805 -0.0839
  619MOL0     C81639   4.481   6.714   1.734 -0.4163  0.0988 -0.2564
  619MOL0     C81640   4.593   6.758   1.769 -0.4848  0.7847  0.3077
  619MOL0     C81641   4.355   6.009   1.541 -1.1073  0.1257 -0.4886
  619MOL0     C81642   4.245   5.921   1.537 -0.6714  0.6663  0.5239
  619MOL0     H81643   3.848   5.988   1.155  0.1169  0.6884 -0.3344
  619MOL0     H81644   3.644   5.878   1.046  1.1497  0.3327 -0.0203
  619MOL0     H81645   3.566   5.490   1.136  1.0373  0.7106  0.7447
  619MOL0     H81646   3.644   5.608   1.026  0.2545  0.1679  0.4152
  619MOL0     H81647   3.509   5.485   0.903  1.5412 -0.1104  1.3541
  619MOL0     H81648   3.431   5.643   0.910 -1.6594 -0.4620  1.0439
  619MOL0     H81649   3.258   5.592   1.058  2.3745  2.0197  0.7797
  619MOL0     H81650   3.322   5.431   1.097 -0.8911 -1.1348 -1.9888
  619MOL0     H81651   3.252   5.504   0.811  1.7125  0.5791 -0.1477
  619MOL0     H81652   3.296   5.347   0.863 -0.9286  0.8510  0.0144
  619MOL0     H81653   3.031   5.380   0.842  0.3895  1.8942 -0.2692
  619MOL0     H81654   3.048   5.470   0.986  1.5746  0.8603  0.2047
  619MOL0     H81655   3.141   5.290   1.107 -2.5923  1.2360  1.5501
  619MOL0     H81656   3.151   5.188   0.953  0.5510  2.3367 -2.4752
  619MOL0     H81657   2.947   5.146   1.121  1.3779 -1.4225 -0.4987
  619MOL0     H81658   2.885   5.306   1.072 -0.7763  0.6326 -1.4290
  619MOL0     H81659   2.904   5.065   0.902  4.2097  0.6210 -0.3067
  619MOL0     H81660   2.890   5.234   0.840 -1.0959  0.6200  0.6214
  619MOL0     H81661   2.659   5.008   0.791 -0.6415 -0.8789  0.6600
  619MOL0     H81662   2.335   5.019   1.008 -0.6092  3.1268 -0.7536
  619MOL0     H81663   2.416   4.908   0.888  1.1269  0.3895  0.0084
  619MOL0     H81664   2.398   5.083   0.712  0.8070 -1.8612  0.5088
  619MOL0     H81665   2.275   5.163   0.820 -0.9959  0.0653 -2.4401
  619MOL0     H81666   2.163   5.027   0.659 -0.1743 -1.2587 -0.1763
  619MOL0     H81667   2.266   4.897   0.680  3.1552  3.3062 -0.3647
  619MOL0     H81668   2.164   4.899   0.933  1.9590 -1.3779 -0.8569
  619MOL0     H81669   2.068   4.841   0.790  2.9217  0.1086 -2.0925
  619MOL0     H81670   1.988   4.833   1.047 -0.8448 -0.8250  0.5961
  619MOL0     H81671   1.810   4.763   1.152 -1.4488 -3.1105 -2.6111
  619MOL0     H81672   1.468   4.843   1.451 -2.8036  1.7003 -0.4124
  619MOL0     H81673   1.269   4.797   1.566 -0.6771 -0.3039 -0.0836
  619MOL0     H81674   0.992   4.770   1.579 -1.7471 -0.7687 -3.4161
  619MOL0     H81675   1.125   4.682   1.676 -0.2699 -3.4836  0.8712
  619MOL0     H81676   0.939   4.490   1.671  0.7791 -0.7356  1.9307
  619MOL0     H81677   0.832   4.607   1.613  0.0307  1.8285 -1.3648
  619MOL0     H81678   0.887   4.756   1.806  4.1104  0.1707 -0.6857
  619MOL0     H81679   0.986   4.635   1.879 -0.3298  1.7997  0.3638
  619MOL0     H81680   0.696   4.615   1.835 -0.4032  2.2035  2.7700
  619MOL0     H81681   0.795   4.465   1.864 -0.4332 -0.2115 -1.0257
  619MOL0     H81682   0.779   4.687   2.075  0.9477 -0.2948  1.1806
  619MOL0     H81683   0.860   4.525   2.075  1.3083  1.9705  0.0419
  619MOL0     H81684   0.653   4.517   2.217 -2.7999  1.3362  0.3603
  619MOL0     H81685   0.611   4.427   2.076 -3.8815  0.9762  1.6821
  619MOL0     H81686   0.558   4.725   2.118  3.1703 -1.2148  0.9067
  619MOL0     H81687   0.515   4.630   1.969  0.2680 -0.4946 -0.2090
  619MOL0     H81688   0.419   4.554   2.255  2.1684  0.1767 -0.4754
  619MOL0     H81689   0.360   4.467   2.120  0.2466 -1.0753  0.3884
  619MOL0     H81690   1.141   4.527   1.256 -2.1056  0.5890  1.5517
  619MOL0     H81691   1.351   4.588   1.131 -1.7890  1.8745 -0.8679
  619MOL0     H81692   1.558   5.013   0.900 -0.0336 -0.4113 -1.8245
  619MOL0     H81693   1.765   5.084   0.777  0.3311  0.1766 -0.5009
  619MOL0     H81694   3.544   5.657   1.385  0.1222 -0.3402 -0.4965
  619MOL0     H81695   3.747   5.765   1.514  2.5516  1.9516 -0.8354
  619MOL0     H81696   4.039   6.144   1.379 -0.3969 -2.0259  0.0413
  619MOL0     H81697   4.224   6.298   1.417 -1.7296 -0.6245 -0.5231
  619MOL0     H81698   4.433   6.366   1.418 -0.1495  0.5928  0.0700
  619MOL0     H81699   4.599   6.362   1.490 -0.8454  3.9330  1.5477
  619MOL0     H81700   4.359   6.378   1.684 -0.4287  1.7800 -0.3371
  619MOL0     H81701   4.518   6.446   1.689 -0.4245 -0.0956 -0.0010
  619MOL0     H81702   4.260   6.539   1.545 -2.1186  1.7565  2.9267
  619MOL0     H81703   4.424   6.599   1.505 -1.0921  1.5762  0.4690
  619MOL0     H81704   4.276   6.726   1.690 -1.2617 -0.4762  1.9488
  619MOL0     H81705   4.325   6.586   1.787  1.4094 -1.0139 -0.5245
  619MOL0     H81706   4.689   6.781   1.810  0.1226  0.7453 -1.0251
  619MOL0     H81707   4.445   5.969   1.586 -0.5776  2.2430  0.4534
  619MOL0     H81708   4.247   5.816   1.566  0.5433  0.1918 -1.1594
  620MOL0     O81709  10.846   2.881   3.175  1.1221  0.6128 -0.2203
  620MOL0     C81710  10.940   2.944   3.212 -0.4955  0.1699  0.4696
  620MOL0     O81711  10.943   3.071   3.249  0.0246 -0.3797 -0.4109
  620MOL0     C81712  10.830   3.154   3.259  0.1163  0.0101  0.6939
  620MOL0     C81713  10.759   3.181   3.146 -0.5685 -0.5467 -0.5447
  620MOL0     C81714  10.639   3.257   3.152 -0.3138  0.4200 -0.2886
  620MOL0     C81715  10.579   3.295   3.279  0.1483  0.0114  0.9155
  620MOL0     O81716  10.462   3.369   3.295  0.5382 -0.0047 -0.0559
  620MOL0     C81717  10.420   3.465   3.198 -0.2716  0.3308  0.4012
  620MOL0     C81718  10.327   3.564   3.263  0.4022 -0.3536  0.3874
  620MOL0     C81719  10.200   3.483   3.305 -0.2771 -0.7162  0.4246
  620MOL0     C81720  10.075   3.566   3.293  0.0586  0.4028 -0.7883
  620MOL0     C81721  10.059   3.666   3.408 -0.6904 -0.7467  0.3064
  620MOL0     C81722   9.962   3.771   3.367 -0.3819  0.8798  0.2867
  620MOL0     C81723   9.925   3.864   3.486  0.1063 -0.2362 -0.5398
  620MOL0     C81724   9.779   3.905   3.488 -0.1138 -0.8307  0.2707
  620MOL0     N81725   9.746   3.992   3.592  0.0071 -0.4935  0.1929
  620MOL0     C81726   9.702   4.122   3.575  0.2151 -0.1031  0.0807
  620MOL0     C81727   9.686   4.163   3.700  0.4172  0.1214  0.4935
  620MOL0     C81728   9.639   4.298   3.745 -0.5086 -0.9195 -0.4783
  620MOL0     C81729   9.491   4.336   3.751 -0.1810  0.3278 -0.2748
  620MOL0     C81730   9.401   4.212   3.743  0.2988 -0.0657  0.9093
  620MOL0     C81731   9.250   4.242   3.765  0.5589  0.3433 -0.3860
  620MOL0     O81732   9.172   4.130   3.820  0.9552 -0.2745  0.3423
  620MOL0     C81733   9.042   4.147   3.849  0.3292 -0.0357 -0.9174
  620MOL0     C81734   8.986   4.048   3.929  0.2691  0.4311 -0.3982
  620MOL0     C81735   8.847   4.044   3.953  0.0747 -0.2034 -1.1145
  620MOL0     C81736   8.758   4.142   3.905  0.6909  0.2559  0.4924
  620MOL0     C81737   8.618   4.128   3.920  0.7218 -0.0232 -0.5128
  620MOL0     O81738   8.542   4.244   3.899 -0.3643 -0.5734 -0.6247
  620MOL0     C81739   8.406   4.263   3.909 -0.3095  0.7677 -0.1222
  620MOL0     C81740   8.349   4.369   3.848  0.1723 -0.6895 -0.3308
  620MOL0     C81741   8.218   4.403   3.865  0.1385 -0.3880 -0.2808
  620MOL0     C81742   8.124   4.318   3.929  0.1440  0.2007  0.0116
  620MOL0     O81743   7.986   4.340   3.936 -0.0036  0.5598 -1.3022
  620MOL0     C81744   7.931   4.463   3.891  0.4385 -1.1039 -0.8476
  620MOL0     C81745   7.789   4.466   3.953  0.5813  0.0894 -0.4091
  620MOL0     C81746   7.712   4.595   3.929 -0.6396 -0.1513  0.5905
  620MOL0     C81747   7.562   4.590   3.975 -0.8914  0.0642 -0.0090
  620MOL0     C81748   7.487   4.713   3.925  0.5309 -0.6553 -0.0565
  620MOL0     C81749   7.349   4.715   3.994  0.0994 -0.0997  0.5784
  620MOL0     C81750   7.278   4.848   3.946 -0.2771 -0.3018 -0.1333
  620MOL0     C81751   7.148   4.872   4.024  0.5429  0.4582 -0.5819
  620MOL0    Cl81752   7.023   4.751   3.975 -0.0209 -0.4178 -0.4197
  620MOL0     C81753   8.182   4.209   3.993  0.6946 -0.1808  0.6723
  620MOL0     C81754   8.324   4.187   3.995  1.2777 -0.4293  0.3911
  620MOL0     O81755   8.566   4.016   3.945 -0.5427 -0.5798  0.6388
  620MOL0     C81756   8.823   4.241   3.827 -0.0272 -0.5395 -0.5235
  620MOL0     C81757   8.957   4.242   3.790  0.1653 -0.0909  0.6280
  620MOL0     N81758   9.706   4.055   3.789  0.5126  0.0491  0.0593
  620MOL0     N81759   9.739   3.952   3.721  1.4136 -0.8348 -0.1844
  620MOL0     C81760  10.651   3.261   3.391  0.2010 -0.3822 -0.4587
  620MOL0     C81761  10.779   3.196   3.380 -0.2146  1.0604  0.5404
  620MOL0     C81762  11.070   2.877   3.216  0.0936  0.1136 -1.0160
  620MOL0     C81763  11.183   2.963   3.209 -0.1446  0.0366  0.3635
  620MOL0     C81764  11.304   2.915   3.241  0.1733 -0.3493 -0.4079
  620MOL0     C81765  11.329   2.776   3.249  1.0103  0.6666 -0.5100
  620MOL0     O81766  11.453   2.722   3.261  1.0539 -0.6688  0.0838
  620MOL0     C81767  11.506   2.648   3.149  0.8825 -0.4471  0.7689
  620MOL0     C81768  11.641   2.604   3.169  0.0460 -0.2477 -1.6179
  620MOL0     C81769  11.740   2.715   3.160 -0.6816 -0.2477  0.5453
  620MOL0     C81770  11.877   2.672   3.199  0.3465  0.7287 -0.4097
  620MOL0     C81771  11.983   2.732   3.114 -0.7945  0.4124 -0.8750
  620MOL0     C81772  12.075   2.779   3.044 -0.3437  1.1070  0.9552
  620MOL0     C81773  11.218   2.685   3.244  0.0661  0.6457  0.3435
  620MOL0     C81774  11.092   2.737   3.219 -0.1911 -0.5089 -0.1492
  620MOL0     H81775  10.803   3.149   3.052  0.1879  0.3012 -0.5006
  620MOL0     H81776  10.589   3.287   3.061  0.2260 -1.8284 -1.4159
  620MOL0     H81777  10.362   3.406   3.127 -2.2399  0.6255  1.6922
  620MOL0     H81778  10.507   3.515   3.155 -0.4706 -0.1312 -0.5588
  620MOL0     H81779  10.299   3.637   3.187  0.8599  1.4438  1.8698
  620MOL0     H81780  10.379   3.613   3.346  1.2849 -1.6958  0.6583
  620MOL0     H81781  10.212   3.451   3.409 -0.8971  1.0436  1.0739
  620MOL0     H81782  10.183   3.400   3.236 -2.2542  0.0233 -0.0304
  620MOL0     H81783  10.071   3.607   3.192 -2.3065  0.2037 -0.8235
  620MOL0     H81784   9.990   3.499   3.279  2.6495 -2.4908 -5.0497
  620MOL0     H81785  10.147   3.718   3.445 -0.4229  0.1604 -1.5344
  620MOL0     H81786  10.018   3.612   3.495 -1.7308 -1.9521 -0.8750
  620MOL0     H81787   9.871   3.722   3.332  0.8098 -1.4816  0.3241
  620MOL0     H81788  10.015   3.838   3.299  1.3332 -0.8584 -0.1831
  620MOL0     H81789   9.948   3.808   3.577  2.3593  1.3894 -0.0180
  620MOL0     H81790   9.991   3.951   3.490  0.5499 -0.3315 -3.4530
  620MOL0     H81791   9.736   3.807   3.513 -0.7967 -0.0720  2.2559
  620MOL0     H81792   9.755   3.942   3.388  1.8407  0.3986  0.2173
  620MOL0     H81793   9.671   4.174   3.485 -1.0651 -0.1204  0.4930
  620MOL0     H81794   9.688   4.364   3.673 -1.1817  0.3063  0.1715
  620MOL0     H81795   9.683   4.325   3.841 -1.5550  2.5706 -0.8524
  620MOL0     H81796   9.469   4.416   3.680  1.5020  0.7068 -0.4119
  620MOL0     H81797   9.474   4.373   3.853  1.5548 -1.1878  0.6172
  620MOL0     H81798   9.407   4.156   3.649 -5.0800  0.2638  0.0180
  620MOL0     H81799   9.428   4.148   3.827 -1.2515 -0.1689  1.3501
  620MOL0     H81800   9.202   4.289   3.679 -2.1922 -1.5216  0.0046
  620MOL0     H81801   9.234   4.322   3.839  0.4611 -0.8102  0.8886
  620MOL0     H81802   9.056   3.976   3.971 -0.6721  0.9601  2.2878
  620MOL0     H81803   8.802   3.968   4.017 -2.3595  0.3353 -2.0580
  620MOL0     H81804   8.415   4.445   3.806  1.1731 -0.5565  1.3519
  620MOL0     H81805   8.188   4.496   3.818 -0.3522 -1.0264 -1.2572
  620MOL0     H81806   7.921   4.471   3.782 -1.0229 -0.4856 -0.6917
  620MOL0     H81807   7.988   4.549   3.926 -3.0705  0.9718  0.3482
  620MOL0     H81808   7.799   4.445   4.060  2.2770  4.2752  0.4426
  620MOL0     H81809   7.733   4.395   3.892  0.6020  0.6370 -1.0717
  620MOL0     H81810   7.731   4.603   3.822  0.4897 -1.0800  0.7018
  620MOL0     H81811   7.763   4.681   3.974  1.3966  0.0596 -1.8889
  620MOL0     H81812   7.507   4.506   3.932 -3.2850  1.7319 -0.4183
  620MOL0     H81813   7.572   4.581   4.083 -1.7106  0.0883  0.0725
  620MOL0     H81814   7.472   4.701   3.818  1.9420  1.9337 -0.6459
  620MOL0     H81815   7.544   4.804   3.948  0.6309 -1.1987  2.1075
  620MOL0     H81816   7.348   4.725   4.103 -0.8336  1.0586  0.4787
  620MOL0     H81817   7.289   4.626   3.974 -0.0302 -0.3304  1.8947
  620MOL0     H81818   7.339   4.937   3.960 -0.5266 -0.2202  0.4976
  620MOL0     H81819   7.256   4.827   3.841 -2.9382 -1.7920  0.6390
  620MOL0     H81820   7.119   4.976   4.005  1.9761  0.6688 -1.8150
  620MOL0     H81821   7.170   4.868   4.131 -1.0790  3.1216 -0.0527
  620MOL0     H81822   8.111   4.157   4.056 -1.4523  2.4449  0.5730
  620MOL0     H81823   8.359   4.109   4.062 -0.3989  0.4935  2.4209
  620MOL0     H81824   8.764   4.312   3.770  0.9551  1.6313  0.9953
  620MOL0     H81825   8.984   4.323   3.723 -1.0478 -1.9621 -2.3282
  620MOL0     H81826  10.620   3.300   3.488 -1.0495  0.9005 -1.3279
  620MOL0     H81827  10.843   3.162   3.460 -1.5331 -4.1128 -0.2430
  620MOL0     H81828  11.166   3.062   3.168 -1.9178 -1.2201 -2.1821
  620MOL0     H81829  11.381   2.990   3.255  0.7458 -0.7477 -1.2854
  620MOL0     H81830  11.496   2.702   3.054  0.4991  1.4853  1.8456
  620MOL0     H81831  11.443   2.559   3.153 -0.0607  0.1866  0.4988
  620MOL0     H81832  11.644   2.560   3.269  2.5642 -2.9110 -2.7338
  620MOL0     H81833  11.668   2.530   3.093  3.1699  0.4410 -1.3164
  620MOL0     H81834  11.697   2.794   3.223 -2.4148 -0.0566 -0.8021
  620MOL0     H81835  11.734   2.768   3.065 -1.6758 -1.7204 -0.2537
  620MOL0     H81836  11.894   2.693   3.304 -0.9160  0.0421 -0.0431
  620MOL0     H81837  11.892   2.565   3.187 -0.1483  0.7116 -0.9759
  620MOL0     H81838  12.154   2.797   2.974 -1.7511 -2.3435 -1.8121
  620MOL0     H81839  11.222   2.577   3.236 -0.0186  0.6886 -0.3959
  620MOL0     H81840  11.016   2.663   3.197 -1.9937  0.9448  0.8908
  621MOL0     O81841   7.936   0.542  11.091 -0.1425  0.0982  0.7651
  621MOL0     C81842   8.018   0.508  11.005 -0.4659 -0.3124 -0.2105
  621MOL0     O81843   7.992   0.488  10.873  0.3790  0.0259  0.3250
  621MOL0     C81844   7.864   0.474  10.821 -0.6888 -0.6871 -0.7931
  621MOL0     C81845   7.752   0.532  10.879  0.5218  0.5156 -0.4259
  621MOL0     C81846   7.625   0.520  10.820  0.2102  0.7530 -0.1470
  621MOL0     C81847   7.618   0.463  10.689  0.7479  0.3880  0.4806
  621MOL0     O81848   7.498   0.452  10.622  0.7723 -0.4556  0.2751
  621MOL0     C81849   7.443   0.318  10.584 -0.0270  0.0820  0.4397
  621MOL0     C81850   7.320   0.279  10.666 -0.9061  0.3403  0.3957
  621MOL0     C81851   7.189   0.340  10.606  0.2762  0.1818 -0.0158
  621MOL0     C81852   7.063   0.270  10.673 -0.1289 -0.9847 -0.2521
  621MOL0     C81853   6.930   0.332  10.619 -0.3061  0.3832 -0.3120
  621MOL0     C81854   6.818   0.318  10.724 -1.3123  0.6310 -0.2429
  621MOL0     C81855   6.688   0.381  10.673  0.6489  0.1282 -0.1860
  621MOL0     C81856   6.588   0.296  10.589 -0.0331 -0.6919 -0.4904
  621MOL0     N81857   6.488   0.388  10.536 -1.2519  0.2486  0.1501
  621MOL0     C81858   6.410   0.482  10.604  0.2972 -0.4028 -0.1504
  621MOL0     C81859   6.319   0.525  10.521 -0.0100 -0.3103  0.3860
  621MOL0     C81860   6.209   0.622  10.559 -0.2328 -0.2144  0.3940
  621MOL0     C81861   6.065   0.587  10.508  0.0121 -1.0445 -0.4452
  621MOL0     C81862   6.033   0.436  10.514 -0.3660  0.2190  0.1025
  621MOL0     C81863   5.880   0.409  10.497 -0.1086 -0.1035  0.0775
  621MOL0     O81864   5.857   0.273  10.451 -0.2517  0.1505  0.9569
  621MOL0     C81865   5.726   0.241  10.421  0.7316  0.7672  0.1002
  621MOL0     C81866   5.693   0.107  10.426  0.5649 -0.0925 -0.2004
  621MOL0     C81867   5.561   0.066  10.415 -0.3803  0.4139  0.5685
  621MOL0     C81868   5.454   0.159  10.401 -0.6133 -0.3375  0.7039
  621MOL0     C81869   5.322   0.115  10.385 -0.3089  0.3447  0.7081
  621MOL0     O81870   5.218   0.204  10.400  0.2035 -0.4451  0.2299
  621MOL0     C81871   5.093   0.153  10.384  1.2115 -0.1219 -0.7247
  621MOL0     C81872   5.052   0.124  10.252 -0.6180  0.3476  0.1081
  621MOL0     C81873   4.927   0.073  10.235 -0.3514  0.3214 -0.3312
  621MOL0     C81874   4.832   0.075  10.337 -0.5227  0.3580  0.8272
  621MOL0     O81875   4.695   0.061  10.311 -1.0593  0.0816 -0.7522
  621MOL0     C81876   4.658  -0.055  10.236 -0.3762  0.3758  0.0213
  621MOL0     C81877   4.523  -0.109  10.282 -0.5695  0.3981  0.7366
  621MOL0     C81878   4.412   0.005  10.275  0.0979  0.0617  0.1261
  621MOL0     C81879   4.274  -0.050  10.302 -0.7753  0.0003  0.0102
  621MOL0     C81880   4.170   0.033  10.243  0.1564 -0.4962 -0.8740
  621MOL0     C81881   4.035  -0.010  10.293  0.0392  0.8244  0.3551
  621MOL0     C81882   3.922   0.091  10.276  0.0239 -0.3215 -0.3161
  621MOL0     C81883   3.846   0.116  10.411 -0.2309  0.8973 -0.4675
  621MOL0    Cl81884   3.746  -0.038  10.435  0.1911  0.2283  0.0542
  621MOL0     C81885   4.871   0.109  10.465  0.4300  0.6958 -0.5035
  621MOL0     C81886   5.000   0.146  10.493 -0.6735 -0.0998 -0.2484
  621MOL0     O81887   5.312  -0.002  10.354 -0.5495  0.6253  0.0684
  621MOL0     C81888   5.489   0.293  10.394 -1.0183  0.1847  0.6102
  621MOL0     C81889   5.625   0.334  10.395 -0.1547  0.0484 -0.4026
  621MOL0     N81890   6.343   0.468  10.399 -0.1707 -0.4028  0.8952
  621MOL0     N81891   6.448   0.383  10.409 -0.8067  0.1100 -0.3369
  621MOL0     C81892   7.726   0.401  10.641  0.2322 -0.1348 -0.0390
  621MOL0     C81893   7.848   0.409  10.706  0.0837  0.6250  0.5719
  621MOL0     C81894   8.148   0.481  11.056 -0.8701 -0.3217  0.3255
  621MOL0     C81895   8.240   0.414  10.975  0.3917 -0.6347 -0.0571
  621MOL0     C81896   8.372   0.379  11.021  0.2204 -0.7620 -0.4536
  621MOL0     C81897   8.402   0.408  11.157  0.0446 -0.3061  0.1228
  621MOL0     O81898   8.519   0.366  11.216  0.1204 -0.2690  0.6134
  621MOL0     C81899   8.606   0.480  11.236 -0.7138  0.3885 -0.0739
  621MOL0     C81900   8.738   0.425  11.300 -0.3249 -0.0985  0.5430
  621MOL0     C81901   8.826   0.538  11.354  0.0972 -0.7287 -0.0612
  621MOL0     C81902   8.923   0.603  11.253  1.3597 -0.3057  0.3066
  621MOL0     C81903   9.047   0.660  11.312 -0.3921 -0.9642  0.7288
  621MOL0     C81904   9.160   0.714  11.344  1.1951  0.0464 -0.2590
  621MOL0     C81905   8.312   0.476  11.239  0.4147 -0.1580 -0.0661
  621MOL0     C81906   8.183   0.507  11.193 -0.3643  0.3141  0.7178
  621MOL0     H81907   7.750   0.600  10.963  2.4799 -1.1544  1.0951
  621MOL0     H81908   7.542   0.576  10.862 -0.0497  2.1777 -2.3596
  621MOL0     H81909   7.510   0.234  10.601 -0.1872 -0.4440 -1.3478
  621MOL0     H81910   7.424   0.325  10.477  0.4027 -1.9035  0.2063
  621MOL0     H81911   7.341   0.332  10.759 -2.1184  3.4721 -0.9717
  621MOL0     H81912   7.307   0.171  10.668 -0.2382  0.0558 -3.1625
  621MOL0     H81913   7.190   0.316  10.499  0.2604  0.7212 -0.1442
  621MOL0     H81914   7.197   0.446  10.635  1.5965  0.5566 -1.5777
  621MOL0     H81915   7.058   0.168  10.635 -0.1392 -0.5873 -1.3496
  621MOL0     H81916   7.073   0.265  10.782  0.1222 -0.0452 -0.2192
  621MOL0     H81917   6.901   0.287  10.523 -0.1982 -0.2255 -0.0648
  621MOL0     H81918   6.960   0.436  10.608  3.2847 -0.1249  2.5588
  621MOL0     H81919   6.853   0.362  10.818 -0.6257 -1.7510  0.6810
  621MOL0     H81920   6.802   0.218  10.764  0.7204  0.5787  0.5540
  621MOL0     H81921   6.637   0.407  10.766  1.3853  0.6740  0.0707
  621MOL0     H81922   6.710   0.473  10.618 -2.9070  0.8896 -0.5844
  621MOL0     H81923   6.534   0.220  10.646 -1.4329 -1.0382 -2.1958
  621MOL0     H81924   6.650   0.249  10.512 -0.0365 -0.5423 -0.5848
  621MOL0     H81925   6.412   0.508  10.710 -0.6300  2.0964 -0.6618
  621MOL0     H81926   6.230   0.723  10.522 -1.6551 -0.0855 -0.1505
  621MOL0     H81927   6.212   0.624  10.669  3.9029 -3.0724  0.5654
  621MOL0     H81928   6.046   0.626  10.408 -1.2415 -1.5572 -0.4284
  621MOL0     H81929   5.989   0.639  10.568 -0.6081  0.7547 -2.6698
  621MOL0     H81930   6.097   0.392  10.438  0.5740  0.6506  0.6297
  621MOL0     H81931   6.069   0.391  10.607 -1.2487 -1.8321 -0.4885
  621MOL0     H81932   5.848   0.497  10.442 -0.2236  2.2274  3.5511
  621MOL0     H81933   5.830   0.426  10.593 -0.8221 -0.8756 -0.1401
  621MOL0     H81934   5.774   0.040  10.454 -0.1807  0.4225  3.6498
  621MOL0     H81935   5.549  -0.041  10.429 -0.3899  0.0667 -1.7468
  621MOL0     H81936   5.123   0.127  10.170 -0.4587  1.1394  0.2657
  621MOL0     H81937   4.894   0.049  10.135 -3.6451 -0.7429  0.8811
  621MOL0     H81938   4.731  -0.135  10.247 -2.7570 -1.9805 -0.2622
  621MOL0     H81939   4.656  -0.037  10.128  0.3972 -0.7607 -0.2036
  621MOL0     H81940   4.521  -0.133  10.389 -0.1841  2.0660  1.1548
  621MOL0     H81941   4.499  -0.191  10.214 -0.8066 -1.2391  2.7151
  621MOL0     H81942   4.418   0.051  10.176  1.9937 -1.5505 -0.5805
  621MOL0     H81943   4.446   0.074  10.353 -2.2674  0.1048  1.2028
  621MOL0     H81944   4.263  -0.148  10.254 -0.2252  0.4783 -1.1382
  621MOL0     H81945   4.277  -0.056  10.411 -0.7966 -0.6047 -0.0184
  621MOL0     H81946   4.167   0.038  10.134 -0.3353  2.4403 -0.8119
  621MOL0     H81947   4.188   0.138  10.267 -0.7374 -0.0635 -1.9914
  621MOL0     H81948   4.040  -0.046  10.396 -1.8155 -1.0408 -0.1214
  621MOL0     H81949   4.008  -0.102  10.241  3.3037  0.4999 -0.9535
  621MOL0     H81950   3.966   0.188  10.250  1.0098 -0.4161  0.8982
  621MOL0     H81951   3.857   0.062  10.193  1.2612 -0.1306 -1.3900
  621MOL0     H81952   3.774   0.198  10.416 -0.1197  0.9442  0.7223
  621MOL0     H81953   3.923   0.118  10.488  1.3264  2.3618 -1.9924
  621MOL0     H81954   4.807   0.101  10.552  0.1317 -0.1596 -0.7949
  621MOL0     H81955   5.036   0.176  10.591 -0.0008  1.7755 -1.0267
  621MOL0     H81956   5.415   0.372  10.385 -1.0271  0.0951 -0.1281
  621MOL0     H81957   5.653   0.437  10.374  3.1796 -0.1654  2.2327
  621MOL0     H81958   7.733   0.353  10.544 -2.3098  1.1549 -0.9581
  621MOL0     H81959   7.937   0.364  10.664  0.9634  2.9979 -0.3203
  621MOL0     H81960   8.217   0.380  10.874 -3.8455  0.4366  0.3892
  621MOL0     H81961   8.435   0.327  10.950  1.2121 -1.2149  0.7281
  621MOL0     H81962   8.577   0.555  11.311  1.7985  2.2755 -0.8470
  621MOL0     H81963   8.628   0.533  11.144  3.2552  0.0461  0.4960
  621MOL0     H81964   8.705   0.379  11.393  0.1939  1.3173  1.4581
  621MOL0     H81965   8.788   0.353  11.235 -2.6350 -0.2439 -1.2251
  621MOL0     H81966   8.891   0.500  11.433  2.8295  2.4751 -0.5406
  621MOL0     H81967   8.769   0.621  11.398 -1.3979 -0.0559 -2.9568
  621MOL0     H81968   8.949   0.534  11.173 -0.4702 -1.5855  0.7344
  621MOL0     H81969   8.864   0.679  11.201 -2.8840 -1.9177  2.2789
  621MOL0     H81970   9.250   0.761  11.378  1.1597 -0.8850  1.2219
  621MOL0     H81971   8.334   0.490  11.344 -0.7038  1.0463  0.0341
  621MOL0     H81972   8.118   0.558  11.264 -2.0592 -0.0665 -0.5090
  622MOL0     O81973   5.147   9.381   5.930  0.0360 -0.4263  0.5728
  622MOL0     C81974   5.231   9.472   5.907  0.7118  0.3327  0.2399
  622MOL0     O81975   5.212   9.605   5.919 -0.4637 -0.2537 -0.3688
  622MOL0     C81976   5.093   9.645   5.977 -0.6676 -0.7225  0.0084
  622MOL0     C81977   4.981   9.636   5.892  0.2830 -0.6291  0.0741
  622MOL0     C81978   4.861   9.688   5.933 -0.0201  0.3724 -0.1306
  622MOL0     C81979   4.854   9.745   6.061 -0.3632 -0.3854 -0.2796
  622MOL0     O81980   4.729   9.793   6.108 -0.2796 -0.0192 -0.8979
  622MOL0     C81981   4.694   9.747   6.241 -0.3420 -0.7797 -0.5685
  622MOL0     C81982   4.551   9.773   6.265  0.4428 -0.0677 -0.4825
  622MOL0     C81983   4.477   9.668   6.183 -0.9972 -0.1200 -0.0364
  622MOL0     C81984   4.327   9.675   6.218  0.1312 -0.1494 -0.3679
  622MOL0     C81985   4.299   9.619   6.357 -0.1630  0.3390 -0.2404
  622MOL0     C81986   4.154   9.574   6.376 -0.3650 -0.0161  0.2747
  622MOL0     C81987   4.058   9.689   6.372  0.2208 -0.2753  0.3906
  622MOL0     C81988   3.933   9.662   6.297 -0.7181  1.0014 -0.6317
  622MOL0     N81989   3.820   9.726   6.353 -0.0170 -0.5212 -0.8541
  622MOL0     C81990   3.766   9.840   6.309  0.5270 -0.2315  0.6570
  622MOL0     C81991   3.652   9.861   6.377  0.3381 -1.0165 -0.9670
  622MOL0     C81992   3.557   9.967   6.351  0.0358  0.6962  0.2923
  622MOL0     C81993   3.454   9.961   6.472 -0.0551 -0.3936 -0.2192
  622MOL0     C81994   3.343  10.074   6.458  0.4167  0.4273 -0.0222
  622MOL0     C81995   3.296  10.092   6.311  0.2523 -0.2896 -0.2525
  622MOL0     O81996   3.172  10.152   6.309  0.3234 -0.0724 -0.1596
  622MOL0     C81997   3.171  10.292   6.283  0.5072  0.5063  0.5077
  622MOL0     C81998   3.065  10.333   6.198 -0.1768  0.4413 -0.2765
  622MOL0     C81999   3.031  10.464   6.197 -0.0624  0.0767 -0.3670
  622MOL0     C82000   3.098  10.559   6.269 -1.3750  0.1092 -1.1816
  622MOL0     C82001   3.048  10.696   6.289  0.1079  0.8300  1.9894
  622MOL0     O82002   3.138  10.787   6.356 -0.2182  0.4536  0.5347
  622MOL0     C82003   3.097  10.910   6.360 -0.3044  0.5587 -0.3333
  622MOL0     C82004   2.989  10.953   6.444 -0.4858 -0.2281 -0.4711
  622MOL0     C82005   2.942  11.085   6.449  0.7290  0.3419  0.5980
  622MOL0     C82006   3.017  11.186   6.386 -0.0350 -0.4427  1.0148
  622MOL0     O82007   2.975  11.316   6.397 -1.5468 -0.2339 -0.6552
  622MOL0     C82008   2.977  11.394   6.277  0.2984  0.0114 -1.1246
  622MOL0     C82009   2.858  11.481   6.286  0.3829  0.5880  0.2159
  622MOL0     C82010   2.845  11.558   6.414 -0.9202 -0.1342  0.5836
  622MOL0     C82011   2.741  11.672   6.403  0.1386 -0.1362 -0.5315
  622MOL0     C82012   2.719  11.741   6.543  0.6782  0.2680 -0.0499
  622MOL0     C82013   2.591  11.687   6.611  0.9948 -0.3793 -0.6818
  622MOL0     C82014   2.471  11.781   6.582 -0.4604  0.1943 -0.2005
  622MOL0     C82015   2.344  11.724   6.625  0.1319  0.3811  0.3344
  622MOL0    Cl82016   2.212  11.843   6.604 -0.0415  0.0925  0.1809
  622MOL0     C82017   3.129  11.147   6.305  0.0386 -0.3031  0.0484
  622MOL0     C82018   3.162  11.004   6.292 -0.0379  0.1240  0.9508
  622MOL0     O82019   2.945  10.726   6.232 -0.2185 -0.4851  0.6071
  622MOL0     C82020   3.200  10.519   6.356  0.3828 -0.8208 -0.3358
  622MOL0     C82021   3.241  10.386   6.355 -0.4410 -0.5649  0.0514
  622MOL0     N82022   3.647   9.759   6.465 -0.5925 -0.0350 -0.1603
  622MOL0     N82023   3.746   9.684   6.450  0.0163  0.5928  0.2208
  622MOL0     C82024   4.963   9.755   6.143  0.2973 -0.6891  0.8999
  622MOL0     C82025   5.088   9.704   6.102  0.7023 -0.5056  0.3076
  622MOL0     C82026   5.361   9.435   5.848  0.1795 -0.3411  0.0281
  622MOL0     C82027   5.457   9.528   5.817  1.2233  0.4060  0.9302
  622MOL0     C82028   5.582   9.477   5.762 -0.3743 -1.4122  0.1466
  622MOL0     C82029   5.610   9.334   5.749 -0.8760 -0.4094 -0.1830
  622MOL0     O82030   5.731   9.275   5.702  0.1428  0.6211  0.2138
  622MOL0     C82031   5.839   9.377   5.700  0.9569 -0.1216 -0.5422
  622MOL0     C82032   5.969   9.315   5.727 -1.3686 -0.1421  0.0245
  622MOL0     C82033   6.000   9.275   5.879 -0.2904  0.5029  0.1077
  622MOL0     C82034   6.143   9.207   5.880 -0.1033 -0.4430  0.8635
  622MOL0     C82035   6.186   9.180   6.022 -0.0600  0.0180  1.0380
  622MOL0     C82036   6.225   9.153   6.140 -0.1784 -0.2790  0.8884
  622MOL0     C82037   5.509   9.251   5.790 -0.1216 -0.1853  1.1230
  622MOL0     C82038   5.391   9.292   5.825 -0.3997  0.1949  0.2351
  622MOL0     H82039   4.989   9.605   5.789  1.9452  2.4775 -0.8716
  622MOL0     H82040   4.790   9.691   5.851 -2.0451 -0.1051  1.5219
  622MOL0     H82041   4.754   9.806   6.311  0.6983 -1.0299 -1.2219
  622MOL0     H82042   4.723   9.645   6.269 -0.6989 -0.0440  3.0783
  622MOL0     H82043   4.526   9.878   6.247  1.3055  1.0438  3.8158
  622MOL0     H82044   4.532   9.747   6.369  3.2449  0.1799  0.1671
  622MOL0     H82045   4.514   9.566   6.192  2.2331  0.6829 -2.3391
  622MOL0     H82046   4.480   9.692   6.076  1.6620  0.3657  0.0884
  622MOL0     H82047   4.290   9.777   6.211 -2.9413 -1.2317 -1.4369
  622MOL0     H82048   4.268   9.615   6.148  1.8104 -1.3392 -0.8534
  622MOL0     H82049   4.328   9.689   6.436 -0.6237 -0.2523  0.4677
  622MOL0     H82050   4.366   9.532   6.361  0.9385  1.1423 -0.8433
  622MOL0     H82051   4.142   9.520   6.470  1.4912  0.4337  0.7966
  622MOL0     H82052   4.129   9.520   6.284  1.2603  2.2172 -1.5774
  622MOL0     H82053   4.032   9.724   6.472  0.2830  0.4528  0.1560
  622MOL0     H82054   4.115   9.773   6.330 -1.7874  1.0791  0.2420
  622MOL0     H82055   3.922   9.554   6.288  1.0027  0.8128 -0.7068
  622MOL0     H82056   3.954   9.689   6.193  2.6109  1.7033  0.1035
  622MOL0     H82057   3.791   9.903   6.225 -2.0950 -0.2966 -0.2584
  622MOL0     H82058   3.513   9.949   6.252 -4.4263 -1.0912  2.3695
  622MOL0     H82059   3.623  10.054   6.350  4.6802 -2.3976  2.5129
  622MOL0     H82060   3.515   9.983   6.561  0.7442 -0.1786 -0.8072
  622MOL0     H82061   3.407   9.863   6.482 -0.5453 -0.2440 -0.9830
  622MOL0     H82062   3.255  10.047   6.518 -1.7273  1.5001 -2.4764
  622MOL0     H82063   3.376  10.169   6.501  0.9038 -1.3354  4.0373
  622MOL0     H82064   3.285   9.994   6.264 -1.7292  0.3417 -1.2475
  622MOL0     H82065   3.371  10.155   6.263  0.4286  1.4105  2.1068
  622MOL0     H82066   2.996  10.268   6.146  0.4663  0.2489 -0.8949
  622MOL0     H82067   2.936  10.493   6.154 -0.4954 -2.5351 -1.4044
  622MOL0     H82068   2.922  10.881   6.489 -1.3586  1.2662  0.7108
  622MOL0     H82069   2.853  11.125   6.497  0.6705 -0.2352  0.9710
  622MOL0     H82070   2.957  11.325   6.194 -2.4479 -1.3100  0.5025
  622MOL0     H82071   3.072  11.449   6.277  0.5404 -0.3505  0.9096
  622MOL0     H82072   2.776  11.411   6.266  0.5545 -0.9640  3.9622
  622MOL0     H82073   2.856  11.557   6.207  3.1947 -1.3651 -1.9249
  622MOL0     H82074   2.942  11.609   6.423 -0.7511  0.9425 -4.2503
  622MOL0     H82075   2.837  11.499   6.506 -1.0145 -0.6845  0.2304
  622MOL0     H82076   2.781  11.745   6.333  0.1304 -0.1741 -0.5762
  622MOL0     H82077   2.643  11.636   6.370 -1.1580  0.5147  2.2987
  622MOL0     H82078   2.712  11.847   6.521  2.7161 -0.0797 -2.9451
  622MOL0     H82079   2.807  11.739   6.607  2.6206  0.4345 -2.5420
  622MOL0     H82080   2.606  11.676   6.719 -2.3267 -4.8817 -0.3607
  622MOL0     H82081   2.567  11.588   6.571  0.3682  0.2802 -2.0101
  622MOL0     H82082   2.479  11.878   6.631  0.3004  0.8664 -1.5894
  622MOL0     H82083   2.464  11.796   6.474 -0.2162  4.4712  0.1992
  622MOL0     H82084   2.355  11.686   6.727  0.1890 -1.0721 -0.1784
  622MOL0     H82085   2.319  11.647   6.551  1.4691 -0.2973  0.5562
  622MOL0     H82086   3.187  11.222   6.254 -1.1501  0.1158 -0.7405
  622MOL0     H82087   3.238  10.971   6.222 -0.9830 -2.2349  0.9509
  622MOL0     H82088   3.229  10.583   6.439  0.8165 -0.5138 -0.7207
  622MOL0     H82089   3.305  10.351   6.436 -1.3338 -5.2056 -0.9581
  622MOL0     H82090   4.952   9.816   6.233 -1.0223  0.5139 -0.0352
  622MOL0     H82091   5.173   9.714   6.169  1.1088  3.1196 -0.5629
  622MOL0     H82092   5.442   9.635   5.828 -0.1750  0.5057 -1.2612
  622MOL0     H82093   5.649   9.557   5.730 -0.5531 -0.6186  1.6646
  622MOL0     H82094   5.827   9.440   5.788  0.6036 -1.8223  0.6601
  622MOL0     H82095   5.846   9.438   5.609  1.6319  1.1210  0.3197
  622MOL0     H82096   5.976   9.229   5.659  1.5529 -1.2379  1.5252
  622MOL0     H82097   6.038   9.395   5.702 -1.0759  0.0694  1.4327
  622MOL0     H82098   5.926   9.201   5.912  0.6907 -1.6134 -2.1171
  622MOL0     H82099   5.989   9.363   5.943 -0.8629 -0.5502  1.5106
  622MOL0     H82100   6.151   9.107   5.837 -1.7865 -0.8044  1.3148
  622MOL0     H82101   6.207   9.280   5.830 -1.4961 -0.7609 -1.5130
  622MOL0     H82102   6.262   9.144   6.240 -1.0191 -1.1655  1.1332
  622MOL0     H82103   5.522   9.144   5.791  0.6234 -0.4021 -3.8800
  622MOL0     H82104   5.320   9.220   5.864  0.4759  0.0886  1.7243
  623MOL0     O82105   7.834   3.989   2.723 -0.5071 -0.9060  0.6008
  623MOL0     C82106   7.863   3.894   2.650 -0.1830  0.3576  0.2430
  623MOL0     O82107   7.778   3.805   2.578 -0.4265  0.1933  0.4725
  623MOL0     C82108   7.646   3.791   2.601 -0.1637  0.8931 -0.1863
  623MOL0     C82109   7.575   3.696   2.524  0.6901  0.0425 -0.7307
  623MOL0     C82110   7.435   3.673   2.541  0.0672 -1.2261  0.1367
  623MOL0     C82111   7.360   3.743   2.632  0.0280  0.9759 -0.0036
  623MOL0     O82112   7.226   3.713   2.643 -0.2720  0.5794 -0.1655
  623MOL0     C82113   7.142   3.824   2.615 -0.4650 -0.4221 -0.2037
  623MOL0     C82114   7.021   3.770   2.550 -0.2063  0.7179  0.0097
  623MOL0     C82115   6.929   3.679   2.648 -0.0332 -0.3197  0.5888
  623MOL0     C82116   6.796   3.635   2.583  0.3926 -0.5888  0.5217
  623MOL0     C82117   6.707   3.576   2.687  0.0681  0.3241 -0.3884
  623MOL0     C82118   6.583   3.523   2.601 -0.2422  0.2903  0.8253
  623MOL0     C82119   6.480   3.451   2.695 -0.5695 -0.3716  0.8780
  623MOL0     C82120   6.334   3.450   2.636 -0.1068  0.6681 -0.7493
  623MOL0     N82121   6.238   3.351   2.708 -0.1652 -0.2668  0.9177
  623MOL0     C82122   6.187   3.366   2.834  0.2499  0.1474 -0.2806
  623MOL0     C82123   6.089   3.260   2.833 -0.0721  0.8869 -0.9817
  623MOL0     C82124   5.979   3.252   2.934  0.1572 -0.5167 -0.4779
  623MOL0     C82125   5.861   3.163   2.880 -0.3295  0.3846  0.2559
  623MOL0     C82126   5.742   3.155   2.968  0.9370 -0.2738  0.0542
  623MOL0     C82127   5.684   3.296   2.981 -0.9637  0.1377 -0.2249
  623MOL0     O82128   5.618   3.338   2.858 -0.2280  0.3791 -0.1145
  623MOL0     C82129   5.502   3.278   2.812  0.3410 -0.3634 -1.0986
  623MOL0     C82130   5.481   3.295   2.678 -0.3265  0.0410 -0.4244
  623MOL0     C82131   5.360   3.245   2.618  0.1527  0.1431  0.3987
  623MOL0     C82132   5.271   3.156   2.690 -0.1231  0.1899  0.0475
  623MOL0     C82133   5.166   3.079   2.618  0.6763  0.4141 -0.1465
  623MOL0     O82134   5.102   2.987   2.689 -0.4624 -0.3854  0.1786
  623MOL0     C82135   4.987   2.928   2.646  1.0780 -0.3140 -0.3803
  623MOL0     C82136   4.879   2.997   2.578 -0.1830 -1.4770 -1.3781
  623MOL0     C82137   4.754   2.945   2.559  0.5931  1.2457 -0.6217
  623MOL0     C82138   4.738   2.803   2.605 -0.5867  0.0677  0.3005
  623MOL0     O82139   4.624   2.730   2.608  0.0152  0.0797  0.9438
  623MOL0     C82140   4.505   2.794   2.562  0.0466  0.7495  0.0599
  623MOL0     C82141   4.398   2.683   2.525 -0.1364 -0.7435 -0.8263
  623MOL0     C82142   4.278   2.754   2.450  0.7618 -0.0147 -0.3437
  623MOL0     C82143   4.134   2.685   2.481  0.2647 -0.5024 -0.2274
  623MOL0     C82144   4.020   2.768   2.444  0.0738 -0.5833  0.3659
  623MOL0     C82145   3.895   2.686   2.414 -0.4753  0.8515 -0.3542
  623MOL0     C82146   3.820   2.646   2.540 -0.4869  0.3922  0.1093
  623MOL0     C82147   3.683   2.587   2.497  1.4593  0.1659  0.6364
  623MOL0    Cl82148   3.697   2.418   2.443  0.1341  0.4242  0.5826
  623MOL0     C82149   4.843   2.740   2.677 -0.1983 -0.3015  0.2593
  623MOL0     C82150   4.961   2.802   2.702  0.6112 -0.5718  0.3492
  623MOL0     O82151   5.133   3.110   2.505 -0.4060  0.7185  0.1481
  623MOL0     C82152   5.301   3.138   2.823  0.4447  1.0360 -0.2102
  623MOL0     C82153   5.405   3.210   2.887  0.3584  0.0807 -0.3664
  623MOL0     N82154   6.092   3.188   2.714 -0.4646  0.1692  0.0963
  623MOL0     N82155   6.183   3.247   2.641 -0.3666 -0.0906 -0.5017
  623MOL0     C82156   7.425   3.843   2.699 -0.4875 -0.0308 -0.1001
  623MOL0     C82157   7.565   3.868   2.686 -1.0718 -0.1456 -0.3280
  623MOL0     C82158   8.000   3.852   2.646 -0.6732  0.1069  0.1560
  623MOL0     C82159   8.054   3.792   2.527  0.6134 -0.3320  0.0666
  623MOL0     C82160   8.186   3.748   2.518  0.5106  0.6392  0.1076
  623MOL0     C82161   8.266   3.758   2.632 -0.4595 -0.2882  0.4992
  623MOL0     O82162   8.394   3.717   2.608  0.6095  0.6079  0.6243
  623MOL0     C82163   8.505   3.731   2.699  0.3586 -0.6701  0.3653
  623MOL0     C82164   8.546   3.880   2.709  0.2411 -0.0078 -0.1744
  623MOL0     C82165   8.637   3.914   2.834  0.1916 -0.2870  0.0586
  623MOL0     C82166   8.688   4.052   2.810 -0.0417 -0.5884  0.0438
  623MOL0     C82167   8.771   4.104   2.920  0.2176 -0.9723 -0.4905
  623MOL0     C82168   8.833   4.161   3.014  0.9066 -0.7638  0.0360
  623MOL0     C82169   8.217   3.803   2.752  0.1187 -0.7591  0.5533
  623MOL0     C82170   8.085   3.860   2.753 -0.6032 -0.0059  0.0698
  623MOL0     H82171   7.637   3.644   2.452  1.9383  0.8156 -0.2528
  623MOL0     H82172   7.386   3.599   2.479 -0.6722 -1.8015  1.3745
  623MOL0     H82173   7.180   3.912   2.562 -1.0080  1.0445  1.6826
  623MOL0     H82174   7.114   3.862   2.714  2.6082  0.2031  0.5300
  623MOL0     H82175   7.042   3.716   2.457  0.8848  1.8253 -0.4013
  623MOL0     H82176   6.963   3.858   2.523  0.4468 -0.3466 -6.4101
  623MOL0     H82177   6.903   3.733   2.739 -4.9983 -2.8502  1.0219
  623MOL0     H82178   6.989   3.591   2.675  0.1514  0.2748  2.1642
  623MOL0     H82179   6.742   3.727   2.558 -1.9663 -2.1380 -0.3706
  623MOL0     H82180   6.822   3.572   2.497  3.0422 -1.0098  1.5382
  623MOL0     H82181   6.693   3.642   2.773 -0.2298 -0.2553  0.0168
  623MOL0     H82182   6.751   3.485   2.731 -1.9404 -0.7350 -0.4444
  623MOL0     H82183   6.609   3.436   2.540 -1.3217 -1.0236  2.1657
  623MOL0     H82184   6.536   3.601   2.541 -0.6219 -1.5354 -1.3834
  623MOL0     H82185   6.498   3.343   2.693 -1.8262 -0.6549 -2.4528
  623MOL0     H82186   6.473   3.502   2.791 -0.6342  0.9071  0.2234
  623MOL0     H82187   6.330   3.433   2.528  0.3926 -4.7318 -0.1735
  623MOL0     H82188   6.291   3.547   2.664  0.4571  1.1505 -1.5351
  623MOL0     H82189   6.205   3.438   2.913  0.1638 -0.4080  0.2501
  623MOL0     H82190   5.932   3.350   2.944 -1.8537 -1.6459  2.6075
  623MOL0     H82191   6.013   3.220   3.034 -0.8286 -1.8378 -0.5306
  623MOL0     H82192   5.898   3.061   2.865 -0.7937  0.2964 -0.3447
  623MOL0     H82193   5.830   3.204   2.784  0.0838 -1.0976 -0.5552
  623MOL0     H82194   5.664   3.090   2.929 -1.8949  2.7201  0.3526
  623MOL0     H82195   5.761   3.104   3.064  0.3676  0.1408  0.3947
  623MOL0     H82196   5.754   3.362   3.032 -2.7365  1.2517  0.8976
  623MOL0     H82197   5.602   3.285   3.053 -1.8709  3.9978 -0.4235
  623MOL0     H82198   5.560   3.346   2.624  1.2407 -1.1098  0.6651
  623MOL0     H82199   5.336   3.268   2.514  1.5371 -0.2415 -0.0340
  623MOL0     H82200   4.881   3.100   2.544  0.5474 -1.4719 -1.3397
  623MOL0     H82201   4.667   3.002   2.530  1.0868  1.9351 -0.7765
  623MOL0     H82202   4.523   2.840   2.464  0.6647 -2.1479 -1.3197
  623MOL0     H82203   4.473   2.872   2.631 -0.2821 -0.0370  0.8154
  623MOL0     H82204   4.357   2.649   2.621  3.8594 -1.3915  0.8307
  623MOL0     H82205   4.445   2.601   2.470  0.1658 -0.1072 -1.5346
  623MOL0     H82206   4.299   2.763   2.343  0.2846 -0.5825 -0.4941
  623MOL0     H82207   4.277   2.852   2.497  1.7923 -0.7934  1.4454
  623MOL0     H82208   4.128   2.592   2.424  1.6901 -1.3973  1.0011
  623MOL0     H82209   4.122   2.673   2.589 -0.5352  0.7153 -0.1642
  623MOL0     H82210   4.045   2.820   2.351 -0.9121 -1.0679 -0.1866
  623MOL0     H82211   4.005   2.848   2.517  3.8197  0.2015  0.4347
  623MOL0     H82212   3.922   2.597   2.357 -1.9544  0.6210 -0.7493
  623MOL0     H82213   3.826   2.746   2.354  1.7563  5.1182  0.9290
  623MOL0     H82214   3.879   2.581   2.604 -1.5944 -0.1409  0.6201
  623MOL0     H82215   3.809   2.741   2.593 -0.0299 -0.1319  1.1498
  623MOL0     H82216   3.639   2.648   2.418  1.6127 -0.7623 -0.1848
  623MOL0     H82217   3.615   2.582   2.582  2.1649  3.2298  1.4944
  623MOL0     H82218   4.829   2.639   2.713  1.6256 -1.3564 -1.7935
  623MOL0     H82219   5.028   2.743   2.762 -0.4986 -1.1374  1.0719
  623MOL0     H82220   5.242   3.069   2.883 -1.1052  3.5157  1.3036
  623MOL0     H82221   5.441   3.204   2.989  1.1635  0.5291 -0.6122
  623MOL0     H82222   7.375   3.892   2.782 -0.3149  1.6200 -0.9403
  623MOL0     H82223   7.612   3.940   2.752  0.2586  2.1594 -3.4980
  623MOL0     H82224   8.003   3.771   2.433 -0.5531  0.2721  0.5344
  623MOL0     H82225   8.231   3.719   2.423 -0.8024 -0.6199 -0.1596
  623MOL0     H82226   8.594   3.679   2.664 -0.4750 -1.4564 -0.6374
  623MOL0     H82227   8.479   3.690   2.798  0.5362 -0.1545  0.6310
  623MOL0     H82228   8.602   3.907   2.618  1.5335 -0.5401  0.4384
  623MOL0     H82229   8.462   3.950   2.717  0.0233 -0.3192  0.2736
  623MOL0     H82230   8.727   3.852   2.844  0.3782 -1.0543 -4.2801
  623MOL0     H82231   8.577   3.919   2.925  2.5903 -1.0814  1.7882
  623MOL0     H82232   8.744   4.077   2.720 -0.1227  2.7017  0.7748
  623MOL0     H82233   8.597   4.111   2.795  0.3139 -0.7657 -3.6157
  623MOL0     H82234   8.850   4.219   3.102 -1.8153 -0.5079  0.5063
  623MOL0     H82235   8.273   3.819   2.843  1.0833  1.7141 -0.3912
  623MOL0     H82236   8.041   3.902   2.842 -2.8652 -2.1920  0.1077
  624MOL0     O82237   0.825   0.608   9.998 -0.0634 -0.0979 -1.1635
  624MOL0     C82238   0.769   0.513  10.047 -0.0537  0.6843  0.5481
  624MOL0     O82239   0.644   0.507  10.072  0.3871  0.5272  0.3177
  624MOL0     C82240   0.581   0.632  10.093  0.3008  0.2180  0.5463
  624MOL0     C82241   0.571   0.675  10.231 -0.1206  0.3177 -0.0383
  624MOL0     C82242   0.502   0.788  10.256 -0.0533 -0.5361 -0.8991
  624MOL0     C82243   0.446   0.861  10.160  0.6978  0.4501  0.3518
  624MOL0     O82244   0.374   0.979  10.184 -0.3658 -0.0902  0.1986
  624MOL0     C82245   0.449   1.096  10.214  0.1308  0.3604 -0.1308
  624MOL0     C82246   0.353   1.219  10.224  0.4482  0.1503  0.0920
  624MOL0     C82247   0.261   1.231  10.348 -0.2186  0.8023  0.1601
  624MOL0     C82248   0.344   1.254  10.477 -0.0720  0.2584 -0.1429
  624MOL0     C82249   0.434   1.383  10.470 -0.5979  0.1562  0.3896
  624MOL0     C82250   0.520   1.402  10.603  0.2151 -0.0700  0.0815
  624MOL0     C82251   0.566   1.546  10.588 -0.1986 -0.5538 -0.3805
  624MOL0     C82252   0.659   1.597  10.702  0.4257 -0.1290  0.4191
  624MOL0     N82253   0.604   1.568  10.840 -0.1381 -0.3636  0.6095
  624MOL0     C82254   0.540   1.653  10.916  0.6612 -0.3215 -0.8215
  624MOL0     C82255   0.505   1.592  11.030  0.4719 -0.2515 -0.2990
  624MOL0     C82256   0.396   1.643  11.123  0.3268  0.1808  0.0146
  624MOL0     C82257   0.454   1.668  11.264 -0.0012 -0.2266  0.1703
  624MOL0     C82258   0.349   1.742  11.346 -0.2791  0.2585 -0.1513
  624MOL0     C82259   0.224   1.650  11.366 -0.0555 -0.8636  0.2592
  624MOL0     O82260   0.131   1.724  11.453 -0.3922 -0.1543 -0.4341
  624MOL0     C82261  -0.002   1.701  11.439 -0.0315  0.1426  0.0547
  624MOL0     C82262  -0.056   1.575  11.398  0.0042  0.5375 -0.0832
  624MOL0     C82263  -0.188   1.540  11.390 -0.4374  0.0405  0.0458
  624MOL0     C82264  -0.283   1.637  11.425  0.2706 -0.0756 -0.2394
  624MOL0     C82265  -0.429   1.607  11.394 -0.5643 -0.4795 -1.1795
  624MOL0     O82266  -0.523   1.666  11.482  0.0053  0.2677 -0.0891
  624MOL0     C82267  -0.655   1.635  11.472 -0.1588  0.3255  0.0046
  624MOL0     C82268  -0.699   1.570  11.585 -0.5774  0.5279 -0.3002
  624MOL0     C82269  -0.834   1.520  11.597 -0.7575 -0.1904 -0.0166
  624MOL0     C82270  -0.931   1.563  11.501  0.1517  0.6586 -0.3190
  624MOL0     O82271  -1.063   1.530  11.507  0.1613 -0.4286  0.3273
  624MOL0     C82272  -1.104   1.456  11.621 -0.2487  1.0070 -0.7390
  624MOL0     C82273  -1.261   1.468  11.637 -0.3409 -0.2687  0.2181
  624MOL0     C82274  -1.327   1.616  11.655 -0.6672 -0.2505 -0.6997
  624MOL0     C82275  -1.476   1.608  11.684 -0.1591  0.1210  0.1115
  624MOL0     C82276  -1.547   1.588  11.543  0.1519  0.0020  0.1971
  624MOL0     C82277  -1.703   1.569  11.561 -0.1013  0.1777  0.0351
  624MOL0     C82278  -1.786   1.528  11.446 -0.2624  0.1279  0.6838
  624MOL0     C82279  -1.928   1.511  11.506  0.2553 -0.0398 -1.0771
  624MOL0    Cl82280  -2.052   1.498  11.364 -0.5814 -0.1526  0.3161
  624MOL0     C82281  -0.881   1.633  11.389  0.8700 -0.0919  0.5076
  624MOL0     C82282  -0.751   1.670  11.369 -0.0325 -0.3267 -0.4920
  624MOL0     O82283  -0.454   1.521  11.316 -0.1666  0.6965  0.2854
  624MOL0     C82284  -0.233   1.767  11.455  0.2544 -0.1219  0.4002
  624MOL0     C82285  -0.097   1.804  11.470  0.0374 -0.0737  0.3476
  624MOL0     N82286   0.552   1.469  11.025 -0.8110  0.5900 -0.0780
  624MOL0     N82287   0.619   1.457  10.918  0.5659 -0.2915  0.1719
  624MOL0     C82288   0.452   0.821  10.026  0.5117 -0.2592  0.1032
  624MOL0     C82289   0.520   0.704   9.994  0.0341  0.1121 -0.5465
  624MOL0     C82290   0.849   0.390  10.054 -0.3383 -0.7121 -0.1207
  624MOL0     C82291   0.975   0.378   9.990  0.4680 -0.3492 -0.5083
  624MOL0     C82292   1.053   0.259  10.025 -0.5901 -0.7234  0.2695
  624MOL0     C82293   1.017   0.173  10.126  0.7696 -0.9368  0.5676
  624MOL0     O82294   1.091   0.069  10.171 -0.2693 -0.7099  0.3099
  624MOL0     C82295   1.223   0.052  10.106  0.6981 -0.1426  0.9589
  624MOL0     C82296   1.316  -0.050  10.173  0.0928 -0.2123 -0.4539
  624MOL0     C82297   1.333  -0.018  10.325 -0.3151 -0.3032  0.6152
  624MOL0     C82298   1.384  -0.141  10.401  0.8771 -0.2678  0.0348
  624MOL0     C82299   1.282  -0.241  10.413  0.1095  0.1110  0.2802
  624MOL0     C82300   1.210  -0.333  10.433 -0.2180 -0.2748 -1.1335
  624MOL0     C82301   0.893   0.187  10.189 -0.0284 -1.2363 -0.4921
  624MOL0     C82302   0.811   0.292  10.151 -0.0848  0.5779  0.2024
  624MOL0     H82303   0.630   0.618  10.302  1.9995 -0.3544 -2.1771
  624MOL0     H82304   0.489   0.808  10.362  1.4900 -2.8686 -0.1838
  624MOL0     H82305   0.518   1.116  10.132 -0.7684 -0.3832 -1.1039
  624MOL0     H82306   0.496   1.074  10.310 -1.4734  1.5973  1.0006
  624MOL0     H82307   0.290   1.214  10.134  2.3480 -0.8865 -1.2363
  624MOL0     H82308   0.418   1.306  10.216  0.8828 -0.2106 -0.2981
  624MOL0     H82309   0.194   1.145  10.361  0.2397  0.3769 -0.2694
  624MOL0     H82310   0.200   1.321  10.333 -0.3827  0.4453 -1.5183
  624MOL0     H82311   0.263   1.280  10.545 -2.3215  0.9715 -2.8825
  624MOL0     H82312   0.400   1.162  10.498  0.5660  0.1014 -2.2525
  624MOL0     H82313   0.366   1.468  10.454 -0.3131  0.6678  1.7775
  624MOL0     H82314   0.503   1.392  10.386 -0.0562  2.1374  0.9857
  624MOL0     H82315   0.602   1.331  10.594  1.0913  0.9713 -0.4073
  624MOL0     H82316   0.458   1.387  10.692  2.2982 -0.8046  1.4916
  624MOL0     H82317   0.625   1.546  10.495  0.6027 -0.4827  0.1235
  624MOL0     H82318   0.484   1.619  10.582  0.7078  1.1647  4.3088
  624MOL0     H82319   0.671   1.705  10.693  2.4899 -0.3706 -0.2337
  624MOL0     H82320   0.750   1.540  10.683  0.0470  0.1759 -3.0136
  624MOL0     H82321   0.519   1.754  10.883 -0.5493  0.4763  2.0955
  624MOL0     H82322   0.315   1.570  11.130  0.2167  0.4820  4.2126
  624MOL0     H82323   0.355   1.734  11.078 -3.4894 -0.3325  2.0498
  624MOL0     H82324   0.545   1.728  11.273  0.4525 -1.1429  2.2986
  624MOL0     H82325   0.484   1.578  11.318  3.2245  0.9896  0.6105
  624MOL0     H82326   0.401   1.770  11.438  1.0056 -0.8981 -0.4929
  624MOL0     H82327   0.330   1.838  11.296  1.6601  0.1913 -1.1026
  624MOL0     H82328   0.229   1.546  11.398 -0.6654 -1.2187 -0.7617
  624MOL0     H82329   0.175   1.642  11.268  1.8451  1.1702 -0.9618
  624MOL0     H82330   0.023   1.507  11.367 -1.1321 -0.0847 -1.7813
  624MOL0     H82331  -0.215   1.439  11.360 -3.5164  0.6042  0.5325
  624MOL0     H82332  -0.625   1.539  11.659 -0.0093 -0.1209 -1.1284
  624MOL0     H82333  -0.852   1.466  11.689  0.4362 -2.1802 -0.8927
  624MOL0     H82334  -1.063   1.498  11.713  0.3561  0.6143 -0.8238
  624MOL0     H82335  -1.092   1.347  11.620  0.1774  1.0305  0.2294
  624MOL0     H82336  -1.285   1.413  11.729 -0.4223  2.0805  1.6958
  624MOL0     H82337  -1.305   1.407  11.558  1.9450 -0.6926 -0.7989
  624MOL0     H82338  -1.312   1.682  11.569 -1.0768  1.8355  0.7574
  624MOL0     H82339  -1.283   1.665  11.743  1.1336 -2.5401 -0.2425
  624MOL0     H82340  -1.504   1.529  11.754  3.9173  0.1886  2.0575
  624MOL0     H82341  -1.508   1.698  11.737 -1.3875  1.0139 -2.0013
  624MOL0     H82342  -1.506   1.498  11.498 -2.3433 -2.7142  2.9115
  624MOL0     H82343  -1.526   1.672  11.476  0.0027 -1.5177 -1.8241
  624MOL0     H82344  -1.742   1.663  11.601  1.9446  1.4828 -0.9069
  624MOL0     H82345  -1.724   1.493  11.637 -3.4364 -0.6369 -1.4814
  624MOL0     H82346  -1.795   1.603  11.367 -2.6030  0.6870  1.4213
  624MOL0     H82347  -1.740   1.439  11.401  1.5287  1.7641 -0.9271
  624MOL0     H82348  -1.956   1.599  11.565  3.6195 -1.6215  3.4983
  624MOL0     H82349  -1.935   1.417  11.562 -0.6846  1.1488  0.9101
  624MOL0     H82350  -0.946   1.644  11.303  1.7871 -0.4574 -0.2562
  624MOL0     H82351  -0.708   1.721  11.283  1.9807 -0.6622  0.2649
  624MOL0     H82352  -0.311   1.841  11.464 -0.6512 -1.1395  1.1431
  624MOL0     H82353  -0.074   1.905  11.503  0.2519  0.4951 -1.4652
  624MOL0     H82354   0.411   0.875   9.941  0.6029 -1.8637 -0.9996
  624MOL0     H82355   0.537   0.673   9.892  1.5831 -3.2720  0.6060
  624MOL0     H82356   1.004   0.440   9.905  0.0064 -1.3256 -1.4144
  624MOL0     H82357   1.146   0.243   9.972 -0.0567  0.3761  0.8388
  624MOL0     H82358   1.280   0.145  10.101  1.6021 -0.7359 -0.2977
  624MOL0     H82359   1.207   0.023  10.002 -0.7242  0.9715  0.8301
  624MOL0     H82360   1.292  -0.156  10.162  0.9648 -0.4103 -0.5690
  624MOL0     H82361   1.408  -0.031  10.116 -0.2567 -1.1158 -1.3538
  624MOL0     H82362   1.234   0.011  10.360 -0.0960  2.1616 -0.5566
  624MOL0     H82363   1.402   0.066  10.340 -0.1649 -0.1790 -0.6497
  624MOL0     H82364   1.477  -0.177  10.357 -0.4881 -3.4670 -0.5206
  624MOL0     H82365   1.396  -0.100  10.502 -0.8560  2.0797 -0.5954
  624MOL0     H82366   1.156  -0.422  10.460 -0.6442  0.7836  1.8633
  624MOL0     H82367   0.873   0.129  10.278 -1.6148  2.0963  1.4809
  624MOL0     H82368   0.727   0.323  10.213  0.8914  0.5328  1.5929
  625MOL0     O82369   9.485   5.750   8.933  0.3446 -0.2534  0.5985
  625MOL0     C82370   9.507   5.631   8.925  0.4905 -0.0586  0.2283
  625MOL0     O82371   9.415   5.534   8.915 -0.2367 -0.5805  0.0664
  625MOL0     C82372   9.275   5.554   8.911 -0.2953  0.0898  0.0112
  625MOL0     C82373   9.199   5.458   8.856 -0.0145  0.1445 -0.1152
  625MOL0     C82374   9.065   5.453   8.866  0.3769 -0.2311 -0.4586
  625MOL0     C82375   8.999   5.543   8.944  0.1235 -0.3903 -0.2169
  625MOL0     O82376   8.860   5.542   8.960 -0.8667 -0.8811  0.0880
  625MOL0     C82377   8.811   5.423   9.023  0.2523 -0.3721 -0.7510
  625MOL0     C82378   8.732   5.332   8.931  0.9413  0.4504 -0.2491
  625MOL0     C82379   8.600   5.407   8.876  0.2374  1.1643 -0.4624
  625MOL0     C82380   8.519   5.319   8.773 -0.1127 -0.3301  0.5554
  625MOL0     C82381   8.417   5.418   8.711 -0.3117 -0.3960  0.4782
  625MOL0     C82382   8.315   5.348   8.620  0.8071 -1.2432  0.3708
  625MOL0     C82383   8.268   5.438   8.501  0.3277  0.4196 -1.1651
  625MOL0     C82384   8.188   5.550   8.565  0.4751  0.2828 -0.6290
  625MOL0     N82385   8.208   5.679   8.489  0.4195  0.2806 -0.2794
  625MOL0     C82386   8.329   5.739   8.485  0.0514 -0.6862  0.4693
  625MOL0     C82387   8.309   5.846   8.407  0.6314  0.2573 -1.0607
  625MOL0     C82388   8.403   5.950   8.380  0.9645 -0.2288 -0.0618
  625MOL0     C82389   8.457   5.947   8.237 -0.3777 -0.1560 -0.1968
  625MOL0     C82390   8.515   6.077   8.196 -0.4168  0.9399  0.5207
  625MOL0     C82391   8.558   6.084   8.045  0.4794 -0.0700 -0.4483
  625MOL0     O82392   8.567   6.229   8.016  0.4974 -0.2135  0.1896
  625MOL0     C82393   8.552   6.270   7.883  0.2921  0.5683  0.1522
  625MOL0     C82394   8.511   6.405   7.863 -0.1906 -0.6450  0.1167
  625MOL0     C82395   8.476   6.446   7.728  0.1869  0.5226 -0.6426
  625MOL0     C82396   8.496   6.363   7.617 -0.3821  0.9170  0.5195
  625MOL0     C82397   8.454   6.408   7.481 -0.3806  0.2423  0.0822
  625MOL0     O82398   8.408   6.325   7.390 -0.4433 -0.8208 -0.7048
  625MOL0     C82399   8.378   6.380   7.270  0.1219  0.6975  0.2274
  625MOL0     C82400   8.483   6.408   7.186  0.4708  0.7074 -0.4127
  625MOL0     C82401   8.470   6.471   7.064 -0.4503  0.3801  0.3642
  625MOL0     C82402   8.341   6.509   7.015 -0.3261  0.5121 -0.2111
  625MOL0     O82403   8.323   6.572   6.896 -0.0781 -0.1406  0.2911
  625MOL0     C82404   8.426   6.576   6.794  0.3553  0.4912 -0.8119
  625MOL0     C82405   8.507   6.699   6.810  0.6158  0.3062 -0.5837
  625MOL0     C82406   8.427   6.819   6.783  0.3359  0.5141  0.4188
  625MOL0     C82407   8.487   6.961   6.808 -0.3971 -0.1626  0.1975
  625MOL0     C82408   8.382   7.068   6.788  0.4464  0.4869 -0.0995
  625MOL0     C82409   8.350   7.107   6.647 -0.9744  0.1117  0.4737
  625MOL0     C82410   8.467   7.172   6.564 -0.6256  0.3291 -0.6459
  625MOL0     C82411   8.546   7.075   6.476 -0.5273 -1.1665 -0.4903
  625MOL0    Cl82412   8.652   7.171   6.374  0.4366 -0.0367  0.2369
  625MOL0     C82413   8.232   6.472   7.098  0.4009  1.2263 -0.0250
  625MOL0     C82414   8.250   6.405   7.224  0.7029  0.2247 -1.0982
  625MOL0     O82415   8.474   6.527   7.463  0.5010  0.6012  0.3472
  625MOL0     C82416   8.542   6.235   7.640 -0.0448 -0.0952 -0.4851
  625MOL0     C82417   8.562   6.187   7.770 -0.6784  0.3214 -1.3224
  625MOL0     N82418   8.173   5.849   8.364 -0.0534 -0.2508  0.0761
  625MOL0     N82419   8.115   5.745   8.406  0.9120  0.7886  0.1872
  625MOL0     C82420   9.077   5.646   9.002  1.1013  0.4071 -0.1829
  625MOL0     C82421   9.212   5.656   8.982 -0.7485 -1.1298  0.3772
  625MOL0     C82422   9.653   5.592   8.934  0.2281 -0.0238  0.8064
  625MOL0     C82423   9.695   5.457   8.920 -0.5401 -0.1966  0.2058
  625MOL0     C82424   9.828   5.418   8.935 -0.0020  0.4834 -0.7719
  625MOL0     C82425   9.927   5.515   8.946  0.1368 -0.1992  0.4895
  625MOL0     O82426  10.057   5.471   8.951 -0.0352 -0.5835  0.9327
  625MOL0     C82427  10.169   5.570   8.965  0.0614  0.1334 -0.1366
  625MOL0     C82428  10.287   5.491   9.011  0.5650 -0.0087  0.4289
  625MOL0     C82429  10.409   5.584   9.025 -0.2232 -0.2973 -0.2384
  625MOL0     C82430  10.502   5.530   9.137  0.4515  0.4063  0.3260
  625MOL0     C82431  10.438   5.555   9.268  0.1688  0.3753 -0.3287
  625MOL0     C82432  10.371   5.580   9.370 -0.8560 -0.4771  0.8283
  625MOL0     C82433   9.887   5.647   8.967 -0.0023 -0.3160  0.1982
  625MOL0     C82434   9.752   5.685   8.969  0.0093  0.7719  0.1536
  625MOL0     H82435   9.254   5.374   8.814  0.1846 -1.8552  3.7233
  625MOL0     H82436   9.003   5.383   8.812 -1.8697  1.4116 -0.1360
  625MOL0     H82437   8.744   5.452   9.104 -0.6812 -2.7997 -0.5849
  625MOL0     H82438   8.886   5.370   9.083 -0.9244  0.9942  2.1337
  625MOL0     H82439   8.698   5.245   8.988 -1.0247  1.1085 -0.3256
  625MOL0     H82440   8.777   5.289   8.841 -1.3309 -1.8808 -0.4019
  625MOL0     H82441   8.629   5.501   8.829  3.4279  0.9678  0.8975
  625MOL0     H82442   8.525   5.432   8.953  0.3811 -1.6914  0.7355
  625MOL0     H82443   8.581   5.256   8.709 -1.2485 -1.9759  1.0220
  625MOL0     H82444   8.460   5.243   8.826 -1.1905  0.0294 -0.0976
  625MOL0     H82445   8.477   5.486   8.649 -0.5208 -0.9305 -0.3217
  625MOL0     H82446   8.364   5.478   8.786 -0.3046 -0.8879  0.8796
  625MOL0     H82447   8.236   5.307   8.684 -1.7768  0.4930 -1.5161
  625MOL0     H82448   8.365   5.263   8.572 -1.9853 -1.7213 -1.9994
  625MOL0     H82449   8.364   5.465   8.456  1.8411  1.1969  2.1582
  625MOL0     H82450   8.212   5.384   8.424  0.7637 -2.0929  0.1655
  625MOL0     H82451   8.219   5.566   8.669 -0.4314 -1.6257 -0.0261
  625MOL0     H82452   8.085   5.514   8.575  1.4524 -3.0422 -1.5065
  625MOL0     H82453   8.421   5.714   8.536  0.4621 -0.7773 -0.2996
  625MOL0     H82454   8.488   5.927   8.445 -0.5871  0.0315  2.1782
  625MOL0     H82455   8.356   6.047   8.400 -0.3950 -1.0416  0.8590
  625MOL0     H82456   8.369   5.930   8.173 -0.9737  0.1568  0.5248
  625MOL0     H82457   8.535   5.873   8.221  1.3644  1.3195  1.0144
  625MOL0     H82458   8.439   6.153   8.215 -3.1194 -0.0123 -4.5555
  625MOL0     H82459   8.607   6.095   8.253  0.2718  0.0218 -0.2647
  625MOL0     H82460   8.488   6.031   7.981  0.9048 -2.0974  0.6793
  625MOL0     H82461   8.658   6.040   8.031  1.1553  1.8712 -2.2087
  625MOL0     H82462   8.521   6.475   7.945 -0.1935 -0.0949 -0.3431
  625MOL0     H82463   8.443   6.548   7.712  0.1122  0.3642 -1.5432
  625MOL0     H82464   8.584   6.388   7.219 -0.1323  1.3742  1.9755
  625MOL0     H82465   8.559   6.496   7.007  1.1150 -2.3984  1.3855
  625MOL0     H82466   8.371   6.584   6.700 -3.4071 -1.4227  0.9764
  625MOL0     H82467   8.494   6.490   6.800 -0.0229  0.2701  1.1684
  625MOL0     H82468   8.596   6.697   6.746  1.6123  0.3009  0.7545
  625MOL0     H82469   8.547   6.705   6.912  1.7642 -1.0300 -0.9263
  625MOL0     H82470   8.329   6.823   6.832  0.4397 -1.2707  0.8470
  625MOL0     H82471   8.393   6.818   6.679 -2.1549  2.4611  1.1293
  625MOL0     H82472   8.526   6.964   6.910  1.2599 -3.5624 -0.1856
  625MOL0     H82473   8.571   6.985   6.742 -0.2306 -0.0507  0.4492
  625MOL0     H82474   8.404   7.163   6.837 -2.0629  1.3943 -0.6084
  625MOL0     H82475   8.291   7.026   6.832 -0.5809  1.2138 -1.4282
  625MOL0     H82476   8.271   7.182   6.654 -0.3960  0.8609 -0.6727
  625MOL0     H82477   8.317   7.021   6.589  1.2275 -0.6050  0.1662
  625MOL0     H82478   8.414   7.239   6.496 -2.2124  0.1360  0.3465
  625MOL0     H82479   8.549   7.220   6.618  1.3767 -0.3174 -2.9709
  625MOL0     H82480   8.479   7.011   6.419 -1.8983  1.3653 -1.9441
  625MOL0     H82481   8.608   7.013   6.540  0.3865 -1.3532 -1.5183
  625MOL0     H82482   8.134   6.509   7.070  0.4964  2.3081  0.9761
  625MOL0     H82483   8.172   6.374   7.293  0.2443  0.8275 -1.3391
  625MOL0     H82484   8.562   6.168   7.557 -0.5630  1.3398 -1.8191
  625MOL0     H82485   8.599   6.086   7.788 -1.0763  0.3018 -0.5775
  625MOL0     H82486   9.025   5.733   9.041  0.7718 -0.8418  2.4071
  625MOL0     H82487   9.275   5.735   9.022 -0.8541 -1.0186  0.3237
  625MOL0     H82488   9.616   5.387   8.895 -1.0625  1.5527 -4.0064
  625MOL0     H82489   9.856   5.314   8.926  0.3869  0.5498 -0.3651
  625MOL0     H82490  10.149   5.649   9.038 -2.7327 -0.6276  0.0503
  625MOL0     H82491  10.193   5.615   8.868 -1.4482  0.1282 -0.5471
  625MOL0     H82492  10.268   5.437   9.104  0.3430  2.2083  1.7485
  625MOL0     H82493  10.295   5.419   8.929 -0.7952 -1.3974  1.4738
  625MOL0     H82494  10.390   5.686   9.057  0.3135 -0.5589  0.9836
  625MOL0     H82495  10.452   5.596   8.925 -1.2426  2.8698 -0.3923
  625MOL0     H82496  10.502   5.421   9.132 -1.7498  0.4009 -0.7152
  625MOL0     H82497  10.598   5.580   9.117 -0.2248  1.2242 -0.9902
  625MOL0     H82498  10.314   5.597   9.459 -1.2793 -1.0153  0.6632
  625MOL0     H82499   9.965   5.722   8.976  0.1064 -0.4604  0.4597
  625MOL0     H82500   9.737   5.792   8.974 -2.5161  0.4494  1.7826
  626MOL0     O82501   4.204   4.538   0.099 -0.5270 -0.0976 -0.2134
  626MOL0     C82502   4.245   4.436   0.152  0.2610  0.2732 -0.0131
  626MOL0     O82503   4.169   4.368   0.239 -0.2912  0.4992 -0.7817
  626MOL0     C82504   4.085   4.445   0.317 -0.4046 -0.2753 -0.0726
  626MOL0     C82505   3.985   4.375   0.380 -0.5016  0.5901 -0.5446
  626MOL0     C82506   3.897   4.430   0.475 -0.9401 -0.5085  0.5784
  626MOL0     C82507   3.923   4.561   0.517  0.3463 -0.6452  0.4865
  626MOL0     O82508   3.842   4.630   0.611  0.4618  0.0953 -0.4309
  626MOL0     C82509   3.712   4.578   0.639  0.0108  0.2596  0.1378
  626MOL0     C82510   3.635   4.675   0.729  0.1931  0.3841  0.8313
  626MOL0     C82511   3.485   4.664   0.699  0.3303 -0.4368 -0.3976
  626MOL0     C82512   3.434   4.542   0.770  0.4994  0.0010  0.4996
  626MOL0     C82513   3.282   4.532   0.748  0.0676  0.3400 -0.0439
  626MOL0     C82514   3.236   4.392   0.781  1.3256 -0.3420  1.4871
  626MOL0     C82515   3.081   4.383   0.763  0.2497 -0.9006  0.4901
  626MOL0     C82516   3.043   4.368   0.620 -0.0776  0.2580  0.7037
  626MOL0     N82517   2.895   4.363   0.609 -0.2976  0.3155 -0.3176
  626MOL0     C82518   2.807   4.255   0.626 -1.0863  0.1413  0.1884
  626MOL0     C82519   2.685   4.296   0.592  0.0997 -0.0444  0.8853
  626MOL0     C82520   2.570   4.198   0.600 -0.5759  0.4024  0.3013
  626MOL0     C82521   2.435   4.256   0.562 -0.8636  0.0081 -0.4870
  626MOL0     C82522   2.324   4.150   0.587 -0.1554  0.7751 -0.5364
  626MOL0     C82523   2.180   4.195   0.561 -0.4693  0.2093  0.6442
  626MOL0     O82524   2.160   4.303   0.647  1.1836  0.5730 -0.1013
  626MOL0     C82525   2.035   4.324   0.705 -0.1031 -0.7472 -0.0959
  626MOL0     C82526   2.019   4.421   0.803  0.2086  0.1489  0.1915
  626MOL0     C82527   1.896   4.438   0.868  0.0281 -0.8135  0.2123
  626MOL0     C82528   1.782   4.363   0.832 -0.8919  0.6954 -0.3290
  626MOL0     C82529   1.650   4.390   0.888  0.3051  0.8885  0.7371
  626MOL0     O82530   1.571   4.281   0.906  0.0325 -0.0585 -0.1008
  626MOL0     C82531   1.448   4.302   0.961 -0.4875  0.8709  0.5524
  626MOL0     C82532   1.347   4.378   0.894 -0.8737  0.6923  0.5977
  626MOL0     C82533   1.217   4.382   0.942  0.0620  0.1982 -0.3426
  626MOL0     C82534   1.178   4.319   1.061 -0.3411  0.0655  0.5585
  626MOL0     O82535   1.046   4.316   1.098 -0.4647 -0.9190 -0.4871
  626MOL0     C82536   1.008   4.273   1.224 -0.8903 -0.4871  0.4814
  626MOL0     C82537   0.858   4.265   1.231  0.3221 -0.6832 -1.0935
  626MOL0     C82538   0.805   4.258   1.381  0.2520 -0.7752  1.2375
  626MOL0     C82539   0.658   4.274   1.378 -0.6299 -0.2268 -0.0700
  626MOL0     C82540   0.581   4.247   1.504 -0.1006 -0.1009 -0.2459
  626MOL0     C82541   0.626   4.355   1.606  0.1561 -0.4370  0.2644
  626MOL0     C82542   0.537   4.366   1.735 -0.6869  0.2360 -0.1855
  626MOL0     C82543   0.388   4.388   1.698 -0.1486 -0.0293 -0.3265
  626MOL0    Cl82544   0.292   4.445   1.842 -0.5937 -0.1342 -0.1152
  626MOL0     C82545   1.282   4.255   1.134  0.6103  1.0666  0.2049
  626MOL0     C82546   1.409   4.238   1.081 -0.2515  0.6843  0.0590
  626MOL0     O82547   1.618   4.512   0.903 -0.4786  0.4345  0.9749
  626MOL0     C82548   1.802   4.261   0.730 -0.3383 -0.5739 -0.4975
  626MOL0     C82549   1.921   4.243   0.661  0.0616 -0.8744 -0.4952
  626MOL0     N82550   2.696   4.425   0.554  0.0261  0.4860  0.4142
  626MOL0     N82551   2.815   4.463   0.568 -0.4543  0.3122  0.1443
  626MOL0     C82552   4.030   4.629   0.460  0.1750 -0.9316 -0.0769
  626MOL0     C82553   4.112   4.574   0.362  0.2266  0.0638  0.4869
  626MOL0     C82554   4.366   4.368   0.089  0.3780  0.5354  0.5108
  626MOL0     C82555   4.422   4.254   0.140  0.9551 -0.3071 -0.3951
  626MOL0     C82556   4.526   4.186   0.076 -0.5389 -0.8894 -0.9448
  626MOL0     C82557   4.592   4.228  -0.033  0.2759 -0.3864  0.4296
  626MOL0     O82558   4.680   4.139  -0.096  0.1421  0.7369 -0.0045
  626MOL0     C82559   4.712   4.173  -0.226 -0.0149 -0.2234  0.8362
  626MOL0     C82560   4.790   4.050  -0.278 -0.1519  0.1117  0.1846
  626MOL0     C82561   4.683   3.947  -0.333 -0.5432 -1.0367  0.5218
  626MOL0     C82562   4.743   3.854  -0.434 -1.1055  0.0275 -0.4757
  626MOL0     C82563   4.770   3.924  -0.559 -1.3882  1.0196  0.2565
  626MOL0     C82564   4.780   3.986  -0.663  0.5445  0.7454  0.2856
  626MOL0     C82565   4.546   4.359  -0.078 -0.2743  0.5905  0.1665
  626MOL0     C82566   4.436   4.429  -0.015 -0.1349  0.8619 -0.2717
  626MOL0     H82567   3.970   4.271   0.353  0.9834  0.0652  0.5044
  626MOL0     H82568   3.811   4.381   0.518 -1.1298  0.1772  1.0003
  626MOL0     H82569   3.723   4.477   0.680 -0.2689 -1.0395 -2.7242
  626MOL0     H82570   3.667   4.570   0.539  2.9581 -0.5287 -1.2135
  626MOL0     H82571   3.672   4.772   0.693  1.0213 -0.8927 -2.0134
  626MOL0     H82572   3.669   4.667   0.833 -0.3992  1.1759  1.0929
  626MOL0     H82573   3.473   4.658   0.591 -0.8506 -2.2283 -0.2080
  626MOL0     H82574   3.437   4.755   0.737 -0.7673 -2.5165  3.9063
  626MOL0     H82575   3.487   4.449   0.750 -1.4136 -1.6952  2.6692
  626MOL0     H82576   3.445   4.550   0.878 -0.8560 -0.5122  0.7031
  626MOL0     H82577   3.263   4.560   0.644 -0.5805 -0.0218 -0.0272
  626MOL0     H82578   3.234   4.611   0.806 -0.4450 -0.9726  1.4040
  626MOL0     H82579   3.265   4.355   0.880 -1.5495 -5.3163  0.8206
  626MOL0     H82580   3.285   4.318   0.716  1.8102 -0.1278  1.6066
  626MOL0     H82581   3.039   4.303   0.825  1.4805 -1.2531  0.8887
  626MOL0     H82582   3.026   4.473   0.791  0.9056 -0.4205  0.2323
  626MOL0     H82583   3.083   4.276   0.577  0.6503  1.4471 -1.3147
  626MOL0     H82584   3.082   4.450   0.558 -1.0184  1.6444  1.8760
  626MOL0     H82585   2.834   4.158   0.666 -4.7152 -0.5388  1.2992
  626MOL0     H82586   2.570   4.146   0.697  0.0675  0.8214  0.5329
  626MOL0     H82587   2.591   4.127   0.519 -0.5155 -0.8536  1.3742
  626MOL0     H82588   2.436   4.279   0.455  0.0548  1.6962 -0.1551
  626MOL0     H82589   2.410   4.345   0.620 -0.9201 -1.1199  1.3014
  626MOL0     H82590   2.343   4.062   0.524  0.6438 -0.1256  0.9004
  626MOL0     H82591   2.331   4.118   0.691  0.7702 -0.0027 -0.8109
  626MOL0     H82592   2.122   4.107   0.592  1.2677 -0.5322  1.9146
  626MOL0     H82593   2.159   4.223   0.457  0.8083  2.9236  1.0360
  626MOL0     H82594   2.106   4.479   0.831 -0.6911  2.4977 -1.5700
  626MOL0     H82595   1.883   4.520   0.939  0.5884 -2.5366  2.4170
  626MOL0     H82596   1.380   4.440   0.811 -0.5934  4.0213  2.9570
  626MOL0     H82597   1.138   4.439   0.893  0.6641  1.4133  0.0638
  626MOL0     H82598   1.048   4.336   1.303  4.2067 -2.7760  0.1110
  626MOL0     H82599   1.046   4.170   1.231  1.8429  0.5385  1.7714
  626MOL0     H82600   0.821   4.178   1.177  0.1346 -0.0451 -2.0253
  626MOL0     H82601   0.809   4.353   1.188  2.4069  0.9792 -0.2689
  626MOL0     H82602   0.866   4.334   1.432  1.3436  0.9295 -2.2576
  626MOL0     H82603   0.818   4.159   1.425 -1.3204 -1.0625  1.0781
  626MOL0     H82604   0.631   4.365   1.323  1.3021  0.5074  0.1223
  626MOL0     H82605   0.630   4.199   1.303 -1.4743  1.6402 -1.7351
  626MOL0     H82606   0.592   4.144   1.538 -2.3716 -0.4997 -0.5383
  626MOL0     H82607   0.477   4.268   1.475 -0.3699 -0.9265  0.0949
  626MOL0     H82608   0.625   4.452   1.556  3.1170  0.3373  1.4421
  626MOL0     H82609   0.732   4.332   1.626  0.8880  1.7091 -0.8119
  626MOL0     H82610   0.540   4.269   1.786  3.1688 -1.9255 -3.8544
  626MOL0     H82611   0.569   4.451   1.796  0.1533 -2.3840  3.3608
  626MOL0     H82612   0.347   4.300   1.646 -2.4109  0.5450  0.3761
  626MOL0     H82613   0.386   4.468   1.624  0.0670 -0.2183 -0.5369
  626MOL0     H82614   1.262   4.223   1.235 -1.6906  0.0726 -0.4987
  626MOL0     H82615   1.475   4.172   1.137 -2.5190 -2.4410 -0.7377
  626MOL0     H82616   1.713   4.205   0.704  0.3141 -2.3422  0.8603
  626MOL0     H82617   1.935   4.167   0.585  3.0850  0.5548 -1.5514
  626MOL0     H82618   4.047   4.730   0.497  0.0879 -1.4297  1.3841
  626MOL0     H82619   4.203   4.629   0.339 -0.5050  1.5673  1.0727
  626MOL0     H82620   4.390   4.206   0.232  3.5765 -0.3898  0.5645
  626MOL0     H82621   4.553   4.088   0.115  1.5380 -0.8168 -2.0254
  626MOL0     H82622   4.774   4.263  -0.242 -1.1292  0.3047 -0.7740
  626MOL0     H82623   4.617   4.177  -0.279  0.4514  1.2914  0.0376
  626MOL0     H82624   4.848   4.093  -0.360 -1.3287  0.6666 -0.3827
  626MOL0     H82625   4.852   4.004  -0.201  1.0765 -0.8869 -1.3411
  626MOL0     H82626   4.597   4.003  -0.373 -0.1397 -0.1407  0.8686
  626MOL0     H82627   4.635   3.888  -0.255 -1.5654 -1.0805 -0.1052
  626MOL0     H82628   4.837   3.819  -0.389 -1.3716  0.1108  0.1549
  626MOL0     H82629   4.673   3.771  -0.442 -1.2888  0.2165 -0.8493
  626MOL0     H82630   4.786   4.036  -0.757  1.2034  1.3035  0.6148
  626MOL0     H82631   4.610   4.405  -0.154 -0.9923  1.8980  0.3229
  626MOL0     H82632   4.390   4.524  -0.042 -0.9394  1.2906  2.2632
  627MOL0     O82633  10.728   7.234   4.217 -0.1234 -0.3592 -0.4275
  627MOL0     C82634  10.763   7.313   4.303  0.4850  1.1716  0.4755
  627MOL0     O82635  10.685   7.418   4.349 -0.0411 -0.5741 -0.7531
  627MOL0     C82636  10.572   7.457   4.281  0.7008  0.5681  0.3580
  627MOL0     C82637  10.469   7.368   4.245  1.1564  0.2459 -0.0408
  627MOL0     C82638  10.351   7.419   4.187  0.0623 -0.0767 -0.4333
  627MOL0     C82639  10.345   7.550   4.132  0.0157 -0.4542  0.7214
  627MOL0     O82640  10.235   7.597   4.066 -0.3657 -0.3650  0.4243
  627MOL0     C82641  10.115   7.607   4.139  0.3495  0.2611 -0.2248
  627MOL0     C82642  10.117   7.733   4.242 -0.7103 -0.9772 -0.3221
  627MOL0     C82643  10.095   7.864   4.169  0.0366  0.1663  0.5883
  627MOL0     C82644  10.089   7.983   4.257 -0.1039  0.1249 -0.1428
  627MOL0     C82645  10.093   8.121   4.187 -0.2899  0.3789 -1.6518
  627MOL0     C82646   9.971   8.128   4.090 -0.0567 -0.2590 -0.5080
  627MOL0     C82647   9.973   8.258   4.011 -0.3377 -0.0695  0.1069
  627MOL0     C82648   9.842   8.264   3.921 -0.1464  0.7335  0.0870
  627MOL0     N82649   9.709   8.257   3.991 -0.3598 -0.3566 -0.9384
  627MOL0     C82650   9.598   8.201   3.948 -0.1904  0.5727 -0.2921
  627MOL0     C82651   9.502   8.235   4.036 -0.1011  0.1288  0.2548
  627MOL0     C82652   9.360   8.193   4.033  0.9215 -0.1074 -0.5978
  627MOL0     C82653   9.338   8.045   4.008 -0.1075  0.2880  0.0388
  627MOL0     C82654   9.190   7.999   3.979 -0.5563 -0.4718  0.4854
  627MOL0     C82655   9.090   8.028   4.102 -0.0700  0.7172 -0.0897
  627MOL0     O82656   9.040   8.162   4.103  0.1809  0.3230  0.2043
  627MOL0     C82657   8.902   8.185   4.098  0.3696 -0.7908  0.0644
  627MOL0     C82658   8.865   8.309   4.137 -0.5279  0.0293  0.9691
  627MOL0     C82659   8.728   8.344   4.155  0.3590 -0.5129 -0.2944
  627MOL0     C82660   8.626   8.258   4.133  0.6515 -0.5288 -0.7067
  627MOL0     C82661   8.482   8.301   4.157  0.2006  0.1783  0.3492
  627MOL0     O82662   8.380   8.210   4.146  0.1487 -0.6832  0.0306
  627MOL0     C82663   8.254   8.240   4.198  0.1888 -0.2172 -0.7051
  627MOL0     C82664   8.171   8.332   4.128  0.5633 -0.2725 -0.0796
  627MOL0     C82665   8.047   8.364   4.177  0.5534  0.5981  0.1777
  627MOL0     C82666   7.993   8.299   4.286  0.5686 -0.2931 -0.5003
  627MOL0     O82667   7.870   8.352   4.329  0.6241 -0.4584 -0.1746
  627MOL0     C82668   7.767   8.313   4.248  0.6980 -0.1533  0.4340
  627MOL0     C82669   7.635   8.307   4.319 -0.5776 -0.6877  0.0590
  627MOL0     C82670   7.582   8.438   4.377  0.3774 -0.2150  0.0354
  627MOL0     C82671   7.556   8.548   4.266  0.7153  0.5013  0.4097
  627MOL0     C82672   7.500   8.684   4.330 -0.0734  0.1071  0.0125
  627MOL0     C82673   7.354   8.677   4.376 -0.5139  0.1536  0.2438
  627MOL0     C82674   7.306   8.805   4.426  0.3228 -0.2578  0.7502
  627MOL0     C82675   7.153   8.826   4.417  0.2059 -0.0821 -0.1657
  627MOL0    Cl82676   7.086   8.714   4.538 -0.0937  0.2543  0.3178
  627MOL0     C82677   8.070   8.215   4.361 -0.0276 -0.3265  0.6002
  627MOL0     C82678   8.202   8.189   4.316 -0.5790  0.0969 -0.3414
  627MOL0     O82679   8.461   8.418   4.191 -0.3795  0.1824  0.3730
  627MOL0     C82680   8.661   8.133   4.097  0.4840  0.3627  0.0409
  627MOL0     C82681   8.795   8.092   4.083 -0.1339 -0.0188  0.8772
  627MOL0     N82682   9.564   8.309   4.144 -0.2629 -0.4896  0.2097
  627MOL0     N82683   9.691   8.320   4.111  0.4167 -0.4145  0.6509
  627MOL0     C82684  10.460   7.627   4.147  0.0249  0.0601 -0.4839
  627MOL0     C82685  10.564   7.584   4.228  0.3493 -0.1644 -0.2087
  627MOL0     C82686  10.894   7.273   4.363 -0.4521  0.4635 -0.2108
  627MOL0     C82687  10.949   7.346   4.474  0.2262 -0.3300 -0.0418
  627MOL0     C82688  11.062   7.305   4.551 -0.4897  0.2526  0.6922
  627MOL0     C82689  11.141   7.197   4.505  0.8320  1.1627  0.0926
  627MOL0     O82690  11.241   7.157   4.585 -0.1996 -0.6039  0.0800
  627MOL0     C82691  11.309   7.040   4.543 -0.7646  0.1195 -0.1923
  627MOL0     C82692  11.410   6.995   4.653 -0.6429 -0.0832 -0.5322
  627MOL0     C82693  11.502   6.881   4.598  0.6542 -0.5003  0.2760
  627MOL0     C82694  11.623   6.857   4.686  0.3987 -0.4005  0.4133
  627MOL0     C82695  11.577   6.836   4.825 -0.2470  1.3056 -1.1392
  627MOL0     C82696  11.517   6.783   4.920  0.7984  0.0300 -0.0105
  627MOL0     C82697  11.096   7.129   4.383 -0.4142 -0.5986 -0.4154
  627MOL0     C82698  10.972   7.158   4.325 -0.0926 -0.1352  0.7109
  627MOL0     H82699  10.467   7.264   4.274  4.7187  0.4924  1.6518
  627MOL0     H82700  10.265   7.355   4.169  1.9695 -2.6326 -0.9921
  627MOL0     H82701  10.088   7.515   4.191  0.4143  1.4586  2.0479
  627MOL0     H82702  10.028   7.623   4.075  0.2505  0.0824 -0.1354
  627MOL0     H82703  10.210   7.739   4.299 -0.2076 -1.6796 -1.0470
  627MOL0     H82704  10.039   7.711   4.316 -0.1607  0.0478  0.5901
  627MOL0     H82705   9.995   7.853   4.126  0.3068  1.8850 -0.5668
  627MOL0     H82706  10.174   7.869   4.094  0.9176  1.4764  1.5645
  627MOL0     H82707   9.992   7.992   4.307 -1.4704  2.1840 -2.8811
  627MOL0     H82708  10.177   7.976   4.322  0.9480 -1.5163 -1.6737
  627MOL0     H82709  10.185   8.142   4.131  2.0321 -2.0109  0.8896
  627MOL0     H82710  10.093   8.201   4.263  0.3729 -0.2866 -0.9248
  627MOL0     H82711   9.874   8.115   4.140  0.3892 -0.8530  0.2365
  627MOL0     H82712   9.975   8.040   4.025 -1.2202 -1.6535  1.1992
  627MOL0     H82713   9.973   8.344   4.079 -1.0069  0.9195 -1.1117
  627MOL0     H82714  10.064   8.268   3.951  1.2696 -0.1203  2.3878
  627MOL0     H82715   9.849   8.181   3.849 -1.3323  0.4909  0.2292
  627MOL0     H82716   9.834   8.359   3.867 -2.5700  2.9626  3.9436
  627MOL0     H82717   9.587   8.131   3.865  3.0730 -0.5486  0.0507
  627MOL0     H82718   9.309   8.243   3.950  0.5310  0.5442  0.0209
  627MOL0     H82719   9.312   8.222   4.127  1.4455  1.3541 -0.7464
  627MOL0     H82720   9.370   7.993   4.099 -3.7809 -1.1736  0.6623
  627MOL0     H82721   9.404   8.002   3.932 -0.4446  0.9263 -0.6249
  627MOL0     H82722   9.156   8.045   3.886 -0.5681  0.5457  0.9877
  627MOL0     H82723   9.198   7.892   3.959  2.3484  0.0655 -1.8226
  627MOL0     H82724   9.131   8.004   4.201  0.4560 -0.9681 -0.6913
  627MOL0     H82725   9.010   7.954   4.093  0.8514 -0.4191  0.7795
  627MOL0     H82726   8.945   8.378   4.163  1.1801 -1.1086 -0.9451
  627MOL0     H82727   8.703   8.444   4.188 -1.6122 -0.2449 -2.3631
  627MOL0     H82728   8.202   8.384   4.038 -3.9014  0.3730 -1.5078
  627MOL0     H82729   7.995   8.447   4.131 -1.6161  1.1458  3.3155
  627MOL0     H82730   7.788   8.214   4.206  2.7149  0.2268  0.4909
  627MOL0     H82731   7.751   8.395   4.177  3.6692  2.5174  2.5976
  627MOL0     H82732   7.643   8.230   4.396  0.1232 -2.0191 -1.2872
  627MOL0     H82733   7.567   8.275   4.239  1.2553  1.6358 -2.6497
  627MOL0     H82734   7.632   8.481   4.464 -0.8564  0.3917  0.4800
  627MOL0     H82735   7.485   8.409   4.419  0.2033 -0.2510 -0.3835
  627MOL0     H82736   7.647   8.575   4.212  0.2862  0.6692 -0.2453
  627MOL0     H82737   7.485   8.517   4.189  2.4826  0.7395 -1.3829
  627MOL0     H82738   7.514   8.771   4.265  2.8018  2.1707  3.0293
  627MOL0     H82739   7.566   8.700   4.417  2.2099 -1.5857 -1.2962
  627MOL0     H82740   7.345   8.593   4.446 -1.2532 -0.1567 -0.2004
  627MOL0     H82741   7.298   8.655   4.284 -0.6036  1.7231 -0.1076
  627MOL0     H82742   7.330   8.817   4.532  0.8286 -1.3293  0.7676
  627MOL0     H82743   7.350   8.885   4.366 -1.0140  0.8199  1.1301
  627MOL0     H82744   7.110   8.805   4.319  0.5789 -3.0439  0.2182
  627MOL0     H82745   7.129   8.928   4.451 -1.8362  0.7852 -3.6345
  627MOL0     H82746   8.027   8.175   4.452 -0.0103 -0.5478  0.5105
  627MOL0     H82747   8.279   8.136   4.372 -2.1317 -2.6931 -0.6570
  627MOL0     H82748   8.579   8.072   4.058  0.5427  2.1953 -3.3362
  627MOL0     H82749   8.814   7.991   4.048 -0.7066  0.7176 -1.7995
  627MOL0     H82750  10.458   7.723   4.097 -0.5819  0.6761  0.6955
  627MOL0     H82751  10.646   7.652   4.247 -0.1181  0.3351  0.0619
  627MOL0     H82752  10.898   7.437   4.504  0.7888  0.3313 -1.0235
  627MOL0     H82753  11.090   7.352   4.645  0.3248  0.2575  0.4604
  627MOL0     H82754  11.370   7.063   4.455  1.6097  0.2315  1.3750
  627MOL0     H82755  11.239   6.960   4.518 -1.1208  0.1489  0.6891
  627MOL0     H82756  11.470   7.084   4.673 -1.5906  0.5444 -0.3991
  627MOL0     H82757  11.368   6.975   4.752 -1.5742 -0.2636 -0.9498
  627MOL0     H82758  11.537   6.907   4.498 -3.5063 -0.9370 -1.5077
  627MOL0     H82759  11.438   6.791   4.599 -4.0560  2.4974  1.2729
  627MOL0     H82760  11.683   6.771   4.655  2.1168  1.3780 -1.5266
  627MOL0     H82761  11.679   6.951   4.682 -0.3782  0.0624  0.1869
  627MOL0     H82762  11.455   6.747   4.999 -1.9036 -1.1724 -2.5158
  627MOL0     H82763  11.151   7.042   4.347  0.6094  0.3934 -1.2981
  627MOL0     H82764  10.927   7.108   4.240  1.3762  0.7668 -0.6558
  628MOL0     O82765  10.659   6.487   4.936  0.5892 -0.7196  0.0915
  628MOL0     C82766  10.684   6.405   5.017 -0.6700  0.2392 -0.6171
  628MOL0     O82767  10.607   6.358   5.116  0.1657  0.0614 -0.3109
  628MOL0     C82768  10.470   6.388   5.113  0.1773 -0.8963  0.6710
  628MOL0     C82769  10.392   6.412   5.228  0.5626 -0.6969 -0.2636
  628MOL0     C82770  10.254   6.428   5.229  0.2204  0.3240  0.4586
  628MOL0     C82771  10.180   6.428   5.110  0.1708 -0.5639 -0.4388
  628MOL0     O82772  10.057   6.483   5.110  0.0016 -0.0709 -1.1169
  628MOL0     C82773   9.966   6.463   4.999 -0.0858  0.3461 -0.0679
  628MOL0     C82774   9.816   6.475   5.044 -0.6688  0.8752  0.0629
  628MOL0     C82775   9.777   6.621   5.084  0.3412  0.0017 -0.1935
  628MOL0     C82776   9.634   6.649   5.130 -0.3325  0.7343  0.0890
  628MOL0     C82777   9.607   6.790   5.156 -0.6740  0.6388  0.3950
  628MOL0     C82778   9.673   6.840   5.279  0.2701 -0.1606  0.3955
  628MOL0     C82779   9.642   6.984   5.309  0.2682 -0.0176 -0.3331
  628MOL0     C82780   9.741   7.038   5.417 -0.4260 -0.2857 -0.5811
  628MOL0     N82781   9.687   7.167   5.481 -0.2002  0.8001 -0.9584
  628MOL0     C82782   9.648   7.261   5.392  0.6876 -0.4886  0.0862
  628MOL0     C82783   9.580   7.353   5.478 -0.6464  0.3174  0.3278
  628MOL0     C82784   9.511   7.478   5.437  0.1648  0.0074  0.1358
  628MOL0     C82785   9.370   7.479   5.493 -0.4680  0.4759  0.0589
  628MOL0     C82786   9.316   7.622   5.483  0.7244 -0.4860 -0.6708
  628MOL0     C82787   9.164   7.621   5.503  0.5287  0.7954 -0.9893
  628MOL0     O82788   9.143   7.605   5.650  0.0959  0.0593  0.4525
  628MOL0     C82789   9.021   7.628   5.706  0.0115 -0.7459 -0.1755
  628MOL0     C82790   8.993   7.586   5.834 -0.0291 -0.2527  0.8222
  628MOL0     C82791   8.872   7.618   5.893 -0.0662  0.8443  0.4892
  628MOL0     C82792   8.773   7.692   5.820 -1.0876  0.9252  0.4760
  628MOL0     C82793   8.633   7.718   5.868 -0.0308 -0.2200  0.2161
  628MOL0     O82794   8.576   7.841   5.838 -0.1777 -0.5611  0.5701
  628MOL0     C82795   8.458   7.870   5.886  0.9836  1.3323 -0.2214
  628MOL0     C82796   8.346   7.814   5.824  0.3752 -0.2079  0.5933
  628MOL0     C82797   8.218   7.827   5.881  0.0974  0.0871  0.5163
  628MOL0     C82798   8.203   7.895   6.000  0.5104  0.5173 -0.2924
  628MOL0     O82799   8.074   7.897   6.055 -0.1900 -0.1353 -0.0439
  628MOL0     C82800   8.061   7.927   6.194 -0.1646  0.1195  0.8007
  628MOL0     C82801   7.919   7.899   6.239  0.1173  0.0815 -0.5212
  628MOL0     C82802   7.893   7.964   6.373 -1.1361  0.3371  1.0564
  628MOL0     C82803   7.747   7.969   6.427  0.1439 -0.3933  0.5339
  628MOL0     C82804   7.705   7.828   6.476 -0.2418  0.1834 -0.7700
  628MOL0     C82805   7.553   7.815   6.459  0.1000  0.4793 -0.1251
  628MOL0     C82806   7.511   7.679   6.517 -0.6026  0.3749  0.1921
  628MOL0     C82807   7.370   7.663   6.493 -0.4935  0.1445  0.1604
  628MOL0    Cl82808   7.328   7.499   6.522 -0.2587 -0.0901 -0.2563
  628MOL0     C82809   8.314   7.951   6.062 -0.3336 -0.3824  0.6046
  628MOL0     C82810   8.442   7.929   6.013  0.0627 -0.0223  0.0766
  628MOL0     O82811   8.583   7.639   5.947 -0.0299  0.3850  0.5864
  628MOL0     C82812   8.804   7.747   5.695 -0.1213  0.3965 -0.6820
  628MOL0     C82813   8.932   7.722   5.640  0.2152 -0.3676  0.0078
  628MOL0     N82814   9.554   7.295   5.607 -0.0129  0.9614  0.0882
  628MOL0     N82815   9.623   7.186   5.605 -0.4459 -0.4497  0.6898
  628MOL0     C82816  10.253   6.388   4.994 -0.1994 -0.0228  0.9012
  628MOL0     C82817  10.391   6.364   4.997 -0.2489 -0.1879 -0.8212
  628MOL0     C82818  10.826   6.362   5.020 -0.2796 -0.7192 -0.1392
  628MOL0     C82819  10.915   6.458   4.990  0.0487 -0.5109 -0.2386
  628MOL0     C82820  11.050   6.425   4.986 -0.0358  0.4597  0.9186
  628MOL0     C82821  11.098   6.295   5.009  0.2435 -1.1421 -0.6325
  628MOL0     O82822  11.228   6.251   5.009  0.0843  0.1094  0.1915
  628MOL0     C82823  11.326   6.354   5.001 -0.3025 -0.6515 -0.0249
  628MOL0     C82824  11.468   6.294   5.003  0.3984  0.2750  0.4394
  628MOL0     C82825  11.557   6.414   4.998 -0.1942  0.8048  0.1434
  628MOL0     C82826  11.706   6.392   4.962  0.4296 -0.6583  0.4727
  628MOL0     C82827  11.757   6.312   5.065  0.0582  0.6931  0.0570
  628MOL0     C82828  11.790   6.239   5.154  0.3747 -0.2775 -0.4267
  628MOL0     C82829  11.003   6.200   5.030 -0.3264 -0.2328 -0.3049
  628MOL0     C82830  10.870   6.229   5.026  0.7159  0.0917  0.2603
  628MOL0     H82831  10.448   6.419   5.321  1.4460 -0.6135 -0.7995
  628MOL0     H82832  10.206   6.442   5.325 -1.6661  1.5822 -0.6011
  628MOL0     H82833   9.979   6.361   4.962  0.6811 -1.3673  4.4080
  628MOL0     H82834   9.983   6.535   4.918 -0.1729  0.6994  0.2255
  628MOL0     H82835   9.803   6.404   5.125  0.1984  0.0832 -0.4670
  628MOL0     H82836   9.757   6.458   4.953  2.5513 -1.3158 -1.8323
  628MOL0     H82837   9.788   6.680   4.993  2.4979 -0.2887 -0.1611
  628MOL0     H82838   9.847   6.664   5.157 -0.6892  1.2451  0.1073
  628MOL0     H82839   9.563   6.623   5.052 -0.4662  1.5396 -0.0619
  628MOL0     H82840   9.609   6.589   5.218 -0.5169  0.4339 -0.1682
  628MOL0     H82841   9.501   6.815   5.165 -0.8868  1.0536 -2.3589
  628MOL0     H82842   9.633   6.855   5.072  0.1496  0.5606  0.5772
  628MOL0     H82843   9.781   6.830   5.262  0.7710  0.6072  2.7043
  628MOL0     H82844   9.637   6.779   5.363 -1.1136 -0.9138 -0.7180
  628MOL0     H82845   9.648   7.034   5.212 -2.2570 -0.2775 -0.6863
  628MOL0     H82846   9.540   6.999   5.345  0.2549 -0.4285 -0.1946
  628MOL0     H82847   9.843   7.043   5.377  0.5817 -1.1657  1.6923
  628MOL0     H82848   9.751   6.965   5.498  4.2033 -0.5939 -1.1682
  628MOL0     H82849   9.656   7.284   5.286  1.6934  0.4129  0.3311
  628MOL0     H82850   9.515   7.506   5.332  1.4734 -0.6760 -0.0186
  628MOL0     H82851   9.576   7.559   5.473  1.6215 -0.3280 -1.6235
  628MOL0     H82852   9.369   7.446   5.598  0.6461 -0.3370 -0.1701
  628MOL0     H82853   9.308   7.407   5.438  0.5142 -2.4399  2.4648
  628MOL0     H82854   9.356   7.692   5.556 -0.9819 -0.0200 -0.1272
  628MOL0     H82855   9.340   7.664   5.384 -3.1140  0.3258 -1.4267
  628MOL0     H82856   9.117   7.533   5.458 -0.1690  1.3772 -1.4000
  628MOL0     H82857   9.131   7.716   5.461  1.4572  1.0312 -1.2129
  628MOL0     H82858   9.075   7.550   5.895 -0.8989 -0.6589  1.7822
  628MOL0     H82859   8.837   7.580   5.988  0.6081  0.2561  0.5106
  628MOL0     H82860   8.363   7.753   5.736 -0.3344 -2.3406  1.8363
  628MOL0     H82861   8.137   7.764   5.846  1.6471 -1.1823 -0.9203
  628MOL0     H82862   8.080   8.035   6.196  0.7159  0.0206 -0.8231
  628MOL0     H82863   8.126   7.872   6.263  0.9317 -0.3352 -0.5570
  628MOL0     H82864   7.918   7.789   6.238  3.5347 -0.1223  1.2323
  628MOL0     H82865   7.839   7.924   6.170 -0.0777 -3.8132 -1.9680
  628MOL0     H82866   7.928   8.068   6.363 -1.2407  0.3891  1.2372
  628MOL0     H82867   7.948   7.910   6.451 -0.9347 -1.8750 -0.5334
  628MOL0     H82868   7.729   8.047   6.501 -0.5323  2.4880 -2.4527
  628MOL0     H82869   7.680   7.989   6.343  1.7374 -1.7616 -1.1520
  628MOL0     H82870   7.746   7.800   6.574  1.6706 -0.5374 -1.7309
  628MOL0     H82871   7.752   7.755   6.410  2.1075  0.8041  0.1330
  628MOL0     H82872   7.517   7.835   6.357  1.4697  3.9187 -0.0440
  628MOL0     H82873   7.499   7.893   6.513 -1.4613  2.6377 -4.3693
  628MOL0     H82874   7.571   7.596   6.478 -0.1479  1.6670 -2.0464
  628MOL0     H82875   7.524   7.684   6.626  0.3670  2.1050  0.0490
  628MOL0     H82876   7.348   7.675   6.387  0.3508 -1.2487 -0.1898
  628MOL0     H82877   7.318   7.743   6.548  0.3694  0.2785  0.7975
  628MOL0     H82878   8.298   8.013   6.151 -0.1384  0.2506  0.2084
  628MOL0     H82879   8.524   7.968   6.072  1.0721 -1.1680 -0.5412
  628MOL0     H82880   8.730   7.809   5.646 -0.4916  0.6885  0.2248
  628MOL0     H82881   8.975   7.776   5.556 -0.3703 -1.5196 -1.0505
  628MOL0     H82882  10.207   6.384   4.896  0.3392  0.6801  0.6152
  628MOL0     H82883  10.437   6.322   4.908 -0.4322  1.8671 -1.9577
  628MOL0     H82884  10.889   6.563   4.979 -0.9151 -0.9630 -3.7069
  628MOL0     H82885  11.115   6.509   4.962 -0.1233  0.2263 -0.1830
  628MOL0     H82886  11.309   6.425   5.083  2.1061 -1.4292  1.2264
  628MOL0     H82887  11.309   6.400   4.903  3.7935 -0.2131 -0.6864
  628MOL0     H82888  11.490   6.224   5.084 -0.8235  0.2093  0.7296
  628MOL0     H82889  11.479   6.234   4.911  3.7481 -0.7733  1.3671
  628MOL0     H82890  11.553   6.463   5.096  2.2251  1.5676 -0.0664
  628MOL0     H82891  11.526   6.491   4.928  1.4250  0.9678 -0.4462
  628MOL0     H82892  11.701   6.322   4.878 -3.5780 -1.3658  1.1194
  628MOL0     H82893  11.768   6.480   4.945 -0.1045 -0.2093  0.8251
  628MOL0     H82894  11.811   6.194   5.250 -1.2592  0.8744  0.5224
  628MOL0     H82895  11.034   6.103   5.068 -1.1471 -2.6525 -5.0265
  628MOL0     H82896  10.791   6.154   5.031  0.4797  0.2994 -0.2587
  629MOL0     O82897   8.206   1.062   1.441  0.5008  0.3303 -0.2333
  629MOL0     C82898   8.235   1.083   1.324 -0.3097 -0.2410 -0.8261
  629MOL0     O82899   8.149   1.113   1.233 -0.5385  0.2663 -0.3064
  629MOL0     C82900   8.023   1.115   1.262  0.6885  0.2182 -1.0483
  629MOL0     C82901   7.961   0.992   1.299  0.2953 -0.1710  0.6314
  629MOL0     C82902   7.820   0.991   1.329  1.0976  0.5330 -0.6848
  629MOL0     C82903   7.743   1.096   1.333  0.3484 -0.2240 -0.1215
  629MOL0     O82904   7.611   1.074   1.370 -0.3214 -0.1737 -0.6792
  629MOL0     C82905   7.525   1.181   1.397 -0.8054  0.0439  0.8842
  629MOL0     C82906   7.378   1.136   1.427 -0.2730 -0.2435  0.6203
  629MOL0     C82907   7.282   1.248   1.400  0.6365  0.3720 -0.7254
  629MOL0     C82908   7.152   1.207   1.471  0.5106 -0.2174 -1.4025
  629MOL0     C82909   7.049   1.329   1.475 -0.0252  0.0096  0.5255
  629MOL0     C82910   6.907   1.293   1.522  0.4817  0.1334 -0.7075
  629MOL0     C82911   6.794   1.395   1.510  0.2277  0.3092  0.5331
  629MOL0     C82912   6.807   1.460   1.368  0.2123  0.3526 -0.3436
  629MOL0     N82913   6.685   1.541   1.348  0.0160  0.2232  0.9804
  629MOL0     C82914   6.598   1.524   1.245 -0.4498  0.3889 -0.6432
  629MOL0     C82915   6.524   1.638   1.244  0.2156 -0.5639  0.0731
  629MOL0     C82916   6.409   1.667   1.141 -0.0083  0.1384  0.0059
  629MOL0     C82917   6.264   1.645   1.182 -0.3523  0.9907 -0.7554
  629MOL0     C82918   6.167   1.679   1.064 -0.4024  0.8195  0.3417
  629MOL0     C82919   6.032   1.615   1.095 -0.0121 -0.2600  0.3167
  629MOL0     O82920   5.993   1.616   1.230  0.0895 -0.1415  0.3478
  629MOL0     C82921   5.860   1.586   1.258  0.4772  0.7874 -0.1808
  629MOL0     C82922   5.824   1.600   1.391 -0.1597  0.4751 -0.6190
  629MOL0     C82923   5.695   1.580   1.431  0.8482  0.2003 -0.3059
  629MOL0     C82924   5.606   1.517   1.351  0.3264 -0.0735 -0.6959
  629MOL0     C82925   5.475   1.476   1.409 -0.0246  0.1689 -0.8645
  629MOL0     O82926   5.383   1.415   1.317 -0.4271 -0.5313 -0.1019
  629MOL0     C82927   5.253   1.380   1.351 -0.4276  0.6601  0.9744
  629MOL0     C82928   5.135   1.410   1.280  0.5317 -0.6685 -0.2540
  629MOL0     C82929   5.012   1.358   1.329 -0.2370 -0.2705 -0.3180
  629MOL0     C82930   5.005   1.291   1.446  0.4182  0.6324  0.6452
  629MOL0     O82931   4.880   1.245   1.489 -0.7928  0.4310  0.2058
  629MOL0     C82932   4.845   1.276   1.624 -0.6604  0.5446  0.0410
  629MOL0     C82933   4.758   1.171   1.693 -0.0370  1.4436  0.8055
  629MOL0     C82934   4.626   1.159   1.626  0.1126  1.0091 -0.0283
  629MOL0     C82935   4.538   1.064   1.707  0.1004 -0.4283  0.0824
  629MOL0     C82936   4.413   1.057   1.626 -0.4247  0.4366  0.1132
  629MOL0     C82937   4.306   0.974   1.699 -0.2465 -0.1405 -0.7326
  629MOL0     C82938   4.175   0.966   1.620  0.2211 -0.1368  1.3162
  629MOL0     C82939   4.077   0.861   1.673 -0.0689  0.1204  0.2071
  629MOL0    Cl82940   3.919   0.846   1.586 -0.3406  0.3533  0.3510
  629MOL0     C82941   5.121   1.254   1.513 -0.1832  0.9884  0.7705
  629MOL0     C82942   5.249   1.291   1.464  0.4237 -0.4630  0.5936
  629MOL0     O82943   5.447   1.494   1.527  0.0299  0.6294 -0.1971
  629MOL0     C82944   5.638   1.504   1.220 -0.0538  0.1541  0.3978
  629MOL0     C82945   5.759   1.547   1.171  0.0058  0.0553 -0.4249
  629MOL0     N82946   6.579   1.718   1.342 -0.2221 -0.4878  0.0250
  629MOL0     N82947   6.671   1.660   1.407 -0.3339 -0.4320  0.6436
  629MOL0     C82948   7.796   1.220   1.285  0.1245  0.2631  0.2101
  629MOL0     C82949   7.935   1.231   1.252  0.1091  0.1455  0.3464
  629MOL0     C82950   8.382   1.089   1.284 -0.4050  0.6651  0.8094
  629MOL0     C82951   8.419   1.089   1.150 -0.0836  0.9776  0.9569
  629MOL0     C82952   8.554   1.103   1.110  0.0639 -1.1032 -0.8556
  629MOL0     C82953   8.655   1.112   1.201  0.1960 -0.2742 -0.6424
  629MOL0     O82954   8.786   1.118   1.153  0.7289 -0.8910 -0.2430
  629MOL0     C82955   8.887   1.165   1.251  0.4393  0.0644 -0.1922
  629MOL0     C82956   9.012   1.177   1.170  0.4554  0.1052 -0.1514
  629MOL0     C82957   9.134   1.177   1.252 -0.3993 -0.2042 -0.1064
  629MOL0     C82958   9.175   1.067   1.354  0.0880 -0.7649 -0.0954
  629MOL0     C82959   9.144   0.930   1.301  0.0886  0.0013 -0.1676
  629MOL0     C82960   9.116   0.816   1.273 -0.1453  0.9174 -0.7174
  629MOL0     C82961   8.618   1.106   1.342  0.4902 -0.5525  0.0391
  629MOL0     C82962   8.487   1.089   1.383 -0.0242 -0.5835 -0.1913
  629MOL0     H82963   8.018   0.901   1.314 -0.5661 -0.6094  1.3269
  629MOL0     H82964   7.775   0.893   1.343 -3.1657  2.5429  1.9357
  629MOL0     H82965   7.518   1.243   1.306 -0.4965 -2.0910 -0.6749
  629MOL0     H82966   7.554   1.240   1.484  2.0866 -1.1880  0.8567
  629MOL0     H82967   7.374   1.112   1.534  0.6691  0.3925  0.8074
  629MOL0     H82968   7.356   1.054   1.357  1.7024 -0.1266 -0.1947
  629MOL0     H82969   7.271   1.272   1.294  1.6306  1.2378 -0.6445
  629MOL0     H82970   7.325   1.329   1.460  1.2204 -0.6386  0.2767
  629MOL0     H82971   7.110   1.111   1.438  0.4058 -1.4057  1.8415
  629MOL0     H82972   7.167   1.188   1.577 -2.0479  1.8101 -0.5534
  629MOL0     H82973   7.042   1.347   1.367  1.1369 -2.9474 -0.1373
  629MOL0     H82974   7.081   1.417   1.533 -0.5595 -0.1896  1.1371
  629MOL0     H82975   6.921   1.266   1.628  2.8552 -0.2888 -1.0587
  629MOL0     H82976   6.880   1.196   1.478  0.5855 -0.5742  0.7030
  629MOL0     H82977   6.697   1.351   1.535  0.5198  0.3499  1.8143
  629MOL0     H82978   6.809   1.481   1.575  3.2814  0.0136  0.3406
  629MOL0     H82979   6.814   1.385   1.289 -3.0764 -0.1885 -0.2601
  629MOL0     H82980   6.889   1.532   1.377  1.7679 -1.4362  0.6105
  629MOL0     H82981   6.590   1.439   1.178  3.7631 -1.5972  1.0199
  629MOL0     H82982   6.444   1.612   1.053 -1.0070 -1.8076  0.7621
  629MOL0     H82983   6.399   1.772   1.113 -0.5224  0.1107  0.0724
  629MOL0     H82984   6.243   1.706   1.270 -0.6331 -0.4683  0.2188
  629MOL0     H82985   6.244   1.544   1.217 -2.0329  0.6220 -2.5944
  629MOL0     H82986   6.159   1.786   1.045 -2.8533  0.8210  1.0131
  629MOL0     H82987   6.198   1.624   0.975  1.7319  1.7712  0.4559
  629MOL0     H82988   6.025   1.518   1.045 -2.5890  0.2828 -0.5574
  629MOL0     H82989   5.962   1.676   1.036 -0.7040  0.2638  1.6483
  629MOL0     H82990   5.896   1.633   1.465 -0.7571  1.0241 -0.2776
  629MOL0     H82991   5.676   1.599   1.536  0.4311 -0.4423 -0.2586
  629MOL0     H82992   5.137   1.463   1.185  0.9634 -0.8904 -0.3708
  629MOL0     H82993   4.915   1.383   1.288 -0.3669 -1.6820 -0.9049
  629MOL0     H82994   4.783   1.366   1.634  0.4453  1.3278  0.1082
  629MOL0     H82995   4.936   1.286   1.685 -1.3094  0.8360  0.9851
  629MOL0     H82996   4.740   1.182   1.800 -0.1438 -1.7933  1.2358
  629MOL0     H82997   4.823   1.084   1.704  1.4144  2.7147  3.0142
  629MOL0     H82998   4.635   1.113   1.527 -3.0572  0.3397 -0.1223
  629MOL0     H82999   4.579   1.256   1.612 -2.9577 -0.0763  1.6778
  629MOL0     H83000   4.576   0.962   1.715  0.4686 -0.1576  2.3619
  629MOL0     H83001   4.531   1.111   1.805  0.5347  1.5880 -0.8163
  629MOL0     H83002   4.421   1.045   1.518 -1.0295  2.7772 -0.2502
  629MOL0     H83003   4.371   1.157   1.639  0.0839  0.7942 -0.8305
  629MOL0     H83004   4.273   1.028   1.787 -0.6605 -0.6758 -0.5574
  629MOL0     H83005   4.347   0.877   1.731  1.3964  0.0075 -2.2156
  629MOL0     H83006   4.136   1.068   1.628  1.2534  0.6145 -1.9760
  629MOL0     H83007   4.194   0.944   1.515 -1.2514  0.6880  0.8501
  629MOL0     H83008   4.047   0.869   1.778 -2.4439 -2.4661 -0.1412
  629MOL0     H83009   4.117   0.759   1.664 -1.1784 -0.5962  2.4519
  629MOL0     H83010   5.124   1.200   1.607 -0.2747 -2.7141 -1.1540
  629MOL0     H83011   5.337   1.252   1.513  0.6353 -2.9845 -1.6418
  629MOL0     H83012   5.563   1.460   1.154 -0.6830 -0.4577  1.4951
  629MOL0     H83013   5.773   1.532   1.064  0.4747 -0.6478 -0.2723
  629MOL0     H83014   7.725   1.301   1.279 -1.6163 -1.1813  0.4669
  629MOL0     H83015   7.967   1.329   1.219  1.8219 -1.0125 -1.6980
  629MOL0     H83016   8.342   1.073   1.075 -0.4589 -0.0788  1.5336
  629MOL0     H83017   8.578   1.118   1.006  0.1297 -1.0437 -0.8321
  629MOL0     H83018   8.896   1.096   1.335 -0.8833  0.1959  0.0784
  629MOL0     H83019   8.861   1.266   1.282 -0.3189  0.3159 -1.5638
  629MOL0     H83020   9.024   1.095   1.098 -2.4734  0.4128 -1.1653
  629MOL0     H83021   9.004   1.264   1.103 -0.0603 -0.7142 -1.1900
  629MOL0     H83022   9.143   1.275   1.298 -1.7750  0.3238 -0.8962
  629MOL0     H83023   9.209   1.184   1.173  0.1599 -1.3678  0.2960
  629MOL0     H83024   9.282   1.081   1.374 -0.2169 -0.1173  1.2100
  629MOL0     H83025   9.133   1.074   1.455  3.4005 -1.4288  1.4868
  629MOL0     H83026   9.088   0.715   1.253 -1.4230  0.3391  3.2561
  629MOL0     H83027   8.691   1.114   1.422  0.6924 -2.1063  0.0282
  629MOL0     H83028   8.464   1.066   1.486  1.8171 -1.9764 -0.0428
  630MOL0     O83029  10.331   9.246   0.138  0.5201  0.0590 -0.1115
  630MOL0     C83030  10.435   9.309   0.156 -0.3460 -0.3082  0.3949
  630MOL0     O83031  10.443   9.436   0.189  0.4849 -0.3870 -0.2609
  630MOL0     C83032  10.323   9.502   0.205  0.0468 -0.0018 -0.7984
  630MOL0     C83033  10.290   9.600   0.108  0.3046  0.2660 -0.8915
  630MOL0     C83034  10.159   9.654   0.103  0.0830 -0.2789  0.8193
  630MOL0     C83035  10.062   9.630   0.197  0.0903  0.4648  0.0500
  630MOL0     O83036   9.943   9.696   0.188  0.4087  0.3148 -0.7880
  630MOL0     C83037   9.830   9.638   0.256  0.1971  0.1666  0.5846
  630MOL0     C83038   9.697   9.723   0.235 -0.4237 -0.3778 -0.1466
  630MOL0     C83039   9.699   9.849   0.338  0.2516 -0.4659 -0.2713
  630MOL0     C83040   9.567   9.920   0.323 -0.0762  0.9732  0.2396
  630MOL0     C83041   9.587  10.060   0.366  0.5465 -0.4606 -0.3715
  630MOL0     C83042   9.449  10.121   0.374 -0.1139  0.2401  1.0679
  630MOL0     C83043   9.376  10.097   0.502 -0.2825  0.2023  0.5565
  630MOL0     C83044   9.268  10.191   0.528  0.9401 -0.1549  0.0162
  630MOL0     N83045   9.189  10.156   0.647 -0.0638 -0.1659 -0.4668
  630MOL0     C83046   9.234  10.153   0.778 -0.6756 -0.2981  0.2941
  630MOL0     C83047   9.144  10.078   0.848  0.2566  0.1982 -0.2851
  630MOL0     C83048   9.170  10.044   0.991  0.1079  1.3216 -0.0088
  630MOL0     C83049   9.256  10.138   1.077 -0.4491  0.1346  0.3067
  630MOL0     C83050   9.282  10.066   1.210  0.2763 -0.9155 -0.4601
  630MOL0     C83051   9.346  10.158   1.312  0.3755  0.6241 -0.5715
  630MOL0     O83052   9.261  10.272   1.332  0.5916 -0.0362 -0.3287
  630MOL0     C83053   9.134  10.259   1.395 -1.2072  0.3820 -0.2396
  630MOL0     C83054   9.057  10.372   1.394  0.2035  0.1842 -0.1061
  630MOL0     C83055   8.934  10.381   1.465 -0.3443  0.1748  0.6063
  630MOL0     C83056   8.887  10.269   1.534  0.7514  0.3254 -1.0740
  630MOL0     C83057   8.746  10.275   1.591 -1.0611 -0.1862 -0.9386
  630MOL0     O83058   8.666  10.384   1.551  0.3826  0.5398 -0.2068
  630MOL0     C83059   8.527  10.370   1.557 -0.2984  1.4116  0.2467
  630MOL0     C83060   8.460  10.326   1.445  0.5956  0.9777  0.6530
  630MOL0     C83061   8.319  10.320   1.446 -0.0589 -0.7745  0.6644
  630MOL0     C83062   8.246  10.354   1.563 -0.2591  0.3652  0.7346
  630MOL0     O83063   8.115  10.342   1.576  0.0679 -0.4741 -0.5854
  630MOL0     C83064   8.053  10.244   1.490  0.5610  0.2525 -0.4989
  630MOL0     C83065   7.908  10.217   1.538 -0.3289 -0.4064 -0.0625
  630MOL0     C83066   7.907  10.158   1.675  0.4489  1.1543 -0.1767
  630MOL0     C83067   7.764  10.113   1.710  0.8586  0.2580 -0.7197
  630MOL0     C83068   7.744  10.060   1.853  0.5086 -0.9158 -0.0149
  630MOL0     C83069   7.594  10.029   1.872  0.6385 -0.4260 -0.6255
  630MOL0     C83070   7.549   9.980   2.005 -0.4259 -0.5972  0.2642
  630MOL0     C83071   7.408   9.921   2.008  0.0735 -0.3076 -0.3484
  630MOL0    Cl83072   7.373   9.875   2.175  0.1123 -0.0698 -0.0750
  630MOL0     C83073   8.319  10.398   1.671 -0.5407  0.5629 -0.1996
  630MOL0     C83074   8.455  10.401   1.679  0.1976  0.0166  0.0202
  630MOL0     O83075   8.715  10.169   1.642  0.3390 -0.7487  0.1725
  630MOL0     C83076   8.968  10.156   1.535 -0.3215 -0.3513  0.0581
  630MOL0     C83077   9.094  10.148   1.469 -0.4747 -0.6571 -0.0667
  630MOL0     N83078   9.038  10.040   0.768 -0.0591 -0.2241  0.1232
  630MOL0     N83079   9.065  10.106   0.651 -0.5779 -0.2270 -0.3933
  630MOL0     C83080  10.095   9.531   0.297  0.7673  0.7587  0.5760
  630MOL0     C83081  10.222   9.469   0.301  0.3030 -0.5026 -1.1329
  630MOL0     C83082  10.568   9.236   0.158 -0.2808 -0.5375  0.8229
  630MOL0     C83083  10.574   9.104   0.196 -0.2913  0.2393  0.2177
  630MOL0     C83084  10.694   9.036   0.194 -0.3294  1.1584  0.5639
  630MOL0     C83085  10.819   9.095   0.163 -0.5686 -0.2494 -0.1098
  630MOL0     O83086  10.944   9.033   0.160 -0.1556  0.8894 -0.4723
  630MOL0     C83087  10.956   8.896   0.191 -0.8699 -0.6271  0.2910
  630MOL0     C83088  11.085   8.836   0.132  1.3437  0.7461 -0.3117
  630MOL0     C83089  11.210   8.836   0.237 -0.1744  0.4329  0.3066
  630MOL0     C83090  11.347   8.790   0.174  0.0719  0.7678  0.4408
  630MOL0     C83091  11.470   8.779   0.256 -0.5976 -0.6527 -0.3273
  630MOL0     C83092  11.565   8.795   0.330  0.2478  0.0035  0.6067
  630MOL0     C83093  10.815   9.226   0.130  0.0063  0.3748  0.1802
  630MOL0     C83094  10.697   9.298   0.119 -0.1258 -0.0190  0.1940
  630MOL0     H83095  10.371   9.627   0.041 -0.9305  2.4761 -1.5954
  630MOL0     H83096  10.131   9.716   0.018  1.8240 -0.5443  0.0055
  630MOL0     H83097   9.838   9.634   0.365  0.8177 -0.6596  0.5128
  630MOL0     H83098   9.803   9.546   0.203 -1.4948  2.2973 -2.6616
  630MOL0     H83099   9.616   9.651   0.252  0.6554 -2.4650 -3.0949
  630MOL0     H83100   9.692   9.759   0.132 -1.8271 -0.3198 -0.0831
  630MOL0     H83101   9.786   9.900   0.295  0.9584  0.0164  1.6594
  630MOL0     H83102   9.713   9.819   0.442 -0.5874  0.3065  0.0747
  630MOL0     H83103   9.536   9.908   0.219 -0.2685 -0.6214  0.4540
  630MOL0     H83104   9.500   9.870   0.393  1.7359 -1.2735  0.4833
  630MOL0     H83105   9.651  10.111   0.294  3.1498 -2.1619  0.6060
  630MOL0     H83106   9.647  10.061   0.457  0.7373 -0.5683 -0.4961
  630MOL0     H83107   9.392  10.097   0.283 -0.4467  3.5493  0.2530
  630MOL0     H83108   9.458  10.230   0.370 -0.9443  0.2892 -1.4067
  630MOL0     H83109   9.329   9.999   0.493 -0.6439  0.3011  1.3128
  630MOL0     H83110   9.444  10.096   0.588 -3.9563  1.2127  3.7230
  630MOL0     H83111   9.201  10.190   0.442 -0.6554 -0.5796  1.2351
  630MOL0     H83112   9.321  10.288   0.528  1.0892 -0.2269 -1.0775
  630MOL0     H83113   9.326  10.197   0.816  0.4026 -0.4463 -1.9878
  630MOL0     H83114   9.220   9.947   1.001  1.3340  1.8761 -0.5737
  630MOL0     H83115   9.072  10.042   1.039  0.4236  1.5901  0.6651
  630MOL0     H83116   9.202  10.231   1.098 -1.5264 -0.5942  0.8606
  630MOL0     H83117   9.357  10.148   1.035 -0.3720  2.4504  0.8817
  630MOL0     H83118   9.188  10.029   1.252  0.5976 -0.3546  0.8201
  630MOL0     H83119   9.346   9.977   1.205  1.3855 -0.6175  3.9695
  630MOL0     H83120   9.444  10.181   1.269  0.6429  3.1438  1.1770
  630MOL0     H83121   9.348  10.110   1.411  0.0307  0.7553 -0.4998
  630MOL0     H83122   9.089  10.466   1.351 -1.1347  0.4000 -0.6741
  630MOL0     H83123   8.876  10.472   1.465  0.6355  0.8180  0.1986
  630MOL0     H83124   8.521  10.317   1.356  0.7637  0.9152  0.7746
  630MOL0     H83125   8.262  10.297   1.356 -0.5224  0.5998  0.5930
  630MOL0     H83126   8.100  10.145   1.484 -1.2251 -0.7162  0.5593
  630MOL0     H83127   8.054  10.284   1.389 -0.7099  2.1224  0.1747
  630MOL0     H83128   7.873  10.136   1.474 -0.6674 -1.4309  1.3704
  630MOL0     H83129   7.844  10.305   1.529 -1.6305 -1.0371  2.1146
  630MOL0     H83130   7.941  10.228   1.751 -2.6806  1.7358  0.8380
  630MOL0     H83131   7.969  10.068   1.676  1.2302  1.6870  1.1125
  630MOL0     H83132   7.700  10.200   1.692  1.0265  0.4124 -0.5780
  630MOL0     H83133   7.720  10.039   1.643 -1.0926  1.2438 -0.5805
  630MOL0     H83134   7.783  10.135   1.923  3.6571 -1.4113 -1.0850
  630MOL0     H83135   7.803   9.971   1.872  3.1765  0.5101 -1.0587
  630MOL0     H83136   7.573   9.948   1.802  0.7220  0.4717 -1.7109
  630MOL0     H83137   7.535  10.117   1.845  3.3147  0.7572 -3.2206
  630MOL0     H83138   7.617   9.905   2.044  0.7240  1.2750  2.0923
  630MOL0     H83139   7.561  10.070   2.067 -1.3007  2.6162 -3.8260
  630MOL0     H83140   7.387   9.842   1.934 -2.7163 -1.9195  1.9597
  630MOL0     H83141   7.341  10.002   1.981  1.3932  0.2182 -2.2525
  630MOL0     H83142   8.267  10.427   1.762  1.2504  2.0827  0.4058
  630MOL0     H83143   8.490  10.444   1.773 -0.4908  0.7150 -0.0413
  630MOL0     H83144   8.922  10.072   1.586 -1.2360  2.3439  4.1585
  630MOL0     H83145   9.150  10.056   1.476 -0.4960 -0.6241  0.7115
  630MOL0     H83146  10.011   9.503   0.360  1.4559 -2.8018  0.1486
  630MOL0     H83147  10.244   9.395   0.378  1.8118  0.5313 -0.5333
  630MOL0     H83148  10.478   9.055   0.215 -1.3013  2.3651  0.8919
  630MOL0     H83149  10.699   8.930   0.216  1.6414  1.0770 -0.0207
  630MOL0     H83150  10.870   8.855   0.138  0.6260 -2.3838 -0.9406
  630MOL0     H83151  10.944   8.873   0.298 -0.0861 -1.4413  0.2213
  630MOL0     H83152  11.058   8.733   0.105  1.0185  1.1913 -1.8027
  630MOL0     H83153  11.120   8.887   0.042  1.6796 -0.7377 -1.0498
  630MOL0     H83154  11.188   8.774   0.324  1.2458 -0.0194  0.3731
  630MOL0     H83155  11.213   8.942   0.266 -2.1758  0.9588 -1.1679
  630MOL0     H83156  11.326   8.702   0.113 -0.3175  2.5794 -2.2108
  630MOL0     H83157  11.372   8.861   0.095  2.4048  1.9188  2.0824
  630MOL0     H83158  11.644   8.793   0.402  2.2944  0.2196 -1.4954
  630MOL0     H83159  10.904   9.269   0.084 -1.2965  1.8798 -1.0617
  630MOL0     H83160  10.699   9.402   0.089 -1.9590 -0.1696 -0.6023
  631MOL0     O83161   3.437   1.329   9.684 -0.1505 -0.4495  0.4958
  631MOL0     C83162   3.448   1.449   9.693  0.2985  0.0632  0.4623
  631MOL0     O83163   3.351   1.536   9.728  0.4243  0.1787  0.3354
  631MOL0     C83164   3.235   1.488   9.777  0.1856  0.0105 -0.3627
  631MOL0     C83165   3.148   1.399   9.707 -0.6361 -0.0391 -0.4195
  631MOL0     C83166   3.024   1.356   9.763 -0.8552  0.3055 -0.1873
  631MOL0     C83167   2.986   1.398   9.889 -0.3467 -1.1127  0.4576
  631MOL0     O83168   2.869   1.357   9.967 -0.4255  0.3122  0.7110
  631MOL0     C83169   2.785   1.254   9.918 -0.0437 -0.8057 -0.2706
  631MOL0     C83170   2.688   1.214  10.023  0.0647 -0.6171  0.2602
  631MOL0     C83171   2.597   1.321  10.071  0.0301  0.2705 -0.6644
  631MOL0     C83172   2.462   1.270  10.136  0.1322  0.4853  0.6842
  631MOL0     C83173   2.377   1.384  10.177 -0.5570 -0.6349 -0.8952
  631MOL0     C83174   2.240   1.339  10.242  0.5846 -0.4622  0.0652
  631MOL0     C83175   2.167   1.450  10.315  0.0924 -0.3878  0.3047
  631MOL0     C83176   2.036   1.402  10.367  0.8028  0.1354  0.6101
  631MOL0     N83177   2.049   1.304  10.469  0.0057  0.7436 -1.3500
  631MOL0     C83178   1.940   1.224  10.512  0.0805 -0.0113  0.2576
  631MOL0     C83179   1.972   1.190  10.642 -0.0908 -0.5194  0.6504
  631MOL0     C83180   1.903   1.101  10.742 -0.2870 -0.7407 -0.4764
  631MOL0     C83181   1.780   1.189  10.792  0.9911 -0.1302 -0.4788
  631MOL0     C83182   1.761   1.171  10.937  0.6277  0.5705 -1.1288
  631MOL0     C83183   1.624   1.203  10.978 -1.1521 -0.2083 -0.3545
  631MOL0     O83184   1.614   1.188  11.122  0.3897  0.3055 -0.1062
  631MOL0     C83185   1.508   1.226  11.200  0.6813 -0.3004 -0.0596
  631MOL0     C83186   1.405   1.321  11.178 -0.1229  0.4843  0.2229
  631MOL0     C83187   1.311   1.347  11.272  0.8228 -0.3665  0.0131
  631MOL0     C83188   1.310   1.290  11.398  0.4707 -0.1303  0.1194
  631MOL0     C83189   1.207   1.320  11.492 -0.3688 -1.0305 -0.5856
  631MOL0     O83190   1.203   1.249  11.607 -0.3222  0.1364  0.1640
  631MOL0     C83191   1.098   1.265  11.688 -0.2469 -0.4817 -0.1010
  631MOL0     C83192   1.014   1.154  11.717  0.0847  0.1589 -0.6044
  631MOL0     C83193   0.928   1.154  11.825  0.2071  0.2187  0.4062
  631MOL0     C83194   0.896   1.271  11.895 -0.7961 -1.2091  0.4848
  631MOL0     O83195   0.801   1.272  12.000  0.2319  0.9051  0.7288
  631MOL0     C83196   0.710   1.384  12.004 -0.8204  0.6501 -0.7262
  631MOL0     C83197   0.576   1.324  12.059 -0.0156  0.9686 -0.0799
  631MOL0     C83198   0.586   1.269  12.201 -0.2176  0.1714 -1.5201
  631MOL0     C83199   0.458   1.188  12.233 -0.1829  0.1972 -0.2945
  631MOL0     C83200   0.475   1.108  12.369  0.1628  0.5648  0.3252
  631MOL0     C83201   0.374   0.987  12.370 -1.0533  0.4154 -0.1141
  631MOL0     C83202   0.240   1.038  12.431 -0.0945 -0.3980  0.1487
  631MOL0     C83203   0.137   0.934  12.401 -0.5345 -0.1770 -0.1322
  631MOL0    Cl83204  -0.021   0.995  12.451  0.1339  0.1157 -0.1917
  631MOL0     C83205   0.973   1.380  11.866  1.5338 -0.3883  0.5094
  631MOL0     C83206   1.073   1.379  11.769  0.3714  0.4283 -0.0523
  631MOL0     O83207   1.130   1.413  11.464  0.4488  0.5013  0.0232
  631MOL0     C83208   1.401   1.185  11.413  0.4004 -0.4607  0.2573
  631MOL0     C83209   1.495   1.154  11.314 -0.0098 -0.3414  0.1847
  631MOL0     N83210   2.087   1.253  10.677 -0.1267  0.1261 -0.1482
  631MOL0     N83211   2.129   1.327  10.585  0.1488  0.0824  0.5008
  631MOL0     C83212   3.068   1.501   9.943  0.4445  0.6826 -0.2630
  631MOL0     C83213   3.190   1.543   9.892  0.2313 -0.3424  0.2067
  631MOL0     C83214   3.575   1.506   9.644  0.8243  0.0199  0.2336
  631MOL0     C83215   3.681   1.426   9.599 -0.5631  0.9871  0.2688
  631MOL0     C83216   3.812   1.477   9.581  0.8325 -1.2057 -0.7337
  631MOL0     C83217   3.839   1.616   9.614  0.5048  0.0486 -0.6809
  631MOL0     O83218   3.961   1.678   9.605 -0.2246 -0.1621 -0.7472
  631MOL0     C83219   4.080   1.604   9.593  0.2346 -1.0420  0.4316
  631MOL0     C83220   4.209   1.692   9.600  0.1197  0.7377 -0.6286
  631MOL0     C83221   4.322   1.603   9.548  0.3634  0.2501 -0.0948
  631MOL0     C83222   4.458   1.651   9.599 -0.2142  0.7842  0.0582
  631MOL0     C83223   4.482   1.778   9.537 -0.3182 -0.3885 -0.0618
  631MOL0     C83224   4.489   1.891   9.490  0.2538 -0.7283  0.3496
  631MOL0     C83225   3.732   1.699   9.641  0.2579 -0.0043 -0.8106
  631MOL0     C83226   3.610   1.644   9.675  0.3625 -0.2444 -0.7952
  631MOL0     H83227   3.167   1.353   9.610 -0.0246  1.6078 -1.1111
  631MOL0     H83228   2.965   1.280   9.712  1.7391 -1.6694 -0.4889
  631MOL0     H83229   2.848   1.169   9.890 -0.3605 -0.2484 -2.9383
  631MOL0     H83230   2.739   1.287   9.825  1.4492  0.1808 -0.6956
  631MOL0     H83231   2.739   1.169  10.108  0.9616  0.0012  0.0746
  631MOL0     H83232   2.630   1.132   9.979 -1.2997  0.1031  0.6637
  631MOL0     H83233   2.577   1.381   9.982 -1.4645  0.0430 -0.5047
  631MOL0     H83234   2.643   1.394  10.139 -0.9579  1.6587 -1.4474
  631MOL0     H83235   2.407   1.214  10.060 -0.9835  0.5861  1.3907
  631MOL0     H83236   2.484   1.204  10.220  1.5598 -1.2253 -0.9450
  631MOL0     H83237   2.361   1.455  10.096  1.8872 -1.2441 -2.0078
  631MOL0     H83238   2.429   1.443  10.253 -0.9610 -0.4033 -0.7961
  631MOL0     H83239   2.269   1.270  10.322  5.0668  0.4939 -0.4733
  631MOL0     H83240   2.178   1.285  10.169 -0.6796 -2.8966  2.7613
  631MOL0     H83241   2.231   1.496  10.391  0.1061  0.9686 -0.4895
  631MOL0     H83242   2.146   1.534  10.247 -1.0035 -0.6103  0.3512
  631MOL0     H83243   1.978   1.353  10.289 -0.7605  1.1270  1.1038
  631MOL0     H83244   1.979   1.491  10.394  0.9395  1.4336 -2.8238
  631MOL0     H83245   1.845   1.194  10.469 -0.9373  0.4402  2.0836
  631MOL0     H83246   1.977   1.080  10.820  1.0993  2.0691 -0.8968
  631MOL0     H83247   1.861   1.007  10.705 -1.4809 -0.1857 -0.5573
  631MOL0     H83248   1.693   1.157  10.734  1.5942 -0.8250 -1.0195
  631MOL0     H83249   1.800   1.292  10.761 -0.8118  0.2569 -0.4672
  631MOL0     H83250   1.774   1.066  10.964  2.7560  0.3759 -2.6867
  631MOL0     H83251   1.827   1.239  10.992  1.4576 -0.6966 -0.5083
  631MOL0     H83252   1.561   1.126  10.933 -0.9442  0.6172 -2.1189
  631MOL0     H83253   1.593   1.304  10.952 -1.9710 -0.1436  0.7656
  631MOL0     H83254   1.412   1.367  11.080  1.9487  1.5699  0.8042
  631MOL0     H83255   1.237   1.424  11.252  0.3955 -0.6698  0.4295
  631MOL0     H83256   1.023   1.062  11.660  2.7887 -2.4538  3.4866
  631MOL0     H83257   0.869   1.069  11.857  0.7612 -0.0363  0.7790
  631MOL0     H83258   0.700   1.425  11.903  0.5371  1.1757 -0.6622
  631MOL0     H83259   0.760   1.462  12.061 -1.9908  1.5043 -0.8288
  631MOL0     H83260   0.542   1.246  11.990 -1.1998  1.0237  0.4338
  631MOL0     H83261   0.505   1.407  12.058  0.5683  1.4823  0.4797
  631MOL0     H83262   0.584   1.353  12.272  0.1371  1.0893 -2.5680
  631MOL0     H83263   0.678   1.211  12.214 -0.8219 -0.5833 -0.5110
  631MOL0     H83264   0.369   1.251  12.237  0.1091  0.5646  1.3320
  631MOL0     H83265   0.441   1.113  12.155  0.2579 -0.2993  0.0793
  631MOL0     H83266   0.459   1.185  12.445 -1.6542  3.0297 -2.3176
  631MOL0     H83267   0.578   1.072  12.370 -0.3596 -0.9844  0.6849
  631MOL0     H83268   0.416   0.903  12.427  2.1765  0.8514 -1.6182
  631MOL0     H83269   0.366   0.937  12.274  1.9240  0.0835 -0.2886
  631MOL0     H83270   0.256   1.044  12.539 -2.0513 -1.5932  0.5466
  631MOL0     H83271   0.211   1.139  12.401  1.5275  0.8201  2.3876
  631MOL0     H83272   0.170   0.850  12.463 -0.5632  0.4604  0.7788
  631MOL0     H83273   0.142   0.912  12.294 -1.5253  1.2189 -0.4963
  631MOL0     H83274   0.948   1.473  11.914  2.2712  0.6680 -1.0438
  631MOL0     H83275   1.137   1.466  11.763 -0.1284  0.9955  2.2570
  631MOL0     H83276   1.410   1.146  11.514 -1.5425  1.3888  1.2198
  631MOL0     H83277   1.566   1.072  11.323 -3.4521 -3.2836  4.3688
  631MOL0     H83278   3.029   1.543  10.035  0.2321 -1.7248  0.8359
  631MOL0     H83279   3.240   1.623   9.946 -1.1462  0.0164  1.0087
  631MOL0     H83280   3.662   1.323   9.574  0.7470  1.0769 -1.2443
  631MOL0     H83281   3.890   1.401   9.576  0.0349 -2.6874  3.8455
  631MOL0     H83282   4.077   1.553   9.496 -0.6087 -2.5944  1.2453
  631MOL0     H83283   4.078   1.536   9.678  0.4327  1.2957  2.4143
  631MOL0     H83284   4.196   1.776   9.532  1.4346  0.5931 -1.0932
  631MOL0     H83285   4.219   1.731   9.702  0.0195 -0.2036 -0.2397
  631MOL0     H83286   4.311   1.587   9.440 -2.6080  0.8987  0.0230
  631MOL0     H83287   4.306   1.502   9.589  1.2579  0.2631  0.3020
  631MOL0     H83288   4.459   1.656   9.708  0.5537 -0.6092  0.1422
  631MOL0     H83289   4.539   1.585   9.566  0.4007  0.5154  1.9752
  631MOL0     H83290   4.506   1.981   9.434 -1.1687 -1.0812 -0.7125
  631MOL0     H83291   3.737   1.805   9.661  1.0501 -0.0701 -0.6546
  631MOL0     H83292   3.529   1.703   9.716  0.4401 -1.0498  0.5935
  632MOL0     O83293   4.916  10.522   2.622 -0.6582 -0.5195  0.5290
  632MOL0     C83294   4.939  10.438   2.535  0.6253 -0.9121  0.3193
  632MOL0     O83295   4.860  10.332   2.504  0.2567  0.2798 -0.0484
  632MOL0     C83296   4.737  10.327   2.566 -0.0601 -0.3271  0.3340
  632MOL0     C83297   4.726  10.311   2.706 -0.2051  0.0712 -0.4492
  632MOL0     C83298   4.597  10.290   2.766 -0.4408 -0.2446  0.1199
  632MOL0     C83299   4.481  10.310   2.685 -0.4300  0.4602  0.7764
  632MOL0     O83300   4.376  10.285   2.758  0.6533  0.0990  0.2531
  632MOL0     C83301   4.257  10.250   2.680 -0.4265 -0.0027  0.6217
  632MOL0     C83302   4.148  10.195   2.770  0.5105  0.3840  0.0280
  632MOL0     C83303   4.034  10.129   2.686  0.3818 -0.7478 -0.2559
  632MOL0     C83304   3.929  10.067   2.785 -0.1029  0.0783 -0.4488
  632MOL0     C83305   3.831   9.977   2.719 -0.0443  0.2051 -0.3156
  632MOL0     C83306   3.728  10.050   2.627 -0.2764  0.2981 -0.7591
  632MOL0     C83307   3.623   9.961   2.569  0.3372 -0.1873  0.3274
  632MOL0     C83308   3.540   9.877   2.664 -0.7220 -0.8557  0.6293
  632MOL0     N83309   3.440   9.786   2.595 -0.4387 -0.3504 -0.1020
  632MOL0     C83310   3.315   9.828   2.559  0.9713  0.4245 -0.6585
  632MOL0     C83311   3.266   9.740   2.469 -0.2944  0.0905 -0.3204
  632MOL0     C83312   3.131   9.743   2.400 -0.3735  0.0438 -0.0081
  632MOL0     C83313   3.090   9.607   2.358 -0.2747  0.2930  0.4937
  632MOL0     C83314   2.953   9.597   2.291 -0.5820 -1.0772  0.4948
  632MOL0     C83315   2.919   9.695   2.178 -0.7696  0.0389 -0.1015
  632MOL0     O83316   3.003   9.656   2.065  0.2240  0.2933  0.1835
  632MOL0     C83317   2.974   9.722   1.948  0.2589 -0.0255  0.5189
  632MOL0     C83318   2.892   9.826   1.924  0.1109  0.0807  0.2130
  632MOL0     C83319   2.868   9.871   1.791 -0.0873  0.5005 -0.1194
  632MOL0     C83320   2.927   9.815   1.672 -0.2618 -0.3887 -0.7619
  632MOL0     C83321   2.890   9.872   1.532 -0.9552 -0.3968  0.0446
  632MOL0     O83322   2.948   9.805   1.427 -0.6337  0.8506 -0.1085
  632MOL0     C83323   2.914   9.847   1.295 -0.6345  0.2310  0.2239
  632MOL0     C83324   2.782   9.887   1.262 -0.2626 -0.1424  0.0333
  632MOL0     C83325   2.749   9.922   1.136 -0.3842 -0.4913  0.4113
  632MOL0     C83326   2.835   9.919   1.032  0.0245  0.0256 -0.1148
  632MOL0     O83327   2.801   9.960   0.911  1.1128  0.0446 -0.5802
  632MOL0     C83328   2.855   9.900   0.795 -0.4756  0.5966  0.1799
  632MOL0     C83329   2.821   9.747   0.794  0.6254 -0.0689  0.4687
  632MOL0     C83330   2.671   9.720   0.797 -0.0158 -0.9880 -0.6181
  632MOL0     C83331   2.654   9.571   0.809  0.4853 -0.0748 -0.3710
  632MOL0     C83332   2.509   9.538   0.785 -0.6750 -0.9125  0.2341
  632MOL0     C83333   2.484   9.390   0.751 -0.0301 -0.1077  0.2598
  632MOL0     C83334   2.497   9.298   0.869  0.2435  1.2363 -0.6317
  632MOL0     C83335   2.467   9.154   0.835 -0.2731  0.1605  0.0632
  632MOL0    Cl83336   2.627   9.092   0.767 -0.6562  0.6128 -0.4024
  632MOL0     C83337   2.967   9.884   1.062 -0.5803  0.2791  0.1028
  632MOL0     C83338   3.010   9.847   1.193 -0.1071  0.5083 -0.1908
  632MOL0     O83339   2.824   9.975   1.526  0.9908 -0.0286  0.2390
  632MOL0     C83340   3.029   9.715   1.700 -0.0479 -0.2401 -0.7353
  632MOL0     C83341   3.039   9.662   1.835  0.0668 -0.1767  0.4707
  632MOL0     N83342   3.381   9.660   2.434  1.0726 -0.3183  0.1371
  632MOL0     N83343   3.478   9.693   2.510 -0.6976 -0.7106  0.0022
  632MOL0     C83344   4.496  10.339   2.542 -0.3060  0.1218  0.0855
  632MOL0     C83345   4.628  10.336   2.487  0.0760 -0.8018 -0.2835
  632MOL0     C83346   5.051  10.444   2.453  0.0058 -0.1372  0.3931
  632MOL0     C83347   5.053  10.386   2.325 -0.1314 -0.8428  0.0822
  632MOL0     C83348   5.164  10.385   2.247  0.3751 -0.5868 -0.2099
  632MOL0     C83349   5.279  10.449   2.297  0.5572 -0.5119  0.0522
  632MOL0     O83350   5.392  10.470   2.223  0.1567 -0.5482  0.3042
  632MOL0     C83351   5.398  10.407   2.094 -0.1457  1.1577  0.4688
  632MOL0     C83352   5.532  10.388   2.052  0.7026 -1.0819  0.3163
  632MOL0     C83353   5.630  10.305   2.147  0.6754 -0.6375  0.0670
  632MOL0     C83354   5.777  10.323   2.104 -0.0037  0.6707 -0.0545
  632MOL0     C83355   5.861  10.229   2.189 -0.1367 -0.8169 -0.1537
  632MOL0     C83356   5.943  10.173   2.254 -0.3122  0.3424  0.1315
  632MOL0     C83357   5.284  10.503   2.426 -1.2047 -0.2929 -0.0648
  632MOL0     C83358   5.169  10.496   2.509 -0.2017 -0.7611 -0.2905
  632MOL0     H83359   4.821  10.307   2.758 -1.3786  0.2279  1.8151
  632MOL0     H83360   4.583  10.265   2.871 -2.3993  0.4710  0.0803
  632MOL0     H83361   4.288  10.165   2.620 -2.6261 -0.4998  0.1028
  632MOL0     H83362   4.229  10.335   2.617 -1.2398  0.0294  1.0099
  632MOL0     H83363   4.109  10.282   2.822  2.4277  1.7235 -0.6679
  632MOL0     H83364   4.184  10.118   2.840 -1.6249 -0.7237  0.0011
  632MOL0     H83365   4.092  10.057   2.627 -1.4593 -1.2785 -1.5233
  632MOL0     H83366   3.983  10.193   2.614  0.6838 -1.1836 -0.8575
  632MOL0     H83367   3.992  10.005   2.849 -2.4000 -2.7725 -0.7502
  632MOL0     H83368   3.881  10.147   2.842  0.9270  0.7957 -0.5742
  632MOL0     H83369   3.784   9.918   2.799 -0.7296 -3.1679 -2.9840
  632MOL0     H83370   3.882   9.898   2.663 -1.3380 -0.1074 -1.0809
  632MOL0     H83371   3.790  10.087   2.545  0.6574 -0.3013 -0.3403
  632MOL0     H83372   3.676  10.131   2.679  0.7155 -1.0239  2.5844
  632MOL0     H83373   3.547  10.031   2.531 -0.0778 -0.8719 -0.1218
  632MOL0     H83374   3.669   9.893   2.497  0.5569 -2.2457  2.2934
  632MOL0     H83375   3.494   9.945   2.736 -0.6170 -1.5604  1.3810
  632MOL0     H83376   3.609   9.816   2.723 -1.8340 -2.9527 -0.1424
  632MOL0     H83377   3.251   9.907   2.595 -0.9522  0.0580 -3.0059
  632MOL0     H83378   3.146   9.806   2.312 -3.2773  1.3910  0.3681
  632MOL0     H83379   3.053   9.785   2.464 -0.6086 -1.3243  0.6335
  632MOL0     H83380   3.096   9.545   2.448  1.0439  0.5368  0.5953
  632MOL0     H83381   3.165   9.551   2.301 -0.7260  0.1571  0.0268
  632MOL0     H83382   2.947   9.493   2.256 -0.2132 -0.6385 -0.9439
  632MOL0     H83383   2.878   9.616   2.368 -2.7560 -2.3343 -1.2213
  632MOL0     H83384   2.925   9.800   2.206  0.0557 -0.5448  2.2089
  632MOL0     H83385   2.814   9.689   2.150 -0.0176 -0.4223 -3.1502
  632MOL0     H83386   2.848   9.889   2.000 -1.1378  1.2190 -1.3753
  632MOL0     H83387   2.785   9.941   1.784 -0.8579 -0.4510 -0.8994
  632MOL0     H83388   2.702   9.898   1.334  2.0558  0.1439  2.7685
  632MOL0     H83389   2.649   9.955   1.114  0.7594  0.5774 -4.1094
  632MOL0     H83390   2.962   9.919   0.794 -0.6303  1.5547 -1.6048
  632MOL0     H83391   2.811   9.937   0.702 -3.5301 -2.8362  0.0193
  632MOL0     H83392   2.871   9.702   0.881  2.2455  0.6608 -0.0360
  632MOL0     H83393   2.857   9.711   0.697 -1.8582  0.2923 -0.6587
  632MOL0     H83394   2.624   9.753   0.704  0.3181  0.6219 -0.2398
  632MOL0     H83395   2.620   9.775   0.877  0.3208  1.6036 -2.0753
  632MOL0     H83396   2.700   9.514   0.728 -0.1341 -1.0050 -0.0858
  632MOL0     H83397   2.685   9.529   0.906 -1.2642  3.1036  1.7539
  632MOL0     H83398   2.484   9.597   0.696 -0.1300 -0.3706  0.4369
  632MOL0     H83399   2.438   9.572   0.861 -1.2545  1.8791 -1.4357
  632MOL0     H83400   2.559   9.363   0.676  1.8391  1.2835  1.5265
  632MOL0     H83401   2.385   9.372   0.708  0.1839 -2.0468  0.4992
  632MOL0     H83402   2.598   9.298   0.912 -1.3497 -1.0974  3.6772
  632MOL0     H83403   2.427   9.306   0.952 -0.9800 -0.7259 -1.3799
  632MOL0     H83404   2.385   9.141   0.764  1.4008  0.8127 -2.1227
  632MOL0     H83405   2.443   9.092   0.922  0.6197  0.7539  0.7521
  632MOL0     H83406   3.042   9.893   0.984  0.4135  2.6595  1.2259
  632MOL0     H83407   3.110   9.804   1.197 -0.2870  0.0161 -0.8000
  632MOL0     H83408   3.078   9.669   1.615  1.4548  1.3283 -0.7628
  632MOL0     H83409   3.116   9.593   1.869  0.2505 -0.6739 -0.8828
  632MOL0     H83410   4.413  10.334   2.473 -0.8118 -2.6316  0.7911
  632MOL0     H83411   4.647  10.354   2.382  1.1292 -3.2098 -0.5703
  632MOL0     H83412   4.960  10.348   2.283  0.7920  0.1886 -3.1796
  632MOL0     H83413   5.159  10.335   2.151 -0.6274  1.1137 -1.0878
  632MOL0     H83414   5.355  10.473   2.018 -1.2028  0.7526  0.6947
  632MOL0     H83415   5.350  10.309   2.093  0.2829  0.9000  2.3889
  632MOL0     H83416   5.533  10.350   1.950  0.6363  0.2060 -0.1826
  632MOL0     H83417   5.564  10.493   2.050  0.4379 -1.0138 -0.8937
  632MOL0     H83418   5.601  10.199   2.143 -0.3773 -0.3924  0.8435
  632MOL0     H83419   5.618  10.340   2.250  0.3375  1.0472 -0.5188
  632MOL0     H83420   5.791  10.286   2.002  4.0676  0.1875  0.4980
  632MOL0     H83421   5.804  10.428   2.115 -1.4197  0.9528  1.0624
  632MOL0     H83422   6.015  10.126   2.318  0.6513  2.0954  0.3977
  632MOL0     H83423   5.368  10.567   2.448 -0.8827 -1.1830  1.4380
  632MOL0     H83424   5.175  10.544   2.606  0.9262  0.9674 -1.1604
  633MOL0     O83425   4.714   5.958   7.397  0.1412  0.0787  0.7439
  633MOL0     C83426   4.744   6.066   7.348 -0.2423 -0.5713 -0.4684
  633MOL0     O83427   4.661   6.148   7.273 -0.0189 -0.0362 -0.0901
  633MOL0     C83428   4.549   6.080   7.216 -0.2014 -0.5029  0.2393
  633MOL0     C83429   4.442   6.018   7.280  0.2344  0.2443  0.2980
  633MOL0     C83430   4.324   5.967   7.213 -0.2901 -0.1198 -0.5115
  633MOL0     C83431   4.328   5.981   7.076  0.3296 -0.5461  0.1222
  633MOL0     O83432   4.215   5.941   7.004 -0.0815  0.2311  0.6801
  633MOL0     C83433   4.201   5.963   6.862 -0.0001 -0.0985 -0.7409
  633MOL0     C83434   4.063   5.926   6.820  0.3678 -0.1211  0.1717
  633MOL0     C83435   4.027   5.972   6.679  0.9963 -0.4537 -0.3030
  633MOL0     C83436   3.889   5.911   6.654  0.0979 -0.2394  0.0756
  633MOL0     C83437   3.851   5.966   6.514 -0.1902 -0.1571  0.1020
  633MOL0     C83438   3.715   5.919   6.463 -0.2492  0.0866 -0.6461
  633MOL0     C83439   3.693   5.948   6.315  0.2547 -0.0861 -0.2409
  633MOL0     C83440   3.547   5.928   6.271  0.3637 -1.1803  0.2261
  633MOL0     N83441   3.541   5.981   6.130 -0.0220  0.3770  0.1351
  633MOL0     C83442   3.488   6.097   6.076 -0.4635  0.1061 -0.4685
  633MOL0     C83443   3.499   6.093   5.940 -0.6912  1.3291  0.3143
  633MOL0     C83444   3.492   6.201   5.841  0.9497 -0.7877  0.3285
  633MOL0     C83445   3.344   6.209   5.800 -0.7936 -0.1297  0.5630
  633MOL0     C83446   3.242   6.250   5.915  0.2094 -0.8187 -0.1893
  633MOL0     C83447   3.100   6.275   5.858  0.7639  0.3084 -0.0954
  633MOL0     O83448   3.044   6.144   5.821 -0.3546 -0.2680 -0.4699
  633MOL0     C83449   2.916   6.139   5.778 -0.3940 -0.4423  0.2672
  633MOL0     C83450   2.850   6.017   5.778 -0.8510 -0.8948  0.0480
  633MOL0     C83451   2.711   6.006   5.747 -0.5358  0.4082  0.4074
  633MOL0     C83452   2.645   6.124   5.713 -0.4338  0.2192  0.6124
  633MOL0     C83453   2.502   6.112   5.692  0.1052 -0.6565  0.5272
  633MOL0     O83454   2.447   6.215   5.615  0.2546 -0.0359 -0.1304
  633MOL0     C83455   2.310   6.218   5.594  0.3513 -0.8110 -0.1580
  633MOL0     C83456   2.232   6.275   5.695  1.0080  0.6684  0.6180
  633MOL0     C83457   2.084   6.272   5.685 -0.0553 -0.2572 -0.2188
  633MOL0     C83458   2.030   6.211   5.565 -0.8724  0.8972 -0.3029
  633MOL0     O83459   1.900   6.219   5.530  0.2868 -0.5134  0.5630
  633MOL0     C83460   1.831   6.342   5.580  0.8427 -0.0104 -0.0778
  633MOL0     C83461   1.698   6.362   5.509 -0.2928 -0.2444 -0.0102
  633MOL0     C83462   1.575   6.336   5.588 -0.0887  0.8146 -0.5890
  633MOL0     C83463   1.471   6.268   5.496 -0.3313  0.6444 -0.5779
  633MOL0     C83464   1.327   6.271   5.552 -0.1031 -0.0438 -0.5449
  633MOL0     C83465   1.244   6.206   5.446 -0.3283 -0.5947  0.3986
  633MOL0     C83466   1.100   6.209   5.489 -0.5469  0.7127  1.0344
  633MOL0     C83467   1.016   6.110   5.401  0.4848  0.0959 -0.5118
  633MOL0    Cl83468   0.998   6.171   5.238 -0.3198 -0.1184  0.0682
  633MOL0     C83469   2.115   6.147   5.474 -0.6918  0.1792  0.6505
  633MOL0     C83470   2.252   6.147   5.490 -0.3949 -0.2599  1.0154
  633MOL0     O83471   2.441   6.017   5.739  0.4730  0.2866 -0.5395
  633MOL0     C83472   2.711   6.245   5.694  0.3492  0.7331 -0.8687
  633MOL0     C83473   2.847   6.253   5.732  0.4783 -0.6244 -0.8901
  633MOL0     N83474   3.554   5.969   5.906 -0.3817  0.2081 -0.8648
  633MOL0     N83475   3.573   5.903   6.019  0.0892 -0.8018 -0.8342
  633MOL0     C83476   4.432   6.050   7.009  0.1514  1.3052 -1.0373
  633MOL0     C83477   4.539   6.100   7.082 -0.4093 -0.0030  0.0510
  633MOL0     C83478   4.869   6.115   7.395 -0.3841 -0.3363 -0.4487
  633MOL0     C83479   4.895   6.253   7.406  0.2162  0.4728 -0.6255
  633MOL0     C83480   5.012   6.301   7.467  0.7730 -1.1109 -0.3036
  633MOL0     C83481   5.099   6.207   7.523 -0.4469 -0.0305  0.7670
  633MOL0     O83482   5.223   6.239   7.582  0.0639 -0.2395 -0.3419
  633MOL0     C83483   5.241   6.376   7.631 -0.4497  0.3658  0.1091
  633MOL0     C83484   5.375   6.365   7.714 -0.3179 -0.2055 -0.1519
  633MOL0     C83485   5.492   6.288   7.647  0.1742 -0.3509  0.6863
  633MOL0     C83486   5.561   6.370   7.547 -0.2495 -0.4665  0.0020
  633MOL0     C83487   5.701   6.329   7.540 -0.3084 -0.3322 -0.6178
  633MOL0     C83488   5.819   6.306   7.551 -1.1722 -0.0844  0.1858
  633MOL0     C83489   5.073   6.077   7.517 -0.1473  0.0654  0.5394
  633MOL0     C83490   4.964   6.026   7.451  0.3398 -0.1147 -0.4664
  633MOL0     H83491   4.443   6.011   7.389 -1.5883 -3.6671  0.2483
  633MOL0     H83492   4.234   5.942   7.268 -0.6822  3.9700  1.0712
  633MOL0     H83493   4.275   5.900   6.812  0.7658  1.3857 -1.5520
  633MOL0     H83494   4.227   6.067   6.842  4.4105 -0.7962  0.2760
  633MOL0     H83495   3.985   5.966   6.885 -0.7938  2.1418 -2.4209
  633MOL0     H83496   4.052   5.817   6.821 -1.3408 -0.1328 -3.3915
  633MOL0     H83497   4.099   5.929   6.609 -0.8689 -0.7890 -2.1204
  633MOL0     H83498   4.022   6.081   6.674  0.0882 -0.5016 -0.6633
  633MOL0     H83499   3.895   5.802   6.650 -0.9977 -0.2912 -1.0616
  633MOL0     H83500   3.815   5.935   6.731 -1.8038 -1.2474 -1.3569
  633MOL0     H83501   3.928   5.940   6.441 -0.2947  2.4734 -1.0664
  633MOL0     H83502   3.856   6.075   6.509 -0.4233 -0.1929 -1.3444
  633MOL0     H83503   3.645   5.982   6.518  0.9695  0.0467  1.0573
  633MOL0     H83504   3.704   5.811   6.471  0.9372 -0.2164 -2.4259
  633MOL0     H83505   3.717   6.054   6.304  0.3257 -0.1422 -0.6497
  633MOL0     H83506   3.757   5.886   6.252  0.1051  0.6598 -1.1443
  633MOL0     H83507   3.479   5.976   6.342 -1.8249  0.1397 -2.5421
  633MOL0     H83508   3.517   5.824   6.262  1.6676 -1.4469 -1.7114
  633MOL0     H83509   3.465   6.178   6.145  0.8383  0.8260 -0.8337
  633MOL0     H83510   3.548   6.179   5.750 -0.6389 -1.2013 -0.5922
  633MOL0     H83511   3.519   6.289   5.900 -2.7777 -0.6231  2.0670
  633MOL0     H83512   3.312   6.115   5.755 -0.9015  0.6812 -1.1597
  633MOL0     H83513   3.342   6.278   5.715  0.0576  1.1534  1.5460
  633MOL0     H83514   3.237   6.175   5.995 -2.9222  0.1971  0.6946
  633MOL0     H83515   3.261   6.345   5.966 -1.1516 -0.6356  0.0190
  633MOL0     H83516   3.113   6.343   5.773  1.4839  2.6871  1.8260
  633MOL0     H83517   3.033   6.324   5.929  0.3845  0.2819 -0.4228
  633MOL0     H83518   2.908   5.929   5.805  0.3607 -0.5383 -1.2361
  633MOL0     H83519   2.654   5.913   5.750  1.3613 -0.7650  2.5290
  633MOL0     H83520   2.276   6.320   5.784  0.3291  1.2747  0.6635
  633MOL0     H83521   2.015   6.314   5.757  0.0246  0.1286 -0.3636
  633MOL0     H83522   1.881   6.438   5.572 -2.5958  1.9429 -0.1935
  633MOL0     H83523   1.811   6.336   5.687  0.2129  0.3634 -0.1671
  633MOL0     H83524   1.699   6.289   5.428  0.2687 -0.6702  0.3774
  633MOL0     H83525   1.678   6.463   5.471 -1.7030 -0.2722  0.5920
  633MOL0     H83526   1.537   6.429   5.632 -1.4168 -1.1674  2.7278
  633MOL0     H83527   1.596   6.266   5.668 -3.2484  2.4389  1.8915
  633MOL0     H83528   1.480   6.315   5.397 -1.1796  1.5624 -0.2452
  633MOL0     H83529   1.504   6.164   5.496  0.7356  0.9291  1.6208
  633MOL0     H83530   1.298   6.375   5.567 -0.6866 -0.1357 -1.0026
  633MOL0     H83531   1.311   6.223   5.649 -2.6039  0.2708 -0.7510
  633MOL0     H83532   1.285   6.108   5.421  0.7435  0.6415 -3.3800
  633MOL0     H83533   1.262   6.272   5.361  3.0416  0.5975  1.8558
  633MOL0     H83534   1.092   6.199   5.598  1.7929  4.2829  1.7040
  633MOL0     H83535   1.056   6.309   5.481  0.7391  1.2140  0.0151
  633MOL0     H83536   0.919   6.110   5.452  0.1106  0.7391 -1.2082
  633MOL0     H83537   1.058   6.009   5.398 -2.2069 -1.0899 -2.5081
  633MOL0     H83538   2.064   6.092   5.396  1.4575 -0.9117 -0.0374
  633MOL0     H83539   2.322   6.097   5.424  0.8192  1.2736  1.0734
  633MOL0     H83540   2.659   6.338   5.672  0.6908  0.5049 -2.8125
  633MOL0     H83541   2.888   6.353   5.744  1.6572 -0.8451 -2.7984
  633MOL0     H83542   4.435   6.065   6.902 -0.8170  0.9481 -1.1158
  633MOL0     H83543   4.618   6.159   7.036  0.3126 -1.0141 -0.0377
  633MOL0     H83544   4.806   6.311   7.382 -1.3027 -1.1407  0.8392
  633MOL0     H83545   5.017   6.408   7.486 -0.0221 -1.3126  1.2179
  633MOL0     H83546   5.166   6.420   7.696  0.1398  1.3192  0.1549
  633MOL0     H83547   5.250   6.442   7.545  0.5585  1.3748  0.9623
  633MOL0     H83548   5.404   6.465   7.749 -0.8704 -0.4433  1.0307
  633MOL0     H83549   5.341   6.309   7.801 -0.1881 -2.4270 -1.4557
  633MOL0     H83550   5.462   6.191   7.606  0.8486 -0.7752  1.1895
  633MOL0     H83551   5.557   6.268   7.732  0.0615 -0.7541  0.6825
  633MOL0     H83552   5.515   6.351   7.449  0.5042 -1.1032 -0.2421
  633MOL0     H83553   5.547   6.477   7.566  0.8528 -0.4199  0.6163
  633MOL0     H83554   5.920   6.276   7.568 -0.4019  1.6472 -0.9973
  633MOL0     H83555   5.144   6.009   7.561  1.3122  1.8670  1.0994
  633MOL0     H83556   4.944   5.920   7.441  1.7415 -0.2737 -1.9398
  634MOL0     O83557  11.065   0.399  11.184 -0.2230  0.4362  0.2602
  634MOL0     C83558  11.057   0.328  11.080 -1.3346  0.1716 -0.2429
  634MOL0     O83559  10.953   0.265  11.027  0.4397  0.4832 -0.5038
  634MOL0     C83560  10.848   0.255  11.118  0.0611  1.4322 -0.7137
  634MOL0     C83561  10.741   0.337  11.095  0.0751  0.0074 -0.2706
  634MOL0     C83562  10.627   0.322  11.170  0.4704 -0.3915  0.0106
  634MOL0     C83563  10.619   0.219  11.265  0.4484 -0.0267  0.0141
  634MOL0     O83564  10.504   0.197  11.345  0.8338 -0.3240  0.7409
  634MOL0     C83565  10.390   0.295  11.324 -0.2959  0.6751  0.2587
  634MOL0     C83566  10.285   0.256  11.421  0.2302 -0.0830 -0.0751
  634MOL0     C83567  10.162   0.347  11.427 -0.5679 -0.6968  0.7428
  634MOL0     C83568  10.044   0.289  11.510  0.0434 -0.4415  0.3799
  634MOL0     C83569   9.937   0.384  11.563 -0.8215 -0.7818 -0.4272
  634MOL0     C83570   9.850   0.456  11.454 -0.4521  0.1892 -0.2748
  634MOL0     C83571   9.783   0.567  11.510  0.5710 -0.7438 -0.4590
  634MOL0     C83572   9.697   0.529  11.630 -0.2667  0.5295 -0.4640
  634MOL0     N83573   9.606   0.412  11.614  0.6785  0.0587 -0.2116
  634MOL0     C83574   9.515   0.404  11.513  0.3609 -0.0155 -0.1562
  634MOL0     C83575   9.445   0.286  11.541 -0.3228 -0.2512 -0.3229
  634MOL0     C83576   9.315   0.243  11.476 -1.0954  0.3527  0.0141
  634MOL0     C83577   9.203   0.313  11.552  0.4204  1.0595 -0.0293
  634MOL0     C83578   9.065   0.281  11.499 -0.6653  0.1218  0.4140
  634MOL0     C83579   9.038   0.136  11.457 -0.1731  0.6028 -0.1364
  634MOL0     O83580   8.905   0.114  11.409 -0.4037 -0.6824  0.8910
  634MOL0     C83581   8.799   0.097  11.500  0.7661 -0.4010 -0.0762
  634MOL0     C83582   8.666   0.107  11.458  0.1581  0.7510  0.1399
  634MOL0     C83583   8.565   0.109  11.542 -0.4288  0.6348 -0.6482
  634MOL0     C83584   8.579   0.078  11.683 -0.0670 -0.3113  0.6975
  634MOL0     C83585   8.470   0.075  11.785 -0.1876  0.7122 -0.2856
  634MOL0     O83586   8.349   0.082  11.733  0.7378  0.2437  0.0331
  634MOL0     C83587   8.238   0.055  11.809  0.1231  0.0340 -0.0701
  634MOL0     C83588   8.228  -0.059  11.900  0.7709  0.7756 -0.2684
  634MOL0     C83589   8.111  -0.076  11.976  0.4909 -0.6373 -0.7968
  634MOL0     C83590   7.999   0.005  11.951  0.0506 -0.7953 -0.0132
  634MOL0     O83591   7.888  -0.008  12.033  0.4750 -0.3635  0.4692
  634MOL0     C83592   7.888  -0.124  12.117 -0.8319 -1.1546 -0.0576
  634MOL0     C83593   7.747  -0.149  12.170  0.0517  0.1555 -0.0563
  634MOL0     C83594   7.637  -0.174  12.068  0.0962  0.3870 -0.0160
  634MOL0     C83595   7.496  -0.219  12.126 -0.5939  0.6290 -0.1616
  634MOL0     C83596   7.372  -0.211  12.032  0.6537  0.4027 -0.9883
  634MOL0     C83597   7.386  -0.278  11.897 -0.7013 -0.6482 -0.3116
  634MOL0     C83598   7.250  -0.301  11.838  0.5322  0.1422  0.6717
  634MOL0     C83599   7.250  -0.379  11.705  0.0665 -0.4105 -0.9299
  634MOL0    Cl83600   7.324  -0.533  11.731  0.2521 -0.1280  0.0859
  634MOL0     C83601   8.008   0.105  11.857  0.5425 -0.1670 -0.2771
  634MOL0     C83602   8.124   0.122  11.778 -0.2156 -0.7948  0.1412
  634MOL0     O83603   8.494   0.072  11.908 -0.0343 -0.2105  0.3701
  634MOL0     C83604   8.706   0.050  11.722  0.5771 -0.4515 -0.1807
  634MOL0     C83605   8.817   0.067  11.642 -0.0189 -0.7969  0.1697
  634MOL0     N83606   9.508   0.226  11.648  0.5692 -0.7608  0.3272
  634MOL0     N83607   9.616   0.291  11.678  0.1654  0.1916  0.2374
  634MOL0     C83608  10.729   0.137  11.288 -0.4106  0.8470  0.7717
  634MOL0     C83609  10.850   0.153  11.215 -0.1265 -0.2947  0.2715
  634MOL0     C83610  11.173   0.324  10.990 -1.1550 -0.0114  0.4889
  634MOL0     C83611  11.163   0.253  10.869 -0.1741  0.7964  0.0406
  634MOL0     C83612  11.276   0.244  10.778 -0.7620 -0.4131 -0.1690
  634MOL0     C83613  11.403   0.283  10.815 -0.4508 -0.3279 -0.8110
  634MOL0     O83614  11.493   0.276  10.726  0.2599  0.8455  0.4908
  634MOL0     C83615  11.633   0.296  10.748  0.4023 -0.0285 -0.9263
  634MOL0     C83616  11.693   0.311  10.607 -0.2327  0.3376  0.1483
  634MOL0     C83617  11.846   0.333  10.613 -0.0032 -0.1576 -0.7470
  634MOL0     C83618  11.908   0.341  10.472  0.4386 -0.0159 -0.1197
  634MOL0     C83619  12.055   0.358  10.490  0.0399  1.0024 -0.3391
  634MOL0     C83620  12.173   0.376  10.509  0.2710  0.4731  0.0586
  634MOL0     C83621  11.414   0.342  10.945 -0.5676 -0.1317  0.7009
  634MOL0     C83622  11.300   0.358  11.032 -0.0003  0.2967  0.7132
  634MOL0     H83623  10.750   0.403  11.009  0.9395  1.3649  0.8104
  634MOL0     H83624  10.536   0.378  11.153  1.4624  1.4634  0.5502
  634MOL0     H83625  10.356   0.278  11.221 -0.9499  0.3410  0.5258
  634MOL0     H83626  10.408   0.401  11.342  0.1029  1.1112 -2.3667
  634MOL0     H83627  10.327   0.249  11.522 -4.3826 -0.5053  2.0858
  634MOL0     H83628  10.248   0.155  11.401  2.2516 -1.3638  2.1426
  634MOL0     H83629  10.125   0.368  11.327 -0.6073 -2.8571  0.2507
  634MOL0     H83630  10.187   0.443  11.472 -1.4527 -0.1745  0.1435
  634MOL0     H83631   9.998   0.214  11.445  0.8291  0.3912 -1.1803
  634MOL0     H83632  10.080   0.240  11.601  1.5431 -3.2825 -1.5962
  634MOL0     H83633   9.989   0.467  11.612 -3.0258  1.6910 -2.0185
  634MOL0     H83634   9.874   0.325  11.630 -1.3997 -2.3382 -2.2626
  634MOL0     H83635   9.776   0.382  11.422  3.1541 -2.8878 -2.2951
  634MOL0     H83636   9.900   0.496  11.365 -0.9028  0.6244 -0.3379
  634MOL0     H83637   9.852   0.646  11.541  1.6301 -1.1256 -1.7461
  634MOL0     H83638   9.716   0.604  11.432 -0.4744 -0.5232  0.5187
  634MOL0     H83639   9.641   0.619  11.659  1.1548  1.8260 -1.5913
  634MOL0     H83640   9.755   0.515  11.721 -2.5882 -2.0695  0.7754
  634MOL0     H83641   9.486   0.480  11.441  1.2652 -0.1231 -0.6492
  634MOL0     H83642   9.294   0.138  11.499  0.7194  0.1374  0.8701
  634MOL0     H83643   9.312   0.250  11.367  1.2891  0.1328 -0.1252
  634MOL0     H83644   9.224   0.420  11.550  1.4781  0.9016 -2.7778
  634MOL0     H83645   9.208   0.279  11.656 -0.6717  0.5530 -0.1286
  634MOL0     H83646   8.991   0.305  11.577 -1.5251 -1.2926  0.0720
  634MOL0     H83647   9.048   0.339  11.408 -0.2806  0.6794  0.6928
  634MOL0     H83648   9.051   0.059  11.534 -0.1377  0.9924  0.2498
  634MOL0     H83649   9.098   0.104  11.371 -0.7199 -2.9088  0.6480
  634MOL0     H83650   8.658   0.116  11.351 -0.2624  0.7613  0.1716
  634MOL0     H83651   8.467   0.141  11.509 -1.5748  0.6151  2.3573
  634MOL0     H83652   8.320  -0.115  11.916  1.0329  1.5549  1.0688
  634MOL0     H83653   8.111  -0.156  12.050 -4.8518 -0.9645 -0.8009
  634MOL0     H83654   7.942  -0.102  12.210 -2.1389  1.4070  0.1808
  634MOL0     H83655   7.918  -0.219  12.072  0.8406  0.5308 -2.7888
  634MOL0     H83656   7.707  -0.058  12.217 -3.3811  0.2918 -2.7821
  634MOL0     H83657   7.752  -0.228  12.246  1.7233  0.2957  0.0099
  634MOL0     H83658   7.676  -0.247  11.995  1.6571  0.7532  0.4019
  634MOL0     H83659   7.629  -0.079  12.015 -0.9232  0.0674 -0.4564
  634MOL0     H83660   7.497  -0.327  12.144 -2.0337  0.7297  0.6689
  634MOL0     H83661   7.486  -0.166  12.222 -0.4044  1.2684 -0.4887
  634MOL0     H83662   7.341  -0.107  12.022  0.3378  0.2037 -2.2992
  634MOL0     H83663   7.286  -0.261  12.077 -1.8454  2.6833 -2.9334
  634MOL0     H83664   7.445  -0.369  11.912 -0.0207 -0.1863 -0.1451
  634MOL0     H83665   7.443  -0.216  11.827 -1.4224  1.6204  1.0245
  634MOL0     H83666   7.187  -0.352  11.911 -1.7046  2.3801  0.4127
  634MOL0     H83667   7.196  -0.207  11.831 -2.8028 -1.5668  1.4378
  634MOL0     H83668   7.311  -0.332  11.627 -1.2732 -2.9558 -3.7286
  634MOL0     H83669   7.148  -0.384  11.668 -0.1115 -1.2360 -0.3482
  634MOL0     H83670   7.920   0.166  11.838 -0.1212 -0.5772  1.2937
  634MOL0     H83671   8.128   0.207  11.710 -0.1260  0.8685  2.1171
  634MOL0     H83672   8.725   0.020  11.825  0.7461  1.1177  0.2679
  634MOL0     H83673   8.916   0.077  11.686  0.6372  0.2940 -1.4495
  634MOL0     H83674  10.719   0.055  11.359 -0.2957 -0.6025 -0.8301
  634MOL0     H83675  10.937   0.088  11.215  0.8158  0.8803 -0.8798
  634MOL0     H83676  11.067   0.211  10.840 -0.3920 -0.0645  1.8199
  634MOL0     H83677  11.268   0.193  10.682  1.5651 -2.2359  0.5089
  634MOL0     H83678  11.678   0.215  10.808 -1.2850  1.6403  2.9040
  634MOL0     H83679  11.651   0.385  10.809 -0.3337 -0.6657  0.2481
  634MOL0     H83680  11.669   0.218  10.555  1.0717 -0.8852  1.6570
  634MOL0     H83681  11.647   0.396  10.556  2.1341  1.4926 -0.1869
  634MOL0     H83682  11.895   0.249  10.662 -0.9906  0.2550  1.0493
  634MOL0     H83683  11.881   0.421  10.668  2.1854 -2.6024  2.1049
  634MOL0     H83684  11.897   0.245  10.420 -1.1239  0.2941 -0.4060
  634MOL0     H83685  11.866   0.428  10.421  2.7616  1.9401  1.0685
  634MOL0     H83686  12.275   0.391  10.537  0.4814 -1.2623  0.3247
  634MOL0     H83687  11.505   0.391  10.978  0.3059 -0.7881 -0.6379
  634MOL0     H83688  11.309   0.416  11.123 -0.0168 -0.6069  1.2978
  635MOL0     O83689   0.417   3.078   1.814 -0.3185  0.2890  0.3332
  635MOL0     C83690   0.397   3.118   1.927  0.3509 -0.4049 -0.9050
  635MOL0     O83691   0.496   3.137   2.019 -0.1517  0.2610  0.1134
  635MOL0     C83692   0.628   3.139   1.984  0.4983 -0.5813  1.0101
  635MOL0     C83693   0.716   3.084   2.072 -0.0279 -0.2623 -0.4488
  635MOL0     C83694   0.849   3.084   2.048 -0.1947  1.3750 -0.0012
  635MOL0     C83695   0.898   3.134   1.929 -0.7079 -0.2309 -0.1225
  635MOL0     O83696   1.031   3.159   1.909  0.3707  1.0258  0.6544
  635MOL0     C83697   1.125   3.094   1.990  0.2848  0.3979  0.0728
  635MOL0     C83698   1.161   3.164   2.124 -0.7739 -0.3357 -0.3111
  635MOL0     C83699   1.215   3.308   2.106 -0.9971  0.1068  0.3420
  635MOL0     C83700   1.260   3.374   2.243 -0.2196 -0.7177 -1.3079
  635MOL0     C83701   1.335   3.493   2.215  0.1494  0.7731  0.2712
  635MOL0     C83702   1.369   3.581   2.337  0.3386  0.3188  0.8822
  635MOL0     C83703   1.440   3.707   2.282  0.3493 -0.5517  0.0758
  635MOL0     C83704   1.525   3.770   2.391 -0.2384  0.1754  0.7624
  635MOL0     N83705   1.457   3.806   2.508 -0.4041 -0.2414  0.2147
  635MOL0     C83706   1.344   3.881   2.507  0.3521  0.1119  0.3620
  635MOL0     C83707   1.306   3.904   2.633  0.0403  0.0791  0.2066
  635MOL0     C83708   1.188   3.978   2.691 -0.2425  0.3950 -0.5326
  635MOL0     C83709   1.077   3.879   2.674 -0.5091  0.0383  0.1468
  635MOL0     C83710   1.031   3.851   2.531 -0.3088 -0.1924 -0.6129
  635MOL0     C83711   0.880   3.818   2.518  0.0103  0.5500  0.2694
  635MOL0     O83712   0.814   3.920   2.587  0.2572  0.0432 -0.2172
  635MOL0     C83713   0.686   3.905   2.613  0.4529 -0.0801 -0.0943
  635MOL0     C83714   0.611   3.800   2.553 -0.8951 -1.1150  0.3195
  635MOL0     C83715   0.475   3.783   2.570  0.4246  0.0184  0.2763
  635MOL0     C83716   0.399   3.877   2.647  0.4230  0.0412 -0.0013
  635MOL0     C83717   0.258   3.860   2.681  0.1070  0.4718  0.1898
  635MOL0     O83718   0.190   3.968   2.733  0.5039  0.7274  0.1968
  635MOL0     C83719   0.061   3.939   2.760  0.9603  0.6666  0.0110
  635MOL0     C83720   0.022   3.931   2.892  0.4254 -0.5593 -0.3905
  635MOL0     C83721  -0.115   3.928   2.930 -0.5345  0.7204  1.0886
  635MOL0     C83722  -0.209   3.916   2.829 -0.1891 -0.3112 -0.7791
  635MOL0     O83723  -0.327   3.877   2.885  0.0231  0.2913  0.7683
  635MOL0     C83724  -0.436   3.843   2.801  0.8310 -0.4518 -0.1490
  635MOL0     C83725  -0.563   3.817   2.888 -0.3665  0.9828 -0.3511
  635MOL0     C83726  -0.693   3.820   2.810  0.8693  0.1502 -0.6717
  635MOL0     C83727  -0.811   3.789   2.899  0.2084  0.4544 -0.2916
  635MOL0     C83728  -0.935   3.798   2.804 -0.1978  0.7013  0.2832
  635MOL0     C83729  -1.061   3.758   2.864  0.2154  0.0631  0.1048
  635MOL0     C83730  -1.178   3.768   2.770 -0.6972 -0.5553 -0.5555
  635MOL0     C83731  -1.304   3.790   2.848  0.0336  0.1123 -0.6405
  635MOL0    Cl83732  -1.313   3.683   2.998  0.5122 -0.0266 -0.5496
  635MOL0     C83733  -0.178   3.913   2.695 -0.2336  0.0833  0.4064
  635MOL0     C83734  -0.039   3.929   2.662 -0.4791  0.0761  0.7460
  635MOL0     O83735   0.214   3.745   2.658  0.7052  0.4057  0.1257
  635MOL0     C83736   0.471   3.986   2.699  0.4050 -0.0044  0.2419
  635MOL0     C83737   0.610   4.002   2.685 -0.0465 -0.3271 -0.4746
  635MOL0     N83738   1.405   3.842   2.707 -0.5474  0.3401  0.0963
  635MOL0     N83739   1.496   3.781   2.634  0.6078  0.2362 -0.2710
  635MOL0     C83740   0.816   3.185   1.830 -1.1533  0.0435  0.1642
  635MOL0     C83741   0.675   3.198   1.858  0.7055 -0.1839 -0.6657
  635MOL0     C83742   0.263   3.157   1.965  0.3651  0.3542 -0.1016
  635MOL0     C83743   0.243   3.277   2.021  0.1768  0.5306 -0.2434
  635MOL0     C83744   0.113   3.331   2.048  0.7208 -0.1770  0.5199
  635MOL0     C83745   0.007   3.249   2.004 -0.7712 -0.6163 -0.1219
  635MOL0     O83746  -0.121   3.291   2.034  0.6850  0.6698  0.6096
  635MOL0     C83747  -0.159   3.398   1.952  0.0883 -0.2120  0.2150
  635MOL0     C83748  -0.213   3.349   1.819  0.9603 -0.3921  0.6739
  635MOL0     C83749  -0.156   3.443   1.709 -0.2707 -0.1345  0.3840
  635MOL0     C83750  -0.211   3.585   1.721  0.0413  0.0651  0.7941
  635MOL0     C83751  -0.161   3.674   1.619  0.8925 -0.7738  0.3295
  635MOL0     C83752  -0.115   3.765   1.545  0.1287  0.1438 -0.5377
  635MOL0     C83753   0.021   3.127   1.946 -0.6282  1.1892  1.1947
  635MOL0     C83754   0.151   3.078   1.923  0.5065 -0.4530  0.2316
  635MOL0     H83755   0.672   3.034   2.157 -2.3166  2.7761  0.3519
  635MOL0     H83756   0.915   3.052   2.127 -1.2767  0.0179  0.3834
  635MOL0     H83757   1.217   3.089   1.932  0.0411 -1.4337 -0.2296
  635MOL0     H83758   1.097   2.990   2.010 -0.5483  1.0915  3.1589
  635MOL0     H83759   1.229   3.101   2.182 -1.4108 -0.3338  0.4607
  635MOL0     H83760   1.074   3.173   2.189  0.1863 -1.9892  1.3035
  635MOL0     H83761   1.142   3.378   2.063 -0.3368  2.0573  2.2191
  635MOL0     H83762   1.299   3.296   2.038  0.4208  1.3815  1.7834
  635MOL0     H83763   1.173   3.394   2.307  0.6310  2.1986 -0.9351
  635MOL0     H83764   1.326   3.308   2.300 -0.4907 -1.1599 -1.5013
  635MOL0     H83765   1.267   3.541   2.144  0.8934 -0.2362 -1.1747
  635MOL0     H83766   1.425   3.473   2.155  1.4826  2.4199  1.6368
  635MOL0     H83767   1.432   3.512   2.393 -1.1104 -2.5401 -0.8102
  635MOL0     H83768   1.282   3.602   2.400  0.4721  1.7176  0.6486
  635MOL0     H83769   1.507   3.688   2.198  0.5815 -0.6377  0.2810
  635MOL0     H83770   1.356   3.765   2.243  1.8079  1.3806 -0.3459
  635MOL0     H83771   1.570   3.858   2.343  0.6464 -1.4572 -1.5875
  635MOL0     H83772   1.608   3.704   2.416  0.1011  0.8773  1.5501
  635MOL0     H83773   1.292   3.912   2.417  0.5789  0.2323  0.2732
  635MOL0     H83774   1.168   4.075   2.643 -0.2947  1.0416  0.7493
  635MOL0     H83775   1.194   4.000   2.798  0.4801 -1.7922 -0.0767
  635MOL0     H83776   0.990   3.915   2.731 -1.2010  0.4209 -1.0946
  635MOL0     H83777   1.114   3.788   2.720 -2.4658  0.6792  3.3420
  635MOL0     H83778   1.034   3.940   2.467  0.6312  1.4819  1.5965
  635MOL0     H83779   1.098   3.777   2.486  0.5505  0.0606  0.2221
  635MOL0     H83780   0.869   3.728   2.579  2.4386  1.3217  1.9699
  635MOL0     H83781   0.855   3.799   2.413  2.2662  0.9813 -0.3982
  635MOL0     H83782   0.665   3.747   2.475 -1.3129  0.6801 -1.2671
  635MOL0     H83783   0.432   3.690   2.532 -0.9493  0.0094  1.7480
  635MOL0     H83784   0.092   3.938   2.975 -0.1064  1.4066 -0.0599
  635MOL0     H83785  -0.150   3.936   3.032 -0.8712 -2.0387  1.2701
  635MOL0     H83786  -0.415   3.766   2.726 -0.8753  0.3400 -1.5145
  635MOL0     H83787  -0.464   3.924   2.733  1.4895  1.5639  1.8813
  635MOL0     H83788  -0.570   3.888   2.971 -2.0305  2.1747 -1.4425
  635MOL0     H83789  -0.556   3.711   2.912 -0.3396  0.0879 -3.7584
  635MOL0     H83790  -0.690   3.740   2.734  0.2105  0.3957 -0.9602
  635MOL0     H83791  -0.692   3.919   2.763  1.3889  0.2856 -0.3871
  635MOL0     H83792  -0.800   3.691   2.948 -0.8686  0.6805  0.4376
  635MOL0     H83793  -0.816   3.869   2.973  3.2688  0.5690 -0.0862
  635MOL0     H83794  -0.933   3.729   2.718  1.3455 -0.9145  1.5464
  635MOL0     H83795  -0.946   3.902   2.773  3.4109  1.8655  2.3648
  635MOL0     H83796  -1.095   3.811   2.953  0.3614  0.9757 -0.3798
  635MOL0     H83797  -1.051   3.655   2.900 -0.0157  0.1400  0.3976
  635MOL0     H83798  -1.175   3.856   2.704  1.0427 -2.1008 -2.6628
  635MOL0     H83799  -1.183   3.672   2.718  1.1318 -0.8718 -0.1939
  635MOL0     H83800  -1.389   3.781   2.781 -1.0893  3.0724  0.2026
  635MOL0     H83801  -1.313   3.895   2.878  1.6089  0.4563 -1.2682
  635MOL0     H83802  -0.255   3.899   2.619  1.7589 -2.1077 -1.3580
  635MOL0     H83803   0.004   3.932   2.562  0.2252  1.2124  1.0653
  635MOL0     H83804   0.417   4.061   2.756  2.0695  1.3065  0.1548
  635MOL0     H83805   0.656   4.091   2.726 -2.2791 -0.4123  2.5249
  635MOL0     H83806   0.859   3.231   1.742 -0.6324  1.0055  0.9013
  635MOL0     H83807   0.598   3.239   1.794  0.9180 -0.3623 -1.0384
  635MOL0     H83808   0.332   3.336   2.043  0.7166 -1.2736  2.8920
  635MOL0     H83809   0.101   3.420   2.109  0.6498  0.3546 -0.2566
  635MOL0     H83810  -0.084   3.477   1.942  0.7013 -0.8290 -0.2022
  635MOL0     H83811  -0.244   3.448   1.999 -1.2304 -2.2274  0.1300
  635MOL0     H83812  -0.191   3.245   1.793  0.7084 -0.4384  0.6449
  635MOL0     H83813  -0.322   3.346   1.813  1.0697 -1.9065 -2.5190
  635MOL0     H83814  -0.192   3.401   1.614 -2.2177  0.5398  0.7994
  635MOL0     H83815  -0.046   3.442   1.712 -0.1988 -1.3989 -1.2539
  635MOL0     H83816  -0.318   3.568   1.710  0.4233 -1.8440 -0.6707
  635MOL0     H83817  -0.191   3.635   1.817  0.4172  0.7352  0.3702
  635MOL0     H83818  -0.067   3.836   1.480 -1.0498  1.2986 -0.1983
  635MOL0     H83819  -0.064   3.063   1.923 -0.3033  1.6533 -1.6579
  635MOL0     H83820   0.152   2.985   1.868 -3.7158 -0.4225 -0.1761
  636MOL0     O83821   9.424   8.352   3.147  0.1869  0.4294 -0.1622
  636MOL0     C83822   9.480   8.442   3.211 -0.1371 -0.6568  0.2143
  636MOL0     O83823   9.425   8.540   3.288  0.3514  0.3993  0.2923
  636MOL0     C83824   9.295   8.555   3.307  0.5153 -0.6254 -0.2768
  636MOL0     C83825   9.188   8.469   3.283 -0.3939  0.5449  0.4245
  636MOL0     C83826   9.061   8.507   3.313 -0.5468 -0.3876 -0.2438
  636MOL0     C83827   9.032   8.626   3.378 -0.3117 -0.0678 -0.4078
  636MOL0     O83828   8.906   8.652   3.423 -0.2028 -0.2673 -0.0458
  636MOL0     C83829   8.874   8.782   3.478 -0.4586 -0.6710 -0.5575
  636MOL0     C83830   8.733   8.787   3.538 -0.0328  0.1328  0.0056
  636MOL0     C83831   8.641   8.714   3.437  0.3634 -0.2272  0.1221
  636MOL0     C83832   8.496   8.745   3.481  0.1035  0.4673  0.1598
  636MOL0     C83833   8.376   8.712   3.379  0.6133 -0.8541  0.4451
  636MOL0     C83834   8.248   8.731   3.462  0.2402 -0.5117  0.0935
  636MOL0     C83835   8.117   8.742   3.378  0.3149  0.5210 -0.1882
  636MOL0     C83836   8.001   8.800   3.451  0.6801 -0.2255  0.6436
  636MOL0     N83837   7.887   8.810   3.366  0.2035  0.3183 -0.5169
  636MOL0     C83838   7.844   8.914   3.288 -0.6221 -0.6618 -0.0989
  636MOL0     C83839   7.746   8.866   3.216  0.8462  0.0118  0.8570
  636MOL0     C83840   7.667   8.936   3.103  0.2225 -0.7772 -0.7513
  636MOL0     C83841   7.586   8.832   3.014 -0.6363 -0.0060 -0.0693
  636MOL0     C83842   7.535   8.891   2.885  0.5301  0.2337  0.2527
  636MOL0     C83843   7.463   9.025   2.902 -0.0883 -0.3017 -0.2417
  636MOL0     O83844   7.370   9.008   3.000  0.2695  0.3784  0.8217
  636MOL0     C83845   7.286   9.117   3.026  1.0303 -0.3570  0.1558
  636MOL0     C83846   7.272   9.232   2.956  0.2750 -0.7449  0.1188
  636MOL0     C83847   7.184   9.327   2.997 -0.0463 -0.0873 -1.3598
  636MOL0     C83848   7.105   9.314   3.115  0.6425  0.1173 -0.0886
  636MOL0     C83849   7.013   9.423   3.162 -0.6653  0.7401 -0.2804
  636MOL0     O83850   6.907   9.381   3.246  0.1860  0.8626  0.2050
  636MOL0     C83851   6.821   9.485   3.270  0.1117 -0.0757  0.5874
  636MOL0     C83852   6.808   9.530   3.404  0.4487 -0.2224 -0.1307
  636MOL0     C83853   6.719   9.642   3.426 -0.0822  0.0511 -0.0387
  636MOL0     C83854   6.626   9.686   3.333 -0.1429  0.5577  0.1946
  636MOL0     O83855   6.531   9.773   3.377 -0.3701 -0.1999  0.2165
  636MOL0     C83856   6.431   9.826   3.288  0.8777  0.1107 -0.9136
  636MOL0     C83857   6.323   9.889   3.375 -0.1959  0.7879 -0.4673
  636MOL0     C83858   6.233   9.789   3.449 -0.4449 -0.2794  0.4202
  636MOL0     C83859   6.128   9.743   3.347 -0.1973 -0.0384 -0.7981
  636MOL0     C83860   6.041   9.632   3.412 -0.9714 -0.4793  0.1784
  636MOL0     C83861   5.914   9.628   3.339  0.1244 -0.1014 -0.5844
  636MOL0     C83862   5.807   9.696   3.425 -0.6985 -0.3626 -0.1088
  636MOL0     C83863   5.672   9.653   3.370  0.0271 -0.7227  0.4248
  636MOL0    Cl83864   5.643   9.478   3.414 -0.0096  0.2536  0.3928
  636MOL0     C83865   6.640   9.638   3.203  0.4330 -0.6225  0.0780
  636MOL0     C83866   6.729   9.534   3.179 -0.9742 -0.6577  0.0620
  636MOL0     O83867   7.038   9.543   3.135 -0.1574  0.4808  0.1264
  636MOL0     C83868   7.112   9.191   3.183  0.2400 -0.3898  0.2907
  636MOL0     C83869   7.208   9.094   3.141 -0.4195  0.2310 -0.5569
  636MOL0     N83870   7.713   8.733   3.260 -0.3438  0.2441 -0.0326
  636MOL0     N83871   7.801   8.708   3.350 -0.5181  0.3943 -0.4885
  636MOL0     C83872   9.139   8.722   3.392  0.3727 -0.2688  0.1170
  636MOL0     C83873   9.266   8.682   3.359  0.0340  0.4484  0.1343
  636MOL0     C83874   9.627   8.447   3.206  0.0545  0.4587 -0.0043
  636MOL0     C83875   9.704   8.347   3.142 -0.1110  0.9215  0.8511
  636MOL0     C83876   9.843   8.368   3.125  0.7798 -0.1699 -0.3262
  636MOL0     C83877   9.903   8.489   3.167 -0.7493  0.0287  0.1062
  636MOL0     O83878  10.038   8.491   3.142  1.1105 -0.6889 -0.6113
  636MOL0     C83879  10.127   8.586   3.214  0.6705  0.0820  0.7124
  636MOL0     C83880  10.263   8.582   3.149  0.4608 -0.6159 -0.3504
  636MOL0     C83881  10.269   8.648   3.012 -0.0446 -0.3917 -0.6688
  636MOL0     C83882  10.202   8.786   3.000 -1.3558 -0.6337  0.5097
  636MOL0     C83883  10.255   8.849   2.885 -0.0328  0.4034 -0.3261
  636MOL0     C83884  10.326   8.881   2.788  0.3084  0.3491  0.2695
  636MOL0     C83885   9.836   8.582   3.246 -0.7848  0.3524  1.2625
  636MOL0     C83886   9.694   8.559   3.251  0.2055 -0.6914  0.2865
  636MOL0     H83887   9.205   8.366   3.254  0.8139  1.0374 -0.6935
  636MOL0     H83888   8.981   8.435   3.299 -0.1874 -1.4470  2.5086
  636MOL0     H83889   8.873   8.859   3.401 -2.0388 -1.0128 -0.9114
  636MOL0     H83890   8.948   8.812   3.553  2.1333 -0.6724 -2.9306
  636MOL0     H83891   8.706   8.889   3.567 -0.2135  0.5107 -1.4209
  636MOL0     H83892   8.734   8.735   3.634  0.8563 -0.9838 -0.5774
  636MOL0     H83893   8.671   8.609   3.442  0.0720 -0.2715  1.6765
  636MOL0     H83894   8.658   8.746   3.334  1.5617  1.0638  0.6856
  636MOL0     H83895   8.476   8.687   3.571 -0.2324 -0.8354 -0.7345
  636MOL0     H83896   8.486   8.853   3.498  0.1230  1.0131 -2.6659
  636MOL0     H83897   8.387   8.609   3.344 -0.3072 -0.3305 -1.5715
  636MOL0     H83898   8.381   8.769   3.286 -1.0014 -1.4593 -0.0538
  636MOL0     H83899   8.268   8.829   3.505  0.2330 -0.4199 -0.1128
  636MOL0     H83900   8.227   8.656   3.539 -2.6165 -0.2861 -0.3552
  636MOL0     H83901   8.138   8.807   3.292  0.5462  1.8116  0.8156
  636MOL0     H83902   8.082   8.640   3.358  0.3666  0.4026  0.3304
  636MOL0     H83903   8.026   8.900   3.487 -1.0740  0.0438  1.2040
  636MOL0     H83904   7.988   8.732   3.537 -3.8331  0.1356  0.5001
  636MOL0     H83905   7.897   9.008   3.286 -1.0413 -0.3374  1.8776
  636MOL0     H83906   7.750   8.982   3.048  0.1156 -0.6891 -0.8401
  636MOL0     H83907   7.603   9.019   3.133  2.0228  0.3832  0.0514
  636MOL0     H83908   7.521   8.779   3.085  0.6591  1.6647  2.5224
  636MOL0     H83909   7.660   8.761   2.978 -2.2680 -0.2952 -3.2151
  636MOL0     H83910   7.617   8.902   2.813  1.0166 -0.8288  0.6163
  636MOL0     H83911   7.472   8.816   2.835  0.7855  1.3687 -1.8951
  636MOL0     H83912   7.405   9.045   2.811 -2.9122 -2.3745  0.9334
  636MOL0     H83913   7.538   9.102   2.921 -1.2577  0.4527  1.5951
  636MOL0     H83914   7.332   9.239   2.865  0.5607 -1.4664  0.2445
  636MOL0     H83915   7.195   9.423   2.949  1.2600  0.0471 -0.8319
  636MOL0     H83916   6.878   9.482   3.471  0.1716 -1.4360 -0.6870
  636MOL0     H83917   6.709   9.687   3.524 -0.3328  0.8962 -0.4462
  636MOL0     H83918   6.399   9.755   3.212 -0.4094 -0.3923  0.0662
  636MOL0     H83919   6.469   9.916   3.238 -1.6780  0.1813 -2.9051
  636MOL0     H83920   6.264   9.960   3.317  1.5108  1.9357 -0.8649
  636MOL0     H83921   6.376   9.949   3.450 -3.7506  2.5808  0.8299
  636MOL0     H83922   6.180   9.840   3.531 -1.1509 -0.2255 -0.0647
  636MOL0     H83923   6.299   9.711   3.489 -0.0637  0.4889  1.3480
  636MOL0     H83924   6.066   9.824   3.307  0.8953  0.1598 -2.1804
  636MOL0     H83925   6.184   9.712   3.258 -1.1265  0.0591 -1.4396
  636MOL0     H83926   6.018   9.630   3.519 -2.1025 -1.0590 -0.0640
  636MOL0     H83927   6.092   9.536   3.395  0.5566 -0.0113  1.7335
  636MOL0     H83928   5.886   9.523   3.326 -1.6391  0.1841  0.4765
  636MOL0     H83929   5.915   9.686   3.247  2.1937 -0.4079 -0.7984
  636MOL0     H83930   5.809   9.673   3.532  0.8799  3.1177  0.7508
  636MOL0     H83931   5.826   9.802   3.409 -2.2990 -0.2891 -1.8718
  636MOL0     H83932   5.686   9.676   3.264  3.8092  1.5066  1.2381
  636MOL0     H83933   5.584   9.711   3.397 -0.1156 -0.7191 -0.0343
  636MOL0     H83934   6.573   9.685   3.132  0.7171  1.6511  1.1987
  636MOL0     H83935   6.741   9.502   3.076 -0.6756  2.2869 -0.9250
  636MOL0     H83936   7.052   9.179   3.273 -1.2874  1.2557 -0.4372
  636MOL0     H83937   7.216   9.006   3.205 -0.4115  0.3640 -0.3746
  636MOL0     H83938   9.134   8.821   3.435 -0.7530 -1.0760  1.9790
  636MOL0     H83939   9.353   8.744   3.377  0.2297  0.9457 -2.3014
  636MOL0     H83940   9.657   8.253   3.114  1.7342  0.1288  0.2479
  636MOL0     H83941   9.911   8.300   3.074 -0.7286 -1.6673 -0.4621
  636MOL0     H83942  10.133   8.557   3.319 -2.3121 -0.5408  0.7931
  636MOL0     H83943  10.084   8.686   3.201  0.7059 -0.1207 -1.3134
  636MOL0     H83944  10.334   8.635   3.214  1.7900 -3.1325  0.4028
  636MOL0     H83945  10.289   8.478   3.128 -1.1327 -1.3016  0.8490
  636MOL0     H83946  10.228   8.584   2.933 -1.9451 -0.3287  0.2024
  636MOL0     H83947  10.376   8.654   2.991  0.2209 -2.6267 -0.2046
  636MOL0     H83948  10.093   8.780   3.006 -1.6089  2.0858 -0.0686
  636MOL0     H83949  10.228   8.839   3.092  0.5518  2.2856 -1.5527
  636MOL0     H83950  10.369   8.926   2.701  1.6226  1.7500  1.5813
  636MOL0     H83951   9.892   8.668   3.279  1.2568  0.1634 -1.3913
  636MOL0     H83952   9.637   8.643   3.289 -0.8802 -0.6115 -1.4310
  637MOL0     O83953   6.067   5.968   3.972  0.0193 -0.7280  0.6288
  637MOL0     C83954   6.061   5.996   3.851  0.7178  0.6127 -0.3195
  637MOL0     O83955   6.152   6.071   3.776  0.1769  0.2643  0.0983
  637MOL0     C83956   6.263   6.102   3.845  0.2740 -1.2522 -0.2095
  637MOL0     C83957   6.382   6.029   3.827 -0.4213 -0.1594  0.0428
  637MOL0     C83958   6.503   6.058   3.885  0.0008  0.3158  0.6683
  637MOL0     C83959   6.504   6.161   3.984 -0.3811 -0.2608 -0.6674
  637MOL0     O83960   6.618   6.182   4.044  0.6242  0.0479 -0.0723
  637MOL0     C83961   6.664   6.315   4.012 -0.6436 -0.1747  0.9667
  637MOL0     C83962   6.804   6.329   4.070  0.7223  0.0784  0.5450
  637MOL0     C83963   6.873   6.465   4.064  0.5232  0.1028  0.7061
  637MOL0     C83964   7.017   6.442   4.112  0.6138  0.2570 -0.9561
  637MOL0     C83965   7.090   6.578   4.107  0.7523 -0.0754  0.4857
  637MOL0     C83966   7.241   6.548   4.122  0.0159 -0.6621 -1.0485
  637MOL0     C83967   7.324   6.672   4.112  0.5301 -0.1282  0.1181
  637MOL0     C83968   7.318   6.747   4.247  0.0886 -0.4311 -0.0714
  637MOL0     N83969   7.387   6.880   4.236  1.0275  0.5255  1.2111
  637MOL0     C83970   7.347   6.981   4.157  0.3570  1.0463 -0.1578
  637MOL0     C83971   7.432   7.077   4.181 -0.1460  0.1942  0.7932
  637MOL0     C83972   7.425   7.220   4.134  0.3810  0.0314 -0.5080
  637MOL0     C83973   7.458   7.327   4.244 -0.5959 -0.6606 -0.4892
  637MOL0     C83974   7.378   7.340   4.370  0.1324  0.0686 -0.0636
  637MOL0     C83975   7.232   7.382   4.344 -0.1676  0.8191 -0.0500
  637MOL0     O83976   7.170   7.441   4.456 -0.0952  0.0973 -0.2016
  637MOL0     C83977   7.033   7.468   4.450  0.9133 -0.2163 -0.0919
  637MOL0     C83978   6.936   7.433   4.348  0.2927 -0.5930  0.0716
  637MOL0     C83979   6.802   7.468   4.360 -0.5853 -0.5182  0.0473
  637MOL0     C83980   6.751   7.537   4.471  0.5193 -0.0964  0.1922
  637MOL0     C83981   6.601   7.563   4.478  0.3208  0.1911  0.5901
  637MOL0     O83982   6.531   7.531   4.371  0.5556 -0.3505 -0.2032
  637MOL0     C83983   6.392   7.515   4.366 -0.0107 -0.0756  0.8572
  637MOL0     C83984   6.349   7.452   4.250  0.5685 -0.4192 -0.2411
  637MOL0     C83985   6.212   7.411   4.244  0.0712 -0.7349 -0.1479
  637MOL0     C83986   6.117   7.445   4.341  1.1423 -0.1827  0.5840
  637MOL0     O83987   5.984   7.408   4.309 -0.8145  0.2014 -0.5116
  637MOL0     C83988   5.880   7.465   4.388  0.0844 -0.0560 -0.3358
  637MOL0     C83989   5.747   7.400   4.359 -0.2556  0.1871  0.0228
  637MOL0     C83990   5.629   7.440   4.454 -1.0909  0.0913  0.0813
  637MOL0     C83991   5.511   7.335   4.460  0.3918  0.3415  0.1433
  637MOL0     C83992   5.373   7.378   4.523 -0.5498  0.1185 -0.5297
  637MOL0     C83993   5.286   7.250   4.546  0.6186  0.2164  0.4331
  637MOL0     C83994   5.140   7.277   4.593 -0.3933 -0.6146  1.3854
  637MOL0     C83995   5.033   7.319   4.493  0.0816 -0.2967  0.6001
  637MOL0    Cl83996   5.004   7.206   4.359  0.2796 -0.0795 -0.6244
  637MOL0     C83997   6.166   7.497   4.456 -0.4030 -0.5435  0.0413
  637MOL0     C83998   6.300   7.534   4.468  0.2877 -0.5084 -0.1648
  637MOL0     O83999   6.554   7.625   4.566 -0.0631 -0.6439 -0.0186
  637MOL0     C84000   6.833   7.555   4.584  0.1074 -0.1652 -0.3917
  637MOL0     C84001   6.967   7.528   4.565 -0.0577 -0.5376  0.2561
  637MOL0     N84002   7.537   7.027   4.254  0.0717  0.3441  0.3375
  637MOL0     N84003   7.502   6.911   4.298  0.3395  0.1283  0.3001
  637MOL0     C84004   6.389   6.249   4.000 -0.6447 -0.1277  0.0977
  637MOL0     C84005   6.271   6.210   3.935  0.1446 -0.4440  0.7204
  637MOL0     C84006   5.956   5.945   3.770  0.1305 -0.4503  0.1388
  637MOL0     C84007   5.972   5.896   3.634 -0.1497 -0.4559 -0.0386
  637MOL0     C84008   5.863   5.837   3.563  0.0130 -0.5595 -0.1959
  637MOL0     C84009   5.736   5.833   3.621 -0.6480  0.3085  0.0919
  637MOL0     O84010   5.639   5.777   3.552  0.4691 -0.4456 -0.1065
  637MOL0     C84011   5.577   5.669   3.620 -0.2956 -0.4099 -0.2083
  637MOL0     C84012   5.486   5.587   3.532  0.9114  0.9096 -0.7194
  637MOL0     C84013   5.450   5.461   3.606 -0.2305 -0.2649 -0.5374
  637MOL0     C84014   5.406   5.332   3.531  0.8669  0.6320 -0.2863
  637MOL0     C84015   5.284   5.367   3.459  0.0453  0.6195  0.4321
  637MOL0     C84016   5.186   5.405   3.402  0.1451 -0.2403  0.0546
  637MOL0     C84017   5.715   5.879   3.751  0.1177  0.7917 -0.4270
  637MOL0     C84018   5.829   5.934   3.820 -0.1926 -0.7395  0.0305
  637MOL0     H84019   6.376   5.948   3.755 -0.8095  0.2281 -0.3683
  637MOL0     H84020   6.593   5.998   3.871 -1.0011 -1.7996  2.6475
  637MOL0     H84021   6.602   6.393   4.058 -2.1035 -0.8711  0.2475
  637MOL0     H84022   6.671   6.328   3.903 -1.7857 -5.0745  0.0770
  637MOL0     H84023   6.865   6.253   4.021 -1.0059 -0.3803 -1.0266
  637MOL0     H84024   6.799   6.301   4.176 -0.3872 -1.6758  0.0705
  637MOL0     H84025   6.822   6.534   4.131  0.9194  1.0785  0.0304
  637MOL0     H84026   6.873   6.504   3.962  0.0494  1.4627  1.2123
  637MOL0     H84027   7.030   6.399   4.211 -1.1998 -2.5408 -1.8192
  637MOL0     H84028   7.057   6.376   4.034 -1.9265 -1.7542 -0.6921
  637MOL0     H84029   7.051   6.636   4.191 -2.4620 -2.5526  0.9087
  637MOL0     H84030   7.060   6.628   4.014  0.9563 -2.0695 -0.7377
  637MOL0     H84031   7.274   6.481   4.042  1.1238 -3.1119  1.2965
  637MOL0     H84032   7.271   6.501   4.217  1.2781 -0.5484 -1.3791
  637MOL0     H84033   7.425   6.643   4.083  0.2698  1.3609 -2.5368
  637MOL0     H84034   7.276   6.733   4.035 -1.4290 -1.5562  0.1201
  637MOL0     H84035   7.366   6.686   4.324 -0.1133 -0.5678 -0.0519
  637MOL0     H84036   7.213   6.761   4.276 -1.1907 -1.6363 -3.6209
  637MOL0     H84037   7.259   6.982   4.094  0.4263 -1.0444 -0.3703
  637MOL0     H84038   7.324   7.247   4.100 -0.0970  0.1709  0.9618
  637MOL0     H84039   7.492   7.232   4.049  0.5612 -0.0703 -0.3798
  637MOL0     H84040   7.461   7.427   4.200  1.4833  1.3576  3.6412
  637MOL0     H84041   7.564   7.313   4.269 -1.5387 -1.1976  4.0690
  637MOL0     H84042   7.386   7.249   4.430 -1.1606 -0.9638 -1.3869
  637MOL0     H84043   7.425   7.421   4.425  0.1475  1.1731 -1.6269
  637MOL0     H84044   7.186   7.285   4.326 -0.7950  0.3216  3.5577
  637MOL0     H84045   7.221   7.459   4.266 -0.5489  0.7436 -0.0724
  637MOL0     H84046   6.972   7.388   4.256 -0.3343 -1.3005  0.1706
  637MOL0     H84047   6.727   7.447   4.284  0.7035 -0.6678 -1.2206
  637MOL0     H84048   6.413   7.417   4.170 -0.5890 -0.9910 -0.9442
  637MOL0     H84049   6.188   7.361   4.150  1.4324  1.1847 -1.6027
  637MOL0     H84050   5.868   7.573   4.373 -1.5702  0.0524  1.4605
  637MOL0     H84051   5.895   7.443   4.494 -4.6451  1.7035  0.9208
  637MOL0     H84052   5.764   7.293   4.373  0.9548  0.1002 -1.8251
  637MOL0     H84053   5.724   7.419   4.254  3.8444  2.4704 -0.6822
  637MOL0     H84054   5.598   7.539   4.419  1.4006  1.2820  0.9818
  637MOL0     H84055   5.654   7.460   4.558  0.0243 -0.5442 -0.0495
  637MOL0     H84056   5.489   7.289   4.364 -0.3006 -1.2025  1.0162
  637MOL0     H84057   5.548   7.245   4.510 -0.4694  0.1329  0.4088
  637MOL0     H84058   5.317   7.451   4.463 -0.0890  0.4188 -0.5996
  637MOL0     H84059   5.390   7.441   4.611 -1.3306 -0.3466 -0.0366
  637MOL0     H84060   5.344   7.193   4.619 -0.3396 -1.9858 -0.4262
  637MOL0     H84061   5.267   7.183   4.461 -3.9984  1.7544 -0.0486
  637MOL0     H84062   5.100   7.183   4.633 -4.5373 -0.3557 -1.5061
  637MOL0     H84063   5.147   7.353   4.671  2.0205  0.1207  0.5170
  637MOL0     H84064   5.061   7.414   4.447 -0.8364 -0.5818 -0.5905
  637MOL0     H84065   4.945   7.345   4.552 -1.8887 -0.7607 -1.9707
  637MOL0     H84066   6.103   7.506   4.544 -2.7038 -2.5389 -1.2880
  637MOL0     H84067   6.333   7.583   4.558 -1.2202  0.6011 -0.1765
  637MOL0     H84068   6.815   7.589   4.685  1.4047  0.4441 -0.3500
  637MOL0     H84069   7.031   7.554   4.648  0.7667 -1.1089 -0.1932
  637MOL0     H84070   6.395   6.327   4.075 -0.6459 -0.7123  0.7143
  637MOL0     H84071   6.182   6.264   3.966  0.6494 -0.7137  2.8150
  637MOL0     H84072   6.068   5.897   3.584 -1.3898 -2.5463 -2.7277
  637MOL0     H84073   5.870   5.783   3.469  1.3378 -0.2674 -0.2873
  637MOL0     H84074   5.514   5.711   3.699 -2.0099  1.4875 -2.4540
  637MOL0     H84075   5.660   5.611   3.663  1.8539  1.7093 -1.2310
  637MOL0     H84076   5.394   5.641   3.506 -1.1156 -0.8395  2.1767
  637MOL0     H84077   5.533   5.565   3.436  1.2195  2.3609 -0.9241
  637MOL0     H84078   5.365   5.490   3.668 -0.1811 -0.7147 -0.2522
  637MOL0     H84079   5.539   5.428   3.660  0.5915  0.7853 -1.2259
  637MOL0     H84080   5.487   5.285   3.474 -0.7783  0.2078 -2.4007
  637MOL0     H84081   5.369   5.259   3.605  0.9672 -1.5297 -2.2647
  637MOL0     H84082   5.110   5.419   3.328  2.3072  0.0654 -2.2171
  637MOL0     H84083   5.621   5.861   3.802  0.9308 -1.0061  0.5804
  637MOL0     H84084   5.801   5.958   3.922 -1.4062  1.3023 -0.7222
  638MOL0     O84085   6.612   1.029   2.439  0.1535 -0.2719 -0.2939
  638MOL0     C84086   6.664   0.963   2.352 -0.8654 -0.3235 -0.5906
  638MOL0     O84087   6.604   0.897   2.258  0.2248 -0.1589  0.0415
  638MOL0     C84088   6.476   0.852   2.257 -0.0547  0.1934  0.7749
  638MOL0     C84089   6.414   0.797   2.371 -0.0352 -0.1042  0.3343
  638MOL0     C84090   6.287   0.736   2.371 -0.0945  0.4843  0.2848
  638MOL0     C84091   6.218   0.731   2.247 -0.7861 -0.4994 -0.7197
  638MOL0     O84092   6.090   0.673   2.244 -0.6560 -0.3153 -0.4536
  638MOL0     C84093   5.998   0.695   2.354 -0.2020  0.5077  0.3658
  638MOL0     C84094   5.889   0.592   2.338 -0.1357  0.6115  0.2607
  638MOL0     C84095   5.772   0.615   2.435  0.9066 -0.1360  0.7050
  638MOL0     C84096   5.678   0.493   2.406  0.4163 -0.5120 -1.2076
  638MOL0     C84097   5.541   0.506   2.474 -0.7795 -0.8206 -0.6814
  638MOL0     C84098   5.569   0.517   2.629  0.1448 -0.3150  0.1829
  638MOL0     C84099   5.431   0.509   2.704  0.2829  0.7478 -0.0208
  638MOL0     C84100   5.407   0.371   2.764  0.1368 -0.1547  0.1952
  638MOL0     N84101   5.278   0.377   2.827 -0.3672  0.1662  0.3450
  638MOL0     C84102   5.258   0.322   2.950 -0.1269 -0.7607 -0.2361
  638MOL0     C84103   5.122   0.329   2.966 -0.9427  0.0863 -0.3576
  638MOL0     C84104   5.046   0.284   3.079 -0.4982 -0.2307 -0.2259
  638MOL0     C84105   5.090   0.164   3.154 -1.2753  0.3152 -0.1301
  638MOL0     C84106   4.984   0.108   3.248  0.6957  0.0925  0.8786
  638MOL0     C84107   4.953   0.200   3.371 -0.1343 -0.6145 -0.2989
  638MOL0     O84108   4.888   0.123   3.477 -0.0880 -0.2941  0.6295
  638MOL0     C84109   4.760   0.089   3.471  0.7191 -0.3851  0.1302
  638MOL0     C84110   4.705   0.014   3.572 -0.0703  0.9905 -0.5359
  638MOL0     C84111   4.570  -0.017   3.580  0.5867  0.5002 -0.0284
  638MOL0     C84112   4.481   0.019   3.478 -0.8516  0.7586 -0.1336
  638MOL0     C84113   4.336  -0.000   3.501 -0.0912 -1.5546  0.5664
  638MOL0     O84114   4.303  -0.083   3.595 -0.1712 -0.0346 -0.2967
  638MOL0     C84115   4.164  -0.093   3.618  0.1559  0.8663  0.2799
  638MOL0     C84116   4.087  -0.011   3.691 -0.1094  0.5823  0.7730
  638MOL0     C84117   3.948  -0.016   3.687  0.7984  0.3573 -0.7583
  638MOL0     C84118   3.890  -0.117   3.600  0.6320  0.4245  0.5255
  638MOL0     O84119   3.755  -0.116   3.589 -0.2830 -0.0207  0.4619
  638MOL0     C84120   3.703  -0.165   3.463  0.9541  0.1652  0.8343
  638MOL0     C84121   3.554  -0.132   3.432 -0.2002  0.2632 -0.3287
  638MOL0     C84122   3.466  -0.205   3.539  0.3528 -0.2447  0.1653
  638MOL0     C84123   3.320  -0.136   3.545 -0.9999  0.5209  0.2105
  638MOL0     C84124   3.248  -0.163   3.681  0.5437  0.0078  0.4296
  638MOL0     C84125   3.143  -0.065   3.725  0.6651  0.3822  0.3291
  638MOL0     C84126   3.090   0.019   3.615  0.1604 -0.1041 -0.6095
  638MOL0     C84127   2.968   0.090   3.657  0.0077 -0.4838  0.0553
  638MOL0    Cl84128   2.833  -0.020   3.682 -0.1612  0.2980  0.3424
  638MOL0     C84129   3.977  -0.205   3.527 -0.0260  0.0349  0.0134
  638MOL0     C84130   4.112  -0.191   3.539 -0.1037 -0.3923  0.0007
  638MOL0     O84131   4.255   0.065   3.425  0.4175  0.3844  0.4527
  638MOL0     C84132   4.538   0.088   3.372  0.2735 -0.2121  0.8987
  638MOL0     C84133   4.674   0.123   3.361 -0.3998  0.2693  0.9867
  638MOL0     N84134   5.070   0.401   2.857  0.1761 -0.4177 -0.3612
  638MOL0     N84135   5.161   0.424   2.776  0.0431 -0.0021  0.8689
  638MOL0     C84136   6.282   0.774   2.134 -0.0893 -0.2196  0.5163
  638MOL0     C84137   6.411   0.833   2.139 -0.3637  0.2053  0.3077
  638MOL0     C84138   6.809   0.967   2.354  1.0651 -0.2341  0.9285
  638MOL0     C84139   6.874   0.884   2.260 -1.0003 -0.3683 -0.1825
  638MOL0     C84140   7.017   0.872   2.254 -0.1258 -0.7455 -0.2263
  638MOL0     C84141   7.099   0.939   2.348 -0.9030  0.2785  0.3800
  638MOL0     O84142   7.235   0.918   2.322  0.4919  0.3578  0.6460
  638MOL0     C84143   7.317   1.042   2.339  0.3429  0.6735 -0.4409
  638MOL0     C84144   7.462   1.009   2.305  0.1045  0.0411  0.4387
  638MOL0     C84145   7.517   0.886   2.393  0.0632 -0.2466 -0.3876
  638MOL0     C84146   7.668   0.874   2.378  0.5025 -0.1559 -0.2211
  638MOL0     C84147   7.710   0.822   2.248  0.2514 -0.1944  0.3590
  638MOL0     C84148   7.735   0.764   2.145  0.5226  0.7151  0.7075
  638MOL0     C84149   7.039   1.028   2.446 -0.5468  0.4321 -0.0060
  638MOL0     C84150   6.895   1.038   2.450 -0.4242  0.3924 -0.6078
  638MOL0     H84151   6.460   0.795   2.470 -1.2790 -0.1286  0.9430
  638MOL0     H84152   6.249   0.696   2.464 -3.1149  1.1661 -0.5379
  638MOL0     H84153   5.949   0.790   2.335  0.1946  0.6228 -0.0987
  638MOL0     H84154   6.040   0.698   2.456  0.2510 -1.0380  0.2583
  638MOL0     H84155   5.929   0.495   2.369  0.7528  1.2939  1.2762
  638MOL0     H84156   5.859   0.599   2.233 -0.9010  0.2132  0.4404
  638MOL0     H84157   5.716   0.703   2.402 -0.7727 -1.9855 -1.7885
  638MOL0     H84158   5.795   0.626   2.541 -0.5136  1.3408  0.9053
  638MOL0     H84159   5.652   0.481   2.300  0.5654  0.6785 -1.3883
  638MOL0     H84160   5.725   0.403   2.445  0.8881  0.7464  1.3359
  638MOL0     H84161   5.479   0.418   2.452 -1.2843 -0.3706 -1.0834
  638MOL0     H84162   5.495   0.598   2.438 -2.0609 -2.2518 -2.9482
  638MOL0     H84163   5.622   0.611   2.648 -1.6946  0.7052  0.6311
  638MOL0     H84164   5.636   0.441   2.669  1.2220  1.4664  1.9888
  638MOL0     H84165   5.440   0.584   2.783 -2.7723  0.7709  0.4436
  638MOL0     H84166   5.351   0.543   2.637  0.7090  1.0208 -0.3949
  638MOL0     H84167   5.485   0.338   2.833 -1.8313 -2.5301  1.4491
  638MOL0     H84168   5.397   0.293   2.688  0.1557  0.6777 -0.6794
  638MOL0     H84169   5.327   0.274   3.019  0.9538  1.3004  0.2073
  638MOL0     H84170   4.945   0.274   3.038 -0.3017  2.0951 -1.4729
  638MOL0     H84171   5.031   0.361   3.155 -2.0263 -0.3213 -0.4076
  638MOL0     H84172   5.184   0.186   3.206  0.5047 -1.4379 -2.3636
  638MOL0     H84173   5.106   0.091   3.073  1.4735  0.0145  0.5608
  638MOL0     H84174   4.892   0.100   3.189 -0.4194  1.4946  2.3479
  638MOL0     H84175   5.009   0.006   3.280 -1.4050 -1.4128 -1.8345
  638MOL0     H84176   4.894   0.289   3.349  1.6851  1.9307  3.8085
  638MOL0     H84177   5.046   0.235   3.418  0.2374  0.7594 -1.9850
  638MOL0     H84178   4.767  -0.014   3.657 -1.6576  1.0860  0.7188
  638MOL0     H84179   4.543  -0.073   3.669 -1.0262  1.4050  0.0706
  638MOL0     H84180   4.148   0.048   3.759  1.2108 -0.9025  0.9551
  638MOL0     H84181   3.885   0.041   3.755  0.7282 -0.4368 -0.1498
  638MOL0     H84182   3.702  -0.274   3.457 -3.0767  0.1089 -0.5982
  638MOL0     H84183   3.759  -0.135   3.374  1.4064  0.6042  1.2643
  638MOL0     H84184   3.515  -0.153   3.332  0.6326  0.9630 -0.8206
  638MOL0     H84185   3.544  -0.025   3.453  4.0703  1.1447 -1.6970
  638MOL0     H84186   3.509  -0.193   3.639  3.8489 -1.0198 -1.1145
  638MOL0     H84187   3.452  -0.310   3.511 -1.8945  0.8366 -3.4642
  638MOL0     H84188   3.337  -0.031   3.522  2.1900  0.0070 -0.2982
  638MOL0     H84189   3.254  -0.180   3.470 -0.2887  1.0245 -0.7275
  638MOL0     H84190   3.328  -0.168   3.756  2.5158  0.5006 -1.5441
  638MOL0     H84191   3.203  -0.263   3.680  0.4914  0.0385 -0.3255
  638MOL0     H84192   3.175  -0.007   3.813  1.4355 -1.1640  1.1115
  638MOL0     H84193   3.057  -0.120   3.765  2.2286 -0.7379  2.3565
  638MOL0     H84194   3.168   0.092   3.594  0.4515 -0.1874  0.1476
  638MOL0     H84195   3.063  -0.041   3.527 -1.0240 -1.7996  0.8239
  638MOL0     H84196   2.932   0.165   3.585  0.7017 -1.2181 -1.0887
  638MOL0     H84197   2.988   0.152   3.744 -1.5968 -0.9298  0.7877
  638MOL0     H84198   3.941  -0.271   3.448 -0.1569  1.2566 -0.9789
  638MOL0     H84199   4.180  -0.247   3.476  0.3856  0.2261 -0.0266
  638MOL0     H84200   4.465   0.099   3.292 -1.8008  0.1951  2.7246
  638MOL0     H84201   4.711   0.187   3.281 -0.9959  2.8543  2.6709
  638MOL0     H84202   6.245   0.763   2.032  1.0987  0.1794  0.0248
  638MOL0     H84203   6.467   0.863   2.050  3.3231 -0.9255  2.0469
  638MOL0     H84204   6.818   0.832   2.183 -1.4836 -1.1354  0.6728
  638MOL0     H84205   7.067   0.803   2.187  1.5239  0.3694 -0.1959
  638MOL0     H84206   7.314   1.078   2.443 -0.0485  1.2498 -0.6459
  638MOL0     H84207   7.283   1.128   2.281 -0.4974 -0.1659 -1.2213
  638MOL0     H84208   7.484   1.000   2.198  0.9044 -1.4859  0.7164
  638MOL0     H84209   7.518   1.101   2.326  3.0784 -1.1100 -1.7348
  638MOL0     H84210   7.468   0.792   2.363  0.9370 -0.0953 -2.4669
  638MOL0     H84211   7.505   0.920   2.496  2.3808  0.9130 -0.4437
  638MOL0     H84212   7.716   0.970   2.401  2.1286 -1.2858  1.4122
  638MOL0     H84213   7.697   0.803   2.456 -0.4303  0.3266  0.5941
  638MOL0     H84214   7.735   0.725   2.045 -1.5350  1.8693  0.1997
  638MOL0     H84215   7.094   1.086   2.518 -0.9639  2.9416 -1.5961
  638MOL0     H84216   6.854   1.105   2.524 -1.4457 -0.3651 -0.4677
  639MOL0     O84217   1.495   4.933   0.032  0.4323 -0.2089  0.1508
  639MOL0     C84218   1.561   4.910   0.130 -1.1494 -0.9946  0.1733
  639MOL0     O84219   1.510   4.860   0.241  0.1353  0.3304  0.2034
  639MOL0     C84220   1.381   4.885   0.265  1.3119  0.2684  0.4514
  639MOL0     C84221   1.290   4.771   0.255 -0.7157 -1.7774  0.3535
  639MOL0     C84222   1.154   4.792   0.287 -0.8394  1.3394  0.0123
  639MOL0     C84223   1.111   4.913   0.342 -0.5905 -0.6933  0.0892
  639MOL0     O84224   0.981   4.926   0.373 -0.0746 -0.1635 -0.0756
  639MOL0     C84225   0.901   4.933   0.253 -0.6857 -0.3171 -0.3434
  639MOL0     C84226   0.765   4.944   0.304  0.2175 -1.3577  0.3856
  639MOL0     C84227   0.657   4.941   0.190  0.3985 -0.6753  0.7063
  639MOL0     C84228   0.505   4.985   0.206 -0.4035  0.1493  0.3386
  639MOL0     C84229   0.457   4.921   0.341  0.2616 -0.3898  0.3588
  639MOL0     C84230   0.310   4.938   0.385 -0.1794 -0.1709  0.1622
  639MOL0     C84231   0.318   4.873   0.526  0.0110 -0.7255  0.9763
  639MOL0     C84232   0.411   4.952   0.625 -0.0508  0.2249 -0.5946
  639MOL0     N84233   0.400   5.098   0.612 -0.5597  0.7130  0.5442
  639MOL0     C84234   0.303   5.160   0.671 -0.4322 -0.6114 -0.6819
  639MOL0     C84235   0.340   5.288   0.675  0.7684 -0.8073  0.0840
  639MOL0     C84236   0.253   5.394   0.739 -0.3598 -0.3268 -0.0133
  639MOL0     C84237   0.197   5.352   0.879  0.3867 -0.2669 -0.3017
  639MOL0     C84238   0.115   5.473   0.946 -0.4747 -0.5879 -0.6898
  639MOL0     C84239   0.008   5.523   0.869  0.3732 -0.3099  0.4470
  639MOL0     O84240  -0.075   5.615   0.938  0.7638  0.2159 -0.0269
  639MOL0     C84241  -0.201   5.580   0.967  1.3158  0.4624 -0.5215
  639MOL0     C84242  -0.290   5.688   1.004  0.0965 -0.2476  0.3507
  639MOL0     C84243  -0.419   5.660   1.059 -0.5799  0.4534 -0.8605
  639MOL0     C84244  -0.456   5.524   1.082  0.0939 -0.5456 -0.6657
  639MOL0     C84245  -0.591   5.493   1.145 -0.1234 -0.4136 -0.9302
  639MOL0     O84246  -0.698   5.586   1.134  0.1502  0.2445 -0.3508
  639MOL0     C84247  -0.821   5.548   1.178  0.9285 -0.0531 -0.5461
  639MOL0     C84248  -0.854   5.462   1.290  0.0220  0.1418  0.6094
  639MOL0     C84249  -0.991   5.433   1.330  0.7576  0.7875 -0.3989
  639MOL0     C84250  -1.102   5.502   1.274 -0.1355  0.3878  0.1231
  639MOL0     O84251  -1.226   5.488   1.319 -0.6683  0.1040 -0.1413
  639MOL0     C84252  -1.279   5.613   1.361 -0.7732 -0.8958  0.0997
  639MOL0     C84253  -1.347   5.570   1.486  0.2703 -0.4460 -0.1163
  639MOL0     C84254  -1.442   5.674   1.545 -1.0005  0.5631  0.4903
  639MOL0     C84255  -1.359   5.774   1.630  0.9573 -1.0410  0.8704
  639MOL0     C84256  -1.451   5.877   1.693  0.3480  0.6713  0.3865
  639MOL0     C84257  -1.360   5.969   1.777 -0.1021 -0.2559  0.0156
  639MOL0     C84258  -1.438   6.080   1.849 -0.9656  0.6174 -0.2248
  639MOL0     C84259  -1.504   6.038   1.973  0.9889  0.7489 -0.7562
  639MOL0    Cl84260  -1.403   5.964   2.095 -0.5615 -0.1160  0.5172
  639MOL0     C84261  -1.063   5.585   1.162  0.9585  0.3727  0.0719
  639MOL0     C84262  -0.937   5.607   1.116  0.6750 -0.0873  0.3676
  639MOL0     O84263  -0.599   5.377   1.184 -0.3912 -0.7723 -0.2882
  639MOL0     C84264  -0.375   5.422   1.037 -0.6762 -1.7274  0.1269
  639MOL0     C84265  -0.247   5.450   0.979 -1.0675  0.7149 -0.0997
  639MOL0     N84266   0.473   5.297   0.611  0.1497 -1.0315  0.2136
  639MOL0     N84267   0.505   5.181   0.577  0.6102 -0.1814  0.4564
  639MOL0     C84268   1.205   5.019   0.350 -0.6774 -0.7576 -0.5201
  639MOL0     C84269   1.338   5.010   0.304  1.2911 -0.1181  0.6772
  639MOL0     C84270   1.705   4.940   0.120 -1.5150 -0.2395  0.7777
  639MOL0     C84271   1.748   5.056   0.050  0.3384  0.9254 -0.8301
  639MOL0     C84272   1.881   5.069   0.027  0.7189 -0.8821  0.3706
  639MOL0     C84273   1.975   4.979   0.067  0.8822  0.0112  0.0151
  639MOL0     O84274   2.109   4.976   0.033  0.5134 -0.6196 -0.5465
  639MOL0     C84275   2.156   5.065  -0.072  0.1637 -0.0455  0.0450
  639MOL0     C84276   2.302   5.039  -0.106  0.8953  0.0534  0.1265
  639MOL0     C84277   2.368   5.156  -0.175  0.5234  0.0971 -0.6759
  639MOL0     C84278   2.316   5.186  -0.319 -0.8897  0.7336  0.7745
  639MOL0     C84279   2.423   5.235  -0.404  0.4606  0.6573  0.8111
  639MOL0     C84280   2.502   5.267  -0.490  0.9146  0.3735  0.7566
  639MOL0     C84281   1.933   4.864   0.131 -0.0188  0.1924  0.7974
  639MOL0     C84282   1.802   4.844   0.156 -0.4840 -0.2220  0.1788
  639MOL0     H84283   1.343   4.680   0.226  1.7679 -0.4579  0.4892
  639MOL0     H84284   1.089   4.705   0.288 -0.5518  1.1038 -0.8722
  639MOL0     H84285   0.900   4.843   0.191 -0.7458 -2.0563  2.0477
  639MOL0     H84286   0.925   5.012   0.181 -3.1686 -0.8946 -1.9276
  639MOL0     H84287   0.755   5.031   0.370  1.2641 -1.3115  0.4944
  639MOL0     H84288   0.743   4.855   0.364 -0.3992 -0.0924  2.1550
  639MOL0     H84289   0.656   4.838   0.154  0.9631 -1.0204  1.6159
  639MOL0     H84290   0.691   4.997   0.102 -1.1893 -1.7093 -0.6028
  639MOL0     H84291   0.507   5.091   0.232 -1.6755 -0.3159  2.5358
  639MOL0     H84292   0.436   4.964   0.123  0.6938 -0.7142 -0.3918
  639MOL0     H84293   0.528   4.980   0.400 -0.4843  3.0263 -1.8831
  639MOL0     H84294   0.472   4.814   0.355 -2.5127 -0.4766  5.0769
  639MOL0     H84295   0.245   4.872   0.328  1.3897 -3.4089  1.8311
  639MOL0     H84296   0.281   5.043   0.383  1.5946  0.3448 -0.7980
  639MOL0     H84297   0.218   4.881   0.569  0.4012  2.1066  1.5863
  639MOL0     H84298   0.351   4.769   0.526 -0.2621 -0.9154 -2.2784
  639MOL0     H84299   0.519   4.934   0.618 -0.5749 -3.1692 -1.6910
  639MOL0     H84300   0.382   4.924   0.727 -1.3376 -1.0812 -1.2894
  639MOL0     H84301   0.226   5.116   0.734 -0.3533 -1.9249 -1.4686
  639MOL0     H84302   0.180   5.425   0.664 -2.1912  3.1217  2.8238
  639MOL0     H84303   0.315   5.481   0.765 -3.4998  3.0686 -2.7087
  639MOL0     H84304   0.292   5.331   0.928  0.1892 -0.2003  0.1083
  639MOL0     H84305   0.129   5.267   0.881 -1.6451  1.2884  2.2898
  639MOL0     H84306   0.071   5.441   1.041 -2.9731 -0.9400 -1.8775
  639MOL0     H84307   0.173   5.561   0.974 -0.6091 -0.0667 -1.9494
  639MOL0     H84308  -0.039   5.438   0.819  3.3115 -0.7149 -1.9182
  639MOL0     H84309   0.056   5.575   0.785 -1.3630 -0.3496 -0.6082
  639MOL0     H84310  -0.248   5.787   0.987  1.4939 -0.8415  0.1804
  639MOL0     H84311  -0.475   5.738   1.110 -0.0191 -1.8163  3.7944
  639MOL0     H84312  -0.773   5.413   1.343  0.5934 -1.9107 -1.9699
  639MOL0     H84313  -1.014   5.369   1.415 -0.4433  2.4918  0.6303
  639MOL0     H84314  -1.341   5.636   1.273  1.1509 -0.6695 -1.2626
  639MOL0     H84315  -1.197   5.683   1.376 -1.7642  0.1707  0.7421
  639MOL0     H84316  -1.270   5.545   1.559 -1.8301 -0.2799  2.2943
  639MOL0     H84317  -1.406   5.479   1.469  1.2711 -0.5718 -3.6296
  639MOL0     H84318  -1.512   5.630   1.616 -2.0714 -0.4455 -1.1166
  639MOL0     H84319  -1.492   5.718   1.458  1.7602 -0.6183 -1.8960
  639MOL0     H84320  -1.301   5.722   1.706  0.6862  0.0814  1.8902
  639MOL0     H84321  -1.285   5.823   1.566 -2.2572 -1.5064 -3.7168
  639MOL0     H84322  -1.524   5.824   1.755 -2.7839 -0.9737 -4.1893
  639MOL0     H84323  -1.497   5.931   1.611 -0.7776 -0.9007 -0.0666
  639MOL0     H84324  -1.294   6.021   1.707  0.4222  1.3905  1.6327
  639MOL0     H84325  -1.295   5.907   1.840 -0.6362 -2.0250 -1.1129
  639MOL0     H84326  -1.363   6.152   1.883  0.8071 -1.4781  0.5592
  639MOL0     H84327  -1.509   6.114   1.773 -2.0228 -2.2217 -0.6230
  639MOL0     H84328  -1.580   5.965   1.942  2.7749 -1.3926 -0.3003
  639MOL0     H84329  -1.561   6.117   2.024 -1.6495 -1.9312  0.7553
  639MOL0     H84330  -1.139   5.641   1.108  2.5738  1.0991 -1.5217
  639MOL0     H84331  -0.903   5.672   1.036  1.7459  2.6582  2.8773
  639MOL0     H84332  -0.412   5.320   1.031 -0.1416 -1.8797 -0.9135
  639MOL0     H84333  -0.187   5.365   0.949 -2.0399  0.2091 -0.6657
  639MOL0     H84334   1.149   5.101   0.393  0.5867 -0.4527  0.6064
  639MOL0     H84335   1.405   5.096   0.308  0.7737  0.3369 -0.2249
  639MOL0     H84336   1.683   5.135   0.013  0.3092  1.0432 -0.5356
  639MOL0     H84337   1.926   5.153  -0.025 -0.1131 -1.2167 -0.9249
  639MOL0     H84338   2.151   5.172  -0.047  0.7344  0.3155 -1.2954
  639MOL0     H84339   2.094   5.068  -0.162  1.8226 -2.4186 -1.2627
  639MOL0     H84340   2.350   5.013  -0.011 -1.5152 -0.7681  1.2197
  639MOL0     H84341   2.313   4.950  -0.169 -1.1555  0.5363 -0.9904
  639MOL0     H84342   2.468   5.114  -0.184  0.2854 -0.5761 -0.3077
  639MOL0     H84343   2.378   5.243  -0.109 -0.7686 -1.4087  1.6767
  639MOL0     H84344   2.279   5.094  -0.365  0.5803 -0.4809  1.9233
  639MOL0     H84345   2.247   5.270  -0.304 -0.5041  1.9860 -3.2389
  639MOL0     H84346   2.567   5.290  -0.572 -1.6620  0.0750 -1.5214
  639MOL0     H84347   1.999   4.781   0.153  0.1646 -0.2305 -1.1115
  639MOL0     H84348   1.760   4.754   0.199 -0.7135  0.7878  2.1869
  640MOL0     O84349   5.878   6.759   1.163  0.3072 -0.0506 -0.0012
  640MOL0     C84350   5.931   6.851   1.229 -0.8585 -0.2353 -0.3040
  640MOL0     O84351   5.871   6.945   1.303 -0.6330 -0.0358 -0.0440
  640MOL0     C84352   5.735   6.939   1.310  0.4006  0.4973 -0.0720
  640MOL0     C84353   5.655   6.829   1.314 -0.2082 -0.2556 -0.5925
  640MOL0     C84354   5.518   6.840   1.309  0.1743 -0.0898  0.1194
  640MOL0     C84355   5.461   6.968   1.298 -0.3535  0.6723  0.3940
  640MOL0     O84356   5.322   6.967   1.284 -0.6174 -0.1880 -0.4335
  640MOL0     C84357   5.263   7.091   1.246  0.7477  0.0480  0.0650
  640MOL0     C84358   5.109   7.057   1.241 -0.4060 -0.2850  0.7356
  640MOL0     C84359   5.029   7.179   1.191 -0.4203 -0.5269  0.3715
  640MOL0     C84360   4.884   7.120   1.186 -0.7154 -0.0344  1.0781
  640MOL0     C84361   4.792   7.203   1.093 -0.4699 -0.1167  0.1595
  640MOL0     C84362   4.673   7.119   1.072 -0.3255 -0.6002  0.0665
  640MOL0     C84363   4.567   7.177   0.969 -0.3779 -1.0997 -0.9423
  640MOL0     C84364   4.478   7.291   1.025 -0.6157  0.5235 -0.0832
  640MOL0     N84365   4.374   7.320   0.926  0.2859  0.4006  0.0620
  640MOL0     C84366   4.273   7.229   0.903 -0.7648  0.0559  0.0472
  640MOL0     C84367   4.168   7.293   0.837 -0.0140  0.5103 -0.0049
  640MOL0     C84368   4.031   7.241   0.810 -0.2747  0.3700  0.3932
  640MOL0     C84369   4.029   7.132   0.707  0.4705  0.0457  0.2281
  640MOL0     C84370   3.883   7.064   0.684 -0.6365 -0.5106  0.1351
  640MOL0     C84371   3.870   7.054   0.527 -0.8984  0.4209 -0.6121
  640MOL0     O84372   3.758   6.967   0.494 -0.1347 -0.4696 -0.4394
  640MOL0     C84373   3.721   6.966   0.358 -0.2198 -0.6183  0.0656
  640MOL0     C84374   3.595   6.917   0.316 -0.3160 -0.3930  0.5972
  640MOL0     C84375   3.553   6.911   0.180 -0.2274  0.8873 -0.9666
  640MOL0     C84376   3.633   6.959   0.082  0.1156  0.4546 -0.4940
  640MOL0     C84377   3.595   6.957  -0.065  0.2617  0.1496 -0.7295
  640MOL0     O84378   3.483   6.890  -0.103 -0.2854  0.7628 -0.0899
  640MOL0     C84379   3.428   6.916  -0.224 -0.3283  0.2850 -0.2349
  640MOL0     C84380   3.329   7.015  -0.248 -0.0389  0.0770 -0.3108
  640MOL0     C84381   3.262   7.029  -0.374  0.1791  0.1357  0.8972
  640MOL0     C84382   3.303   6.944  -0.488  0.7812  1.0289 -0.8694
  640MOL0     O84383   3.258   6.945  -0.615  0.1865 -0.6903  0.0613
  640MOL0     C84384   3.190   7.065  -0.658 -0.3360 -0.9539  0.7140
  640MOL0     C84385   3.037   7.062  -0.628  0.1379 -0.2891 -0.2018
  640MOL0     C84386   2.969   6.945  -0.696  0.0333  0.0314  0.0306
  640MOL0     C84387   2.828   6.933  -0.654 -0.0645  0.2684 -0.5260
  640MOL0     C84388   2.773   6.792  -0.692  0.0017 -0.8229 -0.2066
  640MOL0     C84389   2.623   6.799  -0.703  0.5921 -0.0562  0.6817
  640MOL0     C84390   2.566   6.818  -0.849  0.2247 -0.1108 -0.3685
  640MOL0     C84391   2.418   6.825  -0.852  0.3182  0.4830  0.1786
  640MOL0    Cl84392   2.365   6.646  -0.830  0.3213  0.4958 -0.1800
  640MOL0     C84393   3.400   6.851  -0.457 -0.6972  0.0544  0.3212
  640MOL0     C84394   3.458   6.830  -0.330  0.4159 -0.8067 -0.8634
  640MOL0     O84395   3.674   7.008  -0.148  0.6819 -0.2691  0.0481
  640MOL0     C84396   3.758   7.008   0.120 -1.1925 -0.0398 -0.6056
  640MOL0     C84397   3.795   7.021   0.254  1.6081  0.2165 -0.5480
  640MOL0     N84398   4.216   7.421   0.815  1.4200  0.4488 -0.7769
  640MOL0     N84399   4.333   7.437   0.873 -0.4411 -0.8963  0.0895
  640MOL0     C84400   5.543   7.076   1.289 -0.2110 -0.0588 -0.1721
  640MOL0     C84401   5.679   7.063   1.303 -0.4695 -0.3069  0.2686
  640MOL0     C84402   6.075   6.846   1.258  0.3751  0.6187  0.0320
  640MOL0     C84403   6.148   6.952   1.303  0.4651 -1.1384 -0.0747
  640MOL0     C84404   6.286   6.951   1.337  0.1488  0.1682  1.4124
  640MOL0     C84405   6.351   6.825   1.315  0.4215 -0.4919  0.4527
  640MOL0     O84406   6.484   6.824   1.352  0.3997 -0.0537  0.7300
  640MOL0     C84407   6.524   6.736   1.457  0.6188  0.0647  0.3395
  640MOL0     C84408   6.663   6.772   1.493 -0.0991  0.3517  0.1094
  640MOL0     C84409   6.766   6.737   1.387 -0.2487 -0.3935  0.6700
  640MOL0     C84410   6.902   6.779   1.437 -0.1568  0.9853  0.1138
  640MOL0     C84411   7.005   6.722   1.337 -0.2603  0.1435  0.1743
  640MOL0     C84412   7.083   6.686   1.253  0.3105 -0.0893  0.0360
  640MOL0     C84413   6.284   6.714   1.275  0.3793 -0.4106 -1.0855
  640MOL0     C84414   6.142   6.721   1.241  0.0056 -0.7753 -0.2734
  640MOL0     H84415   5.696   6.729   1.309 -0.0164 -0.3569  1.8112
  640MOL0     H84416   5.452   6.754   1.316  1.5671 -1.4491 -2.2144
  640MOL0     H84417   5.317   7.120   1.155  2.5152 -0.1690  0.9962
  640MOL0     H84418   5.280   7.168   1.321  0.8014  1.9982 -1.8600
  640MOL0     H84419   5.068   7.013   1.333 -0.5240 -0.2764  0.6881
  640MOL0     H84420   5.105   6.975   1.169 -1.8069 -0.9701  1.5515
  640MOL0     H84421   5.066   7.233   1.103  0.0777  2.1422  2.1070
  640MOL0     H84422   5.034   7.257   1.267 -4.1675  0.2271  0.0445
  640MOL0     H84423   4.904   7.030   1.127 -0.3399  0.4973  0.3725
  640MOL0     H84424   4.840   7.082   1.278  1.0312 -1.9346  1.1942
  640MOL0     H84425   4.845   7.231   1.002  2.1898 -0.4716  1.5054
  640MOL0     H84426   4.753   7.297   1.135  4.7059  2.5818 -0.3395
  640MOL0     H84427   4.621   7.109   1.168  1.4308  1.1443  1.2620
  640MOL0     H84428   4.695   7.021   1.029 -0.6752 -0.0205 -1.5191
  640MOL0     H84429   4.610   7.211   0.874  0.2850 -1.5517 -0.8134
  640MOL0     H84430   4.498   7.096   0.944  0.3397 -2.4262  1.0412
  640MOL0     H84431   4.543   7.376   1.044 -0.0256  0.4026 -1.4445
  640MOL0     H84432   4.435   7.266   1.123  0.4223 -2.5423 -0.3040
  640MOL0     H84433   4.262   7.129   0.944  2.8518 -0.5334 -0.0525
  640MOL0     H84434   3.966   7.319   0.769 -0.7065 -1.3898 -2.6249
  640MOL0     H84435   3.992   7.202   0.904 -3.3072  1.9743 -0.0652
  640MOL0     H84436   4.096   7.049   0.730  0.9074  0.3835  0.1784
  640MOL0     H84437   4.070   7.181   0.618  2.8003  1.0256  1.7808
  640MOL0     H84438   3.896   6.963   0.723  1.1011 -0.2885  0.2145
  640MOL0     H84439   3.797   7.120   0.723  0.1496  0.6170  0.2722
  640MOL0     H84440   3.960   7.015   0.479 -1.5939 -1.9594 -0.0690
  640MOL0     H84441   3.858   7.161   0.503  1.9419  0.7922 -0.7079
  640MOL0     H84442   3.537   6.873   0.397 -1.6257  0.0385 -0.0700
  640MOL0     H84443   3.460   6.859   0.160 -0.0841 -0.4909  1.5344
  640MOL0     H84444   3.318   7.081  -0.163  1.6129 -2.6060  2.1687
  640MOL0     H84445   3.195   7.114  -0.390  0.1358 -0.4938 -3.2394
  640MOL0     H84446   3.211   7.076  -0.765  0.9610  2.7623  1.1939
  640MOL0     H84447   3.230   7.152  -0.606 -3.4523 -0.4691  2.5620
  640MOL0     H84448   2.983   7.143  -0.678 -0.7205 -0.9516 -0.3871
  640MOL0     H84449   3.019   7.066  -0.520  1.6351  0.1754  0.0431
  640MOL0     H84450   3.019   6.852  -0.665  0.3402 -0.1279 -0.9216
  640MOL0     H84451   2.983   6.967  -0.802  1.5744 -1.2795 -0.0823
  640MOL0     H84452   2.811   6.949  -0.547 -0.3405 -0.2760 -0.4854
  640MOL0     H84453   2.769   7.008  -0.707  2.6683  1.5349 -1.9952
  640MOL0     H84454   2.813   6.726  -0.614  2.7423 -0.3300 -1.0764
  640MOL0     H84455   2.802   6.757  -0.792  1.8616 -0.4075  0.1515
  640MOL0     H84456   2.590   6.876  -0.633  1.2506  1.3454 -0.4991
  640MOL0     H84457   2.600   6.696  -0.675  0.1442 -0.6675 -1.7223
  640MOL0     H84458   2.604   6.915  -0.884 -0.2993  0.0049 -0.6315
  640MOL0     H84459   2.600   6.744  -0.922 -2.2204  0.0102 -1.7345
  640MOL0     H84460   2.377   6.863  -0.946 -0.9829  1.5944  1.1518
  640MOL0     H84461   2.372   6.885  -0.773  1.9231  0.2417  1.3492
  640MOL0     H84462   3.436   6.794  -0.542 -3.7338  0.2304 -1.2172
  640MOL0     H84463   3.529   6.748  -0.328  1.5825  0.1460 -1.8180
  640MOL0     H84464   3.826   7.043   0.043 -2.2727 -1.4184 -2.2807
  640MOL0     H84465   3.896   7.061   0.259  1.9256 -0.1108 -3.0333
  640MOL0     H84466   5.508   7.178   1.273 -1.7455 -0.3463  1.1352
  640MOL0     H84467   5.733   7.157   1.300  0.0981 -0.5106  2.2403
  640MOL0     H84468   6.093   7.040   1.333  0.5141 -0.9578 -0.5126
  640MOL0     H84469   6.350   7.038   1.349  2.7284 -1.2867 -0.6211
  640MOL0     H84470   6.524   6.630   1.431  0.0235  0.1638 -0.0853
  640MOL0     H84471   6.460   6.745   1.545  3.4926  1.4665  2.4417
  640MOL0     H84472   6.671   6.875   1.530 -1.5820  0.0670  1.3126
  640MOL0     H84473   6.688   6.717   1.583  0.4325 -0.0746 -0.2927
  640MOL0     H84474   6.747   6.788   1.292  0.6014 -0.7741  0.2845
  640MOL0     H84475   6.766   6.629   1.369  1.5466 -0.4029  0.5610
  640MOL0     H84476   6.918   6.887   1.438  1.0667  0.8594 -1.5012
  640MOL0     H84477   6.922   6.737   1.536 -0.0576 -1.3030 -0.8037
  640MOL0     H84478   7.149   6.647   1.179  1.4233  0.5158  0.6724
  640MOL0     H84479   6.327   6.616   1.261 -0.9696 -0.9263 -1.7685
  640MOL0     H84480   6.095   6.629   1.209  0.9735 -1.2150 -0.4652
  641MOL0     O84481   5.905   9.701   7.355 -0.1911 -0.8132 -0.0994
  641MOL0     C84482   5.869   9.815   7.325 -0.4556  0.5790 -0.5651
  641MOL0     O84483   5.759   9.848   7.259  0.3229 -0.0825 -0.1336
  641MOL0     C84484   5.648   9.776   7.275  0.3310  0.1105 -0.1560
  641MOL0     C84485   5.597   9.719   7.392  0.7638  0.1183 -0.0792
  641MOL0     C84486   5.474   9.661   7.400  0.8099  0.5996  0.2510
  641MOL0     C84487   5.385   9.649   7.287 -0.1089 -0.4209 -0.2037
  641MOL0     O84488   5.268   9.583   7.290 -0.0328  0.2246 -0.5221
  641MOL0     C84489   5.192   9.587   7.411  0.1194  0.5239  0.6406
  641MOL0     C84490   5.044   9.598   7.369  0.2508  0.3555 -0.3226
  641MOL0     C84491   4.952   9.595   7.490 -1.2076  0.4287 -0.2789
  641MOL0     C84492   4.804   9.580   7.461  0.9400 -0.3875 -0.3218
  641MOL0     C84493   4.717   9.587   7.587 -0.1879 -0.2468 -0.9623
  641MOL0     C84494   4.572   9.633   7.554 -0.8100  0.6359 -0.0235
  641MOL0     C84495   4.501   9.640   7.687 -0.4178 -0.2560  0.0776
  641MOL0     C84496   4.365   9.706   7.671  0.5685  0.7015 -0.1008
  641MOL0     N84497   4.261   9.600   7.641  0.1820  0.3144  0.2256
  641MOL0     C84498   4.182   9.532   7.726  0.6830  0.3964 -0.0999
  641MOL0     C84499   4.081   9.485   7.657 -0.1821  0.2117 -0.1113
  641MOL0     C84500   3.964   9.403   7.721 -0.1416 -0.1115  1.3163
  641MOL0     C84501   3.858   9.357   7.624  0.1927 -0.8133  0.0123
  641MOL0     C84502   3.800   9.227   7.675  0.1893  0.4115  0.5047
  641MOL0     C84503   3.687   9.248   7.777  0.5892  0.3352  0.0858
  641MOL0     O84504   3.573   9.328   7.734  0.5158  0.1760  0.2370
  641MOL0     C84505   3.480   9.274   7.641 -0.8105  0.3441  0.3136
  641MOL0     C84506   3.381   9.369   7.612  0.0878  0.3499 -0.3181
  641MOL0     C84507   3.266   9.334   7.543  0.1175  0.2173 -0.4411
  641MOL0     C84508   3.241   9.202   7.501 -0.1648  0.3812  0.4172
  641MOL0     C84509   3.121   9.166   7.428  0.2069 -0.8221 -0.6537
  641MOL0     O84510   3.004   9.235   7.442  0.3973 -0.4210 -0.0213
  641MOL0     C84511   2.903   9.202   7.352 -0.5861  0.0178 -0.8085
  641MOL0     C84512   2.820   9.094   7.369  0.0694 -0.2973  0.1334
  641MOL0     C84513   2.717   9.075   7.277  0.0498  0.1829  0.9606
  641MOL0     C84514   2.680   9.172   7.178  0.1512 -0.0325 -0.9784
  641MOL0     O84515   2.569   9.144   7.101 -0.0504 -0.3822  0.6952
  641MOL0     C84516   2.532   9.233   6.991 -0.7041  0.3537 -0.4263
  641MOL0     C84517   2.403   9.195   6.928  1.2197 -0.3309  1.0542
  641MOL0     C84518   2.294   9.210   7.031 -0.3154  0.0944 -0.3700
  641MOL0     C84519   2.164   9.143   6.968  0.2082 -0.2064  0.2194
  641MOL0     C84520   2.040   9.173   7.058 -0.6140 -0.6714  0.3887
  641MOL0     C84521   1.902   9.161   6.991 -0.4315  0.1201  0.0550
  641MOL0     C84522   1.892   9.041   6.900  1.1259 -0.4009 -0.9802
  641MOL0     C84523   1.902   8.911   6.985  0.0934  0.2581 -0.2661
  641MOL0    Cl84524   1.865   8.771   6.894 -0.3700  0.7117 -0.3598
  641MOL0     C84525   2.760   9.288   7.172 -0.5006  0.1811 -0.1454
  641MOL0     C84526   2.870   9.303   7.256 -0.0235 -0.1008 -0.1971
  641MOL0     O84527   3.140   9.080   7.343  0.5271 -0.7168 -0.1815
  641MOL0     C84528   3.354   9.119   7.515  0.2951  0.0212  0.3401
  641MOL0     C84529   3.465   9.153   7.590 -0.2339  0.4036  0.9783
  641MOL0     N84530   4.088   9.532   7.522 -0.1355  0.2686  0.2442
  641MOL0     N84531   4.204   9.590   7.517  0.1217 -0.2318 -0.6257
  641MOL0     C84532   5.433   9.706   7.166 -0.4193  0.5940  1.1034
  641MOL0     C84533   5.561   9.762   7.159 -0.6562  0.0224 -0.3705
  641MOL0     C84534   5.982   9.916   7.340  0.1971  0.1632 -0.4354
  641MOL0     C84535   5.973  10.038   7.272  0.0947  0.3739  0.0756
  641MOL0     C84536   6.072  10.131   7.285 -0.2871  0.6535 -0.3384
  641MOL0     C84537   6.174  10.112   7.374  0.5818 -0.4322 -0.4804
  641MOL0     O84538   6.273  10.202   7.399 -0.5873  0.5387  0.1035
  641MOL0     C84539   6.227  10.340   7.373  0.8783  0.8451 -0.0634
  641MOL0     C84540   6.299  10.416   7.472 -0.0556  0.3265 -0.0544
  641MOL0     C84541   6.281  10.379   7.622  0.1921  1.4896  0.1513
  641MOL0     C84542   6.407  10.436   7.700  0.5118 -0.0748  0.8587
  641MOL0     C84543   6.524  10.338   7.685 -0.8131  0.0065 -0.9367
  641MOL0     C84544   6.628  10.279   7.659 -1.3501 -0.8043  0.9366
  641MOL0     C84545   6.184   9.990   7.436  0.6850  0.9150  0.5405
  641MOL0     C84546   6.087   9.887   7.420 -0.4422 -0.9658 -1.3422
  641MOL0     H84547   5.653   9.725   7.485 -0.2194  3.1978  0.4273
  641MOL0     H84548   5.440   9.607   7.488 -0.2763 -1.6563 -1.4636
  641MOL0     H84549   5.212   9.670   7.478 -0.0018  1.2233 -0.1750
  641MOL0     H84550   5.224   9.507   7.479 -1.1952 -0.1222  0.5434
  641MOL0     H84551   5.016   9.514   7.305 -1.9693  1.0501 -0.3454
  641MOL0     H84552   5.020   9.691   7.317  1.9759 -0.2375 -2.2784
  641MOL0     H84553   4.981   9.682   7.551  0.2651  0.7951 -1.4203
  641MOL0     H84554   4.980   9.508   7.550 -1.7007  0.7121  0.3784
  641MOL0     H84555   4.772   9.665   7.400 -1.9186 -1.9168 -1.1462
  641MOL0     H84556   4.785   9.486   7.409 -1.4388  0.7194 -1.6087
  641MOL0     H84557   4.759   9.669   7.646  1.3652 -1.7444  0.1233
  641MOL0     H84558   4.731   9.491   7.638  3.5921 -0.9731 -2.9176
  641MOL0     H84559   4.533   9.549   7.496 -2.0706  0.9771  0.3073
  641MOL0     H84560   4.576   9.731   7.508 -0.9438  0.9556  0.6336
  641MOL0     H84561   4.495   9.540   7.732  1.0944  0.4670  2.0312
  641MOL0     H84562   4.563   9.701   7.753  0.6868  1.2199 -2.2100
  641MOL0     H84563   4.354   9.779   7.590 -6.0309  2.8989  2.1365
  641MOL0     H84564   4.341   9.759   7.763  1.1841 -2.2155  1.8792
  641MOL0     H84565   4.191   9.513   7.833 -0.4608  2.0415  0.3319
  641MOL0     H84566   3.923   9.467   7.800 -0.9364  0.1299  0.7238
  641MOL0     H84567   4.012   9.319   7.771 -0.0188 -0.2844  0.9144
  641MOL0     H84568   3.908   9.335   7.529  0.3688 -3.1971  0.5955
  641MOL0     H84569   3.787   9.436   7.596  0.0882 -1.8825 -3.1086
  641MOL0     H84570   3.752   9.179   7.589 -4.1469  5.0581 -0.1265
  641MOL0     H84571   3.880   9.165   7.718  0.2957  0.8303  0.9226
  641MOL0     H84572   3.731   9.301   7.862 -0.0637  1.0711 -0.0230
  641MOL0     H84573   3.664   9.144   7.802  5.3902 -2.0873 -3.6462
  641MOL0     H84574   3.387   9.462   7.669 -1.0961 -1.0465  2.2593
  641MOL0     H84575   3.190   9.406   7.516 -0.7595 -0.1533  0.9419
  641MOL0     H84576   2.838   9.023   7.448  2.8005  0.2206  0.0724
  641MOL0     H84577   2.647   8.993   7.282 -0.4438  0.4610 -0.6816
  641MOL0     H84578   2.604   9.231   6.909 -0.7623 -0.2102 -0.4691
  641MOL0     H84579   2.524   9.337   7.023 -0.9532 -0.3802  2.0661
  641MOL0     H84580   2.407   9.101   6.872 -1.8766 -0.2634  0.5393
  641MOL0     H84581   2.382   9.268   6.849  0.6837 -3.2274 -1.6979
  641MOL0     H84582   2.284   9.317   7.049  1.1841  0.5578 -1.9292
  641MOL0     H84583   2.313   9.158   7.125 -0.8545 -0.3620 -0.5108
  641MOL0     H84584   2.151   9.192   6.872  1.9627 -2.4772 -1.2820
  641MOL0     H84585   2.186   9.037   6.953 -0.3285 -0.3196  0.1935
  641MOL0     H84586   2.047   9.280   7.081  1.5782 -1.1957  2.5451
  641MOL0     H84587   2.037   9.111   7.147 -0.4039  0.3887  1.1549
  641MOL0     H84588   1.886   9.252   6.932  0.3747  1.4154  1.7358
  641MOL0     H84589   1.828   9.149   7.071 -1.5746  0.2621 -0.9476
  641MOL0     H84590   1.795   9.039   6.849  0.0635  2.2019  0.7375
  641MOL0     H84591   1.965   9.041   6.820  1.3277  1.0233 -0.8154
  641MOL0     H84592   1.831   8.914   7.069  0.3290 -2.3344  0.0958
  641MOL0     H84593   2.001   8.909   7.030  0.2338  2.3078 -0.3724
  641MOL0     H84594   2.758   9.365   7.095  3.0392  1.2633  0.6580
  641MOL0     H84595   2.903   9.406   7.254 -1.2465  0.3730 -4.0066
  641MOL0     H84596   3.332   9.018   7.485  0.4866 -0.1627  0.8046
  641MOL0     H84597   3.524   9.065   7.615 -0.0438  0.2540  0.0583
  641MOL0     H84598   5.371   9.709   7.078 -1.1856 -0.9208  1.5496
  641MOL0     H84599   5.602   9.808   7.070  6.6264  2.1399  3.2932
  641MOL0     H84600   5.897  10.057   7.198  0.2916  3.1926  0.5122
  641MOL0     H84601   6.057  10.219   7.223 -3.0994 -1.8276 -3.5809
  641MOL0     H84602   6.120  10.346   7.394  1.4426  1.4048  3.1615
  641MOL0     H84603   6.246  10.374   7.271  3.5697 -0.9759 -0.2424
  641MOL0     H84604   6.405  10.398   7.454  0.3534  0.1531  2.2408
  641MOL0     H84605   6.283  10.524   7.460  3.5451  0.9416 -0.3924
  641MOL0     H84606   6.269  10.272   7.643  3.7335  1.1901  1.4026
  641MOL0     H84607   6.188  10.419   7.663 -1.8611 -0.7253 -1.9909
  641MOL0     H84608   6.440  10.533   7.663 -0.3136 -0.2043 -0.2713
  641MOL0     H84609   6.378  10.454   7.804 -3.3163  1.2226 -0.2554
  641MOL0     H84610   6.712  10.219   7.629 -2.0774 -1.5817  0.4279
  641MOL0     H84611   6.265   9.975   7.506  0.7510 -1.9052 -0.0416
  641MOL0     H84612   6.098   9.788   7.464  4.6089 -2.3035 -4.6595
  642MOL0     O84613   5.085   3.333   3.854 -0.5411  0.4582  0.1459
  642MOL0     C84614   5.109   3.380   3.964 -0.3166 -0.1092 -0.3373
  642MOL0     O84615   5.022   3.446   4.051 -0.2552 -0.0137  0.0402
  642MOL0     C84616   4.887   3.436   4.021  0.3555  0.1165 -1.0500
  642MOL0     C84617   4.809   3.545   4.051  0.4867 -0.3734  0.4338
  642MOL0     C84618   4.674   3.556   4.016  0.0859 -0.7506  0.0061
  642MOL0     C84619   4.609   3.452   3.958  0.5676  0.3879  0.1997
  642MOL0     O84620   4.474   3.435   3.935 -0.8286  1.0321  0.5859
  642MOL0     C84621   4.386   3.544   3.952 -0.0119  0.2932  0.3268
  642MOL0     C84622   4.234   3.499   3.921  0.0676 -0.2937 -0.9326
  642MOL0     C84623   4.124   3.596   3.960  0.3613 -0.0011  0.6686
  642MOL0     C84624   3.995   3.536   3.887 -0.5225 -0.4211 -0.5900
  642MOL0     C84625   3.872   3.621   3.905  0.8029  0.9212  0.7112
  642MOL0     C84626   3.740   3.539   3.875 -0.5668 -0.3947 -0.2731
  642MOL0     C84627   3.606   3.618   3.877 -0.4969  0.2756 -0.5410
  642MOL0     C84628   3.494   3.517   3.856 -0.3500 -0.8939  0.6598
  642MOL0     N84629   3.377   3.563   3.931  0.8483 -0.5438 -0.0482
  642MOL0     C84630   3.275   3.644   3.872  0.4192  1.1032  0.7406
  642MOL0     C84631   3.166   3.617   3.947 -0.9640  0.1511 -0.9398
  642MOL0     C84632   3.029   3.674   3.931 -0.4471  0.6110 -0.2718
  642MOL0     C84633   2.952   3.688   4.071 -0.3009  0.5060 -0.0993
  642MOL0     C84634   2.818   3.753   4.051 -0.3627 -0.5071  0.8445
  642MOL0     C84635   2.776   3.781   4.191 -0.6434 -0.0749  0.0566
  642MOL0     O84636   2.637   3.817   4.177  0.0092 -0.4536  0.2210
  642MOL0     C84637   2.557   3.865   4.283  0.6138 -0.0939 -0.1396
  642MOL0     C84638   2.428   3.920   4.249  0.0440  0.2421  1.0500
  642MOL0     C84639   2.338   3.965   4.350 -0.0670  0.1949  0.2313
  642MOL0     C84640   2.372   3.959   4.488  0.9507  0.1466  0.5101
  642MOL0     C84641   2.272   4.021   4.581  1.0292  0.3459  0.6083
  642MOL0     O84642   2.162   4.089   4.538 -0.2887 -0.8342 -0.1189
  642MOL0     C84643   2.071   4.135   4.627 -0.6268 -0.0763  0.4365
  642MOL0     C84644   1.954   4.067   4.652 -0.3483  0.8585  0.1536
  642MOL0     C84645   1.860   4.113   4.748 -0.5448  0.3265  0.0476
  642MOL0     C84646   1.885   4.230   4.814 -0.4095 -0.0405 -0.2375
  642MOL0     O84647   1.786   4.259   4.904  0.1674 -0.1898  0.1065
  642MOL0     C84648   1.802   4.378   4.988  0.5364  0.3245 -1.7480
  642MOL0     C84649   1.675   4.389   5.079 -0.2554  0.0852 -0.2814
  642MOL0     C84650   1.672   4.527   5.142 -0.2038  0.2819  0.1369
  642MOL0     C84651   1.559   4.542   5.252  0.5478  0.1326  0.3873
  642MOL0     C84652   1.586   4.653   5.347 -0.1637  0.1328 -0.7478
  642MOL0     C84653   1.482   4.666   5.456  0.3937  0.2205  0.5299
  642MOL0     C84654   1.520   4.759   5.569  0.0573  0.2991  0.3220
  642MOL0     C84655   1.436   4.751   5.697  0.6365  0.8368  0.2993
  642MOL0    Cl84656   1.251   4.773   5.675 -0.2448  0.1338 -0.9665
  642MOL0     C84657   2.003   4.308   4.790  0.7565 -0.1220 -1.4254
  642MOL0     C84658   2.094   4.252   4.698  0.3779  0.5341  0.6569
  642MOL0     O84659   2.298   4.007   4.695 -0.1432 -0.1867  0.4464
  642MOL0     C84660   2.502   3.900   4.517 -0.3132 -0.1313  0.0083
  642MOL0     C84661   2.590   3.853   4.415 -0.4290  0.3003  0.4361
  642MOL0     N84662   3.202   3.530   4.050  0.8044  0.8570 -0.0291
  642MOL0     N84663   3.331   3.495   4.038  0.3540 -0.3605 -0.0698
  642MOL0     C84664   4.682   3.338   3.931  0.5971  0.3105  0.2606
  642MOL0     C84665   4.818   3.330   3.955 -0.0142  0.4081 -0.0776
  642MOL0     C84666   5.247   3.366   4.014 -0.9031 -0.6889 -0.2513
  642MOL0     C84667   5.347   3.310   3.931 -0.6461 -0.2608 -0.7672
  642MOL0     C84668   5.478   3.303   3.975  0.8376  0.1212  0.0432
  642MOL0     C84669   5.522   3.349   4.094  0.5007  0.1684 -0.0487
  642MOL0     O84670   5.652   3.362   4.140 -0.0427 -0.1430  0.5503
  642MOL0     C84671   5.770   3.351   4.049  0.3411 -0.8019  0.9540
  642MOL0     C84672   5.895   3.389   4.125  0.6133 -0.2512 -0.3212
  642MOL0     C84673   6.019   3.350   4.045  0.0765  0.1479 -0.5997
  642MOL0     C84674   6.116   3.456   4.004 -0.6067  0.4233 -0.3387
  642MOL0     C84675   6.246   3.381   3.995 -0.3675 -0.2818 -0.4283
  642MOL0     C84676   6.346   3.306   3.995 -0.2366  0.2788  0.1607
  642MOL0     C84677   5.429   3.407   4.179  0.0634  0.3568 -0.2121
  642MOL0     C84678   5.289   3.406   4.140  0.0444  0.6326 -0.7794
  642MOL0     H84679   4.863   3.633   4.083 -0.5423  1.3927 -2.3262
  642MOL0     H84680   4.622   3.651   4.027 -1.3062 -1.5213  0.3483
  642MOL0     H84681   4.416   3.615   3.874 -2.0742 -1.1993 -1.9388
  642MOL0     H84682   4.392   3.584   4.054 -0.9780  0.6776  0.2401
  642MOL0     H84683   4.205   3.404   3.965 -1.4420  0.1142 -0.9901
  642MOL0     H84684   4.229   3.481   3.813 -1.4441 -1.4252 -0.7019
  642MOL0     H84685   4.143   3.700   3.931  1.6459 -0.8289 -1.7516
  642MOL0     H84686   4.107   3.594   4.068 -2.0317 -3.9678  0.3835
  642MOL0     H84687   4.019   3.521   3.781  3.2456 -1.7048  0.3077
  642MOL0     H84688   3.985   3.433   3.923  0.5607  0.8285  3.7307
  642MOL0     H84689   3.880   3.704   3.835  2.8032  0.9575  0.9229
  642MOL0     H84690   3.872   3.670   4.003 -1.6998  1.9936  0.2573
  642MOL0     H84691   3.748   3.454   3.943  0.9014 -1.6139 -1.8439
  642MOL0     H84692   3.752   3.502   3.772  0.2368  1.1375 -0.7601
  642MOL0     H84693   3.604   3.683   3.965  0.6504  0.4541 -0.6225
  642MOL0     H84694   3.611   3.684   3.791  0.7212 -2.5144 -2.7766
  642MOL0     H84695   3.517   3.419   3.897  2.3511 -0.9195 -0.7097
  642MOL0     H84696   3.480   3.507   3.748  2.1317 -1.0659  0.2952
  642MOL0     H84697   3.280   3.696   3.777 -0.4254 -1.7534 -0.9890
  642MOL0     H84698   2.970   3.605   3.869  0.5097 -0.7163  0.2414
  642MOL0     H84699   3.033   3.768   3.875 -1.3915 -0.6461 -2.6325
  642MOL0     H84700   3.013   3.755   4.133  0.5947  0.3130 -0.7542
  642MOL0     H84701   2.954   3.591   4.121 -1.0151 -0.8541 -2.5281
  642MOL0     H84702   2.837   3.850   4.003 -0.9982 -1.0624 -0.5838
  642MOL0     H84703   2.750   3.692   3.992 -2.6278  2.5970 -0.0515
  642MOL0     H84704   2.838   3.861   4.232  0.0849  1.1411 -3.0966
  642MOL0     H84705   2.792   3.702   4.264  1.5277  3.4085  3.7798
  642MOL0     H84706   2.409   3.923   4.143  3.4627 -1.4587  0.2655
  642MOL0     H84707   2.253   4.021   4.311 -0.0285 -0.6288 -1.1122
  642MOL0     H84708   1.932   3.975   4.598  0.7703  0.3069  0.6178
  642MOL0     H84709   1.776   4.053   4.781 -1.0015  0.5177 -0.7475
  642MOL0     H84710   1.811   4.471   4.931  2.9953  1.7139  0.6823
  642MOL0     H84711   1.887   4.376   5.057 -1.5636  0.6367  0.9979
  642MOL0     H84712   1.688   4.310   5.153  1.4137 -0.1077 -0.7548
  642MOL0     H84713   1.586   4.378   5.017 -1.4515 -0.1709  1.4040
  642MOL0     H84714   1.653   4.613   5.078 -0.1699  2.7185  3.1766
  642MOL0     H84715   1.771   4.552   5.181 -0.5819  0.7303  0.8249
  642MOL0     H84716   1.464   4.556   5.200 -0.0708 -0.1319  1.4112
  642MOL0     H84717   1.557   4.450   5.312 -1.7590  0.4974  0.9654
  642MOL0     H84718   1.586   4.748   5.291 -0.1292 -0.9430 -2.6651
  642MOL0     H84719   1.678   4.641   5.405 -0.3536  1.8152 -0.0279
  642MOL0     H84720   1.478   4.572   5.512  1.0548  0.3476  0.7970
  642MOL0     H84721   1.377   4.684   5.428 -0.3270  0.3386  3.0340
  642MOL0     H84722   1.626   4.746   5.592  0.2357  1.5912  0.3248
  642MOL0     H84723   1.515   4.864   5.538  1.3453  1.8678  4.7022
  642MOL0     H84724   1.470   4.821   5.773 -0.7028  1.4588  0.3622
  642MOL0     H84725   1.449   4.650   5.738 -3.5078 -0.0110  0.0057
  642MOL0     H84726   2.030   4.401   4.839  2.2702 -0.5838 -1.3181
  642MOL0     H84727   2.188   4.303   4.682  1.8315 -2.4318 -0.9735
  642MOL0     H84728   2.539   3.898   4.619 -2.3195 -1.4060  0.7781
  642MOL0     H84729   2.690   3.821   4.443 -0.1702 -0.9926 -1.8048
  642MOL0     H84730   4.632   3.259   3.878  0.8230  0.7855 -0.6822
  642MOL0     H84731   4.859   3.234   3.924 -0.3954  0.5837 -1.1532
  642MOL0     H84732   5.313   3.270   3.836  0.7780 -0.1895 -1.3283
  642MOL0     H84733   5.556   3.263   3.911  1.2984  0.5413  0.3364
  642MOL0     H84734   5.754   3.420   3.966 -2.1972  0.5804  2.4792
  642MOL0     H84735   5.785   3.249   4.014 -2.1737 -1.0011  0.2571
  642MOL0     H84736   5.897   3.495   4.152  4.0259 -0.1377 -0.5981
  642MOL0     H84737   5.906   3.329   4.216  1.3486 -0.3180 -0.4490
  642MOL0     H84738   5.995   3.279   3.966 -1.3341 -1.9021  1.5176
  642MOL0     H84739   6.070   3.283   4.116 -0.0879  0.1914 -0.4376
  642MOL0     H84740   6.103   3.490   3.900  2.4218  0.5402 -0.7515
  642MOL0     H84741   6.116   3.551   4.059 -1.3194  1.1610 -1.5299
  642MOL0     H84742   6.439   3.253   4.000  0.1108  1.0002  2.9469
  642MOL0     H84743   5.471   3.432   4.275 -0.5442 -1.2365  0.4953
  642MOL0     H84744   5.213   3.452   4.202 -0.5889 -3.1702  1.5740
  643MOL0     O84745   7.784   6.505   3.248  0.1567  0.2277 -0.1791
  643MOL0     C84746   7.787   6.548   3.366 -0.1024  0.3037  0.0537
  643MOL0     O84747   7.682   6.537   3.454 -0.1300  0.4163 -0.1068
  643MOL0     C84748   7.568   6.469   3.413  0.0848 -0.1673  0.6445
  643MOL0     C84749   7.446   6.541   3.394  0.5376  0.5546 -0.6712
  643MOL0     C84750   7.324   6.479   3.357 -0.5164  0.5744  0.1814
  643MOL0     C84751   7.325   6.340   3.324 -0.4638 -0.0413 -0.7859
  643MOL0     O84752   7.211   6.272   3.282 -0.9216 -0.3004  0.2750
  643MOL0     C84753   7.073   6.318   3.305 -0.1206  0.2313 -0.3366
  643MOL0     C84754   6.995   6.209   3.225  0.3672 -0.6315 -0.0084
  643MOL0     C84755   6.838   6.218   3.252  0.2923  0.1781  0.7825
  643MOL0     C84756   6.764   6.115   3.160 -0.4373 -0.3221  0.3404
  643MOL0     C84757   6.605   6.113   3.192 -0.6154  0.3603  0.9794
  643MOL0     C84758   6.528   6.004   3.115  0.3955 -0.4614  0.0914
  643MOL0     C84759   6.555   5.997   2.962  0.3843  0.6662 -0.5732
  643MOL0     C84760   6.454   5.929   2.883 -0.1059  0.4989 -0.0359
  643MOL0     N84761   6.341   6.027   2.874  0.1707 -0.4767 -0.0211
  643MOL0     C84762   6.317   6.113   2.769  0.4127  0.0899  0.3052
  643MOL0     C84763   6.200   6.175   2.802 -0.2783  0.2860  0.4575
  643MOL0     C84764   6.126   6.284   2.724 -1.1417 -0.6362  0.2988
  643MOL0     C84765   6.079   6.227   2.590 -0.7834 -0.1524 -0.4007
  643MOL0     C84766   5.959   6.300   2.526  0.2781  0.7611 -0.1706
  643MOL0     C84767   5.826   6.241   2.572  0.3094 -0.3805  0.4442
  643MOL0     O84768   5.787   6.319   2.687  0.0541 -0.6517  0.4692
  643MOL0     C84769   5.697   6.263   2.770  0.4757 -0.0391 -0.5209
  643MOL0     C84770   5.659   6.329   2.889  0.3731  0.4724 -0.6628
  643MOL0     C84771   5.555   6.286   2.970 -0.0106  0.0382 -0.0219
  643MOL0     C84772   5.492   6.157   2.941  0.1558  0.1325 -0.7264
  643MOL0     C84773   5.387   6.104   3.042 -0.3080 -0.0207  0.4009
  643MOL0     O84774   5.320   5.989   3.014  0.4463 -0.4283  0.2332
  643MOL0     C84775   5.203   5.972   3.090 -0.0939 -0.4053  0.2391
  643MOL0     C84776   5.186   5.879   3.197  0.1165 -0.2430  0.4093
  643MOL0     C84777   5.054   5.858   3.258  0.7219  0.5449  0.3400
  643MOL0     C84778   4.936   5.923   3.202  0.4578  0.6533 -0.4949
  643MOL0     O84779   4.810   5.898   3.251 -0.7761  0.2922  0.0511
  643MOL0     C84780   4.713   6.000   3.269  0.0174 -0.1039 -0.4449
  643MOL0     C84781   4.747   6.089   3.390 -0.7827 -0.2772 -0.4083
  643MOL0     C84782   4.631   6.187   3.403  0.4988  0.9466 -1.1609
  643MOL0     C84783   4.652   6.278   3.536  0.6191 -0.3216  0.6918
  643MOL0     C84784   4.514   6.331   3.584  0.1555 -0.3388 -0.1306
  643MOL0     C84785   4.531   6.426   3.702  0.5211  0.1848 -0.3450
  643MOL0     C84786   4.608   6.554   3.682  0.4559  0.4455  0.2202
  643MOL0     C84787   4.672   6.604   3.811  0.4104 -0.6148 -0.0638
  643MOL0    Cl84788   4.546   6.656   3.930  0.2560 -0.0089 -0.2150
  643MOL0     C84789   4.952   6.010   3.098  0.2288  0.3297  0.2033
  643MOL0     C84790   5.083   6.042   3.049  0.5212  0.0449  0.4149
  643MOL0     O84791   5.366   6.170   3.138  0.3069 -0.8650 -0.1949
  643MOL0     C84792   5.531   6.094   2.821 -1.0163  0.2679  0.5643
  643MOL0     C84793   5.633   6.140   2.746  0.0578  0.1978 -0.2724
  643MOL0     N84794   6.165   6.131   2.922  0.0292 -0.4503 -0.0753
  643MOL0     N84795   6.242   6.042   2.968  0.6589 -0.3772  0.6114
  643MOL0     C84796   7.444   6.270   3.335  0.3348  0.3260 -0.3689
  643MOL0     C84797   7.565   6.328   3.387 -0.2803 -0.2949  0.2960
  643MOL0     C84798   7.918   6.600   3.426 -0.7492 -0.6203  0.0047
  643MOL0     C84799   8.028   6.628   3.349 -0.2129 -0.1001  0.0089
  643MOL0     C84800   8.150   6.662   3.414  0.0894 -0.3331 -0.9861
  643MOL0     C84801   8.159   6.670   3.554  0.2244 -0.6380  0.0154
  643MOL0     O84802   8.273   6.697   3.626 -0.3096 -0.1579 -0.6065
  643MOL0     C84803   8.372   6.783   3.569 -0.6616 -0.6106  0.4542
  643MOL0     C84804   8.440   6.879   3.670 -0.4089 -1.0284  0.4260
  643MOL0     C84805   8.345   6.949   3.771 -0.1799  0.3599  0.6485
  643MOL0     C84806   8.411   7.019   3.889  0.3347  0.9127 -0.1387
  643MOL0     C84807   8.512   7.108   3.833 -0.2836 -0.7562 -1.1483
  643MOL0     C84808   8.599   7.185   3.804  0.0578  0.1519 -0.7781
  643MOL0     C84809   8.040   6.673   3.626  0.6010  0.2570  0.0003
  643MOL0     C84810   7.923   6.637   3.569 -0.3577  1.3657 -0.0863
  643MOL0     H84811   7.459   6.646   3.418 -0.2142  0.6693 -0.7650
  643MOL0     H84812   7.227   6.528   3.359 -1.2372 -0.8506  1.0044
  643MOL0     H84813   7.047   6.417   3.266  0.6302  0.7244  0.3720
  643MOL0     H84814   7.037   6.299   3.406  4.1444 -1.0293  1.1685
  643MOL0     H84815   7.041   6.111   3.236  1.5749 -0.2449 -1.4335
  643MOL0     H84816   7.013   6.230   3.119  1.6231 -1.3639  0.0410
  643MOL0     H84817   6.812   6.322   3.231 -1.7684 -0.4272  0.1641
  643MOL0     H84818   6.819   6.201   3.358 -1.5209  1.0375  0.6235
  643MOL0     H84819   6.782   6.146   3.056 -4.7892 -0.2336 -0.5837
  643MOL0     H84820   6.803   6.013   3.171  0.0333 -0.4604 -1.9925
  643MOL0     H84821   6.552   6.205   3.168  0.3219  0.6861  0.0570
  643MOL0     H84822   6.594   6.094   3.299  1.6233 -2.5654  0.8309
  643MOL0     H84823   6.422   6.026   3.134  0.4499 -0.6865  0.6858
  643MOL0     H84824   6.547   5.903   3.154  0.3117 -0.5818 -0.1806
  643MOL0     H84825   6.569   6.098   2.921 -3.2316  1.0985 -1.0628
  643MOL0     H84826   6.649   5.944   2.946 -0.5856 -1.1534 -0.4746
  643MOL0     H84827   6.438   5.828   2.923  0.9303 -0.4605 -1.8688
  643MOL0     H84828   6.493   5.913   2.781 -1.1264  0.2484 -0.3971
  643MOL0     H84829   6.381   6.138   2.685  1.7069  2.1684  1.8160
  643MOL0     H84830   6.211   6.351   2.709  0.3484 -1.8133  2.8385
  643MOL0     H84831   6.047   6.335   2.779 -2.4040 -2.3253  0.1580
  643MOL0     H84832   6.051   6.122   2.602 -1.1833  0.0470  0.4506
  643MOL0     H84833   6.167   6.236   2.526 -0.8505  1.0592 -0.3472
  643MOL0     H84834   5.951   6.408   2.541  0.7185  0.8497 -0.5362
  643MOL0     H84835   5.971   6.290   2.417 -4.4040  0.7709 -0.9051
  643MOL0     H84836   5.852   6.136   2.587 -0.3211 -0.5504  0.3467
  643MOL0     H84837   5.738   6.244   2.508 -0.5633  2.0235  1.6212
  643MOL0     H84838   5.700   6.429   2.904 -1.2985  0.9038  1.3521
  643MOL0     H84839   5.518   6.348   3.052 -0.9806 -0.9335  0.2843
  643MOL0     H84840   5.272   5.824   3.233 -0.8889 -0.5837  2.4463
  643MOL0     H84841   5.039   5.793   3.343 -1.0449 -0.0474 -0.3803
  643MOL0     H84842   4.617   5.948   3.273 -0.0314  0.0433  1.6886
  643MOL0     H84843   4.711   6.066   3.182 -0.4510  0.4227 -0.0492
  643MOL0     H84844   4.841   6.139   3.368 -0.1792 -1.1012  0.2580
  643MOL0     H84845   4.753   6.019   3.474 -0.1009 -1.1871 -1.1874
  643MOL0     H84846   4.545   6.122   3.422  1.7504 -1.2352 -2.5907
  643MOL0     H84847   4.608   6.245   3.312 -0.6783  0.9129 -0.9005
  643MOL0     H84848   4.700   6.211   3.608  1.5503 -1.0443 -0.5634
  643MOL0     H84849   4.725   6.353   3.505  1.3936 -1.6532 -0.8932
  643MOL0     H84850   4.451   6.244   3.606  0.8488 -0.5596  1.0440
  643MOL0     H84851   4.466   6.377   3.497 -1.8401 -0.4507  0.8625
  643MOL0     H84852   4.563   6.369   3.790 -2.0004 -0.8553 -0.0165
  643MOL0     H84853   4.429   6.449   3.734  0.7656 -0.6103  1.0871
  643MOL0     H84854   4.693   6.549   3.613  0.1701 -0.6120 -0.0744
  643MOL0     H84855   4.547   6.628   3.630 -1.5462  1.2210  3.3553
  643MOL0     H84856   4.737   6.689   3.786  0.5178 -0.3554  1.0172
  643MOL0     H84857   4.738   6.526   3.849  0.0784 -0.8700 -0.0009
  643MOL0     H84858   4.872   6.048   3.035 -0.3164 -0.7597  0.2006
  643MOL0     H84859   5.093   6.104   2.960  0.9399 -1.2180 -0.4421
  643MOL0     H84860   5.490   5.998   2.791  0.1356  0.5734 -2.3257
  643MOL0     H84861   5.666   6.072   2.668  2.6859  1.9385 -0.7939
  643MOL0     H84862   7.438   6.168   3.298  0.8833  0.4381 -0.7742
  643MOL0     H84863   7.656   6.269   3.379  0.5686  1.0759 -0.6171
  643MOL0     H84864   8.016   6.618   3.241 -3.3989  2.6666 -0.0618
  643MOL0     H84865   8.239   6.653   3.351 -0.6537 -3.2649 -1.7985
  643MOL0     H84866   8.325   6.831   3.482 -0.5950  0.1359  0.8282
  643MOL0     H84867   8.449   6.716   3.528  0.2304 -0.7802  2.3263
  643MOL0     H84868   8.529   6.834   3.715 -1.4809 -1.0085  2.6773
  643MOL0     H84869   8.486   6.966   3.622  0.3026  0.7308  3.9645
  643MOL0     H84870   8.272   6.880   3.813 -1.2741  0.3576 -1.1605
  643MOL0     H84871   8.303   7.032   3.714 -1.1383  0.2454  1.1610
  643MOL0     H84872   8.341   7.073   3.954  1.2200 -1.0601  2.6389
  643MOL0     H84873   8.463   6.950   3.956 -0.8522  2.0151  2.0118
  643MOL0     H84874   8.675   7.255   3.775  1.0638 -0.1376  1.0191
  643MOL0     H84875   8.040   6.696   3.732  1.6342 -0.2373  0.1183
  643MOL0     H84876   7.831   6.638   3.627 -0.8967 -2.9829 -0.5338
  644MOL0     O84877   8.213   7.162   6.244  0.3300  0.4003 -0.8284
  644MOL0     C84878   8.298   7.250   6.221 -0.8073 -0.2621 -0.1693
  644MOL0     O84879   8.287   7.384   6.246  0.0577  1.3004  0.0207
  644MOL0     C84880   8.204   7.431   6.345 -0.1052 -0.6951  0.2687
  644MOL0     C84881   8.182   7.572   6.348  0.4112 -0.0374  0.1795
  644MOL0     C84882   8.104   7.629   6.452  0.4634 -0.0123  0.1821
  644MOL0     C84883   8.050   7.546   6.553  0.0884 -0.1132  0.5062
  644MOL0     O84884   7.972   7.600   6.648 -0.8688 -0.8447 -0.4561
  644MOL0     C84885   7.892   7.517   6.728  1.1471 -0.4382 -0.2898
  644MOL0     C84886   7.794   7.596   6.814 -0.4703 -0.5430  0.8113
  644MOL0     C84887   7.675   7.522   6.877  0.1916  0.4159 -0.0921
  644MOL0     C84888   7.572   7.609   6.949  0.2002  0.3360 -1.2006
  644MOL0     C84889   7.463   7.522   7.009 -0.3723 -0.3645  0.1716
  644MOL0     C84890   7.364   7.472   6.905 -0.5944  0.1935  0.7008
  644MOL0     C84891   7.216   7.468   6.953 -0.7225  0.2421  0.5638
  644MOL0     C84892   7.129   7.383   6.857 -0.4189  0.0672 -0.3060
  644MOL0     N84893   6.989   7.383   6.904 -0.4649 -0.5970  0.3120
  644MOL0     C84894   6.900   7.489   6.905  0.3780 -0.0118 -0.0292
  644MOL0     C84895   6.785   7.440   6.964 -0.4165 -1.1512 -0.1323
  644MOL0     C84896   6.657   7.526   6.982  0.0153 -1.1187 -0.4053
  644MOL0     C84897   6.680   7.663   7.042  0.1563  0.9715 -0.6425
  644MOL0     C84898   6.538   7.704   7.104  0.3324 -0.2612  0.2256
  644MOL0     C84899   6.417   7.714   7.000  0.5163  0.0901  0.2550
  644MOL0     O84900   6.309   7.784   7.068 -0.2598 -0.1728  0.0710
  644MOL0     C84901   6.181   7.775   7.019  0.4181  0.4017  0.5665
  644MOL0     C84902   6.080   7.836   7.093  0.7080 -0.0431 -0.5092
  644MOL0     C84903   5.945   7.836   7.049 -0.4865  0.5539 -1.0942
  644MOL0     C84904   5.914   7.782   6.927  0.4710 -0.4725  0.0096
  644MOL0     C84905   5.768   7.783   6.883 -0.6653 -1.0181 -0.8867
  644MOL0     O84906   5.728   7.719   6.771 -0.0847 -0.1858  0.1871
  644MOL0     C84907   5.600   7.713   6.723 -0.6841 -0.0136 -0.2214
  644MOL0     C84908   5.537   7.835   6.688 -0.9045  0.0062  1.0534
  644MOL0     C84909   5.404   7.824   6.642  0.0029  0.7397  0.3965
  644MOL0     C84910   5.335   7.705   6.646 -0.1715  0.5664  0.2592
  644MOL0     O84911   5.198   7.710   6.621 -0.1094  0.4904  0.2221
  644MOL0     C84912   5.155   7.651   6.494 -0.5124  0.2232  0.2162
  644MOL0     C84913   5.002   7.656   6.509  0.5443 -0.0225  0.0598
  644MOL0     C84914   4.931   7.603   6.381 -0.2594 -0.6801 -0.2394
  644MOL0     C84915   4.784   7.602   6.411  0.1826 -0.1021  0.9413
  644MOL0     C84916   4.680   7.560   6.302  0.0708  0.4644 -0.2096
  644MOL0     C84917   4.698   7.639   6.176 -0.4725  0.0901 -0.5685
  644MOL0     C84918   4.591   7.596   6.075  0.3082 -0.5304  0.2060
  644MOL0     C84919   4.451   7.635   6.111  0.0778 -0.2817 -0.6075
  644MOL0    Cl84920   4.346   7.638   5.967 -0.2404 -0.0246  0.2443
  644MOL0     C84921   5.393   7.596   6.704  0.2282 -0.5922 -0.1160
  644MOL0     C84922   5.537   7.597   6.715 -0.0653  0.2930  0.4146
  644MOL0     O84923   5.693   7.855   6.948  0.0195 -0.3271 -0.5378
  644MOL0     C84924   6.017   7.719   6.848  0.4997  0.7165 -0.8628
  644MOL0     C84925   6.149   7.717   6.891 -0.2794 -0.5123 -0.1413
  644MOL0     N84926   6.804   7.305   6.984 -0.4727 -0.6368 -0.0706
  644MOL0     N84927   6.927   7.276   6.954  0.8085 -0.0479  0.1019
  644MOL0     C84928   8.070   7.411   6.542  0.2135 -0.1928 -0.6076
  644MOL0     C84929   8.144   7.350   6.443  0.6564 -0.5500 -0.5469
  644MOL0     C84930   8.419   7.212   6.144  0.0397 -0.0283 -0.3083
  644MOL0     C84931   8.427   7.087   6.093  0.0485 -0.2114 -0.5539
  644MOL0     C84932   8.521   7.065   5.993 -0.1162  0.5119  0.1256
  644MOL0     C84933   8.611   7.163   5.957 -1.1583 -0.2511  0.0739
  644MOL0     O84934   8.708   7.149   5.857  0.9095  0.0590 -0.7713
  644MOL0     C84935   8.762   7.015   5.836 -0.0112 -0.0646 -0.2417
  644MOL0     C84936   8.874   7.026   5.731 -0.1457 -1.1336  0.6051
  644MOL0     C84937   9.011   7.044   5.798  0.2652 -0.3195 -0.3357
  644MOL0     C84938   9.047   7.190   5.833  0.2249  0.2731  0.4515
  644MOL0     C84939   9.190   7.203   5.860 -0.5094  0.0403  0.1845
  644MOL0     C84940   9.309   7.213   5.889 -0.4768 -0.3990  0.3649
  644MOL0     C84941   8.614   7.283   6.025 -0.3788  0.5311  0.4693
  644MOL0     C84942   8.511   7.308   6.116  0.1523  0.1366 -0.3573
  644MOL0     H84943   8.217   7.632   6.264 -1.8053 -1.1805 -1.6660
  644MOL0     H84944   8.107   7.737   6.462  1.6027 -0.1800  2.0742
  644MOL0     H84945   7.944   7.445   6.790 -0.2091 -0.3043  1.0595
  644MOL0     H84946   7.842   7.464   6.646  1.0081  1.1986 -1.3122
  644MOL0     H84947   7.751   7.663   6.739 -1.2433 -1.3374  0.5244
  644MOL0     H84948   7.840   7.662   6.888 -2.6282 -0.0056  1.7797
  644MOL0     H84949   7.717   7.461   6.957 -2.1108 -0.4770  0.5219
  644MOL0     H84950   7.629   7.451   6.807 -0.6856 -0.6230  1.4709
  644MOL0     H84951   7.623   7.663   7.030  2.8570 -2.5584 -0.7199
  644MOL0     H84952   7.528   7.677   6.877  1.7790 -0.2992 -2.8477
  644MOL0     H84953   7.409   7.595   7.070 -0.6007 -1.4720  1.3326
  644MOL0     H84954   7.503   7.444   7.075 -0.7160 -0.5218  0.1953
  644MOL0     H84955   7.388   7.368   6.883 -1.1144 -0.8740  4.5438
  644MOL0     H84956   7.384   7.532   6.815  3.5379 -1.0842  0.5709
  644MOL0     H84957   7.211   7.440   7.059 -0.0661  2.2950  1.1780
  644MOL0     H84958   7.180   7.569   6.931 -1.1661 -0.6832 -3.7977
  644MOL0     H84959   7.158   7.278   6.867 -2.9367 -0.5360  1.4589
  644MOL0     H84960   7.140   7.415   6.753  0.0544  0.0040 -0.2796
  644MOL0     H84961   6.930   7.588   6.872 -0.4812 -0.1007 -1.1352
  644MOL0     H84962   6.584   7.470   7.041 -0.6512  1.3354  1.2821
  644MOL0     H84963   6.605   7.534   6.886 -2.6320 -0.3822  0.9800
  644MOL0     H84964   6.719   7.746   6.982  0.4208  0.8474 -0.6455
  644MOL0     H84965   6.748   7.643   7.125 -1.4765  0.9654  0.7382
  644MOL0     H84966   6.517   7.636   7.188 -0.1474 -0.5591 -0.1351
  644MOL0     H84967   6.539   7.799   7.159  0.9075 -0.5463  0.7284
  644MOL0     H84968   6.384   7.618   6.961  1.1345 -0.1059  0.2028
  644MOL0     H84969   6.450   7.785   6.924  0.1041  0.4780  0.4311
  644MOL0     H84970   6.098   7.874   7.193 -1.3068 -1.1909  0.3607
  644MOL0     H84971   5.865   7.867   7.115 -1.6539 -3.8043 -0.1590
  644MOL0     H84972   5.583   7.933   6.692 -0.4106 -0.2219  0.9584
  644MOL0     H84973   5.366   7.920   6.608 -1.3095  0.2572  0.4605
  644MOL0     H84974   5.191   7.549   6.479  0.1536  0.5428 -0.3757
  644MOL0     H84975   5.185   7.720   6.415  0.8955  0.0978  0.6106
  644MOL0     H84976   4.958   7.755   6.527 -1.7457 -1.1703  1.1199
  644MOL0     H84977   4.965   7.603   6.596  0.8558  3.3878  2.4809
  644MOL0     H84978   4.977   7.507   6.355  0.9004 -1.6396  4.4108
  644MOL0     H84979   4.940   7.673   6.298 -1.0220 -1.3646 -0.9257
  644MOL0     H84980   4.781   7.522   6.485  0.0648  0.0459  1.0965
  644MOL0     H84981   4.751   7.699   6.450 -0.1272  0.8453 -1.4605
  644MOL0     H84982   4.581   7.575   6.345 -0.3984  0.2725 -1.1941
  644MOL0     H84983   4.693   7.454   6.281 -0.5241 -0.2324  2.5214
  644MOL0     H84984   4.799   7.631   6.136 -0.5946 -5.4631 -0.5217
  644MOL0     H84985   4.687   7.747   6.191 -2.3092  0.0231 -1.1009
  644MOL0     H84986   4.607   7.667   5.992  0.0999 -0.8463 -0.1083
  644MOL0     H84987   4.610   7.490   6.057  1.7280 -0.4317  0.9646
  644MOL0     H84988   4.457   7.736   6.151  1.3243 -0.5022 -0.1817
  644MOL0     H84989   4.402   7.569   6.184 -0.1528 -0.7838 -1.2072
  644MOL0     H84990   5.331   7.508   6.717  0.9927 -1.2203 -0.6221
  644MOL0     H84991   5.581   7.505   6.751 -2.6159 -0.3705  2.1503
  644MOL0     H84992   5.995   7.692   6.746 -2.9082  1.4637 -0.4552
  644MOL0     H84993   6.221   7.667   6.826 -1.9540 -4.6442  0.8057
  644MOL0     H84994   8.050   7.343   6.624  2.7234 -0.8641 -0.4907
  644MOL0     H84995   8.156   7.243   6.450  1.1596 -0.6096 -1.9529
  644MOL0     H84996   8.351   7.014   6.115  1.1672 -1.6440 -1.2905
  644MOL0     H84997   8.518   6.968   5.944 -0.9852 -0.4630  1.9942
  644MOL0     H84998   8.679   6.948   5.810 -1.8897  1.9329  0.2850
  644MOL0     H84999   8.789   6.985   5.937  0.5772  1.7715  0.1893
  644MOL0     H85000   8.852   6.928   5.689  0.0061 -1.3100  0.9387
  644MOL0     H85001   8.847   7.105   5.660 -1.0170 -1.4559  0.5636
  644MOL0     H85002   9.086   7.009   5.726  2.8539  0.6282  1.7249
  644MOL0     H85003   9.026   6.968   5.875 -1.3194 -2.7227 -2.2761
  644MOL0     H85004   9.020   7.246   5.744 -0.0915 -3.7805 -2.2592
  644MOL0     H85005   8.983   7.225   5.915  0.3621  0.0489  0.6567
  644MOL0     H85006   9.413   7.232   5.908 -0.4817 -1.3694  1.4819
  644MOL0     H85007   8.683   7.361   5.994 -0.6804  0.5948 -0.0660
  644MOL0     H85008   8.488   7.407   6.153 -1.5323 -0.7354  1.1275
  645MOL0     O85009   3.086   3.045  10.744  0.8994 -0.4926  0.0471
  645MOL0     C85010   3.048   3.048  10.864  0.0351  1.0068  0.3118
  645MOL0     O85011   2.916   3.032  10.906 -0.6379 -0.8961 -0.9136
  645MOL0     C85012   2.819   3.022  10.818  0.4894 -0.5243  0.8156
  645MOL0     C85013   2.801   2.900  10.759  0.2831 -0.4784 -0.2377
  645MOL0     C85014   2.713   2.874  10.655 -0.3359 -0.1924 -0.5877
  645MOL0     C85015   2.628   2.974  10.608  0.4269 -0.7659  0.0316
  645MOL0     O85016   2.533   2.940  10.517  0.7253  0.1935 -0.5779
  645MOL0     C85017   2.435   3.044  10.490 -0.1953  0.5298 -0.3939
  645MOL0     C85018   2.322   2.976  10.408  0.2011  0.7260  0.5870
  645MOL0     C85019   2.373   2.927  10.267  1.3488 -0.2926 -0.0019
  645MOL0     C85020   2.249   2.877  10.192  0.3838 -0.6500 -1.0525
  645MOL0     C85021   2.287   2.844  10.050  0.1855  0.5412 -0.1917
  645MOL0     C85022   2.197   2.742   9.974  0.7494 -0.4235 -0.2239
  645MOL0     C85023   2.040   2.775   9.990 -0.3165  0.6079  0.4619
  645MOL0     C85024   1.961   2.751   9.862  0.4261  0.6525  0.1311
  645MOL0     N85025   1.817   2.751   9.874 -0.3663 -0.4663 -0.6177
  645MOL0     C85026   1.749   2.640   9.874  0.3500 -0.0474 -0.0835
  645MOL0     C85027   1.618   2.672   9.845 -0.9562  0.5607 -0.2185
  645MOL0     C85028   1.503   2.576   9.829 -0.2272  0.1034 -0.1928
  645MOL0     C85029   1.380   2.611   9.911 -0.8121  1.0340  0.9154
  645MOL0     C85030   1.249   2.548   9.868  0.0067  0.2672 -0.2129
  645MOL0     C85031   1.136   2.583   9.967  0.1827  0.8147  0.1070
  645MOL0     O85032   1.016   2.514   9.929 -0.2081  0.9500 -0.9387
  645MOL0     C85033   0.891   2.563   9.950 -0.4292 -0.4078  0.8236
  645MOL0     C85034   0.867   2.677  10.038  0.1160  1.0218  0.0896
  645MOL0     C85035   0.732   2.726  10.045  0.2135 -0.5885 -0.1572
  645MOL0     C85036   0.625   2.663   9.977  0.4487  0.4934 -0.3467
  645MOL0     C85037   0.483   2.705   9.991  0.1356  0.6621  0.2014
  645MOL0     O85038   0.391   2.612   9.958  0.5166 -0.5799 -0.3376
  645MOL0     C85039   0.252   2.629   9.979 -0.3191 -1.0790  0.5547
  645MOL0     C85040   0.183   2.750   9.980 -0.0874 -0.1570 -0.9196
  645MOL0     C85041   0.051   2.749  10.003  0.4448 -0.4511  0.6922
  645MOL0     C85042  -0.025   2.637  10.035 -0.0448  0.2724  0.0597
  645MOL0     O85043  -0.158   2.639  10.080 -0.1363 -0.5828 -0.7330
  645MOL0     C85044  -0.252   2.721  10.002 -0.2489  0.3798  0.3599
  645MOL0     C85045  -0.312   2.835  10.087 -0.1505 -0.2288 -0.8170
  645MOL0     C85046  -0.410   2.784  10.199  0.5240  0.4124 -0.1216
  645MOL0     C85047  -0.446   2.891  10.304  0.2038  0.8563  0.1040
  645MOL0     C85048  -0.574   2.849  10.374  0.7748  0.0802 -0.0148
  645MOL0     C85049  -0.635   2.958  10.454 -0.3418  0.5009 -0.0753
  645MOL0     C85050  -0.735   2.909  10.555 -0.1565 -0.8545 -0.5125
  645MOL0     C85051  -0.810   3.025  10.623  0.1907  0.5454 -0.1460
  645MOL0    Cl85052  -0.879   2.955  10.767  0.1857  0.1235  0.1708
  645MOL0     C85053   0.045   2.513  10.037  0.1345  0.0552  0.5225
  645MOL0     C85054   0.180   2.512   9.997  0.2601  0.2033 -0.4531
  645MOL0     O85055   0.458   2.818  10.028  0.7854  0.5833  0.4639
  645MOL0     C85056   0.661   2.556   9.891  0.2758 -0.0698 -0.5497
  645MOL0     C85057   0.796   2.522   9.867  0.4576  0.0603  0.4501
  645MOL0     N85058   1.615   2.804   9.824  0.0680 -1.3340 -0.3464
  645MOL0     N85059   1.728   2.858   9.852 -0.0584 -0.1478 -0.0658
  645MOL0     C85060   2.644   3.100  10.673  0.2183  0.2205  0.7056
  645MOL0     C85061   2.740   3.122  10.769 -0.2650  0.4240  0.0552
  645MOL0     C85062   3.152   3.083  10.966 -0.2167  0.3441  0.3327
  645MOL0     C85063   3.114   3.086  11.099 -0.0874 -0.5602  0.0127
  645MOL0     C85064   3.214   3.128  11.187  0.1968  1.4900 -0.5724
  645MOL0     C85065   3.351   3.139  11.152  0.1023 -0.9582  0.0498
  645MOL0     O85066   3.434   3.186  11.251  0.0581 -0.6348  0.2295
  645MOL0     C85067   3.570   3.218  11.218  0.7668 -0.0167  0.9474
  645MOL0     C85068   3.627   3.303  11.323  0.0953 -1.3036  0.0154
  645MOL0     C85069   3.781   3.317  11.299 -0.0445  0.6986  0.2291
  645MOL0     C85070   3.871   3.219  11.382  0.1370 -0.3858  0.9922
  645MOL0     C85071   4.015   3.263  11.371  0.8811 -0.1194 -0.2951
  645MOL0     C85072   4.123   3.311  11.350  0.1290 -0.3562 -0.7776
  645MOL0     C85073   3.384   3.126  11.015 -0.0541 -0.1870  0.5801
  645MOL0     C85074   3.284   3.103  10.924 -0.0659  0.6971 -0.0763
  645MOL0     H85075   2.869   2.821  10.789  1.0461 -1.5872 -4.2739
  645MOL0     H85076   2.713   2.775  10.609  0.0852 -0.0299 -0.9386
  645MOL0     H85077   2.476   3.122  10.425  3.4962 -0.5458  0.4007
  645MOL0     H85078   2.396   3.094  10.579  3.1392  2.6214  0.0841
  645MOL0     H85079   2.247   3.054  10.394  1.0901  1.3015 -1.2677
  645MOL0     H85080   2.281   2.892  10.465  2.4256 -0.6393  0.3257
  645MOL0     H85081   2.450   2.850  10.276 -0.4479 -2.2580 -0.7150
  645MOL0     H85082   2.416   3.006  10.204  0.9603  1.5404  1.8917
  645MOL0     H85083   2.207   2.797  10.254 -2.3995  0.2808 -1.6069
  645MOL0     H85084   2.168   2.950  10.194  1.3118  0.4155 -1.0241
  645MOL0     H85085   2.389   2.805  10.045 -0.2954 -0.7673 -0.0313
  645MOL0     H85086   2.286   2.936   9.991 -0.2560  1.6092  1.3967
  645MOL0     H85087   2.214   2.645  10.021 -1.0916  0.3237  2.1811
  645MOL0     H85088   2.222   2.749   9.868  1.9771  0.2922  0.0866
  645MOL0     H85089   2.002   2.704  10.065  0.7622 -1.3381 -0.7390
  645MOL0     H85090   2.025   2.880  10.016  2.8987  1.0785  0.7439
  645MOL0     H85091   1.982   2.653   9.817 -3.7120 -0.6186  0.5934
  645MOL0     H85092   1.993   2.825   9.788 -0.4748 -0.6385 -1.6486
  645MOL0     H85093   1.797   2.542   9.866  1.3056  0.2677  1.4148
  645MOL0     H85094   1.530   2.470   9.838  4.3176  0.9970 -0.7669
  645MOL0     H85095   1.469   2.597   9.727 -0.0940  0.5363 -0.1505
  645MOL0     H85096   1.367   2.719   9.916 -2.8922  1.1099 -2.9004
  645MOL0     H85097   1.408   2.575  10.011 -0.3761 -0.6119  0.2395
  645MOL0     H85098   1.229   2.579   9.765 -0.4790  2.7802  0.5644
  645MOL0     H85099   1.253   2.439   9.860  0.0760  0.2628 -0.1170
  645MOL0     H85100   1.136   2.692   9.968 -0.9023  0.8207  1.5234
  645MOL0     H85101   1.154   2.543  10.067  0.7810  0.3470 -0.1762
  645MOL0     H85102   0.955   2.726  10.080  1.4169 -0.6110 -0.6094
  645MOL0     H85103   0.717   2.806  10.116  0.4234 -1.8670  1.3800
  645MOL0     H85104   0.239   2.843   9.979  0.6026 -0.5087  0.6740
  645MOL0     H85105   0.012   2.851  10.004 -0.6827 -0.8589  0.4143
  645MOL0     H85106  -0.336   2.656   9.975 -0.4352  0.0032  1.7848
  645MOL0     H85107  -0.214   2.771   9.912 -3.9896  2.0307 -0.5403
  645MOL0     H85108  -0.363   2.904  10.019 -1.6574  1.3172  1.6858
  645MOL0     H85109  -0.238   2.895  10.140  1.1261  1.3703 -4.1701
  645MOL0     H85110  -0.364   2.710  10.265 -2.7013  0.1481  2.0700
  645MOL0     H85111  -0.500   2.735  10.160  1.7521 -0.7182 -1.6767
  645MOL0     H85112  -0.361   2.894  10.373  0.1368  1.9768  0.1531
  645MOL0     H85113  -0.470   2.985  10.254 -2.5771 -0.5619 -1.4929
  645MOL0     H85114  -0.555   2.764  10.439 -0.8358  1.0996  1.8990
  645MOL0     H85115  -0.659   2.823  10.310 -0.4672  0.8994  1.2471
  645MOL0     H85116  -0.681   3.027  10.383 -1.2649  0.8771  0.8600
  645MOL0     H85117  -0.556   3.008  10.511 -2.0982  1.1424  1.9367
  645MOL0     H85118  -0.804   2.854  10.491 -0.9167  0.3200 -0.7286
  645MOL0     H85119  -0.685   2.845  10.629 -0.7446 -2.2374 -1.2896
  645MOL0     H85120  -0.878   3.066  10.548  1.4033 -1.1183 -2.2591
  645MOL0     H85121  -0.741   3.099  10.664  0.2943  0.6731 -0.5448
  645MOL0     H85122  -0.011   2.429  10.077  0.2982 -0.0618  0.5045
  645MOL0     H85123   0.221   2.412   9.998  0.2525  0.2040  0.0095
  645MOL0     H85124   0.584   2.508   9.831 -0.6732  0.1505  0.4626
  645MOL0     H85125   0.823   2.451   9.789  1.2732 -0.7056  1.4023
  645MOL0     H85126   2.591   3.188  10.640  0.2258  1.0935  2.8380
  645MOL0     H85127   2.755   3.218  10.815  1.7034 -0.8522  2.2849
  645MOL0     H85128   3.015   3.054  11.131  0.0043 -1.8963 -0.9280
  645MOL0     H85129   3.187   3.154  11.289  1.4207  0.2004  0.1342
  645MOL0     H85130   3.575   3.280  11.128 -0.5381 -1.5524 -0.2172
  645MOL0     H85131   3.622   3.123  11.208 -0.7838 -0.6153 -4.8437
  645MOL0     H85132   3.587   3.404  11.321  0.8876 -0.7351  3.8125
  645MOL0     H85133   3.602   3.257  11.419 -0.6450  0.3732  0.6641
  645MOL0     H85134   3.801   3.416  11.342 -4.7740  1.2894  1.6551
  645MOL0     H85135   3.801   3.325  11.192 -0.9240 -1.2138 -0.1312
  645MOL0     H85136   3.837   3.208  11.486  2.0282  0.3520  1.7223
  645MOL0     H85137   3.868   3.125  11.326 -0.8805 -0.1509  0.6317
  645MOL0     H85138   4.226   3.332  11.327  1.0800 -0.8841  2.4410
  645MOL0     H85139   3.486   3.149  10.987  0.2791 -0.0035  1.8856
  645MOL0     H85140   3.311   3.087  10.820 -1.7569 -0.4859 -0.3868
  646MOL0     O85141   1.225   2.692   8.931  0.1378  0.5357  0.2790
  646MOL0     C85142   1.290   2.586   8.931  0.1657 -0.4040 -0.3438
  646MOL0     O85143   1.230   2.462   8.928  1.4546  0.2503  0.5910
  646MOL0     C85144   1.098   2.458   8.957 -0.4126  0.4421 -0.2429
  646MOL0     C85145   1.039   2.500   9.085 -0.6130 -0.6192 -0.8009
  646MOL0     C85146   0.899   2.476   9.105 -0.6887  0.5005  0.6162
  646MOL0     C85147   0.813   2.414   9.015 -0.0378 -0.8087 -0.0308
  646MOL0     O85148   0.679   2.412   9.046 -0.0392  0.0412  0.2019
  646MOL0     C85149   0.587   2.340   8.956 -0.7677 -0.3863  0.2967
  646MOL0     C85150   0.467   2.303   9.038  0.4264 -0.0053  0.5347
  646MOL0     C85151   0.383   2.212   8.957 -0.3876 -0.7495  0.6246
  646MOL0     C85152   0.234   2.226   8.990  0.8022 -0.2514  0.3901
  646MOL0     C85153   0.201   2.203   9.134 -1.1733 -0.1596 -0.5980
  646MOL0     C85154   0.215   2.050   9.178 -0.5960 -0.8709 -0.5866
  646MOL0     C85155   0.187   2.035   9.330  0.0372 -0.3664 -0.2476
  646MOL0     C85156   0.107   1.909   9.359 -0.5323 -0.2689 -0.2835
  646MOL0     N85157   0.071   1.905   9.499 -0.3252  0.0929  0.3956
  646MOL0     C85158  -0.048   1.945   9.556  0.9054  0.1515  0.9478
  646MOL0     C85159  -0.028   1.939   9.682 -1.2115  0.1443 -0.2551
  646MOL0     C85160  -0.132   1.955   9.793 -0.4925 -0.1143 -0.0167
  646MOL0     C85161  -0.131   2.109   9.849 -0.4401  0.2605  0.2235
  646MOL0     C85162  -0.205   2.111   9.984 -0.9401 -0.1306  0.4023
  646MOL0     C85163  -0.269   2.243   9.995 -1.1266 -0.9537  0.2418
  646MOL0     O85164  -0.355   2.235  10.110 -0.4358 -0.0036 -0.1206
  646MOL0     C85165  -0.462   2.317  10.126 -0.7657 -1.2748 -0.0484
  646MOL0     C85166  -0.551   2.283  10.219 -0.4530  0.3251  0.5313
  646MOL0     C85167  -0.666   2.355  10.251  0.4492 -0.2007 -0.5364
  646MOL0     C85168  -0.691   2.469  10.175 -0.3973  0.1277  0.8773
  646MOL0     C85169  -0.812   2.552  10.204 -0.7504 -0.0118 -0.3507
  646MOL0     O85170  -0.873   2.531  10.330  0.7885  0.0884  0.1559
  646MOL0     C85171  -1.002   2.569  10.367  0.0762 -0.3139 -0.6466
  646MOL0     C85172  -1.057   2.692  10.327 -0.1506  0.0732  0.4826
  646MOL0     C85173  -1.187   2.728  10.374 -0.2371  0.0606  0.5302
  646MOL0     C85174  -1.258   2.645  10.464 -0.5652  0.1519  0.0568
  646MOL0     O85175  -1.380   2.682  10.500 -0.2468 -0.7478 -0.6232
  646MOL0     C85176  -1.479   2.593  10.452  0.4574  0.3102 -0.5514
  646MOL0     C85177  -1.613   2.635  10.517  0.2842 -0.4057  0.0078
  646MOL0     C85178  -1.731   2.576  10.438  1.0016 -0.1891 -0.1069
  646MOL0     C85179  -1.861   2.643  10.497 -0.8115 -0.4150  0.8130
  646MOL0     C85180  -1.979   2.597  10.407 -0.8351 -0.6478  0.0740
  646MOL0     C85181  -2.114   2.627  10.483  0.2436  0.0023  0.2967
  646MOL0     C85182  -2.228   2.585  10.392  0.0410 -0.1600  1.0301
  646MOL0     C85183  -2.360   2.610  10.464  0.1283 -0.4595 -0.6486
  646MOL0    Cl85184  -2.392   2.778  10.528 -0.4028  0.3593 -0.0337
  646MOL0     C85185  -1.197   2.522  10.511 -0.3042 -0.5474 -0.3523
  646MOL0     C85186  -1.066   2.497  10.461 -0.1444  1.0155  0.1498
  646MOL0     O85187  -0.859   2.621  10.108 -0.5156  0.8269  0.4449
  646MOL0     C85188  -0.597   2.518  10.079  0.3099 -0.4732 -0.2500
  646MOL0     C85189  -0.491   2.436  10.051  0.6711  0.2477 -0.1687
  646MOL0     N85190   0.105   1.919   9.710  0.3399 -0.2294  0.4626
  646MOL0     N85191   0.163   1.890   9.598  0.2372  0.2318 -0.1733
  646MOL0     C85192   0.874   2.384   8.892 -0.0999 -0.9502 -0.0011
  646MOL0     C85193   1.010   2.403   8.859  0.3747 -0.1585  0.5357
  646MOL0     C85194   1.433   2.587   8.919 -0.3738  0.2628  0.5717
  646MOL0     C85195   1.515   2.473   8.889 -0.2349  0.3639 -0.4389
  646MOL0     C85196   1.651   2.478   8.875  0.6993 -0.7719  0.4246
  646MOL0     C85197   1.716   2.599   8.889 -0.8689  0.4853  0.8079
  646MOL0     O85198   1.853   2.586   8.866  0.0777  0.4080  0.3668
  646MOL0     C85199   1.933   2.707   8.846  0.9469 -0.4237 -0.3137
  646MOL0     C85200   2.044   2.659   8.754 -0.2871 -0.6280 -0.3118
  646MOL0     C85201   2.116   2.786   8.703 -0.5953  0.5460 -0.2849
  646MOL0     C85202   2.231   2.733   8.617 -0.0216 -0.1838  0.0324
  646MOL0     C85203   2.309   2.845   8.561  0.3486  1.0295 -0.1620
  646MOL0     C85204   2.365   2.927   8.488  0.2370 -0.2106 -0.3848
  646MOL0     C85205   1.643   2.712   8.912  0.5097 -0.2074 -0.2703
  646MOL0     C85206   1.509   2.711   8.940  0.6408  0.0119 -0.3368
  646MOL0     H85207   1.083   2.553   9.169  0.2547  1.7482 -2.6252
  646MOL0     H85208   0.856   2.524   9.193 -0.4656  2.2335 -0.1858
  646MOL0     H85209   0.638   2.254   8.913  0.6331 -0.0865  1.3051
  646MOL0     H85210   0.566   2.405   8.870  1.3733 -1.8676 -1.4546
  646MOL0     H85211   0.408   2.395   9.049  0.3587 -0.1205  1.1983
  646MOL0     H85212   0.497   2.261   9.135  1.7622  0.5315  0.3700
  646MOL0     H85213   0.410   2.107   8.973 -2.1310 -1.6123 -1.5997
  646MOL0     H85214   0.398   2.240   8.852  1.7316  1.6272  1.4633
  646MOL0     H85215   0.204   2.326   8.958 -1.3287 -0.4060  1.7195
  646MOL0     H85216   0.173   2.156   8.931  1.0803  0.0984 -0.3148
  646MOL0     H85217   0.096   2.232   9.144 -2.0243 -1.3987 -4.3667
  646MOL0     H85218   0.263   2.264   9.200 -1.3438 -0.4932 -0.1192
  646MOL0     H85219   0.313   2.009   9.154 -0.6142 -0.7319 -0.9113
  646MOL0     H85220   0.142   1.997   9.116 -1.3332  0.4876 -0.9256
  646MOL0     H85221   0.281   2.029   9.385  0.7354  1.0409 -1.2095
  646MOL0     H85222   0.124   2.120   9.358  0.3243  0.2451 -1.3923
  646MOL0     H85223   0.179   1.834   9.323 -0.9874 -2.0136  2.1657
  646MOL0     H85224   0.017   1.914   9.298 -1.6647 -2.1057  1.1258
  646MOL0     H85225  -0.143   1.959   9.504  0.8300  1.9823  1.5321
  646MOL0     H85226  -0.112   1.881   9.871  1.7986 -2.1989 -2.4036
  646MOL0     H85227  -0.232   1.935   9.755 -1.8677 -1.7342  3.8955
  646MOL0     H85228  -0.171   2.171   9.768  1.9732  0.2200 -1.0915
  646MOL0     H85229  -0.031   2.149   9.867 -0.3248  0.9677 -1.7602
  646MOL0     H85230  -0.286   2.039   9.971  1.4115 -2.7528 -0.8298
  646MOL0     H85231  -0.133   2.090  10.063  1.5258 -0.9577 -1.8901
  646MOL0     H85232  -0.322   2.288   9.911 -1.4763 -1.0850  0.3889
  646MOL0     H85233  -0.189   2.317  10.005  0.7393 -2.9542  0.8210
  646MOL0     H85234  -0.522   2.193  10.272 -0.1955  1.3512  2.1975
  646MOL0     H85235  -0.733   2.321  10.330  0.7445 -0.0996 -0.2374
  646MOL0     H85236  -1.004   2.747  10.250  1.6986 -0.3194  1.4199
  646MOL0     H85237  -1.232   2.819  10.334 -0.5219 -0.1389  0.3870
  646MOL0     H85238  -1.461   2.487  10.467 -0.1050  0.3340  0.3683
  646MOL0     H85239  -1.505   2.611  10.347  1.2694 -0.3891 -0.8774
  646MOL0     H85240  -1.616   2.744  10.520 -2.1474 -0.4504  0.6881
  646MOL0     H85241  -1.616   2.605  10.622  0.9713  0.0059  0.1509
  646MOL0     H85242  -1.726   2.467  10.438  2.4288 -0.2319 -2.8862
  646MOL0     H85243  -1.713   2.593  10.331 -0.2201 -1.0002 -0.4635
  646MOL0     H85244  -1.878   2.602  10.597  1.7123 -0.9182  1.1089
  646MOL0     H85245  -1.853   2.752  10.493 -0.1059 -0.4918 -2.3209
  646MOL0     H85246  -1.974   2.492  10.377  0.5191 -0.9654  1.2591
  646MOL0     H85247  -1.969   2.647  10.311  3.7449  0.5335  0.9391
  646MOL0     H85248  -2.125   2.734  10.505 -1.3261 -0.2970  1.1020
  646MOL0     H85249  -2.124   2.567  10.574 -2.0183 -2.4115 -1.4128
  646MOL0     H85250  -2.235   2.632  10.294  1.2524 -1.6920  0.1620
  646MOL0     H85251  -2.221   2.478  10.371  0.1584  0.4302 -2.4957
  646MOL0     H85252  -2.356   2.551  10.556  1.6094  0.9406  0.2492
  646MOL0     H85253  -2.441   2.587  10.394  0.3314 -2.2602 -0.3194
  646MOL0     H85254  -1.248   2.452  10.575 -1.6827  0.8172  0.0964
  646MOL0     H85255  -1.008   2.411  10.493  0.9240  2.0619  1.1104
  646MOL0     H85256  -0.609   2.613  10.027  2.9720  0.2084  0.2410
  646MOL0     H85257  -0.413   2.470   9.984  1.0412 -0.2555 -0.0015
  646MOL0     H85258   0.820   2.339   8.810  0.3061 -2.5979  0.5930
  646MOL0     H85259   1.050   2.392   8.758  1.8039  2.6522  0.7187
  646MOL0     H85260   1.470   2.377   8.868 -0.2632  0.8712 -2.9431
  646MOL0     H85261   1.710   2.396   8.837  2.2979  0.1079  0.9058
  646MOL0     H85262   1.978   2.742   8.939 -0.0144  0.0604 -0.0233
  646MOL0     H85263   1.870   2.785   8.802  1.2130  0.6451  1.1297
  646MOL0     H85264   2.116   2.597   8.808  0.0229 -1.0201 -1.1656
  646MOL0     H85265   2.001   2.602   8.671 -2.4427  0.1216  0.2070
  646MOL0     H85266   2.166   2.838   8.785  3.7889 -4.4080  0.7403
  646MOL0     H85267   2.056   2.846   8.634  0.3636 -0.2809 -1.9047
  646MOL0     H85268   2.301   2.674   8.678  0.2086 -0.8014 -0.8180
  646MOL0     H85269   2.195   2.671   8.535 -1.5520  0.3929  0.2415
  646MOL0     H85270   2.414   2.994   8.420  0.4040 -0.3988 -0.4549
  646MOL0     H85271   1.697   2.803   8.932 -0.2191  0.7223 -2.2702
  646MOL0     H85272   1.458   2.797   8.982  0.0560  0.1070 -1.2070
  647MOL0     O85273   9.779  10.640   4.893  0.6937  0.0434  0.0496
  647MOL0     C85274   9.822  10.610   4.782 -0.1352 -0.4680 -0.2865
  647MOL0     O85275   9.741  10.586   4.676 -0.2210  0.2470  0.8038
  647MOL0     C85276   9.606  10.567   4.702 -0.0759  0.4688 -0.1700
  647MOL0     C85277   9.561  10.452   4.761 -0.1251  0.6807  0.3324
  647MOL0     C85278   9.424  10.432   4.784 -0.1596  0.3749  1.0837
  647MOL0     C85279   9.326  10.537   4.763 -0.5400 -0.7901 -0.2463
  647MOL0     O85280   9.195  10.523   4.799  0.6201 -0.0885  0.6915
  647MOL0     C85281   9.119  10.647   4.816 -0.5586 -0.1976 -0.0495
  647MOL0     C85282   8.979  10.625   4.880  0.0681 -0.1303 -0.0435
  647MOL0     C85283   8.984  10.611   5.031 -0.5397  0.8557 -0.2667
  647MOL0     C85284   8.846  10.586   5.090 -0.2161  0.5608 -0.4753
  647MOL0     C85285   8.836  10.619   5.246  0.8593  0.1269  0.3294
  647MOL0     C85286   8.686  10.620   5.277  0.4398  0.3472  0.4290
  647MOL0     C85287   8.662  10.659   5.422  0.2068  0.3741  0.8030
  647MOL0     C85288   8.515  10.682   5.451 -0.0770  0.1137  0.2879
  647MOL0     N85289   8.488  10.658   5.587  0.0827  0.0036  0.0308
  647MOL0     C85290   8.409  10.551   5.625  0.1028 -0.6305 -0.3477
  647MOL0     C85291   8.387  10.580   5.754  0.2457 -1.2164  0.1198
  647MOL0     C85292   8.314  10.489   5.858  0.2014  0.5963 -0.4790
  647MOL0     C85293   8.198  10.577   5.920 -0.0426  0.0476 -0.0001
  647MOL0     C85294   8.135  10.497   6.033 -1.1055 -0.1545 -0.3646
  647MOL0     C85295   8.042  10.575   6.122  0.4052  0.0972  0.9026
  647MOL0     O85296   7.980  10.497   6.227  0.6225 -0.3975 -0.4770
  647MOL0     C85297   7.894  10.564   6.308  1.1560  0.2141 -0.1168
  647MOL0     C85298   7.854  10.702   6.315 -0.4706 -0.3625 -0.2639
  647MOL0     C85299   7.741  10.746   6.390 -0.7735  0.9300  0.5059
  647MOL0     C85300   7.671  10.655   6.477  0.6883  0.7756 -0.4019
  647MOL0     C85301   7.561  10.698   6.570  0.2632 -0.0333  0.1129
  647MOL0     O85302   7.528  10.609   6.673  0.1739 -0.1920  0.3749
  647MOL0     C85303   7.417  10.632   6.741  0.1607  0.2835  0.8486
  647MOL0     C85304   7.294  10.672   6.683  0.9132 -0.3797 -1.0686
  647MOL0     C85305   7.174  10.712   6.759 -0.2764 -0.2051 -0.7764
  647MOL0     C85306   7.189  10.708   6.898 -0.3257 -0.2900  0.5951
  647MOL0     O85307   7.078  10.761   6.962  0.6451  0.7825  0.0912
  647MOL0     C85308   7.059  10.705   7.093 -0.2709  0.7266 -0.0067
  647MOL0     C85309   6.928  10.754   7.156  0.4357  0.1784  0.2301
  647MOL0     C85310   6.815  10.718   7.056  0.3543 -0.4767 -0.1010
  647MOL0     C85311   6.673  10.769   7.109 -0.1192  0.0059 -0.5007
  647MOL0     C85312   6.580  10.780   6.992 -0.8340  0.4198  0.1858
  647MOL0     C85313   6.441  10.719   7.015  0.6198  0.0908  0.7964
  647MOL0     C85314   6.384  10.755   7.153 -0.4332  0.9151  0.1170
  647MOL0     C85315   6.250  10.686   7.168  0.2232 -0.1484 -0.8355
  647MOL0    Cl85316   6.175  10.741   7.325 -0.4569 -0.2113  0.2947
  647MOL0     C85317   7.311  10.676   6.954  0.0819 -0.1518  0.8825
  647MOL0     C85318   7.425  10.640   6.880 -0.0999 -0.0417  0.3073
  647MOL0     O85319   7.509  10.808   6.543  0.0581 -0.0953 -0.6577
  647MOL0     C85320   7.718  10.514   6.476  0.2928 -0.7703  0.4239
  647MOL0     C85321   7.820  10.476   6.388  0.1566 -0.2343 -0.0073
  647MOL0     N85322   8.465  10.691   5.791  0.0419 -0.5235 -0.3710
  647MOL0     N85323   8.524  10.744   5.686  0.0745  0.3795  0.8777
  647MOL0     C85324   9.374  10.657   4.709 -0.9303  0.6685 -0.0802
  647MOL0     C85325   9.512  10.668   4.674  0.2178 -0.5357 -0.0478
  647MOL0     C85326   9.967  10.622   4.754  0.1344  0.6867 -0.2969
  647MOL0     C85327  10.013  10.574   4.625  0.6079 -0.5934  0.2480
  647MOL0     C85328  10.147  10.581   4.603 -0.1889 -0.3138 -0.7337
  647MOL0     C85329  10.238  10.639   4.686 -0.4472 -0.5980 -0.6955
  647MOL0     O85330  10.374  10.656   4.659 -0.2967  0.3111 -0.4023
  647MOL0     C85331  10.432  10.623   4.534  0.5189  0.4503  0.5504
  647MOL0     C85332  10.581  10.626   4.538 -0.6102 -0.1343 -0.3649
  647MOL0     C85333  10.636  10.539   4.657 -0.7494 -0.0618 -1.1252
  647MOL0     C85334  10.716  10.645   4.752 -0.2261  0.1935  0.7284
  647MOL0     C85335  10.830  10.705   4.683 -1.2254  0.6969 -0.3347
  647MOL0     C85336  10.928  10.741   4.618 -0.9118 -0.2900 -0.4946
  647MOL0     C85337  10.190  10.695   4.801  0.2601  0.1955  0.0917
  647MOL0     C85338  10.059  10.678   4.838 -0.4637 -0.3682 -0.2493
  647MOL0     H85339   9.625  10.374   4.802 -1.8534 -0.0744  1.7160
  647MOL0     H85340   9.401  10.333   4.823  0.2588  0.3812  1.3568
  647MOL0     H85341   9.098  10.686   4.716 -0.6291 -3.2573 -1.3382
  647MOL0     H85342   9.173  10.720   4.877  0.4383  1.0127 -2.2707
  647MOL0     H85343   8.937  10.533   4.837  1.3549  0.0521 -1.7871
  647MOL0     H85344   8.918  10.712   4.854 -0.3291  0.3359  2.2420
  647MOL0     H85345   9.024  10.705   5.071 -0.9061  0.2824  1.5427
  647MOL0     H85346   9.065  10.548   5.070  1.0407  2.9362  0.0415
  647MOL0     H85347   8.778  10.650   5.033  1.7991  2.6489 -0.6974
  647MOL0     H85348   8.812  10.483   5.075 -1.1340  0.4718  1.8243
  647MOL0     H85349   8.878  10.719   5.263  1.6085  0.1105 -1.1983
  647MOL0     H85350   8.892  10.537   5.290 -0.8262 -2.5964 -2.1750
  647MOL0     H85351   8.648  10.518   5.267  1.8670 -0.5939  3.3720
  647MOL0     H85352   8.648  10.698   5.211  2.0905  1.1079  0.3468
  647MOL0     H85353   8.705  10.583   5.489  2.8459  2.2146  1.3560
  647MOL0     H85354   8.720  10.750   5.439 -2.4332  2.0638  1.3168
  647MOL0     H85355   8.444  10.631   5.385 -1.3130  2.8306 -0.6696
  647MOL0     H85356   8.475  10.783   5.437 -2.3172 -0.7410  0.0886
  647MOL0     H85357   8.378  10.466   5.565 -1.3224 -1.9549  2.0924
  647MOL0     H85358   8.388  10.451   5.929 -0.6579  1.5198  0.9691
  647MOL0     H85359   8.273  10.397   5.814 -1.8643  0.9190  0.6050
  647MOL0     H85360   8.113  10.594   5.854 -2.5311 -1.5853  2.5688
  647MOL0     H85361   8.246  10.673   5.941  2.1269 -0.3959 -2.3828
  647MOL0     H85362   8.107  10.394   6.009  2.3202 -0.9308 -1.6442
  647MOL0     H85363   8.215  10.484   6.106 -1.5797  2.1866  0.6537
  647MOL0     H85364   7.954  10.603   6.063 -0.4749  0.0462  2.1487
  647MOL0     H85365   8.088  10.666   6.163  0.8430  0.8351 -1.1306
  647MOL0     H85366   7.905  10.771   6.248 -0.1681 -0.8301 -0.5212
  647MOL0     H85367   7.698  10.845   6.377 -1.6002  0.6459  0.9804
  647MOL0     H85368   7.282  10.685   6.576 -0.5561  2.4970 -0.6726
  647MOL0     H85369   7.079  10.750   6.721 -0.0992 -0.2749 -1.2966
  647MOL0     H85370   7.137  10.735   7.164  0.6145  0.1079 -0.6871
  647MOL0     H85371   7.050  10.597   7.074  1.0738  0.6957 -0.5356
  647MOL0     H85372   6.937  10.860   7.183 -1.3576  1.2758 -2.9062
  647MOL0     H85373   6.906  10.696   7.245 -2.7276  1.0820  0.1807
  647MOL0     H85374   6.814  10.609   7.047 -3.8586 -0.6843  0.8068
  647MOL0     H85375   6.841  10.758   6.958  0.4211 -0.6125 -0.1389
  647MOL0     H85376   6.639  10.694   7.181 -0.5015 -1.2330 -1.9493
  647MOL0     H85377   6.689  10.862   7.165 -2.3029 -1.2417  2.4802
  647MOL0     H85378   6.624  10.739   6.901  1.4386  2.1149  0.4181
  647MOL0     H85379   6.577  10.890   6.986  1.3482  0.4460 -2.5789
  647MOL0     H85380   6.453  10.611   7.002  0.7722  0.2232 -0.2780
  647MOL0     H85381   6.375  10.768   6.944 -1.4383  1.4847  3.4923
  647MOL0     H85382   6.447  10.728   7.239 -0.9735  0.0567  0.2599
  647MOL0     H85383   6.362  10.862   7.146 -0.2413  0.9190 -0.4477
  647MOL0     H85384   6.253  10.578   7.152  0.2302  0.1212 -3.0490
  647MOL0     H85385   6.169  10.724   7.104 -1.7873  2.5622  2.9548
  647MOL0     H85386   7.336  10.681   7.060  0.8151  1.3373  0.6621
  647MOL0     H85387   7.516  10.603   6.927 -0.0674 -0.7944 -0.3283
  647MOL0     H85388   7.664  10.440   6.533 -4.0211  1.0709 -0.8722
  647MOL0     H85389   7.846  10.371   6.398 -1.1749 -0.5178  0.7344
  647MOL0     H85390   9.308  10.741   4.687  0.6168  1.3214 -2.5116
  647MOL0     H85391   9.535  10.763   4.627 -0.9789 -0.3977 -0.4027
  647MOL0     H85392   9.943  10.531   4.554  0.3492 -0.9083  0.6860
  647MOL0     H85393  10.182  10.525   4.518  2.4705 -0.3790  0.3085
  647MOL0     H85394  10.406  10.696   4.457 -1.2272 -1.4509 -0.7700
  647MOL0     H85395  10.392  10.529   4.495  1.7297  0.4582 -0.7759
  647MOL0     H85396  10.602  10.579   4.442 -1.7929 -1.4601 -0.0098
  647MOL0     H85397  10.618  10.729   4.533  0.4473 -0.5099 -0.7058
  647MOL0     H85398  10.700  10.457   4.623 -0.1010  0.5221 -1.3367
  647MOL0     H85399  10.550  10.499   4.710 -1.2171  2.4447  0.1849
  647MOL0     H85400  10.652  10.727   4.785  1.1278  1.3273  0.6339
  647MOL0     H85401  10.750  10.583   4.836 -1.9327 -0.7083  0.7928
  647MOL0     H85402  11.001  10.778   4.549 -2.0280 -2.9591 -3.3534
  647MOL0     H85403  10.268  10.742   4.861  1.3996 -0.5303 -0.7858
  647MOL0     H85404  10.004  10.704   4.928 -0.0266 -2.3993  0.6688
  648MOL0     O85405   8.327   1.466   6.076  0.2963  0.0889  0.5272
  648MOL0     C85406   8.354   1.463   6.193 -1.1860  0.1641  0.8834
  648MOL0     O85407   8.266   1.423   6.290 -0.1105  0.4984 -0.2041
  648MOL0     C85408   8.143   1.380   6.257  0.3369 -0.2189  0.3597
  648MOL0     C85409   8.044   1.473   6.244  1.1425 -0.3257 -0.5218
  648MOL0     C85410   7.909   1.433   6.220 -0.2475 -0.8242 -0.4190
  648MOL0     C85411   7.873   1.300   6.197  0.0313  0.9068  0.2731
  648MOL0     O85412   7.745   1.253   6.186  0.0404  0.2180  1.0245
  648MOL0     C85413   7.645   1.363   6.167  0.7868  0.8056  0.3234
  648MOL0     C85414   7.492   1.331   6.134 -0.2405 -0.5396 -0.5419
  648MOL0     C85415   7.435   1.237   6.241 -0.4716 -0.2487 -0.2574
  648MOL0     C85416   7.282   1.199   6.212  0.7275 -0.0605 -0.4495
  648MOL0     C85417   7.217   1.107   6.316 -0.1734  0.2281 -0.5578
  648MOL0     C85418   7.072   1.077   6.292 -0.5747 -0.7773 -0.4406
  648MOL0     C85419   6.990   1.056   6.419  0.9607 -0.1715  0.2942
  648MOL0     C85420   6.850   0.974   6.376 -0.3799 -0.4329 -0.0122
  648MOL0     N85421   6.736   1.001   6.472  0.3537 -0.5921 -0.2926
  648MOL0     C85422   6.605   0.946   6.472 -0.7760  0.5600 -0.3773
  648MOL0     C85423   6.539   1.013   6.574 -1.0395 -0.7724  0.4984
  648MOL0     C85424   6.395   1.012   6.599  0.2834  0.8734 -0.0084
  648MOL0     C85425   6.324   1.145   6.562 -0.1724  1.0072 -0.1103
  648MOL0     C85426   6.173   1.121   6.596 -0.9383 -0.2881 -0.3766
  648MOL0     C85427   6.082   1.245   6.581 -0.5750 -0.0245 -0.7945
  648MOL0     O85428   6.076   1.284   6.442  0.0848 -0.0961  0.8702
  648MOL0     C85429   5.951   1.273   6.391 -0.7602  0.3753  0.2747
  648MOL0     C85430   5.929   1.188   6.282 -0.0211 -0.6111  0.5619
  648MOL0     C85431   5.797   1.167   6.235 -0.0884 -0.9196  0.1573
  648MOL0     C85432   5.688   1.251   6.267  0.2435  0.1209 -0.1964
  648MOL0     C85433   5.551   1.239   6.208  0.8425 -0.4383  0.2049
  648MOL0     O85434   5.438   1.302   6.266 -0.4263  0.2385  0.2692
  648MOL0     C85435   5.317   1.298   6.187 -0.8625  0.1664  1.0080
  648MOL0     C85436   5.253   1.417   6.153  0.3216  0.1911 -0.3261
  648MOL0     C85437   5.139   1.434   6.072  0.3062  1.0638  0.1912
  648MOL0     C85438   5.073   1.310   6.039 -0.1464 -0.6483 -0.6683
  648MOL0     O85439   4.955   1.312   5.966 -0.2864 -0.4224 -0.3439
  648MOL0     C85440   4.956   1.415   5.864  0.8623 -0.3319 -0.6447
  648MOL0     C85441   4.849   1.369   5.765  0.2136  0.4824 -0.4030
  648MOL0     C85442   4.755   1.463   5.686 -0.4518  0.7146  0.0834
  648MOL0     C85443   4.657   1.386   5.596  0.4202  0.0690 -0.0396
  648MOL0     C85444   4.540   1.333   5.669 -0.3774  0.7040  0.1803
  648MOL0     C85445   4.451   1.449   5.730 -0.7039 -0.2026  0.2179
  648MOL0     C85446   4.324   1.376   5.790  0.9036  0.1508 -0.1733
  648MOL0     C85447   4.210   1.481   5.816 -0.2813 -0.2884  0.3258
  648MOL0    Cl85448   4.098   1.428   5.951 -0.1602  0.1034 -0.4737
  648MOL0     C85449   5.133   1.186   6.080  0.0560 -1.2741  0.3209
  648MOL0     C85450   5.251   1.174   6.156 -0.1364 -0.1416  0.6754
  648MOL0     O85451   5.545   1.167   6.106 -0.1983  0.3542  0.3989
  648MOL0     C85452   5.713   1.332   6.375 -0.3260 -0.7997 -0.8871
  648MOL0     C85453   5.840   1.342   6.440  0.2668 -0.7163  0.1779
  648MOL0     N85454   6.633   1.098   6.629  0.3392 -0.3789 -0.2614
  648MOL0     N85455   6.751   1.082   6.572 -0.3838  0.1509  0.0403
  648MOL0     C85456   7.979   1.206   6.204 -0.0581 -0.0827 -0.0851
  648MOL0     C85457   8.107   1.246   6.239  1.0926  0.3601  0.0078
  648MOL0     C85458   8.494   1.485   6.225  0.0075  0.5814  0.0608
  648MOL0     C85459   8.572   1.553   6.135 -0.4153 -0.4422  0.1530
  648MOL0     C85460   8.705   1.591   6.170 -1.2901 -0.1080  0.1631
  648MOL0     C85461   8.759   1.559   6.296 -0.0738 -0.1780 -0.3700
  648MOL0     O85462   8.879   1.602   6.344  0.2579 -0.2032 -0.0668
  648MOL0     C85463   8.952   1.685   6.255  0.4963 -0.1445 -0.4165
  648MOL0     C85464   9.029   1.597   6.149  0.7232  0.1935 -0.6559
  648MOL0     C85465   9.164   1.556   6.212 -0.3567 -0.0445  0.5284
  648MOL0     C85466   9.220   1.423   6.162 -0.3025  0.4271 -0.1810
  648MOL0     C85467   9.121   1.318   6.188 -0.6589 -0.6377  0.6565
  648MOL0     C85468   9.038   1.240   6.233  0.0116 -1.2240  0.1106
  648MOL0     C85469   8.674   1.491   6.380  0.8134 -0.0132  0.8495
  648MOL0     C85470   8.548   1.456   6.345 -0.3334  1.0157 -0.7578
  648MOL0     H85471   8.078   1.576   6.247  1.4638 -0.3996 -1.4179
  648MOL0     H85472   7.834   1.511   6.216  1.4626  0.9609  0.1683
  648MOL0     H85473   7.674   1.424   6.081 -1.2785  0.1380 -0.9370
  648MOL0     H85474   7.632   1.423   6.257 -0.4657 -1.6324  1.8913
  648MOL0     H85475   7.484   1.266   6.046 -0.8867 -2.0356  0.5780
  648MOL0     H85476   7.446   1.429   6.122 -0.1049 -0.6355 -1.9541
  648MOL0     H85477   7.451   1.275   6.342  1.1104  1.5444 -1.1403
  648MOL0     H85478   7.488   1.141   6.235 -0.7346 -0.3887 -0.3984
  648MOL0     H85479   7.214   1.285   6.215 -1.2968 -1.4941 -2.1249
  648MOL0     H85480   7.264   1.160   6.112 -0.7086 -1.4053  0.2785
  648MOL0     H85481   7.221   1.158   6.413  0.0479 -0.6229 -0.1143
  648MOL0     H85482   7.268   1.013   6.340 -1.3160 -0.2511  0.0419
  648MOL0     H85483   7.063   0.995   6.220  0.8122  1.8385 -3.8555
  648MOL0     H85484   7.028   1.164   6.243  1.6043  0.9161  0.4360
  648MOL0     H85485   7.034   0.993   6.497 -0.3610 -2.1448 -0.4672
  648MOL0     H85486   6.963   1.155   6.456  2.5114  0.4893 -0.2435
  648MOL0     H85487   6.872   0.868   6.367  1.5028  0.0219 -1.4813
  648MOL0     H85488   6.817   1.003   6.276 -0.0242 -1.0636 -0.3147
  648MOL0     H85489   6.565   0.871   6.405  3.9017 -1.2463 -1.5098
  648MOL0     H85490   6.388   0.990   6.707 -5.1866  0.1070 -0.2484
  648MOL0     H85491   6.354   0.920   6.555 -1.3515  0.4498  2.1896
  648MOL0     H85492   6.324   1.172   6.456 -1.1595  1.0301 -0.1099
  648MOL0     H85493   6.382   1.218   6.618  3.3476 -2.8618  1.9026
  648MOL0     H85494   6.141   1.037   6.534  1.6060 -0.6702 -1.3081
  648MOL0     H85495   6.161   1.079   6.696 -0.7613 -0.0858 -0.2675
  648MOL0     H85496   6.125   1.335   6.627 -1.1901  0.1410 -0.5413
  648MOL0     H85497   5.986   1.226   6.629 -0.1307 -0.5332 -0.0967
  648MOL0     H85498   6.009   1.131   6.235 -0.3329 -1.3032  0.8544
  648MOL0     H85499   5.771   1.103   6.151 -0.1832  0.3930 -0.8472
  648MOL0     H85500   5.304   1.501   6.199 -1.2910  1.3849 -0.6172
  648MOL0     H85501   5.112   1.537   6.052  3.0831  2.2037  1.7219
  648MOL0     H85502   5.058   1.423   5.825  0.9021  0.1752 -0.4474
  648MOL0     H85503   4.915   1.505   5.911  1.0024 -1.5273  1.9355
  648MOL0     H85504   4.773   1.314   5.821 -0.4656 -0.1714 -1.8925
  648MOL0     H85505   4.897   1.300   5.695 -0.9547 -0.2548 -0.5056
  648MOL0     H85506   4.815   1.522   5.616 -3.1499 -0.6128 -3.7173
  648MOL0     H85507   4.704   1.522   5.763  1.5302 -1.1573  3.0619
  648MOL0     H85508   4.620   1.446   5.512  1.5810 -1.9657 -2.1287
  648MOL0     H85509   4.708   1.303   5.545  1.9437  0.4720  0.8039
  648MOL0     H85510   4.573   1.266   5.749 -0.6272 -0.1211 -0.3902
  648MOL0     H85511   4.482   1.271   5.601  0.5950 -0.2646  0.2030
  648MOL0     H85512   4.430   1.506   5.639 -0.1060 -1.0948 -0.5004
  648MOL0     H85513   4.504   1.512   5.801  2.2565  0.8276 -2.6490
  648MOL0     H85514   4.277   1.304   5.723 -1.7433  0.5165  1.1676
  648MOL0     H85515   4.339   1.317   5.881 -1.6561  1.0203  0.9129
  648MOL0     H85516   4.151   1.506   5.727  1.9965 -1.4368 -1.6164
  648MOL0     H85517   4.250   1.579   5.843 -1.3091  0.3188 -0.2739
  648MOL0     H85518   5.073   1.098   6.058 -2.4670  0.5387 -0.5651
  648MOL0     H85519   5.290   1.083   6.199  0.1110  0.9276  2.8804
  648MOL0     H85520   5.626   1.381   6.417 -1.2603 -3.8122  1.0292
  648MOL0     H85521   5.854   1.409   6.524  1.3538  0.7794 -1.1593
  648MOL0     H85522   7.954   1.101   6.189  0.1478  0.0975 -1.8280
  648MOL0     H85523   8.185   1.173   6.262 -0.2590 -1.4898 -1.0342
  648MOL0     H85524   8.532   1.593   6.042  0.7967 -0.9071 -0.5933
  648MOL0     H85525   8.749   1.652   6.092 -1.7384 -1.1171 -0.9046
  648MOL0     H85526   9.022   1.747   6.313  1.0662 -0.6591 -0.5440
  648MOL0     H85527   8.884   1.747   6.196  1.4229 -2.5686 -4.3550
  648MOL0     H85528   8.970   1.510   6.122 -1.1686  0.3635  2.4238
  648MOL0     H85529   9.045   1.669   6.069 -1.6357  1.3833 -0.1288
  648MOL0     H85530   9.138   1.546   6.318 -0.2177  0.6636  0.6318
  648MOL0     H85531   9.230   1.642   6.198 -3.9330  3.2664  2.2943
  648MOL0     H85532   9.220   1.430   6.053  2.2341 -0.6817 -0.3035
  648MOL0     H85533   9.320   1.404   6.201  1.2909  0.7758 -3.6933
  648MOL0     H85534   8.952   1.179   6.255 -1.7838  1.2427  0.4099
  648MOL0     H85535   8.698   1.474   6.485 -0.1951 -4.0797  0.6117
  648MOL0     H85536   8.476   1.413   6.414  2.4242  1.8932  2.9971
  649MOL0     O85537   4.444  10.138   6.301 -0.5090 -0.0413 -0.0514
  649MOL0     C85538   4.448  10.256   6.280 -0.1252 -0.1617 -0.5077
  649MOL0     O85539   4.338  10.344   6.245 -0.6861  0.1367  0.2774
  649MOL0     C85540   4.210  10.295   6.226  0.2505  0.4702 -0.6480
  649MOL0     C85541   4.151  10.178   6.279 -0.3372 -0.4876 -0.3021
  649MOL0     C85542   4.019  10.137   6.239 -0.5728 -0.7952  0.5596
  649MOL0     C85543   3.933  10.209   6.151 -0.2784 -0.0569  0.2798
  649MOL0     O85544   3.816  10.149   6.125  0.4620  0.0192 -0.8045
  649MOL0     C85545   3.783  10.119   5.993 -0.1666 -0.7856 -0.2042
  649MOL0     C85546   3.646  10.063   5.986  1.4371  0.1067 -0.1384
  649MOL0     C85547   3.596  10.073   5.838  0.3615 -0.3111 -0.7060
  649MOL0     C85548   3.481   9.976   5.818 -0.0962  0.3261  0.0887
  649MOL0     C85549   3.355   9.985   5.903 -0.5984 -0.0871 -0.3336
  649MOL0     C85550   3.269  10.116   5.873 -0.4727  0.3783  0.3318
  649MOL0     C85551   3.260  10.138   5.726 -0.1682  0.0811  0.7830
  649MOL0     C85552   3.159  10.238   5.693  0.4084 -0.5906 -0.0694
  649MOL0     N85553   3.026  10.226   5.757  0.1851  0.1073  0.0651
  649MOL0     C85554   2.930  10.137   5.708  0.2661  1.1889  0.1090
  649MOL0     C85555   2.831  10.142   5.805  0.7367  0.1246  0.1952
  649MOL0     C85556   2.689  10.073   5.812  0.7113 -0.1512  1.1079
  649MOL0     C85557   2.593  10.134   5.922 -0.3383  0.5366  0.3375
  649MOL0     C85558   2.560  10.279   5.907  0.8994  0.7937 -0.0288
  649MOL0     C85559   2.464  10.326   6.018 -0.3794 -0.1087 -0.2701
  649MOL0     O85560   2.337  10.260   6.019 -1.0448 -0.0663 -0.3091
  649MOL0     C85561   2.249  10.298   6.117  0.1643  0.7915  1.1437
  649MOL0     C85562   2.129  10.223   6.123  0.3845  0.3203 -1.4480
  649MOL0     C85563   2.045  10.249   6.241 -1.0766  0.6956 -0.4728
  649MOL0     C85564   2.079  10.339   6.336  0.5171 -0.3075 -1.0787
  649MOL0     C85565   1.990  10.382   6.449  0.4721 -0.5867  0.6248
  649MOL0     O85566   1.856  10.344   6.448  0.4630 -0.6966  0.4701
  649MOL0     C85567   1.759  10.365   6.551  0.2800 -0.0053 -0.2618
  649MOL0     C85568   1.781  10.463   6.653 -0.5969  0.3934  0.3499
  649MOL0     C85569   1.692  10.474   6.759  0.1225 -0.4220 -0.2369
  649MOL0     C85570   1.567  10.407   6.756  0.6056 -0.3334  0.6828
  649MOL0     O85571   1.462  10.406   6.842 -0.2917 -0.3862 -0.2813
  649MOL0     C85572   1.490  10.467   6.971 -0.2976  0.3752  0.2557
  649MOL0     C85573   1.360  10.500   7.049 -0.5223 -0.4003  0.6664
  649MOL0     C85574   1.284  10.378   7.106 -0.1739 -0.3095 -0.0941
  649MOL0     C85575   1.150  10.416   7.168 -0.7701  0.3624  0.2668
  649MOL0     C85576   1.083  10.278   7.174 -0.3294  0.3534  0.0639
  649MOL0     C85577   0.943  10.269   7.233 -0.1486  0.3735 -0.7144
  649MOL0     C85578   0.917  10.120   7.261  0.4641  0.2043 -0.2832
  649MOL0     C85579   0.772  10.100   7.307 -0.6072  0.9423 -0.4025
  649MOL0    Cl85580   0.781   9.933   7.352  0.4747  0.2399 -0.0916
  649MOL0     C85581   1.546  10.326   6.650  0.5206  0.4177 -0.2917
  649MOL0     C85582   1.633  10.310   6.547 -0.3383  0.0948 -0.3878
  649MOL0     O85583   2.048  10.421   6.550 -0.3392 -0.1999 -0.1659
  649MOL0     C85584   2.203  10.406   6.321  0.6135  0.2320  0.1096
  649MOL0     C85585   2.288  10.385   6.217 -0.3047 -0.2959 -0.0228
  649MOL0     N85586   2.876  10.241   5.903 -0.1508  0.2525  0.0708
  649MOL0     N85587   2.991  10.286   5.872  0.0123  0.2988 -0.9472
  649MOL0     C85588   3.995  10.328   6.105 -0.2006 -0.0115 -0.3681
  649MOL0     C85589   4.123  10.368   6.143 -0.1070 -0.3840 -0.3080
  649MOL0     C85590   4.590  10.309   6.270  0.2168  0.6631 -0.2320
  649MOL0     C85591   4.614  10.448   6.274  0.6695  0.3461 -0.3784
  649MOL0     C85592   4.743  10.489   6.253 -1.1383 -0.2345 -0.2696
  649MOL0     C85593   4.850  10.403   6.233 -0.0994 -0.3867  0.2751
  649MOL0     O85594   4.978  10.462   6.224  0.1449  0.2576 -0.2271
  649MOL0     C85595   5.075  10.379   6.158 -0.7155  0.1884 -0.5804
  649MOL0     C85596   5.207  10.471   6.164  0.4183  0.0334  0.4876
  649MOL0     C85597   5.264  10.495   6.311  0.3726 -0.4177 -0.1950
  649MOL0     C85598   5.357  10.612   6.318  0.0720  0.0556 -0.0010
  649MOL0     C85599   5.466  10.614   6.218  0.1279  0.1349  0.9320
  649MOL0     C85600   5.549  10.631   6.126 -0.2932  1.1183  0.2364
  649MOL0     C85601   4.822  10.266   6.230  0.2163  0.1173 -0.3604
  649MOL0     C85602   4.693  10.217   6.245 -0.0163 -0.5689  0.4831
  649MOL0     H85603   4.210  10.128   6.355 -0.6069  0.6651  0.6923
  649MOL0     H85604   3.974  10.047   6.279 -0.2008 -1.5715 -0.7301
  649MOL0     H85605   3.865  10.072   5.940  1.0257  2.2386 -1.2428
  649MOL0     H85606   3.782  10.221   5.952  0.0166 -0.7264 -0.0635
  649MOL0     H85607   3.579  10.130   6.041  2.7439  2.4169 -1.1699
  649MOL0     H85608   3.633   9.963   6.028 -2.8864  0.1635 -0.8556
  649MOL0     H85609   3.672  10.037   5.768 -0.2753 -4.1030  0.3239
  649MOL0     H85610   3.559  10.173   5.813  1.1370  0.0926 -0.2646
  649MOL0     H85611   3.454   9.973   5.712  1.4236  0.9171 -0.3454
  649MOL0     H85612   3.521   9.876   5.839  2.2272  1.3490  0.8086
  649MOL0     H85613   3.388   9.974   6.007  1.8845  1.9679 -0.7966
  649MOL0     H85614   3.292   9.906   5.863 -1.3025  2.1347 -4.0461
  649MOL0     H85615   3.312  10.207   5.918  0.9097  0.8138 -1.6845
  649MOL0     H85616   3.174  10.101   5.924  0.1277  1.0212  1.7078
  649MOL0     H85617   3.352  10.183   5.687 -0.5253 -0.3566 -0.6329
  649MOL0     H85618   3.239  10.045   5.673 -0.0846  0.3639  0.2377
  649MOL0     H85619   3.137  10.217   5.588 -0.3419 -0.5079  0.0705
  649MOL0     H85620   3.199  10.339   5.710 -1.3089 -0.1388  1.6226
  649MOL0     H85621   2.939  10.071   5.622  1.2454 -0.4097  1.3808
  649MOL0     H85622   2.703   9.966   5.831  1.4652 -0.3057 -0.1595
  649MOL0     H85623   2.636  10.087   5.717  1.3129 -1.5632  0.5306
  649MOL0     H85624   2.640  10.113   6.018 -0.8340 -0.0194  0.4639
  649MOL0     H85625   2.506  10.067   5.922  1.3838 -1.8465  0.3655
  649MOL0     H85626   2.647  10.345   5.911  0.5754  1.1773  1.2107
  649MOL0     H85627   2.512  10.301   5.811 -0.0489 -1.0845 -0.0311
  649MOL0     H85628   2.460  10.433   5.995 -1.6868 -0.4391 -1.6935
  649MOL0     H85629   2.524  10.315   6.109 -0.4383 -2.1730 -0.4342
  649MOL0     H85630   2.095  10.147   6.053  0.4720  0.1439 -1.2992
  649MOL0     H85631   1.949  10.200   6.254 -0.9326  0.1346 -1.4472
  649MOL0     H85632   1.870  10.524   6.642  0.5929 -1.4876 -1.1737
  649MOL0     H85633   1.715  10.545   6.837 -2.8977  0.7186 -0.2437
  649MOL0     H85634   1.544  10.561   6.958  1.4345 -0.4036  1.4035
  649MOL0     H85635   1.561  10.409   7.032 -0.7620 -0.0519  0.4015
  649MOL0     H85636   1.299  10.557   6.979  0.3466  0.0717  0.2726
  649MOL0     H85637   1.379  10.568   7.134 -0.6130 -2.2778  2.2640
  649MOL0     H85638   1.343  10.335   7.187  0.1726  0.9163  0.3207
  649MOL0     H85639   1.283  10.300   7.029  0.9075 -1.1289  0.6943
  649MOL0     H85640   1.162  10.475   7.259  0.6545  1.0184 -0.3097
  649MOL0     H85641   1.089  10.478   7.101  0.7808  0.3933 -1.1730
  649MOL0     H85642   1.154  10.212   7.224  1.5884  1.1992 -1.4359
  649MOL0     H85643   1.081  10.241   7.071  0.8504  2.2062 -0.6705
  649MOL0     H85644   0.863  10.307   7.169 -1.8817  0.5327  1.4583
  649MOL0     H85645   0.946  10.339   7.317 -1.4265  1.5591 -1.5970
  649MOL0     H85646   0.946  10.051   7.182 -1.2776  1.9293 -2.5497
  649MOL0     H85647   0.970  10.086   7.351 -2.8136 -0.9503  1.3947
  649MOL0     H85648   0.699  10.121   7.228  1.8944  2.6284 -2.4175
  649MOL0     H85649   0.744  10.161   7.394  0.4089  0.5628  0.2039
  649MOL0     H85650   1.446  10.288   6.634  0.0058  2.4010 -2.3078
  649MOL0     H85651   1.612  10.250   6.458  1.5903 -0.2002 -0.6844
  649MOL0     H85652   2.239  10.466   6.404 -0.1855  0.6118  0.1910
  649MOL0     H85653   2.381  10.437   6.237 -0.6058  1.2808 -2.3531
  649MOL0     H85654   3.940  10.398   6.043  1.8635  2.1937  0.1510
  649MOL0     H85655   4.145  10.470   6.114  2.5758 -0.8978 -0.3435
  649MOL0     H85656   4.534  10.513   6.306  0.0127 -2.1033  3.5445
  649MOL0     H85657   4.758  10.594   6.274  1.3315 -0.9170  1.8034
  649MOL0     H85658   5.039  10.369   6.055  0.5735  1.3562 -1.1797
  649MOL0     H85659   5.084  10.283   6.210 -1.3895  0.7307  0.5876
  649MOL0     H85660   5.289  10.436   6.100  1.1809  3.2866 -0.5204
  649MOL0     H85661   5.169  10.561   6.115 -1.3611 -1.8695 -1.9056
  649MOL0     H85662   5.318  10.408   6.348 -0.7461 -1.4673 -0.9466
  649MOL0     H85663   5.182  10.514   6.381  0.1022  1.4315 -0.9483
  649MOL0     H85664   5.301  10.705   6.308  2.3903  1.5619  0.2047
  649MOL0     H85665   5.394  10.610   6.421 -0.5223 -1.5382  0.2070
  649MOL0     H85666   5.625  10.656   6.053  0.6429  2.3327  1.5688
  649MOL0     H85667   4.905  10.197   6.228 -1.4995 -2.1787  1.5097
  649MOL0     H85668   4.678  10.110   6.257  0.6141 -0.5845  1.2139
  650MOL0     O85669   3.187   4.998   2.217 -0.1553 -0.4069 -0.2334
  650MOL0     C85670   3.207   5.105   2.162 -0.3118 -0.4721  0.2172
  650MOL0     O85671   3.158   5.232   2.201  0.3176  0.0148  0.1955
  650MOL0     C85672   3.058   5.234   2.299 -0.1337 -0.4672 -0.7554
  650MOL0     C85673   3.058   5.158   2.419 -0.3248 -0.2679  0.4580
  650MOL0     C85674   2.950   5.172   2.511 -1.0419 -0.0754  0.1752
  650MOL0     C85675   2.833   5.235   2.466 -0.1109 -0.2219 -0.7348
  650MOL0     O85676   2.731   5.232   2.558 -0.3396 -0.4906 -0.3340
  650MOL0     C85677   2.621   5.157   2.509 -0.4325 -0.2218 -0.0302
  650MOL0     C85678   2.494   5.181   2.584 -0.4771  0.1660 -0.2576
  650MOL0     C85679   2.431   5.320   2.589 -1.6328  0.9404 -0.2912
  650MOL0     C85680   2.336   5.344   2.708 -0.9385  0.4531  0.0809
  650MOL0     C85681   2.251   5.468   2.691 -0.5393 -0.6975  0.5017
  650MOL0     C85682   2.203   5.504   2.830 -0.4963  0.0498 -0.5164
  650MOL0     C85683   2.126   5.636   2.825 -0.2038 -0.3221  0.0298
  650MOL0     C85684   2.060   5.686   2.954  0.4034  0.1862  0.2030
  650MOL0     N85685   1.981   5.581   3.022  0.6827 -0.1626 -0.2550
  650MOL0     C85686   2.017   5.526   3.141 -0.2581  0.3981 -0.1406
  650MOL0     C85687   1.900   5.467   3.181  0.5471  0.0048  0.4291
  650MOL0     C85688   1.876   5.376   3.302  0.1653 -0.3906 -0.3939
  650MOL0     C85689   1.939   5.238   3.271  0.7004 -0.7210 -0.4998
  650MOL0     C85690   1.888   5.169   3.140  0.3766 -0.9970  0.7905
  650MOL0     C85691   1.731   5.156   3.125 -0.2174 -0.3587  0.5011
  650MOL0     O85692   1.687   5.065   3.220 -0.1751  0.4593  0.0093
  650MOL0     C85693   1.584   5.092   3.303  0.2034  0.2101  0.1044
  650MOL0     C85694   1.581   5.010   3.414 -0.1131  0.1591  0.0691
  650MOL0     C85695   1.487   5.026   3.518 -0.3789  0.1094  1.3816
  650MOL0     C85696   1.393   5.129   3.506 -0.1392 -0.3840 -0.1256
  650MOL0     C85697   1.273   5.144   3.591  0.7406  0.1491 -0.2815
  650MOL0     O85698   1.177   5.237   3.565 -0.0078 -0.5353 -0.0663
  650MOL0     C85699   1.065   5.238   3.649  0.3111  1.4382 -0.2447
  650MOL0     C85700   0.952   5.154   3.633  0.2514 -0.0243  0.0660
  650MOL0     C85701   0.844   5.156   3.725 -0.5310  0.8542 -0.5350
  650MOL0     C85702   0.839   5.240   3.834 -0.0767 -0.0266  0.4246
  650MOL0     O85703   0.751   5.251   3.936  1.2018 -0.2419 -0.1520
  650MOL0     C85704   0.643   5.154   3.934  0.1463 -0.1518 -0.1058
  650MOL0     C85705   0.539   5.183   3.817 -0.0233  0.5308 -0.4714
  650MOL0     C85706   0.476   5.325   3.845  0.7662  0.1177 -0.6522
  650MOL0     C85707   0.385   5.353   3.732  0.6205  0.1742 -0.4838
  650MOL0     C85708   0.290   5.471   3.762 -0.5780 -0.4244 -0.4315
  650MOL0     C85709   0.175   5.434   3.853 -0.7150  0.2496  0.1324
  650MOL0     C85710   0.068   5.535   3.828  0.5697 -1.2516 -0.2884
  650MOL0     C85711  -0.004   5.573   3.954 -0.1518 -0.6426 -0.4874
  650MOL0    Cl85712   0.102   5.662   4.081  0.1394 -0.4957 -0.2896
  650MOL0     C85713   0.955   5.325   3.848  0.0653 -0.1037 -0.3828
  650MOL0     C85714   1.061   5.320   3.759 -0.4690 -0.3985  0.1176
  650MOL0     O85715   1.258   5.058   3.680 -0.7414 -0.6151 -0.7450
  650MOL0     C85716   1.407   5.220   3.403  0.7846  0.8045  0.6564
  650MOL0     C85717   1.498   5.202   3.303 -0.8403  0.1320  0.0656
  650MOL0     N85718   1.809   5.478   3.076  0.7684 -0.4240  0.6354
  650MOL0     N85719   1.858   5.554   2.994 -0.3679 -0.1758  0.7053
  650MOL0     C85720   2.829   5.317   2.350 -0.4030  2.0146  0.0936
  650MOL0     C85721   2.938   5.310   2.272 -1.8270 -0.4111  0.1622
  650MOL0     C85722   3.319   5.099   2.063 -0.2310  0.1577 -0.2956
  650MOL0     C85723   3.416   5.207   2.061  0.6345  0.8325 -0.4844
  650MOL0     C85724   3.514   5.214   1.976  0.4075 -1.2328  0.8252
  650MOL0     C85725   3.536   5.118   1.878 -0.4926 -0.3932  0.5053
  650MOL0     O85726   3.633   5.117   1.781  0.7812  0.6099 -0.1049
  650MOL0     C85727   3.691   5.249   1.750  0.2903 -0.6154 -0.5871
  650MOL0     C85728   3.789   5.232   1.635  0.1464  0.6423  0.2231
  650MOL0     C85729   3.724   5.226   1.494 -0.5026  0.1176  0.3365
  650MOL0     C85730   3.809   5.275   1.381  0.1777  0.1009 -0.4346
  650MOL0     C85731   3.956   5.247   1.393  0.4547 -0.3980  0.7237
  650MOL0     C85732   4.074   5.218   1.392  0.0669 -0.0164 -0.2622
  650MOL0     C85733   3.443   5.006   1.877  0.0391  0.0560  0.8897
  650MOL0     C85734   3.335   4.996   1.970  0.3340 -0.5177 -0.5249
  650MOL0     H85735   3.143   5.103   2.456  0.7004  0.5276 -0.6351
  650MOL0     H85736   2.956   5.106   2.597 -4.2199 -2.1742 -1.0047
  650MOL0     H85737   2.649   5.052   2.523  0.9834  0.1923  0.3513
  650MOL0     H85738   2.597   5.170   2.403  1.5314 -1.0725 -0.6151
  650MOL0     H85739   2.522   5.160   2.688  2.9088  1.7494 -0.7028
  650MOL0     H85740   2.427   5.104   2.544  0.0982 -1.1369  1.1583
  650MOL0     H85741   2.379   5.327   2.492 -3.3237 -0.8442  0.3978
  650MOL0     H85742   2.513   5.392   2.585 -0.8956  0.1917  0.7967
  650MOL0     H85743   2.262   5.264   2.715 -3.1593  2.5110  2.3511
  650MOL0     H85744   2.388   5.354   2.805 -3.2106  1.3891  1.2680
  650MOL0     H85745   2.176   5.467   2.611  2.7756  3.1576 -3.1092
  650MOL0     H85746   2.325   5.543   2.660 -1.0121 -1.0462 -1.6309
  650MOL0     H85747   2.291   5.497   2.895  0.2102 -2.4959 -1.5839
  650MOL0     H85748   2.141   5.429   2.880 -2.6791  1.5007 -0.9002
  650MOL0     H85749   2.194   5.719   2.801  0.4857  0.1486  3.1565
  650MOL0     H85750   2.054   5.620   2.744  1.0726  0.6563 -1.3476
  650MOL0     H85751   2.002   5.776   2.932  0.6444  0.1926 -0.4203
  650MOL0     H85752   2.141   5.709   3.024 -0.1350  1.9951  0.2862
  650MOL0     H85753   2.107   5.520   3.202  0.3024 -2.7389 -1.1002
  650MOL0     H85754   1.769   5.362   3.316 -0.0811 -0.4991 -2.2535
  650MOL0     H85755   1.915   5.423   3.394 -0.2051 -1.6826  0.4567
  650MOL0     H85756   1.929   5.165   3.351  0.3738 -0.8973 -0.6962
  650MOL0     H85757   2.047   5.250   3.265  0.6507 -0.3226 -0.6511
  650MOL0     H85758   1.929   5.219   3.052  0.0631 -2.4435 -0.2036
  650MOL0     H85759   1.936   5.071   3.128  1.1989 -0.4759 -0.3201
  650MOL0     H85760   1.701   5.112   3.030 -1.7639 -1.0063  1.2691
  650MOL0     H85761   1.673   5.249   3.133 -0.0951  0.0280 -2.2393
  650MOL0     H85762   1.653   4.929   3.419  2.2368  2.1540  0.7153
  650MOL0     H85763   1.477   4.954   3.598 -1.6159  2.7659  3.7716
  650MOL0     H85764   0.953   5.079   3.554  0.3323 -0.1692  0.2038
  650MOL0     H85765   0.767   5.085   3.696 -0.1244  0.9090 -1.8144
  650MOL0     H85766   0.596   5.173   4.031 -0.5882 -1.2353 -0.2318
  650MOL0     H85767   0.667   5.048   3.927 -1.9275 -0.5877 -1.5429
  650MOL0     H85768   0.458   5.109   3.824  1.5385 -1.3177 -1.0890
  650MOL0     H85769   0.591   5.173   3.722  1.4131  0.0610  0.3405
  650MOL0     H85770   0.549   5.406   3.847 -1.8322  2.6398  0.6087
  650MOL0     H85771   0.429   5.323   3.944 -0.6222 -0.6017 -1.2935
  650MOL0     H85772   0.452   5.371   3.648 -0.8616 -0.3492 -1.8366
  650MOL0     H85773   0.318   5.267   3.716 -0.2103  0.4493  1.2545
  650MOL0     H85774   0.258   5.500   3.662 -0.0916  0.4985 -0.3289
  650MOL0     H85775   0.341   5.557   3.806 -0.3889 -0.3907 -0.7122
  650MOL0     H85776   0.212   5.421   3.955  1.6793 -0.1479 -0.7072
  650MOL0     H85777   0.141   5.336   3.817  3.1101 -0.7652 -1.2022
  650MOL0     H85778   0.105   5.627   3.782  1.2667 -0.3388  1.9862
  650MOL0     H85779  -0.002   5.484   3.761 -0.8282 -0.9784  0.9435
  650MOL0     H85780  -0.037   5.476   3.994 -1.0685 -0.1694 -0.0709
  650MOL0     H85781  -0.096   5.629   3.933 -1.7104 -2.6205  0.6365
  650MOL0     H85782   0.955   5.393   3.933 -1.2917 -1.1444  0.4927
  650MOL0     H85783   1.139   5.388   3.790 -0.0666 -1.0971  0.6632
  650MOL0     H85784   1.338   5.299   3.376  1.3790  1.2468  0.4321
  650MOL0     H85785   1.497   5.286   3.235  2.0686  2.8180  2.9733
  650MOL0     H85786   2.734   5.365   2.327 -0.7417 -0.0809 -3.5830
  650MOL0     H85787   2.930   5.372   2.183  0.3048  3.4989  2.4000
  650MOL0     H85788   3.390   5.281   2.135 -0.8770 -1.7154  1.7169
  650MOL0     H85789   3.582   5.299   1.981 -0.0664 -0.9186  2.5519
  650MOL0     H85790   3.739   5.288   1.841 -0.1718 -2.7646  0.6560
  650MOL0     H85791   3.612   5.321   1.727 -0.2179 -0.8308  0.4231
  650MOL0     H85792   3.863   5.313   1.637 -1.5593  2.2696  0.6351
  650MOL0     H85793   3.839   5.135   1.640  2.0037  1.3671 -2.5088
  650MOL0     H85794   3.632   5.285   1.505  0.2149  1.5505 -1.0023
  650MOL0     H85795   3.698   5.122   1.469 -1.1123  0.6449 -1.3593
  650MOL0     H85796   3.770   5.231   1.289  0.2820 -2.1362  0.5219
  650MOL0     H85797   3.810   5.385   1.378  3.8662  0.1863 -1.7210
  650MOL0     H85798   4.178   5.195   1.405  0.5797  2.7372  1.2951
  650MOL0     H85799   3.463   4.928   1.804 -1.6708  1.5064 -1.2434
  650MOL0     H85800   3.264   4.915   1.968  1.9231 -1.9707 -0.7511
  651MOL0     O85801   6.542   0.199   1.094  0.4474 -0.7552  0.4938
  651MOL0     C85802   6.450   0.131   1.143 -0.4226 -0.9619  0.5765
  651MOL0     O85803   6.321   0.133   1.100 -0.0449 -0.2134  0.2331
  651MOL0     C85804   6.300   0.139   0.962 -0.2767 -0.1917 -0.5523
  651MOL0     C85805   6.384   0.091   0.857 -0.4056  0.1298 -0.3098
  651MOL0     C85806   6.348   0.091   0.720 -0.3039 -0.2720 -0.1973
  651MOL0     C85807   6.218   0.139   0.682  0.3951  0.7377  0.3729
  651MOL0     O85808   6.167   0.137   0.550 -0.2450  0.1719 -0.9301
  651MOL0     C85809   6.229   0.046   0.450  0.0123 -1.2841 -0.0744
  651MOL0     C85810   6.134   0.005   0.334 -0.9641  0.3028 -0.5916
  651MOL0     C85811   6.054  -0.119   0.385  0.5996 -0.2331 -0.5766
  651MOL0     C85812   5.978  -0.178   0.261 -0.2690 -0.0593  0.7103
  651MOL0     C85813   5.883  -0.294   0.271  0.5378  0.1091  0.4296
  651MOL0     C85814   5.749  -0.253   0.347 -0.4873  0.6183  0.3050
  651MOL0     C85815   5.651  -0.371   0.355  0.1058  0.0600  0.6622
  651MOL0     C85816   5.615  -0.443   0.229  0.2607  0.7404  0.3263
  651MOL0     N85817   5.496  -0.529   0.232  0.0258  0.5025 -0.3355
  651MOL0     C85818   5.471  -0.617   0.324  0.2888 -0.1787  0.1747
  651MOL0     C85819   5.356  -0.687   0.291 -0.1664 -0.4097 -1.2998
  651MOL0     C85820   5.287  -0.795   0.376  0.0114  0.1853 -0.3899
  651MOL0     C85821   5.312  -0.798   0.526  0.0087 -0.2818  0.9998
  651MOL0     C85822   5.267  -0.673   0.604  0.3804  0.3500  0.5221
  651MOL0     C85823   5.115  -0.657   0.612 -0.1728 -0.0649 -0.0135
  651MOL0     O85824   5.054  -0.590   0.503 -0.6656 -0.0046 -0.3342
  651MOL0     C85825   4.920  -0.610   0.509  0.4694 -0.1393  0.1970
  651MOL0     C85826   4.858  -0.698   0.429  0.3441 -0.3984  0.3814
  651MOL0     C85827   4.716  -0.701   0.429 -0.4832  1.2027 -0.8394
  651MOL0     C85828   4.640  -0.609   0.500 -0.4286 -0.6409  0.0826
  651MOL0     C85829   4.488  -0.610   0.503  0.0804 -0.3512 -0.1359
  651MOL0     O85830   4.434  -0.706   0.426 -0.6644  0.5230  0.1659
  651MOL0     C85831   4.303  -0.748   0.438 -0.1273 -0.0138 -0.1604
  651MOL0     C85832   4.265  -0.832   0.332 -0.4067 -0.2910  0.0508
  651MOL0     C85833   4.135  -0.871   0.315  0.5476 -0.0865 -0.2535
  651MOL0     C85834   4.042  -0.848   0.414  0.4573 -0.3355 -0.6424
  651MOL0     O85835   3.916  -0.910   0.413 -0.0793  0.5098 -0.1349
  651MOL0     C85836   3.900  -1.013   0.510 -0.0542  0.7309  0.3320
  651MOL0     C85837   3.755  -1.082   0.500  0.6893  0.4524  0.0353
  651MOL0     C85838   3.741  -1.170   0.370 -0.2101  0.7393 -0.2529
  651MOL0     C85839   3.594  -1.192   0.337  0.4276  0.8845 -0.0255
  651MOL0     C85840   3.577  -1.291   0.221  0.4356 -0.7572  0.1144
  651MOL0     C85841   3.429  -1.310   0.183  0.1051  0.3865  0.0579
  651MOL0     C85842   3.427  -1.423   0.074  0.0342  0.6558 -0.5688
  651MOL0     C85843   3.299  -1.421  -0.008  0.6862 -0.0621 -0.1474
  651MOL0    Cl85844   3.294  -1.553  -0.124  0.2730  0.0427 -0.0378
  651MOL0     C85845   4.073  -0.754   0.516 -0.4252  0.2625 -0.1617
  651MOL0     C85846   4.203  -0.706   0.527 -0.7831  0.9274  0.2180
  651MOL0     O85847   4.427  -0.530   0.572  0.8481 -0.8969  0.5737
  651MOL0     C85848   4.705  -0.520   0.578  0.5035  0.0011  0.9741
  651MOL0     C85849   4.843  -0.522   0.590 -0.3185  0.1924  0.1280
  651MOL0     N85850   5.318  -0.641   0.174  0.1927 -0.3876  0.4095
  651MOL0     N85851   5.399  -0.548   0.129 -0.1656 -1.1150  0.3553
  651MOL0     C85852   6.127   0.166   0.779 -0.0502 -0.6972 -0.1777
  651MOL0     C85853   6.171   0.177   0.917  0.9712  0.0393 -0.1146
  651MOL0     C85854   6.456   0.076   1.276 -0.4185  0.1938  0.0651
  651MOL0     C85855   6.387  -0.039   1.316 -0.6918  0.5568  1.1129
  651MOL0     C85856   6.395  -0.091   1.444  0.2723  0.7265 -0.2194
  651MOL0     C85857   6.465  -0.025   1.541 -0.1566 -0.6753 -0.8565
  651MOL0     O85858   6.440  -0.076   1.664 -0.1320 -0.4570  0.2753
  651MOL0     C85859   6.534  -0.047   1.771  0.3566  0.4386 -0.1221
  651MOL0     C85860   6.489  -0.091   1.916  0.1626  0.6081 -0.0379
  651MOL0     C85861   6.348  -0.062   1.947  0.5931 -0.4159 -0.3229
  651MOL0     C85862   6.273  -0.194   1.932 -0.2350  1.2310 -1.0501
  651MOL0     C85863   6.129  -0.174   1.959 -0.6239  0.2596 -0.2524
  651MOL0     C85864   6.010  -0.173   1.988 -0.1433 -0.5607  0.6670
  651MOL0     C85865   6.542   0.086   1.502 -0.8730  0.3697 -0.3461
  651MOL0     C85866   6.526   0.144   1.371 -0.6011  0.6426 -0.1774
  651MOL0     H85867   6.480   0.045   0.880  0.7160  0.7299 -3.2662
  651MOL0     H85868   6.419   0.076   0.639 -0.7612  0.1981 -0.6887
  651MOL0     H85869   6.260  -0.047   0.499 -0.0383 -0.8094  0.8778
  651MOL0     H85870   6.316   0.104   0.420 -2.0975  2.7578  0.9075
  651MOL0     H85871   6.202  -0.034   0.258 -2.3430 -5.6855  0.7468
  651MOL0     H85872   6.064   0.081   0.297 -0.3070 -0.2513 -3.1489
  651MOL0     H85873   5.985  -0.072   0.456  2.2691  1.8414 -0.2009
  651MOL0     H85874   6.112  -0.196   0.435  0.7225  0.6882  0.7524
  651MOL0     H85875   5.924  -0.098   0.209 -1.1655 -2.5024 -2.3839
  651MOL0     H85876   6.061  -0.208   0.197 -0.4087  0.9386  0.0371
  651MOL0     H85877   5.915  -0.386   0.322  1.0382  0.1456  0.1812
  651MOL0     H85878   5.863  -0.329   0.169  0.5196  1.0641  0.1014
  651MOL0     H85879   5.703  -0.171   0.292  1.8998  1.7728 -0.1060
  651MOL0     H85880   5.769  -0.205   0.444  0.0701  1.5652 -0.2564
  651MOL0     H85881   5.681  -0.444   0.431  2.3673  2.1068  1.8825
  651MOL0     H85882   5.562  -0.321   0.396 -1.0713 -0.6830 -0.8805
  651MOL0     H85883   5.704  -0.502   0.206 -1.1622 -1.8839  1.0294
  651MOL0     H85884   5.611  -0.370   0.147  1.7420  2.3645  1.6401
  651MOL0     H85885   5.533  -0.625   0.413  0.2365  0.2256  0.2501
  651MOL0     H85886   5.308  -0.893   0.334 -3.0932 -2.4239  3.4814
  651MOL0     H85887   5.182  -0.773   0.358 -0.6390 -1.1688  1.5073
  651MOL0     H85888   5.419  -0.815   0.541  0.7729  1.6109 -1.5984
  651MOL0     H85889   5.257  -0.877   0.579  0.0634 -0.0665  1.3829
  651MOL0     H85890   5.322  -0.656   0.697 -1.5878  3.7346  1.2476
  651MOL0     H85891   5.300  -0.589   0.543  1.5355 -0.4602 -0.0026
  651MOL0     H85892   5.088  -0.600   0.701  1.8858  0.9986 -0.0312
  651MOL0     H85893   5.075  -0.759   0.612  0.3340 -0.3216  2.3886
  651MOL0     H85894   4.910  -0.768   0.364 -0.1266 -0.1323 -0.3011
  651MOL0     H85895   4.659  -0.768   0.366  2.6927 -1.3208 -1.3250
  651MOL0     H85896   4.332  -0.875   0.258 -1.1889 -1.4639  0.0111
  651MOL0     H85897   4.102  -0.930   0.230 -0.9071  0.0013  0.2256
  651MOL0     H85898   3.911  -0.975   0.612 -3.7448 -0.6683  1.4138
  651MOL0     H85899   3.976  -1.090   0.494 -0.3229  0.6229 -0.5100
  651MOL0     H85900   3.677  -1.005   0.498  0.0076 -0.0967  2.3799
  651MOL0     H85901   3.738  -1.141   0.590  0.8480  3.3908  2.1286
  651MOL0     H85902   3.800  -1.262   0.374  0.1544  0.9872  0.1763
  651MOL0     H85903   3.796  -1.127   0.286 -0.3980 -1.5213 -1.6118
  651MOL0     H85904   3.548  -1.228   0.429  3.2646  0.0488  1.1979
  651MOL0     H85905   3.559  -1.092   0.308  0.6299  0.5818 -1.3976
  651MOL0     H85906   3.634  -1.383   0.236  0.9088 -0.5585 -0.4370
  651MOL0     H85907   3.626  -1.250   0.133  2.0542 -0.2696  1.1971
  651MOL0     H85908   3.393  -1.218   0.136  0.6366 -1.4002 -4.3024
  651MOL0     H85909   3.373  -1.352   0.267  1.1291  1.3153  1.2453
  651MOL0     H85910   3.514  -1.425   0.007 -1.1819  0.9051 -2.2229
  651MOL0     H85911   3.414  -1.518   0.125 -0.2614 -0.9821 -3.4446
  651MOL0     H85912   3.294  -1.326  -0.062  1.9058 -0.3471 -0.8126
  651MOL0     H85913   3.214  -1.422   0.061  1.4468 -0.5446  0.7969
  651MOL0     H85914   3.991  -0.729   0.583  0.5703  0.3957  1.0637
  651MOL0     H85915   4.215  -0.626   0.599 -1.9144  0.2653  1.1728
  651MOL0     H85916   4.651  -0.434   0.616  0.7963 -0.0144  1.4426
  651MOL0     H85917   4.901  -0.445   0.638  0.6557  0.3189 -1.2245
  651MOL0     H85918   6.029   0.207   0.758  0.9989  1.9913 -0.1733
  651MOL0     H85919   6.104   0.216   0.993  1.7847 -1.1235  1.2218
  651MOL0     H85920   6.327  -0.097   1.246 -0.2529 -0.0713  1.2443
  651MOL0     H85921   6.350  -0.188   1.463  0.0544  0.3356 -2.4955
  651MOL0     H85922   6.536   0.062   1.773 -0.5974  0.4526  1.8897
  651MOL0     H85923   6.630  -0.095   1.750  0.3499  0.6495 -0.6647
  651MOL0     H85924   6.520  -0.194   1.934 -0.6091  0.8045  2.9131
  651MOL0     H85925   6.551  -0.033   1.984  1.4096 -0.4508 -0.2467
  651MOL0     H85926   6.299   0.018   1.891 -1.1276 -1.4860 -0.4134
  651MOL0     H85927   6.344  -0.035   2.053  2.7460 -1.4452  0.0762
  651MOL0     H85928   6.276  -0.232   1.830  0.2445  0.6948 -0.8441
  651MOL0     H85929   6.312  -0.267   2.004  1.2414  2.1771 -0.8505
  651MOL0     H85930   5.911  -0.168   2.029 -0.9486  0.4699 -1.2330
  651MOL0     H85931   6.598   0.146   1.574  2.7383 -1.6824 -1.2070
  651MOL0     H85932   6.571   0.240   1.350 -0.8187  0.7775 -0.0312
  652MOL0     O85933   9.679  10.078   7.304 -0.1935  0.4868  0.3418
  652MOL0     C85934   9.764  10.137   7.371  0.2321  0.5280 -0.0369
  652MOL0     O85935   9.741  10.228   7.473 -0.6869  1.1552 -0.0634
  652MOL0     C85936   9.613  10.270   7.500 -0.1079  0.4947 -0.2135
  652MOL0     C85937   9.593  10.408   7.489  0.4264 -0.5327 -0.8463
  652MOL0     C85938   9.478  10.463   7.539 -0.4088 -0.5972 -0.1657
  652MOL0     C85939   9.376  10.383   7.605 -0.9106  0.4196  0.4582
  652MOL0     O85940   9.263  10.435   7.651 -0.3934 -0.2512  0.0489
  652MOL0     C85941   9.259  10.568   7.710 -0.1195  0.4115  0.7821
  652MOL0     C85942   9.145  10.581   7.811 -0.0335  0.2953 -0.1129
  652MOL0     C85943   9.159  10.486   7.941  0.7005 -0.9152  0.6012
  652MOL0     C85944   9.044  10.497   8.043  0.2608 -0.1034 -0.1237
  652MOL0     C85945   9.006  10.373   8.113 -0.4482 -0.7119 -0.4497
  652MOL0     C85946   9.127  10.303   8.176 -0.4957  0.4965 -0.8319
  652MOL0     C85947   9.093  10.209   8.293  0.8301 -0.7312  0.1649
  652MOL0     C85948   9.041  10.074   8.233  0.8679  0.2654  0.1837
  652MOL0     N85949   9.136  10.003   8.153  0.6644 -0.3783  0.3588
  652MOL0     C85950   9.117   9.970   8.019  0.8625  0.8384  0.4629
  652MOL0     C85951   9.221   9.887   7.990  0.1247  0.1020  1.2243
  652MOL0     C85952   9.237   9.818   7.854  0.2536 -0.5026 -0.3118
  652MOL0     C85953   9.336   9.908   7.784  0.0870 -0.5151  0.2933
  652MOL0     C85954   9.367   9.847   7.641  0.1830 -0.1413 -0.8105
  652MOL0     C85955   9.502   9.778   7.637  0.4522  0.1754  0.8398
  652MOL0     O85956   9.608   9.863   7.660  0.4181  0.5400 -0.6611
  652MOL0     C85957   9.741   9.815   7.651  0.9431 -0.5002 -0.2654
  652MOL0     C85958   9.775   9.686   7.621  0.6955 -0.2769  0.3234
  652MOL0     C85959   9.914   9.656   7.618  0.4878  0.0673  0.1903
  652MOL0     C85960  10.017   9.752   7.632 -0.1137  0.2368  0.6604
  652MOL0     C85961  10.162   9.708   7.639  0.9261  0.8894  0.8920
  652MOL0     O85962  10.241   9.776   7.732  0.2553 -0.2845  0.4311
  652MOL0     C85963  10.354   9.712   7.771  0.8366 -0.6059  0.5229
  652MOL0     C85964  10.361   9.581   7.809 -0.1488 -0.2515  0.6269
  652MOL0     C85965  10.481   9.524   7.851  0.6227  0.5853 -0.2340
  652MOL0     C85966  10.602   9.590   7.832 -0.5521  0.0730  0.2373
  652MOL0     O85967  10.717   9.524   7.872 -0.0659 -0.6815  0.2505
  652MOL0     C85968  10.770   9.561   7.996  0.4479 -0.2808  0.0223
  652MOL0     C85969  10.796   9.430   8.075  0.4625 -0.4091  0.1458
  652MOL0     C85970  10.862   9.472   8.211  0.2761  0.1498 -0.3028
  652MOL0     C85971  10.931   9.350   8.270  0.1459 -0.5354 -0.3585
  652MOL0     C85972  11.015   9.380   8.393  0.2515 -0.0264  0.0315
  652MOL0     C85973  11.099   9.266   8.433 -0.2950 -0.4836  0.4835
  652MOL0     C85974  11.195   9.318   8.535 -0.3280  0.8434 -0.6449
  652MOL0     C85975  11.303   9.217   8.563 -0.5805 -0.2720 -0.5643
  652MOL0    Cl85976  11.237   9.066   8.636  0.0525  0.2677 -0.2733
  652MOL0     C85977  10.595   9.725   7.791  0.9266  0.5717 -0.0885
  652MOL0     C85978  10.474   9.788   7.766  0.2363 -0.4282  0.3381
  652MOL0     O85979  10.199   9.617   7.565  0.1479 -0.9903  0.2496
  652MOL0     C85980   9.979   9.875   7.661 -0.6346  0.7862  0.4136
  652MOL0     C85981   9.846   9.907   7.681  0.3830  0.2164  0.4066
  652MOL0     N85982   9.299   9.865   8.099  0.3947 -0.8491 -0.1088
  652MOL0     N85983   9.251   9.945   8.193 -0.8011 -0.2175  0.1026
  652MOL0     C85984   9.401  10.247   7.605 -0.4522  0.6876  0.0646
  652MOL0     C85985   9.519  10.193   7.561 -0.0440 -0.1797  0.7139
  652MOL0     C85986   9.896  10.078   7.348 -0.8922 -0.1494  0.3772
  652MOL0     C85987   9.928   9.987   7.245 -0.7047  0.9251 -0.5149
  652MOL0     C85988  10.063   9.939   7.229  0.2644  0.2469  0.6765
  652MOL0     C85989  10.167   9.965   7.307  0.3781 -0.3074 -0.7779
  652MOL0     O85990  10.295   9.907   7.297 -0.3630 -0.3681  0.1897
  652MOL0     C85991  10.290   9.765   7.259 -0.3650  0.3031  0.1885
  652MOL0     C85992  10.411   9.700   7.337 -0.9674  0.6059  0.0170
  652MOL0     C85993  10.559   9.738   7.281 -0.0718 -0.2598  0.0580
  652MOL0     C85994  10.669   9.728   7.387  0.9087 -0.0529 -1.2431
  652MOL0     C85995  10.669   9.854   7.462  0.1048  0.3462 -0.2989
  652MOL0     C85996  10.644   9.969   7.505 -0.4504 -0.6499 -0.8554
  652MOL0     C85997  10.145  10.062   7.411 -0.2119  0.2602 -0.9943
  652MOL0     C85998  10.013  10.114   7.429 -0.8436  0.2980 -0.2924
  652MOL0     H85999   9.669  10.468   7.440 -2.0928  3.2672 -0.6270
  652MOL0     H86000   9.460  10.570   7.527 -0.9734 -0.7543 -0.7933
  652MOL0     H86001   9.249  10.636   7.624 -0.0427  1.6803  1.7439
  652MOL0     H86002   9.354  10.594   7.758  0.4758 -0.4048  0.0901
  652MOL0     H86003   9.047  10.559   7.768  0.0456 -2.3943  0.8971
  652MOL0     H86004   9.145  10.684   7.846  0.2920  0.8388 -1.6330
  652MOL0     H86005   9.250  10.514   7.994  0.3342 -1.2209  1.4093
  652MOL0     H86006   9.186  10.386   7.906  0.3654 -1.8343  2.8312
  652MOL0     H86007   9.056  10.577   8.117  0.7522 -0.1517 -0.1454
  652MOL0     H86008   8.961  10.529   7.979  0.8378  2.0937  0.1527
  652MOL0     H86009   8.945  10.303   8.055  0.6851 -0.5580 -1.8837
  652MOL0     H86010   8.947  10.414   8.196  1.0440 -3.0445  1.9369
  652MOL0     H86011   9.195  10.377   8.220 -0.8254  1.4446 -1.8914
  652MOL0     H86012   9.189  10.267   8.093  0.0328 -2.4383  0.6944
  652MOL0     H86013   9.182  10.199   8.355  1.0609 -2.0171 -0.3515
  652MOL0     H86014   9.008  10.258   8.342  0.0038 -1.0882 -0.8631
  652MOL0     H86015   8.951  10.087   8.173  0.8898  0.2345  0.1442
  652MOL0     H86016   9.025  10.006   8.317  1.3782 -1.2358 -0.8933
  652MOL0     H86017   9.040   9.993   7.947  0.3525 -0.7130  0.4756
  652MOL0     H86018   9.141   9.802   7.802 -1.8049 -0.5276  3.1790
  652MOL0     H86019   9.274   9.716   7.866  0.7341 -0.5897 -2.2244
  652MOL0     H86020   9.426   9.906   7.846 -1.6089  2.9804  3.3058
  652MOL0     H86021   9.291  10.007   7.774  0.4090 -0.3563  0.3896
  652MOL0     H86022   9.294   9.768   7.621  0.4949  0.2040 -3.8729
  652MOL0     H86023   9.355   9.929   7.568 -1.1289  0.1892 -0.2543
  652MOL0     H86024   9.525   9.731   7.540 -0.7234  0.3650  0.4522
  652MOL0     H86025   9.497   9.705   7.718 -2.5918 -1.1612 -0.3637
  652MOL0     H86026   9.697   9.611   7.607  0.8149 -0.4123  0.3827
  652MOL0     H86027   9.962   9.559   7.608  0.7355  0.1120  0.8715
  652MOL0     H86028  10.273   9.517   7.810 -0.7223  0.5089  0.1629
  652MOL0     H86029  10.491   9.421   7.883 -0.0877  0.5081 -0.2529
  652MOL0     H86030  10.701   9.628   8.048  2.5979  1.4128  0.8379
  652MOL0     H86031  10.861   9.621   7.991  0.5810 -0.5626 -4.1701
  652MOL0     H86032  10.863   9.363   8.019  0.1552 -0.9563  0.4251
  652MOL0     H86033  10.707   9.370   8.095  1.7941 -2.9898 -1.1960
  652MOL0     H86034  10.796   9.498   8.294 -0.2791 -1.8614 -0.0762
  652MOL0     H86035  10.936   9.550   8.189  0.5509  0.2704  1.0017
  652MOL0     H86036  10.853   9.277   8.291  0.7179 -0.9496  0.3892
  652MOL0     H86037  10.998   9.306   8.195 -2.3590  0.9599 -3.7161
  652MOL0     H86038  10.955   9.421   8.475 -0.4529 -0.0023 -0.4848
  652MOL0     H86039  11.073   9.470   8.372  0.3313  0.5312  2.3183
  652MOL0     H86040  11.152   9.215   8.352  0.2805  0.1217  0.4691
  652MOL0     H86041  11.034   9.187   8.472  1.4317 -2.1215  0.1281
  652MOL0     H86042  11.235   9.418   8.511  0.4722  0.5896 -0.4147
  652MOL0     H86043  11.150   9.330   8.633  2.1568 -0.6526  0.7765
  652MOL0     H86044  11.373   9.272   8.627 -0.7683 -1.2034  0.4827
  652MOL0     H86045  11.360   9.207   8.471  0.4677  1.6102 -0.1778
  652MOL0     H86046  10.690   9.778   7.793  0.2097  1.9009  1.2098
  652MOL0     H86047  10.476   9.892   7.734  2.2132 -0.2786  0.8125
  652MOL0     H86048  10.056   9.951   7.674 -1.1424  1.5112 -0.6845
  652MOL0     H86049   9.827  10.008   7.716 -2.7225  0.1391 -0.6951
  652MOL0     H86050   9.325  10.182   7.647  1.3425 -1.5429  0.0404
  652MOL0     H86051   9.542  10.087   7.556 -1.7712 -0.5465 -2.3291
  652MOL0     H86052   9.856   9.946   7.175 -1.1473  1.6190 -0.4836
  652MOL0     H86053  10.074   9.856   7.160  0.5534 -1.7258  2.9186
  652MOL0     H86054  10.305   9.748   7.152 -2.1047  0.4844 -0.1246
  652MOL0     H86055  10.193   9.718   7.278  0.9860 -3.3619 -1.1863
  652MOL0     H86056  10.398   9.727   7.442 -1.8505 -0.6661  0.2652
  652MOL0     H86057  10.415   9.591   7.333  3.3893  0.3863  3.0746
  652MOL0     H86058  10.558   9.835   7.232  3.0585  0.3276  0.9729
  652MOL0     H86059  10.578   9.654   7.213  0.2653 -2.3277  2.5285
  652MOL0     H86060  10.638   9.655   7.462  0.4234  2.7663  1.4941
  652MOL0     H86061  10.772   9.707   7.354  2.4092  2.4683  1.3687
  652MOL0     H86062  10.628  10.070   7.534  0.4624 -0.5419 -0.7011
  652MOL0     H86063  10.213  10.086   7.493 -2.1257  0.6566  0.5476
  652MOL0     H86064   9.987  10.176   7.515 -0.9072 -1.5311  1.0661
  653MOL0     O86065   1.389   3.468   9.326  0.3020 -0.0928  0.4227
  653MOL0     C86066   1.447   3.521   9.422 -0.7022 -0.2381 -0.0941
  653MOL0     O86067   1.435   3.649   9.469  0.0681 -0.0822  0.1391
  653MOL0     C86068   1.347   3.743   9.419  0.7544 -0.1349  0.5542
  653MOL0     C86069   1.332   3.860   9.501  1.0316  1.1025 -0.1231
  653MOL0     C86070   1.234   3.956   9.467 -0.2913 -0.3677  0.3026
  653MOL0     C86071   1.150   3.937   9.360 -0.5384  0.0763  0.5173
  653MOL0     O86072   1.062   4.035   9.313  0.5398 -0.5246 -0.8867
  653MOL0     C86073   1.005   4.137   9.398 -0.6162 -0.7887  0.0338
  653MOL0     C86074   0.896   4.067   9.486 -0.0737  0.2635  0.4694
  653MOL0     C86075   0.758   4.134   9.445 -1.0197  0.1029  0.0116
  653MOL0     C86076   0.654   4.062   9.523  0.6419  0.4096  0.4107
  653MOL0     C86077   0.501   4.091   9.502 -1.1850 -0.3029  0.1870
  653MOL0     C86078   0.457   4.236   9.510  0.1609  0.3410  0.0080
  653MOL0     C86079   0.310   4.249   9.560 -0.9914 -0.3749 -0.5637
  653MOL0     C86080   0.298   4.405   9.592  0.1436  0.7087  0.2119
  653MOL0     N86081   0.300   4.497   9.477 -0.4468 -0.0802  0.1896
  653MOL0     C86082   0.269   4.626   9.476 -0.4092 -0.5590 -1.0477
  653MOL0     C86083   0.237   4.653   9.345 -0.0023  0.6361 -1.6176
  653MOL0     C86084   0.196   4.787   9.294 -0.3037 -1.2908  1.4138
  653MOL0     C86085   0.049   4.829   9.324 -0.8855  0.4972  0.9519
  653MOL0     C86086  -0.046   4.772   9.222  0.6960  0.4344  0.5758
  653MOL0     C86087  -0.175   4.848   9.208  0.0413  0.1540 -0.0120
  653MOL0     O86088  -0.249   4.835   9.337 -0.0973  0.8615  0.3739
  653MOL0     C86089  -0.377   4.889   9.325  0.4110  0.0448  0.7893
  653MOL0     C86090  -0.460   4.841   9.425 -0.1498  0.2452  0.0251
  653MOL0     C86091  -0.596   4.873   9.439 -1.0611  0.5367 -0.0986
  653MOL0     C86092  -0.648   4.974   9.354  0.3572  0.9033 -0.3718
  653MOL0     C86093  -0.799   5.020   9.366 -1.4951  0.7743 -0.1877
  653MOL0     O86094  -0.840   5.124   9.289 -0.2018  0.3900  0.5248
  653MOL0     C86095  -0.963   5.177   9.313 -0.4412  0.9507  0.3125
  653MOL0     C86096  -1.057   5.198   9.217 -0.0237  0.3456  0.1309
  653MOL0     C86097  -1.174   5.259   9.236  1.2496 -0.9817 -0.1633
  653MOL0     C86098  -1.219   5.292   9.366  0.8015 -0.3808  0.2010
  653MOL0     O86099  -1.334   5.369   9.387  0.0417  0.4683 -0.1997
  653MOL0     C86100  -1.338   5.491   9.310 -1.0731 -0.2592 -1.0271
  653MOL0     C86101  -1.457   5.568   9.349  0.2818 -0.1762 -0.2453
  653MOL0     C86102  -1.575   5.494   9.292  0.8401 -0.4828 -0.2314
  653MOL0     C86103  -1.704   5.579   9.316  0.1218  0.0854 -0.6426
  653MOL0     C86104  -1.826   5.476   9.297  0.2629 -0.6819 -0.5695
  653MOL0     C86105  -1.960   5.540   9.343  0.4794 -0.2311  0.6385
  653MOL0     C86106  -2.068   5.434   9.318  0.6121  0.3519 -0.6070
  653MOL0     C86107  -2.194   5.443   9.416  0.0098  0.2450 -0.5484
  653MOL0    Cl86108  -2.326   5.327   9.340 -0.1309 -0.3865 -0.0413
  653MOL0     C86109  -1.124   5.273   9.471 -0.6576  0.4124  1.0018
  653MOL0     C86110  -0.991   5.226   9.439  0.0709 -0.0371  0.9476
  653MOL0     O86111  -0.868   4.956   9.449 -0.0166 -0.5361  0.2801
  653MOL0     C86112  -0.566   5.030   9.256  0.6232 -0.6660 -0.0467
  653MOL0     C86113  -0.437   4.986   9.235 -0.0408  0.3077 -0.0328
  653MOL0     N86114   0.264   4.548   9.267  0.0662  0.0923  0.5972
  653MOL0     N86115   0.311   4.460   9.343 -0.1117 -1.3264 -0.0987
  653MOL0     C86116   1.165   3.826   9.275 -0.1425  0.2085  0.0776
  653MOL0     C86117   1.259   3.730   9.307 -0.2413  0.0215 -0.4383
  653MOL0     C86118   1.547   3.432   9.490  0.0873  0.1356 -1.3365
  653MOL0     C86119   1.661   3.485   9.556  0.0462  0.6108  0.0146
  653MOL0     C86120   1.747   3.398   9.616 -0.3240  0.3424 -0.2844
  653MOL0     C86121   1.733   3.257   9.604  0.9202 -1.1163 -0.3140
  653MOL0     O86122   1.823   3.181   9.671  0.1339  0.7076  0.3694
  653MOL0     C86123   1.892   3.085   9.582  1.2441  0.1737 -0.8249
  653MOL0     C86124   2.022   3.058   9.643 -0.0201 -0.2653  0.5304
  653MOL0     C86125   2.110   3.176   9.668  0.6199  0.5949  0.0606
  653MOL0     C86126   2.252   3.135   9.713 -0.2157  0.7421  0.0133
  653MOL0     C86127   2.320   3.043   9.623 -0.6599 -0.6001 -0.0383
  653MOL0     C86128   2.381   2.956   9.568 -0.1365  0.6136  0.2035
  653MOL0     C86129   1.624   3.205   9.542  0.7663  0.0276  0.2832
  653MOL0     C86130   1.526   3.293   9.486 -1.1259  1.3703  0.0568
  653MOL0     H86131   1.392   3.879   9.590 -0.1988  1.6019  0.6331
  653MOL0     H86132   1.214   4.035   9.538 -0.9530 -0.3814  0.1331
  653MOL0     H86133   0.968   4.214   9.330  1.4543  1.5644  1.3875
  653MOL0     H86134   1.088   4.182   9.454 -0.7681  1.5566 -1.4878
  653MOL0     H86135   0.915   4.087   9.592 -0.0223  0.4509  0.4257
  653MOL0     H86136   0.893   3.960   9.464  0.0754  0.5685 -1.1578
  653MOL0     H86137   0.734   4.112   9.341 -1.7477 -1.0758  0.4130
  653MOL0     H86138   0.754   4.242   9.461  1.3229  0.6279 -2.3112
  653MOL0     H86139   0.662   3.953   9.530 -2.3283  0.0708 -0.2942
  653MOL0     H86140   0.677   4.107   9.620 -0.5514 -0.4426  1.1225
  653MOL0     H86141   0.443   4.018   9.558 -1.2448 -0.4597 -0.0777
  653MOL0     H86142   0.475   4.057   9.401 -0.6619 -0.7867  0.2125
  653MOL0     H86143   0.474   4.286   9.414  2.6642 -2.0133 -0.8836
  653MOL0     H86144   0.519   4.285   9.585  0.9667 -1.4827  0.5912
  653MOL0     H86145   0.234   4.217   9.488 -1.1794  1.9808 -1.4903
  653MOL0     H86146   0.304   4.184   9.648  0.8040 -1.6631 -1.3278
  653MOL0     H86147   0.375   4.435   9.664  0.9904  0.7270 -0.6739
  653MOL0     H86148   0.202   4.411   9.644 -0.4234 -0.9408 -0.5755
  653MOL0     H86149   0.261   4.694   9.560  2.6495  0.4599 -1.4854
  653MOL0     H86150   0.221   4.798   9.189  0.3910 -1.5579  1.5491
  653MOL0     H86151   0.255   4.858   9.352  0.6295 -1.3349  0.5438
  653MOL0     H86152   0.055   4.937   9.309  2.0157  0.2744 -0.0374
  653MOL0     H86153   0.028   4.823   9.431  1.7566 -1.9895  1.4493
  653MOL0     H86154  -0.005   4.771   9.121 -1.4970  0.8623 -0.3810
  653MOL0     H86155  -0.072   4.668   9.247  0.9021 -0.0630 -1.1541
  653MOL0     H86156  -0.236   4.804   9.129 -1.6150 -1.3133  1.9518
  653MOL0     H86157  -0.145   4.950   9.183 -0.2266  0.2530  0.0597
  653MOL0     H86158  -0.421   4.771   9.498  0.1552  0.9210  0.5164
  653MOL0     H86159  -0.652   4.829   9.521  0.2673  1.2527  1.2467
  653MOL0     H86160  -1.030   5.177   9.114  0.9432 -0.0817  0.4553
  653MOL0     H86161  -1.235   5.277   9.148  1.2063  0.9601  0.2008
  653MOL0     H86162  -1.335   5.484   9.201 -1.1411 -1.5329 -0.9642
  653MOL0     H86163  -1.243   5.533   9.342 -2.1717 -0.5615  3.2707
  653MOL0     H86164  -1.462   5.666   9.302 -1.2522  0.0695  0.3773
  653MOL0     H86165  -1.482   5.573   9.455  0.0702  0.5737 -0.3279
  653MOL0     H86166  -1.577   5.398   9.344 -0.7262 -0.4979 -0.2559
  653MOL0     H86167  -1.580   5.468   9.186  0.2710 -1.0628 -0.0707
  653MOL0     H86168  -1.712   5.619   9.417  1.2866 -0.1364 -0.4548
  653MOL0     H86169  -1.705   5.654   9.236 -0.7724 -1.9857 -2.6987
  653MOL0     H86170  -1.805   5.388   9.358  0.2028 -0.5637 -0.3768
  653MOL0     H86171  -1.827   5.440   9.194  0.5478  2.1264 -1.6381
  653MOL0     H86172  -1.976   5.632   9.285  1.4158 -0.8726 -0.7010
  653MOL0     H86173  -1.957   5.567   9.449  2.3885  1.0335  0.3300
  653MOL0     H86174  -2.104   5.441   9.215 -1.4409 -0.6305  0.0059
  653MOL0     H86175  -2.018   5.336   9.321 -1.1359 -0.6598 -2.0396
  653MOL0     H86176  -2.231   5.545   9.429 -0.5734 -0.0798  0.4921
  653MOL0     H86177  -2.174   5.402   9.516 -2.3942 -2.8427 -1.1727
  653MOL0     H86178  -1.156   5.307   9.569 -1.9976  0.2071  0.6590
  653MOL0     H86179  -0.924   5.217   9.524 -2.7757  0.2115  3.3893
  653MOL0     H86180  -0.593   5.105   9.183 -2.2114 -0.5080  1.0744
  653MOL0     H86181  -0.389   5.031   9.149  0.9573 -1.2980 -0.3465
  653MOL0     H86182   1.102   3.811   9.188 -2.0804  1.3263  1.1970
  653MOL0     H86183   1.277   3.645   9.242  4.0509  0.8888 -0.7212
  653MOL0     H86184   1.691   3.589   9.553 -1.5966  1.0981 -0.5687
  653MOL0     H86185   1.840   3.437   9.655 -0.4453  0.4757 -0.1244
  653MOL0     H86186   1.920   3.125   9.484  0.7087 -0.9334 -1.4426
  653MOL0     H86187   1.836   2.992   9.570  0.0918  0.3895  2.1272
  653MOL0     H86188   2.005   3.009   9.739  0.6141  0.6792  1.1521
  653MOL0     H86189   2.069   2.982   9.580 -0.2324  1.7502 -2.2713
  653MOL0     H86190   2.070   3.231   9.753  0.0142 -2.1238  1.6680
  653MOL0     H86191   2.115   3.241   9.580  4.8587  0.1677 -0.2490
  653MOL0     H86192   2.310   3.224   9.739 -3.1504  3.0528 -0.8450
  653MOL0     H86193   2.254   3.087   9.812  1.3219  3.0077  1.1611
  653MOL0     H86194   2.432   2.888   9.503 -0.2173 -1.5290  2.2514
  653MOL0     H86195   1.623   3.097   9.541  0.4266  0.0277  0.5381
  653MOL0     H86196   1.440   3.247   9.438 -0.2963 -0.9212  0.6661
  654MOL0     O86197   2.479   4.299  11.116  0.4196  0.2607  1.4420
  654MOL0     C86198   2.435   4.222  11.198 -0.7066  0.0827  0.5226
  654MOL0     O86199   2.518   4.146  11.270 -0.0871 -0.8897  0.0270
  654MOL0     C86200   2.630   4.205  11.307 -0.1326 -0.6327 -0.1255
  654MOL0     C86201   2.741   4.202  11.223 -0.2270 -0.5139  0.9208
  654MOL0     C86202   2.860   4.262  11.259  0.3881 -0.5677 -0.7733
  654MOL0     C86203   2.864   4.336  11.386  0.5352  0.0131  0.3114
  654MOL0     O86204   2.978   4.413  11.392  0.2826 -0.1218  0.2506
  654MOL0     C86205   3.017   4.463  11.523  0.1522  0.2344  0.0087
  654MOL0     C86206   3.169   4.497  11.519 -0.2086  0.6669 -0.3277
  654MOL0     C86207   3.247   4.371  11.473  0.6916 -0.5720  0.4233
  654MOL0     C86208   3.395   4.392  11.446  0.1299 -0.0790  0.2965
  654MOL0     C86209   3.469   4.402  11.581 -0.1969 -0.3166  0.1469
  654MOL0     C86210   3.478   4.275  11.664  1.0003 -0.2709  0.4189
  654MOL0     C86211   3.543   4.165  11.595 -0.7882  1.4267  0.4005
  654MOL0     C86212   3.687   4.193  11.544  0.1368  0.0119 -0.7652
  654MOL0     N86213   3.728   4.081  11.456 -0.1589  0.2805 -0.5730
  654MOL0     C86214   3.663   4.028  11.348  0.6586  0.2815  0.2028
  654MOL0     C86215   3.740   3.924  11.317 -0.0761 -0.0300 -0.3739
  654MOL0     C86216   3.725   3.818  11.211  1.4393 -0.3107  0.0765
  654MOL0     C86217   3.595   3.823  11.127 -0.2369 -0.1665  0.5015
  654MOL0     C86218   3.569   3.710  11.027  0.6496  0.0405  0.0471
  654MOL0     C86219   3.419   3.680  11.016 -1.0437 -0.1707  0.9064
  654MOL0     O86220   3.350   3.810  11.018 -0.3439 -0.3361  0.5276
  654MOL0     C86221   3.219   3.824  10.978 -0.3252  0.6112 -0.1691
  654MOL0     C86222   3.167   3.732  10.880  0.4603 -0.9629  0.2765
  654MOL0     C86223   3.038   3.741  10.827  0.6834 -0.1776 -0.9595
  654MOL0     C86224   2.951   3.840  10.876  0.8867  0.7968  0.4567
  654MOL0     C86225   2.797   3.824  10.859 -0.8844  0.0639 -0.5102
  654MOL0     O86226   2.729   3.907  10.940  0.2249  0.5460 -0.2688
  654MOL0     C86227   2.593   3.893  10.949  0.2827  0.4648  0.3735
  654MOL0     C86228   2.516   3.883  10.832 -0.5823 -0.5333 -0.2812
  654MOL0     C86229   2.379   3.880  10.847  0.7806 -0.6520 -0.0730
  654MOL0     C86230   2.318   3.895  10.975 -0.4477 -0.5217  0.6625
  654MOL0     O86231   2.178   3.910  11.002 -0.6137 -0.4084  0.6917
  654MOL0     C86232   2.077   3.837  10.934  0.7484 -0.4944  0.7370
  654MOL0     C86233   1.945   3.916  10.931 -0.3600  0.5150  0.1427
  654MOL0     C86234   1.825   3.847  10.865 -0.8629 -0.0216 -0.4247
  654MOL0     C86235   1.847   3.823  10.709 -0.0464 -1.1252  0.0502
  654MOL0     C86236   1.722   3.759  10.649 -0.6995  0.4343 -0.3467
  654MOL0     C86237   1.624   3.862  10.608  0.7155 -0.0335  1.4006
  654MOL0     C86238   1.501   3.816  10.521 -0.5674 -0.4964 -0.1648
  654MOL0     C86239   1.398   3.930  10.492 -0.9873  0.4737  0.7256
  654MOL0    Cl86240   1.480   4.063  10.396 -0.2858  0.0525  0.3683
  654MOL0     C86241   2.397   3.919  11.084 -0.2204 -0.4675 -0.1030
  654MOL0     C86242   2.539   3.925  11.069 -0.0565  0.3959 -1.0153
  654MOL0     O86243   2.753   3.729  10.787 -0.5507 -0.0870 -0.0804
  654MOL0     C86244   3.001   3.936  10.974 -0.5458  1.0195  0.4598
  654MOL0     C86245   3.132   3.930  11.018 -0.3332  0.1358  0.4296
  654MOL0     N86246   3.847   3.917  11.399 -0.3719 -0.9191  0.3575
  654MOL0     N86247   3.835   4.005  11.488 -0.9458 -0.6981  0.8188
  654MOL0     C86248   2.752   4.350  11.460 -0.6467 -0.0773  0.8758
  654MOL0     C86249   2.636   4.272  11.436  0.2498 -0.5895  0.2775
  654MOL0     C86250   2.295   4.198  11.202  0.0278  0.2095 -1.1420
  654MOL0     C86251   2.213   4.238  11.091 -0.1153  0.3008  0.0760
  654MOL0     C86252   2.072   4.214  11.101 -0.3547 -0.1026  0.8205
  654MOL0     C86253   2.015   4.147  11.207  0.0256 -0.6065 -0.4043
  654MOL0     O86254   1.875   4.138  11.199 -0.3144 -0.7127  0.0477
  654MOL0     C86255   1.794   4.082  11.304 -0.3667 -0.5757 -0.3228
  654MOL0     C86256   1.645   4.088  11.283 -0.1156  0.3625  0.5405
  654MOL0     C86257   1.586   4.002  11.178  0.0299  0.0788  0.2181
  654MOL0     C86258   1.449   4.057  11.124 -0.6871 -0.0877 -0.0890
  654MOL0     C86259   1.407   3.963  11.024 -0.9558  0.0758  0.1186
  654MOL0     C86260   1.370   3.889  10.936  0.3342 -0.4802 -0.7501
  654MOL0     C86261   2.093   4.109  11.316 -1.0164  0.2718  0.3374
  654MOL0     C86262   2.231   4.138  11.314 -0.0900  0.0476  0.0976
  654MOL0     H86263   2.744   4.138  11.136 -1.9389 -1.3868  1.4641
  654MOL0     H86264   2.939   4.275  11.186  2.0388  1.0278  1.1939
  654MOL0     H86265   3.007   4.377  11.590 -0.8745 -1.1730 -1.8258
  654MOL0     H86266   2.955   4.550  11.542  0.1214  0.5717 -1.5217
  654MOL0     H86267   3.203   4.529  11.617  3.0182  2.8489 -1.9747
  654MOL0     H86268   3.189   4.586  11.459  2.8540 -1.6944 -3.2092
  654MOL0     H86269   3.202   4.337  11.379  1.3979 -0.1128 -0.0911
  654MOL0     H86270   3.228   4.291  11.544  0.5124  0.6135  1.7518
  654MOL0     H86271   3.429   4.302  11.394  0.8083  1.3359 -1.8332
  654MOL0     H86272   3.418   4.477  11.381 -1.5440  0.0059 -0.2365
  654MOL0     H86273   3.410   4.472  11.642  2.0658  0.0356  2.1075
  654MOL0     H86274   3.565   4.454  11.574 -1.1288  1.7543  1.7233
  654MOL0     H86275   3.376   4.241  11.686  0.6170 -0.0275 -0.8653
  654MOL0     H86276   3.529   4.300  11.756  1.3590 -0.8729  0.3883
  654MOL0     H86277   3.553   4.089  11.673 -2.0043  1.8719  1.0113
  654MOL0     H86278   3.483   4.132  11.510  0.4383  2.0888 -0.7535
  654MOL0     H86279   3.752   4.192  11.632 -0.9205 -2.0501  0.0663
  654MOL0     H86280   3.694   4.291  11.496 -1.7704 -0.3327 -1.8504
  654MOL0     H86281   3.573   4.068  11.303 -0.1385 -1.5280  0.1198
  654MOL0     H86282   3.721   3.721  11.262  0.0067  1.1792  3.0135
  654MOL0     H86283   3.811   3.814  11.143 -0.4860  0.0534 -2.5191
  654MOL0     H86284   3.591   3.921  11.079 -2.1701  0.5439  1.9905
  654MOL0     H86285   3.520   3.830  11.206  0.8899 -0.8140  1.6701
  654MOL0     H86286   3.601   3.732  10.925  1.1314 -0.3931  0.1019
  654MOL0     H86287   3.626   3.624  11.062  1.0903  0.3578  0.1064
  654MOL0     H86288   3.384   3.615  11.097 -2.2035 -2.2275 -1.1257
  654MOL0     H86289   3.413   3.627  10.921 -0.2711  1.0226  0.1610
  654MOL0     H86290   3.238   3.665  10.832  0.4473  0.2195 -1.4841
  654MOL0     H86291   3.006   3.673  10.748  0.4941 -1.9703  0.5900
  654MOL0     H86292   2.557   3.872  10.732  1.1685  0.5148  0.2666
  654MOL0     H86293   2.314   3.867  10.761 -0.3418 -1.0866  0.8050
  654MOL0     H86294   2.077   3.738  10.980  0.5909  0.2939  2.4815
  654MOL0     H86295   2.109   3.805  10.834  0.3202  0.0180  0.4346
  654MOL0     H86296   1.962   4.011  10.880  0.3595 -1.2591 -3.1504
  654MOL0     H86297   1.915   3.927  11.036  0.8181  0.3740  0.5085
  654MOL0     H86298   1.738   3.910  10.884  1.0987  2.6391  0.1818
  654MOL0     H86299   1.812   3.745  10.904 -1.5708 -1.1022 -3.2341
  654MOL0     H86300   1.874   3.910  10.648  0.3426 -2.6923 -2.1283
  654MOL0     H86301   1.933   3.756  10.694 -0.4053 -1.3040 -1.2726
  654MOL0     H86302   1.681   3.688  10.721  0.4227  0.2052  0.1006
  654MOL0     H86303   1.749   3.695  10.565 -1.4945 -0.9147  0.3865
  654MOL0     H86304   1.671   3.942  10.551 -0.9064  0.2170  0.3397
  654MOL0     H86305   1.576   3.918  10.689 -1.9655 -2.3254  1.5719
  654MOL0     H86306   1.553   3.775  10.434 -0.0416 -1.5085  0.6096
  654MOL0     H86307   1.447   3.738  10.576 -1.3247 -0.9663 -1.5218
  654MOL0     H86308   1.358   3.969  10.586  2.1850  0.1514  2.3713
  654MOL0     H86309   1.324   3.880  10.429 -0.3536 -1.8586  1.7382
  654MOL0     H86310   2.334   3.945  11.168 -2.2494  2.0164 -2.2308
  654MOL0     H86311   2.594   3.942  11.161 -2.3495 -2.1981  1.0190
  654MOL0     H86312   2.923   3.998  11.019 -1.7941  0.4506 -0.8347
  654MOL0     H86313   3.165   4.011  11.082  0.5913  1.1232 -1.2265
  654MOL0     H86314   2.742   4.410  11.550 -3.1085 -1.6504  1.7617
  654MOL0     H86315   2.549   4.272  11.502  0.6165  1.4201  0.8472
  654MOL0     H86316   2.256   4.276  10.999 -2.0597 -0.9459 -1.4233
  654MOL0     H86317   2.005   4.226  11.017 -1.9769 -1.9156  1.7746
  654MOL0     H86318   1.819   4.132  11.398  1.0159 -3.8357  1.2027
  654MOL0     H86319   1.836   3.985  11.331  3.5061  1.2257  0.9539
  654MOL0     H86320   1.604   4.052  11.378  1.2095 -2.7348  0.0714
  654MOL0     H86321   1.613   4.191  11.264 -0.8371  0.0285 -0.1436
  654MOL0     H86322   1.568   3.900  11.214  1.8720 -0.4086 -0.1290
  654MOL0     H86323   1.650   3.993  11.090 -1.3694 -2.5317 -0.6466
  654MOL0     H86324   1.377   4.065  11.205  1.2622  2.9548  1.5556
  654MOL0     H86325   1.468   4.161  11.094  1.0018 -0.5080 -0.6299
  654MOL0     H86326   1.328   3.831  10.856  3.1488 -1.6530 -1.4766
  654MOL0     H86327   2.051   4.063  11.405 -0.5407 -0.9043 -0.0237
  654MOL0     H86328   2.294   4.100  11.394 -1.6519 -0.0268  1.3176
  655MOL0     O86329   7.109  10.712  10.788 -0.1509  0.1153  0.1530
  655MOL0     C86330   7.153  10.793  10.708 -0.2355  1.1016 -0.2752
  655MOL0     O86331   7.120  10.923  10.709 -0.2183 -0.0526 -0.2479
  655MOL0     C86332   7.008  10.982  10.766  0.0141  0.4778  0.1820
  655MOL0     C86333   7.013  11.110  10.821  0.1824 -0.3466 -1.6756
  655MOL0     C86334   6.895  11.153  10.888 -1.1182  0.1826 -0.4691
  655MOL0     C86335   6.777  11.070  10.903 -0.6072  0.1312 -0.5209
  655MOL0     O86336   6.675  11.125  10.974  0.0106  0.0854  0.5364
  655MOL0     C86337   6.561  11.041  10.997 -1.1039  0.3889  0.6050
  655MOL0     C86338   6.448  11.093  10.915  1.1496 -0.0138 -0.3093
  655MOL0     C86339   6.311  11.035  10.966  0.2037  1.1615  0.4729
  655MOL0     C86340   6.305  10.882  10.961  0.1330  0.0523 -0.9398
  655MOL0     C86341   6.187  10.824  11.035 -0.1385 -0.0276  0.1286
  655MOL0     C86342   6.195  10.852  11.189  0.7207  0.9280  0.8834
  655MOL0     C86343   6.086  10.775  11.257  0.0495 -0.4297 -0.1057
  655MOL0     C86344   6.124  10.619  11.281 -0.1548 -0.4525  0.8016
  655MOL0     N86345   6.001  10.551  11.336 -1.3100  0.5397 -0.0124
  655MOL0     C86346   5.901  10.492  11.265 -0.7669  0.2792  0.4575
  655MOL0     C86347   5.792  10.468  11.345  0.6741 -0.2398  0.5583
  655MOL0     C86348   5.654  10.414  11.306  0.0939 -0.3497 -0.5303
  655MOL0     C86349   5.656  10.371  11.157  0.7131  1.1246  0.1631
  655MOL0     C86350   5.535  10.297  11.101  0.2108 -0.0561 -0.5267
  655MOL0     C86351   5.398  10.361  11.125  0.3542  0.3927 -0.0059
  655MOL0     O86352   5.289  10.286  11.064 -0.0653  0.1483  0.5395
  655MOL0     C86353   5.160  10.302  11.116 -0.3601 -0.3480  0.0746
  655MOL0     C86354   5.068  10.206  11.074  0.0334 -0.2116  1.2527
  655MOL0     C86355   4.933  10.222  11.112 -1.2475  0.3705 -1.0169
  655MOL0     C86356   4.900  10.313  11.213  1.0844 -1.4494 -0.2374
  655MOL0     C86357   4.757  10.340  11.256  0.9941  0.4872 -0.1035
  655MOL0     O86358   4.666  10.291  11.163 -0.1945 -0.5259  0.1013
  655MOL0     C86359   4.536  10.321  11.175  0.1873  0.0189  0.0820
  655MOL0     C86360   4.442  10.212  11.169 -0.1801 -0.6069  0.3982
  655MOL0     C86361   4.306  10.242  11.188 -0.0707 -0.1979  0.7960
  655MOL0     C86362   4.256  10.369  11.197  0.0034  0.6848 -0.5238
  655MOL0     O86363   4.122  10.399  11.213  0.2603 -0.3424 -0.2813
  655MOL0     C86364   4.015  10.310  11.175 -0.2393 -0.6448  0.1297
  655MOL0     C86365   3.879  10.362  11.218 -0.3738 -0.3093  0.4026
  655MOL0     C86366   3.761  10.284  11.146 -0.0253 -0.0869  1.0272
  655MOL0     C86367   3.624  10.281  11.223  0.4617 -0.9882 -0.3067
  655MOL0     C86368   3.503  10.259  11.128  0.0342 -0.3803 -0.0801
  655MOL0     C86369   3.364  10.289  11.193 -0.6991  0.6483 -0.1156
  655MOL0     C86370   3.259  10.227  11.114 -0.6959 -0.2355  0.9157
  655MOL0     C86371   3.126  10.253  11.181 -0.2494  0.9388  0.0561
  655MOL0    Cl86372   2.988  10.165  11.104 -0.0961 -0.1366  0.0926
  655MOL0     C86373   4.349  10.473  11.193 -0.2598  0.2622 -0.1725
  655MOL0     C86374   4.484  10.450  11.177 -0.7114  0.7774  0.9923
  655MOL0     O86375   4.727  10.399  11.363 -0.2890  0.0422 -0.3507
  655MOL0     C86376   4.993  10.393  11.280 -0.5013  0.2472  0.2720
  655MOL0     C86377   5.125  10.401  11.213  0.0168  0.2262 -1.2715
  655MOL0     N86378   5.832  10.502  11.472 -0.0849 -0.1817 -0.1736
  655MOL0     N86379   5.955  10.552  11.459  0.0620 -0.2009 -0.3739
  655MOL0     C86380   6.770  10.948  10.827 -0.1647  0.0079 -0.7204
  655MOL0     C86381   6.888  10.906  10.758 -0.3798 -0.4705 -0.2002
  655MOL0     C86382   7.265  10.741  10.626 -0.4828 -0.2971  1.5932
  655MOL0     C86383   7.308  10.608  10.630  0.4568  0.5703 -0.7825
  655MOL0     C86384   7.425  10.573  10.557  0.1475  0.1685 -0.2726
  655MOL0     C86385   7.492  10.661  10.473 -0.0074  0.9173 -0.6738
  655MOL0     O86386   7.601  10.617  10.396 -0.0076  0.1338 -0.3926
  655MOL0     C86387   7.713  10.550  10.454  0.4109 -0.1901 -0.1681
  655MOL0     C86388   7.780  10.471  10.342 -0.0304  0.4008  0.5666
  655MOL0     C86389   7.855  10.559  10.236  0.0071  0.8740 -0.9494
  655MOL0     C86390   7.967  10.647  10.286  0.2007  0.1033 -0.6560
  655MOL0     C86391   8.076  10.569  10.349 -0.7742 -0.1794 -0.3469
  655MOL0     C86392   8.170  10.520  10.416 -0.1401 -0.3998 -0.2643
  655MOL0     C86393   7.443  10.786  10.451  0.2723 -0.6636  0.4310
  655MOL0     C86394   7.328  10.828  10.529 -0.2662 -0.6581  1.1150
  655MOL0     H86395   7.102  11.171  10.816 -0.0425  1.0995  4.4975
  655MOL0     H86396   6.907  11.249  10.937 -0.0094 -1.0792  1.8953
  655MOL0     H86397   6.532  11.067  11.099 -3.7194  1.3856 -0.3131
  655MOL0     H86398   6.575  10.934  10.980  1.1662  0.4270  1.7076
  655MOL0     H86399   6.455  11.073  10.807 -2.2886  0.3684 -0.7265
  655MOL0     H86400   6.445  11.202  10.920  0.5016 -0.0233 -0.3585
  655MOL0     H86401   6.226  11.078  10.912 -1.4983 -1.6266  0.7595
  655MOL0     H86402   6.314  11.084  11.064  0.6797 -1.0230  1.6066
  655MOL0     H86403   6.309  10.841  10.860  2.4394 -0.7230 -0.5994
  655MOL0     H86404   6.392  10.847  11.018 -0.6373 -0.7982 -0.2660
  655MOL0     H86405   6.197  10.716  11.018  1.6383  0.3295 -1.3609
  655MOL0     H86406   6.095  10.851  10.982 -1.2273 -3.2724  0.1219
  655MOL0     H86407   6.176  10.960  11.187 -1.4904  0.5952  0.2604
  655MOL0     H86408   6.294  10.839  11.233  0.4715  1.0205  1.4891
  655MOL0     H86409   6.076  10.816  11.358 -2.4722  1.2780 -0.9627
  655MOL0     H86410   5.991  10.786  11.204  0.6130 -0.2507 -1.1060
  655MOL0     H86411   6.210  10.617  11.348  0.1890 -1.4228  0.3476
  655MOL0     H86412   6.154  10.568  11.189 -2.9344  3.7855 -2.9441
  655MOL0     H86413   5.906  10.480  11.157 -0.7007  0.9016  0.3877
  655MOL0     H86414   5.579  10.484  11.343  2.9975  1.8582  1.7459
  655MOL0     H86415   5.639  10.320  11.360  2.9233 -2.8157 -3.5757
  655MOL0     H86416   5.747  10.317  11.131  0.3565  0.8581 -0.5484
  655MOL0     H86417   5.655  10.462  11.096  0.5756  1.0216  0.0099
  655MOL0     H86418   5.551  10.297  10.993  3.5014  1.1887 -0.1501
  655MOL0     H86419   5.550  10.194  11.135  3.0471  0.1259 -0.9909
  655MOL0     H86420   5.407  10.460  11.081  0.2259  1.1787  1.6633
  655MOL0     H86421   5.377  10.368  11.232  1.9689 -2.6724  0.6434
  655MOL0     H86422   5.109  10.130  11.008  2.3801  1.4601  0.6648
  655MOL0     H86423   4.861  10.153  11.071 -0.1059 -0.1791 -2.1885
  655MOL0     H86424   4.475  10.109  11.159  1.5755 -0.2090  1.6675
  655MOL0     H86425   4.229  10.168  11.168  1.2402 -1.5124  0.4198
  655MOL0     H86426   4.035  10.212  11.219 -0.8558 -0.4259  0.9298
  655MOL0     H86427   4.025  10.304  11.066  1.4891 -1.5556  0.2999
  655MOL0     H86428   3.873  10.468  11.191 -0.2433 -0.5896 -0.7830
  655MOL0     H86429   3.864  10.358  11.327  1.3523  0.1157  0.6953
  655MOL0     H86430   3.777  10.178  11.128 -2.9658 -0.7330  1.6502
  655MOL0     H86431   3.764  10.314  11.041  1.0508 -2.4485  0.3307
  655MOL0     H86432   3.621  10.206  11.303 -2.6101  0.7480  1.4006
  655MOL0     H86433   3.613  10.381  11.266 -1.0059 -0.4933 -1.7382
  655MOL0     H86434   3.518  10.156  11.094 -1.7674 -0.8471  0.4739
  655MOL0     H86435   3.522  10.324  11.042  1.3851 -0.4970  0.1088
  655MOL0     H86436   3.346  10.395  11.212 -1.0310  0.6620 -0.5050
  655MOL0     H86437   3.375  10.233  11.287 -2.4478 -0.5587 -0.5940
  655MOL0     H86438   3.249  10.280  11.019 -3.0067 -1.4900  0.3879
  655MOL0     H86439   3.277  10.120  11.099  0.6994  0.0014  0.7900
  655MOL0     H86440   3.105  10.360  11.171 -1.0551  0.7461 -0.4021
  655MOL0     H86441   3.119  10.218  11.285  1.2791  2.0893  0.5725
  655MOL0     H86442   4.319  10.578  11.192  2.1256  1.0837  2.2847
  655MOL0     H86443   4.558  10.528  11.161  1.3528 -1.6517 -3.4492
  655MOL0     H86444   4.973  10.473  11.350  2.5709  1.7497 -0.3732
  655MOL0     H86445   5.194  10.476  11.250 -2.1838  3.0005 -2.4132
  655MOL0     H86446   6.681  10.887  10.821 -1.4310  1.4649  1.7688
  655MOL0     H86447   6.889  10.818  10.694  2.8286  1.4662 -3.1922
  655MOL0     H86448   7.253  10.530  10.681  1.2893  0.6428  0.2595
  655MOL0     H86449   7.465  10.473  10.558 -0.4421 -0.1292 -2.5039
  655MOL0     H86450   7.678  10.488  10.537  1.6891 -0.7094  0.0056
  655MOL0     H86451   7.790  10.616  10.493 -0.1831  0.4689 -0.0976
  655MOL0     H86452   7.848  10.408  10.400  0.8349 -1.8827 -2.6496
  655MOL0     H86453   7.713  10.402  10.290  1.9524 -0.2106 -1.3540
  655MOL0     H86454   7.795  10.643  10.200  0.3715  1.4919 -0.1493
  655MOL0     H86455   7.868  10.493  10.150 -1.1752  1.5741 -1.6989
  655MOL0     H86456   8.006  10.707  10.203  0.6369 -0.6912 -1.0288
  655MOL0     H86457   7.913  10.711  10.357 -2.4601 -2.2852 -0.3594
  655MOL0     H86458   8.248  10.479  10.477  0.9154  2.1353  0.2360
  655MOL0     H86459   7.487  10.849  10.374 -0.7181 -0.2067  0.2259
  655MOL0     H86460   7.278  10.921  10.505 -5.2339 -3.5837 -1.6194
  656MOL0     O86461   9.262   0.098   6.760 -0.6352  0.6188  0.2166
  656MOL0     C86462   9.379   0.134   6.789  0.5147  0.6158 -0.4883
  656MOL0     O86463   9.410   0.249   6.846 -0.9330 -0.7267 -0.1254
  656MOL0     C86464   9.341   0.354   6.891 -0.1108 -0.0947  0.0782
  656MOL0     C86465   9.205   0.350   6.917 -0.9273 -0.4569 -0.2487
  656MOL0     C86466   9.142   0.469   6.954  0.6599  0.4223 -0.0981
  656MOL0     C86467   9.200   0.591   6.958  0.4164  0.2751 -0.9649
  656MOL0     O86468   9.120   0.689   7.019 -0.2699 -0.1185 -0.3977
  656MOL0     C86469   9.179   0.807   7.070  1.0305 -0.0941  0.3569
  656MOL0     C86470   9.139   0.920   6.967 -0.5387  0.5954 -0.4880
  656MOL0     C86471   8.992   0.953   6.955 -0.2013 -0.3384 -0.1887
  656MOL0     C86472   8.934   0.998   7.088  0.0051 -0.0184  0.2055
  656MOL0     C86473   8.780   1.022   7.069 -0.3106 -0.1044 -0.0597
  656MOL0     C86474   8.748   1.149   6.984 -0.7987 -0.7759  0.3691
  656MOL0     C86475   8.614   1.207   7.019  0.5178  0.3317  0.2668
  656MOL0     C86476   8.586   1.351   6.984  0.3624 -0.2745  0.8586
  656MOL0     N86477   8.444   1.374   7.001  1.0255  0.0895 -0.0270
  656MOL0     C86478   8.338   1.342   6.918  0.1761 -0.1100  0.2968
  656MOL0     C86479   8.230   1.364   6.998  1.0751  0.3886 -0.5817
  656MOL0     C86480   8.087   1.332   6.947 -0.6159  0.2965 -0.6405
  656MOL0     C86481   7.974   1.373   7.042 -0.1671  0.2801 -0.3521
  656MOL0     C86482   7.842   1.382   6.965 -0.3523  0.4706 -0.0708
  656MOL0     C86483   7.832   1.519   6.907  0.2555  0.4822 -0.3722
  656MOL0     O86484   7.705   1.533   6.839  0.5653  0.2203 -0.1919
  656MOL0     C86485   7.591   1.559   6.908  0.0171 -0.0081 -0.1771
  656MOL0     C86486   7.567   1.581   7.051 -0.8501  0.2933  0.8717
  656MOL0     C86487   7.440   1.578   7.099  1.0476  0.2935  0.6273
  656MOL0     C86488   7.328   1.568   7.014 -0.1683 -0.5116 -0.0184
  656MOL0     C86489   7.197   1.558   7.085 -0.1103 -0.3624  0.3941
  656MOL0     O86490   7.188   1.547   7.215 -0.2257 -0.3517  0.2311
  656MOL0     C86491   7.070   1.505   7.281 -0.3827 -0.1593  0.6159
  656MOL0     C86492   6.980   1.406   7.227  0.3236 -0.6721 -0.2918
  656MOL0     C86493   6.851   1.393   7.295 -0.3251  0.5287  0.6730
  656MOL0     C86494   6.819   1.456   7.415  0.6361 -0.9260 -0.0091
  656MOL0     O86495   6.706   1.434   7.489 -0.0882  0.0525  0.1878
  656MOL0     C86496   6.605   1.344   7.431 -0.2170 -0.1426 -0.4859
  656MOL0     C86497   6.482   1.338   7.528 -0.7103 -0.2001  0.3260
  656MOL0     C86498   6.365   1.255   7.459  0.2881 -0.4234 -0.0368
  656MOL0     C86499   6.282   1.187   7.577  0.4460  0.7063 -0.0805
  656MOL0     C86500   6.157   1.121   7.517  0.2761 -0.6673  0.3061
  656MOL0     C86501   6.056   1.235   7.496  0.5803  0.0532  0.3998
  656MOL0     C86502   5.931   1.166   7.418  0.1318 -0.1419 -0.0485
  656MOL0     C86503   5.814   1.148   7.519 -0.1418  0.2370  0.3178
  656MOL0    Cl86504   5.836   0.989   7.596 -0.0886  0.2219 -0.3043
  656MOL0     C86505   6.907   1.544   7.470  0.3072 -0.3390  0.3610
  656MOL0     C86506   7.036   1.558   7.405 -0.4312  0.3772 -0.5466
  656MOL0     O86507   7.100   1.565   7.008  0.3255  0.3547 -0.3718
  656MOL0     C86508   7.348   1.551   6.876  0.1096 -0.9351 -0.6912
  656MOL0     C86509   7.481   1.546   6.831  0.4166 -0.2038 -0.1280
  656MOL0     N86510   8.266   1.415   7.120 -0.2682 -0.2781 -0.5860
  656MOL0     N86511   8.392   1.428   7.113 -0.8113  0.1481  0.2575
  656MOL0     C86512   9.339   0.591   6.944 -0.1118 -0.9401  0.4234
  656MOL0     C86513   9.407   0.473   6.898  0.4379 -0.2452 -0.1014
  656MOL0     C86514   9.493   0.056   6.729 -0.3689 -0.0279 -0.8309
  656MOL0     C86515   9.633   0.092   6.746 -0.2521  0.5644  0.8590
  656MOL0     C86516   9.727   0.007   6.692  0.4199  0.9093  0.0516
  656MOL0     C86517   9.687  -0.116   6.642  0.0044 -0.1542 -0.0961
  656MOL0     O86518   9.784  -0.209   6.627  0.0330  0.1512 -0.1393
  656MOL0     C86519   9.810  -0.247   6.497  0.7866  0.0018  0.2604
  656MOL0     C86520   9.886  -0.135   6.426 -1.0814  0.0659  0.3100
  656MOL0     C86521  10.030  -0.110   6.484  0.7467 -0.3514  0.9205
  656MOL0     C86522  10.120  -0.233   6.490  0.1056 -0.5265 -0.2766
  656MOL0     C86523  10.260  -0.195   6.539  0.1463 -0.2308 -0.2661
  656MOL0     C86524  10.373  -0.184   6.577 -0.7487  0.2625  0.0347
  656MOL0     C86525   9.550  -0.150   6.624 -1.0355 -1.1825 -0.2459
  656MOL0     C86526   9.453  -0.064   6.669  0.6725 -0.8002  0.6976
  656MOL0     H86527   9.153   0.255   6.910 -0.2917 -0.9191  0.9902
  656MOL0     H86528   9.034   0.455   6.964  0.3482  0.8216 -2.3593
  656MOL0     H86529   9.288   0.797   7.067  1.0432 -2.4639 -5.5161
  656MOL0     H86530   9.140   0.832   7.169 -1.8725 -2.1953 -0.0882
  656MOL0     H86531   9.178   0.885   6.871 -0.6218 -0.7961 -0.0328
  656MOL0     H86532   9.192   1.010   7.000  2.0252 -1.6162  1.8088
  656MOL0     H86533   8.931   0.873   6.913  2.2110 -1.4344 -1.7507
  656MOL0     H86534   8.995   1.037   6.885  0.5064  0.7098  1.0368
  656MOL0     H86535   8.947   0.919   7.164  2.0409 -0.0151 -0.0841
  656MOL0     H86536   8.980   1.084   7.137 -0.8551 -0.0908  1.1783
  656MOL0     H86537   8.743   1.017   7.172 -0.7880  0.0180 -0.2212
  656MOL0     H86538   8.730   0.941   7.016  0.4227 -0.7270  0.1941
  656MOL0     H86539   8.737   1.122   6.879 -2.9476 -0.1255  0.3640
  656MOL0     H86540   8.829   1.221   6.987 -0.9112 -0.6132 -0.3506
  656MOL0     H86541   8.541   1.151   6.958 -0.7220  2.6586 -0.5120
  656MOL0     H86542   8.588   1.176   7.121 -1.4032 -0.9193 -0.5399
  656MOL0     H86543   8.615   1.368   6.880 -0.6519 -3.6308 -0.0748
  656MOL0     H86544   8.639   1.422   7.049  0.3579  0.6272 -0.0948
  656MOL0     H86545   8.341   1.301   6.817  3.4006 -0.8534  0.5667
  656MOL0     H86546   8.080   1.226   6.924 -0.4195  0.5079 -1.7425
  656MOL0     H86547   8.082   1.385   6.851 -0.8823  1.0225 -0.2354
  656MOL0     H86548   7.996   1.468   7.091 -1.9749  1.0801 -1.0128
  656MOL0     H86549   7.967   1.298   7.122 -2.6616  0.8129  0.0081
  656MOL0     H86550   7.848   1.304   6.889  0.4679  1.5422 -1.1249
  656MOL0     H86551   7.757   1.354   7.029 -0.7475  2.6509  0.4221
  656MOL0     H86552   7.910   1.533   6.832 -0.4139 -0.3145 -1.2407
  656MOL0     H86553   7.835   1.595   6.987  1.0032 -0.1107  0.1775
  656MOL0     H86554   7.650   1.578   7.121  0.8667 -1.7367 -1.1147
  656MOL0     H86555   7.429   1.588   7.207 -1.6701 -0.6343  0.5115
  656MOL0     H86556   7.016   1.354   7.139  2.0187 -1.4805  0.8181
  656MOL0     H86557   6.784   1.322   7.249  0.0588  1.4281 -1.4122
  656MOL0     H86558   6.645   1.242   7.424 -0.4417 -0.5667  2.8296
  656MOL0     H86559   6.575   1.372   7.330 -2.0361  0.3437  0.1540
  656MOL0     H86560   6.452   1.441   7.544  2.1490  1.0191 -1.3166
  656MOL0     H86561   6.511   1.291   7.623  0.0874 -2.0365 -0.7589
  656MOL0     H86562   6.423   1.182   7.402  0.5290  0.7635 -1.3523
  656MOL0     H86563   6.295   1.302   7.390  1.7362  0.3635 -1.0204
  656MOL0     H86564   6.345   1.107   7.619  1.1404  0.7097 -1.0940
  656MOL0     H86565   6.245   1.251   7.657 -0.0492  0.5564 -0.1803
  656MOL0     H86566   6.115   1.046   7.584 -0.4270 -0.4840  0.0820
  656MOL0     H86567   6.174   1.084   7.415 -0.7421  0.7982 -0.4265
  656MOL0     H86568   6.095   1.319   7.437  0.8043 -1.3846 -1.5819
  656MOL0     H86569   6.025   1.263   7.597  0.5148 -0.2581  0.4645
  656MOL0     H86570   5.909   1.233   7.335  0.2328  1.2646  1.0280
  656MOL0     H86571   5.962   1.070   7.375 -0.0050  0.7292 -2.1704
  656MOL0     H86572   5.718   1.126   7.470  0.4353 -1.4738 -0.1480
  656MOL0     H86573   5.802   1.229   7.591  1.4854  2.4417 -1.7509
  656MOL0     H86574   6.894   1.588   7.568  0.7726 -0.4845  0.4930
  656MOL0     H86575   7.101   1.630   7.452  1.8668 -2.0784  0.2848
  656MOL0     H86576   7.262   1.537   6.811 -1.7555 -4.0546  2.1445
  656MOL0     H86577   7.483   1.543   6.722 -2.0347 -4.6023 -0.2717
  656MOL0     H86578   9.387   0.688   6.957 -1.5458 -0.0442 -0.6495
  656MOL0     H86579   9.515   0.482   6.887  0.6957 -2.2634  0.2641
  656MOL0     H86580   9.665   0.188   6.785  1.7290  0.2551  0.1430
  656MOL0     H86581   9.831   0.034   6.704  0.2721  1.8915 -0.7373
  656MOL0     H86582   9.716  -0.245   6.440 -0.2647  3.2495  1.8781
  656MOL0     H86583   9.861  -0.343   6.484 -0.4762 -0.5746 -0.8256
  656MOL0     H86584   9.902  -0.165   6.322  0.7210 -2.6620  1.2649
  656MOL0     H86585   9.821  -0.048   6.415 -2.5400 -1.1263 -0.9264
  656MOL0     H86586  10.019  -0.055   6.578  1.5310  0.1916  0.7115
  656MOL0     H86587  10.078  -0.046   6.409 -1.1363  1.5396  1.2238
  656MOL0     H86588  10.071  -0.313   6.548  0.4237 -0.1558  0.5159
  656MOL0     H86589  10.129  -0.272   6.389  0.7371  1.4567 -1.0205
  656MOL0     H86590  10.475  -0.176   6.608 -0.0219 -0.1087 -2.1055
  656MOL0     H86591   9.514  -0.248   6.598 -2.2963 -1.3803  1.9829
  656MOL0     H86592   9.349  -0.089   6.650  0.3408  2.0561 -2.2532
  657MOL0     O86593   4.232   9.179   4.088 -0.4124  0.0383 -0.4832
  657MOL0     C86594   4.155   9.247   4.021  0.2015 -1.0361 -0.3497
  657MOL0     O86595   4.018   9.230   4.011 -0.2207 -0.5661  0.6055
  657MOL0     C86596   3.955   9.122   4.079  1.1183 -0.4220 -0.2648
  657MOL0     C86597   4.013   8.995   4.083 -1.3178  0.6341 -0.0420
  657MOL0     C86598   3.959   8.892   4.156  0.1342  0.3532  0.4125
  657MOL0     C86599   3.832   8.909   4.213 -1.0967  0.0906 -0.0510
  657MOL0     O86600   3.774   8.805   4.274 -0.4001  0.0038  1.0927
  657MOL0     C86601   3.649   8.760   4.205 -1.0843 -0.5610 -0.4829
  657MOL0     C86602   3.518   8.794   4.280 -0.6197  0.4629 -0.6167
  657MOL0     C86603   3.395   8.714   4.221  0.1326  0.4075  0.7326
  657MOL0     C86604   3.278   8.741   4.300 -0.1161 -0.3650 -0.3548
  657MOL0     C86605   3.164   8.666   4.222 -0.0245  0.1802 -0.4419
  657MOL0     C86606   3.036   8.660   4.303 -0.6651 -0.0892 -0.0021
  657MOL0     C86607   2.918   8.632   4.219 -0.4543  0.2760  0.2495
  657MOL0     C86608   2.842   8.521   4.287  0.2952 -0.3736  0.0945
  657MOL0     N86609   2.730   8.480   4.210  0.6129 -0.1589  0.1099
  657MOL0     C86610   2.628   8.555   4.160 -0.4767  0.7415  0.1016
  657MOL0     C86611   2.554   8.463   4.091 -0.1913  0.3086 -0.4224
  657MOL0     C86612   2.438   8.479   4.000 -0.6769 -0.0386  0.6622
  657MOL0     C86613   2.471   8.550   3.863 -0.1864  0.1416 -0.0248
  657MOL0     C86614   2.371   8.514   3.758  0.1041  0.1592  0.2954
  657MOL0     C86615   2.245   8.607   3.758  0.3354  0.4158 -0.4216
  657MOL0     O86616   2.177   8.589   3.880  0.2393  0.1938 -0.0143
  657MOL0     C86617   2.037   8.612   3.868 -0.0645  0.3212 -0.5351
  657MOL0     C86618   1.956   8.513   3.921  0.5038 -0.3548  0.3303
  657MOL0     C86619   1.817   8.523   3.905 -0.6613 -0.3713 -0.1343
  657MOL0     C86620   1.761   8.623   3.834  0.1953  0.1121  0.4189
  657MOL0     C86621   1.616   8.626   3.831 -0.4935  0.8189  0.2124
  657MOL0     O86622   1.555   8.742   3.800 -0.6465 -0.3179 -0.0272
  657MOL0     C86623   1.418   8.744   3.774  0.3923  0.3656 -0.4063
  657MOL0     C86624   1.337   8.837   3.844  0.5035 -0.3509 -0.5136
  657MOL0     C86625   1.201   8.839   3.812 -0.5589 -0.1141 -0.5356
  657MOL0     C86626   1.144   8.753   3.720  0.0036 -0.4238 -0.0145
  657MOL0     O86627   1.003   8.753   3.699 -0.2206 -0.9115 -0.4986
  657MOL0     C86628   0.961   8.862   3.609  0.6537  0.8087 -0.3535
  657MOL0     C86629   0.805   8.859   3.583  0.8636  0.1730  0.1397
  657MOL0     C86630   0.718   8.884   3.701 -0.2475 -0.8005 -0.4063
  657MOL0     C86631   0.750   9.004   3.788  0.1181 -0.0408  0.4199
  657MOL0     C86632   0.633   9.072   3.866  0.0804 -0.7090  0.2293
  657MOL0     C86633   0.564   8.984   3.972 -0.4067  0.3745  0.1221
  657MOL0     C86634   0.456   9.077   4.029  0.9774  0.1767  0.1220
  657MOL0     C86635   0.365   9.013   4.130 -0.2686 -0.9866 -0.2167
  657MOL0    Cl86636   0.246   9.130   4.192 -0.3593  0.3412 -0.1261
  657MOL0     C86637   1.227   8.664   3.655 -0.0227 -0.4746  0.5068
  657MOL0     C86638   1.367   8.658   3.677  0.5438  0.4315 -0.6237
  657MOL0     O86639   1.552   8.521   3.853 -0.3197  0.4425  0.0644
  657MOL0     C86640   1.848   8.724   3.785  0.6068  0.2437  0.1803
  657MOL0     C86641   1.988   8.720   3.797  0.6671 -0.1678 -0.9644
  657MOL0     N86642   2.615   8.340   4.108  0.3860 -0.1487 -0.4801
  657MOL0     N86643   2.715   8.355   4.186  0.3494  0.4587  0.0437
  657MOL0     C86644   3.766   9.036   4.211  0.7880  0.3336  0.5966
  657MOL0     C86645   3.828   9.139   4.141 -0.5643  0.1625 -0.2632
  657MOL0     C86646   4.213   9.362   3.945  0.0017 -0.3636 -0.6874
  657MOL0     C86647   4.136   9.438   3.863  0.3468  0.4730 -0.2006
  657MOL0     C86648   4.185   9.539   3.774 -0.2159  0.6920  0.7906
  657MOL0     C86649   4.320   9.571   3.774 -0.3147  1.2046 -0.6689
  657MOL0     O86650   4.385   9.660   3.694 -0.0035 -0.6222 -0.6725
  657MOL0     C86651   4.311   9.734   3.597  0.2262 -0.5235 -0.0372
  657MOL0     C86652   4.255   9.866   3.643  0.2253 -0.6659 -0.3416
  657MOL0     C86653   4.365   9.961   3.697 -0.0925 -0.3434 -0.3372
  657MOL0     C86654   4.306  10.035   3.819  1.0894  0.1044  0.2020
  657MOL0     C86655   4.388  10.150   3.863 -0.1822  0.6157  0.3126
  657MOL0     C86656   4.444  10.254   3.903  0.6957  0.5380  0.5156
  657MOL0     C86657   4.395   9.527   3.879 -0.4884  0.8097  0.0329
  657MOL0     C86658   4.341   9.412   3.956 -0.2982  0.0516  0.5851
  657MOL0     H86659   4.106   8.974   4.030  0.3498  1.1427  2.4711
  657MOL0     H86660   4.007   8.794   4.163 -0.3213  0.1620  0.9532
  657MOL0     H86661   3.652   8.651   4.192 -0.1368 -1.0365  2.8532
  657MOL0     H86662   3.643   8.814   4.110 -2.0644 -0.7544 -0.5463
  657MOL0     H86663   3.506   8.902   4.268  0.3703  0.6811  0.2176
  657MOL0     H86664   3.523   8.768   4.386  0.8544 -3.9779 -1.5813
  657MOL0     H86665   3.419   8.607   4.221  2.3208  0.8485 -0.2988
  657MOL0     H86666   3.373   8.754   4.121  0.1667  2.0765  1.3614
  657MOL0     H86667   3.288   8.692   4.397  2.6627 -0.1612 -0.4389
  657MOL0     H86668   3.256   8.847   4.313 -2.1960 -0.9131  1.2582
  657MOL0     H86669   3.191   8.563   4.197  1.2263  0.7673 -1.6730
  657MOL0     H86670   3.149   8.718   4.127 -4.7564 -0.7099 -0.4329
  657MOL0     H86671   3.020   8.759   4.347 -0.9436  0.0529 -0.4145
  657MOL0     H86672   3.049   8.592   4.388  2.0465  1.3173  0.8076
  657MOL0     H86673   2.859   8.724   4.212  2.7871  2.3938 -1.4097
  657MOL0     H86674   2.957   8.613   4.119 -0.6049  0.8668  0.0729
  657MOL0     H86675   2.804   8.565   4.381  1.6584  3.7831 -1.0664
  657MOL0     H86676   2.913   8.442   4.312  0.1557 -0.3527  0.5782
  657MOL0     H86677   2.609   8.661   4.164 -0.1486  0.9061 -1.8230
  657MOL0     H86678   2.374   8.544   4.060 -0.7704 -1.2385  1.9001
  657MOL0     H86679   2.373   8.392   3.988 -1.9448  0.6501  2.3264
  657MOL0     H86680   2.573   8.519   3.839 -0.1981  0.9179 -1.1169
  657MOL0     H86681   2.483   8.658   3.871  0.3209  0.0754  0.1291
  657MOL0     H86682   2.423   8.542   3.666  2.0230 -0.6473  1.0920
  657MOL0     H86683   2.361   8.405   3.753 -0.8598  0.1741  1.4296
  657MOL0     H86684   2.181   8.583   3.672 -1.1371 -1.0178  1.0011
  657MOL0     H86685   2.277   8.711   3.747  3.9075 -0.2538  1.9956
  657MOL0     H86686   1.995   8.431   3.980 -2.7144  0.7368  4.4388
  657MOL0     H86687   1.762   8.438   3.944 -0.0431 -0.0235  1.5944
  657MOL0     H86688   1.383   8.909   3.911  2.1612  1.8222 -3.7523
  657MOL0     H86689   1.138   8.913   3.860  0.1476  0.4706 -0.4849
  657MOL0     H86690   1.026   8.846   3.523  2.5000  0.1005  1.1145
  657MOL0     H86691   0.975   8.958   3.661 -1.2652 -0.3034  2.4966
  657MOL0     H86692   0.780   8.760   3.543  2.2536  1.6729 -5.1642
  657MOL0     H86693   0.774   8.929   3.505 -0.2606 -0.6920 -0.2062
  657MOL0     H86694   0.723   8.793   3.761 -0.2047 -0.2889  0.3791
  657MOL0     H86695   0.620   8.901   3.655 -0.8778  1.4771  1.5793
  657MOL0     H86696   0.826   8.978   3.862  0.5335  0.0212  0.0224
  657MOL0     H86697   0.790   9.085   3.726  0.9268  0.9034  2.1003
  657MOL0     H86698   0.565   9.108   3.789  0.3790 -2.1843 -0.7786
  657MOL0     H86699   0.674   9.159   3.918 -1.1629  1.9863 -2.9642
  657MOL0     H86700   0.632   8.947   4.049 -1.4466 -4.8009 -1.0735
  657MOL0     H86701   0.525   8.896   3.919 -0.2927  0.0367  0.5989
  657MOL0     H86702   0.495   9.164   4.083 -2.3572  0.2740  2.7611
  657MOL0     H86703   0.389   9.103   3.947  0.4984 -1.9097 -0.2199
  657MOL0     H86704   0.427   8.980   4.214 -0.0190  1.1839  0.5122
  657MOL0     H86705   0.312   8.929   4.084 -3.9780  1.4928 -0.8670
  657MOL0     H86706   1.180   8.586   3.595  0.8717 -1.7793  1.4486
  657MOL0     H86707   1.425   8.582   3.627  0.6497  0.3915 -0.4398
  657MOL0     H86708   1.796   8.808   3.740 -0.7319 -0.2860  0.6843
  657MOL0     H86709   2.056   8.796   3.762  3.6056 -2.0691  0.2884
  657MOL0     H86710   3.663   9.038   4.244  0.8980 -1.0132  1.0958
  657MOL0     H86711   3.782   9.237   4.134  0.5726  0.6710 -0.9600
  657MOL0     H86712   4.032   9.415   3.844  0.5588  0.8891 -2.0284
  657MOL0     H86713   4.113   9.590   3.711  0.3029 -0.5389 -0.8577
  657MOL0     H86714   4.224   9.684   3.553  0.9557 -1.0729 -0.8912
  657MOL0     H86715   4.373   9.748   3.508 -2.6959 -1.1970 -2.3603
  657MOL0     H86716   4.186   9.918   3.575 -0.1051 -0.2997  0.2556
  657MOL0     H86717   4.180   9.834   3.717 -1.2895 -0.5317 -1.7511
  657MOL0     H86718   4.403  10.025   3.617 -0.3911 -2.6447 -2.4623
  657MOL0     H86719   4.449   9.901   3.733  0.8938 -1.0553 -3.4854
  657MOL0     H86720   4.209  10.075   3.788  2.0096  0.5459 -2.4513
  657MOL0     H86721   4.298   9.976   3.910 -2.4660  0.3304  0.1548
  657MOL0     H86722   4.479  10.339   3.958 -0.1378 -0.0611  2.0354
  657MOL0     H86723   4.495   9.557   3.907 -0.1430 -0.5523  0.3257
  657MOL0     H86724   4.422   9.368   4.012  2.3213  2.8348 -0.7403
  658MOL0     O86725   0.129   8.578   7.058 -0.2785  0.3503 -0.0840
  658MOL0     C86726   0.176   8.614   7.168 -0.2040 -0.6440  0.6950
  658MOL0     O86727   0.110   8.652   7.279  0.0538  0.1703  0.0557
  658MOL0     C86728  -0.028   8.645   7.289  0.1865  0.8077 -0.9828
  658MOL0     C86729  -0.110   8.555   7.210  0.8547 -0.2203  0.3532
  658MOL0     C86730  -0.248   8.553   7.243 -0.3081 -1.6705  0.2008
  658MOL0     C86731  -0.312   8.642   7.331  0.2939  0.2311  0.6255
  658MOL0     O86732  -0.446   8.610   7.342  0.1373 -0.8000 -0.2346
  658MOL0     C86733  -0.538   8.715   7.393 -0.5081 -0.1272  1.0473
  658MOL0     C86734  -0.680   8.661   7.420  0.6111  0.3690 -0.6737
  658MOL0     C86735  -0.762   8.730   7.527  0.0800  0.0477 -1.3887
  658MOL0     C86736  -0.901   8.684   7.524 -0.2476  0.1066  0.5888
  658MOL0     C86737  -0.995   8.724   7.642 -0.0503 -0.2603  0.0385
  658MOL0     C86738  -1.133   8.655   7.641  0.7873 -0.2231  0.7748
  658MOL0     C86739  -1.233   8.714   7.742 -0.0206  0.0340  0.7359
  658MOL0     C86740  -1.370   8.709   7.684  0.6662 -0.1064 -0.2160
  658MOL0     N86741  -1.475   8.699   7.789  0.2175 -0.2407 -0.4025
  658MOL0     C86742  -1.558   8.802   7.835  0.1794  0.7981  0.0729
  658MOL0     C86743  -1.660   8.740   7.903  0.1777 -0.1237 -0.7740
  658MOL0     C86744  -1.772   8.815   7.968 -0.1136 -0.9019 -0.3632
  658MOL0     C86745  -1.905   8.797   7.889 -0.5075 -0.7077 -0.5313
  658MOL0     C86746  -2.002   8.911   7.904  0.0163  1.0305  0.4631
  658MOL0     C86747  -2.139   8.858   7.871  0.8638 -0.2257  0.0046
  658MOL0     O86748  -2.238   8.968   7.846 -0.6663  0.1820  0.2233
  658MOL0     C86749  -2.315   9.020   7.952 -0.8488  0.6264  0.2211
  658MOL0     C86750  -2.419   9.101   7.911  0.5316  0.9638  0.5617
  658MOL0     C86751  -2.513   9.147   8.007  0.0315  0.1496  0.3115
  658MOL0     C86752  -2.513   9.107   8.142 -0.1463  0.1275 -0.4504
  658MOL0     C86753  -2.609   9.166   8.238 -0.3360 -0.0080  0.0887
  658MOL0     O86754  -2.676   9.280   8.201 -0.9324  0.0663 -0.2282
  658MOL0     C86755  -2.776   9.331   8.271 -0.2486 -0.4898 -0.1624
  658MOL0     C86756  -2.892   9.253   8.305 -0.7834 -0.2274  0.1328
  658MOL0     C86757  -2.998   9.313   8.359  0.4444 -0.6202 -0.1792
  658MOL0     C86758  -2.986   9.448   8.392 -0.0896 -1.5021 -0.5005
  658MOL0     O86759  -3.103   9.502   8.444  0.0411  0.8302  0.3706
  658MOL0     C86760  -3.088   9.629   8.514 -0.7749  0.2993 -0.1447
  658MOL0     C86761  -3.239   9.654   8.558  0.1409  0.4492  0.8541
  658MOL0     C86762  -3.261   9.794   8.619 -0.3882  0.1755 -0.0329
  658MOL0     C86763  -3.408   9.793   8.666  0.0447 -1.5583 -0.5875
  658MOL0     C86764  -3.446   9.925   8.748 -0.4345  1.1439  0.2780
  658MOL0     C86765  -3.596   9.950   8.772  0.2293 -0.3805  0.6338
  658MOL0     C86766  -3.657   9.837   8.850 -0.4354 -1.0577  0.1877
  658MOL0     C86767  -3.792   9.878   8.895 -0.0219  0.0648  0.3497
  658MOL0    Cl86768  -3.860   9.735   8.979 -0.1243  0.0781 -0.4439
  658MOL0     C86769  -2.867   9.522   8.360  1.5190  0.3758 -0.9334
  658MOL0     C86770  -2.766   9.464   8.288  0.4900  0.7218 -0.3437
  658MOL0     O86771  -2.623   9.102   8.339  0.0579 -0.0467  0.1375
  658MOL0     C86772  -2.407   9.019   8.186  0.0744  0.4215 -0.3708
  658MOL0     C86773  -2.311   8.980   8.093 -0.4015  0.5120 -0.1162
  658MOL0     N86774  -1.639   8.602   7.892 -0.3884  0.3439 -0.9073
  658MOL0     N86775  -1.524   8.579   7.837  0.8428 -0.1144  0.0161
  658MOL0     C86776  -0.230   8.723   7.410 -0.1100  0.3666  0.1299
  658MOL0     C86777  -0.091   8.727   7.380  0.3073 -0.6721 -0.7402
  658MOL0     C86778   0.326   8.635   7.174  0.6243  0.1945 -0.2591
  658MOL0     C86779   0.410   8.610   7.063  0.8046  0.8567 -0.2159
  658MOL0     C86780   0.545   8.623   7.060 -0.6222 -0.7075 -0.5186
  658MOL0     C86781   0.603   8.663   7.177  0.0039  0.9327 -0.1794
  658MOL0     O86782   0.741   8.666   7.167 -0.4760 -0.2185  0.3614
  658MOL0     C86783   0.805   8.757   7.262  0.3980  0.0206  0.3892
  658MOL0     C86784   0.951   8.777   7.222  0.6708  0.3744 -0.9725
  658MOL0     C86785   0.945   8.845   7.079 -0.2377  0.0463 -0.2584
  658MOL0     C86786   1.075   8.865   7.005  0.8558  0.1654  0.7723
  658MOL0     C86787   1.151   8.970   7.078  0.7695 -0.1691 -0.3639
  658MOL0     C86788   1.212   9.057   7.127 -0.3589 -0.7162  0.2863
  658MOL0     C86789   0.530   8.683   7.290  0.0924  0.1541 -0.7501
  658MOL0     C86790   0.394   8.670   7.288 -0.9109 -1.1082 -0.3029
  658MOL0     H86791  -0.073   8.497   7.126 -1.3154  2.6835 -2.9395
  658MOL0     H86792  -0.310   8.489   7.182 -1.7484  0.6563 -0.9168
  658MOL0     H86793  -0.568   8.789   7.318 -3.6954 -0.7016  1.5946
  658MOL0     H86794  -0.504   8.778   7.476  0.3420  3.7670 -1.9389
  658MOL0     H86795  -0.659   8.557   7.448  0.4419  0.1974 -1.1666
  658MOL0     H86796  -0.740   8.669   7.329  0.9415  1.7782 -0.7855
  658MOL0     H86797  -0.766   8.838   7.513 -2.5599  0.5506  1.8738
  658MOL0     H86798  -0.717   8.707   7.624 -1.4917  1.5203 -0.2445
  658MOL0     H86799  -0.949   8.706   7.428 -2.4455  0.5743  1.7201
  658MOL0     H86800  -0.895   8.575   7.522  0.5345  0.1428 -1.6865
  658MOL0     H86801  -1.011   8.833   7.642 -2.9477 -0.6031  1.2844
  658MOL0     H86802  -0.939   8.704   7.734  3.1010  0.9893 -1.4183
  658MOL0     H86803  -1.119   8.548   7.653 -1.0526 -0.6276 -0.2575
  658MOL0     H86804  -1.168   8.659   7.537  0.1901  1.3982  1.0020
  658MOL0     H86805  -1.236   8.647   7.828 -1.5410 -1.5070 -0.4319
  658MOL0     H86806  -1.208   8.819   7.762  0.2827  0.7039 -2.4614
  658MOL0     H86807  -1.385   8.619   7.624 -4.8906  1.7637 -2.3861
  658MOL0     H86808  -1.384   8.798   7.622  2.0355 -0.1124 -0.5601
  658MOL0     H86809  -1.548   8.908   7.816  2.2691  0.3224 -1.9615
  658MOL0     H86810  -1.739   8.919   7.962  2.0931 -1.5553 -0.3431
  658MOL0     H86811  -1.779   8.794   8.075  2.8876  2.5264  0.6926
  658MOL0     H86812  -1.952   8.706   7.928  3.0801 -1.2527  3.1641
  658MOL0     H86813  -1.891   8.793   7.781  3.2267 -2.0390 -0.1394
  658MOL0     H86814  -1.996   8.965   7.998 -2.7568  3.0856 -0.4284
  658MOL0     H86815  -1.977   8.982   7.825  1.4989  2.1656  1.8831
  658MOL0     H86816  -2.179   8.809   7.960 -1.3074  0.3514 -0.6037
  658MOL0     H86817  -2.147   8.789   7.787  2.9857  0.3131 -0.7003
  658MOL0     H86818  -2.420   9.127   7.805 -0.1145 -0.4315  0.2091
  658MOL0     H86819  -2.586   9.218   7.969 -0.2345 -0.0756  0.3999
  658MOL0     H86820  -2.899   9.148   8.279  4.5199 -1.1575  1.3748
  658MOL0     H86821  -3.084   9.255   8.392 -0.4657  1.1142  0.6232
  658MOL0     H86822  -3.049   9.701   8.442  0.2347 -1.1019 -1.0639
  658MOL0     H86823  -3.018   9.626   8.598 -0.2377  3.9097 -0.3096
  658MOL0     H86824  -3.270   9.578   8.630  0.3873 -1.7048 -1.2084
  658MOL0     H86825  -3.312   9.637   8.479 -0.9685  1.6044  1.5836
  658MOL0     H86826  -3.262   9.873   8.544  1.9828  1.7616  1.4848
  658MOL0     H86827  -3.199   9.810   8.708  1.1910 -1.5974 -0.7499
  658MOL0     H86828  -3.471   9.789   8.576 -0.6847  0.7740 -0.2253
  658MOL0     H86829  -3.425   9.699   8.720 -1.5466 -0.3609  1.1086
  658MOL0     H86830  -3.419  10.007   8.682 -0.7249  0.8292 -0.2396
  658MOL0     H86831  -3.386   9.926   8.840  2.3919  2.6370 -1.4415
  658MOL0     H86832  -3.641   9.960   8.673  0.6498  0.1884  0.4922
  658MOL0     H86833  -3.601  10.046   8.824  1.2900 -0.2295  0.4834
  658MOL0     H86834  -3.671   9.748   8.788 -0.8710 -0.3056 -0.8285
  658MOL0     H86835  -3.603   9.816   8.943 -0.5223  0.5653  0.6437
  658MOL0     H86836  -3.860   9.900   8.812 -1.7532  2.2095  2.2164
  658MOL0     H86837  -3.785   9.967   8.958  0.7521 -0.5521  1.1731
  658MOL0     H86838  -2.864   9.627   8.386  0.5760 -0.2192  1.9105
  658MOL0     H86839  -2.674   9.510   8.253  1.0095  1.3919  1.7825
  658MOL0     H86840  -2.395   8.985   8.288  0.7904  0.0229 -0.5805
  658MOL0     H86841  -2.235   8.912   8.129  1.3259  3.2551  1.8261
  658MOL0     H86842  -0.267   8.775   7.497  1.0105 -0.2496  0.9895
  658MOL0     H86843  -0.027   8.800   7.429 -0.1796  0.8236 -2.2023
  658MOL0     H86844   0.354   8.562   6.984  0.4996  1.2754 -0.2577
  658MOL0     H86845   0.603   8.595   6.973 -2.9398 -0.4907 -2.2277
  658MOL0     H86846   0.798   8.718   7.364  0.3311  1.4621  0.9674
  658MOL0     H86847   0.751   8.852   7.258  1.4080  0.6104  0.5843
  658MOL0     H86848   0.993   8.844   7.298  3.4015 -1.4681 -0.6906
  658MOL0     H86849   1.004   8.682   7.233 -1.2698 -0.4708  2.5209
  658MOL0     H86850   0.903   8.945   7.062 -1.9289 -0.6091 -0.1211
  658MOL0     H86851   0.890   8.779   7.012  3.0586 -1.4840 -1.6009
  658MOL0     H86852   1.133   8.773   6.995 -0.4484 -0.6353  0.3368
  658MOL0     H86853   1.052   8.897   6.903  0.6088 -0.2135  0.7065
  658MOL0     H86854   1.273   9.137   7.162  0.7644  0.1539 -3.2677
  658MOL0     H86855   0.591   8.682   7.380  1.0403 -1.9873 -1.3624
  658MOL0     H86856   0.342   8.674   7.383  1.8977 -0.7456  1.3379
  659MOL0     O86857   4.516  11.107   5.433 -0.1041  0.2687 -0.2115
  659MOL0     C86858   4.562  11.022   5.504 -0.5195 -0.1733 -0.1904
  659MOL0     O86859   4.492  10.912   5.559  0.4155 -0.3791  0.1010
  659MOL0     C86860   4.362  10.895   5.521  0.1280  0.4242  0.0458
  659MOL0     C86861   4.325  10.881   5.388  0.4133  0.4453  0.8414
  659MOL0     C86862   4.189  10.873   5.350 -0.2816  0.4531 -1.0182
  659MOL0     C86863   4.082  10.890   5.449 -0.6390 -0.1270  0.4995
  659MOL0     O86864   3.952  10.877   5.416 -0.2205 -0.8061  0.2469
  659MOL0     C86865   3.864  10.796   5.494  0.0759 -0.0114  0.2492
  659MOL0     C86866   3.732  10.884   5.513 -0.0657  0.6980  0.1330
  659MOL0     C86867   3.623  10.840   5.417 -0.2407 -0.0055 -0.6506
  659MOL0     C86868   3.492  10.932   5.413 -0.7274 -0.7587  0.0502
  659MOL0     C86869   3.377  10.855   5.355  0.3510 -0.6270 -0.5913
  659MOL0     C86870   3.382  10.819   5.211  0.7961 -0.0885 -0.2709
  659MOL0     C86871   3.390  10.937   5.112  0.1887  0.4129  0.8567
  659MOL0     C86872   3.390  10.890   4.969  0.1850 -0.0972  0.8721
  659MOL0     N86873   3.267  10.814   4.930  0.7162  0.3271  0.4461
  659MOL0     C86874   3.152  10.869   4.890 -0.5219  0.2915 -0.5405
  659MOL0     C86875   3.071  10.774   4.843  0.1280 -0.0461 -0.1020
  659MOL0     C86876   2.930  10.786   4.800 -0.7059  0.2612  0.4158
  659MOL0     C86877   2.834  10.812   4.920 -0.5339  0.3660 -0.2025
  659MOL0     C86878   2.821  10.957   4.958  0.0449  0.0536  0.1533
  659MOL0     C86879   2.701  10.969   5.050 -0.6501 -1.0651 -0.2508
  659MOL0     O86880   2.707  10.910   5.177 -0.2599  0.3555 -0.6555
  659MOL0     C86881   2.586  10.901   5.247 -0.6695  0.1486  0.1282
  659MOL0     C86882   2.460  10.954   5.209 -0.1759 -0.0267 -0.3234
  659MOL0     C86883   2.348  10.926   5.287  0.1609 -0.7316 -1.0660
  659MOL0     C86884   2.360  10.849   5.406  0.1903  0.1303 -0.4911
  659MOL0     C86885   2.247  10.828   5.496  0.0517  0.5413 -0.2351
  659MOL0     O86886   2.123  10.853   5.441  0.2595  0.4717  0.4080
  659MOL0     C86887   2.009  10.814   5.501 -0.3108 -0.2093  0.1933
  659MOL0     C86888   1.980  10.676   5.519 -0.8782 -0.4715 -0.2950
  659MOL0     C86889   1.861  10.651   5.583 -0.4840  1.2694  0.1589
  659MOL0     C86890   1.777  10.749   5.632 -0.8700  0.2058 -0.3751
  659MOL0     O86891   1.649  10.715   5.682 -0.2466 -0.8886 -0.0726
  659MOL0     C86892   1.568  10.813   5.752  0.7948 -0.4519  0.4874
  659MOL0     C86893   1.464  10.879   5.659  0.0560  0.1537  0.2747
  659MOL0     C86894   1.342  10.913   5.738  0.0849 -0.6903 -0.0040
  659MOL0     C86895   1.237  10.971   5.637  0.5728  0.1338  0.7515
  659MOL0     C86896   1.119  11.033   5.708 -0.0639 -0.4974  0.2187
  659MOL0     C86897   1.023  10.931   5.777 -0.0300  0.1344 -0.1927
  659MOL0     C86898   0.878  10.983   5.764  1.3255  0.0985 -0.0842
  659MOL0     C86899   0.792  10.896   5.686  0.2561  0.6430 -0.6836
  659MOL0    Cl86900   0.750  10.753   5.792  0.1189  0.4288 -0.3787
  659MOL0     C86901   1.808  10.881   5.601 -0.3497  0.3191 -0.5421
  659MOL0     C86902   1.925  10.915   5.535  0.2262  0.7659 -0.3755
  659MOL0     O86903   2.271  10.771   5.609 -0.2471 -0.7523  0.2235
  659MOL0     C86904   2.491  10.800   5.435  0.2903  0.3370 -0.2355
  659MOL0     C86905   2.605  10.826   5.358 -0.3484 -0.9215  0.6283
  659MOL0     N86906   3.142  10.658   4.857  0.4767  0.2933 -0.3978
  659MOL0     N86907   3.255  10.681   4.911 -0.0790  0.4037 -0.1764
  659MOL0     C86908   4.124  10.918   5.577 -0.8870 -0.1981  0.0434
  659MOL0     C86909   4.262  10.932   5.609 -0.0202  0.0380 -0.1145
  659MOL0     C86910   4.707  11.027   5.539  0.3524  0.1878 -0.3913
  659MOL0     C86911   4.772  10.912   5.585  0.0874  0.5546 -0.9529
  659MOL0     C86912   4.905  10.911   5.621 -0.6206  0.0663  0.7431
  659MOL0     C86913   4.977  11.032   5.600  0.2387  0.4992  0.2553
  659MOL0     O86914   5.113  11.048   5.620 -0.0925 -0.6168 -0.4424
  659MOL0     C86915   5.185  10.941   5.682 -0.2047 -0.8589  0.5502
  659MOL0     C86916   5.333  10.993   5.700  0.7249 -0.0977  0.2645
  659MOL0     C86917   5.437  10.879   5.741 -0.0531  0.1548 -0.6606
  659MOL0     C86918   5.590  10.916   5.753  0.6600 -0.3503  0.4287
  659MOL0     C86919   5.657  10.788   5.753 -0.9563  0.2009  0.1654
  659MOL0     C86920   5.703  10.684   5.715 -1.2551 -0.4425  0.6626
  659MOL0     C86921   4.908  11.145   5.548 -0.0091 -1.0391  0.9666
  659MOL0     C86922   4.773  11.140   5.511  0.1597 -0.0336 -0.4767
  659MOL0     H86923   4.397  10.870   5.307 -0.3548  0.5926  0.1186
  659MOL0     H86924   4.154  10.847   5.251 -1.1354  1.0207 -0.8805
  659MOL0     H86925   3.906  10.783   5.595 -0.6939 -1.2748  0.4262
  659MOL0     H86926   3.846  10.697   5.452  1.2007 -0.0139 -0.2670
  659MOL0     H86927   3.736  10.993   5.506 -3.8788  0.8930 -1.1510
  659MOL0     H86928   3.691  10.858   5.611  0.4025 -1.4971 -0.2132
  659MOL0     H86929   3.602  10.739   5.454  1.2895  0.7470  2.6017
  659MOL0     H86930   3.671  10.829   5.320 -1.8103  0.9236 -1.5766
  659MOL0     H86931   3.470  10.968   5.514  0.2253 -0.9546  0.3334
  659MOL0     H86932   3.514  11.030   5.370  2.2950  0.1282  3.1637
  659MOL0     H86933   3.291  10.922   5.353  1.0647  0.2959 -0.7164
  659MOL0     H86934   3.362  10.766   5.417  1.0585 -1.3239 -1.3937
  659MOL0     H86935   3.288  10.765   5.198  0.0323  0.4955  2.3154
  659MOL0     H86936   3.465  10.747   5.201  0.4554 -0.4366 -0.6405
  659MOL0     H86937   3.314  11.014   5.128  0.6913  2.3195 -4.1474
  659MOL0     H86938   3.489  10.984   5.116  1.1892 -1.5623  0.9023
  659MOL0     H86939   3.482  10.830   4.963 -1.8328 -3.2998 -0.4423
  659MOL0     H86940   3.393  10.976   4.901 -0.8140  1.5001  2.7488
  659MOL0     H86941   3.137  10.976   4.887  0.6171  0.4407 -1.9602
  659MOL0     H86942   2.906  10.693   4.748 -3.6282 -0.5551  2.9134
  659MOL0     H86943   2.914  10.864   4.725  0.3987  1.4243  1.3513
  659MOL0     H86944   2.860  10.738   4.996 -0.0457  0.4546 -0.2799
  659MOL0     H86945   2.739  10.780   4.878 -0.9249  0.2948  0.7146
  659MOL0     H86946   2.911  10.995   5.007  0.6130  1.0088 -1.5481
  659MOL0     H86947   2.811  11.020   4.869  0.5049  2.3509  1.6451
  659MOL0     H86948   2.619  10.929   4.990 -0.1812 -2.0742 -0.2341
  659MOL0     H86949   2.685  11.075   5.069  3.6736 -0.7195  3.0357
  659MOL0     H86950   2.450  11.019   5.123 -1.2986 -2.9369 -2.5685
  659MOL0     H86951   2.253  10.974   5.268  0.1023 -0.0434  0.7619
  659MOL0     H86952   2.048  10.595   5.495 -0.4425 -0.0363 -0.5346
  659MOL0     H86953   1.834  10.548   5.606 -0.6430  1.0047 -1.1587
  659MOL0     H86954   1.627  10.893   5.797 -0.4530  0.2151  0.9797
  659MOL0     H86955   1.504  10.765   5.826  0.2271 -0.0516  0.2700
  659MOL0     H86956   1.440  10.804   5.583  2.3617  0.1141 -0.4736
  659MOL0     H86957   1.515  10.958   5.604  1.2193 -1.3149 -0.8377
  659MOL0     H86958   1.367  11.003   5.794 -2.8283  1.8094 -2.3679
  659MOL0     H86959   1.294  10.839   5.804  0.1135 -0.9484 -0.2681
  659MOL0     H86960   1.279  11.050   5.575  1.2358 -0.5351  0.3315
  659MOL0     H86961   1.217  10.885   5.573  0.1356 -0.3889  1.5795
  659MOL0     H86962   1.070  11.093   5.631  0.9906 -0.7133 -0.6516
  659MOL0     H86963   1.149  11.109   5.781 -0.4300  3.4833 -3.3807
  659MOL0     H86964   1.053  10.911   5.880 -0.1701 -1.4401 -0.4241
  659MOL0     H86965   1.031  10.833   5.729  1.6574  0.9224 -1.6518
  659MOL0     H86966   0.843  10.992   5.868  1.0587  1.6101 -0.2833
  659MOL0     H86967   0.881  11.085   5.725  0.6773  0.4450  0.7312
  659MOL0     H86968   0.827  10.869   5.586 -0.0793  1.5595 -1.0598
  659MOL0     H86969   0.698  10.951   5.677 -1.0981 -0.6497  3.2380
  659MOL0     H86970   1.739  10.961   5.624  0.9500  2.0283 -2.2024
  659MOL0     H86971   1.943  11.021   5.519  0.1442  0.8695  0.1891
  659MOL0     H86972   2.503  10.735   5.520  1.1468 -2.0237 -2.0520
  659MOL0     H86973   2.701  10.778   5.368 -0.2702 -1.7847 -2.8696
  659MOL0     H86974   4.055  10.928   5.660  0.7862 -1.3873  1.6624
  659MOL0     H86975   4.290  10.954   5.711  1.0929 -1.4730 -0.0540
  659MOL0     H86976   4.717  10.819   5.600  0.3780 -0.0446 -3.2580
  659MOL0     H86977   4.945  10.822   5.668  0.7347 -0.4963 -1.3343
  659MOL0     H86978   5.194  10.856   5.614  2.2230  0.5509 -1.0636
  659MOL0     H86979   5.141  10.898   5.772 -1.2497  0.0151  0.4718
  659MOL0     H86980   5.359  11.029   5.600  1.8379 -3.1802 -0.7004
  659MOL0     H86981   5.328  11.078   5.769  0.1623  0.1534 -0.0886
  659MOL0     H86982   5.418  10.792   5.676 -1.1777  0.1822 -0.3869
  659MOL0     H86983   5.416  10.850   5.844 -0.1470 -1.9876 -1.2265
  659MOL0     H86984   5.613  10.972   5.662  2.0141 -1.4242  0.0827
  659MOL0     H86985   5.608  10.980   5.840  2.4285 -2.1124  1.4274
  659MOL0     H86986   5.755  10.603   5.667  1.8061  1.8696 -0.2614
  659MOL0     H86987   4.967  11.236   5.547 -2.7116  0.8934 -1.1846
  659MOL0     H86988   4.718  11.229   5.481 -0.7546  1.0793  3.8239
  660MOL0     O86989   7.165   6.159   9.307  0.2630 -0.5863 -0.4506
  660MOL0     C86990   7.125   6.242   9.222 -0.2563 -0.1201  0.2048
  660MOL0     O86991   6.996   6.248   9.170 -0.0617  0.3314 -1.2648
  660MOL0     C86992   6.890   6.181   9.227  0.5773  0.5984  0.4487
  660MOL0     C86993   6.793   6.114   9.151 -0.1681 -0.1677 -0.3223
  660MOL0     C86994   6.685   6.045   9.216 -0.8914 -0.1258  0.4791
  660MOL0     C86995   6.674   6.049   9.355 -0.6233  0.3399 -0.0710
  660MOL0     O86996   6.568   5.966   9.395 -0.4932  0.0125  0.3126
  660MOL0     C86997   6.580   5.908   9.525 -0.7513  0.2942  0.3882
  660MOL0     C86998   6.488   5.972   9.630 -0.4222 -0.0454 -1.0162
  660MOL0     C86999   6.336   5.965   9.593  0.4385 -0.2070 -0.5685
  660MOL0     C87000   6.252   6.067   9.669  0.0213  0.2508 -0.0137
  660MOL0     C87001   6.099   6.030   9.695 -0.9980 -0.0123  0.2825
  660MOL0     C87002   6.019   6.042   9.557 -0.2445 -0.7609 -0.3426
  660MOL0     C87003   5.867   6.033   9.567 -0.2783  0.1967 -0.0026
  660MOL0     C87004   5.792   6.064   9.432 -1.3194 -0.5063 -0.5976
  660MOL0     N87005   5.646   6.065   9.435  0.4105 -0.0777 -0.3851
  660MOL0     C87006   5.562   6.177   9.456 -0.4570  0.0632 -0.6937
  660MOL0     C87007   5.441   6.125   9.452 -0.1617  0.0618 -0.1098
  660MOL0     C87008   5.317   6.204   9.486  0.3020  0.0999  0.2585
  660MOL0     C87009   5.186   6.125   9.480 -0.6975  0.5040 -0.0749
  660MOL0     C87010   5.157   6.063   9.350 -0.4468 -0.0326  0.1774
  660MOL0     C87011   5.020   6.008   9.351  0.0918  0.3895 -0.2100
  660MOL0     O87012   4.980   5.976   9.214 -0.1940  0.1251 -0.1645
  660MOL0     C87013   4.859   5.916   9.188 -0.0524  0.6031  0.5560
  660MOL0     C87014   4.798   5.838   9.283  0.9564 -0.3811  0.0154
  660MOL0     C87015   4.661   5.801   9.264  0.5281  0.2071 -0.4226
  660MOL0     C87016   4.601   5.822   9.135  0.6196  0.5056  0.8896
  660MOL0     C87017   4.460   5.766   9.106 -0.2340 -0.0673 -0.0958
  660MOL0     O87018   4.411   5.687   9.200  0.5705  0.2361 -0.4192
  660MOL0     C87019   4.283   5.652   9.185 -0.5527  1.0571 -0.7660
  660MOL0     C87020   4.255   5.519   9.223  0.2176 -0.1209 -0.6827
  660MOL0     C87021   4.128   5.472   9.212  0.9120  0.2507 -0.2574
  660MOL0     C87022   4.025   5.551   9.158 -0.8992  0.1165  0.4994
  660MOL0     O87023   3.894   5.528   9.158  0.4202 -0.2956 -0.5646
  660MOL0     C87024   3.842   5.404   9.194 -0.1910 -0.5435 -0.0829
  660MOL0     C87025   3.687   5.427   9.231 -0.6242 -0.3504 -0.9522
  660MOL0     C87026   3.627   5.310   9.313 -0.5460  0.3634 -0.1994
  660MOL0     C87027   3.475   5.337   9.316 -0.0106 -1.1013  0.5785
  660MOL0     C87028   3.393   5.213   9.344  0.2794 -0.1323 -0.2298
  660MOL0     C87029   3.441   5.136   9.468  0.4425 -0.0270  0.0540
  660MOL0     C87030   3.339   5.038   9.517  0.3961 -0.5800 -0.1783
  660MOL0     C87031   3.396   4.962   9.638  0.0932  0.3895 -0.1496
  660MOL0    Cl87032   3.265   4.864   9.705  0.2922 -0.1446 -0.0436
  660MOL0     C87033   4.058   5.688   9.119  0.7279  0.8592  0.2225
  660MOL0     C87034   4.187   5.733   9.137 -0.4040 -0.5676 -0.2784
  660MOL0     O87035   4.413   5.780   8.994  0.2706  0.7262  0.3182
  660MOL0     C87036   4.682   5.880   9.031 -0.2513 -0.1147 -0.2623
  660MOL0     C87037   4.804   5.930   9.064 -0.3769  0.0847  0.8566
  660MOL0     N87038   5.448   5.985   9.417 -0.9135 -0.4914 -0.3452
  660MOL0     N87039   5.568   5.957   9.402  0.1446  0.2735 -0.6377
  660MOL0     C87040   6.757   6.121   9.439 -0.0326  0.3636  0.2675
  660MOL0     C87041   6.877   6.181   9.374  0.3118  1.1777  0.0326
  660MOL0     C87042   7.226   6.346   9.183 -0.2998 -0.2506 -0.1777
  660MOL0     C87043   7.357   6.345   9.223 -0.0268 -0.2183  0.3736
  660MOL0     C87044   7.449   6.438   9.181  0.6922  0.3223  0.0686
  660MOL0     C87045   7.409   6.529   9.091  0.7440 -0.5313 -0.1230
  660MOL0     O87046   7.487   6.624   9.030  0.2751  0.3684 -0.0812
  660MOL0     C87047   7.628   6.613   9.049  0.6852  0.8878  0.5499
  660MOL0     C87048   7.679   6.514   8.932  0.0094 -0.2197 -0.6649
  660MOL0     C87049   7.826   6.493   8.954 -0.2560 -0.4269  0.6613
  660MOL0     C87050   7.907   6.616   8.922  0.1124  0.1168 -0.3094
  660MOL0     C87051   8.050   6.579   8.907  1.0838 -0.0958  1.0354
  660MOL0     C87052   8.165   6.568   8.875  0.5372  0.7338 -0.1019
  660MOL0     C87053   7.280   6.524   9.033  0.2379  0.2636  0.4268
  660MOL0     C87054   7.185   6.429   9.079  0.6114 -1.3283  0.1905
  660MOL0     H87055   6.812   6.103   9.045  0.7524 -2.9341  0.0347
  660MOL0     H87056   6.617   5.985   9.156 -0.9679 -3.4162  3.5035
  660MOL0     H87057   6.685   5.911   9.558 -0.4624 -0.4807 -0.4258
  660MOL0     H87058   6.543   5.805   9.516 -0.7517  0.4051 -1.0931
  660MOL0     H87059   6.519   6.076   9.641  1.6953 -0.7238 -0.0809
  660MOL0     H87060   6.510   5.932   9.729  2.6108  0.7993 -1.2665
  660MOL0     H87061   6.290   5.872   9.627 -0.9106  1.7674  3.6597
  660MOL0     H87062   6.320   5.977   9.485 -0.0285 -0.6042 -0.5496
  660MOL0     H87063   6.295   6.086   9.768 -0.5421  0.8107  0.1245
  660MOL0     H87064   6.251   6.158   9.610 -1.5304  2.1490  2.7166
  660MOL0     H87065   6.051   6.102   9.762 -2.0095  0.1671 -0.6111
  660MOL0     H87066   6.080   5.925   9.719 -0.4808 -0.6494 -1.8262
  660MOL0     H87067   6.033   5.958   9.489 -1.4046  0.2574 -1.9026
  660MOL0     H87068   6.049   6.133   9.504 -0.9437 -1.2074 -1.5328
  660MOL0     H87069   5.833   5.935   9.601 -0.7253  0.7761  1.2834
  660MOL0     H87070   5.826   6.110   9.634 -3.4629 -0.8518 -0.5732
  660MOL0     H87071   5.810   5.990   9.353 -3.3207 -0.1668 -1.4296
  660MOL0     H87072   5.817   6.169   9.412  1.0610 -0.6494  1.1908
  660MOL0     H87073   5.589   6.281   9.466 -1.5764  0.2543  0.5519
  660MOL0     H87074   5.302   6.283   9.412  0.5845  1.4481  1.5794
  660MOL0     H87075   5.325   6.249   9.586 -0.9502 -0.3956  0.5964
  660MOL0     H87076   5.113   6.202   9.506  0.6162  1.5838  0.4853
  660MOL0     H87077   5.181   6.059   9.567  0.6934  2.8501  1.9227
  660MOL0     H87078   5.172   6.137   9.271  0.3933  0.2134  0.5479
  660MOL0     H87079   5.226   5.982   9.325  0.6897  0.4189  1.6807
  660MOL0     H87080   4.955   6.087   9.391  1.4023  0.3220  2.2576
  660MOL0     H87081   5.013   5.922   9.418 -1.4878  2.2021  2.1215
  660MOL0     H87082   4.853   5.821   9.375  3.4121  3.0023 -0.6420
  660MOL0     H87083   4.607   5.773   9.354  2.4773  1.8987  1.3654
  660MOL0     H87084   4.335   5.449   9.245  2.0254  1.6752 -1.2218
  660MOL0     H87085   4.099   5.369   9.227  1.1699 -0.2824 -2.9084
  660MOL0     H87086   3.892   5.374   9.287  0.6060 -0.2647 -0.4118
  660MOL0     H87087   3.849   5.342   9.105 -1.4521  1.3698 -1.6101
  660MOL0     H87088   3.638   5.431   9.133 -2.1026 -2.3162 -0.3599
  660MOL0     H87089   3.676   5.515   9.294  2.0466 -0.7172  0.1903
  660MOL0     H87090   3.676   5.305   9.411  1.9522 -1.9182 -1.4010
  660MOL0     H87091   3.647   5.215   9.262 -0.7520  0.4063 -0.3586
  660MOL0     H87092   3.446   5.403   9.398  1.1552 -0.1766  0.2658
  660MOL0     H87093   3.445   5.386   9.223  0.8489 -0.0360  0.8483
  660MOL0     H87094   3.393   5.140   9.262 -1.0535  1.7038 -1.9407
  660MOL0     H87095   3.288   5.241   9.353  0.4542  0.6412 -0.5392
  660MOL0     H87096   3.471   5.209   9.544  0.6445  0.5938 -0.6096
  660MOL0     H87097   3.522   5.071   9.435 -0.1334 -0.8679  0.2776
  660MOL0     H87098   3.255   5.093   9.560  1.4857  0.9670  0.0979
  660MOL0     H87099   3.298   4.985   9.431  1.3997  1.9862 -2.3989
  660MOL0     H87100   3.430   5.031   9.716  1.8548 -2.5303  1.8615
  660MOL0     H87101   3.485   4.906   9.608 -1.4466 -2.4502  0.2550
  660MOL0     H87102   3.975   5.752   9.092 -0.4865 -0.7528  0.0317
  660MOL0     H87103   4.221   5.835   9.121  2.8598 -1.3870  0.6229
  660MOL0     H87104   4.645   5.897   8.931 -0.2436 -2.9597 -0.8273
  660MOL0     H87105   4.866   5.986   8.996  0.2423 -0.8337  0.6406
  660MOL0     H87106   6.741   6.118   9.546  1.8046  0.6643  0.5803
  660MOL0     H87107   6.960   6.222   9.430 -0.3149  2.3306  0.1382
  660MOL0     H87108   7.393   6.266   9.288 -0.4765 -0.7960 -0.0741
  660MOL0     H87109   7.550   6.434   9.220  0.6374  0.0028  0.1788
  660MOL0     H87110   7.673   6.583   9.145  0.5391  1.5524  0.8301
  660MOL0     H87111   7.659   6.718   9.042  1.5576  0.5082 -1.7983
  660MOL0     H87112   7.624   6.421   8.951 -0.6947  0.5708  1.4625
  660MOL0     H87113   7.650   6.573   8.845 -2.1619  0.2279  0.2719
  660MOL0     H87114   7.862   6.417   8.883 -1.1048 -1.4378  1.2766
  660MOL0     H87115   7.850   6.464   9.056  1.2720  0.6154  0.6229
  660MOL0     H87116   7.864   6.669   8.836  0.8223 -0.6019 -1.1291
  660MOL0     H87117   7.900   6.693   9.000 -0.6379 -0.5611  0.3128
  660MOL0     H87118   8.270   6.557   8.863  0.8397  0.2128  2.4010
  660MOL0     H87119   7.257   6.598   8.956 -0.5056 -1.1357 -0.7466
  660MOL0     H87120   7.083   6.436   9.042  0.3782  1.5661  1.1139
  661MOL0     O87121  11.237   6.148   3.201 -0.6673 -0.2181  0.7605
  661MOL0     C87122  11.297   6.236   3.138 -0.4951 -0.1697 -0.4820
  661MOL0     O87123  11.246   6.350   3.076  0.2983 -0.0542  0.2635
  661MOL0     C87124  11.110   6.355   3.068  0.3023 -0.5376 -0.6744
  661MOL0     C87125  11.049   6.312   2.954  0.2994  0.2135 -0.5567
  661MOL0     C87126  10.913   6.329   2.936 -0.5655  0.1193  0.9849
  661MOL0     C87127  10.831   6.387   3.030  0.2120 -0.7135 -0.4302
  661MOL0     O87128  10.697   6.402   3.033  0.0287 -0.2179  0.8417
  661MOL0     C87129  10.612   6.343   2.926  0.3961  0.4851 -0.3077
  661MOL0     C87130  10.476   6.408   2.933 -0.4469 -0.2663  0.1338
  661MOL0     C87131  10.379   6.374   2.817 -0.4334 -0.4903  0.7594
  661MOL0     C87132  10.240   6.430   2.834 -0.2167  0.2597 -1.0023
  661MOL0     C87133  10.161   6.371   2.718 -0.0980 -0.7129 -0.2461
  661MOL0     C87134  10.034   6.455   2.695  0.3062  0.0676  0.0554
  661MOL0     C87135   9.946   6.394   2.588 -0.2736  0.5222 -0.4589
  661MOL0     C87136   9.809   6.452   2.609 -0.8385 -0.1624  0.6643
  661MOL0     N87137   9.751   6.409   2.734  0.1683 -0.1402 -0.3183
  661MOL0     C87138   9.726   6.279   2.762  0.1472 -0.1216  0.7249
  661MOL0     C87139   9.628   6.277   2.854  0.1864 -0.7788  0.4213
  661MOL0     C87140   9.556   6.156   2.910 -0.0544  0.5507 -0.0381
  661MOL0     C87141   9.401   6.156   2.890 -0.0156 -0.2075 -1.0106
  661MOL0     C87142   9.367   6.156   2.742 -0.2682  0.0515  0.4459
  661MOL0     C87143   9.217   6.132   2.710 -0.7317  0.2891 -1.1211
  661MOL0     O87144   9.155   6.036   2.797  0.2636  0.1428 -0.8527
  661MOL0     C87145   9.016   6.044   2.781 -0.2887 -0.3740  0.3442
  661MOL0     C87146   8.941   6.147   2.837 -0.6630  0.2012  0.1427
  661MOL0     C87147   8.805   6.141   2.840  0.3841 -0.2019 -0.6562
  661MOL0     C87148   8.742   6.042   2.754  0.2924  0.2171  0.4913
  661MOL0     C87149   8.592   6.047   2.749 -0.6832 -0.3757  0.2041
  661MOL0     O87150   8.529   5.934   2.688 -0.8216 -0.2657 -0.8277
  661MOL0     C87151   8.393   5.929   2.677 -1.0353 -0.4603  0.3847
  661MOL0     C87152   8.339   5.839   2.584 -0.4387 -0.4428 -0.0222
  661MOL0     C87153   8.200   5.825   2.565 -0.3950 -0.2894 -0.2223
  661MOL0     C87154   8.111   5.906   2.640  0.1263  0.4667  0.9824
  661MOL0     O87155   7.972   5.894   2.637 -0.3245 -0.9157  0.1417
  661MOL0     C87156   7.902   5.825   2.540  0.4665  0.6674 -0.0009
  661MOL0     C87157   7.749   5.855   2.544  0.3007  0.0088 -0.6847
  661MOL0     C87158   7.719   6.005   2.525 -0.1207  0.1006  0.4505
  661MOL0     C87159   7.574   6.039   2.548 -0.4317  0.4882  0.0809
  661MOL0     C87160   7.547   6.193   2.563  0.8575 -0.2594 -0.2384
  661MOL0     C87161   7.396   6.234   2.592  0.5129 -0.4382  0.1159
  661MOL0     C87162   7.331   6.259   2.455 -0.2899  0.1159 -0.0308
  661MOL0     C87163   7.183   6.256   2.468  0.2252  0.1016 -0.1988
  661MOL0    Cl87164   7.131   6.358   2.604  0.1320 -0.0290  0.0059
  661MOL0     C87165   8.157   5.995   2.728  0.0958 -1.0264  0.1394
  661MOL0     C87166   8.298   6.004   2.748  0.5089 -1.7036  0.5760
  661MOL0     O87167   8.542   6.141   2.807  0.2691 -0.2583  0.0190
  661MOL0     C87168   8.814   5.945   2.686  0.4263  0.2141  0.0207
  661MOL0     C87169   8.947   5.942   2.704 -0.8123 -0.6560  0.0354
  661MOL0     N87170   9.600   6.412   2.882 -0.4354 -0.6037 -0.1700
  661MOL0     N87171   9.681   6.491   2.816 -0.2846 -0.6226 -0.4198
  661MOL0     C87172  10.893   6.445   3.140 -0.3560 -0.6936  0.1817
  661MOL0     C87173  11.032   6.426   3.162  0.0748  0.1996 -0.6925
  661MOL0     C87174  11.442   6.212   3.120 -0.2029 -0.3250  0.8746
  661MOL0     C87175  11.519   6.286   3.030 -0.4253  0.1966  0.1359
  661MOL0     C87176  11.657   6.255   3.014 -0.2728 -0.2703 -0.1530
  661MOL0     C87177  11.717   6.159   3.100  0.0865  0.1898 -0.4902
  661MOL0     O87178  11.851   6.148   3.113 -0.1259  0.5935 -0.3391
  661MOL0     C87179  11.928   6.231   3.029  0.1431 -1.0524 -0.1900
  661MOL0     C87180  12.079   6.217   3.055  0.3794 -0.6238 -0.2280
  661MOL0     C87181  12.115   6.266   3.198 -0.0024  0.2135  0.2028
  661MOL0     C87182  12.141   6.420   3.215  0.9915  0.5691  0.6852
  661MOL0     C87183  12.187   6.468   3.344 -0.7848  0.2622 -0.6461
  661MOL0     C87184  12.208   6.522   3.448  0.0516  0.3481 -0.2590
  661MOL0     C87185  11.635   6.090   3.185 -0.3601  0.5381 -0.6680
  661MOL0     C87186  11.505   6.120   3.198  0.0581  0.6398  0.2259
  661MOL0     H87187  11.106   6.259   2.879  0.5219 -1.8174  0.9633
  661MOL0     H87188  10.865   6.289   2.847  1.5765  2.7047 -1.4920
  661MOL0     H87189  10.608   6.234   2.923  1.1978  0.4477 -0.3371
  661MOL0     H87190  10.650   6.382   2.831  1.4088  3.6673  1.2624
  661MOL0     H87191  10.490   6.516   2.931  1.9858 -0.5401 -2.1791
  661MOL0     H87192  10.422   6.394   3.028 -0.0073  3.8374  1.1842
  661MOL0     H87193  10.371   6.265   2.805 -0.4531 -0.2855 -1.4195
  661MOL0     H87194  10.425   6.418   2.728 -1.4196  0.0079  0.4872
  661MOL0     H87195  10.200   6.400   2.932  2.2653 -2.0843 -0.5938
  661MOL0     H87196  10.252   6.539   2.829 -3.3185  0.8710  1.4511
  661MOL0     H87197  10.136   6.268   2.742  2.1607 -1.0251  1.0439
  661MOL0     H87198  10.221   6.356   2.627  1.1379  1.5948  0.1153
  661MOL0     H87199  10.064   6.558   2.674  0.6882 -0.2840 -1.1940
  661MOL0     H87200   9.983   6.457   2.792 -1.1149  1.5726 -0.6615
  661MOL0     H87201   9.985   6.422   2.490  0.0492 -0.5469 -0.6528
  661MOL0     H87202   9.932   6.285   2.596 -1.6751  0.6036 -1.4960
  661MOL0     H87203   9.754   6.425   2.518 -0.1376 -1.1855  0.5203
  661MOL0     H87204   9.806   6.561   2.619  2.4362 -0.0754  1.7757
  661MOL0     H87205   9.767   6.190   2.715 -2.5802 -1.7943  1.2241
  661MOL0     H87206   9.566   6.154   3.019  1.4489 -0.5445 -0.1659
  661MOL0     H87207   9.598   6.062   2.874 -2.6287 -0.0796 -1.6870
  661MOL0     H87208   9.371   6.245   2.946  0.1272  0.4080 -1.8819
  661MOL0     H87209   9.347   6.076   2.940  1.5321 -0.2619  0.7105
  661MOL0     H87210   9.395   6.251   2.694 -0.9308  0.0355  0.0102
  661MOL0     H87211   9.417   6.068   2.701  0.4460  0.3418  0.6707
  661MOL0     H87212   9.212   6.110   2.603  2.0918  1.0957 -1.4953
  661MOL0     H87213   9.167   6.226   2.737 -0.4825 -0.1224  0.9127
  661MOL0     H87214   8.996   6.217   2.900  0.0074  0.1419 -0.3669
  661MOL0     H87215   8.748   6.213   2.898 -1.5406 -2.8711  0.9773
  661MOL0     H87216   8.412   5.782   2.528 -0.4091  0.1540 -0.6080
  661MOL0     H87217   8.151   5.765   2.489 -0.6380 -1.4680  0.8315
  661MOL0     H87218   7.922   5.718   2.551  0.1431  0.6216  0.1670
  661MOL0     H87219   7.928   5.867   2.442 -0.6123  0.5130 -0.3669
  661MOL0     H87220   7.712   5.831   2.644 -1.5837  2.0618 -0.8070
  661MOL0     H87221   7.695   5.791   2.474  1.2662 -1.3636 -0.2049
  661MOL0     H87222   7.745   6.033   2.422  0.5732 -2.0120  0.0047
  661MOL0     H87223   7.775   6.060   2.600 -0.1292  2.6255 -1.2478
  661MOL0     H87224   7.517   5.989   2.468  0.1139  0.3615 -0.2333
  661MOL0     H87225   7.542   6.004   2.647  0.0120  5.7758  2.4398
  661MOL0     H87226   7.585   6.252   2.480 -2.0791  2.7819  0.3687
  661MOL0     H87227   7.589   6.217   2.661 -2.7504 -0.9785  1.6421
  661MOL0     H87228   7.383   6.320   2.657  3.9549  1.2398 -1.1513
  661MOL0     H87229   7.338   6.152   2.635  0.2427  1.5240  3.8224
  661MOL0     H87230   7.362   6.359   2.421  1.1631 -0.2699  0.1305
  661MOL0     H87231   7.363   6.181   2.386  1.5410 -0.1479  1.0596
  661MOL0     H87232   7.140   6.156   2.477  0.4002 -0.0927 -1.4167
  661MOL0     H87233   7.146   6.306   2.378  1.0681  1.2429  0.0540
  661MOL0     H87234   8.087   6.060   2.780  1.6101  2.2265 -1.6162
  661MOL0     H87235   8.328   6.068   2.831 -0.5408  1.7113 -1.4964
  661MOL0     H87236   8.765   5.864   2.633  0.9908  0.0951 -0.3283
  661MOL0     H87237   8.998   5.857   2.661 -0.0777 -0.9715  1.4666
  661MOL0     H87238  10.834   6.504   3.208  0.0002  0.8191 -0.7698
  661MOL0     H87239  11.087   6.453   3.251 -0.5521  1.7062 -0.7397
  661MOL0     H87240  11.467   6.354   2.963  0.1717  1.9422  1.3833
  661MOL0     H87241  11.700   6.308   2.929  0.2596  2.9341  1.9225
  661MOL0     H87242  11.913   6.339   3.038 -1.7535 -1.0438 -2.5625
  661MOL0     H87243  11.915   6.196   2.926  1.2128 -4.5002  0.7143
  661MOL0     H87244  12.113   6.114   3.039  2.7599  0.3680 -2.3812
  661MOL0     H87245  12.128   6.276   2.976  0.3174 -2.6235 -1.8450
  661MOL0     H87246  12.207   6.208   3.205  0.5981  0.4467 -3.5534
  661MOL0     H87247  12.044   6.226   3.270 -3.2816  1.5303 -2.0242
  661MOL0     H87248  12.218   6.447   3.142  1.8966 -1.7437  0.7031
  661MOL0     H87249  12.047   6.471   3.191  1.8180  1.3865 -0.9425
  661MOL0     H87250  12.224   6.588   3.531 -2.3611  3.3147 -1.9748
  661MOL0     H87251  11.676   6.022   3.259 -0.0603  0.1299 -1.2000
  661MOL0     H87252  11.444   6.061   3.265 -0.4965  2.3848  1.3135
  662MOL0     O87253   9.547   6.512   8.744 -0.0007 -0.0460  0.0357
  662MOL0     C87254   9.576   6.598   8.659 -0.3265  0.2725  0.7717
  662MOL0     O87255   9.502   6.703   8.619  0.3677 -0.8462 -0.4384
  662MOL0     C87256   9.369   6.700   8.657  0.0917 -0.1576 -0.2874
  662MOL0     C87257   9.267   6.666   8.562 -0.6748  0.1112  0.3280
  662MOL0     C87258   9.130   6.679   8.591 -0.8479  0.3021 -0.0050
  662MOL0     C87259   9.091   6.713   8.722 -0.9514 -0.3432  0.5893
  662MOL0     O87260   8.958   6.710   8.764 -0.1910  0.7575 -0.6086
  662MOL0     C87261   8.855   6.708   8.669  0.1038 -0.1761  0.8441
  662MOL0     C87262   8.730   6.739   8.740 -0.1295 -0.1361  0.3381
  662MOL0     C87263   8.609   6.747   8.642  0.1337 -0.3178  0.2910
  662MOL0     C87264   8.484   6.793   8.716 -0.5194  0.2170  0.1956
  662MOL0     C87265   8.369   6.801   8.621  0.2470 -0.0272  0.4146
  662MOL0     C87266   8.245   6.869   8.677  0.4970  0.0589  0.4755
  662MOL0     C87267   8.124   6.875   8.589 -0.3029  0.0110 -0.7896
  662MOL0     C87268   8.013   6.953   8.651 -1.0818 -0.4661 -0.7600
  662MOL0     N87269   7.886   6.954   8.585  0.6732 -0.6441  0.1304
  662MOL0     C87270   7.868   6.968   8.442 -0.8540 -1.0729  0.2855
  662MOL0     C87271   7.741   6.940   8.415 -0.0414  0.4074 -0.4986
  662MOL0     C87272   7.669   6.972   8.288 -0.4804 -0.4856  0.8278
  662MOL0     C87273   7.587   6.852   8.248  0.7085  0.0065  0.4667
  662MOL0     C87274   7.513   6.875   8.111 -0.2627  0.1686 -1.0029
  662MOL0     C87275   7.392   6.968   8.117  0.2922  0.4073  0.0159
  662MOL0     O87276   7.295   6.908   8.201 -0.4299  0.3336 -0.0582
  662MOL0     C87277   7.162   6.934   8.207  0.3082 -0.0738  0.5868
  662MOL0     C87278   7.092   7.025   8.134 -0.4590  0.6404  1.0991
  662MOL0     C87279   6.955   7.045   8.154 -0.0961  0.3598 -0.1629
  662MOL0     C87280   6.889   6.975   8.268 -0.7476 -0.1184 -0.9216
  662MOL0     C87281   6.752   6.983   8.305  0.6511  0.0695  0.2420
  662MOL0     O87282   6.704   6.926   8.417  0.2008  0.6771 -0.5067
  662MOL0     C87283   6.580   6.952   8.458  0.6711 -0.9072 -0.4302
  662MOL0     C87284   6.511   6.846   8.511  0.1721 -0.7034  0.6095
  662MOL0     C87285   6.378   6.868   8.559  0.7224 -0.2773  0.1316
  662MOL0     C87286   6.319   6.988   8.537  0.1871 -0.0973  0.4465
  662MOL0     O87287   6.183   6.994   8.571 -0.2202  0.2132  0.5464
  662MOL0     C87288   6.096   7.086   8.510 -0.1707 -0.6043 -0.7462
  662MOL0     C87289   6.105   7.211   8.606  1.0003 -0.5178 -0.2485
  662MOL0     C87290   6.007   7.212   8.723 -0.4029 -0.2652  0.0368
  662MOL0     C87291   5.864   7.215   8.676 -0.7364 -0.4066 -0.1926
  662MOL0     C87292   5.767   7.207   8.791  0.7077 -0.4907 -0.3040
  662MOL0     C87293   5.617   7.175   8.754 -0.2868  0.5886  0.0372
  662MOL0     C87294   5.538   7.296   8.691  1.6498 -1.0447 -0.7054
  662MOL0     C87295   5.399   7.256   8.644 -0.4030 -0.2112 -0.6269
  662MOL0    Cl87296   5.264   7.204   8.757 -0.3009  0.1437 -0.0285
  662MOL0     C87297   6.390   7.099   8.483 -0.2814  0.3050 -0.5287
  662MOL0     C87298   6.522   7.087   8.455 -0.1384  0.3309 -0.0567
  662MOL0     O87299   6.689   7.025   8.210  0.7029 -0.1655  0.0203
  662MOL0     C87300   6.976   6.889   8.350  0.0442 -0.7335 -0.2326
  662MOL0     C87301   7.108   6.870   8.314 -0.3282  0.5735 -0.2387
  662MOL0     N87302   7.684   6.888   8.529 -0.8465 -0.0821  0.5122
  662MOL0     N87303   7.770   6.906   8.635  0.7950  0.6705  0.7120
  662MOL0     C87304   9.195   6.740   8.819 -0.0507  0.2471 -0.2708
  662MOL0     C87305   9.329   6.738   8.783  0.3717 -0.7313 -0.2148
  662MOL0     C87306   9.712   6.599   8.589 -0.5618  0.6330  0.0802
  662MOL0     C87307   9.819   6.527   8.642 -1.2332 -0.3360  0.6899
  662MOL0     C87308   9.945   6.542   8.585  0.6898  0.3457 -1.1228
  662MOL0     C87309   9.961   6.614   8.470 -0.4259  0.1609 -1.3493
  662MOL0     O87310  10.080   6.630   8.406 -0.3344 -0.3131  0.2040
  662MOL0     C87311  10.208   6.602   8.471 -0.9612 -0.6064 -0.3933
  662MOL0     C87312  10.318   6.617   8.368 -0.4545  0.0769 -0.4935
  662MOL0     C87313  10.454   6.627   8.435  0.4624  0.1018 -0.3953
  662MOL0     C87314  10.549   6.664   8.318  0.1581  1.2388  0.1529
  662MOL0     C87315  10.683   6.668   8.369 -0.8488  0.3185 -0.7731
  662MOL0     C87316  10.797   6.685   8.404 -1.0323 -0.4665  0.2440
  662MOL0     C87317   9.847   6.680   8.416 -0.3019 -0.6800 -0.2218
  662MOL0     C87318   9.726   6.679   8.477  0.3132 -0.2765 -0.6843
  662MOL0     H87319   9.297   6.633   8.463 -0.3152  4.0865 -1.0771
  662MOL0     H87320   9.057   6.660   8.513  1.0594 -0.1490 -1.7800
  662MOL0     H87321   8.849   6.611   8.618  1.0924 -0.1586  0.6784
  662MOL0     H87322   8.891   6.785   8.599  1.5539 -0.4533  1.2584
  662MOL0     H87323   8.739   6.840   8.780  0.3791 -0.4798  1.1139
  662MOL0     H87324   8.708   6.674   8.825  1.3925 -0.9513  0.1315
  662MOL0     H87325   8.595   6.646   8.601 -1.1191  0.0709 -0.2999
  662MOL0     H87326   8.632   6.826   8.570 -3.9997  0.3950 -0.5247
  662MOL0     H87327   8.467   6.718   8.794  2.6721 -0.1576  0.6703
  662MOL0     H87328   8.498   6.888   8.770 -1.0936 -1.3369  3.2789
  662MOL0     H87329   8.346   6.700   8.586 -2.2819  0.3340  0.8489
  662MOL0     H87330   8.409   6.854   8.534  1.6502  1.6502  1.9906
  662MOL0     H87331   8.273   6.973   8.691  0.0206  0.3947 -0.8871
  662MOL0     H87332   8.219   6.824   8.773  0.2735 -0.9392 -0.0365
  662MOL0     H87333   8.157   6.904   8.488 -0.6478 -1.9537 -1.5222
  662MOL0     H87334   8.098   6.769   8.590  1.2932 -0.4208  1.0171
  662MOL0     H87335   8.056   7.052   8.666 -1.1272 -0.4265 -0.8907
  662MOL0     H87336   7.994   6.911   8.750  2.0910  0.0354  0.1559
  662MOL0     H87337   7.935   6.998   8.362 -0.4771 -1.2657  0.5230
  662MOL0     H87338   7.740   7.001   8.211  0.4525  4.6125  3.1928
  662MOL0     H87339   7.617   7.064   8.317 -0.1823  0.5455 -1.6635
  662MOL0     H87340   7.510   6.840   8.325  1.0001  1.7199  1.0855
  662MOL0     H87341   7.652   6.765   8.255  1.4082  0.3142 -1.6103
  662MOL0     H87342   7.584   6.925   8.044 -0.0661 -0.9961 -1.7043
  662MOL0     H87343   7.477   6.778   8.076 -1.4793  0.0639  0.4639
  662MOL0     H87344   7.339   6.986   8.023 -1.3182 -2.0041  0.3789
  662MOL0     H87345   7.420   7.067   8.154 -0.6276  1.0551 -0.9608
  662MOL0     H87346   7.142   7.083   8.058 -0.6901 -0.4184  0.0957
  662MOL0     H87347   6.906   7.121   8.094  1.3732  0.5417 -1.2005
  662MOL0     H87348   6.554   6.746   8.515  0.1164 -0.7040  1.4867
  662MOL0     H87349   6.320   6.782   8.591  1.6410 -1.5117 -1.3979
  662MOL0     H87350   5.989   7.062   8.513 -0.3181 -0.3134  4.2799
  662MOL0     H87351   6.116   7.107   8.404  1.7577 -3.2761 -1.0129
  662MOL0     H87352   6.080   7.300   8.547  0.5993 -0.1356  0.4880
  662MOL0     H87353   6.203   7.232   8.651  0.1832 -0.5168  1.6374
  662MOL0     H87354   6.017   7.294   8.793 -0.7600 -0.9662  0.9253
  662MOL0     H87355   6.027   7.127   8.788 -0.4773 -0.1626  0.1931
  662MOL0     H87356   5.848   7.305   8.617  0.4743 -0.8520 -1.2471
  662MOL0     H87357   5.845   7.128   8.611 -0.7656 -0.6358  0.1192
  662MOL0     H87358   5.756   7.307   8.832  1.0948 -1.0633  1.2501
  662MOL0     H87359   5.807   7.137   8.866  1.7801  2.1121  1.6973
  662MOL0     H87360   5.561   7.130   8.837 -2.0499 -0.2183 -1.5165
  662MOL0     H87361   5.627   7.090   8.686  3.7729  1.9111 -1.3675
  662MOL0     H87362   5.513   7.382   8.754 -3.2908 -2.2548 -0.6153
  662MOL0     H87363   5.586   7.335   8.601  2.2261 -1.4138 -0.5660
  662MOL0     H87364   5.424   7.172   8.578  1.8126 -1.9869  2.2471
  662MOL0     H87365   5.357   7.333   8.578  4.1381  0.2631 -3.4465
  662MOL0     H87366   6.339   7.195   8.477 -1.9817 -0.4520  0.8280
  662MOL0     H87367   6.559   7.179   8.411 -2.4128  2.0068  1.3091
  662MOL0     H87368   6.935   6.836   8.435 -0.0261  0.3301  0.4145
  662MOL0     H87369   7.167   6.804   8.377  3.3048  0.8583 -3.0397
  662MOL0     H87370   9.169   6.756   8.923 -1.1605  2.0270 -0.7726
  662MOL0     H87371   9.403   6.764   8.859 -0.5709  0.2688  0.3868
  662MOL0     H87372   9.788   6.457   8.719  3.2952 -1.3223  1.8854
  662MOL0     H87373  10.028   6.486   8.626 -0.7029 -1.6362 -0.8528
  662MOL0     H87374  10.208   6.502   8.516  2.4553 -0.9676 -0.9259
  662MOL0     H87375  10.242   6.671   8.550 -1.2739  1.3709 -1.9137
  662MOL0     H87376  10.318   6.520   8.318  4.2689 -1.5604  2.0554
  662MOL0     H87377  10.311   6.705   8.305 -2.5005 -0.0445 -0.5007
  662MOL0     H87378  10.475   6.536   8.491  2.1031  0.3249 -0.6035
  662MOL0     H87379  10.452   6.711   8.505 -0.9871  1.5646 -2.1079
  662MOL0     H87380  10.546   6.583   8.245  6.5440  0.3674  0.3699
  662MOL0     H87381  10.513   6.754   8.268 -2.8178 -1.4029 -2.9856
  662MOL0     H87382  10.902   6.699   8.419 -1.2063  1.3290  0.0277
  662MOL0     H87383   9.855   6.726   8.318 -6.0935 -0.5371 -0.9744
  662MOL0     H87384   9.647   6.735   8.429  0.9845  2.8422  1.5277
  663MOL0     O87385   7.123   3.966   1.864 -0.2117 -0.4292  0.3156
  663MOL0     C87386   7.130   4.083   1.828 -0.4679 -0.0183 -0.3071
  663MOL0     O87387   7.029   4.157   1.791 -0.0072  0.9609 -0.6827
  663MOL0     C87388   6.904   4.105   1.787  0.6179  0.1978  0.1719
  663MOL0     C87389   6.806   4.153   1.874  0.0796  0.4352  0.3612
  663MOL0     C87390   6.672   4.106   1.869  0.2924 -0.2211  0.9249
  663MOL0     C87391   6.645   3.995   1.790 -0.0265 -0.1315  0.1149
  663MOL0     O87392   6.528   3.932   1.777  0.0102 -0.8825  0.1738
  663MOL0     C87393   6.402   3.973   1.847 -0.7897 -0.1835 -0.2042
  663MOL0     C87394   6.290   3.903   1.788  0.8075  0.4905 -0.1666
  663MOL0     C87395   6.163   3.896   1.868  1.0206 -0.5528  0.5365
  663MOL0     C87396   6.040   3.843   1.793  0.2331 -0.6748 -1.2717
  663MOL0     C87397   5.995   3.916   1.659 -0.3587  0.2476 -0.4566
  663MOL0     C87398   5.878   3.853   1.590 -0.7596 -0.8693 -0.3781
  663MOL0     C87399   5.751   3.849   1.672 -0.5051  0.4404 -0.2652
  663MOL0     C87400   5.712   3.982   1.718 -0.3779  0.5623  0.2174
  663MOL0     N87401   5.578   3.995   1.784 -0.6094 -0.4959  0.0793
  663MOL0     C87402   5.463   4.014   1.711  0.0595  0.1808 -0.5878
  663MOL0     C87403   5.365   3.996   1.802  0.3401 -0.0871 -0.0002
  663MOL0     C87404   5.215   3.985   1.773 -0.3331 -0.2739 -0.5561
  663MOL0     C87405   5.135   4.071   1.873  0.2108 -0.4017  0.0455
  663MOL0     C87406   4.984   4.045   1.856 -0.2254  0.1641  0.3381
  663MOL0     C87407   4.939   3.901   1.891  0.7242  0.1740 -0.0867
  663MOL0     O87408   4.790   3.892   1.912 -0.3228  0.6933 -0.3994
  663MOL0     C87409   4.698   3.860   1.816  0.3564  0.3526 -0.0179
  663MOL0     C87410   4.575   3.801   1.863 -0.7984  0.7510 -0.8255
  663MOL0     C87411   4.472   3.768   1.776 -0.3040  0.0230  0.1458
  663MOL0     C87412   4.485   3.789   1.639 -1.0723  0.9399  0.6148
  663MOL0     C87413   4.376   3.752   1.548  0.2131 -0.4179  0.3858
  663MOL0     O87414   4.307   3.637   1.589  1.3568  0.5681  0.1035
  663MOL0     C87415   4.193   3.608   1.518  0.4793 -0.2371 -0.1098
  663MOL0     C87416   4.070   3.651   1.569 -1.2551 -0.1101 -0.4895
  663MOL0     C87417   3.955   3.621   1.498 -0.3861 -0.3037  0.7406
  663MOL0     C87418   3.951   3.549   1.383  0.4657 -0.0248 -0.7397
  663MOL0     O87419   3.840   3.525   1.315  0.1435 -0.7477  0.5285
  663MOL0     C87420   3.718   3.602   1.333  0.5432 -0.1180  0.2774
  663MOL0     C87421   3.640   3.548   1.454  1.1336  0.4018 -0.2461
  663MOL0     C87422   3.521   3.462   1.411  0.3274 -0.4438 -0.4696
  663MOL0     C87423   3.414   3.432   1.521  0.0095  0.5860 -0.3743
  663MOL0     C87424   3.310   3.327   1.481  0.3176  0.0049 -1.0322
  663MOL0     C87425   3.200   3.315   1.595  0.2696 -1.0007  0.3701
  663MOL0     C87426   3.133   3.183   1.592 -0.1043 -0.0198 -0.0347
  663MOL0     C87427   3.033   3.174   1.481 -0.2391 -0.8713  0.3301
  663MOL0    Cl87428   2.906   3.302   1.511  0.0506  0.0606 -0.0774
  663MOL0     C87429   4.074   3.500   1.331 -0.0163  0.0945 -0.9150
  663MOL0     C87430   4.193   3.536   1.390 -0.9215  0.0304 -1.0205
  663MOL0     O87431   4.339   3.824   1.451 -0.4186  0.6822 -0.1995
  663MOL0     C87432   4.600   3.852   1.588 -0.8949  0.4111 -0.0493
  663MOL0     C87433   4.706   3.878   1.681 -0.7083 -0.5369  0.1664
  663MOL0     N87434   5.430   3.960   1.920 -0.4201  0.0439 -1.0719
  663MOL0     N87435   5.559   3.960   1.907  0.1603 -0.2444  0.2086
  663MOL0     C87436   6.743   3.933   1.709 -0.4874  0.5503 -0.4727
  663MOL0     C87437   6.871   3.998   1.710 -0.6075  0.2987  0.4209
  663MOL0     C87438   7.268   4.137   1.817  0.4820  0.6811  0.1384
  663MOL0     C87439   7.299   4.231   1.717 -0.0636  0.3353 -0.1384
  663MOL0     C87440   7.426   4.295   1.708  0.4055  0.0221 -0.9051
  663MOL0     C87441   7.520   4.262   1.807  0.3377 -0.8619  0.4202
  663MOL0     O87442   7.641   4.328   1.797  0.2256  0.2486 -0.3176
  663MOL0     C87443   7.757   4.266   1.849  0.3031  0.7713  0.1773
  663MOL0     C87444   7.885   4.338   1.807 -0.7571 -0.3974 -0.2942
  663MOL0     C87445   7.890   4.477   1.874 -1.0661 -0.4788  0.1099
  663MOL0     C87446   8.013   4.562   1.829  0.4598 -0.2029  0.1106
  663MOL0     C87447   8.008   4.705   1.868  0.0688 -0.2944  0.3535
  663MOL0     C87448   8.001   4.826   1.898 -0.3936  0.9611  0.1593
  663MOL0     C87449   7.499   4.158   1.892  1.0488  0.8753 -0.3155
  663MOL0     C87450   7.376   4.093   1.894  0.6744  0.9887  0.4638
  663MOL0     H87451   6.824   4.240   1.936 -0.6881  0.4737  0.5288
  663MOL0     H87452   6.596   4.152   1.931  0.1755  0.7670  0.0662
  663MOL0     H87453   6.388   4.081   1.842  0.3247  0.0659  1.3959
  663MOL0     H87454   6.423   3.945   1.950  1.3703 -1.3695 -0.8886
  663MOL0     H87455   6.324   3.807   1.748 -0.6642  0.4025 -1.2693
  663MOL0     H87456   6.267   3.962   1.698 -2.8444  0.2406  0.4540
  663MOL0     H87457   6.137   3.994   1.908 -0.8005 -0.8979  0.2644
  663MOL0     H87458   6.176   3.831   1.955 -0.5646 -0.4832  0.8420
  663MOL0     H87459   6.051   3.739   1.759  0.3575 -1.2642  0.4925
  663MOL0     H87460   5.958   3.839   1.865  0.5071 -0.5972 -0.9590
  663MOL0     H87461   6.076   3.913   1.585  2.0234 -0.0325  1.9661
  663MOL0     H87462   5.977   4.019   1.692  2.3351 -0.5100  4.3437
  663MOL0     H87463   5.910   3.755   1.552  0.0229 -0.7166 -0.1279
  663MOL0     H87464   5.873   3.920   1.503 -1.2744  0.4626  0.6449
  663MOL0     H87465   5.670   3.799   1.616 -0.2839  0.5312 -0.6742
  663MOL0     H87466   5.770   3.785   1.758  0.7251  2.3138  0.9251
  663MOL0     H87467   5.714   4.055   1.636  0.7253 -0.5381 -0.7766
  663MOL0     H87468   5.779   4.009   1.799 -0.3694 -1.3231  0.8902
  663MOL0     H87469   5.445   4.035   1.606  1.8252 -2.5517 -1.5385
  663MOL0     H87470   5.188   3.880   1.765 -3.1057  0.3768 -0.6127
  663MOL0     H87471   5.189   4.028   1.675 -0.3476  3.0279  0.7737
  663MOL0     H87472   5.148   4.177   1.849 -2.6206  0.2554  0.9968
  663MOL0     H87473   5.148   4.048   1.979 -3.4966 -0.1741  0.6891
  663MOL0     H87474   4.925   4.109   1.922 -1.2099 -1.3674  1.0088
  663MOL0     H87475   4.947   4.069   1.756  0.0858 -0.1588  0.1392
  663MOL0     H87476   4.989   3.877   1.984 -1.5953  2.7196  1.9906
  663MOL0     H87477   4.960   3.839   1.803 -0.8444  1.0794 -1.1614
  663MOL0     H87478   4.571   3.796   1.972  3.9504 -0.1232 -0.4909
  663MOL0     H87479   4.375   3.744   1.820  0.0972  1.6112  2.0425
  663MOL0     H87480   4.070   3.704   1.664  0.9813 -2.1283  0.7690
  663MOL0     H87481   3.865   3.660   1.543  0.1637  1.2449  0.5728
  663MOL0     H87482   3.663   3.578   1.241 -0.2788 -2.3516  1.2608
  663MOL0     H87483   3.734   3.709   1.350  0.1569 -0.2452  1.5029
  663MOL0     H87484   3.590   3.628   1.511  0.9781  1.1915 -1.4546
  663MOL0     H87485   3.687   3.495   1.537  0.7898  1.5779  0.7363
  663MOL0     H87486   3.571   3.369   1.382 -2.5871 -1.9674 -1.0007
  663MOL0     H87487   3.468   3.498   1.323 -1.9499 -3.3016 -0.4177
  663MOL0     H87488   3.456   3.408   1.619 -0.8832  0.6542  0.0400
  663MOL0     H87489   3.369   3.531   1.533  0.2072  0.6379 -0.0457
  663MOL0     H87490   3.365   3.234   1.465  1.7568  0.7989 -0.9282
  663MOL0     H87491   3.262   3.352   1.386 -0.8856  1.4324 -0.0946
  663MOL0     H87492   3.127   3.397   1.586  0.5684 -0.7554  0.1462
  663MOL0     H87493   3.231   3.320   1.699 -3.0704  0.1002  1.4648
  663MOL0     H87494   3.211   3.107   1.581 -1.6869 -1.4960 -1.5140
  663MOL0     H87495   3.078   3.160   1.684 -2.3323  2.9896 -0.4487
  663MOL0     H87496   3.002   3.069   1.483 -0.5754 -0.8576  4.1368
  663MOL0     H87497   3.083   3.197   1.386 -0.3239  2.3514  0.9491
  663MOL0     H87498   4.077   3.446   1.237  2.1636 -5.1754  1.7833
  663MOL0     H87499   4.275   3.492   1.334 -2.1982 -1.5229 -1.7826
  663MOL0     H87500   4.615   3.867   1.482 -0.9714  0.8567  0.0017
  663MOL0     H87501   4.800   3.917   1.644 -0.9220  0.9013  1.0683
  663MOL0     H87502   6.723   3.845   1.650  3.3817 -0.8676  0.0217
  663MOL0     H87503   6.953   3.960   1.651 -0.0573  1.5865  0.3095
  663MOL0     H87504   7.237   4.266   1.635 -1.6607  2.8178  1.9786
  663MOL0     H87505   7.453   4.363   1.628  1.1301 -0.2998 -0.9361
  663MOL0     H87506   7.760   4.166   1.805  0.7771  0.7516  0.2467
  663MOL0     H87507   7.746   4.262   1.958 -0.4136  2.1411  0.1785
  663MOL0     H87508   7.971   4.274   1.830 -0.9219 -0.3775  0.4186
  663MOL0     H87509   7.888   4.356   1.699  0.8807 -0.2636 -0.2477
  663MOL0     H87510   7.902   4.454   1.980  1.2823  0.7439  0.1593
  663MOL0     H87511   7.806   4.542   1.849  0.1525  2.9500  3.8841
  663MOL0     H87512   8.105   4.533   1.881  0.5327  1.3148  0.8700
  663MOL0     H87513   8.034   4.543   1.723  0.1370 -2.4355  0.3842
  663MOL0     H87514   8.004   4.933   1.909 -0.1754  0.9182  0.5253
  663MOL0     H87515   7.572   4.112   1.959  0.1468 -1.7098 -0.9681
  663MOL0     H87516   7.350   4.024   1.974 -0.5264  1.2488  0.3267
  664MOL0     O87517   5.166   8.394  10.071  0.6349  0.1510  0.6753
  664MOL0     C87518   5.147   8.289  10.003 -0.0020 -0.5578 -0.1898
  664MOL0     O87519   5.031   8.261   9.950 -0.5011  0.0151  0.1075
  664MOL0     C87520   4.918   8.299  10.003  0.4825  0.6434  0.2170
  664MOL0     C87521   4.808   8.322   9.922 -0.4730  0.3942 -0.0979
  664MOL0     C87522   4.688   8.345   9.979  0.3159  0.1325 -0.2690
  664MOL0     C87523   4.665   8.341  10.116  0.3953 -0.5972  0.4171
  664MOL0     O87524   4.534   8.368  10.155  0.1512  0.4489 -0.1243
  664MOL0     C87525   4.498   8.316  10.285 -0.3922  0.4673  0.0972
  664MOL0     C87526   4.345   8.293  10.287 -0.9694 -0.3221 -0.7080
  664MOL0     C87527   4.291   8.179  10.198  0.7213  0.0965  0.5958
  664MOL0     C87528   4.134   8.171  10.216 -0.4299  0.5346 -0.2825
  664MOL0     C87529   4.077   8.045  10.164 -0.1475  1.0687 -0.3737
  664MOL0     C87530   3.920   8.065  10.134 -0.5912  0.3011 -0.6353
  664MOL0     C87531   3.843   7.946  10.067 -0.4342  0.6287  0.2391
  664MOL0     C87532   3.837   7.966   9.924 -0.1543 -0.5821  0.5105
  664MOL0     N87533   3.787   7.865   9.842  0.4175 -0.1802  0.5190
  664MOL0     C87534   3.675   7.874   9.760  0.7766 -0.3727 -0.0686
  664MOL0     C87535   3.668   7.758   9.689  0.5288 -0.5104  0.2009
  664MOL0     C87536   3.571   7.728   9.575 -0.5374 -0.1170  0.1723
  664MOL0     C87537   3.425   7.748   9.604  0.0285 -0.6134  0.4752
  664MOL0     C87538   3.352   7.718   9.468 -0.1526 -0.3468 -0.1036
  664MOL0     C87539   3.197   7.750   9.488  0.6782 -0.0893  0.0651
  664MOL0     O87540   3.130   7.706   9.369 -0.4508 -0.7543  0.1045
  664MOL0     C87541   2.989   7.713   9.364  0.0846  0.4122 -0.3401
  664MOL0     C87542   2.920   7.641   9.265 -0.1899 -0.2156 -0.3578
  664MOL0     C87543   2.784   7.649   9.246 -0.4059 -0.0964  0.0081
  664MOL0     C87544   2.710   7.718   9.337  0.7540  0.5043  0.1554
  664MOL0     C87545   2.564   7.735   9.319 -0.0407 -0.1886  0.2871
  664MOL0     O87546   2.505   7.832   9.398 -0.2855  0.5330  0.3374
  664MOL0     C87547   2.366   7.851   9.392 -0.1656 -0.0357 -0.5069
  664MOL0     C87548   2.317   7.976   9.430  0.2833 -0.2260 -0.3423
  664MOL0     C87549   2.176   7.994   9.451 -0.5180  0.4735  0.6403
  664MOL0     C87550   2.089   7.901   9.398 -0.7878 -0.8922  0.1166
  664MOL0     O87551   1.952   7.935   9.404 -0.1964  0.4505 -0.2025
  664MOL0     C87552   1.867   7.907   9.294  0.3575 -0.3412  0.1486
  664MOL0     C87553   1.917   8.002   9.180  0.1544  0.0721  0.1201
  664MOL0     C87554   1.917   8.152   9.227 -0.5408  0.3327 -0.6709
  664MOL0     C87555   1.916   8.248   9.109  0.1611  1.0013  0.0524
  664MOL0     C87556   1.918   8.386   9.167 -0.3047 -0.0203 -0.1408
  664MOL0     C87557   2.051   8.442   9.208  1.4524  0.3374 -0.2837
  664MOL0     C87558   2.061   8.567   9.301  0.1973 -0.2036 -0.3285
  664MOL0     C87559   1.993   8.563   9.440  0.1073 -0.0767  0.4173
  664MOL0    Cl87560   2.072   8.443   9.539  0.1608 -0.1308 -0.5130
  664MOL0     C87561   2.143   7.779   9.350  0.9249  0.0610  0.0736
  664MOL0     C87562   2.279   7.747   9.361 -0.4846 -0.1207 -0.2662
  664MOL0     O87563   2.518   7.685   9.220 -0.6650 -0.3345  1.0747
  664MOL0     C87564   2.775   7.795   9.439  0.3147 -0.6143  1.4520
  664MOL0     C87565   2.907   7.789   9.453 -0.6599  0.4551  0.4035
  664MOL0     N87566   3.769   7.676   9.729  1.1063  0.0160 -0.2809
  664MOL0     N87567   3.844   7.741   9.808 -0.2392  0.5448  0.3017
  664MOL0     C87568   4.768   8.304  10.198 -0.0283  0.7172  0.0705
  664MOL0     C87569   4.893   8.288  10.140 -0.5444 -0.4908  0.4924
  664MOL0     C87570   5.267   8.220   9.956  0.5526 -0.3034  0.5164
  664MOL0     C87571   5.260   8.133   9.849 -0.3871  0.2863 -0.0412
  664MOL0     C87572   5.371   8.063   9.807 -0.0015 -0.8114  0.6672
  664MOL0     C87573   5.496   8.082   9.864  0.9979  0.6958  1.0991
  664MOL0     O87574   5.610   8.014   9.827 -0.1979  0.3434  0.0098
  664MOL0     C87575   5.622   7.979   9.684  0.0544 -0.1419 -0.6415
  664MOL0     C87576   5.753   7.902   9.669  0.0924 -0.5681  0.0080
  664MOL0     C87577   5.879   7.980   9.729  0.7448 -0.6362  0.5135
  664MOL0     C87578   5.987   7.876   9.764  0.3982  0.8000  0.2517
  664MOL0     C87579   6.122   7.927   9.766  0.2060  0.3550  0.0281
  664MOL0     C87580   6.227   7.975   9.782 -0.4691  0.1126 -0.4134
  664MOL0     C87581   5.506   8.161   9.980  0.5227  0.0527 -0.7083
  664MOL0     C87582   5.388   8.233  10.026  0.0035 -0.3203 -0.4947
  664MOL0     H87583   4.806   8.293   9.817 -2.7477 -2.2241  0.5647
  664MOL0     H87584   4.607   8.359   9.908  1.0471  0.1678 -1.1146
  664MOL0     H87585   4.527   8.391  10.359  0.1968  0.2201  0.1230
  664MOL0     H87586   4.542   8.223  10.320  0.0025  0.3842 -0.6113
  664MOL0     H87587   4.309   8.388  10.247  0.1992 -0.1587 -1.4219
  664MOL0     H87588   4.304   8.287  10.388  1.6906 -1.2536  0.4096
  664MOL0     H87589   4.345   8.090  10.229 -1.8284 -1.2963  1.3006
  664MOL0     H87590   4.325   8.200  10.096  0.5895  0.2259  0.5760
  664MOL0     H87591   4.120   8.180  10.324  2.3293 -0.0111  0.1901
  664MOL0     H87592   4.092   8.263  10.173  2.1435  2.7890  1.6554
  664MOL0     H87593   4.101   7.960  10.228  0.3379  1.7882  0.4113
  664MOL0     H87594   4.131   8.025  10.070  1.1942  0.4754  0.4960
  664MOL0     H87595   3.905   8.154  10.072  2.9257  1.4413 -0.0762
  664MOL0     H87596   3.889   8.078  10.238  1.8733  1.4202  0.0429
  664MOL0     H87597   3.871   7.843  10.089  1.3827  1.1488  0.5149
  664MOL0     H87598   3.740   7.963  10.102 -0.8010  2.3408 -1.5033
  664MOL0     H87599   3.935   7.990   9.882  0.6806 -1.1619  2.0314
  664MOL0     H87600   3.773   8.055   9.916  1.3740  0.5788  0.5564
  664MOL0     H87601   3.612   7.960   9.738  1.1353 -0.4445 -1.5257
  664MOL0     H87602   3.586   7.625   9.542  1.8865  0.7173 -1.6663
  664MOL0     H87603   3.595   7.793   9.490 -0.5179  0.7783  0.8458
  664MOL0     H87604   3.399   7.847   9.642 -1.7965 -1.1048  0.6185
  664MOL0     H87605   3.394   7.689   9.691 -1.9945  0.4060  0.5125
  664MOL0     H87606   3.382   7.789   9.390  0.1285  0.0286  0.3412
  664MOL0     H87607   3.373   7.618   9.430  1.9930  0.1867 -0.4782
  664MOL0     H87608   3.185   7.856   9.512 -0.6444  0.3475 -2.1981
  664MOL0     H87609   3.162   7.686   9.569  0.2890  0.3489  0.2502
  664MOL0     H87610   2.985   7.582   9.202 -0.7127 -1.3242  0.1093
  664MOL0     H87611   2.733   7.593   9.168  0.8055  3.8360 -4.0337
  664MOL0     H87612   2.385   8.047   9.475 -1.3556  0.2407  1.5411
  664MOL0     H87613   2.144   8.090   9.490  2.0455  2.2553 -1.2722
  664MOL0     H87614   1.765   7.932   9.325 -0.7347 -0.2245 -3.1351
  664MOL0     H87615   1.875   7.799   9.277  1.2075 -0.5693  1.8445
  664MOL0     H87616   1.852   7.994   9.091  0.9986  1.7799 -0.6881
  664MOL0     H87617   2.019   7.983   9.147 -0.1218  2.5891 -2.6561
  664MOL0     H87618   2.011   8.169   9.282 -0.8170  0.3544 -0.2053
  664MOL0     H87619   1.833   8.172   9.294  1.6639  0.9183  2.1546
  664MOL0     H87620   2.007   8.232   9.051 -1.2219 -0.0040 -1.9224
  664MOL0     H87621   1.826   8.242   9.048  1.2390  1.5056 -1.6455
  664MOL0     H87622   1.848   8.399   9.250 -1.1947 -0.5620 -0.7993
  664MOL0     H87623   1.878   8.451   9.089  2.4521  0.6710 -1.0846
  664MOL0     H87624   2.104   8.457   9.113 -0.2691  0.0974 -1.3247
  664MOL0     H87625   2.107   8.365   9.263 -0.1922  0.2355  1.3466
  664MOL0     H87626   2.166   8.584   9.325 -0.1770  1.3309  0.2861
  664MOL0     H87627   2.021   8.655   9.251 -0.8083 -0.6695 -0.3639
  664MOL0     H87628   1.888   8.536   9.431  0.4282 -1.2671  0.0644
  664MOL0     H87629   2.007   8.661   9.487  1.8776 -0.0390 -0.0870
  664MOL0     H87630   2.069   7.707   9.316  0.9682 -0.4517  1.0354
  664MOL0     H87631   2.318   7.652   9.327 -0.8304 -0.6226  0.7084
  664MOL0     H87632   2.728   7.869   9.504  1.7758  0.7887  0.9982
  664MOL0     H87633   2.963   7.835   9.535  0.4559  1.0016 -0.6314
  664MOL0     H87634   4.772   8.291  10.305  0.5670  0.8639  0.0702
  664MOL0     H87635   4.976   8.255  10.202 -1.1817 -0.1749  1.5452
  664MOL0     H87636   5.162   8.109   9.807 -1.0858 -0.3016  1.8283
  664MOL0     H87637   5.356   7.991   9.727 -0.9377  0.4384 -0.3250
  664MOL0     H87638   5.624   8.070   9.622 -0.6170 -0.8101 -1.6643
  664MOL0     H87639   5.539   7.915   9.653 -1.7328  0.0546  3.2010
  664MOL0     H87640   5.737   7.803   9.713 -0.2247 -1.1562 -1.3726
  664MOL0     H87641   5.768   7.877   9.564 -0.2602 -1.1151  0.0810
  664MOL0     H87642   5.854   8.039   9.818 -2.1631 -0.6110 -0.2054
  664MOL0     H87643   5.916   8.060   9.665 -2.4873 -0.0690 -0.8753
  664MOL0     H87644   5.961   7.835   9.862 -0.8455 -1.7254 -1.0505
  664MOL0     H87645   5.983   7.792   9.695  3.4852  0.9636 -0.2899
  664MOL0     H87646   6.319   8.030   9.786 -0.0920 -0.3522 -1.9158
  664MOL0     H87647   5.597   8.162  10.040 -1.0918 -3.1523  2.1546
  664MOL0     H87648   5.374   8.291  10.117  0.2958  1.8567 -1.7484
  665MOL0     O87649   0.582   0.760   9.575 -0.6577  0.2882 -0.4310
  665MOL0     C87650   0.586   0.653   9.512 -0.2658 -0.6045  0.2975
  665MOL0     O87651   0.485   0.588   9.448  0.7130  0.4342 -0.1845
  665MOL0     C87652   0.368   0.653   9.460  0.7724  0.0002  0.4859
  665MOL0     C87653   0.254   0.578   9.505  0.0350  0.4511 -0.5465
  665MOL0     C87654   0.127   0.635   9.530  0.1209 -0.5443  0.2166
  665MOL0     C87655   0.105   0.768   9.491  0.0380 -1.3240  1.0649
  665MOL0     O87656  -0.017   0.826   9.525  0.4584  0.3240 -0.2368
  665MOL0     C87657  -0.070   0.935   9.446  0.4358 -0.3824 -0.5010
  665MOL0     C87658  -0.220   0.955   9.459 -0.3602  0.0311  0.5408
  665MOL0     C87659  -0.267   1.093   9.410  0.8468  0.4017  0.1470
  665MOL0     C87660  -0.411   1.096   9.423 -0.1253  0.2915 -1.1977
  665MOL0     C87661  -0.476   1.199   9.339  0.0976 -0.7042 -0.1794
  665MOL0     C87662  -0.442   1.347   9.388  0.2178 -0.3135  0.0598
  665MOL0     C87663  -0.550   1.447   9.337 -0.0412  0.1631  0.0230
  665MOL0     C87664  -0.513   1.591   9.378 -0.6874 -0.3174  0.4769
  665MOL0     N87665  -0.384   1.636   9.318 -0.3095 -1.0351  0.4158
  665MOL0     C87666  -0.344   1.614   9.188 -0.2986  0.2343 -0.2771
  665MOL0     C87667  -0.227   1.683   9.176  0.6064 -0.4500  0.9443
  665MOL0     C87668  -0.150   1.708   9.052 -0.3351 -0.2191  0.4216
  665MOL0     C87669  -0.053   1.604   8.997  0.6295  0.7150 -0.2256
  665MOL0     C87670   0.041   1.657   8.888  0.0033 -0.0749 -0.4949
  665MOL0     C87671  -0.029   1.736   8.784  0.3883 -0.6003  0.2704
  665MOL0     O87672   0.035   1.755   8.656 -0.2602  0.5272 -0.5028
  665MOL0     C87673   0.144   1.834   8.656  0.3838  0.4784  0.6051
  665MOL0     C87674   0.149   1.968   8.677 -0.7342  0.5942 -0.2316
  665MOL0     C87675   0.265   2.036   8.662  0.4099  0.0263 -0.2030
  665MOL0     C87676   0.382   1.976   8.609  0.8722  0.6315 -0.4774
  665MOL0     C87677   0.497   2.059   8.593  0.5332  0.8738  0.8930
  665MOL0     O87678   0.493   2.179   8.531  0.2123 -0.2306 -0.0709
  665MOL0     C87679   0.608   2.251   8.518  0.3593 -0.3441 -0.4697
  665MOL0     C87680   0.613   2.365   8.587 -0.0654 -0.1358  0.0276
  665MOL0     C87681   0.720   2.452   8.573 -0.2602  0.3556  0.4174
  665MOL0     C87682   0.834   2.418   8.505 -0.0917  0.0011  0.8348
  665MOL0     O87683   0.939   2.505   8.519  0.0821  0.1579  0.0619
  665MOL0     C87684   0.996   2.550   8.396  0.8251 -0.1664  0.8350
  665MOL0     C87685   1.086   2.671   8.408  0.2364  0.4744  0.3828
  665MOL0     C87686   1.217   2.653   8.478 -0.0571  0.1130  0.0895
  665MOL0     C87687   1.300   2.789   8.490 -0.5413 -0.0410 -0.8331
  665MOL0     C87688   1.443   2.765   8.537  0.3860 -0.2668  0.2714
  665MOL0     C87689   1.525   2.893   8.542 -1.2695  0.3628 -0.8521
  665MOL0     C87690   1.664   2.877   8.598 -0.5316  0.5351  0.0654
  665MOL0     C87691   1.710   3.003   8.669 -0.4197 -0.1658 -0.1721
  665MOL0    Cl87692   1.695   3.145   8.556 -0.3991  0.2995  0.4320
  665MOL0     C87693   0.821   2.300   8.431 -0.7721 -0.0040  0.2607
  665MOL0     C87694   0.709   2.218   8.432  0.0328 -0.1314  0.0024
  665MOL0     O87695   0.597   2.010   8.639 -0.7934  1.1837 -0.1564
  665MOL0     C87696   0.381   1.842   8.581  0.4924 -0.0383 -0.1113
  665MOL0     C87697   0.265   1.769   8.614 -0.7130 -0.8767  0.6073
  665MOL0     N87698  -0.204   1.757   9.291  0.4497  0.5138 -0.4594
  665MOL0     N87699  -0.301   1.736   9.372  0.5238  0.7579  0.4330
  665MOL0     C87700   0.211   0.841   9.442  0.0085  0.5024 -0.1071
  665MOL0     C87701   0.339   0.782   9.417 -0.2881 -0.6956  0.6806
  665MOL0     C87702   0.720   0.595   9.518  0.5094 -0.1931  0.3311
  665MOL0     C87703   0.806   0.601   9.627 -0.0436 -0.3374  0.2008
  665MOL0     C87704   0.942   0.561   9.611  0.4689 -0.2672  0.6185
  665MOL0     C87705   0.994   0.512   9.487 -0.1697  0.1681 -0.8208
  665MOL0     O87706   1.127   0.467   9.500 -0.0309 -0.0269  0.2553
  665MOL0     C87707   1.210   0.447   9.383 -0.1425 -0.9083 -0.3104
  665MOL0     C87708   1.349   0.409   9.440  0.6284 -0.6271 -0.5598
  665MOL0     C87709   1.460   0.413   9.340  0.0977  0.2115 -0.5059
  665MOL0     C87710   1.599   0.382   9.403 -0.1181 -0.1256  0.8783
  665MOL0     C87711   1.702   0.374   9.301  0.4986  0.6754 -0.3906
  665MOL0     C87712   1.794   0.354   9.220  0.4653  0.1139  1.2539
  665MOL0     C87713   0.909   0.491   9.385 -0.2024  0.0988  0.1247
  665MOL0     C87714   0.768   0.531   9.405 -0.6114  0.0521  0.4600
  665MOL0     H87715   0.271   0.473   9.530 -1.2251  0.3572 -0.0022
  665MOL0     H87716   0.049   0.569   9.565 -1.4336  0.1008 -1.8063
  665MOL0     H87717  -0.035   0.953   9.344 -2.7409  3.9961 -1.1177
  665MOL0     H87718  -0.030   1.024   9.496 -1.0501  1.0700 -1.7656
  665MOL0     H87719  -0.253   0.933   9.561  1.4512 -3.8595  0.4678
  665MOL0     H87720  -0.266   0.877   9.399 -0.7521 -1.5187  2.7317
  665MOL0     H87721  -0.236   1.107   9.307 -0.4574  0.1241 -0.3087
  665MOL0     H87722  -0.216   1.171   9.467  0.5020  0.2250  0.7070
  665MOL0     H87723  -0.452   1.002   9.383 -1.2274 -0.1343  0.7668
  665MOL0     H87724  -0.429   1.094   9.531 -0.5749 -3.1345 -1.2353
  665MOL0     H87725  -0.584   1.188   9.350  0.3135 -1.7829  1.0404
  665MOL0     H87726  -0.449   1.192   9.233 -2.9269 -2.1572 -0.9402
  665MOL0     H87727  -0.344   1.381   9.353  0.1830 -1.2018 -0.9520
  665MOL0     H87728  -0.420   1.353   9.495 -1.0472 -1.1318  0.3966
  665MOL0     H87729  -0.570   1.445   9.230 -2.2149  1.0674  0.3681
  665MOL0     H87730  -0.644   1.405   9.373  0.4973 -0.2725  0.9741
  665MOL0     H87731  -0.500   1.593   9.486 -0.4845 -0.6914  0.4627
  665MOL0     H87732  -0.591   1.664   9.356 -1.2133 -0.9141  0.3147
  665MOL0     H87733  -0.392   1.561   9.107 -0.4687  1.2880 -0.8956
  665MOL0     H87734  -0.087   1.798   9.051  0.5257 -0.4772 -5.8657
  665MOL0     H87735  -0.227   1.735   8.979 -2.3612  2.4445  3.2606
  665MOL0     H87736  -0.121   1.532   8.950  1.0604  0.4112 -0.3871
  665MOL0     H87737  -0.009   1.550   9.081 -0.3851  0.2933  0.0584
  665MOL0     H87738   0.117   1.719   8.937 -0.7054  0.2789  0.1815
  665MOL0     H87739   0.083   1.571   8.837  0.8962  0.2879 -0.3910
  665MOL0     H87740  -0.063   1.833   8.823 -2.6516 -1.5467  0.2517
  665MOL0     H87741  -0.126   1.689   8.769  0.7192 -0.4974 -2.9195
  665MOL0     H87742   0.059   2.025   8.697 -0.1497  1.9910 -1.3361
  665MOL0     H87743   0.275   2.142   8.683  1.4944  0.4439 -2.4679
  665MOL0     H87744   0.534   2.391   8.656 -1.5784  1.0583 -2.0555
  665MOL0     H87745   0.724   2.551   8.616  2.3817  1.8875 -2.8631
  665MOL0     H87746   0.920   2.571   8.320  0.2236 -0.7949  1.2600
  665MOL0     H87747   1.064   2.471   8.363  0.8250 -0.7045  2.0872
  665MOL0     H87748   1.029   2.751   8.456  1.9447  1.5641  0.6579
  665MOL0     H87749   1.106   2.713   8.309 -1.0789 -2.0412 -1.0573
  665MOL0     H87750   1.279   2.587   8.416  0.5620  1.4319 -0.7348
  665MOL0     H87751   1.207   2.610   8.578  3.6506  1.3123  1.1437
  665MOL0     H87752   1.301   2.841   8.394  0.3586 -0.1878 -0.9133
  665MOL0     H87753   1.251   2.856   8.561 -2.2166 -1.5996 -0.4456
  665MOL0     H87754   1.487   2.685   8.477 -0.7952 -0.1444 -0.8011
  665MOL0     H87755   1.435   2.732   8.642  0.2865  1.2680  0.7693
  665MOL0     H87756   1.477   2.972   8.600  0.7191  0.0600  1.3408
  665MOL0     H87757   1.537   2.920   8.436 -1.0885 -0.2367 -0.9895
  665MOL0     H87758   1.681   2.789   8.661 -1.2123  0.9124  0.7813
  665MOL0     H87759   1.724   2.864   8.507 -0.8463  1.3612 -0.2718
  665MOL0     H87760   1.811   2.983   8.706 -0.8644 -2.5469 -0.1059
  665MOL0     H87761   1.639   3.018   8.750  0.8801  1.5385  0.7155
  665MOL0     H87762   0.903   2.281   8.362 -0.6379  1.7039 -0.1035
  665MOL0     H87763   0.698   2.122   8.383 -0.3345 -0.5509  0.8838
  665MOL0     H87764   0.467   1.792   8.539  1.8963  1.9720  0.2022
  665MOL0     H87765   0.252   1.666   8.584 -3.7224 -0.5915  0.6028
  665MOL0     H87766   0.193   0.945   9.418  0.5784  0.6924  0.2576
  665MOL0     H87767   0.416   0.851   9.381  1.9339 -1.0797  4.2355
  665MOL0     H87768   0.780   0.636   9.726  1.0339 -0.8818  0.6943
  665MOL0     H87769   1.016   0.557   9.690  1.7914 -1.8693 -0.6040
  665MOL0     H87770   1.224   0.539   9.326  0.6067 -0.6361  0.2922
  665MOL0     H87771   1.176   0.366   9.317  0.5250 -1.6319  0.2167
  665MOL0     H87772   1.371   0.480   9.520 -1.2360 -1.6805  0.9700
  665MOL0     H87773   1.332   0.308   9.479 -0.4673  0.1574  1.1074
  665MOL0     H87774   1.472   0.507   9.285 -2.0323  0.4222 -0.7028
  665MOL0     H87775   1.445   0.341   9.259  1.7992  1.2244 -1.7905
  665MOL0     H87776   1.628   0.461   9.473 -0.4316 -0.6710  1.6327
  665MOL0     H87777   1.589   0.287   9.456  2.1022 -1.5243 -1.0167
  665MOL0     H87778   1.867   0.333   9.145 -0.0302  2.6374 -0.0380
  665MOL0     H87779   0.943   0.446   9.293 -2.8599 -2.0666  0.0678
  665MOL0     H87780   0.714   0.521   9.311  1.3292 -0.3493 -0.6607
  666MOL0     O87781   9.421   8.722   2.344 -1.0038  0.0347  0.0105
  666MOL0     C87782   9.453   8.801   2.255 -0.5420 -0.0720  0.2170
  666MOL0     O87783   9.365   8.860   2.170  0.3426 -0.9818 -0.3269
  666MOL0     C87784   9.225   8.866   2.178  0.0109 -0.1063 -0.0367
  666MOL0     C87785   9.146   8.795   2.266  0.5648 -0.0582 -0.5088
  666MOL0     C87786   9.008   8.822   2.271 -0.6849 -0.8778 -0.5940
  666MOL0     C87787   8.949   8.925   2.199 -1.4430 -0.6175  0.3942
  666MOL0     O87788   8.825   8.974   2.219 -0.1488  0.0901  0.0220
  666MOL0     C87789   8.732   8.894   2.293 -0.8667  0.4375 -1.1838
  666MOL0     C87790   8.686   8.765   2.218  0.0666 -0.1708 -0.9019
  666MOL0     C87791   8.544   8.721   2.277 -0.2448  0.4023  0.2631
  666MOL0     C87792   8.424   8.811   2.253  0.0441  0.9642 -0.7006
  666MOL0     C87793   8.301   8.744   2.316 -0.5883 -0.1243 -0.8275
  666MOL0     C87794   8.174   8.823   2.300  0.0981  1.0619  0.5836
  666MOL0     C87795   8.050   8.752   2.363  1.1826  1.0981  0.4530
  666MOL0     C87796   7.944   8.852   2.419  0.8148 -0.5404  0.5813
  666MOL0     N87797   7.821   8.782   2.448 -0.2337  0.5372  0.2757
  666MOL0     C87798   7.759   8.696   2.366 -0.0862 -0.1713 -0.4649
  666MOL0     C87799   7.662   8.628   2.436 -0.3088 -0.2030  0.3004
  666MOL0     C87800   7.560   8.528   2.387  0.7052 -0.3343 -0.1536
  666MOL0     C87801   7.516   8.547   2.239 -0.6896 -0.2067  0.5027
  666MOL0     C87802   7.390   8.452   2.226 -0.1862 -0.2764  0.2076
  666MOL0     C87803   7.328   8.462   2.080 -0.9244  0.7891 -0.3930
  666MOL0     O87804   7.290   8.589   2.045 -0.7764  0.0675 -0.2279
  666MOL0     C87805   7.172   8.635   2.097 -0.3493 -0.5633  0.1248
  666MOL0     C87806   7.055   8.560   2.116 -0.0942 -0.2528  0.0578
  666MOL0     C87807   6.934   8.615   2.168 -0.3730  0.1759  1.2017
  666MOL0     C87808   6.927   8.748   2.204 -0.1336 -0.2552  0.5732
  666MOL0     C87809   6.802   8.799   2.247  0.8513 -0.8065 -1.0341
  666MOL0     O87810   6.797   8.939   2.271  0.6515  0.4768  0.4663
  666MOL0     C87811   6.688   8.994   2.318  0.1472  0.1020  1.3382
  666MOL0     C87812   6.577   8.993   2.230 -0.2588 -0.5959 -0.9539
  666MOL0     C87813   6.458   9.044   2.270  0.2416 -0.3475 -0.1272
  666MOL0     C87814   6.438   9.078   2.404 -0.4559 -0.0489 -0.7970
  666MOL0     O87815   6.319   9.117   2.451  0.4244 -0.6447 -0.2291
  666MOL0     C87816   6.307   9.186   2.573 -1.0892  0.7242  0.1842
  666MOL0     C87817   6.186   9.264   2.606  0.0163  0.2479 -0.5877
  666MOL0     C87818   6.062   9.181   2.577  1.1605  0.1098  0.4763
  666MOL0     C87819   5.933   9.261   2.610  0.8998 -0.2108  1.1031
  666MOL0     C87820   5.803   9.175   2.565  1.2324  0.0308  0.0172
  666MOL0     C87821   5.772   9.063   2.660 -0.4262  0.1006 -0.1261
  666MOL0     C87822   5.651   8.979   2.618  0.1988 -0.2476 -0.2145
  666MOL0     C87823   5.514   9.061   2.635 -0.1714  1.0935 -0.2626
  666MOL0    Cl87824   5.461   9.036   2.802 -0.5058  0.0099  0.1901
  666MOL0     C87825   6.541   9.060   2.495  0.2000  0.0750  0.1721
  666MOL0     C87826   6.664   9.020   2.456 -0.0329 -0.4670 -0.6454
  666MOL0     O87827   6.706   8.716   2.259 -0.1435 -0.2739  0.1847
  666MOL0     C87828   7.046   8.822   2.188  0.5154 -0.2586  0.1297
  666MOL0     C87829   7.165   8.772   2.133 -0.3740  0.7027 -0.9133
  666MOL0     N87830   7.669   8.682   2.567 -0.3952 -0.3468 -0.3575
  666MOL0     N87831   7.762   8.771   2.571  0.2336 -0.2100 -0.4859
  666MOL0     C87832   9.030   8.993   2.108  0.5616  0.0852  0.2271
  666MOL0     C87833   9.166   8.966   2.096 -0.2991  0.5985  0.2249
  666MOL0     C87834   9.597   8.832   2.236  0.3857  0.2626 -0.0555
  666MOL0     C87835   9.685   8.767   2.314  0.0757 -0.8381  0.0310
  666MOL0     C87836   9.817   8.812   2.305 -0.1457 -0.5569 -1.3943
  666MOL0     C87837   9.863   8.917   2.229 -0.5994  0.1898  0.7699
  666MOL0     O87838   9.994   8.959   2.238 -0.1040 -0.8487 -0.0033
  666MOL0     C87839  10.046   9.074   2.171 -0.2878 -0.4383 -0.3640
  666MOL0     C87840  10.158   9.143   2.247  0.1193 -0.1987 -0.1831
  666MOL0     C87841  10.261   9.049   2.311  0.2832 -0.4689 -0.7706
  666MOL0     C87842  10.325   8.965   2.205 -0.1237 -0.1614 -0.8090
  666MOL0     C87843  10.424   8.882   2.269 -0.4679  0.2346 -0.4205
  666MOL0     C87844  10.508   8.812   2.331  0.7501 -0.1628 -0.3743
  666MOL0     C87845   9.764   8.978   2.151 -0.2151 -0.2243  0.0264
  666MOL0     C87846   9.636   8.941   2.154 -0.5067  1.3302  0.6695
  666MOL0     H87847   9.182   8.715   2.330  0.3940  1.0010  0.9612
  666MOL0     H87848   8.943   8.753   2.325 -1.7570 -0.0581 -0.8102
  666MOL0     H87849   8.642   8.952   2.314 -0.5684  0.8616 -1.0729
  666MOL0     H87850   8.781   8.869   2.388 -0.9936  1.7707 -0.7548
  666MOL0     H87851   8.761   8.686   2.220  0.2463 -0.0837 -2.4960
  666MOL0     H87852   8.671   8.788   2.112  4.7867 -1.5461 -2.1015
  666MOL0     H87853   8.546   8.694   2.383  1.3485 -1.0591 -0.0847
  666MOL0     H87854   8.533   8.626   2.226  2.8185  0.0984 -0.0563
  666MOL0     H87855   8.446   8.907   2.300  1.0705 -0.3004  1.5622
  666MOL0     H87856   8.408   8.825   2.146  0.3790  0.2026 -0.8536
  666MOL0     H87857   8.322   8.722   2.422 -0.8377 -1.3683 -1.0210
  666MOL0     H87858   8.279   8.647   2.271 -1.5839 -0.0949 -0.4332
  666MOL0     H87859   8.166   8.842   2.192  2.3875  0.3046  0.2310
  666MOL0     H87860   8.179   8.927   2.335 -2.6606  1.6755 -0.5026
  666MOL0     H87861   8.001   8.693   2.285  1.6848  0.5121  0.5761
  666MOL0     H87862   8.088   8.693   2.446  0.9074 -0.1729 -0.3031
  666MOL0     H87863   7.918   8.929   2.346  0.6354 -0.4083  0.7838
  666MOL0     H87864   7.983   8.907   2.505  0.5660  3.1898 -1.4782
  666MOL0     H87865   7.775   8.686   2.259 -0.0162 -2.6935 -0.2714
  666MOL0     H87866   7.467   8.531   2.445  0.0045 -1.5560 -1.1559
  666MOL0     H87867   7.597   8.426   2.396 -0.2434 -0.7199 -0.4693
  666MOL0     H87868   7.584   8.538   2.154  0.2827  3.2780  0.7628
  666MOL0     H87869   7.489   8.653   2.235  1.1504  0.3313  1.1982
  666MOL0     H87870   7.422   8.353   2.259  2.0347  0.8289  1.5993
  666MOL0     H87871   7.315   8.484   2.299  1.3658 -1.4304  2.4112
  666MOL0     H87872   7.253   8.382   2.072  0.3883 -0.2857 -2.9126
  666MOL0     H87873   7.400   8.422   2.008 -1.8639 -1.8812  0.0143
  666MOL0     H87874   7.073   8.456   2.091  1.8502  0.6293 -2.6248
  666MOL0     H87875   6.848   8.550   2.177  0.2540 -1.2354 -1.6652
  666MOL0     H87876   6.583   8.955   2.129 -2.9908 -0.9901 -1.0416
  666MOL0     H87877   6.382   9.044   2.193  1.9333 -1.4994 -1.8853
  666MOL0     H87878   6.388   9.259   2.567  1.1814 -1.7572 -3.7083
  666MOL0     H87879   6.325   9.126   2.663  1.6167  0.4440 -0.4413
  666MOL0     H87880   6.184   9.340   2.526  0.3741 -2.0719 -2.9435
  666MOL0     H87881   6.189   9.315   2.703 -1.6640 -0.6914  0.0104
  666MOL0     H87882   6.062   9.084   2.629 -1.1004 -0.7220 -0.9288
  666MOL0     H87883   6.067   9.166   2.469  1.9588  0.4763  0.4570
  666MOL0     H87884   5.938   9.283   2.717  2.7517 -0.2258  1.0363
  666MOL0     H87885   5.934   9.358   2.558  2.4281  0.9158  3.1000
  666MOL0     H87886   5.823   9.123   2.471 -2.6115 -1.8797  0.0703
  666MOL0     H87887   5.725   9.251   2.556  1.0785 -0.3614 -2.4009
  666MOL0     H87888   5.770   9.099   2.763 -0.9469 -1.9473  0.6357
  666MOL0     H87889   5.858   8.996   2.650 -1.1043 -0.7580 -0.3119
  666MOL0     H87890   5.666   8.960   2.512 -1.6791 -0.8635 -0.4201
  666MOL0     H87891   5.636   8.879   2.660  1.3500 -0.8875 -1.2859
  666MOL0     H87892   5.455   9.009   2.559 -0.2728 -1.3969  1.4269
  666MOL0     H87893   5.532   9.166   2.607  1.7488  0.0462 -3.6155
  666MOL0     H87894   6.526   9.081   2.601 -0.9923 -0.1901  0.0656
  666MOL0     H87895   6.750   9.014   2.522  0.6545  0.0119 -1.4626
  666MOL0     H87896   7.056   8.926   2.217  1.4804 -0.7163  1.5316
  666MOL0     H87897   7.242   8.848   2.123 -0.6403  1.2010  0.5195
  666MOL0     H87898   8.993   9.066   2.036  1.7479 -0.6954 -1.2355
  666MOL0     H87899   9.232   9.003   2.019  1.4049 -1.2704  0.7043
  666MOL0     H87900   9.658   8.687   2.382 -0.5714 -0.2175  0.5209
  666MOL0     H87901   9.892   8.763   2.367 -0.9532 -1.2824 -0.9626
  666MOL0     H87902   9.974   9.156   2.160  3.9527  4.1449  1.9337
  666MOL0     H87903  10.080   9.040   2.073  0.0805 -1.6227  0.1574
  666MOL0     H87904  10.216   9.200   2.174  1.7612 -0.9786  0.4602
  666MOL0     H87905  10.132   9.208   2.331  3.6233  0.7540  0.3153
  666MOL0     H87906  10.217   8.995   2.395 -0.5101 -0.3889 -1.1217
  666MOL0     H87907  10.339   9.120   2.341  0.5619 -1.0519 -0.0778
  666MOL0     H87908  10.258   8.901   2.147 -0.3087  0.1237 -0.9152
  666MOL0     H87909  10.369   9.034   2.132 -0.1275  3.2649  2.1779
  666MOL0     H87910  10.574   8.755   2.392  0.3508  0.8002  1.0051
  666MOL0     H87911   9.786   9.065   2.090  0.2852 -0.5966 -0.3391
  666MOL0     H87912   9.554   8.989   2.101 -1.6532  0.9488  2.0417
  667MOL0     O87913  11.072   5.288   9.061 -0.0864  0.1117  0.6905
  667MOL0     C87914  11.091   5.273   9.183 -0.3339  0.4699  1.0248
  667MOL0     O87915  11.212   5.241   9.247  0.3575  0.2940  0.1541
  667MOL0     C87916  11.324   5.243   9.166 -0.1446 -0.4083 -0.1251
  667MOL0     C87917  11.345   5.153   9.057  0.1970 -0.3350  0.0484
  667MOL0     C87918  11.447   5.173   8.960  0.6442  0.0833 -0.1185
  667MOL0     C87919  11.532   5.280   8.967 -0.1535  0.6885 -0.0161
  667MOL0     O87920  11.634   5.310   8.875 -0.5098  0.5382 -0.1331
  667MOL0     C87921  11.715   5.212   8.810 -0.2690 -0.6030 -0.1553
  667MOL0     C87922  11.747   5.287   8.682  0.5829  0.2298  0.1933
  667MOL0     C87923  11.876   5.242   8.615  0.2836 -0.1835 -0.1734
  667MOL0     C87924  11.883   5.296   8.467  0.0268  0.2803  0.8082
  667MOL0     C87925  11.818   5.193   8.365  0.1538  0.3415  0.0382
  667MOL0     C87926  11.706   5.264   8.294  0.3875 -0.3609 -0.4912
  667MOL0     C87927  11.656   5.179   8.178 -0.3360 -0.0383  0.3527
  667MOL0     C87928  11.537   5.227   8.103  0.5104  0.4189 -0.7507
  667MOL0     N87929  11.494   5.133   8.001 -0.6231 -0.2583  0.1143
  667MOL0     C87930  11.453   4.999   8.020 -0.1529  0.3544  0.6028
  667MOL0     C87931  11.406   4.965   7.902  0.4379  0.7668  0.1727
  667MOL0     C87932  11.368   4.825   7.860 -0.6049  0.4883  0.2710
  667MOL0     C87933  11.236   4.779   7.916  0.7624  0.3938  0.0781
  667MOL0     C87934  11.124   4.791   7.823 -0.3146 -0.1314  0.2237
  667MOL0     C87935  10.993   4.762   7.905 -0.7831 -0.2204 -0.4408
  667MOL0     O87936  10.993   4.621   7.948 -0.5350 -0.0373  0.6776
  667MOL0     C87937  10.870   4.573   7.998  0.8872  0.1962  0.1254
  667MOL0     C87938  10.859   4.443   8.041 -0.0786  0.1844 -0.4726
  667MOL0     C87939  10.737   4.401   8.102  0.0427  0.2222 -0.0168
  667MOL0     C87940  10.619   4.483   8.111 -0.3120 -0.7122  0.7143
  667MOL0     C87941  10.488   4.440   8.164 -0.9371  0.6789 -0.2624
  667MOL0     O87942  10.418   4.537   8.215  0.6055 -0.1276 -0.2059
  667MOL0     C87943  10.282   4.533   8.207 -0.6330  0.3925  0.0049
  667MOL0     C87944  10.201   4.513   8.319 -0.4127 -0.4219 -0.1395
  667MOL0     C87945  10.059   4.512   8.308 -0.6134 -0.2803  0.3617
  667MOL0     C87946  10.004   4.533   8.180 -0.7926  0.0784  0.4667
  667MOL0     O87947   9.870   4.526   8.154 -0.2337  0.4618  0.1943
  667MOL0     C87948   9.772   4.520   8.268 -1.0912 -1.2519  0.2025
  667MOL0     C87949   9.634   4.489   8.210 -0.5721  0.0758 -0.0889
  667MOL0     C87950   9.525   4.493   8.317 -0.1176 -0.2042  0.3015
  667MOL0     C87951   9.382   4.478   8.253  0.2985  0.3624 -0.4444
  667MOL0     C87952   9.276   4.414   8.348 -0.4073 -0.4809  1.0099
  667MOL0     C87953   9.145   4.393   8.277  0.5278 -0.2881  0.2441
  667MOL0     C87954   9.088   4.527   8.243 -0.3941  0.3371  0.0256
  667MOL0     C87955   8.933   4.517   8.243  0.1483 -0.5134 -0.2902
  667MOL0    Cl87956   8.873   4.511   8.413 -0.3612  0.0542  1.0936
  667MOL0     C87957  10.086   4.547   8.066 -0.0467 -0.2967 -0.1320
  667MOL0     C87958  10.221   4.549   8.082  0.1879 -0.0930 -0.7272
  667MOL0     O87959  10.458   4.322   8.152 -0.3293 -0.3381 -0.2918
  667MOL0     C87960  10.631   4.615   8.059 -0.1603 -0.2747  0.0877
  667MOL0     C87961  10.757   4.653   8.005  0.6108 -0.2362  0.1138
  667MOL0     N87962  11.437   5.069   7.817  0.1731 -0.5667  0.0557
  667MOL0     N87963  11.483   5.170   7.872 -0.5407 -0.0241 -0.1086
  667MOL0     C87964  11.527   5.362   9.079 -0.0112 -0.0325  0.6317
  667MOL0     C87965  11.418   5.347   9.181  0.1743 -0.3607 -0.7695
  667MOL0     C87966  10.980   5.287   9.285  0.5872 -0.3373 -0.2911
  667MOL0     C87967  10.847   5.321   9.253  0.8190  0.1901 -0.7479
  667MOL0     C87968  10.752   5.331   9.358  0.4826  0.1545  0.3790
  667MOL0     C87969  10.777   5.302   9.488 -0.4488 -0.5638 -0.2286
  667MOL0     O87970  10.679   5.303   9.586  0.2878  0.3800  0.3618
  667MOL0     C87971  10.686   5.234   9.716 -0.9292 -0.2240  0.3091
  667MOL0     C87972  10.552   5.189   9.772  0.2591  0.0613  0.5184
  667MOL0     C87973  10.454   5.297   9.812  0.8249 -0.6942  0.0771
  667MOL0     C87974  10.330   5.241   9.890  0.1655  0.1556  0.3916
  667MOL0     C87975  10.277   5.132   9.820  0.1872  1.3292 -0.4335
  667MOL0     C87976  10.241   5.029   9.765 -0.8096  0.2961 -0.4822
  667MOL0     C87977  10.915   5.277   9.523  0.3926 -0.5685  0.4869
  667MOL0     C87978  11.015   5.271   9.418  0.3893  1.2631 -1.1292
  667MOL0     H87979  11.274   5.071   9.049 -3.4768  2.4594  1.6690
  667MOL0     H87980  11.445   5.103   8.878  1.7183 -1.5620  1.1917
  667MOL0     H87981  11.652   5.125   8.788 -0.9848 -0.6517  1.8676
  667MOL0     H87982  11.808   5.186   8.862 -0.0173  2.8305  1.3772
  667MOL0     H87983  11.758   5.395   8.692 -0.2126  0.4695 -1.2268
  667MOL0     H87984  11.664   5.274   8.612  1.5038 -2.5670 -0.5279
  667MOL0     H87985  11.887   5.133   8.616 -1.7019 -0.4204  1.0941
  667MOL0     H87986  11.953   5.293   8.674 -0.2288  1.6438 -1.0283
  667MOL0     H87987  11.837   5.394   8.451 -1.6057 -0.8226 -1.8327
  667MOL0     H87988  11.990   5.303   8.444 -0.1774  0.2397 -0.1935
  667MOL0     H87989  11.776   5.105   8.414  0.0851  0.6169  0.4747
  667MOL0     H87990  11.903   5.164   8.302  0.6683  2.1406 -0.1645
  667MOL0     H87991  11.746   5.354   8.248 -1.3840  0.2607 -0.9158
  667MOL0     H87992  11.633   5.299   8.368  1.0630  0.2703 -0.1137
  667MOL0     H87993  11.734   5.160   8.103 -1.1452 -2.2155 -0.0154
  667MOL0     H87994  11.634   5.075   8.206 -0.9745 -0.3031 -1.0387
  667MOL0     H87995  11.561   5.324   8.058  3.6247  1.5849  2.8964
  667MOL0     H87996  11.458   5.243   8.177  1.2678  1.9442 -0.2249
  667MOL0     H87997  11.451   4.937   8.109 -0.4925 -0.9465 -0.2861
  667MOL0     H87998  11.436   4.745   7.892 -0.3302 -0.2929 -2.0741
  667MOL0     H87999  11.369   4.818   7.751 -2.5820 -1.0539  0.3074
  667MOL0     H88000  11.216   4.820   8.015 -0.4246 -1.1634  0.5290
  667MOL0     H88001  11.257   4.676   7.945  3.5428  0.5602 -1.0869
  667MOL0     H88002  11.120   4.895   7.787 -2.6127  1.0419  3.4146
  667MOL0     H88003  11.137   4.719   7.741 -0.8651  1.0477 -0.9361
  667MOL0     H88004  10.907   4.782   7.842 -0.1674  1.2082 -0.8726
  667MOL0     H88005  10.990   4.823   7.996 -0.7636  0.7452 -1.0740
  667MOL0     H88006  10.949   4.381   8.037 -1.7620 -2.3299 -2.0264
  667MOL0     H88007  10.732   4.302   8.146  0.4446 -0.1675 -0.8403
  667MOL0     H88008  10.244   4.474   8.410 -1.4257 -1.5260 -0.1147
  667MOL0     H88009  10.008   4.486   8.400  1.2296 -1.3511  1.1189
  667MOL0     H88010   9.757   4.612   8.325 -3.2368 -0.9885 -0.6888
  667MOL0     H88011   9.797   4.449   8.347 -0.4534 -0.0769  1.0925
  667MOL0     H88012   9.633   4.389   8.165 -3.5841  1.0095 -2.4725
  667MOL0     H88013   9.605   4.560   8.131  2.7450  2.2760  0.4857
  667MOL0     H88014   9.537   4.583   8.379 -0.9688 -2.7350  4.5888
  667MOL0     H88015   9.541   4.422   8.399  1.4278  3.6123  3.6861
  667MOL0     H88016   9.356   4.580   8.226  0.4987  0.7620  0.7873
  667MOL0     H88017   9.392   4.414   8.165  3.6216 -2.0942  1.4904
  667MOL0     H88018   9.263   4.476   8.437  2.7502  2.4846 -0.3363
  667MOL0     H88019   9.307   4.311   8.365  1.8185 -0.2667 -1.1322
  667MOL0     H88020   9.078   4.320   8.324  1.1581 -2.3247 -1.7862
  667MOL0     H88021   9.163   4.339   8.183 -1.6823  0.3699 -0.6120
  667MOL0     H88022   9.111   4.600   8.321 -4.3811  2.1381 -0.2432
  667MOL0     H88023   9.125   4.560   8.145  1.8366 -2.2404 -0.1227
  667MOL0     H88024   8.896   4.429   8.189 -0.6045 -0.1345 -0.4103
  667MOL0     H88025   8.892   4.608   8.199  2.2380  3.3387  4.7106
  667MOL0     H88026  10.044   4.569   7.969 -0.2577 -2.7614 -0.6542
  667MOL0     H88027  10.288   4.578   8.001 -0.1323 -1.8289 -1.6711
  667MOL0     H88028  10.549   4.684   8.074  1.2692  0.8968  3.3042
  667MOL0     H88029  10.749   4.758   7.978  2.1757  0.1670  1.1391
  667MOL0     H88030  11.600   5.439   9.102  0.7637 -1.8850  5.4817
  667MOL0     H88031  11.401   5.418   9.261 -0.0273  0.4039 -1.4756
  667MOL0     H88032  10.824   5.340   9.149  0.6680  2.5602 -0.3463
  667MOL0     H88033  10.650   5.354   9.330  1.3284  2.0772 -1.3893
  667MOL0     H88034  10.745   5.284   9.793 -1.7080 -0.0076  0.7842
  667MOL0     H88035  10.733   5.138   9.694 -0.5661 -0.2309  1.0885
  667MOL0     H88036  10.510   5.117   9.701 -1.4191 -2.3182  3.6505
  667MOL0     H88037  10.587   5.135   9.861  4.5456 -1.2732 -1.6917
  667MOL0     H88038  10.421   5.361   9.729 -1.5171  2.7266  3.2937
  667MOL0     H88039  10.504   5.371   9.875  3.3175 -0.4251 -2.0629
  667MOL0     H88040  10.348   5.224   9.996 -1.3147 -0.6436  0.5475
  667MOL0     H88041  10.260   5.326   9.891 -1.3729 -1.0034 -1.2065
  667MOL0     H88042  10.196   4.946   9.715  1.1607  0.2304 -2.2905
  667MOL0     H88043  10.946   5.248   9.623 -1.7568 -2.4649  0.6940
  667MOL0     H88044  11.113   5.252   9.462 -1.2913  0.0224  2.4550
  668MOL0     O88045   3.505   2.223   7.011  0.0187 -0.5780  0.9969
  668MOL0     C88046   3.587   2.146   7.059 -0.7214  0.1737 -0.5825
  668MOL0     O88047   3.559   2.044   7.145 -0.7000  0.0755  0.8946
  668MOL0     C88048   3.425   2.027   7.170 -0.7200 -0.9561 -0.0529
  668MOL0     C88049   3.357   1.947   7.076  0.1626  0.6343 -0.4314
  668MOL0     C88050   3.229   1.899   7.091 -0.4106  0.2693 -1.2265
  668MOL0     C88051   3.162   1.940   7.214 -1.0673 -0.6578  0.3302
  668MOL0     O88052   3.044   1.898   7.255  0.6477 -0.0753 -0.3549
  668MOL0     C88053   3.004   1.781   7.191  0.0296  0.2849 -0.5970
  668MOL0     C88054   2.875   1.721   7.257 -0.9498 -0.7745  0.0131
  668MOL0     C88055   2.758   1.818   7.280  0.3832  0.7869  0.0744
  668MOL0     C88056   2.639   1.749   7.351 -0.1093  0.0369  0.3729
  668MOL0     C88057   2.676   1.721   7.500 -0.3404 -0.1628 -0.8607
  668MOL0     C88058   2.568   1.651   7.581  0.3567 -0.3036 -0.3507
  668MOL0     C88059   2.464   1.757   7.639 -0.8687  0.3414  0.3326
  668MOL0     C88060   2.353   1.766   7.541 -0.3031 -0.0908 -0.3630
  668MOL0     N88061   2.235   1.688   7.591 -0.5093 -0.8224 -0.5255
  668MOL0     C88062   2.203   1.560   7.550 -0.3739 -0.8794 -2.1226
  668MOL0     C88063   2.085   1.530   7.604 -0.2235  0.4639  0.5152
  668MOL0     C88064   2.003   1.400   7.577 -0.5463 -0.5972  0.9760
  668MOL0     C88065   1.851   1.425   7.595  0.4934 -0.5473 -0.1673
  668MOL0     C88066   1.773   1.309   7.532 -0.5508  0.4904 -0.4076
  668MOL0     C88067   1.622   1.317   7.562  0.6158  0.4818  0.9566
  668MOL0     O88068   1.569   1.187   7.518  0.5057  0.2472 -0.4245
  668MOL0     C88069   1.437   1.163   7.537 -0.0178  0.7968 -0.0312
  668MOL0     C88070   1.347   1.266   7.572 -1.3551 -0.4563  0.3132
  668MOL0     C88071   1.219   1.238   7.605 -0.2956  0.5464  0.2969
  668MOL0     C88072   1.177   1.105   7.598  0.7786  1.1419 -0.7165
  668MOL0     C88073   1.044   1.082   7.663  0.9536 -0.2979  0.8461
  668MOL0     O88074   0.952   1.185   7.651 -0.9344 -0.2202 -0.6806
  668MOL0     C88075   0.818   1.164   7.662  0.7243  0.7835 -0.5227
  668MOL0     C88076   0.732   1.267   7.695 -1.3133 -0.4870 -0.5927
  668MOL0     C88077   0.597   1.254   7.688  0.2210 -0.3112  0.8337
  668MOL0     C88078   0.537   1.135   7.658  0.7813  0.5343 -0.2760
  668MOL0     O88079   0.400   1.131   7.671  0.3970  0.2474 -0.7937
  668MOL0     C88080   0.329   1.005   7.656  0.0085  0.1615 -0.3816
  668MOL0     C88081   0.184   1.017   7.713  0.3414 -0.2621  0.4268
  668MOL0     C88082   0.095   0.903   7.678 -0.2397  0.8802 -0.4341
  668MOL0     C88083  -0.042   0.916   7.740 -0.2127 -0.2766  0.1765
  668MOL0     C88084  -0.121   0.786   7.744  0.4611  0.5871 -0.9102
  668MOL0     C88085  -0.239   0.804   7.846 -0.8736  0.4550  0.7593
  668MOL0     C88086  -0.306   0.667   7.872  0.4353 -0.3561  0.4591
  668MOL0     C88087  -0.408   0.675   7.983  0.3059 -0.2142  0.0176
  668MOL0    Cl88088  -0.328   0.667   8.139  0.3912  0.1313  0.0684
  668MOL0     C88089   0.614   1.024   7.616  0.2900 -0.1774 -1.1513
  668MOL0     C88090   0.755   1.045   7.614 -0.1518 -1.0469 -0.2131
  668MOL0     O88091   1.022   0.973   7.708  0.0564  0.5256  0.2487
  668MOL0     C88092   1.264   0.999   7.566  0.4281  0.0487  0.3206
  668MOL0     C88093   1.387   1.030   7.529 -0.2809  0.5866 -0.7304
  668MOL0     N88094   2.042   1.641   7.683 -0.2790 -0.0319 -0.0450
  668MOL0     N88095   2.131   1.728   7.661 -0.4095 -0.8022 -0.6078
  668MOL0     C88096   3.233   2.030   7.305  0.2890 -0.4117  0.1304
  668MOL0     C88097   3.363   2.073   7.282  1.2396  0.6122 -1.0675
  668MOL0     C88098   3.729   2.158   7.015  0.5168 -0.2078  0.4180
  668MOL0     C88099   3.776   2.257   6.919 -0.0239 -0.0534 -0.0934
  668MOL0     C88100   3.909   2.259   6.879  0.6969  0.3889  1.1450
  668MOL0     C88101   4.006   2.159   6.916 -0.6380 -0.0930 -0.1819
  668MOL0     O88102   4.137   2.159   6.881  0.7063 -0.5151  0.3492
  668MOL0     C88103   4.184   2.275   6.819  0.3605 -0.1679 -0.1390
  668MOL0     C88104   4.339   2.273   6.837 -0.1715 -0.3879 -0.0296
  668MOL0     C88105   4.412   2.144   6.818  0.5594 -0.2662  0.0851
  668MOL0     C88106   4.557   2.167   6.761  0.8775 -0.4106 -0.6418
  668MOL0     C88107   4.662   2.097   6.829  0.1092 -1.0133  0.7720
  668MOL0     C88108   4.751   2.051   6.899 -0.4444  0.3628 -0.3295
  668MOL0     C88109   3.962   2.070   7.010 -0.2011  0.1254 -0.3678
  668MOL0     C88110   3.829   2.071   7.061 -0.0156 -0.5321  0.7712
  668MOL0     H88111   3.411   1.912   6.988  0.9998 -2.7522  1.2848
  668MOL0     H88112   3.195   1.821   7.023 -0.1259 -0.1468 -0.8967
  668MOL0     H88113   3.082   1.705   7.196 -2.3450 -2.2941 -0.2709
  668MOL0     H88114   2.985   1.796   7.084  2.5643  1.6928 -0.9212
  668MOL0     H88115   2.917   1.687   7.352  2.1670 -1.4521 -1.4797
  668MOL0     H88116   2.837   1.633   7.203  1.2475 -0.8248 -1.5950
  668MOL0     H88117   2.737   1.848   7.176  3.8214 -0.8888 -1.2397
  668MOL0     H88118   2.780   1.902   7.346 -0.7092  0.9574  0.2495
  668MOL0     H88119   2.548   1.809   7.351 -2.2277 -2.9073  1.9324
  668MOL0     H88120   2.623   1.656   7.294 -0.1967  0.8500 -0.9823
  668MOL0     H88121   2.685   1.813   7.559  4.2631 -1.5044  0.9603
  668MOL0     H88122   2.764   1.661   7.523  0.5766  2.0948  2.1395
  668MOL0     H88123   2.614   1.597   7.664  0.8761 -0.3370 -0.6563
  668MOL0     H88124   2.510   1.573   7.529 -1.2743 -0.6733  1.9019
  668MOL0     H88125   2.418   1.714   7.729  1.0186  0.0781  1.2208
  668MOL0     H88126   2.516   1.850   7.666 -1.9460  0.8948  0.5855
  668MOL0     H88127   2.379   1.732   7.440 -1.7917 -1.0497 -0.4517
  668MOL0     H88128   2.314   1.867   7.529 -3.1047 -0.9222  0.9950
  668MOL0     H88129   2.260   1.488   7.493  2.0549  1.6482 -3.1348
  668MOL0     H88130   2.048   1.326   7.644  1.5963 -0.4807 -0.2626
  668MOL0     H88131   2.016   1.361   7.475  0.8558 -1.4144  1.4399
  668MOL0     H88132   1.828   1.514   7.536 -0.5403 -0.3501  0.5147
  668MOL0     H88133   1.822   1.450   7.698  0.4613  1.1400 -0.5555
  668MOL0     H88134   1.789   1.307   7.424 -1.5759  1.2373 -0.5927
  668MOL0     H88135   1.808   1.215   7.573 -2.5592 -0.9043 -1.7143
  668MOL0     H88136   1.575   1.400   7.508 -1.0446  0.0801  1.7084
  668MOL0     H88137   1.606   1.339   7.668 -1.5888  4.0835  0.0713
  668MOL0     H88138   1.366   1.372   7.586  1.1111 -0.8901  0.7012
  668MOL0     H88139   1.164   1.329   7.627 -1.4402  0.3720 -1.6214
  668MOL0     H88140   0.775   1.363   7.717 -0.2546 -1.3357  1.2003
  668MOL0     H88141   0.539   1.345   7.704  1.4071  1.2279 -2.6519
  668MOL0     H88142   0.375   0.928   7.720  1.4310  1.0927 -0.2386
  668MOL0     H88143   0.336   0.973   7.552 -1.8284 -1.7673  0.0179
  668MOL0     H88144   0.143   1.097   7.651  2.1848 -0.1034 -0.6477
  668MOL0     H88145   0.180   1.045   7.819 -1.2120  0.2239  0.2738
  668MOL0     H88146   0.136   0.809   7.716  0.5589  0.9308 -1.1356
  668MOL0     H88147   0.083   0.895   7.570 -1.0665 -1.6291 -0.2065
  668MOL0     H88148  -0.019   0.938   7.845  0.4721 -0.3096  0.0402
  668MOL0     H88149  -0.105   0.997   7.702  1.9396  1.7212  0.6175
  668MOL0     H88150  -0.044   0.719   7.782 -0.6210 -0.4814 -0.5380
  668MOL0     H88151  -0.162   0.762   7.646 -2.5456  0.8287  0.1931
  668MOL0     H88152  -0.309   0.868   7.791  1.3175  1.4086 -1.0850
  668MOL0     H88153  -0.217   0.860   7.938 -1.0814  0.8427  0.5755
  668MOL0     H88154  -0.357   0.638   7.780 -1.0914  0.5723  0.9760
  668MOL0     H88155  -0.248   0.577   7.895 -0.4834 -1.1778 -0.3284
  668MOL0     H88156  -0.475   0.590   7.967 -0.8968  0.7874 -0.4363
  668MOL0     H88157  -0.479   0.757   7.976 -2.8385 -2.7939 -1.0172
  668MOL0     H88158   0.569   0.929   7.588 -2.0220  0.5167 -0.0953
  668MOL0     H88159   0.819   0.964   7.579 -0.2427 -1.7050  1.0522
  668MOL0     H88160   1.236   0.894   7.573  0.3648 -0.0769 -1.4316
  668MOL0     H88161   1.452   0.945   7.512 -0.5168  0.3050 -0.2551
  668MOL0     H88162   3.191   2.045   7.404  0.5471  0.6467  0.0835
  668MOL0     H88163   3.408   2.141   7.354  0.6962  0.2146 -0.3307
  668MOL0     H88164   3.707   2.322   6.866  0.4424 -0.2793 -0.9978
  668MOL0     H88165   3.942   2.331   6.805  3.2650 -0.4176  1.4412
  668MOL0     H88166   4.142   2.362   6.871  0.4152 -1.1914  1.6857
  668MOL0     H88167   4.153   2.270   6.714  3.1413 -2.5382 -0.9608
  668MOL0     H88168   4.387   2.352   6.778 -1.3147 -0.1931 -0.7474
  668MOL0     H88169   4.349   2.285   6.945 -2.7536 -1.7794  0.4619
  668MOL0     H88170   4.358   2.075   6.753  2.7393 -1.2641 -0.7625
  668MOL0     H88171   4.415   2.084   6.909  1.4769 -2.8380 -1.5150
  668MOL0     H88172   4.558   2.136   6.656 -0.3748  2.2056 -1.5054
  668MOL0     H88173   4.581   2.274   6.760  1.9569 -0.5283 -4.7285
  668MOL0     H88174   4.829   1.998   6.948  1.3642  0.8691 -2.4974
  668MOL0     H88175   4.037   2.001   7.048 -1.2157 -2.1975 -2.3119
  668MOL0     H88176   3.803   1.997   7.137  2.6097 -1.7501  0.5914
  669MOL0     O88177   2.845   8.274   3.035  0.1608 -0.6204 -0.1266
  669MOL0     C88178   2.894   8.386   3.050 -0.5498  0.4787  0.8657
  669MOL0     O88179   2.824   8.508   3.062  0.1813  0.5614 -0.0489
  669MOL0     C88180   2.699   8.516   3.012  0.2064  0.5373 -0.1532
  669MOL0     C88181   2.604   8.597   3.074  0.1226 -0.9418 -0.8319
  669MOL0     C88182   2.473   8.616   3.024  0.5190 -0.0527  0.4720
  669MOL0     C88183   2.440   8.551   2.908  0.8672 -0.9739  0.5770
  669MOL0     O88184   2.320   8.567   2.842 -0.3418  0.0484 -0.0646
  669MOL0     C88185   2.212   8.624   2.914 -0.8344 -0.0981 -0.7789
  669MOL0     C88186   2.096   8.548   2.875  0.6693  0.8449 -0.8261
  669MOL0     C88187   1.985   8.560   2.975  0.6212 -0.5928  0.0974
  669MOL0     C88188   1.861   8.483   2.932 -0.0395  0.0224  0.1845
  669MOL0     C88189   1.750   8.476   3.041 -0.2844 -0.0316  1.0034
  669MOL0     C88190   1.668   8.604   3.065  0.5217  0.2655 -0.5589
  669MOL0     C88191   1.556   8.625   2.957 -0.5575 -0.1867  0.3163
  669MOL0     C88192   1.557   8.764   2.895 -1.0316 -0.2174  0.0514
  669MOL0     N88193   1.678   8.779   2.811  0.0437 -0.1530 -0.4163
  669MOL0     C88194   1.690   8.716   2.690  0.7356  0.2154 -0.3799
  669MOL0     C88195   1.797   8.770   2.632 -0.1083 -0.9312 -0.5877
  669MOL0     C88196   1.853   8.735   2.497  0.1394 -0.1518 -0.6864
  669MOL0     C88197   1.885   8.601   2.476 -0.8938  0.2477 -0.4357
  669MOL0     C88198   1.946   8.573   2.339 -0.0142  0.1772 -0.1593
  669MOL0     C88199   2.009   8.434   2.342  0.2910  0.8314  0.6605
  669MOL0     O88200   2.115   8.443   2.425 -0.0590  0.3196 -0.2805
  669MOL0     C88201   2.242   8.479   2.392  0.6083 -0.2865  1.5600
  669MOL0     C88202   2.341   8.453   2.487  0.2880 -0.3837 -0.6321
  669MOL0     C88203   2.475   8.491   2.458  0.5099  0.0599  0.0383
  669MOL0     C88204   2.518   8.539   2.332  0.1190 -0.4731 -0.7070
  669MOL0     C88205   2.657   8.576   2.302 -0.3861 -0.5390 -0.4708
  669MOL0     O88206   2.684   8.647   2.194 -0.3131  0.0913  0.1977
  669MOL0     C88207   2.814   8.682   2.173  0.0997  0.2514 -0.4949
  669MOL0     C88208   2.868   8.793   2.232  0.5203  0.5957 -0.8085
  669MOL0     C88209   3.007   8.826   2.233  0.0104 -0.3538  0.0173
  669MOL0     C88210   3.092   8.754   2.143 -0.6204 -0.2931  0.5671
  669MOL0     O88211   3.222   8.799   2.129  0.0611  0.3612  0.4964
  669MOL0     C88212   3.289   8.766   2.007 -0.1254 -0.8493  1.0762
  669MOL0     C88213   3.418   8.843   2.011  0.4096  0.5097 -0.9110
  669MOL0     C88214   3.467   8.858   1.870  0.9188 -0.3540  0.3526
  669MOL0     C88215   3.609   8.919   1.858 -0.4331 -0.1847  0.2500
  669MOL0     C88216   3.664   8.929   1.716 -0.3702  0.1589 -0.1057
  669MOL0     C88217   3.559   8.996   1.621  0.4027 -0.2664 -0.4285
  669MOL0     C88218   3.640   9.013   1.494  0.2338  0.2584  0.7367
  669MOL0     C88219   3.699   9.152   1.474  0.2952  0.4603 -0.6255
  669MOL0    Cl88220   3.577   9.250   1.382  0.4736  0.0560 -0.3214
  669MOL0     C88221   3.045   8.638   2.078  0.0807 -0.0652 -0.5531
  669MOL0     C88222   2.904   8.609   2.098 -0.1343  0.4543 -0.1742
  669MOL0     O88223   2.739   8.538   2.382 -0.7247 -0.5438 -0.4882
  669MOL0     C88224   2.414   8.553   2.245 -0.3230  0.4218 -0.1163
  669MOL0     C88225   2.285   8.529   2.270 -0.3071  0.3484 -0.2176
  669MOL0     N88226   1.837   8.877   2.710  0.9827  0.0382  0.0490
  669MOL0     N88227   1.764   8.881   2.815  0.3275 -0.1014  0.5201
  669MOL0     C88228   2.531   8.468   2.846  0.6358  1.0132  0.3903
  669MOL0     C88229   2.664   8.453   2.894  0.4601 -0.1999  0.9083
  669MOL0     C88230   3.032   8.397   3.099 -0.2769  0.4031 -0.3535
  669MOL0     C88231   3.076   8.512   3.162 -0.4408  0.3378  0.3162
  669MOL0     C88232   3.207   8.521   3.201  0.1257  0.2770  1.1120
  669MOL0     C88233   3.300   8.411   3.184 -0.2405  0.3037  0.7132
  669MOL0     O88234   3.427   8.419   3.233  0.2867 -0.2096 -0.4935
  669MOL0     C88235   3.500   8.290   3.243 -0.2831 -0.2727  0.5581
  669MOL0     C88236   3.452   8.216   3.364  0.0140  0.3487  0.0334
  669MOL0     C88237   3.535   8.082   3.355 -0.3173 -0.2204  0.4704
  669MOL0     C88238   3.508   7.996   3.480  0.1948  0.0009  0.6415
  669MOL0     C88239   3.576   7.860   3.480  0.3865 -0.1513 -0.2383
  669MOL0     C88240   3.635   7.753   3.492 -0.2971  0.5430 -0.1480
  669MOL0     C88241   3.245   8.298   3.115  0.2481 -0.3922 -0.0991
  669MOL0     C88242   3.111   8.289   3.079  0.2145 -0.2243  0.0290
  669MOL0     H88243   2.638   8.647   3.164  0.4368 -0.1538 -1.3866
  669MOL0     H88244   2.411   8.684   3.081 -1.2042 -0.7803 -0.4541
  669MOL0     H88245   2.202   8.727   2.877  1.7370 -0.3591 -2.4215
  669MOL0     H88246   2.215   8.630   3.023 -3.0415  2.4849 -0.7291
  669MOL0     H88247   2.132   8.445   2.887  1.2517  1.1873  0.6385
  669MOL0     H88248   2.065   8.580   2.775  0.2708 -0.0815 -1.0058
  669MOL0     H88249   1.949   8.663   2.974  2.5381  0.1362 -2.0310
  669MOL0     H88250   2.005   8.521   3.076 -1.6627 -1.8934  0.1038
  669MOL0     H88251   1.824   8.523   2.838  1.1771  1.3108  0.2160
  669MOL0     H88252   1.896   8.384   2.902  1.1713 -0.0905  1.7910
  669MOL0     H88253   1.784   8.433   3.135 -1.2196  0.4573  1.5803
  669MOL0     H88254   1.678   8.401   3.007  0.1790 -1.0297  2.1691
  669MOL0     H88255   1.735   8.688   3.046 -0.3868  1.0245 -0.4361
  669MOL0     H88256   1.638   8.617   3.169 -0.8170 -0.3193 -0.8484
  669MOL0     H88257   1.575   8.557   2.873 -1.1807  2.2446 -1.9411
  669MOL0     H88258   1.455   8.614   2.997 -0.9798 -0.6065 -0.8270
  669MOL0     H88259   1.552   8.847   2.966  1.7758  0.0968  0.0014
  669MOL0     H88260   1.484   8.759   2.813  1.8379 -0.1819 -2.7083
  669MOL0     H88261   1.635   8.630   2.652  0.2071 -1.5190  3.7390
  669MOL0     H88262   1.943   8.796   2.485  1.4614 -1.5648  1.4508
  669MOL0     H88263   1.778   8.763   2.422  1.2557  1.2312 -1.3257
  669MOL0     H88264   1.792   8.545   2.491 -0.7571  0.3984  1.1157
  669MOL0     H88265   1.955   8.562   2.551 -3.2802 -3.7111  0.0375
  669MOL0     H88266   1.864   8.575   2.266 -0.2125  2.8379  0.0625
  669MOL0     H88267   2.021   8.646   2.308 -0.0368  1.3185  2.2755
  669MOL0     H88268   2.041   8.402   2.243  0.5820  0.3064  0.9213
  669MOL0     H88269   1.945   8.353   2.377 -0.3745  0.2991 -1.6050
  669MOL0     H88270   2.327   8.411   2.586 -1.1462 -1.6279 -1.3119
  669MOL0     H88271   2.553   8.471   2.530  0.6196  0.1596 -0.0513
  669MOL0     H88272   2.800   8.852   2.293  1.4311  0.6952  0.1321
  669MOL0     H88273   3.037   8.917   2.284 -2.5861  1.4725 -1.5244
  669MOL0     H88274   3.229   8.812   1.928 -0.6977  1.3846  2.7088
  669MOL0     H88275   3.312   8.660   1.995 -0.5881 -0.8259 -0.1895
  669MOL0     H88276   3.498   8.785   2.058  1.7531  2.6373 -0.4352
  669MOL0     H88277   3.399   8.939   2.059  1.7634  0.4547 -0.2395
  669MOL0     H88278   3.405   8.936   1.825  0.5995  0.3070  1.8462
  669MOL0     H88279   3.458   8.765   1.814 -2.4348  1.1418 -1.8980
  669MOL0     H88280   3.607   9.021   1.896  3.8690 -0.0221  0.5050
  669MOL0     H88281   3.688   8.866   1.913  1.3851  3.8602  1.9479
  669MOL0     H88282   3.696   8.829   1.687 -3.0743 -0.2974 -1.8473
  669MOL0     H88283   3.745   9.003   1.721 -1.6613  1.6513 -0.2883
  669MOL0     H88284   3.530   9.096   1.655 -0.5520 -0.6215 -0.1662
  669MOL0     H88285   3.472   8.930   1.613 -1.1347  1.2529  2.1826
  669MOL0     H88286   3.710   8.929   1.487 -1.0924 -1.1863  3.3354
  669MOL0     H88287   3.572   8.992   1.411  2.3403 -1.7718 -0.5749
  669MOL0     H88288   3.785   9.138   1.408 -1.1098 -1.6553 -2.1581
  669MOL0     H88289   3.719   9.208   1.565 -1.4083  3.1849 -1.7858
  669MOL0     H88290   3.103   8.571   2.015  1.0711  0.0645  0.1964
  669MOL0     H88291   2.870   8.524   2.040  1.7201 -0.1964 -0.3555
  669MOL0     H88292   2.435   8.608   2.154 -0.1151  0.4071 -0.0790
  669MOL0     H88293   2.227   8.553   2.182  1.5835 -1.2892 -2.0100
  669MOL0     H88294   2.532   8.417   2.750  0.1580  1.4394  0.1542
  669MOL0     H88295   2.733   8.386   2.844  1.0676  0.8101  0.3509
  669MOL0     H88296   3.009   8.594   3.186 -3.6403 -2.3470  1.3464
  669MOL0     H88297   3.233   8.608   3.260 -0.5158  0.5345  1.0228
  669MOL0     H88298   3.608   8.309   3.238 -0.7459  3.1445  0.7471
  669MOL0     H88299   3.492   8.225   3.156 -1.2491  1.0385 -0.3672
  669MOL0     H88300   3.476   8.278   3.451 -2.1869  1.7965 -0.3121
  669MOL0     H88301   3.346   8.192   3.359  0.3653 -1.3690  0.4426
  669MOL0     H88302   3.640   8.107   3.373 -0.3517 -0.0950  0.4961
  669MOL0     H88303   3.528   8.014   3.270 -0.1813 -3.0629  2.6048
  669MOL0     H88304   3.533   8.059   3.566  2.1202  1.4145 -0.8590
  669MOL0     H88305   3.400   7.977   3.479  0.0871  0.5346  1.2701
  669MOL0     H88306   3.685   7.658   3.493  0.0851  0.6818 -2.0419
  669MOL0     H88307   3.312   8.220   3.079 -0.2087 -0.0407 -1.7811
  669MOL0     H88308   3.075   8.201   3.027 -1.9141  1.3919 -1.4510
  670MOL0     O88309   8.148   8.988   5.335  0.3066 -0.5886  0.2554
  670MOL0     C88310   8.251   8.950   5.393 -0.1136 -0.4075 -0.0258
  670MOL0     O88311   8.261   8.842   5.487  0.4886 -0.0111 -0.1274
  670MOL0     C88312   8.156   8.755   5.511 -0.1252  0.4300  0.5813
  670MOL0     C88313   8.023   8.788   5.543 -0.2628 -0.3253  0.6543
  670MOL0     C88314   7.925   8.698   5.566 -0.0128 -0.0036  1.1751
  670MOL0     C88315   7.958   8.563   5.577 -0.4604  0.7746 -0.0210
  670MOL0     O88316   7.853   8.476   5.598  0.1395  0.1683 -0.3088
  670MOL0     C88317   7.886   8.343   5.654 -0.9812 -0.6312  0.3839
  670MOL0     C88318   7.760   8.265   5.663 -0.7626  0.2407 -0.1306
  670MOL0     C88319   7.661   8.320   5.767 -0.0453  0.1769  0.3161
  670MOL0     C88320   7.554   8.216   5.806  0.3012 -0.3238  0.8053
  670MOL0     C88321   7.451   8.284   5.900 -0.7113 -0.3074  0.6147
  670MOL0     C88322   7.340   8.191   5.942 -0.4537  0.4414  0.5966
  670MOL0     C88323   7.248   8.255   6.051  0.1961 -0.0734 -0.1915
  670MOL0     C88324   7.116   8.170   6.086 -0.2358  0.4385 -0.8321
  670MOL0     N88325   7.134   8.040   6.163 -0.8478 -0.5694 -0.2030
  670MOL0     C88326   7.062   7.931   6.138  0.2951 -0.0065  0.5629
  670MOL0     C88327   7.079   7.844   6.241  0.1351 -0.7550  0.0315
  670MOL0     C88328   7.018   7.707   6.252  0.1254 -0.4178 -0.7256
  670MOL0     C88329   6.913   7.667   6.145  0.2541  0.4144  0.2810
  670MOL0     C88330   6.827   7.546   6.189 -0.3995  0.2468  0.1882
  670MOL0     C88331   6.698   7.562   6.266  0.5260 -0.9625  0.3628
  670MOL0     O88332   6.591   7.626   6.192  0.1003  0.6155 -0.4902
  670MOL0     C88333   6.475   7.557   6.183  0.4737  0.2685  0.3096
  670MOL0     C88334   6.365   7.612   6.246 -0.6591 -0.4089 -1.1215
  670MOL0     C88335   6.236   7.568   6.235 -0.2103  0.3394  0.0005
  670MOL0     C88336   6.211   7.450   6.163  0.4052 -0.2194  0.1725
  670MOL0     C88337   6.067   7.414   6.133  0.5130  0.3028  0.4961
  670MOL0     O88338   6.037   7.320   6.036 -0.6388 -0.6309 -0.5380
  670MOL0     C88339   5.912   7.278   6.019 -0.6593  0.5095  0.7321
  670MOL0     C88340   5.844   7.285   5.897 -0.5462  0.2245  0.1062
  670MOL0     C88341   5.722   7.223   5.862  1.1194 -0.2387 -0.0108
  670MOL0     C88342   5.664   7.140   5.952  0.1024  0.3553  0.3459
  670MOL0     O88343   5.552   7.062   5.934  0.5736 -0.2311 -0.7875
  670MOL0     C88344   5.453   7.072   6.040  0.4201 -0.6887 -0.1342
  670MOL0     C88345   5.312   7.036   5.988 -0.2492 -0.1794 -0.1494
  670MOL0     C88346   5.203   7.032   6.097 -0.0119  0.5595 -0.2369
  670MOL0     C88347   5.079   6.999   6.026  0.3286 -0.2858  0.0334
  670MOL0     C88348   4.958   6.951   6.103 -0.1341  0.2671  0.5102
  670MOL0     C88349   4.823   6.946   6.022  0.2896 -1.0911 -0.1962
  670MOL0     C88350   4.730   6.846   6.091  0.4908  0.1834  0.8268
  670MOL0     C88351   4.594   6.867   6.028 -0.3833 -0.4467 -0.2265
  670MOL0    Cl88352   4.592   6.808   5.863 -0.2124  0.3959  0.5448
  670MOL0     C88353   5.725   7.130   6.075  0.0518 -0.3896  0.1111
  670MOL0     C88354   5.847   7.191   6.114 -1.1491  0.3526  0.5555
  670MOL0     O88355   5.988   7.485   6.194  0.7478 -0.0352  0.3838
  670MOL0     C88356   6.317   7.388   6.094 -0.1312 -0.0557 -0.3714
  670MOL0     C88357   6.447   7.443   6.101  0.1668 -0.1533 -0.6167
  670MOL0     N88358   7.172   7.907   6.329 -0.6807  0.2517 -0.0590
  670MOL0     N88359   7.205   8.018   6.273 -0.4619 -0.0584  0.5139
  670MOL0     C88360   8.086   8.524   5.539  1.1762 -0.2523 -0.0784
  670MOL0     C88361   8.181   8.618   5.501  0.1094  0.0560  0.0546
  670MOL0     C88362   8.372   9.027   5.368  0.1633 -0.1238  0.4029
  670MOL0     C88363   8.376   9.135   5.276  0.6364 -0.8280  0.1060
  670MOL0     C88364   8.498   9.201   5.260 -0.3828  0.0958  0.3081
  670MOL0     C88365   8.617   9.150   5.304  0.2228 -0.7238  0.8593
  670MOL0     O88366   8.727   9.206   5.248 -0.3407 -0.1450  1.0246
  670MOL0     C88367   8.828   9.101   5.207 -0.3064 -0.3697  0.3454
  670MOL0     C88368   8.952   9.175   5.157 -0.6263 -0.0008 -0.0440
  670MOL0     C88369   9.017   9.273   5.255  0.1887 -0.7895 -0.7343
  670MOL0     C88370   9.104   9.209   5.357  0.7677  1.2175  0.4738
  670MOL0     C88371   9.204   9.114   5.300  0.9622 -0.9486  0.4116
  670MOL0     C88372   9.292   9.049   5.258  0.2727  0.4308  0.5318
  670MOL0     C88373   8.608   9.045   5.404  0.1731  0.1918 -0.3139
  670MOL0     C88374   8.485   8.985   5.432 -0.8061  0.1361 -0.3446
  670MOL0     H88375   7.982   8.888   5.534  1.3987  0.3528  0.2093
  670MOL0     H88376   7.821   8.728   5.571 -0.1113  0.4230 -1.8276
  670MOL0     H88377   7.928   8.351   5.754  3.0515  2.4144 -1.2673
  670MOL0     H88378   7.947   8.289   5.581 -0.4953 -0.5834  0.7498
  670MOL0     H88379   7.796   8.173   5.709 -0.5947  0.9485  1.2206
  670MOL0     H88380   7.712   8.255   5.565  0.3102  0.4395 -0.6849
  670MOL0     H88381   7.611   8.411   5.733  1.7692  0.9995 -0.2408
  670MOL0     H88382   7.719   8.337   5.858  1.6761  0.8508 -0.8514
  670MOL0     H88383   7.506   8.188   5.712  2.5739  0.5746 -0.7220
  670MOL0     H88384   7.603   8.127   5.847  0.0144 -0.9668 -0.1998
  670MOL0     H88385   7.418   8.381   5.863  2.5500  0.5048 -0.4649
  670MOL0     H88386   7.514   8.324   5.979  1.0173  1.7862 -1.6954
  670MOL0     H88387   7.375   8.094   5.981  1.5797  0.6724 -0.4912
  670MOL0     H88388   7.283   8.181   5.849  2.4154 -0.1540 -1.2393
  670MOL0     H88389   7.302   8.275   6.144  1.6455  1.1046 -1.2356
  670MOL0     H88390   7.217   8.354   6.016  2.8525  0.5295 -1.1080
  670MOL0     H88391   7.067   8.145   5.992  1.7296  0.8548 -2.0391
  670MOL0     H88392   7.054   8.243   6.138  1.2530  1.5799 -0.5790
  670MOL0     H88393   6.991   7.915   6.058 -1.5522  0.6326  1.9965
  670MOL0     H88394   6.963   7.722   6.346 -0.9317 -2.7622 -0.8946
  670MOL0     H88395   7.090   7.628   6.276 -2.2256 -1.9566  2.0681
  670MOL0     H88396   6.970   7.637   6.057 -3.2131 -0.0987 -1.9837
  670MOL0     H88397   6.856   7.755   6.113  1.4306  0.7732 -0.9301
  670MOL0     H88398   6.813   7.484   6.100  0.9258  1.6628 -1.0780
  670MOL0     H88399   6.896   7.484   6.246  0.6750  2.3851  1.3263
  670MOL0     H88400   6.719   7.612   6.361 -1.5366 -1.4116  1.1176
  670MOL0     H88401   6.671   7.458   6.289  1.2357 -1.4140 -0.7381
  670MOL0     H88402   6.388   7.693   6.315 -2.0649 -1.7739  1.0628
  670MOL0     H88403   6.161   7.619   6.294  1.5651 -0.4617  3.2450
  670MOL0     H88404   5.883   7.337   5.810 -1.3812  0.7256  0.0137
  670MOL0     H88405   5.678   7.228   5.763 -0.6335  0.2569  0.7533
  670MOL0     H88406   5.445   7.174   6.078 -4.6908 -0.0402 -2.0691
  670MOL0     H88407   5.489   7.004   6.118 -1.9627 -0.8245  0.9407
  670MOL0     H88408   5.328   6.943   5.931 -1.3861 -0.8205  0.5460
  670MOL0     H88409   5.280   7.119   5.925  3.8136  1.7045 -0.0444
  670MOL0     H88410   5.195   7.131   6.143  0.8787 -0.4745  2.3600
  670MOL0     H88411   5.235   6.956   6.169  2.0177 -0.5351 -2.1810
  670MOL0     H88412   5.053   7.083   5.961 -1.0082 -0.8062 -0.1250
  670MOL0     H88413   5.105   6.926   5.949  1.9893  1.0436 -0.7565
  670MOL0     H88414   4.947   7.006   6.197  0.8946  0.2313  0.6675
  670MOL0     H88415   4.980   6.848   6.135  0.7322 -0.3168 -1.7791
  670MOL0     H88416   4.838   6.902   5.923 -2.8446 -1.3115 -0.6596
  670MOL0     H88417   4.780   7.044   6.003  0.3846 -1.2888 -1.4848
  670MOL0     H88418   4.764   6.743   6.083  1.6301  0.4946  1.5154
  670MOL0     H88419   4.716   6.881   6.194  0.3639 -0.6054  1.0848
  670MOL0     H88420   4.564   6.972   6.034 -1.0331 -0.5810 -0.9289
  670MOL0     H88421   4.512   6.817   6.082  0.1488  0.1164  1.1538
  670MOL0     H88422   5.677   7.057   6.139 -0.0509 -0.5214 -0.1163
  670MOL0     H88423   5.886   7.164   6.212 -2.8859 -2.5464  0.5466
  670MOL0     H88424   6.307   7.300   6.032  0.0842 -2.3208  2.5943
  670MOL0     H88425   6.528   7.390   6.051  1.7413  0.1383  1.4873
  670MOL0     H88426   8.110   8.418   5.530 -1.4820 -0.8109 -1.7522
  670MOL0     H88427   8.274   8.574   5.466  0.7486  1.0221  0.4906
  670MOL0     H88428   8.292   9.169   5.217  2.2224  2.6860 -0.4295
  670MOL0     H88429   8.509   9.285   5.192  2.1168 -0.5930 -0.2357
  670MOL0     H88430   8.781   9.042   5.128  2.1237 -0.2869 -1.2491
  670MOL0     H88431   8.838   9.029   5.289 -1.3911 -0.1027  0.7371
  670MOL0     H88432   9.022   9.103   5.112  0.5198  0.3610  1.0924
  670MOL0     H88433   8.921   9.231   5.068  0.8851 -0.4760 -0.9242
  670MOL0     H88434   8.935   9.333   5.296  0.2205  0.0013 -1.8084
  670MOL0     H88435   9.080   9.342   5.199 -0.1004  0.8502  0.8746
  670MOL0     H88436   9.153   9.284   5.418  0.0782  2.4757 -0.4669
  670MOL0     H88437   9.040   9.141   5.414  2.4734 -2.2733 -1.4075
  670MOL0     H88438   9.362   8.981   5.213 -1.0887 -1.3926  1.0231
  670MOL0     H88439   8.695   9.001   5.451 -0.2454  0.5729  0.8399
  670MOL0     H88440   8.481   8.896   5.495  0.0322  0.5075  0.2597
  671MOL0     O88441   4.797   0.781   8.168  0.0036  0.1004  0.0678
  671MOL0     C88442   4.768   0.804   8.051  0.1361  0.5741 -0.6126
  671MOL0     O88443   4.644   0.774   8.006 -0.2987 -0.4761 -0.2505
  671MOL0     C88444   4.556   0.711   8.094 -0.4174 -0.8583  0.5843
  671MOL0     C88445   4.572   0.578   8.140 -0.8873 -0.6177  0.0033
  671MOL0     C88446   4.481   0.517   8.225 -0.0078 -0.6620 -0.3129
  671MOL0     C88447   4.362   0.585   8.260 -0.1963 -0.2190 -0.3425
  671MOL0     O88448   4.271   0.522   8.336 -0.2261  0.8902  0.0250
  671MOL0     C88449   4.174   0.607   8.407  0.0186 -0.5379  0.2750
  671MOL0     C88450   4.080   0.504   8.476 -0.2539  1.4058  0.2945
  671MOL0     C88451   3.965   0.582   8.544 -0.5207 -0.4319 -0.3183
  671MOL0     C88452   3.858   0.637   8.444  0.0419 -0.5511 -0.0048
  671MOL0     C88453   3.745   0.530   8.415  0.1380 -0.2484 -0.2529
  671MOL0     C88454   3.645   0.496   8.532  0.7761  0.9142  0.5331
  671MOL0     C88455   3.550   0.377   8.482 -0.1427 -0.0743  0.2042
  671MOL0     C88456   3.427   0.433   8.399 -0.2510 -0.3783 -1.0635
  671MOL0     N88457   3.333   0.330   8.350 -0.1779 -0.6417  0.2525
  671MOL0     C88458   3.196   0.324   8.378  0.0427 -0.0768 -0.1520
  671MOL0     C88459   3.134   0.243   8.288  1.2939 -0.2532 -0.3187
  671MOL0     C88460   2.988   0.198   8.280 -0.2104  0.5650 -0.6910
  671MOL0     C88461   2.980   0.055   8.222  0.3649  0.1190  0.4658
  671MOL0     C88462   2.840   0.015   8.178 -0.5071  0.2685 -0.5090
  671MOL0     C88463   2.829  -0.134   8.145  0.1618 -0.1565  0.1248
  671MOL0     O88464   2.696  -0.169   8.118  0.2930  0.4838  0.0662
  671MOL0     C88465   2.670  -0.295   8.065 -0.2362  0.2048 -0.8899
  671MOL0     C88466   2.769  -0.393   8.042  0.2345  0.7903  0.4653
  671MOL0     C88467   2.740  -0.520   7.978 -0.6351  0.2483 -0.3921
  671MOL0     C88468   2.613  -0.553   7.935  1.0648 -0.2941 -0.8537
  671MOL0     C88469   2.569  -0.675   7.865  0.7920  0.0894  0.6406
  671MOL0     O88470   2.440  -0.688   7.820 -0.0352  0.0254 -0.0900
  671MOL0     C88471   2.395  -0.809   7.778  0.4810 -0.6533  0.0635
  671MOL0     C88472   2.439  -0.875   7.670 -0.1320  0.2276  0.7557
  671MOL0     C88473   2.378  -0.991   7.628 -0.8182  0.2242 -0.2914
  671MOL0     C88474   2.274  -1.045   7.706  0.0029  0.2713 -0.4226
  671MOL0     O88475   2.228  -1.166   7.659 -0.4489 -0.1870 -0.0466
  671MOL0     C88476   2.111  -1.217   7.727  0.2540  0.7800 -0.1083
  671MOL0     C88477   2.052  -1.331   7.654 -0.2896  0.7270  0.5115
  671MOL0     C88478   1.917  -1.368   7.713  0.0600 -0.3528 -0.2835
  671MOL0     C88479   1.842  -1.464   7.617 -1.1026 -0.2539 -0.1929
  671MOL0     C88480   1.748  -1.569   7.675  0.3157 -0.2937  0.4095
  671MOL0     C88481   1.651  -1.504   7.776  0.7990  0.2409 -0.1602
  671MOL0     C88482   1.539  -1.603   7.827  0.3432 -0.6717 -0.2748
  671MOL0     C88483   1.462  -1.526   7.938  0.1963  0.9215 -0.4649
  671MOL0    Cl88484   1.346  -1.395   7.876  0.5499 -0.2709 -0.0536
  671MOL0     C88485   2.232  -0.984   7.821 -1.1999  1.1732 -0.8015
  671MOL0     C88486   2.294  -0.863   7.859  0.5573 -0.9916  0.1405
  671MOL0     O88487   2.653  -0.767   7.869  0.2426 -0.3522  0.6332
  671MOL0     C88488   2.508  -0.451   7.969 -0.0437  0.5325  0.1873
  671MOL0     C88489   2.545  -0.325   8.024 -0.2696 -0.1088 -0.5877
  671MOL0     N88490   3.243   0.205   8.202 -0.0995 -0.1889 -0.1680
  671MOL0     N88491   3.356   0.253   8.244 -0.2274 -0.3125  0.4416
  671MOL0     C88492   4.348   0.720   8.213 -0.6185 -0.6455  0.2428
  671MOL0     C88493   4.439   0.776   8.119  0.7416 -0.4919 -0.2212
  671MOL0     C88494   4.866   0.874   7.966 -0.0862  0.4728 -1.1701
  671MOL0     C88495   4.836   0.878   7.830 -0.3101  0.0928 -0.5637
  671MOL0     C88496   4.932   0.910   7.739 -0.4693  0.1625 -1.0644
  671MOL0     C88497   5.056   0.966   7.782  0.2367 -0.7862  0.3122
  671MOL0     O88498   5.157   1.005   7.708  0.0191  0.2937 -0.4852
  671MOL0     C88499   5.173   0.953   7.578 -0.5745 -0.8122  0.5004
  671MOL0     C88500   5.290   1.022   7.505  0.8757  0.7313 -0.0534
  671MOL0     C88501   5.296   0.965   7.361  0.1832  0.7303 -1.4536
  671MOL0     C88502   5.423   1.008   7.294 -0.7536  0.3674 -0.9819
  671MOL0     C88503   5.417   1.123   7.203 -0.0144 -0.4138  0.4641
  671MOL0     C88504   5.415   1.222   7.129  0.5373  0.6584  0.1198
  671MOL0     C88505   5.086   0.967   7.918 -0.5206 -0.1984  0.6558
  671MOL0     C88506   4.990   0.913   8.012 -0.2780  0.3813 -0.1365
  671MOL0     H88507   4.664   0.532   8.106  0.2082  1.9148 -0.7023
  671MOL0     H88508   4.502   0.419   8.265  1.0706  0.3834  1.8263
  671MOL0     H88509   4.123   0.675   8.338  2.3517  2.1288  0.9506
  671MOL0     H88510   4.218   0.679   8.478  0.9806 -0.6479 -0.2012
  671MOL0     H88511   4.145   0.446   8.542  0.1806 -0.3342 -1.5380
  671MOL0     H88512   4.045   0.438   8.395 -1.7067  0.2004  1.8274
  671MOL0     H88513   4.005   0.667   8.599 -1.6274 -1.3581  2.0686
  671MOL0     H88514   3.916   0.518   8.619 -2.5879  0.5493 -0.7474
  671MOL0     H88515   3.818   0.729   8.490  1.6251  1.3101 -2.1375
  671MOL0     H88516   3.911   0.656   8.351  1.5153 -1.6785  0.5717
  671MOL0     H88517   3.797   0.437   8.391  1.2202  0.0915  0.6913
  671MOL0     H88518   3.690   0.554   8.324 -0.9894 -0.9343  0.2255
  671MOL0     H88519   3.573   0.570   8.568 -2.1599 -1.4137 -0.2618
  671MOL0     H88520   3.707   0.477   8.620  0.1392  1.0009  1.0058
  671MOL0     H88521   3.590   0.302   8.414 -2.3351 -0.0603 -1.2032
  671MOL0     H88522   3.504   0.327   8.567 -0.6839 -1.5348 -0.9123
  671MOL0     H88523   3.466   0.481   8.308 -3.3439  1.3699 -1.6258
  671MOL0     H88524   3.376   0.510   8.458  3.6483  2.6244 -1.2300
  671MOL0     H88525   3.143   0.382   8.453  0.1147  0.7958 -0.7767
  671MOL0     H88526   2.937   0.270   8.216 -2.2300  0.4247  0.6491
  671MOL0     H88527   2.937   0.192   8.377 -0.3356 -2.7506 -0.8554
  671MOL0     H88528   3.012  -0.021   8.294 -1.3171 -1.9008 -0.7824
  671MOL0     H88529   3.044   0.044   8.134 -0.4649  1.6476 -0.3732
  671MOL0     H88530   2.767   0.041   8.255  0.2186  0.9031 -0.0226
  671MOL0     H88531   2.813   0.083   8.096 -0.5035  1.5756  0.5363
  671MOL0     H88532   2.877  -0.195   8.222 -1.8316 -0.5381  1.1264
  671MOL0     H88533   2.875  -0.153   8.047  1.8444 -0.3660  0.9057
  671MOL0     H88534   2.873  -0.369   8.061  0.4930 -0.3129  0.5469
  671MOL0     H88535   2.826  -0.582   7.954  0.6068  2.4686 -2.1101
  671MOL0     H88536   2.523  -0.838   7.613  0.7429 -1.2841  1.0218
  671MOL0     H88537   2.419  -1.063   7.558 -2.2068 -1.1678  0.2595
  671MOL0     H88538   2.036  -1.137   7.734  0.2801  0.7347  0.8172
  671MOL0     H88539   2.128  -1.249   7.830  1.4944 -0.0431 -0.5452
  671MOL0     H88540   2.117  -1.420   7.654 -0.9028  0.2726 -0.0385
  671MOL0     H88541   2.035  -1.312   7.548 -1.9849 -1.0775  0.3911
  671MOL0     H88542   1.847  -1.285   7.725 -1.4087 -1.1840 -2.5300
  671MOL0     H88543   1.932  -1.420   7.809  1.8244  0.5228 -0.0406
  671MOL0     H88544   1.784  -1.402   7.548 -1.8720  1.4402  1.8283
  671MOL0     H88545   1.925  -1.517   7.571 -1.7606 -0.3650 -1.2716
  671MOL0     H88546   1.809  -1.646   7.723 -1.5872 -1.3577  1.2557
  671MOL0     H88547   1.703  -1.625   7.592  0.5907  0.1173 -0.0218
  671MOL0     H88548   1.609  -1.409   7.743  0.4669  0.6152  1.2574
  671MOL0     H88549   1.702  -1.465   7.864 -1.0637  3.0959 -0.2371
  671MOL0     H88550   1.475  -1.636   7.745  0.4120 -1.0963 -0.1627
  671MOL0     H88551   1.590  -1.689   7.872 -2.3345 -0.8655  2.8092
  671MOL0     H88552   1.524  -1.486   8.019 -0.3704  0.8004  0.0370
  671MOL0     H88553   1.394  -1.598   7.984 -1.2866  1.1832 -2.1546
  671MOL0     H88554   2.150  -1.025   7.877 -0.4034 -2.2335 -1.8844
  671MOL0     H88555   2.271  -0.792   7.938 -1.4064  0.3210 -1.5036
  671MOL0     H88556   2.406  -0.476   7.941 -0.3479 -0.2581  1.8598
  671MOL0     H88557   2.468  -0.250   8.036  0.3664  0.3996  0.3791
  671MOL0     H88558   4.257   0.776   8.230 -1.2442 -0.9173 -1.8949
  671MOL0     H88559   4.406   0.861   8.060 -3.1017  0.3071  2.7480
  671MOL0     H88560   4.739   0.860   7.786 -0.2409 -2.4193  0.1705
  671MOL0     H88561   4.928   0.891   7.632  0.5102 -1.7321 -0.8092
  671MOL0     H88562   5.082   0.975   7.522 -0.7674 -2.1624  0.2687
  671MOL0     H88563   5.179   0.844   7.580 -4.0473 -1.1041  1.2803
  671MOL0     H88564   5.268   1.129   7.497  0.8435  0.9368  2.0965
  671MOL0     H88565   5.384   1.012   7.559  0.4424 -1.5995  0.3708
  671MOL0     H88566   5.215   1.000   7.297 -0.8948 -0.7662 -0.9554
  671MOL0     H88567   5.275   0.858   7.371  1.1693  0.6225 -0.1395
  671MOL0     H88568   5.507   1.014   7.364 -0.3132 -0.9226 -1.3764
  671MOL0     H88569   5.458   0.931   7.226 -0.2322 -1.6558  1.4189
  671MOL0     H88570   5.417   1.312   7.071 -0.3089 -1.8012 -4.1416
  671MOL0     H88571   5.176   0.999   7.969 -0.8856 -3.2581  3.6082
  671MOL0     H88572   5.018   0.910   8.117  2.4400 -2.8897 -0.7734
  672MOL0     O88573   7.136   8.245  10.679 -0.4265 -0.2506  0.6885
  672MOL0     C88574   7.142   8.168  10.771 -0.3150 -0.9028 -0.6953
  672MOL0     O88575   7.038   8.128  10.848 -0.4624 -0.2881 -0.0522
  672MOL0     C88576   6.915   8.185  10.835 -0.1664 -0.4865  0.7528
  672MOL0     C88577   6.855   8.209  10.707  0.6781 -0.5923  0.1922
  672MOL0     C88578   6.725   8.263  10.691 -0.4631 -0.8870 -0.1294
  672MOL0     C88579   6.667   8.300  10.809  0.4173 -0.5085 -1.2355
  672MOL0     O88580   6.533   8.341  10.804  0.5761 -1.1483  0.5421
  672MOL0     C88581   6.440   8.318  10.909  0.4421  0.4042 -0.3399
  672MOL0     C88582   6.302   8.336  10.858  0.8101  0.3257 -0.0286
  672MOL0     C88583   6.195   8.346  10.969 -0.7807 -0.0174 -0.7958
  672MOL0     C88584   6.193   8.221  11.067 -1.3712  0.0035  0.3807
  672MOL0     C88585   6.080   8.220  11.161  0.0942 -0.2178  0.7951
  672MOL0     C88586   6.099   8.115  11.270 -0.1996  0.5123  0.1958
  672MOL0     C88587   5.980   8.100  11.366  0.3498 -0.0950 -0.1763
  672MOL0     C88588   5.863   8.033  11.295 -0.3239 -0.2797 -0.1126
  672MOL0     N88589   5.769   7.967  11.387  0.2163 -1.4898 -0.1775
  672MOL0     C88590   5.636   7.942  11.363  0.4541  0.5116  0.1805
  672MOL0     C88591   5.591   7.870  11.466 -0.1946 -0.3377  0.1494
  672MOL0     C88592   5.455   7.813  11.469 -0.0479  0.4759 -0.5333
  672MOL0     C88593   5.449   7.692  11.377  0.2221  0.3682 -0.6988
  672MOL0     C88594   5.306   7.631  11.363  0.3747  0.1262 -0.2050
  672MOL0     C88595   5.290   7.520  11.259  0.4566  1.1410  0.8199
  672MOL0     O88596   5.162   7.523  11.198 -0.1546  0.6690  0.7935
  672MOL0     C88597   5.131   7.456  11.086  0.6379  0.1266 -0.6490
  672MOL0     C88598   5.208   7.373  11.012 -0.9033 -0.8241  0.1303
  672MOL0     C88599   5.162   7.318  10.893 -0.2228  0.0822  0.6377
  672MOL0     C88600   5.038   7.364  10.842 -0.3028 -0.0006 -0.4118
  672MOL0     C88601   4.976   7.314  10.711 -0.0530 -0.1377 -0.4350
  672MOL0     O88602   5.046   7.227  10.634 -0.7139 -0.4414 -0.3069
  672MOL0     C88603   4.985   7.164  10.527 -0.5147  0.3380 -0.1348
  672MOL0     C88604   4.950   7.029  10.535 -0.2444  0.4830 -0.2362
  672MOL0     C88605   4.913   6.958  10.427  0.1453  0.3518 -0.0540
  672MOL0     C88606   4.908   7.012  10.298 -0.5132 -0.8250 -0.8120
  672MOL0     O88607   4.871   6.945  10.188  0.7672  0.1242  0.0880
  672MOL0     C88608   4.805   6.819  10.207 -0.7037  0.4796  0.2483
  672MOL0     C88609   4.755   6.764  10.079  0.4340  0.4650 -0.5989
  672MOL0     C88610   4.671   6.643  10.101 -0.5899 -0.5351  0.0619
  672MOL0     C88611   4.647   6.554   9.976  0.9862 -0.0130 -0.3948
  672MOL0     C88612   4.558   6.428  10.005 -0.5082 -0.2852  0.0809
  672MOL0     C88613   4.448   6.406   9.900 -0.1151 -0.0240  0.6972
  672MOL0     C88614   4.360   6.287   9.927 -0.7615 -0.0474  0.6294
  672MOL0     C88615   4.418   6.161   9.860 -0.3879 -0.8803  1.2711
  672MOL0    Cl88616   4.318   6.010   9.894  0.2049 -0.2279 -0.2947
  672MOL0     C88617   4.950   7.153  10.284  0.8597  0.5825 -0.5524
  672MOL0     C88618   4.985   7.228  10.403 -0.1209  0.2286 -0.0024
  672MOL0     O88619   4.862   7.352  10.683  0.0505  0.5530  0.0209
  672MOL0     C88620   4.954   7.440  10.923 -0.6792 -0.5077  0.6100
  672MOL0     C88621   4.999   7.481  11.048  1.2872 -1.2016  0.2902
  672MOL0     N88622   5.694   7.846  11.548  0.3875  0.2577  0.2046
  672MOL0     N88623   5.802   7.914  11.503 -0.0116  0.0045 -0.5647
  672MOL0     C88624   6.723   8.278  10.938  0.2148 -0.3806  0.0021
  672MOL0     C88625   6.841   8.208  10.951  0.2578 -0.3735  0.9022
  672MOL0     C88626   7.279   8.114  10.796  0.2551 -0.3920 -0.7304
  672MOL0     C88627   7.330   8.098  10.924 -1.0828 -0.2455  0.1093
  672MOL0     C88628   7.454   8.034  10.940  0.7587 -0.7060  0.6818
  672MOL0     C88629   7.537   7.994  10.833 -0.2252 -0.6332  0.7643
  672MOL0     O88630   7.672   7.953  10.840  0.4420 -0.0924 -0.4107
  672MOL0     C88631   7.726   7.930  10.962 -0.6756 -0.0097  0.2577
  672MOL0     C88632   7.689   7.791  11.017  0.6161  0.4054 -0.5212
  672MOL0     C88633   7.670   7.791  11.165 -0.5599 -0.0990  0.2835
  672MOL0     C88634   7.664   7.648  11.231  0.4972  0.0677  0.9061
  672MOL0     C88635   7.559   7.562  11.164  0.5545 -0.6186  0.5870
  672MOL0     C88636   7.462   7.518  11.100  0.1915  0.3199  0.4749
  672MOL0     C88637   7.474   8.018  10.708 -0.6148 -0.2065 -0.2761
  672MOL0     C88638   7.355   8.081  10.689  0.6635  0.5282 -0.1097
  672MOL0     H88639   6.915   8.194  10.618  1.0791 -0.9674  0.5225
  672MOL0     H88640   6.677   8.280  10.595  1.6714  2.2279 -0.7970
  672MOL0     H88641   6.457   8.391  10.988  1.6769 -1.2010  0.9478
  672MOL0     H88642   6.447   8.218  10.954  1.3393 -1.0123 -3.2855
  672MOL0     H88643   6.284   8.253  10.790 -1.9130  1.5433 -0.9533
  672MOL0     H88644   6.291   8.430  10.804  0.7469 -0.6519 -1.7697
  672MOL0     H88645   6.096   8.349  10.922  1.4962 -2.6029 -6.9016
  672MOL0     H88646   6.197   8.440  11.025  1.6564 -0.9756  0.8545
  672MOL0     H88647   6.187   8.126  11.014 -2.4080 -0.6192  1.5455
  672MOL0     H88648   6.288   8.230  11.120 -1.3848  2.7829  0.0735
  672MOL0     H88649   5.999   8.181  11.098  2.5196 -1.1277 -1.9918
  672MOL0     H88650   6.049   8.314  11.208 -2.6411 -1.0365  0.7849
  672MOL0     H88651   6.190   8.126  11.329 -0.1555 -1.5895  0.6095
  672MOL0     H88652   6.122   8.024  11.214 -2.3925  1.6488 -2.8354
  672MOL0     H88653   6.014   8.034  11.446  3.1856 -1.2236 -2.1720
  672MOL0     H88654   5.951   8.198  11.404  2.5904  1.5799 -2.4675
  672MOL0     H88655   5.911   7.950  11.243  0.3864 -1.0464  1.6980
  672MOL0     H88656   5.804   8.095  11.227  2.1179 -2.0084 -4.2003
  672MOL0     H88657   5.571   7.962  11.278 -1.1388  2.6715  1.7835
  672MOL0     H88658   5.374   7.886  11.459 -0.9678 -0.1007  1.9724
  672MOL0     H88659   5.440   7.777  11.571 -2.1061 -1.7544 -1.5115
  672MOL0     H88660   5.518   7.621  11.424 -0.9394  1.5485  3.1848
  672MOL0     H88661   5.489   7.725  11.281 -1.1794  0.2165 -1.3652
  672MOL0     H88662   5.270   7.588  11.456  0.3829  0.7320  0.0823
  672MOL0     H88663   5.237   7.709  11.328 -2.3341 -2.7400 -1.7980
  672MOL0     H88664   5.307   7.420  11.300 -0.7015 -0.1165 -1.5787
  672MOL0     H88665   5.372   7.538  11.189  1.3924  2.0893  2.1012
  672MOL0     H88666   5.309   7.351  11.045 -0.5707  0.7905  0.3145
  672MOL0     H88667   5.208   7.233  10.844 -3.4197 -0.4114 -1.8768
  672MOL0     H88668   4.971   6.976  10.628 -0.3327  2.3047  0.8676
  672MOL0     H88669   4.879   6.855  10.439 -1.9482  1.1539  1.3611
  672MOL0     H88670   4.718   6.835  10.271  1.1681  0.6927  2.9253
  672MOL0     H88671   4.859   6.739  10.260 -0.8199  1.3890  1.7956
  672MOL0     H88672   4.839   6.733  10.016  0.5012  1.9520 -1.2764
  672MOL0     H88673   4.691   6.834  10.024  2.1558  1.3049 -1.6154
  672MOL0     H88674   4.578   6.670  10.152 -1.5823  3.0032 -3.1415
  672MOL0     H88675   4.732   6.571  10.157 -1.3626 -3.0268 -2.1026
  672MOL0     H88676   4.609   6.606   9.888  3.7045  1.2805 -0.8799
  672MOL0     H88677   4.742   6.514   9.941  1.2750 -1.9466  2.2888
  672MOL0     H88678   4.514   6.444  10.104 -0.5096  1.3085 -0.1496
  672MOL0     H88679   4.614   6.334  10.003  0.3454  0.1749 -3.1474
  672MOL0     H88680   4.490   6.400   9.799 -0.6259  2.1300  0.3104
  672MOL0     H88681   4.395   6.501   9.897 -0.1116 -0.0412 -0.0449
  672MOL0     H88682   4.352   6.269  10.035 -1.2639  1.9332  0.9743
  672MOL0     H88683   4.256   6.304   9.896 -1.8327 -0.7492  3.5022
  672MOL0     H88684   4.524   6.141   9.880 -0.0391 -1.3497 -0.7935
  672MOL0     H88685   4.408   6.171   9.751  0.4968 -1.2972  1.1439
  672MOL0     H88686   4.970   7.184  10.182  2.1225 -1.9315 -1.1626
  672MOL0     H88687   5.027   7.327  10.384  2.9044 -1.0843 -0.8290
  672MOL0     H88688   4.851   7.466  10.900  0.2165  1.4604 -1.5593
  672MOL0     H88689   4.930   7.542  11.105 -0.4068 -1.1475 -1.7130
  672MOL0     H88690   6.668   8.302  11.028  0.5519  2.0428 -0.3653
  672MOL0     H88691   6.892   8.179  11.043  0.6713 -1.7329  0.2690
  672MOL0     H88692   7.274   8.130  11.011  0.4507 -3.2422  2.3728
  672MOL0     H88693   7.489   8.011  11.041 -0.8554 -0.8619  1.2341
  672MOL0     H88694   7.691   8.002  11.036  3.0232  0.3004  1.9517
  672MOL0     H88695   7.836   7.924  10.966 -0.5860 -3.6634 -2.8956
  672MOL0     H88696   7.587   7.774  10.980 -0.7648  2.8958  1.7922
  672MOL0     H88697   7.761   7.715  10.984 -0.0163  0.4240 -2.0159
  672MOL0     H88698   7.581   7.852  11.187 -2.3295 -1.9985 -1.2250
  672MOL0     H88699   7.760   7.835  11.209  0.3311  0.2656 -1.8085
  672MOL0     H88700   7.764   7.606  11.234 -0.2311 -1.6968  1.9731
  672MOL0     H88701   7.626   7.668  11.332 -3.2193  0.8964 -0.4934
  672MOL0     H88702   7.375   7.471  11.061 -0.9737  1.0223  2.1184
  672MOL0     H88703   7.525   7.981  10.620 -1.1064  1.0378 -1.1177
  672MOL0     H88704   7.316   8.093  10.589 -0.0726 -0.9719 -0.0115
  673MOL0     O88705   2.887   1.693  10.808  0.2627  0.0342 -0.4871
  673MOL0     C88706   2.969   1.705  10.897 -0.9510  0.0475 -0.0766
  673MOL0     O88707   2.935   1.706  11.033 -0.1031  0.1889  0.8786
  673MOL0     C88708   2.800   1.681  11.057 -1.3127  0.1684 -0.1021
  673MOL0     C88709   2.770   1.548  11.091 -0.0029  0.2581 -0.5496
  673MOL0     C88710   2.645   1.530  11.139 -0.4136  0.6098  0.5137
  673MOL0     C88711   2.548   1.631  11.154 -0.3044  0.4743  0.9748
  673MOL0     O88712   2.420   1.600  11.180 -0.0925 -0.4013  0.0097
  673MOL0     C88713   2.326   1.698  11.223 -0.0480 -0.8341 -0.5998
  673MOL0     C88714   2.197   1.619  11.256  0.7961  0.5375 -0.1062
  673MOL0     C88715   2.113   1.555  11.147 -0.4368 -0.0589 -0.0697
  673MOL0     C88716   1.985   1.492  11.195 -0.2552  0.6689 -0.7104
  673MOL0     C88717   1.865   1.589  11.179 -0.6506  0.0718 -0.2913
  673MOL0     C88718   1.737   1.529  11.234 -0.8716 -0.5612  0.3131
  673MOL0     C88719   1.622   1.630  11.255  0.3208  0.0472  0.0594
  673MOL0     C88720   1.580   1.690  11.115  0.6249  0.0818  0.4138
  673MOL0     N88721   1.452   1.761  11.118  0.1301  0.2548  0.0335
  673MOL0     C88722   1.334   1.700  11.096  0.5838  0.0457  0.7571
  673MOL0     C88723   1.243   1.792  11.139 -0.2446 -1.0875 -0.1274
  673MOL0     C88724   1.090   1.780  11.149 -0.0036  0.1185  0.7084
  673MOL0     C88725   1.065   1.733  11.284 -0.5535  0.1118 -0.2848
  673MOL0     C88726   0.914   1.740  11.312 -0.6976  0.3026 -0.2155
  673MOL0     C88727   0.884   1.701  11.456 -0.6021  0.7285 -0.2265
  673MOL0     O88728   0.751   1.744  11.492  0.3218 -0.4810  0.2420
  673MOL0     C88729   0.723   1.750  11.627  0.2629 -0.2613 -0.1786
  673MOL0     C88730   0.621   1.839  11.662 -0.4632 -0.5002  0.0979
  673MOL0     C88731   0.582   1.860  11.796  0.4650 -0.1975 -0.3511
  673MOL0     C88732   0.645   1.794  11.905  0.7692  0.2904 -0.6647
  673MOL0     C88733   0.611   1.818  12.046 -0.1087  0.1142 -0.0117
  673MOL0     O88734   0.539   1.931  12.066 -0.9290  0.1703  0.6177
  673MOL0     C88735   0.521   1.978  12.191  0.7067 -0.6082 -0.4295
  673MOL0     C88736   0.628   1.996  12.282 -0.9182  0.1138  0.9458
  673MOL0     C88737   0.605   2.052  12.405 -0.6400 -0.0830 -0.6569
  673MOL0     C88738   0.483   2.116  12.427 -0.6108  0.1954 -0.6003
  673MOL0     O88739   0.480   2.184  12.547 -0.5971 -0.1217 -0.2550
  673MOL0     C88740   0.358   2.248  12.593  0.2402 -0.2027 -1.2134
  673MOL0     C88741   0.368   2.329  12.724 -0.0608 -0.0066 -0.6350
  673MOL0     C88742   0.268   2.451  12.739  0.6616 -0.3232 -1.0149
  673MOL0     C88743   0.321   2.552  12.848 -0.2795 -0.7887 -0.2658
  673MOL0     C88744   0.204   2.635  12.901  0.1489 -0.0708 -0.1923
  673MOL0     C88745   0.136   2.721  12.795 -0.6135 -0.1305 -0.8549
  673MOL0     C88746   0.067   2.843  12.865  0.4130  0.2082  0.6195
  673MOL0     C88747  -0.025   2.902  12.750  0.3586  0.2056 -0.4938
  673MOL0    Cl88748  -0.086   3.055  12.811  0.2323  0.1745  0.2972
  673MOL0     C88749   0.384   2.117  12.328 -0.4646  0.4843 -0.3448
  673MOL0     C88750   0.402   2.039  12.216 -0.1172 -0.2508 -0.5540
  673MOL0     O88751   0.658   1.746  12.139 -0.4103  0.0006 -0.2321
  673MOL0     C88752   0.737   1.703  11.865  0.2332 -0.2490 -0.3438
  673MOL0     C88753   0.778   1.676  11.733  0.8121  0.6427  0.5074
  673MOL0     N88754   1.312   1.907  11.179  0.3320 -0.0596  0.5590
  673MOL0     N88755   1.433   1.883  11.170 -0.7695  0.0105 -0.2041
  673MOL0     C88756   2.583   1.757  11.111  0.3294  0.5654 -0.0089
  673MOL0     C88757   2.708   1.781  11.060 -0.0704  0.8717 -0.3395
  673MOL0     C88758   3.111   1.711  10.859 -0.7355 -0.2327 -0.2704
  673MOL0     C88759   3.206   1.769  10.950 -0.0938  0.0947 -0.5533
  673MOL0     C88760   3.341   1.796  10.908 -0.3142  0.1106 -0.6851
  673MOL0     C88761   3.397   1.760  10.787  0.8252 -0.4645 -0.8669
  673MOL0     O88762   3.520   1.780  10.738  0.1054 -0.1822  0.6081
  673MOL0     C88763   3.624   1.740  10.832 -0.2213 -0.1587  0.6773
  673MOL0     C88764   3.756   1.693  10.766  0.6720  1.0581  0.2236
  673MOL0     C88765   3.824   1.791  10.660  0.1890 -0.1730 -0.8884
  673MOL0     C88766   3.958   1.727  10.612 -0.2557 -0.3771 -0.0778
  673MOL0     C88767   4.014   1.838  10.534  0.0902 -0.5402  0.1857
  673MOL0     C88768   4.090   1.929  10.500 -0.3352 -0.0973  0.2449
  673MOL0     C88769   3.300   1.715  10.692  0.1227  0.1390  0.1967
  673MOL0     C88770   3.161   1.690  10.726  0.3797  0.4057 -0.3475
  673MOL0     H88771   2.844   1.468  11.089  0.8983  1.0020  1.0868
  673MOL0     H88772   2.609   1.430  11.163 -0.8186  1.4594  4.0317
  673MOL0     H88773   2.301   1.758  11.134  0.0713 -1.2514 -0.9177
  673MOL0     H88774   2.362   1.768  11.299  0.6476 -0.3173 -1.3830
  673MOL0     H88775   2.138   1.691  11.313  0.6936  1.4628 -1.3553
  673MOL0     H88776   2.221   1.538  11.326 -1.2645 -1.4406 -1.5630
  673MOL0     H88777   2.179   1.480  11.102  0.4960 -1.1973  2.9030
  673MOL0     H88778   2.089   1.633  11.074 -1.8054 -0.9543 -0.5985
  673MOL0     H88779   1.969   1.398  11.142  1.7040 -0.2957  0.3102
  673MOL0     H88780   1.995   1.468  11.302 -1.0900  2.8279 -0.0798
  673MOL0     H88781   1.869   1.618  11.074 -0.9581 -3.9456 -1.5974
  673MOL0     H88782   1.876   1.681  11.238 -1.3452 -0.3337  0.4836
  673MOL0     H88783   1.770   1.501  11.334 -0.5682  0.5284  0.5326
  673MOL0     H88784   1.706   1.435  11.187 -3.2066 -0.2913  1.1751
  673MOL0     H88785   1.537   1.572  11.292 -1.0427  0.7156 -1.8668
  673MOL0     H88786   1.650   1.711  11.323 -1.1091  0.3219  0.3473
  673MOL0     H88787   1.576   1.605  11.047  2.2917 -1.7682  2.4950
  673MOL0     H88788   1.654   1.762  11.079 -0.3582  1.7780  1.6243
  673MOL0     H88789   1.318   1.600  11.058 -2.0823  0.8397 -0.4886
  673MOL0     H88790   1.062   1.713  11.067 -2.9304  1.5840  0.3802
  673MOL0     H88791   1.047   1.879  11.138  0.1486  0.0702 -0.4041
  673MOL0     H88792   1.129   1.791  11.352  1.9386 -0.5857 -1.8872
  673MOL0     H88793   1.099   1.629  11.293  0.0199  0.3958  1.1804
  673MOL0     H88794   0.887   1.846  11.311 -1.4795  0.1147 -0.3102
  673MOL0     H88795   0.843   1.692  11.243 -2.3239  2.6977 -0.3251
  673MOL0     H88796   0.959   1.754  11.515  1.0084  0.4954 -1.9489
  673MOL0     H88797   0.902   1.595  11.476  0.2982  1.2272  1.8044
  673MOL0     H88798   0.561   1.882  11.582 -0.6196 -0.3684  0.2847
  673MOL0     H88799   0.503   1.929  11.820  1.0332  0.2870  0.1498
  673MOL0     H88800   0.729   1.960  12.267 -0.8225  0.6789  0.1523
  673MOL0     H88801   0.690   2.059  12.472 -0.1976  3.2283 -1.4146
  673MOL0     H88802   0.287   2.169  12.618  0.0467  0.0253 -1.0332
  673MOL0     H88803   0.320   2.310  12.512  1.5200  0.3646 -1.4084
  673MOL0     H88804   0.471   2.363  12.714  0.0492 -0.5368 -1.3891
  673MOL0     H88805   0.347   2.269  12.813 -0.3126 -0.1875 -0.8136
  673MOL0     H88806   0.170   2.406  12.757 -0.2534  2.2665  0.9229
  673MOL0     H88807   0.262   2.500  12.641 -4.3799 -1.9566 -1.8242
  673MOL0     H88808   0.364   2.495  12.930  2.6829  2.3968  0.6327
  673MOL0     H88809   0.401   2.615  12.809 -0.4590 -2.0733 -2.9416
  673MOL0     H88810   0.237   2.696  12.986  3.0754 -3.7862  1.6462
  673MOL0     H88811   0.131   2.567  12.947 -0.0126  0.2652  0.0505
  673MOL0     H88812   0.066   2.658  12.740 -3.0963 -0.4584  2.3689
  673MOL0     H88813   0.218   2.767  12.740  1.5727  0.9591  2.9897
  673MOL0     H88814   0.003   2.808  12.947  0.2623  0.8696  0.7913
  673MOL0     H88815   0.130   2.923  12.905  1.8398  0.1244 -1.3423
  673MOL0     H88816  -0.109   2.837  12.726 -0.5144  0.0305  2.5544
  673MOL0     H88817   0.043   2.922  12.667 -1.9100  0.6191 -2.3496
  673MOL0     H88818   0.293   2.174  12.340 -0.9928 -0.6078  1.0290
  673MOL0     H88819   0.333   2.026  12.134 -0.6817 -2.1052  0.1494
  673MOL0     H88820   0.795   1.662  11.947 -0.9251 -1.8014 -0.2513
  673MOL0     H88821   0.848   1.600  11.701  1.5845  0.5904  2.1976
  673MOL0     H88822   2.517   1.843  11.105  0.7358  0.8895  0.0990
  673MOL0     H88823   2.728   1.879  11.018 -0.0511  1.0551  0.0905
  673MOL0     H88824   3.176   1.800  11.050 -3.6646 -0.8570 -1.1868
  673MOL0     H88825   3.402   1.858  10.974 -2.2429  1.4426 -0.0556
  673MOL0     H88826   3.585   1.671  10.908 -0.8803  1.0540  1.4940
  673MOL0     H88827   3.651   1.829  10.890  1.4094 -0.0481 -0.1895
  673MOL0     H88828   3.830   1.659  10.839  0.5741 -0.0171 -0.1588
  673MOL0     H88829   3.737   1.605  10.704  2.2992 -0.5054  1.8465
  673MOL0     H88830   3.839   1.892  10.700  0.1113  0.2058 -1.7892
  673MOL0     H88831   3.757   1.796  10.573  0.9208  1.6228 -1.3884
  673MOL0     H88832   4.022   1.700  10.697  1.5886  0.4056 -1.1651
  673MOL0     H88833   3.944   1.641  10.546  1.6643  0.7046 -2.0204
  673MOL0     H88834   4.157   2.009  10.473  0.2285  0.3659  2.7852
  673MOL0     H88835   3.332   1.703  10.589 -1.5074  0.8802 -0.4256
  673MOL0     H88836   3.098   1.648  10.648  0.8089 -1.3581  0.2009
  674MOL0     O88837   8.012   7.719  11.213 -0.1169  0.5063  0.4410
  674MOL0     C88838   8.110   7.766  11.266  0.1620  0.4906 -0.3950
  674MOL0     O88839   8.114   7.872  11.341 -0.0645  0.3312 -0.6470
  674MOL0     C88840   7.995   7.912  11.393  0.5464  0.0855  0.7719
  674MOL0     C88841   7.913   7.829  11.467 -0.8551 -0.5347  0.7388
  674MOL0     C88842   7.792   7.882  11.526  0.4402  0.3589 -0.2349
  674MOL0     C88843   7.760   8.017  11.515  0.0676  0.2696 -0.6523
  674MOL0     O88844   7.654   8.072  11.585  0.5330 -0.2194  0.6379
  674MOL0     C88845   7.556   7.983  11.648  0.3592 -0.0979 -0.3099
  674MOL0     C88846   7.430   8.065  11.660  0.6262  0.5250 -0.2548
  674MOL0     C88847   7.327   7.960  11.711 -0.0595 -0.6396 -0.8717
  674MOL0     C88848   7.190   8.027  11.720  1.0096 -0.6023  0.4166
  674MOL0     C88849   7.079   7.927  11.697 -0.0781 -0.4142 -0.6770
  674MOL0     C88850   7.067   7.808  11.786 -0.7122 -0.4491 -0.9907
  674MOL0     C88851   6.957   7.704  11.745  0.3828 -0.3045  0.4839
  674MOL0     C88852   6.909   7.605  11.848 -0.2046  0.2418  0.1925
  674MOL0     N88853   6.780   7.535  11.808 -0.6978  0.1594  0.5797
  674MOL0     C88854   6.656   7.587  11.820  1.0604 -0.1419  0.1575
  674MOL0     C88855   6.576   7.497  11.750  0.2628 -0.2961 -0.6694
  674MOL0     C88856   6.433   7.522  11.700  0.6878  1.2683 -0.2356
  674MOL0     C88857   6.350   7.442  11.792  0.7542 -0.5306 -0.1117
  674MOL0     C88858   6.203   7.446  11.753  0.0539 -0.0949 -0.6072
  674MOL0     C88859   6.128   7.358  11.853  0.4684 -0.1718  0.0467
  674MOL0     O88860   6.159   7.219  11.817  0.0043 -0.7103 -0.3583
  674MOL0     C88861   6.073   7.152  11.736  0.3102  0.3446  0.0901
  674MOL0     C88862   6.075   7.008  11.719 -1.3208 -0.4259  0.0146
  674MOL0     C88863   5.975   6.941  11.650  0.5457  0.3803 -0.0295
  674MOL0     C88864   5.877   7.013  11.579 -1.0373 -0.5748 -0.1727
  674MOL0     C88865   5.781   6.942  11.506  0.0600 -0.1506  0.0821
  674MOL0     O88866   5.731   7.015  11.398 -0.7298 -0.0291 -0.0020
  674MOL0     C88867   5.676   6.947  11.290 -0.0491 -0.1043  0.7905
  674MOL0     C88868   5.713   6.817  11.243 -0.1473  0.2502  0.8723
  674MOL0     C88869   5.657   6.767  11.119  0.5694  0.0256  0.1995
  674MOL0     C88870   5.557   6.837  11.054  0.3204  0.7656  0.0856
  674MOL0     O88871   5.499   6.800  10.939 -0.4537 -0.2868  0.1385
  674MOL0     C88872   5.465   6.662  10.923 -1.0029  0.2250  0.1632
  674MOL0     C88873   5.362   6.644  10.807 -0.4172  0.0482  0.3067
  674MOL0     C88874   5.324   6.499  10.775  0.7328  0.1907  0.2969
  674MOL0     C88875   5.411   6.428  10.677 -0.5027  0.1996 -0.6414
  674MOL0     C88876   5.383   6.274  10.683  1.3943 -0.9553  0.1051
  674MOL0     C88877   5.237   6.226  10.675 -0.4053  0.7786  0.8491
  674MOL0     C88878   5.175   6.274  10.539  0.1856  0.8918  0.5819
  674MOL0     C88879   5.043   6.200  10.518 -0.2130 -0.2315  0.0426
  674MOL0    Cl88880   5.060   6.024  10.471 -0.4112  0.3277 -0.0229
  674MOL0     C88881   5.534   6.972  11.097 -0.3458  0.3606 -0.8430
  674MOL0     C88882   5.591   7.022  11.211  0.7635 -0.3727  0.2984
  674MOL0     O88883   5.753   6.828  11.535 -0.1306 -0.3834 -0.7255
  674MOL0     C88884   5.886   7.150  11.576  0.3512 -0.5764  1.1689
  674MOL0     C88885   5.976   7.220  11.660  0.7619  0.2403 -0.1106
  674MOL0     N88886   6.659   7.399  11.707  0.2798  0.3622 -0.1609
  674MOL0     N88887   6.782   7.416  11.741  0.0405  0.3763 -0.1869
  674MOL0     C88888   7.851   8.098  11.463 -0.8684 -0.4799 -0.4578
  674MOL0     C88889   7.964   8.049  11.401 -0.2147  0.4178 -1.0685
  674MOL0     C88890   8.240   7.705  11.243 -0.2349  0.3123  1.2068
  674MOL0     C88891   8.247   7.586  11.168  0.2028  0.5029  0.5150
  674MOL0     C88892   8.367   7.523  11.144 -0.4795  0.7411  1.2497
  674MOL0     C88893   8.488   7.572  11.185  0.0792 -0.1351 -0.2457
  674MOL0     O88894   8.605   7.509  11.146 -0.3440  0.3530  0.1622
  674MOL0     C88895   8.727   7.558  11.188 -0.4339 -0.1889 -0.7834
  674MOL0     C88896   8.827   7.446  11.151 -0.1904 -0.1361  0.3645
  674MOL0     C88897   8.968   7.494  11.185  0.1691 -0.6740 -0.3751
  674MOL0     C88898   9.078   7.412  11.127 -0.8114 -0.1245  0.0201
  674MOL0     C88899   9.210   7.478  11.126  0.0689 -0.4757 -0.0435
  674MOL0     C88900   9.316   7.537  11.114 -0.0947 -0.1801 -0.8126
  674MOL0     C88901   8.490   7.700  11.254  0.7646  0.2199  0.5298
  674MOL0     C88902   8.363   7.762  11.283  0.6339 -0.4399  0.1644
  674MOL0     H88903   7.950   7.727  11.475 -0.8494 -0.6777 -0.8923
  674MOL0     H88904   7.734   7.812  11.586  2.1493 -0.5814  0.3746
  674MOL0     H88905   7.595   7.940  11.741 -0.0372 -1.3785 -0.7203
  674MOL0     H88906   7.534   7.890  11.596 -0.7666 -0.0985  0.1471
  674MOL0     H88907   7.401   8.101  11.560 -3.2393 -3.7264 -0.9729
  674MOL0     H88908   7.454   8.138  11.738 -0.6995 -0.3805  1.0414
  674MOL0     H88909   7.352   7.923  11.810 -0.9978  0.8055 -0.0638
  674MOL0     H88910   7.326   7.870  11.648 -0.8597 -1.3438  0.1042
  674MOL0     H88911   7.192   8.067  11.821  1.8157  2.6733 -0.7534
  674MOL0     H88912   7.179   8.111  11.650  4.0301 -1.0829 -0.7987
  674MOL0     H88913   7.094   7.883  11.598  1.2409  2.8260 -2.0364
  674MOL0     H88914   6.981   7.976  11.702  1.5041  2.8965  1.0480
  674MOL0     H88915   7.036   7.842  11.885 -3.1379 -1.1755 -1.4289
  674MOL0     H88916   7.159   7.750  11.776 -0.0007  0.8404 -2.3617
  674MOL0     H88917   6.876   7.763  11.703  1.3674 -0.7869 -2.3362
  674MOL0     H88918   6.983   7.640  11.661 -3.6690 -1.6167  0.0478
  674MOL0     H88919   6.908   7.661  11.942  0.1332 -2.1029  1.6740
  674MOL0     H88920   6.988   7.529  11.851 -1.1689 -0.7938 -0.0727
  674MOL0     H88921   6.631   7.682  11.867  1.6771 -0.6306  1.5425
  674MOL0     H88922   6.418   7.492  11.596 -1.7840  0.1567  0.3661
  674MOL0     H88923   6.400   7.626  11.694  0.0172  1.0919  0.3104
  674MOL0     H88924   6.367   7.480  11.893  2.2791  1.2593 -0.9804
  674MOL0     H88925   6.378   7.336  11.788 -0.2300 -0.8014  0.0358
  674MOL0     H88926   6.172   7.550  11.754  1.2276  0.2629  0.1979
  674MOL0     H88927   6.194   7.410  11.650 -2.4931 -1.0259 -0.1525
  674MOL0     H88928   6.024   7.390  11.859  0.5737 -0.0051  1.0428
  674MOL0     H88929   6.153   7.382  11.956 -1.4828  0.8646  0.3186
  674MOL0     H88930   6.160   6.964  11.770 -0.2043  2.5632  0.9389
  674MOL0     H88931   5.968   6.833  11.649  1.4480  0.3029 -1.4390
  674MOL0     H88932   5.796   6.762  11.286  0.7730 -0.3817 -1.5239
  674MOL0     H88933   5.694   6.680  11.065 -2.5827 -0.6716 -1.0576
  674MOL0     H88934   5.429   6.640  11.024 -0.1458  1.1436  0.6809
  674MOL0     H88935   5.556   6.607  10.899 -0.9873  1.6538 -3.8575
  674MOL0     H88936   5.389   6.696  10.715 -3.9881  1.0875 -0.3053
  674MOL0     H88937   5.280   6.706  10.845  0.4160  0.6087  1.2719
  674MOL0     H88938   5.230   6.511  10.720  1.5619  0.8309 -1.0356
  674MOL0     H88939   5.300   6.438  10.862 -0.0910  0.7548  0.4766
  674MOL0     H88940   5.385   6.459  10.575  4.4901  1.6402 -1.7968
  674MOL0     H88941   5.519   6.441  10.691 -0.4107 -1.4474  0.5161
  674MOL0     H88942   5.419   6.228  10.775  0.2638 -2.8972 -0.3647
  674MOL0     H88943   5.436   6.240  10.594  0.7447  0.4166 -0.8594
  674MOL0     H88944   5.184   6.266  10.762 -1.3343  2.1866 -0.3074
  674MOL0     H88945   5.228   6.117  10.677  0.2709  0.6275 -1.2116
  674MOL0     H88946   5.159   6.383  10.543 -0.1100  0.8184  1.6096
  674MOL0     H88947   5.231   6.242  10.450 -2.5883  0.4908 -1.1328
  674MOL0     H88948   4.976   6.245  10.444 -2.1967 -2.4965  0.3301
  674MOL0     H88949   4.988   6.215  10.612  0.8616  2.5241  0.3164
  674MOL0     H88950   5.461   7.036  11.049  1.6303  2.4713 -1.2339
  674MOL0     H88951   5.560   7.125  11.228  0.7986 -0.2026 -0.5860
  674MOL0     H88952   5.826   7.209  11.508 -0.0369  2.2103  3.7107
  674MOL0     H88953   5.972   7.327  11.644 -1.6530  0.2601  0.3562
  674MOL0     H88954   7.838   8.206  11.465 -1.6549 -0.5350  2.7580
  674MOL0     H88955   8.028   8.120  11.350  1.8143  1.4237  2.5434
  674MOL0     H88956   8.156   7.542  11.127  0.6789 -1.3200  1.3092
  674MOL0     H88957   8.360   7.431  11.088 -1.8333  1.8381 -0.4664
  674MOL0     H88958   8.737   7.556  11.297 -0.9301  0.6635 -0.7084
  674MOL0     H88959   8.754   7.654  11.144 -0.8794 -0.5659 -1.9324
  674MOL0     H88960   8.803   7.354  11.205 -2.6150  0.5349  0.5699
  674MOL0     H88961   8.827   7.430  11.043  3.3031  1.5302 -0.0026
  674MOL0     H88962   8.968   7.500  11.295  0.8139  2.3934 -0.4397
  674MOL0     H88963   8.988   7.598  11.156  2.1560 -1.0242 -0.4130
  674MOL0     H88964   9.093   7.314  11.173 -2.3204 -0.6942 -0.6215
  674MOL0     H88965   9.056   7.386  11.023  1.3400 -0.2141 -0.4656
  674MOL0     H88966   9.415   7.576  11.114  0.8739 -2.4723  0.2150
  674MOL0     H88967   8.580   7.746  11.292  0.5459  1.1771 -0.0776
  674MOL0     H88968   8.373   7.854  11.340  1.3143 -0.0447 -0.5644
  675MOL0     O88969   5.411   2.935   5.143  0.0804  0.4424  0.0776
  675MOL0     C88970   5.450   2.864   5.240 -0.1514 -0.2197  0.8028
  675MOL0     O88971   5.379   2.760   5.293 -0.4846  0.4206 -0.2516
  675MOL0     C88972   5.251   2.735   5.248  0.0335 -0.4389 -0.0570
  675MOL0     C88973   5.234   2.668   5.130  0.9785  0.1206 -0.4130
  675MOL0     C88974   5.104   2.637   5.091 -0.9814  1.0908 -0.0098
  675MOL0     C88975   4.989   2.668   5.168 -0.9656  0.4896  0.5283
  675MOL0     O88976   4.871   2.633   5.120  0.3501  0.0179  0.0148
  675MOL0     C88977   4.830   2.512   5.183  0.6472  0.3300  0.1605
  675MOL0     C88978   4.728   2.429   5.097  0.2193 -0.0746  0.0411
  675MOL0     C88979   4.762   2.432   4.948 -0.4612 -1.0364 -0.3228
  675MOL0     C88980   4.697   2.313   4.878 -0.3218  0.7138  0.5005
  675MOL0     C88981   4.541   2.322   4.866  1.1340  0.3859  0.2573
  675MOL0     C88982   4.501   2.215   4.768 -0.0313 -0.1426  0.5747
  675MOL0     C88983   4.359   2.215   4.733  0.1877 -0.6601 -0.5029
  675MOL0     C88984   4.322   2.091   4.654  0.5327  0.1705 -0.3034
  675MOL0     N88985   4.176   2.089   4.627  0.3671 -0.1623 -0.1479
  675MOL0     C88986   4.102   2.199   4.583  0.0245  0.8668 -0.5670
  675MOL0     C88987   3.974   2.143   4.562 -0.6376  0.4105  0.2605
  675MOL0     C88988   3.858   2.219   4.504 -0.5641  0.5906  0.1547
  675MOL0     C88989   3.730   2.136   4.514 -0.4659  0.5019 -0.1969
  675MOL0     C88990   3.610   2.222   4.467  0.0738 -0.3975 -0.1549
  675MOL0     C88991   3.480   2.145   4.466 -0.3458  0.6876  0.2907
  675MOL0     O88992   3.428   2.117   4.597  0.7034 -0.1083 -1.0200
  675MOL0     C88993   3.311   2.177   4.622  1.2088 -0.0467 -0.2471
  675MOL0     C88994   3.296   2.286   4.706  0.2336 -0.6554  0.1197
  675MOL0     C88995   3.181   2.364   4.718 -0.1277  0.0439  0.0405
  675MOL0     C88996   3.067   2.322   4.651 -0.2094 -0.0688  0.0408
  675MOL0     C88997   2.941   2.400   4.637 -0.5461  0.8896 -0.3061
  675MOL0     O88998   2.877   2.379   4.520  0.4428  0.6361 -0.0595
  675MOL0     C88999   2.762   2.446   4.483  0.9817 -0.5250 -0.2790
  675MOL0     C89000   2.688   2.372   4.385 -0.0963  0.1222  0.0751
  675MOL0     C89001   2.560   2.420   4.342  0.0248 -0.7323  0.1442
  675MOL0     C89002   2.511   2.545   4.372  0.3327 -0.3167  0.4502
  675MOL0     O89003   2.387   2.597   4.336  0.2271  0.1459  0.6877
  675MOL0     C89004   2.383   2.739   4.300  0.0244  0.8425  0.3679
  675MOL0     C89005   2.248   2.776   4.243  0.9240  0.4068 -0.1662
  675MOL0     C89006   2.212   2.704   4.109 -0.0093 -0.6823 -0.6102
  675MOL0     C89007   2.066   2.759   4.059  0.0192  0.0249 -0.1629
  675MOL0     C89008   2.007   2.676   3.944 -0.6116  0.2655  0.6760
  675MOL0     C89009   2.059   2.710   3.808  0.3862 -0.1544  0.7565
  675MOL0     C89010   2.019   2.610   3.699  0.0534  0.2754 -1.1783
  675MOL0     C89011   2.059   2.652   3.562 -0.5114 -0.6586 -0.4180
  675MOL0    Cl89012   1.978   2.565   3.433  0.6146 -0.3754 -0.2565
  675MOL0     C89013   2.583   2.614   4.476 -0.1692  0.5070 -0.0739
  675MOL0     C89014   2.711   2.574   4.520  0.6901 -0.0048  0.6779
  675MOL0     O89015   2.909   2.479   4.726 -0.6122 -0.6427  0.3777
  675MOL0     C89016   3.082   2.207   4.569 -0.1609  0.1475 -0.9873
  675MOL0     C89017   3.201   2.134   4.557  0.1890 -0.0531  0.0270
  675MOL0     N89018   3.986   2.005   4.585 -0.2226 -0.1454  0.0493
  675MOL0     N89019   4.103   1.970   4.632  0.3859  0.2343  0.1476
  675MOL0     C89020   5.011   2.748   5.278 -1.5067  0.1534  0.1842
  675MOL0     C89021   5.142   2.774   5.327  0.0993 -0.2886  0.7156
  675MOL0     C89022   5.580   2.914   5.303  1.6273  0.6317 -1.0527
  675MOL0     C89023   5.661   3.000   5.234 -0.2140  0.4623  0.1174
  675MOL0     C89024   5.784   3.049   5.284 -0.3425  0.2205 -0.6037
  675MOL0     C89025   5.832   2.996   5.405  0.0257 -0.1812  0.0834
  675MOL0     O89026   5.947   3.038   5.464  0.7072 -0.0550 -0.1021
  675MOL0     C89027   6.010   3.151   5.423  0.0942  1.3665 -0.1596
  675MOL0     C89028   6.124   3.191   5.525 -0.4926 -0.5354  0.1350
  675MOL0     C89029   6.255   3.245   5.466  0.4739 -0.3922  0.6646
  675MOL0     C89030   6.252   3.400   5.462 -0.5335 -0.4523  0.2409
  675MOL0     C89031   6.387   3.440   5.423  0.0087  0.3827  0.2892
  675MOL0     C89032   6.495   3.483   5.397 -0.0293  0.6175  0.0057
  675MOL0     C89033   5.760   2.901   5.484  0.4277 -0.1704 -0.3355
  675MOL0     C89034   5.627   2.868   5.431  0.0005 -0.2037 -0.2364
  675MOL0     H89035   5.315   2.620   5.075 -0.4955  0.4411 -3.0400
  675MOL0     H89036   5.096   2.586   4.996  3.6192  0.6171 -0.3882
  675MOL0     H89037   4.777   2.534   5.277 -3.4464 -2.3159 -1.2723
  675MOL0     H89038   4.909   2.439   5.203 -2.8137 -3.7860  0.3067
  675MOL0     H89039   4.631   2.478   5.109 -0.1586 -0.8488  0.1672
  675MOL0     H89040   4.736   2.330   5.142  1.4278 -0.0217 -0.0157
  675MOL0     H89041   4.869   2.424   4.932  0.1330  0.9119  2.0821
  675MOL0     H89042   4.732   2.528   4.904  1.0836 -0.4508 -0.1508
  675MOL0     H89043   4.737   2.325   4.778  0.8712  2.1560  1.1086
  675MOL0     H89044   4.724   2.212   4.909 -0.1645  0.2688 -1.0538
  675MOL0     H89045   4.509   2.418   4.823  0.2956  0.2984  0.6674
  675MOL0     H89046   4.502   2.303   4.967  2.0833  2.6534  1.1184
  675MOL0     H89047   4.509   2.118   4.817 -5.4396 -0.4887  1.4175
  675MOL0     H89048   4.561   2.221   4.677 -0.7508  0.0731  0.1019
  675MOL0     H89049   4.308   2.201   4.829  0.1912  3.1892  0.2001
  675MOL0     H89050   4.340   2.313   4.688 -0.8026  0.4700  2.2123
  675MOL0     H89051   4.335   2.001   4.715  3.4093 -0.1440 -1.2017
  675MOL0     H89052   4.375   2.083   4.559 -1.8166 -2.7389 -1.5426
  675MOL0     H89053   4.146   2.298   4.574  2.2379 -0.1105 -1.2595
  675MOL0     H89054   3.879   2.252   4.402 -2.5746  0.3288 -0.4056
  675MOL0     H89055   3.833   2.308   4.562 -1.0033 -0.3845  1.5344
  675MOL0     H89056   3.719   2.105   4.618 -0.1642  2.1703  0.3613
  675MOL0     H89057   3.738   2.047   4.450 -1.6889  0.1394  0.1139
  675MOL0     H89058   3.604   2.305   4.537  0.5962  2.0784 -2.8603
  675MOL0     H89059   3.623   2.260   4.366 -0.1670 -0.2462 -0.1294
  675MOL0     H89060   3.493   2.051   4.411 -0.1330  0.9173 -0.0602
  675MOL0     H89061   3.411   2.208   4.409 -0.9766 -1.1809 -1.1222
  675MOL0     H89062   3.389   2.323   4.749 -0.4659 -0.6611  1.7209
  675MOL0     H89063   3.186   2.453   4.781 -2.1351  0.0962  0.2103
  675MOL0     H89064   2.721   2.273   4.353 -1.0783  0.0063 -0.6303
  675MOL0     H89065   2.496   2.366   4.274 -0.6256  0.3296 -0.1011
  675MOL0     H89066   2.458   2.747   4.221  0.5584 -1.0876  0.6199
  675MOL0     H89067   2.413   2.810   4.377  2.1029  0.0733  0.3513
  675MOL0     H89068   2.247   2.880   4.212 -1.5638  0.9087  1.3197
  675MOL0     H89069   2.168   2.779   4.318  0.8737 -3.4594  0.1567
  675MOL0     H89070   2.207   2.595   4.112 -0.1540 -0.7955 -2.9014
  675MOL0     H89071   2.289   2.735   4.037  0.0994 -0.8709 -0.5760
  675MOL0     H89072   1.992   2.739   4.136 -2.7716 -1.0853 -2.9209
  675MOL0     H89073   2.060   2.867   4.043 -2.1659  0.6854  3.9202
  675MOL0     H89074   1.898   2.683   3.944 -0.6117  0.2970  1.3398
  675MOL0     H89075   2.020   2.571   3.971 -1.9874  0.5135  2.4785
  675MOL0     H89076   2.168   2.707   3.819  0.2384 -0.9277  2.0938
  675MOL0     H89077   2.027   2.812   3.784  1.4043 -0.1703 -0.8133
  675MOL0     H89078   2.067   2.514   3.722  1.3617  1.5731  2.1928
  675MOL0     H89079   1.912   2.590   3.690 -0.1987  1.1124 -0.1352
  675MOL0     H89080   2.166   2.641   3.546  0.4885  4.0834  1.3699
  675MOL0     H89081   2.031   2.757   3.545 -0.4971 -0.6220 -0.2235
  675MOL0     H89082   2.548   2.705   4.524 -2.9329 -0.6843  0.3595
  675MOL0     H89083   2.763   2.637   4.591  2.4146  0.5595 -1.0041
  675MOL0     H89084   2.994   2.166   4.521 -0.6354  0.4503 -0.3907
  675MOL0     H89085   3.206   2.051   4.487  0.5715  0.6541 -0.8031
  675MOL0     H89086   4.935   2.757   5.355 -2.0579 -1.7443 -0.0945
  675MOL0     H89087   5.168   2.831   5.415 -0.5358  0.8959  0.1522
  675MOL0     H89088   5.632   3.033   5.134 -1.9092 -2.2545 -0.3762
  675MOL0     H89089   5.848   3.118   5.230 -1.3069  1.8444  0.2554
  675MOL0     H89090   5.937   3.233   5.423  0.4675  1.7053  0.1775
  675MOL0     H89091   6.046   3.134   5.322 -1.2996  0.4939 -0.5360
  675MOL0     H89092   6.075   3.252   5.601 -1.2918 -1.6885  0.5680
  675MOL0     H89093   6.156   3.107   5.587  2.3379  1.6826  1.9363
  675MOL0     H89094   6.271   3.205   5.365  1.6092 -1.7403  1.3528
  675MOL0     H89095   6.336   3.215   5.532  1.7949 -1.6223 -1.3946
  675MOL0     H89096   6.180   3.434   5.387  2.0000 -1.2153 -2.6994
  675MOL0     H89097   6.226   3.442   5.560  0.5594 -0.6336  0.6134
  675MOL0     H89098   6.587   3.534   5.377  0.1656  0.8882  1.4518
  675MOL0     H89099   5.798   2.871   5.581 -0.8603  1.0611  0.5926
  675MOL0     H89100   5.571   2.795   5.488 -0.3722 -0.3542 -0.7895
  676MOL0     O89101   9.471   6.087  10.528  0.0891  0.3974 -0.0498
  676MOL0     C89102   9.424   6.010  10.612  0.5029  0.0165  0.2394
  676MOL0     O89103   9.493   5.905  10.664 -0.7540  0.3569  0.5030
  676MOL0     C89104   9.628   5.891  10.646  0.0178 -0.3086 -0.4332
  676MOL0     C89105   9.712   5.898  10.768  0.3977  0.5496 -0.2646
  676MOL0     C89106   9.846   5.907  10.767  0.5344  0.5867  0.3573
  676MOL0     C89107   9.907   5.900  10.647 -0.1288  0.5257 -0.0149
  676MOL0     O89108  10.043   5.921  10.663  0.3963 -0.0015 -0.1053
  676MOL0     C89109  10.131   5.922  10.555  0.6515 -0.1136 -0.0364
  676MOL0     C89110  10.203   5.791  10.530 -0.1477 -0.3088 -0.2832
  676MOL0     C89111  10.107   5.674  10.560 -0.2686  0.5565 -0.2252
  676MOL0     C89112  10.169   5.539  10.527 -0.2251  0.0704 -0.4329
  676MOL0     C89113  10.076   5.421  10.578 -0.2334  0.0058  0.9192
  676MOL0     C89114  10.139   5.286  10.561 -0.5069  0.0420  0.1712
  676MOL0     C89115  10.273   5.271  10.636  0.3097  0.6425  0.2155
  676MOL0     C89116  10.269   5.248  10.787  0.4973 -0.6711 -0.4414
  676MOL0     N89117  10.173   5.155  10.844 -0.6229  0.0545  0.8125
  676MOL0     C89118  10.041   5.182  10.868 -0.4443 -0.5722  0.1641
  676MOL0     C89119   9.997   5.062  10.921 -0.1827  0.9759  0.0586
  676MOL0     C89120   9.865   5.018  10.975 -0.5421 -0.6321 -0.4612
  676MOL0     C89121   9.871   5.020  11.128  0.7855 -0.4860  0.3473
  676MOL0     C89122   9.729   4.984  11.166  0.1641  0.1185  0.4701
  676MOL0     C89123   9.702   5.017  11.310 -0.0926 -0.3052  0.3817
  676MOL0     O89124   9.707   4.905  11.390 -0.1246  0.3994  0.4333
  676MOL0     C89125   9.586   4.843  11.408 -0.5430 -0.0450  0.3048
  676MOL0     C89126   9.476   4.903  11.482 -0.0514 -0.4103  0.2954
  676MOL0     C89127   9.350   4.836  11.480 -0.5158  0.1263 -0.2734
  676MOL0     C89128   9.331   4.712  11.430  0.0485  0.7632  1.1598
  676MOL0     C89129   9.204   4.647  11.426  0.1104  0.0521  0.3109
  676MOL0     O89130   9.204   4.526  11.368  0.5844  1.0450 -0.4227
  676MOL0     C89131   9.074   4.465  11.356  0.1821 -0.8849 -0.3831
  676MOL0     C89132   9.010   4.420  11.484 -0.4300  1.5500 -0.1352
  676MOL0     C89133   8.877   4.377  11.482  0.3750 -0.6271  0.2291
  676MOL0     C89134   8.810   4.370  11.364  0.0208  0.0313 -0.7203
  676MOL0     O89135   8.686   4.311  11.374  0.4436  0.3349 -0.2136
  676MOL0     C89136   8.588   4.372  11.292  0.1008 -0.1979 -0.9184
  676MOL0     C89137   8.447   4.317  11.329  0.4342 -0.3015 -0.3677
  676MOL0     C89138   8.344   4.335  11.222  0.5624  0.8516 -0.3213
  676MOL0     C89139   8.206   4.272  11.259  0.1612  0.4375  0.0988
  676MOL0     C89140   8.116   4.298  11.137 -0.0210  0.1699 -0.2510
  676MOL0     C89141   7.971   4.250  11.146 -0.1407  0.4066  0.2164
  676MOL0     C89142   7.895   4.316  11.025 -0.3969 -0.4498 -0.3361
  676MOL0     C89143   7.759   4.255  11.035 -0.4197  0.3042  0.3282
  676MOL0    Cl89144   7.677   4.328  11.174  0.2293  0.0733 -0.1455
  676MOL0     C89145   8.866   4.425  11.242  0.2264  0.7374 -0.0429
  676MOL0     C89146   9.003   4.470  11.233  0.4116  0.1996  0.0821
  676MOL0     O89147   9.108   4.702  11.467  0.6959 -0.5967 -0.1650
  676MOL0     C89148   9.446   4.652  11.366 -0.4187  0.1749  0.5704
  676MOL0     C89149   9.565   4.718  11.347 -0.3947 -0.2673  0.2780
  676MOL0     N89150  10.101   4.968  10.922 -0.0209  0.8881 -0.4471
  676MOL0     N89151  10.204   5.027  10.878  0.2075  0.4130  0.5060
  676MOL0     C89152   9.838   5.877  10.525  0.9063 -1.1811 -0.1800
  676MOL0     C89153   9.701   5.880  10.530  0.3762  0.4663 -0.3946
  676MOL0     C89154   9.289   6.046  10.659 -0.0738 -0.1709  0.0583
  676MOL0     C89155   9.206   6.126  10.578 -0.1756 -0.9565 -0.3713
  676MOL0     C89156   9.081   6.161  10.620 -0.0556 -1.4640  0.1378
  676MOL0     C89157   9.022   6.108  10.737 -0.2735 -0.8540  0.4131
  676MOL0     O89158   8.883   6.121  10.758  0.3767  0.2738  0.7065
  676MOL0     C89159   8.837   6.085  10.894  0.4574 -0.3397 -0.7602
  676MOL0     C89160   8.681   6.101  10.909 -0.3740  0.7479  0.6367
  676MOL0     C89161   8.622   6.249  10.900 -0.9153  0.2741 -1.1132
  676MOL0     C89162   8.478   6.242  10.856 -0.4504  1.2146 -0.7322
  676MOL0     C89163   8.413   6.365  10.889  0.0013 -0.6052 -0.3734
  676MOL0     C89164   8.355   6.469  10.921  0.3378 -0.2681 -0.2394
  676MOL0     C89165   9.106   6.041  10.821  0.2426  0.6873 -0.1026
  676MOL0     C89166   9.241   6.012  10.782 -0.9015 -0.7658 -1.2249
  676MOL0     H89167   9.655   5.909  10.860 -0.1340  2.7509 -0.8065
  676MOL0     H89168   9.904   5.926  10.857  0.6608  0.1981  0.3612
  676MOL0     H89169  10.218   5.988  10.564  0.9419 -0.3649 -0.8724
  676MOL0     H89170  10.072   5.955  10.469  0.8341 -0.3314 -0.2463
  676MOL0     H89171  10.289   5.780  10.598 -1.2053  0.1558  1.1909
  676MOL0     H89172  10.244   5.784  10.429  0.7989 -1.3625  0.1515
  676MOL0     H89173  10.020   5.691  10.495 -0.4546 -0.5296 -0.2811
  676MOL0     H89174  10.071   5.666  10.663  0.0995 -1.7503 -0.2331
  676MOL0     H89175  10.204   5.525  10.425  1.1013  3.0055 -0.5205
  676MOL0     H89176  10.256   5.540  10.594 -0.1137  2.1867 -0.5222
  676MOL0     H89177   9.986   5.426  10.514  0.6518 -1.9827 -0.6184
  676MOL0     H89178  10.045   5.429  10.682 -0.7847  0.0389  0.7581
  676MOL0     H89179  10.154   5.260  10.456 -2.5242 -0.9547  0.0783
  676MOL0     H89180  10.061   5.216  10.591 -1.3427  0.6589 -0.4915
  676MOL0     H89181  10.326   5.183  10.599  1.1082  0.8382  0.8633
  676MOL0     H89182  10.355   5.341  10.612 -0.5992  1.4502 -0.6281
  676MOL0     H89183  10.247   5.346  10.830  1.2644  0.1143 -1.7855
  676MOL0     H89184  10.369   5.223  10.824 -0.8900 -3.2898  1.9875
  676MOL0     H89185   9.997   5.280  10.852  1.6850  0.2987 -0.6555
  676MOL0     H89186   9.845   4.914  10.948  0.4360 -0.6964 -1.0092
  676MOL0     H89187   9.787   5.085  10.939  0.0302  0.4286  0.2231
  676MOL0     H89188   9.902   5.119  11.163 -0.4113 -0.0412  0.1804
  676MOL0     H89189   9.936   4.939  11.160  1.8418  0.0725 -0.3276
  676MOL0     H89190   9.657   5.047  11.113  1.3678  1.1590  0.0493
  676MOL0     H89191   9.710   4.876  11.162  0.5601 -0.1283  3.2125
  676MOL0     H89192   9.611   5.077  11.308 -0.0586 -0.2514 -1.4453
  676MOL0     H89193   9.772   5.094  11.345 -0.1933 -0.7221  1.5513
  676MOL0     H89194   9.494   5.007  11.510 -1.1372  0.6727 -2.7015
  676MOL0     H89195   9.272   4.894  11.529 -0.4250 -0.1884  0.2589
  676MOL0     H89196   9.071   4.442  11.570  2.8551 -0.3965 -1.7587
  676MOL0     H89197   8.827   4.365  11.578  2.2755 -1.3044  1.1837
  676MOL0     H89198   8.605   4.356  11.186 -1.4257  0.4854 -1.2975
  676MOL0     H89199   8.591   4.481  11.301 -1.7118 -0.2421  1.2440
  676MOL0     H89200   8.409   4.361  11.421  2.1753 -3.6392  2.1744
  676MOL0     H89201   8.446   4.210  11.355  1.1844  0.0233  1.1224
  676MOL0     H89202   8.377   4.286  11.130  3.1306 -1.4451  1.6477
  676MOL0     H89203   8.320   4.438  11.195 -1.0292  0.2639 -1.3028
  676MOL0     H89204   8.222   4.164  11.259  0.7988  0.5303  0.3026
  676MOL0     H89205   8.170   4.297  11.359 -1.5418 -1.8413  0.1449
  676MOL0     H89206   8.157   4.249  11.048  0.4110  2.6029 -1.4690
  676MOL0     H89207   8.112   4.405  11.117 -0.4428  0.6075  1.9146
  676MOL0     H89208   7.934   4.285  11.243  0.3122  0.3185  0.4245
  676MOL0     H89209   7.965   4.141  11.153 -1.9643  0.5853  3.0406
  676MOL0     H89210   7.890   4.424  11.035  1.1513 -0.3875 -0.0201
  676MOL0     H89211   7.936   4.292  10.926  1.8441  0.1327  0.3783
  676MOL0     H89212   7.766   4.146  11.033  1.9071  0.3836  1.0253
  676MOL0     H89213   7.696   4.280  10.949  1.6762 -2.3293 -2.1603
  676MOL0     H89214   8.814   4.422  11.147  0.3415  3.0746 -0.2266
  676MOL0     H89215   9.045   4.514  11.144 -0.1341  1.1711  0.2848
  676MOL0     H89216   9.429   4.556  11.317  0.1413  0.0179  0.6743
  676MOL0     H89217   9.636   4.667  11.283  0.8407 -0.6688  1.8824
  676MOL0     H89218   9.876   5.870  10.424 -1.4085 -0.7678 -1.1293
  676MOL0     H89219   9.644   5.870  10.439 -1.5885  0.9855  0.7204
  676MOL0     H89220   9.235   6.163  10.480 -4.8191 -2.3895 -2.5956
  676MOL0     H89221   9.019   6.215  10.548 -0.7487 -2.2043  0.1676
  676MOL0     H89222   8.879   6.158  10.964  0.1454 -0.1198 -0.8005
  676MOL0     H89223   8.849   5.980  10.923  0.4572 -0.2031 -0.2414
  676MOL0     H89224   8.630   6.048  10.828 -1.4489 -0.1492  1.8552
  676MOL0     H89225   8.646   6.059  11.004  1.4214 -1.9283  0.2369
  676MOL0     H89226   8.681   6.320  10.842 -0.4946  2.6941  2.0270
  676MOL0     H89227   8.629   6.282  11.004  1.8720 -0.5959 -0.9249
  676MOL0     H89228   8.464   6.227  10.748 -1.9871  0.2772 -0.4315
  676MOL0     H89229   8.422   6.160  10.903  0.8211  0.9064  0.2932
  676MOL0     H89230   8.294   6.556  10.934 -2.8675 -2.4712  0.6953
  676MOL0     H89231   9.086   6.011  10.924  2.1351  1.7318  0.6357
  676MOL0     H89232   9.318   5.959  10.838  4.2331 -0.4686 -6.8904
  677MOL0     O89233   6.841   6.861   4.842 -0.0519 -0.2130 -0.1606
  677MOL0     C89234   6.776   6.765   4.889 -0.7931 -0.1671  0.2583
  677MOL0     O89235   6.831   6.648   4.940  0.8784 -0.3982  0.2731
  677MOL0     C89236   6.966   6.620   4.958  0.9588 -0.3977  0.2043
  677MOL0     C89237   7.042   6.668   5.066  0.0652  0.1125 -0.1492
  677MOL0     C89238   7.179   6.637   5.060 -0.7775  0.0217 -0.0397
  677MOL0     C89239   7.244   6.580   4.942  0.9264  0.1873  0.3250
  677MOL0     O89240   7.376   6.574   4.910  0.7245 -0.4086 -0.3116
  677MOL0     C89241   7.461   6.636   5.020  0.0688  0.0028  0.2860
  677MOL0     C89242   7.597   6.630   4.966 -1.0582  0.6295  0.2606
  677MOL0     C89243   7.726   6.690   5.043  0.0268 -0.1384  0.1053
  677MOL0     C89244   7.859   6.642   4.981 -0.4485  0.3001 -0.6538
  677MOL0     C89245   7.981   6.664   5.076  0.3549  0.2801 -0.5990
  677MOL0     C89246   8.102   6.598   5.018  0.2631 -0.3699 -0.3395
  677MOL0     C89247   8.138   6.639   4.885  0.4247 -0.4798  0.2972
  677MOL0     C89248   8.168   6.792   4.878  1.0086  0.8448  0.0493
  677MOL0     N89249   8.251   6.822   4.762  0.2382  0.5127 -0.3109
  677MOL0     C89250   8.221   6.799   4.624 -0.3410 -0.3181  0.2111
  677MOL0     C89251   8.332   6.841   4.553  0.3189 -1.9022 -0.0425
  677MOL0     C89252   8.341   6.863   4.405  0.1533 -0.2054  0.0957
  677MOL0     C89253   8.286   6.745   4.323  0.1046 -0.1117 -0.2759
  677MOL0     C89254   8.278   6.788   4.174 -0.2419  0.1174  0.3832
  677MOL0     C89255   8.219   6.657   4.103 -1.0599  0.9228  0.0042
  677MOL0     O89256   8.081   6.633   4.114 -0.3735  0.4907 -0.3770
  677MOL0     C89257   8.018   6.552   4.018 -0.8349 -0.3640  0.6608
  677MOL0     C89258   8.079   6.456   3.931 -0.0598 -0.0743 -0.2830
  677MOL0     C89259   7.998   6.385   3.840 -0.6519 -0.1568 -0.6538
  677MOL0     C89260   7.862   6.402   3.850 -0.3726  0.9337  0.4499
  677MOL0     C89261   7.769   6.332   3.756  0.5431 -0.3505  0.4964
  677MOL0     O89262   7.806   6.212   3.715  0.2092  0.3710  0.2652
  677MOL0     C89263   7.728   6.121   3.639  0.8883  0.2806 -0.0477
  677MOL0     C89264   7.787   6.049   3.543  0.3279  0.1930  0.7168
  677MOL0     C89265   7.713   5.946   3.467  0.5034 -0.6778 -0.3356
  677MOL0     C89266   7.582   5.905   3.517 -0.1361  1.1399  0.0211
  677MOL0     O89267   7.512   5.805   3.468 -0.9022 -0.6910  0.0733
  677MOL0     C89268   7.423   5.844   3.362 -0.2918 -1.0528  0.5399
  677MOL0     C89269   7.372   5.720   3.285 -0.5823 -0.1776  0.3606
  677MOL0     C89270   7.246   5.736   3.188  0.6187  0.4849 -0.0649
  677MOL0     C89271   7.188   5.597   3.145 -0.1782  0.6609  0.8658
  677MOL0     C89272   7.059   5.604   3.053  0.0375  0.5166 -0.6102
  677MOL0     C89273   6.935   5.602   3.138 -1.0453  0.0205 -0.2342
  677MOL0     C89274   6.808   5.631   3.058  0.6091  0.6650 -0.2396
  677MOL0     C89275   6.691   5.641   3.156  0.5655  0.6698  0.0233
  677MOL0    Cl89276   6.667   5.496   3.257  0.0844  0.1488 -0.4511
  677MOL0     C89277   7.532   5.965   3.631 -0.2222  0.0617  0.2527
  677MOL0     C89278   7.595   6.078   3.686  0.0462 -0.2511  0.4506
  677MOL0     O89279   7.661   6.383   3.727  0.4916  0.5784  0.7271
  677MOL0     C89280   7.801   6.496   3.943 -0.6802  0.6177  0.0712
  677MOL0     C89281   7.882   6.571   4.020  0.3495  0.3224  0.2965
  677MOL0     N89282   8.427   6.882   4.644 -0.1642 -0.3432 -0.0421
  677MOL0     N89283   8.381   6.865   4.765 -0.1991 -0.6896 -0.4472
  677MOL0     C89284   7.154   6.531   4.846 -0.0146 -0.5100  0.3095
  677MOL0     C89285   7.021   6.546   4.855  0.2345 -0.2246  0.1093
  677MOL0     C89286   6.626   6.771   4.884 -0.1943  0.2905 -0.6895
  677MOL0     C89287   6.555   6.862   4.799 -0.9907 -0.7990  0.1160
  677MOL0     C89288   6.418   6.855   4.804  0.4856  0.4294 -0.4973
  677MOL0     C89289   6.343   6.753   4.871 -0.3246  0.3989 -0.1635
  677MOL0     O89290   6.202   6.749   4.874  0.0631  0.8391  0.1855
  677MOL0     C89291   6.142   6.811   4.754 -0.9764 -0.8904  0.7543
  677MOL0     C89292   5.988   6.770   4.739  0.3771 -0.8897  0.5467
  677MOL0     C89293   5.962   6.618   4.721  0.2442 -0.3180 -0.3928
  677MOL0     C89294   5.821   6.577   4.752  0.6608 -0.0992 -0.8622
  677MOL0     C89295   5.787   6.443   4.698 -0.0421  0.2651 -0.5312
  677MOL0     C89296   5.732   6.343   4.649 -0.3532  0.3238 -0.8529
  677MOL0     C89297   6.412   6.669   4.946  0.1003 -0.0481 -0.0220
  677MOL0     C89298   6.550   6.675   4.954 -0.0953 -0.5311 -0.8443
  677MOL0     H89299   7.008   6.730   5.149  0.8098  1.6043 -0.9102
  677MOL0     H89300   7.230   6.680   5.146  2.3968 -1.2389 -1.1511
  677MOL0     H89301   7.461   6.578   5.113  2.5622  0.3033  0.5268
  677MOL0     H89302   7.433   6.739   5.043  2.0935  0.0928  2.7191
  677MOL0     H89303   7.597   6.678   4.868  1.4107 -2.1781 -1.3036
  677MOL0     H89304   7.613   6.523   4.947  0.3465  0.6808  1.0053
  677MOL0     H89305   7.732   6.655   5.146 -1.4771 -0.7977 -0.0052
  677MOL0     H89306   7.720   6.799   5.035 -2.1396 -0.3133 -2.0888
  677MOL0     H89307   7.865   6.537   4.952  1.7293  0.0843  0.3634
  677MOL0     H89308   7.865   6.686   4.881 -1.7669 -2.2411 -1.9425
  677MOL0     H89309   7.966   6.616   5.173  1.6513  1.6747  0.3350
  677MOL0     H89310   7.996   6.767   5.109 -0.8881 -0.8547  4.3771
  677MOL0     H89311   8.074   6.493   5.008 -0.0884 -0.4132  0.9425
  677MOL0     H89312   8.186   6.609   5.087 -0.7227  2.2032  0.5918
  677MOL0     H89313   8.230   6.587   4.857 -1.0508 -2.4667 -1.1956
  677MOL0     H89314   8.065   6.596   4.815  2.1248 -0.2161 -1.7030
  677MOL0     H89315   8.214   6.825   4.971 -0.8693  0.6982  1.0825
  677MOL0     H89316   8.074   6.847   4.865 -1.1116 -2.7742 -1.8766
  677MOL0     H89317   8.126   6.769   4.582 -0.3537  0.4737 -0.3413
  677MOL0     H89318   8.446   6.877   4.376  0.7650 -0.3397  2.0482
  677MOL0     H89319   8.296   6.961   4.387  2.9598  1.2756  0.5797
  677MOL0     H89320   8.188   6.712   4.359  0.7808 -1.1914  0.6093
  677MOL0     H89321   8.345   6.656   4.341  0.4842  0.7215  3.5535
  677MOL0     H89322   8.212   6.875   4.176  0.6641  0.8002  1.4215
  677MOL0     H89323   8.382   6.810   4.147  0.1397 -3.4698 -1.6690
  677MOL0     H89324   8.269   6.573   4.152  1.2968  2.6933  0.8248
  677MOL0     H89325   8.247   6.670   3.998  0.6554  3.8247  0.7261
  677MOL0     H89326   8.185   6.437   3.944  0.6829  3.1297 -0.8988
  677MOL0     H89327   8.046   6.312   3.775 -0.4148  0.0996 -0.7685
  677MOL0     H89328   7.891   6.062   3.517  0.0713 -0.6735 -0.8880
  677MOL0     H89329   7.748   5.890   3.380  1.6717  0.1413 -0.4162
  677MOL0     H89330   7.478   5.901   3.286  0.4429 -0.9530  1.1421
  677MOL0     H89331   7.347   5.911   3.403  0.7922 -0.5937  1.8872
  677MOL0     H89332   7.350   5.644   3.361  1.1244  1.2045  2.3607
  677MOL0     H89333   7.448   5.684   3.216 -2.0002 -2.5218 -0.0871
  677MOL0     H89334   7.266   5.798   3.099  1.2811  2.3573  1.3181
  677MOL0     H89335   7.165   5.787   3.241  1.3064 -0.8857  2.4400
  677MOL0     H89336   7.261   5.541   3.086  0.2302  3.5347 -1.5944
  677MOL0     H89337   7.165   5.537   3.233  0.4982 -1.1580 -0.1384
  677MOL0     H89338   7.058   5.513   2.993 -0.0906 -1.0057  1.6033
  677MOL0     H89339   7.063   5.697   2.994  1.5173 -1.0513 -3.1746
  677MOL0     H89340   6.950   5.657   3.231 -0.9039 -0.0795 -0.1982
  677MOL0     H89341   6.929   5.503   3.184 -2.3356  0.4978  0.6694
  677MOL0     H89342   6.812   5.725   3.003  0.8549 -0.0507 -1.4883
  677MOL0     H89343   6.801   5.546   2.989  2.4563  0.1492  0.1611
  677MOL0     H89344   6.601   5.653   3.094  0.1916 -1.9145 -0.0595
  677MOL0     H89345   6.698   5.727   3.222  2.2564 -1.0837  2.2804
  677MOL0     H89346   7.437   5.934   3.674 -0.0399 -0.5593  0.2180
  677MOL0     H89347   7.550   6.128   3.771  1.3814  1.6390  0.0984
  677MOL0     H89348   7.693   6.503   3.956 -0.7296 -0.6518  0.4592
  677MOL0     H89349   7.838   6.649   4.082  0.8413  0.2837  0.7012
  677MOL0     H89350   7.203   6.488   4.759  0.4292  1.8357 -0.6625
  677MOL0     H89351   6.962   6.509   4.772  1.5932 -0.5298 -0.7601
  677MOL0     H89352   6.608   6.930   4.732  1.8512 -2.2757  0.6746
  677MOL0     H89353   6.356   6.929   4.755 -3.5307 -1.7901  0.7786
  677MOL0     H89354   6.197   6.775   4.667 -1.3335 -0.8815  0.5254
  677MOL0     H89355   6.152   6.920   4.752  0.4709 -1.0102 -0.7613
  677MOL0     H89356   5.954   6.796   4.839  1.4637  0.0915  0.6759
  677MOL0     H89357   5.937   6.831   4.664  1.4899 -1.0466 -0.3572
  677MOL0     H89358   6.036   6.555   4.772  0.4571 -1.3755 -1.9271
  677MOL0     H89359   5.989   6.607   4.615  0.0939  2.4020 -0.7694
  677MOL0     H89360   5.805   6.594   4.859  0.5753  0.3493 -0.9431
  677MOL0     H89361   5.753   6.654   4.713 -0.6047 -1.1398 -0.7609
  677MOL0     H89362   5.681   6.262   4.601  0.8733 -0.6629 -0.5573
  677MOL0     H89363   6.363   6.598   5.013  2.1517 -0.0786  1.5713
  677MOL0     H89364   6.597   6.606   5.024 -1.1432 -0.6594 -0.2580
  678MOL0     O89365  10.819   0.815   4.464 -0.6512  0.3950  0.3782
  678MOL0     C89366  10.796   0.815   4.581  0.0989 -0.0378  0.1362
  678MOL0     O89367  10.675   0.841   4.640 -0.0347  0.8559  0.0324
  678MOL0     C89368  10.570   0.889   4.576  0.8380 -0.9913  1.0566
  678MOL0     C89369  10.580   0.994   4.480  0.8074 -0.5999 -1.0309
  678MOL0     C89370  10.461   1.036   4.422 -0.6027 -0.3290 -0.2926
  678MOL0     C89371  10.339   0.978   4.451  0.4557  0.4432 -0.7642
  678MOL0     O89372  10.227   1.033   4.387 -0.8231  0.5691 -0.1398
  678MOL0     C89373  10.124   0.936   4.368  0.2669 -0.7115 -0.4177
  678MOL0     C89374  10.025   1.007   4.274 -0.1431  0.5265  0.2009
  678MOL0     C89375  10.076   1.053   4.139 -0.3373  0.3408  0.0562
  678MOL0     C89376   9.959   1.120   4.073  0.0269  0.0298  0.3486
  678MOL0     C89377   9.979   1.118   3.917  0.0288 -0.2003 -0.0429
  678MOL0     C89378  10.107   1.194   3.881 -0.7500 -1.0631 -0.4075
  678MOL0     C89379  10.106   1.346   3.909 -0.4903 -1.0475 -0.0600
  678MOL0     C89380  10.251   1.400   3.918 -0.5710 -0.0445 -0.6507
  678MOL0     N89381  10.261   1.539   3.943  0.2818 -0.3141 -0.2513
  678MOL0     C89382  10.183   1.639   3.887 -0.4511  0.2810  0.9214
  678MOL0     C89383  10.191   1.743   3.969  0.0052 -0.0428 -0.2153
  678MOL0     C89384  10.132   1.875   3.986  0.6451 -0.3914  0.4226
  678MOL0     C89385   9.975   1.847   3.997  0.5839  0.5186 -0.3989
  678MOL0     C89386   9.901   1.974   4.036 -0.2271  0.5000 -0.1760
  678MOL0     C89387   9.883   2.004   4.183  0.0334 -0.4447 -0.2831
  678MOL0     O89388   9.747   1.988   4.234  0.3063  0.5693  0.4172
  678MOL0     C89389   9.657   2.088   4.224  0.3316 -0.3427  0.3746
  678MOL0     C89390   9.670   2.203   4.134 -0.8113  0.7069  0.0980
  678MOL0     C89391   9.572   2.308   4.131 -0.7332  0.0329 -0.9530
  678MOL0     C89392   9.459   2.300   4.208  0.2172  0.8284  0.3159
  678MOL0     C89393   9.358   2.404   4.204  0.2705  0.0147 -0.1755
  678MOL0     O89394   9.298   2.428   4.322  0.2308  0.3695 -0.2790
  678MOL0     C89395   9.179   2.503   4.307  0.2275  0.3622  0.0944
  678MOL0     C89396   9.183   2.636   4.351  0.7650  0.9082  0.3481
  678MOL0     C89397   9.059   2.707   4.363  0.8596 -0.1080  0.4635
  678MOL0     C89398   8.943   2.653   4.307  0.5102  0.1882 -0.0246
  678MOL0     O89399   8.815   2.714   4.286  0.1221  0.6401 -0.5581
  678MOL0     C89400   8.780   2.836   4.354  0.6291  0.4935  0.0243
  678MOL0     C89401   8.647   2.883   4.300 -0.4682  0.1287  0.2680
  678MOL0     C89402   8.592   3.002   4.373  0.3823  1.1064  0.6772
  678MOL0     C89403   8.488   3.086   4.289 -0.9126  0.0347 -0.5757
  678MOL0     C89404   8.415   3.191   4.369  0.4059 -0.6279 -1.1083
  678MOL0     C89405   8.338   3.292   4.298 -0.2755  0.5856 -0.4452
  678MOL0     C89406   8.206   3.237   4.245  0.5904  0.6299 -0.5643
  678MOL0     C89407   8.086   3.269   4.331 -0.2371 -0.4410 -0.7195
  678MOL0    Cl89408   8.071   3.456   4.317  0.2579  0.0403 -0.1694
  678MOL0     C89409   8.948   2.525   4.261  0.4937  0.6482  0.1813
  678MOL0     C89410   9.065   2.445   4.259  0.1929  0.5174 -0.5794
  678MOL0     O89411   9.331   2.457   4.091  0.0294 -0.0199 -0.7996
  678MOL0     C89412   9.443   2.180   4.288  0.3570  0.0211 -0.7299
  678MOL0     C89413   9.542   2.083   4.300  0.7900  0.7973 -0.2077
  678MOL0     N89414  10.271   1.707   4.076 -0.2751 -0.2163 -0.2262
  678MOL0     N89415  10.309   1.588   4.058  0.3550 -0.3313  0.5019
  678MOL0     C89416  10.328   0.877   4.551  0.2689 -0.0298 -1.0246
  678MOL0     C89417  10.447   0.825   4.611 -0.2305 -0.1005 -0.1818
  678MOL0     C89418  10.906   0.797   4.671  0.4560  0.2546  1.0733
  678MOL0     C89419  11.019   0.724   4.624  1.0823 -0.4407  0.5926
  678MOL0     C89420  11.137   0.716   4.697 -0.1888 -0.0698  0.0830
  678MOL0     C89421  11.137   0.785   4.825  0.0853  0.2531 -0.6265
  678MOL0     O89422  11.242   0.800   4.910  0.3469  0.4025 -0.2005
  678MOL0     C89423  11.363   0.769   4.860 -0.6934  0.4570 -0.7831
  678MOL0     C89424  11.466   0.815   4.969  0.1404  0.0964  0.1229
  678MOL0     C89425  11.453   0.728   5.097  0.1816  0.3314 -0.6406
  678MOL0     C89426  11.564   0.745   5.208  0.2643  0.1757  0.9483
  678MOL0     C89427  11.594   0.884   5.258 -0.6890 -0.3795 -0.3647
  678MOL0     C89428  11.609   0.993   5.311 -0.6852  0.6100 -0.0318
  678MOL0     C89429  11.020   0.856   4.860 -0.0003 -0.2915  0.2025
  678MOL0     C89430  10.906   0.855   4.793 -0.3534  0.3066  0.1074
  678MOL0     H89431  10.674   1.026   4.435  0.8550  0.0425 -0.5017
  678MOL0     H89432  10.458   1.121   4.355  1.3944  0.5281  0.6120
  678MOL0     H89433  10.076   0.911   4.462 -1.8807  1.4341 -0.8464
  678MOL0     H89434  10.157   0.849   4.311 -1.5972 -1.7796  0.0652
  678MOL0     H89435   9.973   1.089   4.324  0.9011  2.4613 -1.6787
  678MOL0     H89436   9.943   0.937   4.254  0.9538 -0.4619 -1.0323
  678MOL0     H89437  10.133   0.974   4.088  0.8476  0.8513  0.5576
  678MOL0     H89438  10.158   1.125   4.146 -0.6608  0.7233 -0.0419
  678MOL0     H89439   9.868   1.061   4.089 -1.2075  1.8021  0.2058
  678MOL0     H89440   9.939   1.221   4.109 -0.2155  0.1960 -0.2331
  678MOL0     H89441   9.887   1.165   3.878  0.1593  1.5277  1.6098
  678MOL0     H89442   9.988   1.022   3.867  2.0392 -0.1986  0.2385
  678MOL0     H89443  10.128   1.187   3.774 -1.0135 -3.1266 -0.3632
  678MOL0     H89444  10.190   1.145   3.933 -0.4345 -0.1627 -0.0263
  678MOL0     H89445  10.050   1.392   3.827 -0.8474 -2.5934 -0.7205
  678MOL0     H89446  10.065   1.370   4.007  2.8666  1.7108  0.8870
  678MOL0     H89447  10.302   1.382   3.823 -0.3612  2.3686 -1.0590
  678MOL0     H89448  10.299   1.347   4.001 -0.9134  2.7197  1.4594
  678MOL0     H89449  10.115   1.621   3.804 -0.0383 -1.3929  0.8910
  678MOL0     H89450  10.144   1.923   3.889  1.5322 -2.3297 -0.4666
  678MOL0     H89451  10.170   1.948   4.058 -0.7423  0.1694  0.6287
  678MOL0     H89452   9.954   1.763   4.064  2.2648  0.7157  0.4390
  678MOL0     H89453   9.942   1.808   3.900 -1.3184  3.5948 -1.1380
  678MOL0     H89454   9.934   2.057   3.973  0.7906 -1.2366 -2.0777
  678MOL0     H89455   9.801   1.950   3.999  0.2308  1.0202 -1.8442
  678MOL0     H89456   9.922   2.103   4.210 -1.9778  0.1145  0.8371
  678MOL0     H89457   9.937   1.929   4.242 -1.3289 -0.0648  1.5790
  678MOL0     H89458   9.750   2.225   4.064 -0.8993  0.2978 -0.1315
  678MOL0     H89459   9.590   2.393   4.066  2.3855 -0.9305 -1.5183
  678MOL0     H89460   9.277   2.667   4.397  0.7081  0.3145  0.8795
  678MOL0     H89461   9.056   2.801   4.416 -1.3482  0.2832 -0.2559
  678MOL0     H89462   8.853   2.915   4.335 -0.0414  0.4622 -3.2859
  678MOL0     H89463   8.772   2.825   4.463 -0.2489  0.4720 -0.0365
  678MOL0     H89464   8.579   2.798   4.305 -0.6653  0.2698 -0.0148
  678MOL0     H89465   8.664   2.907   4.194 -0.8613 -2.0382 -0.3287
  678MOL0     H89466   8.675   3.071   4.392  1.0393  0.1669  1.3089
  678MOL0     H89467   8.554   2.972   4.471  1.7102 -0.3299  0.7805
  678MOL0     H89468   8.558   3.140   4.224  0.4279 -0.6108  0.2928
  678MOL0     H89469   8.412   3.024   4.240 -1.9601  1.8533 -1.3613
  678MOL0     H89470   8.489   3.244   4.430 -1.1194  0.0499  0.2340
  678MOL0     H89471   8.363   3.126   4.441  3.1978 -1.0067  0.7265
  678MOL0     H89472   8.394   3.311   4.206  0.8480 -1.3503 -0.2219
  678MOL0     H89473   8.324   3.376   4.367 -2.0062  1.0036 -1.2549
  678MOL0     H89474   8.190   3.273   4.143 -0.1185  0.3208 -0.5679
  678MOL0     H89475   8.216   3.128   4.247  0.5279  0.6071  1.9652
  678MOL0     H89476   8.114   3.241   4.433  1.5899  0.9989 -0.7767
  678MOL0     H89477   7.995   3.216   4.301 -1.1118  0.2901  0.5431
  678MOL0     H89478   8.863   2.498   4.198  1.9518  1.0258 -2.0743
  678MOL0     H89479   9.077   2.353   4.203  0.3741  1.4716 -2.1467
  678MOL0     H89480   9.347   2.175   4.339  0.2730 -1.6650 -1.0030
  678MOL0     H89481   9.527   2.002   4.371 -2.6994  2.3052  1.0045
  678MOL0     H89482  10.243   0.811   4.564  1.0588 -0.3571  4.6435
  678MOL0     H89483  10.457   0.742   4.679  2.9119  2.4248  2.8372
  678MOL0     H89484  11.015   0.681   4.525  0.5757 -1.5981  1.0953
  678MOL0     H89485  11.223   0.671   4.648 -0.0073 -2.1418  2.0997
  678MOL0     H89486  11.384   0.833   4.774  0.4431  0.4733 -0.5021
  678MOL0     H89487  11.372   0.662   4.841 -2.5159  0.1191 -0.0356
  678MOL0     H89488  11.564   0.792   4.929  1.5325 -0.0396  3.2764
  678MOL0     H89489  11.459   0.923   4.987 -0.3431  0.2064 -0.6799
  678MOL0     H89490  11.450   0.620   5.076 -1.0415  0.3318 -0.5215
  678MOL0     H89491  11.360   0.758   5.146  0.2682 -2.2295  1.3304
  678MOL0     H89492  11.539   0.677   5.290 -1.1509  0.6130  0.9123
  678MOL0     H89493  11.659   0.703   5.176 -0.5605 -1.5868  0.6593
  678MOL0     H89494  11.616   1.094   5.343  0.7660 -0.3467  3.0162
  678MOL0     H89495  11.020   0.900   4.960  2.6711 -0.7337  0.4744
  678MOL0     H89496  10.819   0.910   4.829 -0.6062  0.9884 -1.4355
  679MOL0     O89497  10.339   7.084   9.574 -0.2772 -0.1888 -0.5612
  679MOL0     C89498  10.411   7.184   9.552  0.4596  0.1587 -0.4389
  679MOL0     O89499  10.358   7.310   9.530  0.0745  0.3603  0.0565
  679MOL0     C89500  10.225   7.342   9.556 -0.7156 -0.4773 -0.5506
  679MOL0     C89501  10.199   7.468   9.614 -0.1840  0.2543  0.2262
  679MOL0     C89502  10.065   7.508   9.645 -0.3367  0.2172  0.3054
  679MOL0     C89503   9.953   7.425   9.615  0.0222  0.1263  1.1381
  679MOL0     O89504   9.827   7.460   9.623  0.1896 -0.2195  0.0572
  679MOL0     C89505   9.785   7.581   9.674 -0.6027  0.7770 -0.9599
  679MOL0     C89506   9.784   7.679   9.562 -0.0489 -0.5111  0.3782
  679MOL0     C89507   9.680   7.644   9.448  0.1126  0.3171 -0.8961
  679MOL0     C89508   9.528   7.637   9.506  0.0388 -0.1430 -0.1095
  679MOL0     C89509   9.425   7.695   9.401 -0.3140  0.4148  0.0529
  679MOL0     C89510   9.287   7.627   9.415 -0.8203  0.3543  0.3996
  679MOL0     C89511   9.181   7.715   9.342  0.7861 -0.4768  0.5434
  679MOL0     C89512   9.055   7.633   9.316 -0.3977 -0.6330 -0.5370
  679MOL0     N89513   8.946   7.729   9.287  0.4156 -0.3063 -1.0884
  679MOL0     C89514   8.868   7.792   9.381 -0.4583 -0.1262 -0.2284
  679MOL0     C89515   8.782   7.869   9.314  0.2749  1.2257 -0.2315
  679MOL0     C89516   8.661   7.940   9.376  0.0998  0.1588 -0.1011
  679MOL0     C89517   8.528   7.861   9.368  0.5941 -0.2347 -0.1928
  679MOL0     C89518   8.422   7.927   9.450  0.4708 -0.5944 -0.3208
  679MOL0     C89519   8.285   7.891   9.384  0.4765 -0.1099  0.3390
  679MOL0     O89520   8.183   7.904   9.486  0.2317 -0.7427 -0.2003
  679MOL0     C89521   8.055   7.864   9.452  0.7973  0.4420 -0.9962
  679MOL0     C89522   7.967   7.864   9.556  0.1263 -0.2285  0.6145
  679MOL0     C89523   7.832   7.825   9.533 -0.3792 -0.5982 -0.2769
  679MOL0     C89524   7.779   7.792   9.405 -1.0592  0.3587 -0.6482
  679MOL0     C89525   7.633   7.777   9.386 -0.1955  0.4545 -0.0267
  679MOL0     O89526   7.590   7.771   9.258  0.4171  1.0694  0.9677
  679MOL0     C89527   7.455   7.759   9.226  0.0147 -0.4646  0.1218
  679MOL0     C89528   7.406   7.847   9.126 -0.1935  0.5313 -0.1629
  679MOL0     C89529   7.272   7.848   9.095  0.1402  0.0918 -1.0793
  679MOL0     C89530   7.183   7.755   9.149 -0.1858 -0.7515 -0.2033
  679MOL0     O89531   7.048   7.756   9.124  0.3875  0.0105 -0.6726
  679MOL0     C89532   6.999   7.836   9.013 -0.1853  0.7288 -0.6389
  679MOL0     C89533   6.846   7.815   8.993 -0.1646  0.9860  0.0569
  679MOL0     C89534   6.833   7.682   8.927  0.0589 -0.5920  0.1722
  679MOL0     C89535   6.693   7.657   8.872  0.3751 -0.0311 -0.2245
  679MOL0     C89536   6.690   7.577   8.741  0.1290  0.2012 -0.4821
  679MOL0     C89537   6.704   7.423   8.762 -0.0926  0.1817  0.4896
  679MOL0     C89538   6.723   7.349   8.627 -0.1796 -0.7885 -0.5198
  679MOL0     C89539   6.809   7.220   8.640 -0.2643  1.0006  0.1306
  679MOL0    Cl89540   6.970   7.227   8.725  0.1695 -0.3321  0.3809
  679MOL0     C89541   7.232   7.675   9.253  0.6235 -0.1326  0.5438
  679MOL0     C89542   7.365   7.677   9.295  0.5383  1.0892  0.1411
  679MOL0     O89543   7.560   7.790   9.485  0.6156  0.4923 -0.2690
  679MOL0     C89544   7.872   7.799   9.296  0.3712 -0.4057 -0.6937
  679MOL0     C89545   8.006   7.844   9.317  0.6136  0.5100  0.3082
  679MOL0     N89546   8.801   7.848   9.177  0.7263  0.2483 -0.1992
  679MOL0     N89547   8.899   7.768   9.163  0.0700  1.2502 -0.4931
  679MOL0     C89548   9.980   7.302   9.558  0.2594 -0.3997 -0.8754
  679MOL0     C89549  10.111   7.263   9.532  0.3774 -0.5887 -0.0211
  679MOL0     C89550  10.555   7.173   9.552  0.4068 -0.6854 -0.2865
  679MOL0     C89551  10.630   7.295   9.578  0.8633 -0.2337 -0.0298
  679MOL0     C89552  10.765   7.292   9.601  0.4078 -1.2989 -0.0594
  679MOL0     C89553  10.830   7.168   9.588 -0.4500 -0.0149 -1.0460
  679MOL0     O89554  10.960   7.171   9.595 -0.6744  0.3116  0.2555
  679MOL0     C89555  11.037   7.123   9.478 -0.1760 -1.0127 -1.2240
  679MOL0     C89556  11.179   7.133   9.522 -0.0519  0.0675 -0.5998
  679MOL0     C89557  11.257   7.009   9.574 -0.1097  0.2149 -0.3669
  679MOL0     C89558  11.185   6.954   9.698 -0.2493 -0.1169 -0.8963
  679MOL0     C89559  11.285   6.874   9.775  0.7743 -0.4025  0.4634
  679MOL0     C89560  11.374   6.814   9.825 -0.2826  0.2126  0.2957
  679MOL0     C89561  10.760   7.045   9.571  0.6423 -0.1170 -0.1299
  679MOL0     C89562  10.619   7.048   9.551  0.0395 -1.2712  0.3921
  679MOL0     H89563  10.275   7.545   9.618  0.6069 -0.5698  1.6170
  679MOL0     H89564  10.054   7.610   9.679 -3.3917  0.3685 -0.8713
  679MOL0     H89565   9.855   7.620   9.749  1.1275 -4.3972  0.5451
  679MOL0     H89566   9.686   7.577   9.721  0.6651 -1.4408  1.8256
  679MOL0     H89567   9.884   7.676   9.517 -0.1209 -2.7522  0.2394
  679MOL0     H89568   9.763   7.774   9.610  1.1787 -0.5187  0.9784
  679MOL0     H89569   9.694   7.548   9.398 -0.7870 -0.1585 -0.2652
  679MOL0     H89570   9.690   7.707   9.359 -3.0296 -0.7324 -2.1154
  679MOL0     H89571   9.501   7.535   9.535 -1.1938  0.3290  0.5140
  679MOL0     H89572   9.527   7.699   9.596 -1.8612  0.6901 -0.6560
  679MOL0     H89573   9.453   7.667   9.299  0.4546 -0.9414  0.6104
  679MOL0     H89574   9.418   7.804   9.407 -1.3711  0.5363 -2.3432
  679MOL0     H89575   9.261   7.602   9.518  0.6984 -0.6443  0.5654
  679MOL0     H89576   9.290   7.534   9.359  0.0282  1.2939 -1.2080
  679MOL0     H89577   9.144   7.794   9.407  1.5245 -0.7704  1.3387
  679MOL0     H89578   9.224   7.760   9.251  3.0845 -0.4290  1.5717
  679MOL0     H89579   9.022   7.581   9.406 -1.8053  1.1922  0.0576
  679MOL0     H89580   9.066   7.563   9.233  1.1484  1.8264 -2.5513
  679MOL0     H89581   8.872   7.771   9.487 -1.0568 -0.2110 -0.2198
  679MOL0     H89582   8.649   8.043   9.340  0.1643 -0.1695 -1.1080
  679MOL0     H89583   8.687   7.945   9.482  2.5173 -2.3432 -0.4624
  679MOL0     H89584   8.539   7.758   9.402 -0.1416 -0.6696 -1.2140
  679MOL0     H89585   8.497   7.847   9.264 -1.0329 -2.4177  0.5117
  679MOL0     H89586   8.415   7.892   9.553 -2.2358  0.0333 -0.2173
  679MOL0     H89587   8.430   8.036   9.460 -1.1503 -0.4252 -0.4641
  679MOL0     H89588   8.285   7.787   9.348  2.4895 -0.8223  2.1615
  679MOL0     H89589   8.264   7.961   9.302 -0.1252  0.3037  0.8371
  679MOL0     H89590   8.004   7.873   9.657 -2.4461 -0.4058  1.6418
  679MOL0     H89591   7.774   7.833   9.624 -2.0892  0.4660 -1.4173
  679MOL0     H89592   7.471   7.920   9.080 -1.6237  1.2845 -1.0820
  679MOL0     H89593   7.243   7.918   9.018 -0.0484 -0.3182 -1.3843
  679MOL0     H89594   7.057   7.811   8.924 -1.3394  1.3554 -1.6029
  679MOL0     H89595   7.003   7.945   9.026 -2.2519  0.8251 -0.4205
  679MOL0     H89596   6.806   7.892   8.926 -2.9167  0.1934  0.6325
  679MOL0     H89597   6.799   7.821   9.092 -2.0706 -2.5213 -0.4584
  679MOL0     H89598   6.856   7.605   9.001 -0.7732 -0.1197  0.9369
  679MOL0     H89599   6.909   7.671   8.849  0.5868 -0.5289  0.6645
  679MOL0     H89600   6.614   7.623   8.940  1.0403  1.7043  1.4873
  679MOL0     H89601   6.662   7.756   8.838 -1.1238 -1.2851 -2.8147
  679MOL0     H89602   6.779   7.623   8.696  2.5810 -1.8991  1.8533
  679MOL0     H89603   6.596   7.591   8.688 -1.2768 -0.3124  1.7578
  679MOL0     H89604   6.617   7.388   8.818  2.1946 -1.1759  3.4438
  679MOL0     H89605   6.789   7.400   8.827 -1.7880 -2.8340  1.8307
  679MOL0     H89606   6.625   7.310   8.598 -0.4364 -0.7710  0.2857
  679MOL0     H89607   6.772   7.417   8.557  0.5689  1.0327  1.6431
  679MOL0     H89608   6.829   7.186   8.538 -1.0034  3.3351 -0.8578
  679MOL0     H89609   6.749   7.150   8.699  0.5544  1.1296  1.1439
  679MOL0     H89610   7.154   7.617   9.300  0.7541 -0.4591  0.3611
  679MOL0     H89611   7.400   7.607   9.370 -2.0056 -0.4481  0.0051
  679MOL0     H89612   7.842   7.788   9.192 -0.4366 -1.4690 -0.3619
  679MOL0     H89613   8.064   7.865   9.228 -0.3476  2.0830  0.0282
  679MOL0     H89614   9.891   7.245   9.534 -0.2344  0.3706 -0.9176
  679MOL0     H89615  10.122   7.159   9.502  1.4644 -0.3065 -0.6738
  679MOL0     H89616  10.571   7.386   9.578  0.5166 -0.3402 -3.4062
  679MOL0     H89617  10.825   7.372   9.644 -1.4002  0.4206 -0.5772
  679MOL0     H89618  11.033   7.206   9.407  0.4835  1.2299  1.2059
  679MOL0     H89619  11.008   7.024   9.441  0.7373 -1.7202 -0.1347
  679MOL0     H89620  11.233   7.162   9.432  0.7227 -5.2071 -2.1762
  679MOL0     H89621  11.185   7.212   9.597 -0.6538 -2.1727  1.9629
  679MOL0     H89622  11.350   7.046   9.618 -0.5387  0.2202  0.5526
  679MOL0     H89623  11.272   6.936   9.493  1.2296 -1.9232  1.6743
  679MOL0     H89624  11.166   7.043   9.759 -1.0609 -0.5944 -0.4389
  679MOL0     H89625  11.098   6.899   9.662 -0.1206 -2.0061  1.4354
  679MOL0     H89626  11.462   6.765   9.859  0.6670  0.0147 -2.2615
  679MOL0     H89627  10.819   6.958   9.548  4.2360  1.8402  0.8576
  679MOL0     H89628  10.559   6.961   9.526 -0.8036  0.2396 -3.5138
  680MOL0     O89629   5.523   8.255   1.420  0.0551 -0.1058  0.1848
  680MOL0     C89630   5.590   8.148   1.426  0.4811 -0.3771  0.0907
  680MOL0     O89631   5.537   8.023   1.420  0.2790 -0.1229 -0.1094
  680MOL0     C89632   5.403   8.006   1.378  0.1943 -0.2387 -0.2095
  680MOL0     C89633   5.298   8.055   1.449  0.4027 -1.2469  0.0898
  680MOL0     C89634   5.161   8.039   1.410  0.1417  1.0961  0.3039
  680MOL0     C89635   5.129   7.963   1.295 -0.4605 -0.2450  0.6760
  680MOL0     O89636   5.003   7.951   1.239 -0.4169  0.2977  0.7265
  680MOL0     C89637   4.895   7.987   1.316  0.0775 -0.2743 -0.0133
  680MOL0     C89638   4.773   7.930   1.241 -0.2485 -0.1145  0.1669
  680MOL0     C89639   4.728   8.033   1.139  0.3713  0.2414  0.0106
  680MOL0     C89640   4.594   8.003   1.102  0.9464  0.5862 -0.4339
  680MOL0     C89641   4.546   8.066   0.969  0.8288  0.3758 -0.0331
  680MOL0     C89642   4.387   8.075   0.958  0.0807  0.1696 -0.2458
  680MOL0     C89643   4.322   7.928   0.972  0.7783  1.2071  0.2786
  680MOL0     C89644   4.185   7.910   0.907 -0.4440 -0.5089  0.1983
  680MOL0     N89645   4.215   7.877   0.770 -0.1614 -0.9910 -0.4459
  680MOL0     C89646   4.234   7.753   0.717  0.7479 -0.4863  0.1240
  680MOL0     C89647   4.239   7.780   0.583 -0.4387 -0.5068  0.6243
  680MOL0     C89648   4.274   7.675   0.480 -0.1618 -0.2573  0.4229
  680MOL0     C89649   4.147   7.633   0.401 -0.4420 -0.1049 -0.0300
  680MOL0     C89650   4.132   7.489   0.379 -0.3832 -0.1320  0.4506
  680MOL0     C89651   3.987   7.439   0.339 -0.7414 -0.2750  0.2633
  680MOL0     O89652   3.933   7.524   0.237  0.2099 -0.2946  0.4050
  680MOL0     C89653   3.821   7.481   0.166  0.6423 -0.4703  0.2821
  680MOL0     C89654   3.735   7.385   0.212 -0.2140 -0.9223 -0.0997
  680MOL0     C89655   3.615   7.352   0.147  0.2879  1.2184 -0.7278
  680MOL0     C89656   3.578   7.413   0.021 -0.4537 -0.2785 -0.5167
  680MOL0     C89657   3.453   7.381  -0.058  0.1170 -0.5044 -0.6425
  680MOL0     O89658   3.415   7.486  -0.139 -0.0166  0.5181  0.7397
  680MOL0     C89659   3.294   7.473  -0.211 -1.1636 -0.6670 -0.6909
  680MOL0     C89660   3.287   7.391  -0.323  0.2353 -0.3119  0.2515
  680MOL0     C89661   3.173   7.382  -0.406  0.1843 -0.1752  0.2202
  680MOL0     C89662   3.050   7.449  -0.375 -0.2495  0.0946  0.2439
  680MOL0     O89663   2.941   7.419  -0.450  0.7507 -0.3496 -0.0660
  680MOL0     C89664   2.810   7.438  -0.388 -0.2641  0.0910 -0.2187
  680MOL0     C89665   2.695   7.407  -0.490 -0.2088  0.4951  0.1465
  680MOL0     C89666   2.713   7.279  -0.574 -0.6089  1.0317  0.5594
  680MOL0     C89667   2.605   7.269  -0.677  0.1529  0.5436 -0.2745
  680MOL0     C89668   2.466   7.283  -0.617  0.4907  0.3701 -0.8313
  680MOL0     C89669   2.349   7.272  -0.715 -0.1308 -0.0031  0.0655
  680MOL0     C89670   2.203   7.298  -0.664 -0.5921  0.2416 -0.2499
  680MOL0     C89671   2.146   7.180  -0.591  0.9388 -0.1303  0.5870
  680MOL0    Cl89672   2.132   7.023  -0.671 -0.1016 -0.0674 -0.9034
  680MOL0     C89673   3.057   7.546  -0.266 -0.7688  0.4105 -0.5651
  680MOL0     C89674   3.179   7.548  -0.188 -0.8705 -0.6703  0.8604
  680MOL0     O89675   3.389   7.288  -0.023 -0.7961  0.5291 -0.4580
  680MOL0     C89676   3.661   7.519  -0.017  0.0848 -0.3034 -0.0775
  680MOL0     C89677   3.779   7.553   0.051  0.9457  0.7693 -0.1560
  680MOL0     N89678   4.225   7.919   0.559  0.8089  0.3836  0.3101
  680MOL0     N89679   4.204   7.974   0.671  0.1103  0.0626  0.2635
  680MOL0     C89680   5.236   7.906   1.220  0.7008  0.0515  1.0636
  680MOL0     C89681   5.378   7.930   1.262 -0.3085  0.2140  0.6980
  680MOL0     C89682   5.732   8.153   1.464 -0.4565 -0.2415 -0.7511
  680MOL0     C89683   5.802   8.040   1.499  0.0489  0.0628  0.6178
  680MOL0     C89684   5.937   8.054   1.523  0.6831 -0.6051  0.4752
  680MOL0     C89685   6.011   8.167   1.534  0.2068 -0.5340 -0.4251
  680MOL0     O89686   6.148   8.159   1.542 -0.1158 -0.3677 -0.6872
  680MOL0     C89687   6.230   8.270   1.508  0.5539 -0.3578 -0.4023
  680MOL0     C89688   6.378   8.217   1.488  1.1149  0.1393 -0.1687
  680MOL0     C89689   6.473   8.332   1.523 -0.3102 -0.3030 -1.1474
  680MOL0     C89690   6.463   8.454   1.428 -0.3475  0.1783 -0.2416
  680MOL0     C89691   6.592   8.532   1.408 -0.1517 -0.2178  0.1487
  680MOL0     C89692   6.690   8.586   1.384 -0.3788 -0.9680  0.2311
  680MOL0     C89693   5.938   8.288   1.523  0.2378 -0.1323  0.6775
  680MOL0     C89694   5.799   8.280   1.480  0.7092  0.5754 -0.2001
  680MOL0     H89695   5.317   8.127   1.527  1.1709  0.6002 -1.7035
  680MOL0     H89696   5.075   8.087   1.457 -2.4716 -0.9879 -2.0247
  680MOL0     H89697   4.880   8.095   1.320 -0.2902 -0.3556  0.9279
  680MOL0     H89698   4.901   7.931   1.409  3.0181 -1.1259 -0.6238
  680MOL0     H89699   4.701   7.931   1.323 -1.0003  1.7505 -0.4581
  680MOL0     H89700   4.802   7.838   1.190 -0.3476  1.7944 -3.6831
  680MOL0     H89701   4.796   8.022   1.053 -0.6908 -3.5855 -0.5436
  680MOL0     H89702   4.726   8.136   1.174 -1.1494  0.6076 -1.0443
  680MOL0     H89703   4.573   7.896   1.099  1.6104  0.4100  0.7785
  680MOL0     H89704   4.526   8.052   1.172  1.8128  1.7956 -0.4123
  680MOL0     H89705   4.582   7.999   0.890  2.1357 -1.0415  1.6864
  680MOL0     H89706   4.591   8.163   0.951  2.9839 -0.4215  0.7876
  680MOL0     H89707   4.361   8.110   0.858 -2.8930  2.1983  1.0893
  680MOL0     H89708   4.343   8.139   1.035 -0.0556  1.6582 -1.5094
  680MOL0     H89709   4.388   7.852   0.930  1.0955  0.5292  1.9483
  680MOL0     H89710   4.296   7.909   1.077 -1.7157 -0.2737 -0.5146
  680MOL0     H89711   4.136   8.007   0.918  3.0065  1.2892  1.1790
  680MOL0     H89712   4.126   7.829   0.950 -0.2769 -0.4457  0.5546
  680MOL0     H89713   4.255   7.657   0.763 -1.1705 -1.0006  0.0348
  680MOL0     H89714   4.322   7.597   0.540 -2.9671 -1.7562  0.9207
  680MOL0     H89715   4.344   7.716   0.407 -0.0329  3.3426  2.3413
  680MOL0     H89716   4.145   7.695   0.312 -0.7194  0.4441  0.3560
  680MOL0     H89717   4.061   7.666   0.460 -1.4417 -1.5144 -0.6575
  680MOL0     H89718   4.214   7.463   0.311 -1.9539  1.1162 -2.0491
  680MOL0     H89719   4.167   7.431   0.466  0.7404 -1.2817 -0.7104
  680MOL0     H89720   3.923   7.458   0.425 -1.1160  0.6526 -0.2063
  680MOL0     H89721   3.998   7.333   0.317  5.3854  0.2222 -0.8696
  680MOL0     H89722   3.760   7.331   0.302  1.8832  1.7526  1.0331
  680MOL0     H89723   3.559   7.264   0.176  0.7137  0.5078 -1.9811
  680MOL0     H89724   3.377   7.336  -0.348  0.5942  1.2976 -2.3792
  680MOL0     H89725   3.183   7.322  -0.495  1.6719 -0.2110  0.3823
  680MOL0     H89726   2.795   7.540  -0.350 -1.4590 -0.1958  0.1441
  680MOL0     H89727   2.805   7.373  -0.300 -2.6107  0.5923  0.1091
  680MOL0     H89728   2.704   7.487  -0.565 -0.7149 -0.9072 -1.4580
  680MOL0     H89729   2.602   7.414  -0.433 -0.8592  1.7824 -0.9989
  680MOL0     H89730   2.717   7.183  -0.520 -2.0985  0.1597 -0.8265
  680MOL0     H89731   2.810   7.279  -0.625 -0.2865 -0.4485  1.0935
  680MOL0     H89732   2.615   7.344  -0.756 -2.1908  0.1019 -1.0652
  680MOL0     H89733   2.621   7.174  -0.729 -0.0162  1.0923 -1.3351
  680MOL0     H89734   2.449   7.379  -0.567  2.0234  0.7667 -1.0303
  680MOL0     H89735   2.459   7.211  -0.535  1.4554  0.2520 -0.8465
  680MOL0     H89736   2.352   7.175  -0.766 -1.7955 -0.9086  1.5587
  680MOL0     H89737   2.370   7.348  -0.790 -0.1763  0.1068  0.1642
  680MOL0     H89738   2.201   7.391  -0.606  0.6262 -0.7105  1.4054
  680MOL0     H89739   2.131   7.311  -0.745 -2.7219  2.9796  1.8900
  680MOL0     H89740   2.043   7.203  -0.563  0.2831 -3.4677  1.4401
  680MOL0     H89741   2.203   7.170  -0.498  1.0185 -0.0913  0.5414
  680MOL0     H89742   2.969   7.607  -0.246 -0.6536  0.4596 -0.2064
  680MOL0     H89743   3.178   7.615  -0.102  1.5746  1.9165 -0.9551
  680MOL0     H89744   3.635   7.580  -0.104 -0.2274  1.4302  1.1772
  680MOL0     H89745   3.839   7.640   0.025 -0.4885  1.7134 -0.4438
  680MOL0     H89746   5.212   7.846   1.133  0.8954  2.1876 -0.5441
  680MOL0     H89747   5.459   7.897   1.198 -1.7342 -3.2206  0.4415
  680MOL0     H89748   5.763   7.938   1.493  1.1888 -0.4414  1.4118
  680MOL0     H89749   5.992   7.963   1.547  1.4364 -0.3324 -0.1692
  680MOL0     H89750   6.227   8.333   1.598 -0.2380 -1.6935  0.5378
  680MOL0     H89751   6.187   8.324   1.423  1.9394 -0.9941 -1.5464
  680MOL0     H89752   6.395   8.138   1.562 -3.2585  0.8377  1.9263
  680MOL0     H89753   6.410   8.179   1.391  3.8987  1.3178  0.2043
  680MOL0     H89754   6.570   8.286   1.504 -0.9190 -1.6929 -1.0106
  680MOL0     H89755   6.465   8.347   1.632 -1.1092  0.9253 -1.3529
  680MOL0     H89756   6.425   8.409   1.336 -3.3948 -2.0367  1.9018
  680MOL0     H89757   6.377   8.518   1.452 -1.5101 -1.1924 -0.6262
  680MOL0     H89758   6.788   8.620   1.357 -1.4766 -0.0399 -3.2236
  680MOL0     H89759   5.977   8.390   1.525  0.2242 -0.1118  0.1381
  680MOL0     H89760   5.731   8.363   1.461 -1.1896 -0.8033  0.2577
  681MOL0     O89761   8.321   4.115   5.743 -0.3011  0.7282 -0.5594
  681MOL0     C89762   8.274   4.143   5.632  0.6403  0.8839 -0.3909
  681MOL0     O89763   8.275   4.060   5.525  0.4745  0.3113  0.0598
  681MOL0     C89764   8.352   3.948   5.532  0.8808 -0.7173 -0.2215
  681MOL0     C89765   8.276   3.834   5.494 -0.3229  0.0676  0.5570
  681MOL0     C89766   8.333   3.706   5.484 -0.1547 -0.2502  0.4809
  681MOL0     C89767   8.466   3.694   5.528  0.3124  0.2385  0.6280
  681MOL0     O89768   8.523   3.578   5.516 -0.3114  0.3546 -0.8287
  681MOL0     C89769   8.664   3.568   5.558 -0.0717 -0.7131 -0.1774
  681MOL0     C89770   8.704   3.426   5.527  0.8085  0.3597  0.4580
  681MOL0     C89771   8.613   3.318   5.585  0.4508  0.3720 -0.3298
  681MOL0     C89772   8.645   3.309   5.730  0.8632  0.7588  0.5309
  681MOL0     C89773   8.564   3.189   5.800 -0.3241 -0.7739 -0.3801
  681MOL0     C89774   8.413   3.178   5.773  0.1025  0.1814  0.3032
  681MOL0     C89775   8.354   3.078   5.870 -0.2957 -0.7102  0.4782
  681MOL0     C89776   8.316   3.135   6.008 -0.5258 -0.4174 -0.0123
  681MOL0     N89777   8.227   3.053   6.083 -0.6559  0.5328  0.6728
  681MOL0     C89778   8.113   3.004   6.026 -0.9251 -0.0862 -0.0361
  681MOL0     C89779   8.076   2.894   6.098 -0.2543 -0.4468 -0.9310
  681MOL0     C89780   7.943   2.818   6.094 -0.4460  0.8465 -0.7960
  681MOL0     C89781   7.882   2.779   5.954 -0.7139  0.9249  0.0418
  681MOL0     C89782   7.952   2.659   5.906  0.1726  0.8599 -0.1129
  681MOL0     C89783   7.923   2.618   5.764  0.5803 -0.3745  0.2145
  681MOL0     O89784   7.972   2.488   5.739 -0.0278 -0.1417 -0.2038
  681MOL0     C89785   8.113   2.475   5.717  0.3809  1.1204  0.1197
  681MOL0     C89786   8.152   2.344   5.680 -0.4902  0.5805  0.2198
  681MOL0     C89787   8.289   2.316   5.665  0.5366  0.1133  0.1640
  681MOL0     C89788   8.382   2.419   5.675 -0.2605  0.9795  0.2482
  681MOL0     C89789   8.531   2.391   5.664  0.1795  0.2521 -0.4557
  681MOL0     O89790   8.569   2.263   5.667 -0.0772  0.1548 -1.2332
  681MOL0     C89791   8.702   2.214   5.647  1.2766 -0.3900 -1.0144
  681MOL0     C89792   8.729   2.084   5.642  0.0365  0.5510 -0.7132
  681MOL0     C89793   8.862   2.036   5.616 -0.0998 -0.4641  0.0488
  681MOL0     C89794   8.973   2.118   5.606 -0.7005 -1.3911  0.0655
  681MOL0     O89795   9.091   2.058   5.578  0.7618 -0.0661  0.7573
  681MOL0     C89796   9.170   2.127   5.483 -0.3778 -1.2331  0.3279
  681MOL0     C89797   9.290   2.045   5.441  0.8395  0.2138 -0.4584
  681MOL0     C89798   9.374   2.008   5.567  0.4533  0.8899 -1.1711
  681MOL0     C89799   9.503   1.946   5.513  0.0593 -0.1040  0.1097
  681MOL0     C89800   9.586   1.879   5.629 -0.2502  0.2340  0.4686
  681MOL0     C89801   9.659   1.984   5.717 -0.1013 -0.1512  0.0596
  681MOL0     C89802   9.760   1.920   5.818 -0.0327 -0.3885 -0.2661
  681MOL0     C89803   9.812   2.022   5.909 -0.2574  0.3650  0.5448
  681MOL0    Cl89804   9.852   1.937   6.063  0.1804  0.4355  0.5711
  681MOL0     C89805   8.948   2.258   5.618  0.2268  0.4292 -0.4082
  681MOL0     C89806   8.818   2.305   5.645 -0.4119  0.0469 -0.4319
  681MOL0     O89807   8.590   2.489   5.627  0.1185 -0.3730  0.3258
  681MOL0     C89808   8.336   2.546   5.712  0.1204  0.7670  0.0266
  681MOL0     C89809   8.204   2.573   5.724 -0.2050 -0.0680  0.2706
  681MOL0     N89810   8.175   2.862   6.196 -0.0857 -0.1117 -0.2392
  681MOL0     N89811   8.263   2.963   6.178  0.3179  0.4253  0.0690
  681MOL0     C89812   8.531   3.806   5.581  0.3175 -0.9566  0.5608
  681MOL0     C89813   8.478   3.937   5.586 -0.4119  0.7707  0.0883
  681MOL0     C89814   8.222   4.271   5.604  0.1872  0.2671 -0.0823
  681MOL0     C89815   8.163   4.313   5.484  0.5499 -0.4315  0.5761
  681MOL0     C89816   8.112   4.447   5.476 -0.1661  0.3533 -0.4089
  681MOL0     C89817   8.119   4.534   5.585  0.1234 -1.6341 -0.6095
  681MOL0     O89818   8.074   4.669   5.576  0.5284  0.0784  0.1233
  681MOL0     C89819   8.046   4.718   5.445 -0.1503  0.1514  0.2714
  681MOL0     C89820   8.002   4.863   5.463 -0.6970  0.1259  0.1570
  681MOL0     C89821   7.951   4.918   5.329 -0.1901 -0.5340  0.4601
  681MOL0     C89822   8.058   4.904   5.216  0.2496  0.0088 -0.6818
  681MOL0     C89823   8.185   4.967   5.244  0.3460 -0.1428  0.5262
  681MOL0     C89824   8.288   5.027   5.251  0.8134 -0.3166 -0.8243
  681MOL0     C89825   8.170   4.487   5.707  0.7456 -0.1343 -0.3608
  681MOL0     C89826   8.219   4.361   5.716  0.3581  0.1177 -0.4085
  681MOL0     H89827   8.175   3.848   5.456 -0.2868 -1.9349 -0.4363
  681MOL0     H89828   8.286   3.617   5.442  1.3391 -2.3645  2.9572
  681MOL0     H89829   8.667   3.588   5.665  0.1100 -0.6758 -0.1883
  681MOL0     H89830   8.718   3.638   5.493 -0.8628 -1.8988 -2.2080
  681MOL0     H89831   8.806   3.406   5.562  1.3013  0.8196 -0.6768
  681MOL0     H89832   8.706   3.409   5.419 -0.5749 -1.4316  0.6607
  681MOL0     H89833   8.631   3.222   5.536  1.3598  1.0673 -1.4091
  681MOL0     H89834   8.508   3.349   5.596  0.6231  0.6978  0.4394
  681MOL0     H89835   8.752   3.298   5.750  0.6845  0.5306  1.4017
  681MOL0     H89836   8.624   3.407   5.773 -0.0065 -0.0141  1.9510
  681MOL0     H89837   8.581   3.209   5.906  0.7354 -2.7912 -0.1204
  681MOL0     H89838   8.619   3.096   5.780 -0.1230 -0.5133 -1.0847
  681MOL0     H89839   8.397   3.151   5.669  0.2582  3.1521 -0.5768
  681MOL0     H89840   8.364   3.274   5.791 -3.3128 -0.5073 -3.8163
  681MOL0     H89841   8.255   3.053   5.831 -0.2572  2.5174 -2.0711
  681MOL0     H89842   8.407   2.982   5.873 -0.1920 -0.8779 -2.8278
  681MOL0     H89843   8.281   3.236   5.985  2.5562  0.6841 -0.3222
  681MOL0     H89844   8.412   3.148   6.059 -1.8570  2.2815  2.0586
  681MOL0     H89845   8.061   3.068   5.956 -0.5125 -0.2957 -0.5432
  681MOL0     H89846   7.875   2.892   6.135  0.0119  0.7352  0.2000
  681MOL0     H89847   7.943   2.737   6.169  0.7572 -1.4133 -3.0623
  681MOL0     H89848   7.894   2.855   5.877  1.5421 -0.4480 -1.0596
  681MOL0     H89849   7.776   2.753   5.956 -0.6206  0.5656  1.3957
  681MOL0     H89850   8.060   2.674   5.919  0.3237 -0.1786 -0.0491
  681MOL0     H89851   7.916   2.576   5.967  0.1936  2.6124  2.4774
  681MOL0     H89852   7.976   2.679   5.691  1.5334 -1.2789  0.1321
  681MOL0     H89853   7.816   2.619   5.739  0.8036  3.4893 -1.1811
  681MOL0     H89854   8.079   2.263   5.679 -0.0499  0.1787  0.2650
  681MOL0     H89855   8.318   2.213   5.643 -0.3131 -0.1195  0.0982
  681MOL0     H89856   8.644   2.018   5.660  1.2311 -0.8702 -0.0519
  681MOL0     H89857   8.870   1.927   5.613  2.6362 -0.3399  0.7728
  681MOL0     H89858   9.202   2.222   5.526 -1.9294 -0.8511  0.6821
  681MOL0     H89859   9.109   2.147   5.395  1.7499 -1.9003 -1.3991
  681MOL0     H89860   9.360   2.114   5.391  4.4869 -1.5351  1.8035
  681MOL0     H89861   9.258   1.960   5.382 -0.6358 -1.4904  2.5498
  681MOL0     H89862   9.331   1.936   5.638  2.7551  0.5895  0.0198
  681MOL0     H89863   9.394   2.099   5.625 -2.0974 -0.0393  1.3899
  681MOL0     H89864   9.491   1.871   5.434  1.2969  0.5577 -0.7469
  681MOL0     H89865   9.566   2.016   5.458 -1.3344 -0.6845 -2.3664
  681MOL0     H89866   9.662   1.807   5.596  0.1296 -0.3568  2.4638
  681MOL0     H89867   9.517   1.821   5.691  2.1068  0.2522  3.3332
  681MOL0     H89868   9.589   2.046   5.773  1.1605  1.5591 -0.1756
  681MOL0     H89869   9.718   2.056   5.658 -2.8748  1.8210 -0.4716
  681MOL0     H89870   9.700   1.849   5.874 -1.1306  1.2412  0.7072
  681MOL0     H89871   9.839   1.867   5.763 -1.3667 -0.9603 -1.6865
  681MOL0     H89872   9.729   2.091   5.927 -0.5207 -0.3805  2.4736
  681MOL0     H89873   9.890   2.087   5.867 -0.8563  1.7015  1.4068
  681MOL0     H89874   9.031   2.327   5.622  2.2784 -1.9078  2.8838
  681MOL0     H89875   8.825   2.412   5.661  2.6539 -0.4311  2.5428
  681MOL0     H89876   8.402   2.628   5.737 -0.7721  1.1147  1.3912
  681MOL0     H89877   8.190   2.679   5.741  3.3698  0.6810 -0.5234
  681MOL0     H89878   8.627   3.797   5.632  0.1279  1.8196  1.5579
  681MOL0     H89879   8.542   4.010   5.635 -0.1769  0.3939  0.3502
  681MOL0     H89880   8.172   4.241   5.404  0.8602 -0.4050  0.5868
  681MOL0     H89881   8.058   4.470   5.385 -3.2703  0.2076  1.2720
  681MOL0     H89882   7.974   4.662   5.384  1.1429 -0.6150 -0.5925
  681MOL0     H89883   8.131   4.723   5.376 -0.9943 -1.7046 -0.9719
  681MOL0     H89884   7.919   4.873   5.533 -2.2164 -0.3966 -1.5009
  681MOL0     H89885   8.092   4.917   5.492 -1.5886  1.4037  0.6321
  681MOL0     H89886   7.926   5.024   5.331  1.8856  0.0492 -1.0972
  681MOL0     H89887   7.860   4.868   5.294  0.6121 -2.0016  0.3925
  681MOL0     H89888   8.066   4.799   5.187 -1.6308 -0.5534  0.6006
  681MOL0     H89889   8.020   4.963   5.132 -0.4893 -1.2602 -1.2687
  681MOL0     H89890   8.377   5.086   5.259 -0.6708  1.9430  0.1664
  681MOL0     H89891   8.162   4.547   5.797 -0.7427  0.0631 -0.5947
  681MOL0     H89892   8.250   4.325   5.814  0.6357 -1.3332 -1.0108
  682MOL0     O89893  10.628   6.174   2.612 -0.4482  0.6589 -0.3114
  682MOL0     C89894  10.719   6.253   2.602 -0.0820  0.0769 -0.3883
  682MOL0     O89895  10.706   6.394   2.566 -0.6157  1.0957 -0.1253
  682MOL0     C89896  10.581   6.454   2.532 -0.3202  0.6629 -0.1924
  682MOL0     C89897  10.563   6.590   2.561 -0.6159  0.4031  0.6034
  682MOL0     C89898  10.442   6.649   2.543  0.5025  0.3000 -0.6149
  682MOL0     C89899  10.343   6.581   2.465 -0.3209 -0.0869  0.4834
  682MOL0     O89900  10.230   6.644   2.415 -0.6464  0.0985  0.1975
  682MOL0     C89901  10.164   6.747   2.490 -0.9458 -0.6539 -0.2763
  682MOL0     C89902  10.018   6.753   2.444 -1.2116  0.7327  0.3388
  682MOL0     C89903   9.997   6.796   2.298  0.8958  0.0662 -0.1078
  682MOL0     C89904   9.846   6.787   2.283  1.5101 -0.0415  0.1669
  682MOL0     C89905   9.792   6.868   2.162 -0.0603  1.0208 -0.2103
  682MOL0     C89906   9.644   6.896   2.187 -0.1739 -0.3101 -0.1220
  682MOL0     C89907   9.604   7.002   2.283 -0.3099  0.3109 -0.7994
  682MOL0     C89908   9.457   7.040   2.277 -0.7379  0.1546 -0.2525
  682MOL0     N89909   9.418   7.145   2.368 -0.9170  0.0608 -0.8581
  682MOL0     C89910   9.357   7.272   2.339 -0.3070  0.1288  0.6046
  682MOL0     C89911   9.323   7.319   2.456  0.9639  0.3372  0.5109
  682MOL0     C89912   9.269   7.454   2.492  0.4781 -0.4451  0.2672
  682MOL0     C89913   9.135   7.446   2.564  0.3132 -0.0496 -0.4415
  682MOL0     C89914   9.064   7.582   2.578 -0.1762  0.2142 -0.1424
  682MOL0     C89915   8.947   7.574   2.678  0.6724 -0.0536 -0.3070
  682MOL0     O89916   8.916   7.714   2.705 -0.0151 -0.1022  0.0341
  682MOL0     C89917   8.793   7.756   2.756  0.2165  1.4128 -0.9880
  682MOL0     C89918   8.695   7.664   2.787 -0.1708  0.0874 -0.0575
  682MOL0     C89919   8.571   7.706   2.833 -0.2740 -0.6652 -0.1390
  682MOL0     C89920   8.535   7.843   2.834 -0.8331 -0.5752 -0.1442
  682MOL0     C89921   8.397   7.881   2.889  0.3089  0.0292  0.0257
  682MOL0     O89922   8.302   7.782   2.908 -0.2213 -0.4226  0.5676
  682MOL0     C89923   8.175   7.817   2.922 -0.0583  0.1139  0.2888
  682MOL0     C89924   8.132   7.875   3.043 -0.2263 -0.9196  1.0144
  682MOL0     C89925   7.995   7.892   3.055 -0.0215 -0.3922  0.4919
  682MOL0     C89926   7.903   7.864   2.952 -0.3089 -0.0133 -0.0939
  682MOL0     O89927   7.773   7.865   2.989 -0.0394 -0.5302  0.5844
  682MOL0     C89928   7.717   8.003   2.977  0.0894 -0.1291 -0.0121
  682MOL0     C89929   7.561   8.002   2.972 -0.6160 -0.1153 -0.3804
  682MOL0     C89930   7.504   7.932   3.093  0.6922  0.3151 -0.6161
  682MOL0     C89931   7.351   7.921   3.087 -0.0933  0.3227 -0.1615
  682MOL0     C89932   7.277   8.042   3.150  0.0755  0.0049 -0.7533
  682MOL0     C89933   7.125   8.037   3.136 -0.0149  0.6414  0.4146
  682MOL0     C89934   7.058   8.167   3.177  0.0511  0.1829  0.3781
  682MOL0     C89935   7.059   8.197   3.330  0.1261 -0.6431  0.3369
  682MOL0    Cl89936   6.977   8.058   3.411 -0.4317 -0.2307  0.0288
  682MOL0     C89937   7.951   7.829   2.824 -0.5510  0.2863 -0.1705
  682MOL0     C89938   8.090   7.796   2.811  0.0269 -0.3792  0.1482
  682MOL0     O89939   8.386   8.003   2.896  0.2496  0.2609 -0.2988
  682MOL0     C89940   8.633   7.930   2.793 -0.6198 -0.8747 -0.0758
  682MOL0     C89941   8.762   7.889   2.762 -0.2243 -0.4820  0.5030
  682MOL0     N89942   9.367   7.238   2.559  0.0166  0.8063  0.0379
  682MOL0     N89943   9.425   7.129   2.506  0.7893 -0.1642 -0.1073
  682MOL0     C89944  10.370   6.452   2.423  0.2261 -0.2964  0.3368
  682MOL0     C89945  10.489   6.389   2.451 -0.7868 -0.0858 -0.2269
  682MOL0     C89946  10.857   6.188   2.591 -0.5323  0.3428  0.1511
  682MOL0     C89947  10.877   6.046   2.600 -0.8190  1.0020  0.6815
  682MOL0     C89948  11.005   5.988   2.605 -0.2981  0.9748  0.3638
  682MOL0     C89949  11.120   6.068   2.594 -0.9637 -0.0321 -0.5393
  682MOL0     O89950  11.244   6.000   2.593 -0.3728 -0.4765  0.5604
  682MOL0     C89951  11.368   6.074   2.595  0.3194 -0.4555 -0.2378
  682MOL0     C89952  11.487   5.977   2.632  0.1554  0.3270  0.6830
  682MOL0     C89953  11.624   6.051   2.628  0.3542  0.4566 -0.0614
  682MOL0     C89954  11.734   5.959   2.579 -0.8005  0.1959 -0.2604
  682MOL0     C89955  11.862   6.022   2.584 -0.3638 -0.8628 -0.3134
  682MOL0     C89956  11.968   6.071   2.576  0.2256  0.1256 -0.3020
  682MOL0     C89957  11.106   6.201   2.586  0.3188 -0.2151  0.1262
  682MOL0     C89958  10.974   6.261   2.592  0.1995 -0.5857 -0.1011
  682MOL0     H89959  10.639   6.650   2.608  1.3506 -2.4305  1.3190
  682MOL0     H89960  10.433   6.748   2.587  1.6019  1.1742 -2.2654
  682MOL0     H89961  10.197   6.849   2.470 -0.9804 -0.0854  2.1852
  682MOL0     H89962  10.165   6.741   2.599  0.4521  1.1780 -0.1498
  682MOL0     H89963   9.958   6.814   2.512 -0.3475  0.9369  0.9379
  682MOL0     H89964   9.986   6.649   2.458  0.2442  0.2107 -0.0232
  682MOL0     H89965  10.055   6.729   2.234 -0.0702 -2.7377  1.7800
  682MOL0     H89966  10.026   6.901   2.294 -0.7044  0.6971  2.6402
  682MOL0     H89967   9.814   6.684   2.267 -0.9041  0.2564  2.3587
  682MOL0     H89968   9.790   6.829   2.366 -1.6267  1.7692 -2.6063
  682MOL0     H89969   9.799   6.802   2.075  2.5049 -0.9535  1.3492
  682MOL0     H89970   9.858   6.952   2.141  1.1441 -0.2734 -1.9925
  682MOL0     H89971   9.590   6.803   2.207 -1.7287  0.7872  1.0774
  682MOL0     H89972   9.607   6.922   2.088  1.7788 -0.6397 -0.9880
  682MOL0     H89973   9.615   6.967   2.386 -1.5240 -0.1359 -0.8109
  682MOL0     H89974   9.673   7.086   2.272  1.5026 -1.3457 -3.0783
  682MOL0     H89975   9.400   6.947   2.293 -2.0890  1.0196  0.1341
  682MOL0     H89976   9.424   7.071   2.177 -1.4402  0.5104  0.0787
  682MOL0     H89977   9.328   7.321   2.247  0.7644  2.1171  1.2725
  682MOL0     H89978   9.252   7.513   2.402 -0.6273 -0.1568  0.6491
  682MOL0     H89979   9.346   7.512   2.546  0.2657 -1.0079  1.1953
  682MOL0     H89980   9.154   7.402   2.663  0.1024 -0.9817 -0.8004
  682MOL0     H89981   9.067   7.384   2.505  0.2549  0.3113 -0.7562
  682MOL0     H89982   9.132   7.660   2.611  2.6503 -2.8472  1.9358
  682MOL0     H89983   9.024   7.605   2.478 -0.3827 -0.2779 -0.1773
  682MOL0     H89984   8.980   7.519   2.766 -1.3067  1.9630  1.8386
  682MOL0     H89985   8.863   7.518   2.637 -0.8289  0.9673  1.2644
  682MOL0     H89986   8.704   7.556   2.782 -0.2451  0.1326 -1.6302
  682MOL0     H89987   8.501   7.629   2.861 -2.3803  0.9795 -0.5973
  682MOL0     H89988   8.204   7.894   3.121 -0.1368 -2.7726  1.4282
  682MOL0     H89989   7.958   7.934   3.148 -1.5982  1.0885 -0.7265
  682MOL0     H89990   7.751   8.047   2.883  2.6242 -3.1350 -0.7036
  682MOL0     H89991   7.742   8.067   3.062 -0.9854  1.9216 -1.1804
  682MOL0     H89992   7.528   7.951   2.882  0.9955  0.1916 -1.1854
  682MOL0     H89993   7.515   8.101   2.974 -1.5561 -0.4169 -3.0866
  682MOL0     H89994   7.539   7.975   3.187  2.9141  1.7724 -2.0388
  682MOL0     H89995   7.532   7.826   3.100  0.4753  0.3104  0.4141
  682MOL0     H89996   7.317   7.907   2.984  1.4615 -1.4206 -0.4768
  682MOL0     H89997   7.322   7.829   3.138 -2.2609  1.6576  1.2139
  682MOL0     H89998   7.312   8.129   3.094  0.2631 -0.1434 -0.8668
  682MOL0     H89999   7.295   8.059   3.257 -1.0706  0.3593 -0.5977
  682MOL0     H90000   7.086   7.943   3.177  0.2271  0.1929 -0.3568
  682MOL0     H90001   7.113   8.028   3.027  1.5168 -1.3627  0.3489
  682MOL0     H90002   7.110   8.249   3.126  0.1426  0.1804  0.4678
  682MOL0     H90003   6.954   8.160   3.146  0.7761  0.8890 -2.4618
  682MOL0     H90004   7.016   8.297   3.343  0.3932 -0.3160 -1.0836
  682MOL0     H90005   7.161   8.212   3.366 -0.5600 -0.0612  2.1120
  682MOL0     H90006   7.887   7.820   2.737  0.3275 -0.0147 -0.7985
  682MOL0     H90007   8.131   7.745   2.724 -0.4171 -1.5221  0.5831
  682MOL0     H90008   8.622   8.038   2.796 -0.6507 -0.9051  1.8015
  682MOL0     H90009   8.837   7.958   2.725 -2.0232 -0.6783 -4.0742
  682MOL0     H90010  10.300   6.401   2.358  0.1399 -0.1346  0.3043
  682MOL0     H90011  10.516   6.285   2.436 -1.9864 -0.8429  2.4024
  682MOL0     H90012  10.787   5.985   2.606 -0.4996 -0.3368 -4.1372
  682MOL0     H90013  11.017   5.881   2.599 -0.1226  1.0594 -1.2373
  682MOL0     H90014  11.375   6.154   2.670  3.2282 -0.1478 -0.7340
  682MOL0     H90015  11.388   6.117   2.497 -1.7256 -1.0298 -0.9564
  682MOL0     H90016  11.471   5.931   2.730  1.1294 -0.6313  0.4075
  682MOL0     H90017  11.490   5.895   2.560  1.7426 -1.1996  2.3983
  682MOL0     H90018  11.647   6.101   2.722  0.4675 -0.4090  0.3767
  682MOL0     H90019  11.620   6.134   2.556  0.3998  2.4435  2.1210
  682MOL0     H90020  11.731   5.868   2.639  0.9845 -0.6369 -1.3536
  682MOL0     H90021  11.720   5.941   2.472  1.0146  0.9446 -0.6725
  682MOL0     H90022  12.064   6.119   2.567 -0.9216  2.5013 -0.7374
  682MOL0     H90023  11.189   6.272   2.584 -1.0376  1.6956  3.4519
  682MOL0     H90024  10.965   6.369   2.590 -1.2853 -0.6855  0.0948
  683MOL0     O90025   9.075   6.707  10.347 -0.4064  0.4121 -0.3146
  683MOL0     C90026   9.105   6.587  10.363  0.0339 -0.9924  0.2682
  683MOL0     O90027   9.015   6.486  10.388 -0.1414  0.0793  0.5364
  683MOL0     C90028   8.877   6.500  10.383  0.0321  0.0119  0.5702
  683MOL0     C90029   8.815   6.610  10.321 -0.6008 -0.1742  0.7228
  683MOL0     C90030   8.682   6.625  10.324 -0.6905  0.3117 -0.6200
  683MOL0     C90031   8.594   6.531  10.370 -0.7347 -0.1310  0.5954
  683MOL0     O90032   8.459   6.559  10.353 -0.6453  0.0320  0.3177
  683MOL0     C90033   8.380   6.501  10.462 -0.1983 -0.0230  0.0308
  683MOL0     C90034   8.237   6.550  10.474 -0.8603 -0.2014 -0.3574
  683MOL0     C90035   8.181   6.513  10.613  1.1221  0.2510 -0.0944
  683MOL0     C90036   8.018   6.506  10.593 -0.4804  0.1559 -0.2705
  683MOL0     C90037   7.952   6.540  10.732 -0.4748 -0.5223 -0.7344
  683MOL0     C90038   7.797   6.530  10.752 -0.0392  0.1363  0.4641
  683MOL0     C90039   7.742   6.388  10.750  0.9078 -0.0993  0.6259
  683MOL0     C90040   7.584   6.374  10.751  0.7254 -0.2432  0.3097
  683MOL0     N90041   7.529   6.436  10.878  0.1994  0.2827  0.0974
  683MOL0     C90042   7.497   6.566  10.908  0.0944  0.5220  0.8253
  683MOL0     C90043   7.422   6.560  11.024 -0.6045 -0.0779  0.2513
  683MOL0     C90044   7.369   6.685  11.099  0.4411  0.2555 -0.0272
  683MOL0     C90045   7.273   6.749  10.999  0.7398  0.5008  0.2403
  683MOL0     C90046   7.196   6.855  11.080 -0.6809 -1.3188  0.9079
  683MOL0     C90047   7.052   6.870  11.021 -0.1346  0.1298  0.3462
  683MOL0     O90048   6.975   6.758  11.062  0.6874 -0.3377 -0.0318
  683MOL0     C90049   6.851   6.742  11.005  0.5354  0.2471 -0.3185
  683MOL0     C90050   6.779   6.838  10.927  0.4217  0.2576 -0.0357
  683MOL0     C90051   6.647   6.813  10.886 -0.2009 -0.6310  0.2469
  683MOL0     C90052   6.575   6.697  10.927 -0.1919 -0.0956 -0.5507
  683MOL0     C90053   6.438   6.686  10.887  1.3422  0.6219 -0.1743
  683MOL0     O90054   6.381   6.790  10.831  0.5027 -0.1997 -0.1451
  683MOL0     C90055   6.260   6.776  10.770  1.2262  0.5403 -0.0065
  683MOL0     C90056   6.236   6.680  10.667  0.3365  0.7868  0.1625
  683MOL0     C90057   6.114   6.674  10.609 -0.0311 -1.0485 -0.1285
  683MOL0     C90058   6.011   6.762  10.648  0.0848  0.9084  0.2845
  683MOL0     O90059   5.887   6.754  10.591  0.4645  1.1197  0.0361
  683MOL0     C90060   5.868   6.661  10.489  0.8734 -0.5678  0.8965
  683MOL0     C90061   5.714   6.668  10.445 -0.6237 -0.5139 -0.3353
  683MOL0     C90062   5.674   6.554  10.352  0.1322 -0.3871 -0.4094
  683MOL0     C90063   5.528   6.568  10.311  0.0849  0.1878  0.8386
  683MOL0     C90064   5.467   6.448  10.233  0.5669 -0.6649 -0.1800
  683MOL0     C90065   5.329   6.484  10.193 -0.5781  0.6888  0.0012
  683MOL0     C90066   5.242   6.368  10.121 -0.8224 -0.6789  0.1511
  683MOL0     C90067   5.093   6.422  10.088 -0.3159 -0.1507  0.0331
  683MOL0    Cl90068   4.996   6.268  10.095  0.3132  0.3066  0.1581
  683MOL0     C90069   6.031   6.854  10.746 -0.6254  0.2002  0.3688
  683MOL0     C90070   6.151   6.860  10.809 -0.1863  0.0313 -0.0444
  683MOL0     O90071   6.391   6.572  10.897  0.0076  0.5776  0.2258
  683MOL0     C90072   6.649   6.605  11.000 -0.6715  0.0659  0.6917
  683MOL0     C90073   6.781   6.628  11.044  0.0341 -0.3889  0.5179
  683MOL0     N90074   7.405   6.428  11.057 -0.6157  0.0686 -0.3804
  683MOL0     N90075   7.466   6.357  10.966  1.6061 -0.3751 -0.5223
  683MOL0     C90076   8.648   6.413  10.427  0.0837 -0.6964  0.3187
  683MOL0     C90077   8.786   6.400  10.432 -0.1890  0.5679  0.0186
  683MOL0     C90078   9.244   6.543  10.363 -0.0456 -0.3445  0.3043
  683MOL0     C90079   9.342   6.641  10.372  0.0584 -0.1789 -0.2509
  683MOL0     C90080   9.477   6.602  10.377  0.4002  0.2624 -1.2291
  683MOL0     C90081   9.513   6.470  10.364 -1.1600 -0.7223  0.2453
  683MOL0     O90082   9.650   6.452  10.370  0.1838 -0.3766 -0.5152
  683MOL0     C90083   9.707   6.328  10.340  1.2173 -1.0151  0.1981
  683MOL0     C90084   9.860   6.341  10.303 -0.3727 -0.7716  0.3070
  683MOL0     C90085   9.908   6.243  10.197 -0.5724 -0.5503  0.3653
  683MOL0     C90086  10.061   6.239  10.178  0.3663  0.3378 -0.6978
  683MOL0     C90087  10.100   6.359  10.103 -0.0217  0.5108  0.7685
  683MOL0     C90088  10.147   6.457  10.057 -0.8094  0.2798  0.8419
  683MOL0     C90089   9.414   6.373  10.334 -0.1911 -1.2105  0.7629
  683MOL0     C90090   9.280   6.403  10.350 -0.6067  0.1880 -0.4415
  683MOL0     H90091   8.863   6.691  10.268 -1.8059  0.3344  0.3619
  683MOL0     H90092   8.633   6.712  10.282 -0.7051  0.4747 -0.2632
  683MOL0     H90093   8.429   6.526  10.556  0.1199  0.8045 -0.3447
  683MOL0     H90094   8.382   6.392  10.452  4.5816 -0.0366 -1.2055
  683MOL0     H90095   8.179   6.493  10.401  2.2637 -1.4325 -2.1028
  683MOL0     H90096   8.242   6.657  10.456 -0.4782  0.6278  3.7320
  683MOL0     H90097   8.213   6.583  10.691 -0.2041 -1.1001  1.7249
  683MOL0     H90098   8.214   6.412  10.637  0.2917 -0.2789 -1.1095
  683MOL0     H90099   7.992   6.580  10.516 -0.0254  2.0120  1.2747
  683MOL0     H90100   7.987   6.405  10.565  0.1311  0.5874 -2.7331
  683MOL0     H90101   7.988   6.638  10.764  1.7773 -0.9846 -1.6536
  683MOL0     H90102   7.989   6.465  10.803 -3.7994 -0.5506  1.1612
  683MOL0     H90103   7.740   6.596  10.686 -0.5059 -0.3255  0.3904
  683MOL0     H90104   7.771   6.569  10.851 -0.3837 -0.1097  0.4743
  683MOL0     H90105   7.772   6.351  10.652 -0.1693  1.7499 -0.4834
  683MOL0     H90106   7.775   6.322  10.831 -0.3422 -1.2517  0.2327
  683MOL0     H90107   7.561   6.268  10.744  1.8347 -0.4404 -0.5754
  683MOL0     H90108   7.534   6.425  10.669 -0.6244 -1.4736  0.3196
  683MOL0     H90109   7.529   6.652  10.850 -0.9010  0.2391 -0.1796
  683MOL0     H90110   7.444   6.762  11.119  2.8543 -1.5781 -1.5364
  683MOL0     H90111   7.326   6.642  11.191 -1.1528 -0.7415 -1.1760
  683MOL0     H90112   7.208   6.672  10.956  0.2295  1.6951 -1.2353
  683MOL0     H90113   7.337   6.793  10.921  1.2004 -0.5015  0.0284
  683MOL0     H90114   7.187   6.835  11.187 -0.4393  1.2002  1.4679
  683MOL0     H90115   7.259   6.944  11.072 -2.3116 -0.2560 -1.1499
  683MOL0     H90116   7.039   6.884  10.913 -0.1962  0.8298  0.4382
  683MOL0     H90117   7.002   6.954  11.068 -2.0718 -0.7662 -0.0227
  683MOL0     H90118   6.821   6.933  10.897 -0.8511  0.8350 -0.0203
  683MOL0     H90119   6.598   6.868  10.806  0.0537 -2.7249 -1.4373
  683MOL0     H90120   6.315   6.617  10.629 -1.3972 -0.7456 -1.1010
  683MOL0     H90121   6.099   6.608  10.524 -1.8595  1.0472 -1.5295
  683MOL0     H90122   5.881   6.558  10.525  2.3653 -1.0083 -0.7541
  683MOL0     H90123   5.937   6.679  10.406  0.5710 -0.3978  0.6827
  683MOL0     H90124   5.703   6.760  10.388  2.2609 -0.8967 -1.6985
  683MOL0     H90125   5.647   6.659  10.531 -1.1617  0.1295 -0.6817
  683MOL0     H90126   5.685   6.468  10.419 -1.0743 -0.0797  0.2113
  683MOL0     H90127   5.738   6.544  10.263  2.5974 -0.4073  1.2593
  683MOL0     H90128   5.463   6.587  10.397  1.4167 -1.0980  2.2108
  683MOL0     H90129   5.532   6.650  10.239 -1.1991 -0.3222  0.1615
  683MOL0     H90130   5.457   6.364  10.303  0.4462 -1.0455 -0.6475
  683MOL0     H90131   5.530   6.405  10.154  2.3276 -2.2126  1.9466
  683MOL0     H90132   5.339   6.568  10.123 -2.2513  1.6025  0.7922
  683MOL0     H90133   5.268   6.525  10.275 -1.8707 -1.6578  0.3037
  683MOL0     H90134   5.299   6.328  10.037  0.6543  1.0027  0.2945
  683MOL0     H90135   5.226   6.283  10.189 -0.7638 -0.6300  0.2271
  683MOL0     H90136   5.099   6.475   9.993  0.3977  1.1332  0.7612
  683MOL0     H90137   5.054   6.482  10.171  1.1023 -2.0161  2.1994
  683MOL0     H90138   5.950   6.921  10.770 -1.4677 -1.3125  2.0071
  683MOL0     H90139   6.184   6.925  10.889  2.5798 -1.0070 -0.2536
  683MOL0     H90140   6.599   6.515  11.035 -3.1276  1.8053  1.9787
  683MOL0     H90141   6.835   6.546  11.090  0.0325  0.4314  2.0498
  683MOL0     H90142   8.583   6.331  10.454 -1.9361  1.2496  1.7822
  683MOL0     H90143   8.826   6.311  10.478 -0.7517 -2.1050 -4.1314
  683MOL0     H90144   9.317   6.745  10.391  1.2419 -0.3072  2.4968
  683MOL0     H90145   9.551   6.680  10.386  2.6250 -1.9583  3.0162
  683MOL0     H90146   9.651   6.287  10.256 -1.3345  1.6231  0.4658
  683MOL0     H90147   9.690   6.264  10.428 -3.0877  1.7945  1.7448
  683MOL0     H90148   9.871   6.444  10.268 -1.7394 -1.2738 -1.7887
  683MOL0     H90149   9.909   6.323  10.399 -0.3953 -1.2605  0.2275
  683MOL0     H90150   9.849   6.246  10.105 -1.1223  0.3602  0.7292
  683MOL0     H90151   9.887   6.146  10.243 -1.6037 -0.3691  0.3111
  683MOL0     H90152  10.107   6.238  10.277 -0.1771 -0.0317 -0.4385
  683MOL0     H90153  10.086   6.145  10.127 -2.0049 -0.9040  0.2558
  683MOL0     H90154  10.165   6.561  10.038  0.5516  0.1692  1.3890
  683MOL0     H90155   9.439   6.272  10.302 -2.3285 -1.3616 -0.6235
  683MOL0     H90156   9.202   6.330  10.330 -1.6300  0.4039  2.3346
  684MOL0     O90157   9.718   0.235  10.568 -0.0072  0.0440 -0.8456
  684MOL0     C90158   9.716   0.320  10.659  0.0675  0.3746  0.4481
  684MOL0     O90159   9.604   0.378  10.722  0.1484 -0.2294  0.6493
  684MOL0     C90160   9.486   0.367  10.650 -0.0775  1.0761 -0.1727
  684MOL0     C90161   9.378   0.273  10.683  0.3614 -0.4779  0.6041
  684MOL0     C90162   9.251   0.285  10.615 -0.5150  0.0024 -0.2137
  684MOL0     C90163   9.229   0.391  10.524  0.2180  0.0024  0.4815
  684MOL0     O90164   9.107   0.406  10.468 -0.6278 -0.1179 -0.3192
  684MOL0     C90165   9.072   0.538  10.419 -0.6090  0.0382 -0.3227
  684MOL0     C90166   8.920   0.557  10.435 -0.9455  0.2077  0.8283
  684MOL0     C90167   8.835   0.458  10.352 -0.0921 -0.2083 -0.8178
  684MOL0     C90168   8.695   0.512  10.329  0.8175 -0.4199 -0.2358
  684MOL0     C90169   8.593   0.426  10.246 -1.1607  0.3740  0.2026
  684MOL0     C90170   8.467   0.500  10.218 -0.1913 -0.4259 -0.2126
  684MOL0     C90171   8.374   0.391  10.146  0.4621 -0.3686 -0.6476
  684MOL0     C90172   8.227   0.437  10.127 -0.0142  0.1044  0.6037
  684MOL0     N90173   8.136   0.348  10.061 -0.2723 -0.6304 -0.2623
  684MOL0     C90174   8.062   0.265  10.140 -0.5717 -0.3781 -0.0646
  684MOL0     C90175   7.959   0.222  10.058 -0.4998 -0.0512  0.0329
  684MOL0     C90176   7.829   0.154  10.102 -1.0328 -0.3413  0.5820
  684MOL0     C90177   7.761   0.236  10.210  0.3823 -0.3035  0.8905
  684MOL0     C90178   7.624   0.173  10.242  0.2600  0.0905  0.5332
  684MOL0     C90179   7.651   0.035  10.306 -0.1223 -0.4060  0.0147
  684MOL0     O90180   7.570  -0.012  10.410  0.3586 -0.2571 -0.6047
  684MOL0     C90181   7.433  -0.029  10.389 -0.8847 -0.3396 -0.8356
  684MOL0     C90182   7.361  -0.029  10.260  0.0395 -0.4569 -0.0458
  684MOL0     C90183   7.219  -0.042  10.252 -0.8282  0.3115 -0.4634
  684MOL0     C90184   7.147  -0.068  10.370  0.1454  0.1894 -0.7244
  684MOL0     C90185   6.996  -0.073  10.381  0.5998  0.4506  0.0336
  684MOL0     O90186   6.939  -0.106  10.500  0.4707 -0.0820  0.1046
  684MOL0     C90187   6.798  -0.110  10.504 -0.0427 -0.2583 -0.5279
  684MOL0     C90188   6.716  -0.182  10.419 -0.2488 -0.2093  0.7786
  684MOL0     C90189   6.575  -0.176  10.423  0.9607  0.0594 -0.1652
  684MOL0     C90190   6.517  -0.103  10.534  0.3190 -0.6771 -1.0688
  684MOL0     O90191   6.379  -0.108  10.542 -0.3227 -0.1570  0.6188
  684MOL0     C90192   6.316  -0.012  10.454  1.2902 -0.2251  0.2590
  684MOL0     C90193   6.174   0.003  10.499  0.0788 -0.1166  0.2014
  684MOL0     C90194   6.153   0.071  10.639 -0.4754 -0.1770  0.7097
  684MOL0     C90195   6.009   0.051  10.696  0.3469 -1.1220  0.2151
  684MOL0     C90196   6.010   0.108  10.844  0.8482 -0.9105  0.2071
  684MOL0     C90197   5.876   0.096  10.906  0.9431 -0.8925 -0.5670
  684MOL0     C90198   5.886   0.156  11.050  0.3445  0.0826  0.6404
  684MOL0     C90199   5.954   0.062  11.144  0.1131 -0.4366 -0.3150
  684MOL0    Cl90200   5.956   0.129  11.315  0.2879 -0.4832  0.6187
  684MOL0     C90201   6.605  -0.038  10.627 -0.2912  0.0941 -0.2901
  684MOL0     C90202   6.743  -0.042  10.606 -0.7817 -0.0739  0.0679
  684MOL0     O90203   6.936  -0.043  10.276 -0.1856 -0.8286 -0.6823
  684MOL0     C90204   7.220  -0.079  10.498  0.4889 -1.3213  0.2557
  684MOL0     C90205   7.363  -0.063  10.502 -0.3586 -0.5025 -0.1091
  684MOL0     N90206   7.979   0.281   9.936  0.6621 -0.0666  0.9450
  684MOL0     N90207   8.078   0.367   9.938 -0.2371 -0.4905 -0.3754
  684MOL0     C90208   9.336   0.470  10.490 -0.1008 -0.3410 -0.6659
  684MOL0     C90209   9.462   0.460  10.554 -0.4067 -0.4606  0.0133
  684MOL0     C90210   9.844   0.362  10.713 -0.0735 -0.1783 -1.0402
  684MOL0     C90211   9.952   0.340  10.639 -0.1589  0.0749 -0.1797
  684MOL0     C90212  10.083   0.360  10.703 -0.3663  0.4775  0.1824
  684MOL0     C90213  10.095   0.411  10.834  0.7844  0.4963 -0.1859
  684MOL0     O90214  10.216   0.442  10.884  1.2623  0.3615  0.6615
  684MOL0     C90215  10.226   0.536  10.994  0.0492 -0.5036 -0.0658
  684MOL0     C90216  10.354   0.620  10.992  0.0100  0.3746 -0.7284
  684MOL0     C90217  10.343   0.718  10.884 -0.3931 -0.7477 -0.1182
  684MOL0     C90218  10.488   0.783  10.873 -0.1964  0.3153 -0.5723
  684MOL0     C90219  10.566   0.745  10.759  0.3937  0.6011  0.1428
  684MOL0     C90220  10.612   0.710  10.656  0.0109 -1.0570 -0.4152
  684MOL0     C90221   9.975   0.443  10.899  0.2891  0.7367 -1.1099
  684MOL0     C90222   9.849   0.418  10.846  0.4120 -1.5405 -0.4803
  684MOL0     H90223   9.389   0.201  10.763 -2.5257 -1.6478  0.0790
  684MOL0     H90224   9.167   0.225  10.648  1.6427 -1.8730  2.2909
  684MOL0     H90225   9.105   0.544  10.315 -1.6138 -1.2948 -0.7391
  684MOL0     H90226   9.128   0.610  10.480  0.1325 -0.1963 -0.7110
  684MOL0     H90227   8.910   0.660  10.401 -1.5532 -0.2589 -0.4349
  684MOL0     H90228   8.888   0.548  10.539 -1.0500  0.9915  0.8694
  684MOL0     H90229   8.811   0.371  10.414  2.0368 -1.7813 -2.0628
  684MOL0     H90230   8.887   0.437  10.258  2.5793  2.8382 -0.2080
  684MOL0     H90231   8.661   0.533  10.430  1.7744 -0.6897  0.1596
  684MOL0     H90232   8.690   0.612  10.283 -3.4191 -0.8281 -1.0792
  684MOL0     H90233   8.568   0.337  10.305 -1.2071  0.3203  0.1013
  684MOL0     H90234   8.638   0.395  10.151 -1.4091  1.6054 -0.3257
  684MOL0     H90235   8.494   0.585  10.154  0.5891  0.2211  0.9402
  684MOL0     H90236   8.418   0.519  10.314 -0.7128 -1.8304 -0.1812
  684MOL0     H90237   8.409   0.368  10.045  0.9813 -2.1649 -0.0907
  684MOL0     H90238   8.368   0.304  10.211  1.0576  0.8118  1.0498
  684MOL0     H90239   8.236   0.527  10.066  0.3905  3.7715  5.4296
  684MOL0     H90240   8.185   0.468  10.223 -1.3288  1.3173 -0.3314
  684MOL0     H90241   8.067   0.236  10.244  0.3489  1.6743  0.5166
  684MOL0     H90242   7.845   0.053  10.142 -0.8956 -0.8748 -0.7594
  684MOL0     H90243   7.761   0.127  10.021 -0.4360  0.3927 -0.1773
  684MOL0     H90244   7.739   0.336  10.173 -0.7469  0.5062  3.5261
  684MOL0     H90245   7.816   0.256  10.303  1.3201  3.1567 -0.2617
  684MOL0     H90246   7.571   0.230  10.319 -0.6599 -0.5653  0.3926
  684MOL0     H90247   7.567   0.167  10.149 -0.6354  1.2899  0.9710
  684MOL0     H90248   7.751   0.043  10.349 -0.7366 -0.0777  1.4255
  684MOL0     H90249   7.647  -0.045  10.231 -1.3634  0.0933 -0.4788
  684MOL0     H90250   7.416  -0.016  10.167 -1.5331 -0.9836 -1.0997
  684MOL0     H90251   7.173  -0.037  10.154 -1.7128  1.8149  0.0038
  684MOL0     H90252   6.763  -0.240  10.340 -1.1033  2.1484 -1.6058
  684MOL0     H90253   6.523  -0.234  10.347 -0.2790  1.0780 -0.1109
  684MOL0     H90254   6.312  -0.045  10.349 -2.2674  1.9963 -0.4683
  684MOL0     H90255   6.367   0.085  10.454  2.0504 -0.5987  1.7731
  684MOL0     H90256   6.142  -0.101  10.499  1.3027 -0.5035  0.4375
  684MOL0     H90257   6.117   0.061  10.425 -0.5499 -0.0108  0.7637
  684MOL0     H90258   6.185   0.171  10.606  1.3749 -1.7913 -3.0455
  684MOL0     H90259   6.230   0.041  10.710  0.8957  0.4754 -0.4344
  684MOL0     H90260   5.935   0.094  10.629  1.2209  0.0034 -0.0568
  684MOL0     H90261   5.992  -0.057  10.707  2.2365 -1.6223 -1.0540
  684MOL0     H90262   6.031   0.215  10.841  1.7474 -1.0459  1.3607
  684MOL0     H90263   6.092   0.051  10.888 -1.2056 -1.9558  2.9855
  684MOL0     H90264   5.838  -0.006  10.905 -0.8476 -0.3029  0.9656
  684MOL0     H90265   5.806   0.155  10.847  1.4178 -0.1257 -0.3811
  684MOL0     H90266   5.948   0.246  11.052  1.1002 -0.4212  0.2865
  684MOL0     H90267   5.785   0.186  11.082 -0.1391  0.6121 -1.2372
  684MOL0     H90268   6.055   0.039  11.108 -0.2880 -2.5573 -0.2121
  684MOL0     H90269   5.907  -0.036  11.132 -1.4234  0.0358  1.3388
  684MOL0     H90270   6.571   0.021  10.712 -2.6750 -0.6966 -0.6166
  684MOL0     H90271   6.798   0.015  10.679 -1.2335  1.9809 -1.1068
  684MOL0     H90272   7.172  -0.075  10.595 -0.7233  0.4375 -0.3884
  684MOL0     H90273   7.412  -0.070  10.599 -0.5986 -0.5944  0.0068
  684MOL0     H90274   9.329   0.543  10.410 -0.7089 -0.6730 -0.9228
  684MOL0     H90275   9.541   0.525  10.520 -3.2181  2.4970 -1.4969
  684MOL0     H90276   9.954   0.293  10.542 -1.0353 -1.3753  0.4736
  684MOL0     H90277  10.176   0.332  10.656 -0.0741 -0.2531  1.1592
  684MOL0     H90278  10.227   0.484  11.091  0.7472  1.1178  0.8302
  684MOL0     H90279  10.142   0.606  10.994 -0.0197 -0.5764  0.9411
  684MOL0     H90280  10.358   0.676  11.086  1.9123 -0.9667  0.0591
  684MOL0     H90281  10.440   0.553  10.984  0.5227  0.6086  1.9089
  684MOL0     H90282  10.269   0.797  10.892 -1.3943 -1.6761 -0.0580
  684MOL0     H90283  10.323   0.671  10.787 -1.4205 -0.1772 -0.1918
  684MOL0     H90284  10.480   0.893  10.874 -1.7311  0.3151  3.2078
  684MOL0     H90285  10.547   0.771  10.964  1.6179  5.8174 -0.6657
  684MOL0     H90286  10.651   0.682  10.561 -1.3757 -0.1445 -1.2965
  684MOL0     H90287   9.975   0.476  11.003  2.4711  2.8240 -1.6888
  684MOL0     H90288   9.761   0.439  10.905  0.0260  0.1697 -1.5973
  685MOL0     O90289  11.239   1.565   1.779  0.3670 -0.2312  0.1373
  685MOL0     C90290  11.288   1.456   1.807 -0.1518  0.1895 -0.4002
  685MOL0     O90291  11.250   1.388   1.919 -0.1231  0.2112  0.6046
  685MOL0     C90292  11.143   1.438   1.991 -1.7223  0.3112  0.8523
  685MOL0     C90293  11.162   1.501   2.110 -0.2056 -0.1863 -0.3385
  685MOL0     C90294  11.063   1.540   2.196  0.6003 -0.7107 -0.2756
  685MOL0     C90295  10.930   1.534   2.153  0.1356  0.5186 -0.4117
  685MOL0     O90296  10.817   1.565   2.226 -0.4174  0.1256  0.4609
  685MOL0     C90297  10.820   1.553   2.374 -0.6631  0.6461  1.1583
  685MOL0     C90298  10.751   1.438   2.436 -0.0385 -0.3881  0.5829
  685MOL0     C90299  10.608   1.424   2.378 -1.1638  0.2140  0.2632
  685MOL0     C90300  10.536   1.306   2.439 -0.5369 -0.3010  0.4483
  685MOL0     C90301  10.391   1.290   2.414  0.2486  0.2491  0.3008
  685MOL0     C90302  10.354   1.141   2.449  0.5559  0.7309  0.0726
  685MOL0     C90303  10.220   1.127   2.530  0.0724  0.9025 -0.1178
  685MOL0     C90304  10.187   0.965   2.533  0.3581 -0.3125 -0.4597
  685MOL0     N90305  10.047   0.928   2.512  0.1430 -0.5094 -0.9893
  685MOL0     C90306   9.966   0.940   2.403 -0.3791 -0.0874  0.4437
  685MOL0     C90307   9.859   0.876   2.437 -0.0225  0.9590  0.7284
  685MOL0     C90308   9.740   0.857   2.347 -0.3973 -0.4911  0.1658
  685MOL0     C90309   9.622   0.911   2.416  0.4887  0.2969 -0.6435
  685MOL0     C90310   9.507   0.937   2.315  0.1715 -0.3224  0.4599
  685MOL0     C90311   9.389   1.007   2.382  0.6765  0.3009  0.2476
  685MOL0     O90312   9.342   0.921   2.481 -0.8235  0.2603 -0.2079
  685MOL0     C90313   9.224   0.948   2.539 -0.2451 -0.2440  0.8558
  685MOL0     C90314   9.181   0.853   2.632 -0.1082 -0.6454  0.8918
  685MOL0     C90315   9.075   0.880   2.720  0.0874  0.1238 -0.1308
  685MOL0     C90316   9.001   0.995   2.710 -0.3222 -0.2275  0.4371
  685MOL0     C90317   8.879   1.036   2.789  0.7630  1.1724 -0.3062
  685MOL0     O90318   8.800   1.140   2.748 -0.4318  0.0092  0.0614
  685MOL0     C90319   8.684   1.142   2.824  0.0510  0.6616 -0.1021
  685MOL0     C90320   8.687   1.169   2.965  0.7417  0.2507 -0.3698
  685MOL0     C90321   8.561   1.181   3.039 -0.6536 -0.3564 -0.4023
  685MOL0     C90322   8.438   1.156   2.976  0.2923 -0.6540 -0.2191
  685MOL0     O90323   8.318   1.177   3.046  0.8916 -0.2847 -0.2247
  685MOL0     C90324   8.194   1.155   2.982 -0.2362 -0.0028 -0.0017
  685MOL0     C90325   8.080   1.181   3.083 -0.4658  0.4863 -0.7578
  685MOL0     C90326   7.950   1.184   3.014  0.0376 -0.7099 -0.5663
  685MOL0     C90327   7.832   1.179   3.116 -0.5581  0.3861  0.4959
  685MOL0     C90328   7.707   1.151   3.049  0.2387 -0.0453 -0.5515
  685MOL0     C90329   7.580   1.122   3.139 -0.1927  1.0309  0.3594
  685MOL0     C90330   7.451   1.100   3.055  0.0646 -0.8904 -1.3740
  685MOL0     C90331   7.365   1.230   3.068  0.4848 -0.7058 -0.0152
  685MOL0    Cl90332   7.226   1.240   2.951 -0.3790  0.0853 -0.1236
  685MOL0     C90333   8.443   1.113   2.846  0.1988  0.3069  0.3309
  685MOL0     C90334   8.558   1.114   2.768  0.0355 -0.6813 -0.8864
  685MOL0     O90335   8.860   0.957   2.888  0.1313  0.5650 -0.1736
  685MOL0     C90336   9.033   1.085   2.603 -0.1522  1.3073 -0.0611
  685MOL0     C90337   9.137   1.058   2.517  0.0404 -0.6112 -0.0662
  685MOL0     N90338   9.869   0.819   2.566  0.2645  0.3799 -0.3079
  685MOL0     N90339   9.980   0.858   2.603 -0.5926 -0.2279  0.3181
  685MOL0     C90340  10.906   1.478   2.020  0.1656 -0.0395  0.3936
  685MOL0     C90341  11.012   1.433   1.943 -0.2466 -0.7288  0.3245
  685MOL0     C90342  11.385   1.391   1.720 -0.1829  0.1914  1.2435
  685MOL0     C90343  11.398   1.439   1.585 -0.2135 -0.0513 -0.4425
  685MOL0     C90344  11.485   1.376   1.497  0.5820 -0.3650  0.1906
  685MOL0     C90345  11.569   1.271   1.544  0.1266  0.2080 -0.5164
  685MOL0     O90346  11.665   1.231   1.464 -0.0178  0.5376  0.1016
  685MOL0     C90347  11.778   1.315   1.465 -0.5287 -0.2893 -0.5196
  685MOL0     C90348  11.874   1.259   1.568  0.9928  0.3138 -0.1586
  685MOL0     C90349  12.013   1.324   1.541  0.0238  0.8680  0.6089
  685MOL0     C90350  12.127   1.230   1.597  0.2400 -0.3182  0.4126
  685MOL0     C90351  12.261   1.255   1.548 -0.4358  0.4739  0.4210
  685MOL0     C90352  12.379   1.278   1.521  0.1824 -0.4147 -0.2413
  685MOL0     C90353  11.546   1.209   1.671  0.3528 -0.4793  0.9664
  685MOL0     C90354  11.453   1.268   1.761 -0.0285 -0.0577  0.1752
  685MOL0     H90355  11.266   1.523   2.132  0.2758 -2.3344 -0.2147
  685MOL0     H90356  11.108   1.582   2.285  0.0969 -1.2799  0.2533
  685MOL0     H90357  10.765   1.640   2.411  1.1614  1.4641  2.0820
  685MOL0     H90358  10.921   1.562   2.415 -0.2850 -0.4249  0.5182
  685MOL0     H90359  10.756   1.449   2.544 -0.2827 -2.0080  0.7857
  685MOL0     H90360  10.798   1.341   2.417 -1.7510 -1.5312  1.9776
  685MOL0     H90361  10.610   1.419   2.268  1.8084 -1.0257  0.2620
  685MOL0     H90362  10.554   1.512   2.414 -1.2961  0.7416 -1.1642
  685MOL0     H90363  10.586   1.221   2.393 -4.4463 -1.1744 -2.7319
  685MOL0     H90364  10.559   1.310   2.546  0.1981  1.3694  0.2638
  685MOL0     H90365  10.382   1.308   2.306  0.6733 -0.6376  0.1043
  685MOL0     H90366  10.327   1.366   2.459  2.0951  0.7258  2.2769
  685MOL0     H90367  10.438   1.096   2.503  0.2141  1.0305  0.8842
  685MOL0     H90368  10.338   1.086   2.356 -0.8738  1.1516  0.0430
  685MOL0     H90369  10.211   1.158   2.634 -3.0825 -3.1670  1.1283
  685MOL0     H90370  10.140   1.176   2.474 -2.0785 -0.3619  1.6799
  685MOL0     H90371  10.212   0.917   2.629 -0.2361 -3.2112 -1.6490
  685MOL0     H90372  10.255   0.910   2.468  0.1729 -0.6139 -0.4015
  685MOL0     H90373   9.988   0.998   2.314  0.4910  1.1899  1.4353
  685MOL0     H90374   9.721   0.751   2.325  0.6954 -0.6145 -0.2516
  685MOL0     H90375   9.758   0.910   2.253 -0.7669 -0.6321  0.0133
  685MOL0     H90376   9.655   1.006   2.459  0.6238  0.1013 -0.3097
  685MOL0     H90377   9.586   0.845   2.496  2.0215  1.5062  1.1196
  685MOL0     H90378   9.535   1.008   2.236  0.7541  0.3035  1.2179
  685MOL0     H90379   9.475   0.841   2.274  2.4856 -1.0130  0.1502
  685MOL0     H90380   9.314   1.029   2.306  1.8605  0.9294 -0.7793
  685MOL0     H90381   9.420   1.103   2.426  0.1673  0.6675 -0.1853
  685MOL0     H90382   9.232   0.759   2.650 -0.6675 -0.7853  1.8487
  685MOL0     H90383   9.048   0.808   2.797  0.2398 -1.0102 -1.1050
  685MOL0     H90384   8.773   1.176   3.031 -1.8970 -0.8311  3.6014
  685MOL0     H90385   8.568   1.205   3.144  1.2136  1.9595 -0.9610
  685MOL0     H90386   8.174   1.060   2.933  0.6257 -0.5325  0.6525
  685MOL0     H90387   8.172   1.238   2.913  1.9367 -0.5207 -1.4080
  685MOL0     H90388   8.099   1.262   3.154 -4.8424 -1.5727  3.2728
  685MOL0     H90389   8.064   1.094   3.149  1.3972 -0.5847 -1.6336
  685MOL0     H90390   7.933   1.096   2.950 -0.2084  0.7437 -2.6013
  685MOL0     H90391   7.947   1.273   2.950 -4.6906 -0.0801  0.1406
  685MOL0     H90392   7.864   1.107   3.193 -0.7504  0.8772  1.0429
  685MOL0     H90393   7.836   1.272   3.173  2.6239 -0.7140  2.3313
  685MOL0     H90394   7.715   1.056   2.995 -1.1912 -1.3866  1.4252
  685MOL0     H90395   7.686   1.234   2.981 -0.9081 -1.2624 -1.7534
  685MOL0     H90396   7.571   1.196   3.219 -1.7537  0.8196  0.4102
  685MOL0     H90397   7.596   1.020   3.174  0.3385  1.0630  0.2205
  685MOL0     H90398   7.486   1.085   2.952  0.8161  0.1043 -1.2844
  685MOL0     H90399   7.397   1.007   3.074 -2.1447  0.0377 -2.7750
  685MOL0     H90400   7.432   1.314   3.051  0.0215 -0.2591  0.3631
  685MOL0     H90401   7.327   1.231   3.170 -2.0338  0.3087 -0.8874
  685MOL0     H90402   8.353   1.097   2.787 -0.6287 -0.6992  1.8008
  685MOL0     H90403   8.555   1.078   2.666  0.5907  0.3638 -1.2828
  685MOL0     H90404   8.991   1.184   2.594  3.2125  2.8451 -0.0713
  685MOL0     H90405   9.150   1.133   2.440  0.3550 -2.0682 -1.4665
  685MOL0     H90406  10.803   1.472   1.988  1.0620  0.2316 -2.8833
  685MOL0     H90407  10.977   1.383   1.852  0.1329 -2.4104  1.0575
  685MOL0     H90408  11.338   1.528   1.566  0.3101  0.9316  2.1044
  685MOL0     H90409  11.502   1.406   1.394 -1.6294  3.2621  0.7187
  685MOL0     H90410  11.751   1.418   1.488 -0.6163 -0.6417  1.0242
  685MOL0     H90411  11.827   1.322   1.367  0.2839 -0.9258 -0.1673
  685MOL0     H90412  11.834   1.279   1.667  1.2134  4.7902 -0.7741
  685MOL0     H90413  11.875   1.152   1.546  1.7745 -0.3084  2.5355
  685MOL0     H90414  12.024   1.431   1.560 -1.9143  1.0192  1.0381
  685MOL0     H90415  12.020   1.322   1.432  0.8667  0.4526  0.6636
  685MOL0     H90416  12.122   1.220   1.706  0.9199  0.7752  0.5632
  685MOL0     H90417  12.100   1.132   1.556  0.9022  0.5504 -2.2952
  685MOL0     H90418  12.484   1.273   1.500  0.6338  1.4313  1.3240
  685MOL0     H90419  11.608   1.124   1.698 -0.3584 -1.8687 -1.4892
  685MOL0     H90420  11.435   1.216   1.855 -0.9538 -0.4851 -0.2266
  686MOL0     O90421   0.771   8.561   2.552 -0.0208  0.1590 -0.0816
  686MOL0     C90422   0.764   8.436   2.576 -0.5757  0.6718 -0.5987
  686MOL0     O90423   0.680   8.379   2.665  0.2164  0.0939  0.6542
  686MOL0     C90424   0.578   8.445   2.734  0.6370  0.2322 -0.5237
  686MOL0     C90425   0.514   8.375   2.827  0.0715  0.2705 -0.6029
  686MOL0     C90426   0.425   8.436   2.912  0.8986 -0.0941  0.5587
  686MOL0     C90427   0.368   8.562   2.883  0.0386 -0.0936 -0.1974
  686MOL0     O90428   0.262   8.617   2.943  0.4118  0.1181  0.4451
  686MOL0     C90429   0.247   8.578   3.081  0.4921 -0.1753  0.0831
  686MOL0     C90430   0.145   8.674   3.140  0.0574 -0.0600 -0.6086
  686MOL0     C90431   0.011   8.676   3.075 -0.6465  0.2488  0.6950
  686MOL0     C90432  -0.086   8.783   3.124 -0.3890 -0.5438  0.1250
  686MOL0     C90433  -0.227   8.751   3.070 -0.3021 -0.1857 -0.5170
  686MOL0     C90434  -0.338   8.859   3.090  0.7006 -0.9799 -0.4846
  686MOL0     C90435  -0.394   8.879   3.235 -0.2728 -0.9291  0.0935
  686MOL0     C90436  -0.471   8.753   3.276 -0.8585 -0.3980 -0.5948
  686MOL0     N90437  -0.520   8.745   3.413 -0.3233  0.5452  0.2232
  686MOL0     C90438  -0.641   8.784   3.462  0.1971  0.6897 -0.0109
  686MOL0     C90439  -0.638   8.778   3.593 -0.4548  0.1320  0.5368
  686MOL0     C90440  -0.744   8.838   3.676  0.4070  0.2200 -0.5192
  686MOL0     C90441  -0.867   8.751   3.690  0.4432  0.2213  0.5708
  686MOL0     C90442  -0.954   8.798   3.801 -1.1269  0.3219 -0.0515
  686MOL0     C90443  -1.081   8.722   3.823 -0.1620  0.7196 -0.7213
  686MOL0     O90444  -1.163   8.750   3.704  0.5179  0.8283  0.1001
  686MOL0     C90445  -1.290   8.702   3.706  0.9105  0.7561  0.2148
  686MOL0     C90446  -1.368   8.730   3.590 -0.3157  0.3069 -0.0918
  686MOL0     C90447  -1.499   8.698   3.569  0.3366  0.2764 -0.4382
  686MOL0     C90448  -1.567   8.649   3.683 -0.0806 -0.5219 -1.2170
  686MOL0     C90449  -1.711   8.648   3.682  0.3557 -0.7698 -0.1025
  686MOL0     O90450  -1.778   8.582   3.778 -0.4260  0.6430 -0.1069
  686MOL0     C90451  -1.914   8.584   3.795  0.8278 -0.7725  0.3170
  686MOL0     C90452  -2.013   8.638   3.715  1.4461  0.4224 -0.1074
  686MOL0     C90453  -2.140   8.632   3.753  0.6285 -0.9610 -0.4358
  686MOL0     C90454  -2.186   8.563   3.868  0.7111 -0.1081 -0.7536
  686MOL0     O90455  -2.304   8.581   3.930 -0.0910 -0.4222 -0.7360
  686MOL0     C90456  -2.423   8.535   3.863 -0.1296  0.5754 -0.9249
  686MOL0     C90457  -2.535   8.612   3.910  0.5352  0.2913  0.3000
  686MOL0     C90458  -2.670   8.572   3.838 -0.2309  0.1349 -0.1462
  686MOL0     C90459  -2.783   8.657   3.898  0.1922  0.6014  0.6090
  686MOL0     C90460  -2.912   8.631   3.835 -0.1844  0.4879 -0.1275
  686MOL0     C90461  -3.028   8.670   3.935  0.6876 -0.6536  0.0428
  686MOL0     C90462  -3.169   8.642   3.872  0.3648  0.4045 -0.4503
  686MOL0     C90463  -3.284   8.744   3.913 -0.3084  0.8136  0.6937
  686MOL0    Cl90464  -3.428   8.740   3.823 -0.0202  0.1909 -0.5115
  686MOL0     C90465  -2.085   8.497   3.942 -0.8935 -0.4404  0.3080
  686MOL0     C90466  -1.951   8.520   3.909  0.4371  0.2360 -0.4369
  686MOL0     O90467  -1.760   8.730   3.600  0.0456 -0.6312 -0.2212
  686MOL0     C90468  -1.492   8.604   3.802  0.2912  0.6760 -0.1196
  686MOL0     C90469  -1.355   8.630   3.807  0.2941 -0.1174  0.0338
  686MOL0     N90470  -0.509   8.738   3.628  0.6352  0.5103  0.0193
  686MOL0     N90471  -0.435   8.725   3.521 -0.5499  0.3616  0.3753
  686MOL0     C90472   0.426   8.629   2.775  0.7957  0.1226  0.0921
  686MOL0     C90473   0.535   8.572   2.705  0.4022  0.4791 -0.2722
  686MOL0     C90474   0.870   8.351   2.516  0.6032 -0.4820  0.9804
  686MOL0     C90475   0.963   8.400   2.425 -0.5056 -0.1237  0.2959
  686MOL0     C90476   1.071   8.322   2.377 -0.4987  0.2986  0.2821
  686MOL0     C90477   1.079   8.183   2.408 -0.2805  0.0394  0.6980
  686MOL0     O90478   1.189   8.099   2.369 -0.4845  0.8038 -0.0977
  686MOL0     C90479   1.281   8.132   2.268  1.3479  1.1320  0.2577
  686MOL0     C90480   1.408   8.208   2.321 -0.0735 -0.3074  0.2127
  686MOL0     C90481   1.505   8.218   2.203  0.0762  0.1165  1.0153
  686MOL0     C90482   1.628   8.289   2.246  0.8935 -0.1384  0.3327
  686MOL0     C90483   1.722   8.300   2.126  0.6695  0.4950 -0.9603
  686MOL0     C90484   1.783   8.283   2.025 -0.7167  0.2128 -0.4192
  686MOL0     C90485   0.982   8.133   2.490  0.1458  0.7738 -0.0401
  686MOL0     C90486   0.875   8.219   2.545 -0.3739 -0.5401 -0.3689
  686MOL0     H90487   0.548   8.274   2.846 -0.4823 -0.2846 -2.3594
  686MOL0     H90488   0.375   8.372   2.985  0.4395 -0.6736 -0.2433
  686MOL0     H90489   0.339   8.581   3.140 -1.2350  2.5158  2.9657
  686MOL0     H90490   0.203   8.478   3.080 -0.1525  0.1076 -0.0814
  686MOL0     H90491   0.175   8.780   3.136  1.1779 -0.2318  1.7684
  686MOL0     H90492   0.141   8.649   3.246  0.1863  0.6935 -0.4176
  686MOL0     H90493  -0.036   8.579   3.098  0.4904 -0.5823 -0.3556
  686MOL0     H90494   0.031   8.692   2.969 -1.5040 -2.8205 -0.0460
  686MOL0     H90495  -0.079   8.782   3.233 -2.4027  1.2824  0.3361
  686MOL0     H90496  -0.058   8.883   3.088 -1.0714  0.0829  1.2674
  686MOL0     H90497  -0.263   8.653   3.102  1.1109 -1.1443 -1.7461
  686MOL0     H90498  -0.207   8.735   2.964 -1.5128 -1.0180 -0.6424
  686MOL0     H90499  -0.414   8.825   3.020 -0.5729  0.2246  0.2636
  686MOL0     H90500  -0.290   8.951   3.057 -0.2742  0.3985  1.6645
  686MOL0     H90501  -0.316   8.906   3.306 -0.3357 -2.5031  0.8173
  686MOL0     H90502  -0.465   8.962   3.233  0.0116 -0.6324  1.3949
  686MOL0     H90503  -0.400   8.671   3.265  0.5959  0.3812  2.0817
  686MOL0     H90504  -0.553   8.744   3.204 -0.6665 -0.5401 -0.8001
  686MOL0     H90505  -0.721   8.828   3.403 -0.0196  2.4642  1.4949
  686MOL0     H90506  -0.783   8.936   3.646  2.6449  1.3718  0.1529
  686MOL0     H90507  -0.690   8.850   3.770 -1.5399  0.7533  0.6022
  686MOL0     H90508  -0.829   8.649   3.707  0.8171  0.1542 -0.6255
  686MOL0     H90509  -0.929   8.740   3.601  1.1826  1.0453 -0.0532
  686MOL0     H90510  -0.899   8.798   3.896  0.5614  1.1694 -0.9956
  686MOL0     H90511  -0.971   8.904   3.780 -1.2894  0.2527 -0.2740
  686MOL0     H90512  -1.124   8.761   3.916 -1.0717 -0.9321 -0.4078
  686MOL0     H90513  -1.056   8.618   3.842 -0.9463  0.9696  2.0788
  686MOL0     H90514  -1.319   8.776   3.504  1.8918 -0.1219  0.8698
  686MOL0     H90515  -1.549   8.720   3.475  0.8951  0.5176 -0.6900
  686MOL0     H90516  -1.977   8.693   3.629 -1.2085  0.1130 -1.5428
  686MOL0     H90517  -2.208   8.680   3.684 -1.9687  0.5574  2.8620
  686MOL0     H90518  -2.433   8.427   3.875  1.3416  0.5327  0.1895
  686MOL0     H90519  -2.412   8.552   3.755 -0.3625 -1.6986 -1.3444
  686MOL0     H90520  -2.510   8.717   3.889 -0.5773  0.3754 -0.6859
  686MOL0     H90521  -2.541   8.598   4.018  1.8925 -1.8441  0.1517
  686MOL0     H90522  -2.699   8.468   3.850  0.8803 -0.1576  0.1057
  686MOL0     H90523  -2.652   8.595   3.733  2.9551  2.4084  0.7265
  686MOL0     H90524  -2.782   8.644   4.006 -1.1793  0.7772  0.6637
  686MOL0     H90525  -2.765   8.761   3.868 -2.7055  0.7798 -0.8651
  686MOL0     H90526  -2.928   8.523   3.825  0.9921 -0.0262  2.6656
  686MOL0     H90527  -2.917   8.688   3.742  2.3364  1.4675  0.2672
  686MOL0     H90528  -3.020   8.776   3.962 -0.5513 -0.8857  1.4280
  686MOL0     H90529  -3.015   8.611   4.026  2.4927  1.2720  1.0987
  686MOL0     H90530  -3.157   8.639   3.764 -0.5357 -3.2346 -0.5627
  686MOL0     H90531  -3.203   8.548   3.917  3.8285 -0.0540  1.5717
  686MOL0     H90532  -3.245   8.847   3.906  0.5698  0.3917 -1.8738
  686MOL0     H90533  -3.302   8.731   4.020  3.2165  0.2602  1.3490
  686MOL0     H90534  -2.106   8.442   4.034  0.8786  0.2451  1.1720
  686MOL0     H90535  -1.874   8.471   3.968  0.3525  0.6318  0.0088
  686MOL0     H90536  -1.539   8.551   3.885  1.3788  0.0260  0.1014
  686MOL0     H90537  -1.288   8.605   3.888  1.8752  0.2288 -1.1175
  686MOL0     H90538   0.383   8.720   2.734 -1.1821 -0.2252  1.2653
  686MOL0     H90539   0.566   8.627   2.616 -0.8761  1.8306  0.0837
  686MOL0     H90540   0.945   8.499   2.383  2.8463 -0.7317 -3.1681
  686MOL0     H90541   1.130   8.368   2.299 -0.3207 -1.0699 -0.4082
  686MOL0     H90542   1.236   8.197   2.192  0.0757 -0.1216 -0.1007
  686MOL0     H90543   1.304   8.037   2.219 -1.0847  0.0100  1.1135
  686MOL0     H90544   1.379   8.308   2.354  0.0343 -0.6500  1.4031
  686MOL0     H90545   1.453   8.152   2.403  0.2976 -0.4419 -0.0801
  686MOL0     H90546   1.451   8.278   2.129 -2.2591 -1.9213  0.9269
  686MOL0     H90547   1.523   8.125   2.149  0.5494  0.6065  0.3112
  686MOL0     H90548   1.620   8.387   2.295  1.0844  0.0217  0.0507
  686MOL0     H90549   1.664   8.234   2.332 -1.2535 -0.1095  1.3207
  686MOL0     H90550   1.835   8.244   1.940  0.0482 -4.2132  1.8134
  686MOL0     H90551   0.987   8.029   2.522 -0.1144  0.7091 -0.2070
  686MOL0     H90552   0.805   8.178   2.617 -2.0841 -2.0929 -2.8074
  687MOL0     O90553   0.440   9.356   9.377  0.9531 -0.2796  0.2709
  687MOL0     C90554   0.506   9.463   9.380 -0.2242 -0.1278 -0.2709
  687MOL0     O90555   0.459   9.590   9.355  0.1347  0.1109  0.1241
  687MOL0     C90556   0.327   9.604   9.329  0.2627  0.3954  1.1248
  687MOL0     C90557   0.285   9.612   9.198  0.7440 -0.7074 -0.9139
  687MOL0     C90558   0.144   9.639   9.176  0.2396 -0.6944  0.7380
  687MOL0     C90559   0.052   9.658   9.274  0.1929  0.3129 -0.5364
  687MOL0     O90560  -0.079   9.663   9.235  0.0716 -0.5738 -0.5849
  687MOL0     C90561  -0.170   9.750   9.295  0.6006  0.6900  0.9245
  687MOL0     C90562  -0.203   9.863   9.211  0.1614  0.0456  0.0611
  687MOL0     C90563  -0.301   9.810   9.097 -0.2928  0.2221  0.2645
  687MOL0     C90564  -0.387   9.922   9.038  0.7074 -0.3440 -0.0080
  687MOL0     C90565  -0.466   9.885   8.910  0.3365 -0.3294  0.5357
  687MOL0     C90566  -0.562   9.763   8.912 -0.0056  0.8121 -0.0501
  687MOL0     C90567  -0.654   9.783   9.040  1.3279  0.2669  0.1004
  687MOL0     C90568  -0.794   9.709   9.033  0.1010 -0.7535 -0.3576
  687MOL0     N90569  -0.880   9.754   9.142 -0.8324 -0.1320 -1.0771
  687MOL0     C90570  -0.852   9.710   9.267 -1.0961 -0.1381 -0.5996
  687MOL0     C90571  -0.942   9.771   9.346  0.3536 -0.1193 -0.1735
  687MOL0     C90572  -0.960   9.734   9.491 -0.2446  0.0529  0.6798
  687MOL0     C90573  -1.088   9.660   9.504 -0.0876 -0.6807 -1.4297
  687MOL0     C90574  -1.125   9.667   9.654  1.0284 -0.1810  0.2552
  687MOL0     C90575  -1.200   9.539   9.700  0.9529 -0.4032 -0.4166
  687MOL0     O90576  -1.241   9.547   9.837 -0.9043 -0.8981  0.0383
  687MOL0     C90577  -1.368   9.595   9.868  0.2692 -0.6276  0.1124
  687MOL0     C90578  -1.420   9.548   9.985  0.6744 -0.5839 -0.6147
  687MOL0     C90579  -1.540   9.602  10.031 -0.5748 -0.7755  0.1145
  687MOL0     C90580  -1.620   9.691   9.960  0.4170 -1.5507  0.5751
  687MOL0     C90581  -1.760   9.728  10.000  0.3529 -0.4330 -0.0831
  687MOL0     O90582  -1.827   9.837   9.934 -0.7852  0.8262  0.9681
  687MOL0     C90583  -1.952   9.865   9.973 -0.5967  1.1883  0.3072
  687MOL0     C90584  -2.061   9.771   9.971 -0.7939  0.7264 -0.7645
  687MOL0     C90585  -2.188   9.804  10.028 -0.9091  0.3295 -0.0938
  687MOL0     C90586  -2.208   9.930  10.081  0.4011 -0.1519 -0.0460
  687MOL0     O90587  -2.331   9.945  10.144  0.0046  0.1153  0.6195
  687MOL0     C90588  -2.358  10.074  10.190 -0.0762 -0.4580  0.6160
  687MOL0     C90589  -2.514  10.097  10.179 -0.4048  0.5170 -0.1667
  687MOL0     C90590  -2.560  10.232  10.181  0.8902 -0.1150  0.1542
  687MOL0     C90591  -2.715  10.241  10.164 -0.0502  0.8665 -0.1688
  687MOL0     C90592  -2.778  10.196  10.299  0.4498  0.7071 -0.0101
  687MOL0     C90593  -2.920  10.247  10.315  0.0505  0.4695 -1.0943
  687MOL0     C90594  -3.030  10.177  10.235 -1.0684  0.7908 -0.8032
  687MOL0     C90595  -3.151  10.267  10.199  0.7278  0.1560 -0.6189
  687MOL0    Cl90596  -3.255  10.170  10.083  0.1524  0.0674 -0.2158
  687MOL0     C90597  -2.100  10.024  10.076 -0.6262  0.0319 -0.7307
  687MOL0     C90598  -1.978   9.989  10.022 -0.5820  0.2383  0.3102
  687MOL0     O90599  -1.808   9.662  10.090 -0.6704 -0.3176 -0.1446
  687MOL0     C90600  -1.569   9.741   9.838  0.0013  0.0191  0.0091
  687MOL0     C90601  -1.450   9.685   9.794 -0.1145  0.2070  0.0663
  687MOL0     N90602  -1.009   9.858   9.264  1.2874  0.5315 -0.3115
  687MOL0     N90603  -0.971   9.856   9.148  0.2961  0.2245  0.6193
  687MOL0     C90604   0.088   9.646   9.408 -0.2590 -0.2563 -0.3810
  687MOL0     C90605   0.230   9.622   9.431 -0.4114 -0.3427 -0.2671
  687MOL0     C90606   0.649   9.442   9.414  0.4671 -0.1610 -0.0356
  687MOL0     C90607   0.747   9.546   9.402 -0.6241 -0.3513  0.2371
  687MOL0     C90608   0.883   9.523   9.439 -0.1690  0.2009 -0.2257
  687MOL0     C90609   0.926   9.400   9.500  0.0106 -0.6722  0.8804
  687MOL0     O90610   1.058   9.395   9.543 -0.9879 -0.2695 -0.2731
  687MOL0     C90611   1.100   9.277   9.612 -0.4146  0.8705  0.0573
  687MOL0     C90612   1.171   9.171   9.528 -0.5667  0.3304  1.3326
  687MOL0     C90613   1.189   9.040   9.598  0.5862  0.2051 -0.5357
  687MOL0     C90614   1.300   8.952   9.543  0.8296  0.0643  0.4699
  687MOL0     C90615   1.255   8.856   9.441  0.2966 -0.3237  1.0244
  687MOL0     C90616   1.211   8.773   9.367  0.3628 -0.1863  0.1176
  687MOL0     C90617   0.827   9.297   9.500 -0.2185  0.6396 -0.7584
  687MOL0     C90618   0.696   9.317   9.462 -0.7560 -0.7628 -1.2114
  687MOL0     H90619   0.354   9.592   9.116  1.9969  1.0525 -0.3356
  687MOL0     H90620   0.101   9.631   9.077  0.6164 -1.2361  0.6127
  687MOL0     H90621  -0.131   9.790   9.389  2.7657  0.3010  0.2534
  687MOL0     H90622  -0.268   9.705   9.311 -0.1174  2.0001  0.3125
  687MOL0     H90623  -0.104   9.896   9.177  0.0407 -1.0710 -1.4543
  687MOL0     H90624  -0.244   9.941   9.277 -0.5521  0.5339 -0.9343
  687MOL0     H90625  -0.365   9.731   9.137  0.6818  0.2057  1.9064
  687MOL0     H90626  -0.230   9.780   9.019  2.7537  2.8510  1.7607
  687MOL0     H90627  -0.449   9.962   9.118 -1.0819  0.8599 -1.8835
  687MOL0     H90628  -0.323   9.999   8.993 -1.9207 -0.2318 -4.1745
  687MOL0     H90629  -0.380   9.864   8.846 -0.1903  1.6578 -0.9356
  687MOL0     H90630  -0.516   9.978   8.879 -0.4005 -1.1647 -0.8904
  687MOL0     H90631  -0.498   9.675   8.920  0.1571  0.6297 -2.4114
  687MOL0     H90632  -0.615   9.748   8.817  1.8038  0.3342 -1.0506
  687MOL0     H90633  -0.594   9.749   9.125 -3.3621 -3.6885  2.2905
  687MOL0     H90634  -0.671   9.891   9.040 -0.9948  0.0170 -2.6371
  687MOL0     H90635  -0.780   9.601   9.043  1.7239 -0.5733 -0.2956
  687MOL0     H90636  -0.845   9.726   8.938  0.7197 -1.6556 -0.8593
  687MOL0     H90637  -0.791   9.623   9.287 -2.7817 -1.9995 -3.0241
  687MOL0     H90638  -0.963   9.826   9.550 -2.0896 -0.9945  2.3520
  687MOL0     H90639  -0.875   9.677   9.530 -0.8651 -2.6278 -1.5181
  687MOL0     H90640  -1.064   9.559   9.469  1.5541 -1.5517  1.8143
  687MOL0     H90641  -1.173   9.703   9.450 -1.4575 -2.2629 -0.5975
  687MOL0     H90642  -1.037   9.680   9.718  0.5055 -0.2238  0.9935
  687MOL0     H90643  -1.201   9.742   9.677 -4.0714 -3.9860 -2.2025
  687MOL0     H90644  -1.135   9.452   9.683  0.2794 -1.9248  3.5902
  687MOL0     H90645  -1.289   9.521   9.640  0.0520 -2.6395  1.4134
  687MOL0     H90646  -1.378   9.463  10.037  2.3618 -2.2706 -4.3741
  687MOL0     H90647  -1.571   9.554  10.124 -1.4377  1.8082  1.2604
  687MOL0     H90648  -2.054   9.670   9.932 -1.0888 -0.3584  1.7863
  687MOL0     H90649  -2.270   9.733  10.036 -1.1156  0.5965  0.2299
  687MOL0     H90650  -2.317  10.155  10.129  1.6933 -1.5853  0.2383
  687MOL0     H90651  -2.311  10.088  10.288  1.7247  0.9059 -0.3942
  687MOL0     H90652  -2.550  10.048  10.269  3.2731  2.6435  2.7586
  687MOL0     H90653  -2.543  10.052  10.083  0.2369 -0.7361  0.2064
  687MOL0     H90654  -2.505  10.293  10.109  1.7944  2.5036  2.8381
  687MOL0     H90655  -2.526  10.275  10.276  2.4753  0.0361 -0.4528
  687MOL0     H90656  -2.751  10.343  10.155 -1.6153  0.4771  1.2178
  687MOL0     H90657  -2.751  10.175  10.085 -0.5335  1.0885 -0.1346
  687MOL0     H90658  -2.723  10.238  10.384 -0.7642 -0.5340  1.4529
  687MOL0     H90659  -2.773  10.088  10.312  0.5589  0.9194  2.0172
  687MOL0     H90660  -2.922  10.351  10.282  6.7536  0.1730 -4.0769
  687MOL0     H90661  -2.934  10.252  10.424  2.0164  3.3552 -0.8549
  687MOL0     H90662  -2.985  10.134  10.145  1.4664  3.0355 -0.7578
  687MOL0     H90663  -3.067  10.092  10.293  0.0923  0.4621 -0.5208
  687MOL0     H90664  -3.117  10.367  10.167 -0.4758  1.4546  1.8722
  687MOL0     H90665  -3.219  10.276  10.284 -0.4374 -2.7272 -1.1577
  687MOL0     H90666  -2.108  10.124  10.119 -4.5298 -0.4110 -0.0646
  687MOL0     H90667  -1.899  10.062  10.012  0.6509 -1.1952 -0.9255
  687MOL0     H90668  -1.612   9.819   9.776  1.6222  1.2267  0.3401
  687MOL0     H90669  -1.411   9.728   9.702  0.9938  0.8748  0.8291
  687MOL0     H90670   0.020   9.648   9.492 -0.6763 -1.6941 -0.6599
  687MOL0     H90671   0.278   9.602   9.526  0.1834  0.5599 -0.3604
  687MOL0     H90672   0.705   9.640   9.367 -1.4211 -0.2881  1.3166
  687MOL0     H90673   0.956   9.601   9.419 -2.9764  3.2292  0.3247
  687MOL0     H90674   1.016   9.228   9.661 -0.6252  1.9690  0.8259
  687MOL0     H90675   1.159   9.308   9.698  2.3163 -0.6580 -1.1605
  687MOL0     H90676   1.104   9.140   9.447  2.5965 -2.0191 -0.6056
  687MOL0     H90677   1.268   9.207   9.493 -1.5560  0.3656 -1.6386
  687MOL0     H90678   1.101   8.976   9.606  0.5582  0.2193 -0.7380
  687MOL0     H90679   1.218   9.073   9.699 -0.3567  3.3668 -1.1869
  687MOL0     H90680   1.383   9.016   9.512  0.7636 -0.3072 -0.5047
  687MOL0     H90681   1.330   8.890   9.628  2.2401 -0.9769 -0.7385
  687MOL0     H90682   1.178   8.708   9.288 -0.9803  1.3643 -0.6754
  687MOL0     H90683   0.842   9.198   9.542 -0.5998  1.7213  2.0959
  687MOL0     H90684   0.635   9.232   9.491 -0.1857 -0.3575  1.3443
  688MOL0     O90685   4.734   1.288   2.701  0.1498  0.4846  0.7985
  688MOL0     C90686   4.807   1.200   2.657 -0.7104  0.0044 -0.4674
  688MOL0     O90687   4.774   1.076   2.624 -0.2001  0.2282 -0.3912
  688MOL0     C90688   4.650   1.036   2.657  0.0195 -0.0582  0.3571
  688MOL0     C90689   4.619   1.039   2.789  0.1370  0.8476 -0.6597
  688MOL0     C90690   4.491   0.996   2.834  0.7125 -0.0280  0.4947
  688MOL0     C90691   4.385   0.973   2.746  0.1526 -0.1250  0.0127
  688MOL0     O90692   4.257   0.943   2.794  0.4897 -0.4116  0.1163
  688MOL0     C90693   4.238   0.893   2.932 -0.0273  1.1922  0.3038
  688MOL0     C90694   4.106   0.819   2.975  0.5442 -0.2886 -0.2236
  688MOL0     C90695   3.990   0.913   2.951  0.3117  0.0695  0.0114
  688MOL0     C90696   3.858   0.840   2.949 -0.5753 -0.8139 -0.6885
  688MOL0     C90697   3.831   0.755   2.817 -0.2285 -0.0637  0.0005
  688MOL0     C90698   3.690   0.703   2.809 -0.0486  0.1310  0.2767
  688MOL0     C90699   3.664   0.647   2.660  0.4154 -0.9839  0.0859
  688MOL0     C90700   3.541   0.555   2.646 -0.6076  0.3443  0.3465
  688MOL0     N90701   3.435   0.632   2.576  1.2008 -0.1787 -0.0756
  688MOL0     C90702   3.313   0.653   2.638 -0.3084 -0.0985  0.1765
  688MOL0     C90703   3.258   0.752   2.569 -0.0873  0.5295  0.1268
  688MOL0     C90704   3.130   0.822   2.605 -0.1809  0.0118  0.0888
  688MOL0     C90705   3.010   0.750   2.550  0.2675 -0.5488 -0.3753
  688MOL0     C90706   3.005   0.741   2.397  0.1555 -0.0523  0.0448
  688MOL0     C90707   2.857   0.706   2.343  0.1495  0.3496 -0.4985
  688MOL0     O90708   2.768   0.809   2.371  0.0520  0.6272 -0.6026
  688MOL0     C90709   2.639   0.777   2.322 -0.3506 -0.2485  0.4335
  688MOL0     C90710   2.548   0.870   2.360 -0.5499  0.2618  0.3041
  688MOL0     C90711   2.411   0.864   2.324  0.3327 -0.6301  0.2301
  688MOL0     C90712   2.363   0.757   2.241  0.5853  0.0812  0.8447
  688MOL0     C90713   2.220   0.740   2.205 -0.9801 -0.6312 -0.8741
  688MOL0     O90714   2.189   0.621   2.155  0.2049 -0.5533 -0.0898
  688MOL0     C90715   2.066   0.605   2.096  0.3216  0.4178  0.0147
  688MOL0     C90716   2.066   0.539   1.973  0.7481  0.2930  0.6274
  688MOL0     C90717   1.944   0.504   1.910  1.0000  0.8363  0.3111
  688MOL0     C90718   1.818   0.516   1.971  0.0023 -1.5432  0.0513
  688MOL0     O90719   1.702   0.500   1.900 -1.0202 -0.1937 -0.1650
  688MOL0     C90720   1.579   0.501   1.979 -0.3362 -0.9867  0.6034
  688MOL0     C90721   1.462   0.496   1.886 -1.0817  0.1624 -0.3333
  688MOL0     C90722   1.457   0.356   1.823 -0.3518 -0.5953 -0.0272
  688MOL0     C90723   1.324   0.319   1.763 -0.5414  0.1747 -0.2472
  688MOL0     C90724   1.274   0.400   1.649 -0.6225  0.2633  1.0846
  688MOL0     C90725   1.128   0.345   1.612 -0.3673  0.3022  0.1447
  688MOL0     C90726   1.072   0.461   1.536  0.5233  0.6244  0.0437
  688MOL0     C90727   0.918   0.430   1.504 -0.2837  1.5828  0.2078
  688MOL0    Cl90728   0.887   0.255   1.461  0.3761  0.1067  0.0677
  688MOL0     C90729   1.831   0.563   2.106 -0.0373 -0.0148 -0.3179
  688MOL0     C90730   1.951   0.609   2.166  0.0242 -0.4346 -0.2217
  688MOL0     O90731   2.147   0.834   2.230  0.4397 -0.0163  0.1699
  688MOL0     C90732   2.462   0.659   2.199  0.8888  0.0879  0.5952
  688MOL0     C90733   2.597   0.674   2.234  0.5073  0.6176 -0.1979
  688MOL0     N90734   3.332   0.773   2.455 -0.0629  0.6325 -0.3338
  688MOL0     N90735   3.439   0.692   2.453  0.1085 -0.0790 -0.6824
  688MOL0     C90736   4.413   0.981   2.609 -0.9141 -0.3212 -0.1320
  688MOL0     C90737   4.548   1.005   2.566 -0.1600 -0.2362 -1.0055
  688MOL0     C90738   4.953   1.230   2.644 -0.0265 -0.5901  0.4343
  688MOL0     C90739   4.996   1.363   2.660  0.2386 -0.4844  0.0040
  688MOL0     C90740   5.130   1.388   2.694 -0.3531 -0.5385  1.1389
  688MOL0     C90741   5.225   1.284   2.703 -0.0692 -0.5464  0.5287
  688MOL0     O90742   5.355   1.291   2.745 -0.4847  0.6412 -0.2762
  688MOL0     C90743   5.370   1.384   2.857 -1.5168 -0.3972 -0.3137
  688MOL0     C90744   5.496   1.367   2.944  0.9248 -0.0292 -0.6337
  688MOL0     C90745   5.616   1.385   2.846 -0.6963  0.2752 -0.0980
  688MOL0     C90746   5.752   1.409   2.919  0.8064  0.0003 -0.2293
  688MOL0     C90747   5.758   1.541   2.982 -0.3139  0.6907 -1.0129
  688MOL0     C90748   5.783   1.637   3.047  1.2185 -0.7096 -0.5029
  688MOL0     C90749   5.181   1.153   2.666 -0.1974  0.2141  0.1950
  688MOL0     C90750   5.045   1.124   2.640 -0.2417 -0.4462 -0.1908
  688MOL0     H90751   4.696   1.066   2.860 -1.0701  2.7440 -0.0040
  688MOL0     H90752   4.469   0.984   2.939 -0.3732 -2.3540  0.0604
  688MOL0     H90753   4.258   0.980   2.997  2.4867 -0.4615  1.9236
  688MOL0     H90754   4.317   0.822   2.960 -1.6081 -0.6079  0.3540
  688MOL0     H90755   4.110   0.795   3.081 -1.0018 -0.3005 -0.1373
  688MOL0     H90756   4.100   0.730   2.912 -2.3832  0.4416 -1.1797
  688MOL0     H90757   4.010   0.966   2.857 -2.0752 -0.2637 -0.7388
  688MOL0     H90758   3.989   0.985   3.033 -1.6961  0.1679 -0.0661
  688MOL0     H90759   3.842   0.772   3.034  0.5229  0.1237  0.3108
  688MOL0     H90760   3.783   0.920   2.953  1.2692  0.9842  2.9080
  688MOL0     H90761   3.898   0.668   2.815  2.7961  2.0093  2.2710
  688MOL0     H90762   3.849   0.815   2.727  0.6881 -0.7543 -0.2902
  688MOL0     H90763   3.612   0.778   2.819 -0.2290 -0.1850  1.5065
  688MOL0     H90764   3.679   0.616   2.876  3.3233 -1.7797 -1.3530
  688MOL0     H90765   3.671   0.730   2.588  0.2113 -0.5458  0.5645
  688MOL0     H90766   3.749   0.586   2.629  1.5211  0.8870 -0.7695
  688MOL0     H90767   3.506   0.511   2.740 -0.4015 -1.1041 -0.2252
  688MOL0     H90768   3.581   0.474   2.584  1.5127  1.7734 -0.2656
  688MOL0     H90769   3.278   0.605   2.729 -0.1001 -2.6941 -1.0218
  688MOL0     H90770   3.129   0.925   2.570 -1.8614 -0.4619 -1.4494
  688MOL0     H90771   3.122   0.822   2.714 -0.3952 -3.0763  0.1697
  688MOL0     H90772   2.913   0.789   2.582  0.6274 -0.7959  1.0851
  688MOL0     H90773   3.014   0.652   2.600  1.0951  1.0788  3.0370
  688MOL0     H90774   3.050   0.827   2.345  0.0698 -0.6601 -1.0797
  688MOL0     H90775   3.078   0.666   2.366 -0.9400 -1.7634  1.4037
  688MOL0     H90776   2.815   0.611   2.377  0.8199 -0.6339 -2.3291
  688MOL0     H90777   2.870   0.695   2.235  0.1494  2.2510 -0.7328
  688MOL0     H90778   2.590   0.935   2.437  3.1003  0.2147 -1.4807
  688MOL0     H90779   2.353   0.937   2.380  1.1659 -0.3732  0.7720
  688MOL0     H90780   2.158   0.520   1.919 -0.6076 -0.3817 -1.6057
  688MOL0     H90781   1.937   0.468   1.808  0.7160 -3.4994  1.6587
  688MOL0     H90782   1.567   0.591   2.040 -0.8878 -0.4412 -0.2911
  688MOL0     H90783   1.572   0.417   2.049  0.2908 -0.8212  0.8659
  688MOL0     H90784   1.478   0.568   1.805  0.2800 -2.7525 -2.8510
  688MOL0     H90785   1.370   0.507   1.944  0.4456  0.0626  2.2408
  688MOL0     H90786   1.464   0.289   1.908 -0.5016  0.2600  0.6730
  688MOL0     H90787   1.540   0.333   1.756 -0.2834 -4.0170  1.0655
  688MOL0     H90788   1.338   0.221   1.716  5.3664 -0.5039  2.0930
  688MOL0     H90789   1.250   0.290   1.838 -0.0918 -1.0185 -0.2405
  688MOL0     H90790   1.340   0.374   1.565 -2.9641 -1.6197 -0.3004
  688MOL0     H90791   1.281   0.508   1.668  0.8366  0.2659  0.6760
  688MOL0     H90792   1.073   0.320   1.703  1.1380  1.1394  1.3260
  688MOL0     H90793   1.141   0.255   1.551  2.0520 -0.8395  2.1522
  688MOL0     H90794   1.068   0.558   1.586 -0.4673  0.4244  0.3776
  688MOL0     H90795   1.125   0.467   1.440 -0.4508 -1.5616 -0.7092
  688MOL0     H90796   0.879   0.491   1.422 -0.2071 -1.7224 -2.5361
  688MOL0     H90797   0.868   0.460   1.596  2.0083 -0.1154  2.1412
  688MOL0     H90798   1.746   0.556   2.174  1.6721 -3.6500  1.7125
  688MOL0     H90799   1.956   0.628   2.273  1.1076  1.5131 -0.5765
  688MOL0     H90800   2.434   0.573   2.138 -0.2582  1.8180 -1.4468
  688MOL0     H90801   2.672   0.610   2.187 -0.2009 -0.7854  0.5407
  688MOL0     H90802   4.331   0.968   2.539 -1.6718  3.2674 -0.0792
  688MOL0     H90803   4.559   1.003   2.458 -4.0110  0.2266 -1.5542
  688MOL0     H90804   4.924   1.444   2.664 -0.3632 -0.8454 -2.0633
  688MOL0     H90805   5.170   1.485   2.720 -2.1746  0.2036  1.3122
  688MOL0     H90806   5.277   1.377   2.915 -2.1788  2.3787 -0.9015
  688MOL0     H90807   5.377   1.487   2.822  2.4963  0.1167  1.5296
  688MOL0     H90808   5.499   1.452   3.013 -1.3161  0.3047 -0.8482
  688MOL0     H90809   5.494   1.267   2.988  0.7475  0.2240 -0.0617
  688MOL0     H90810   5.596   1.472   2.782 -1.5948  1.5057  1.7639
  688MOL0     H90811   5.635   1.292   2.793 -4.3243 -1.7754  1.7582
  688MOL0     H90812   5.761   1.337   3.001 -1.0794 -1.5461 -1.2640
  688MOL0     H90813   5.836   1.399   2.850 -0.0514 -0.3116 -1.2706
  688MOL0     H90814   5.807   1.715   3.117  0.0847 -1.8792  1.2924
  688MOL0     H90815   5.243   1.065   2.656  0.7186  0.8430  0.1808
  688MOL0     H90816   5.015   1.028   2.599 -1.4915  0.4004 -1.3821
  689MOL0     O90817   3.879   7.105   1.154  0.2645  0.2458 -0.6861
  689MOL0     C90818   3.847   7.216   1.189  0.9434  0.6073  0.8694
  689MOL0     O90819   3.895   7.284   1.300 -0.2171 -0.1193  0.7701
  689MOL0     C90820   3.997   7.228   1.356 -0.7623 -0.5218 -0.8310
  689MOL0     C90821   4.121   7.259   1.297  0.7271  0.3856  0.3501
  689MOL0     C90822   4.237   7.197   1.344 -0.3471 -0.4108 -0.3123
  689MOL0     C90823   4.228   7.116   1.459 -0.0496  0.2023 -0.0315
  689MOL0     O90824   4.344   7.070   1.515  0.0549 -0.2071 -0.2419
  689MOL0     C90825   4.469   7.127   1.490 -0.0070  0.5910 -0.2358
  689MOL0     C90826   4.568   7.056   1.579 -0.2935  0.0164  0.0151
  689MOL0     C90827   4.697   7.134   1.562  0.3444 -0.5730  0.2759
  689MOL0     C90828   4.816   7.059   1.615  1.8241  0.9492 -0.0651
  689MOL0     C90829   4.944   7.142   1.620 -0.5246 -0.6231  0.0821
  689MOL0     C90830   5.060   7.057   1.670  0.3858 -0.5127  1.2606
  689MOL0     C90831   5.182   7.133   1.718 -0.2793 -0.3128  0.1953
  689MOL0     C90832   5.272   7.153   1.600 -0.4295  0.1899  0.0043
  689MOL0     N90833   5.395   7.229   1.629 -0.3334 -0.3623 -0.5805
  689MOL0     C90834   5.491   7.174   1.715 -0.4848 -0.8661 -0.7902
  689MOL0     C90835   5.595   7.259   1.702 -0.2797 -0.3388 -0.1498
  689MOL0     C90836   5.723   7.246   1.774  0.9510  0.4423 -0.2294
  689MOL0     C90837   5.689   7.254   1.927  0.5959 -0.1232 -0.3613
  689MOL0     C90838   5.659   7.404   1.976 -0.6571  0.6163  0.2531
  689MOL0     C90839   5.647   7.417   2.127  0.0433  0.5253 -0.8368
  689MOL0     O90840   5.603   7.296   2.192 -0.6620 -0.0218 -0.1422
  689MOL0     C90841   5.473   7.251   2.183  0.4357 -0.2461 -0.3489
  689MOL0     C90842   5.366   7.331   2.128  0.8109 -0.4876 -0.6030
  689MOL0     C90843   5.239   7.277   2.119 -0.3821 -0.7337 -0.0299
  689MOL0     C90844   5.212   7.142   2.164  0.7317  0.0475  0.5763
  689MOL0     C90845   5.083   7.082   2.125  0.3968 -0.8150 -0.6873
  689MOL0     O90846   4.978   7.165   2.077 -0.2396  0.0674 -0.1674
  689MOL0     C90847   4.848   7.124   2.056 -0.4287  0.4867 -0.1876
  689MOL0     C90848   4.764   7.209   1.986  0.4299 -1.0242 -0.4245
  689MOL0     C90849   4.638   7.177   1.943  0.2252 -0.1965  0.1342
  689MOL0     C90850   4.586   7.049   1.979  0.0068  0.9695 -1.1560
  689MOL0     O90851   4.465   6.999   1.931  0.4084 -0.1492 -0.3215
  689MOL0     C90852   4.351   7.081   1.912  0.5992  0.6484 -0.7497
  689MOL0     C90853   4.227   6.985   1.892 -1.0188 -0.0839 -0.3451
  689MOL0     C90854   4.105   7.083   1.904 -0.2798  0.7241 -0.0438
  689MOL0     C90855   3.979   7.002   1.869  0.1287 -1.0690  0.4421
  689MOL0     C90856   3.853   7.089   1.882  0.8225 -0.0881 -0.0114
  689MOL0     C90857   3.727   7.014   1.854  0.2910 -0.2722 -0.6390
  689MOL0     C90858   3.600   7.100   1.848  0.8409 -0.3984  0.6024
  689MOL0     C90859   3.481   7.014   1.792 -0.1737 -0.2592 -0.1925
  689MOL0    Cl90860   3.472   6.838   1.854 -0.1121 -0.2147 -0.1342
  689MOL0     C90861   4.659   6.977   2.070 -0.1807 -1.1585 -0.4724
  689MOL0     C90862   4.792   7.007   2.108  0.3777 -0.8853  0.6642
  689MOL0     O90863   5.079   6.960   2.136 -0.1706  0.4576  0.6132
  689MOL0     C90864   5.306   7.073   2.239 -0.1146 -0.1074  0.7047
  689MOL0     C90865   5.433   7.126   2.237 -0.4194 -0.2743 -1.7430
  689MOL0     N90866   5.564   7.365   1.618  1.1326 -0.5373 -0.2963
  689MOL0     N90867   5.441   7.346   1.571 -0.1867  0.3263 -0.3613
  689MOL0     C90868   4.110   7.098   1.528 -0.3395 -0.5182  0.2222
  689MOL0     C90869   3.989   7.150   1.471  0.0113 -0.1265 -0.1688
  689MOL0     C90870   3.754   7.300   1.109 -0.7756  0.4642  0.7220
  689MOL0     C90871   3.694   7.245   0.987  0.4542 -0.9458  0.3015
  689MOL0     C90872   3.599   7.324   0.924 -0.3878  0.2923  0.0159
  689MOL0     C90873   3.564   7.462   0.967 -0.3446  0.5005 -1.0283
  689MOL0     O90874   3.455   7.528   0.916  0.1880 -0.8413 -0.8316
  689MOL0     C90875   3.359   7.438   0.854  0.4843  0.3929 -0.2229
  689MOL0     C90876   3.225   7.516   0.813  0.0635  0.6815 -0.0368
  689MOL0     C90877   3.114   7.409   0.798 -0.6107 -0.2841  0.1242
  689MOL0     C90878   3.124   7.325   0.673 -0.1083  0.1294 -0.6306
  689MOL0     C90879   3.103   7.410   0.550  0.7883  0.6159 -0.2244
  689MOL0     C90880   3.084   7.486   0.458  0.6626  0.2674  0.6090
  689MOL0     C90881   3.632   7.520   1.071 -0.9102  0.4208  0.3223
  689MOL0     C90882   3.726   7.438   1.146  0.0358 -0.1679 -0.3878
  689MOL0     H90883   4.132   7.309   1.202  3.5595 -1.6352 -0.5368
  689MOL0     H90884   4.335   7.230   1.311 -0.3334  0.9746  0.9766
  689MOL0     H90885   4.464   7.236   1.506  1.3977  0.4551  1.4573
  689MOL0     H90886   4.502   7.108   1.387  0.0988 -0.4804 -0.0090
  689MOL0     H90887   4.584   6.959   1.530 -2.9253  0.6483 -2.3684
  689MOL0     H90888   4.526   7.042   1.679 -1.2151  3.6784  0.2697
  689MOL0     H90889   4.703   7.230   1.614  4.4791 -0.6472  0.2581
  689MOL0     H90890   4.725   7.156   1.458  1.2636 -1.7493  0.2606
  689MOL0     H90891   4.784   7.026   1.714 -0.4167 -0.6806 -1.2284
  689MOL0     H90892   4.836   6.968   1.558 -1.7688  0.5723 -1.0032
  689MOL0     H90893   4.918   7.217   1.694 -0.5881 -0.0556 -0.5038
  689MOL0     H90894   4.973   7.186   1.524  0.4744 -2.7794 -0.6558
  689MOL0     H90895   5.082   6.992   1.584  1.9086 -2.0210  2.7191
  689MOL0     H90896   5.038   6.991   1.755  0.3439  0.1499  1.7718
  689MOL0     H90897   5.152   7.230   1.758 -0.7721  0.0025 -0.9082
  689MOL0     H90898   5.236   7.074   1.793 -1.0018 -0.5235  0.5610
  689MOL0     H90899   5.217   7.197   1.516  3.2700  2.9188 -1.3117
  689MOL0     H90900   5.310   7.053   1.576  0.3394  0.3081  0.6735
  689MOL0     H90901   5.487   7.077   1.764  0.0880  0.2210  1.5197
  689MOL0     H90902   5.788   7.319   1.725  1.3387 -1.4895 -2.7936
  689MOL0     H90903   5.759   7.143   1.772 -1.8110 -0.6090 -0.1834
  689MOL0     H90904   5.774   7.214   1.983 -0.0495 -0.4183  0.4336
  689MOL0     H90905   5.605   7.193   1.961  0.7104 -0.8835 -1.3864
  689MOL0     H90906   5.747   7.464   1.952  1.0986 -0.9022  2.4259
  689MOL0     H90907   5.576   7.445   1.918 -1.5683 -0.1134  1.0135
  689MOL0     H90908   5.571   7.496   2.138 -1.4354 -0.7108 -1.8311
  689MOL0     H90909   5.739   7.455   2.175 -0.2029 -2.2591  2.1881
  689MOL0     H90910   5.392   7.424   2.079 -0.1616 -0.4408 -1.0618
  689MOL0     H90911   5.158   7.325   2.065  1.2204 -1.5933 -3.5216
  689MOL0     H90912   4.805   7.295   1.933  0.8524 -1.3540 -0.6314
  689MOL0     H90913   4.575   7.239   1.879 -0.0956  0.3799  1.0014
  689MOL0     H90914   4.369   7.155   1.833  0.7907  1.3161 -0.0971
  689MOL0     H90915   4.337   7.149   1.996  0.4169  0.0522 -0.2932
  689MOL0     H90916   4.219   6.909   1.969  1.0896  0.3806  0.3954
  689MOL0     H90917   4.244   6.940   1.794  0.9155 -0.2341  0.0181
  689MOL0     H90918   4.105   7.162   1.828 -1.7606 -0.7693 -1.6766
  689MOL0     H90919   4.093   7.136   1.999 -3.5897 -0.0151  0.0876
  689MOL0     H90920   3.993   6.964   1.767  1.9694  2.0010 -0.5877
  689MOL0     H90921   3.964   6.922   1.942  0.2085 -1.1641  0.3547
  689MOL0     H90922   3.857   7.179   1.821 -0.2113 -0.3313 -0.4693
  689MOL0     H90923   3.841   7.116   1.988  0.3066 -0.0406 -0.0809
  689MOL0     H90924   3.715   6.931   1.923 -3.4349  0.0135 -0.7576
  689MOL0     H90925   3.737   6.976   1.752 -3.8160  1.7284 -2.0132
  689MOL0     H90926   3.573   7.135   1.948  1.7084 -1.2506  1.1617
  689MOL0     H90927   3.610   7.186   1.781 -3.0237 -1.3380 -1.4886
  689MOL0     H90928   3.494   7.020   1.684  1.3473  0.0128 -0.0127
  689MOL0     H90929   3.386   7.064   1.816 -0.3822 -0.5668 -0.3682
  689MOL0     H90930   4.606   6.888   2.102 -1.7557  0.2336  1.0449
  689MOL0     H90931   4.834   6.934   2.176 -1.9407 -2.0348  0.9940
  689MOL0     H90932   5.277   6.976   2.277  1.0048 -1.0549 -0.7683
  689MOL0     H90933   5.501   7.064   2.295  0.2969  0.7928 -1.4013
  689MOL0     H90934   4.117   7.039   1.618  0.9130 -0.2862  0.2938
  689MOL0     H90935   3.893   7.124   1.514 -0.6970  1.1730 -0.8790
  689MOL0     H90936   3.721   7.148   0.945 -0.0789 -0.3809 -1.4080
  689MOL0     H90937   3.554   7.265   0.845 -0.0409 -0.1821  0.1726
  689MOL0     H90938   3.340   7.358   0.925 -0.9722  1.3364  0.4868
  689MOL0     H90939   3.412   7.398   0.767  5.7233  0.6258  2.4803
  689MOL0     H90940   3.182   7.581   0.888 -5.2743 -2.2490 -0.0706
  689MOL0     H90941   3.249   7.577   0.725  0.1226  0.8826  0.1182
  689MOL0     H90942   3.018   7.461   0.798 -0.7644 -0.5516 -0.9654
  689MOL0     H90943   3.120   7.342   0.884  0.1962 -0.6818 -0.2310
  689MOL0     H90944   3.226   7.286   0.672 -0.0677  0.2402 -0.9106
  689MOL0     H90945   3.053   7.242   0.672 -1.8909  1.5635 -2.3597
  689MOL0     H90946   3.078   7.539   0.366  4.8776  0.8286  0.4702
  689MOL0     H90947   3.624   7.625   1.093  0.5357  1.0506 -1.8322
  689MOL0     H90948   3.767   7.481   1.236  1.6222 -4.9010  1.4829
  690MOL0     O90949   1.794   2.734  11.182  0.3833 -0.3167  1.1878
  690MOL0     C90950   1.830   2.846  11.214  0.0684  0.4658  0.5671
  690MOL0     O90951   1.786   2.962  11.154  0.5513  0.0234  0.4262
  690MOL0     C90952   1.722   2.961  11.032  0.3863  0.9727  0.0668
  690MOL0     C90953   1.610   3.039  11.031 -0.1261 -0.8257 -0.7782
  690MOL0     C90954   1.522   3.051  10.922  0.3151  0.6028  0.2096
  690MOL0     C90955   1.534   2.969  10.807  0.6794 -0.3202 -0.1286
  690MOL0     O90956   1.444   2.977  10.706  0.2135 -1.0176  0.3294
  690MOL0     C90957   1.310   2.961  10.738 -0.0250  0.3710  0.2859
  690MOL0     C90958   1.223   2.997  10.610 -0.3643  0.1648 -0.4277
  690MOL0     C90959   1.072   2.989  10.651 -0.8868 -0.0016  0.1555
  690MOL0     C90960   0.973   3.044  10.552 -0.3758  0.6972 -0.4333
  690MOL0     C90961   0.838   2.990  10.613  0.0509 -0.5154 -0.3736
  690MOL0     C90962   0.719   3.044  10.527  0.2402  0.1815 -0.3846
  690MOL0     C90963   0.585   2.990  10.574 -0.2719 -0.2084  0.0279
  690MOL0     C90964   0.468   3.063  10.500  0.2884  0.3498 -0.7872
  690MOL0     N90965   0.338   2.994  10.506 -0.6284 -0.7885 -1.1536
  690MOL0     C90966   0.290   2.912  10.409  0.8132 -0.4655  0.2704
  690MOL0     C90967   0.153   2.902  10.431  0.5178  0.5699  0.7256
  690MOL0     C90968   0.042   2.848  10.329 -0.5518 -0.1071 -0.8455
  690MOL0     C90969  -0.077   2.780  10.394  0.3358 -0.0187 -0.0488
  690MOL0     C90970  -0.032   2.665  10.487  0.5715  0.0498  0.0981
  690MOL0     C90971  -0.154   2.574  10.508  0.1254  0.2589  0.0307
  690MOL0     O90972  -0.260   2.644  10.572  0.8530  0.4836 -0.3370
  690MOL0     C90973  -0.386   2.579  10.594  0.3733 -0.7568 -0.5362
  690MOL0     C90974  -0.464   2.646  10.687 -0.0136  0.3532  0.2099
  690MOL0     C90975  -0.585   2.592  10.717 -0.2618  0.4511  0.4670
  690MOL0     C90976  -0.640   2.481  10.651  0.1844  0.6557  0.2601
  690MOL0     C90977  -0.780   2.432  10.706 -0.0621  0.9994 -0.4233
  690MOL0     O90978  -0.843   2.506  10.798 -0.0186 -0.4286 -0.1376
  690MOL0     C90979  -0.977   2.485  10.829 -0.5023  0.5868  1.2522
  690MOL0     C90980  -1.021   2.360  10.878  1.2538 -0.3224 -0.3496
  690MOL0     C90981  -1.156   2.348  10.916  0.3510  0.4894 -0.0470
  690MOL0     C90982  -1.245   2.459  10.895 -0.0245  0.1877  0.2461
  690MOL0     O90983  -1.379   2.450  10.931 -0.1278 -0.9027  0.4028
  690MOL0     C90984  -1.490   2.475  10.837  0.3884  0.4581  0.6264
  690MOL0     C90985  -1.529   2.333  10.788  0.4562 -0.9861  0.6363
  690MOL0     C90986  -1.641   2.336  10.678 -0.1416  0.5079 -0.1674
  690MOL0     C90987  -1.709   2.202  10.662  0.0085 -0.4153  0.5674
  690MOL0     C90988  -1.848   2.201  10.588  0.5193 -0.0455  0.1523
  690MOL0     C90989  -1.920   2.070  10.599 -0.0952  0.3052 -0.5205
  690MOL0     C90990  -2.062   2.079  10.551 -0.4167  0.1811  0.3342
  690MOL0     C90991  -2.131   1.948  10.596 -0.0795 -0.2408  0.3757
  690MOL0    Cl90992  -2.313   1.936  10.573  0.7277 -0.8153  0.3732
  690MOL0     C90993  -1.202   2.587  10.844  0.1138 -0.3777 -0.0378
  690MOL0     C90994  -1.065   2.595  10.811  0.5525 -0.9741 -0.0462
  690MOL0     O90995  -0.831   2.335  10.644 -0.1406  0.2833 -0.1329
  690MOL0     C90996  -0.556   2.410  10.557 -0.2070 -0.4225  0.2610
  690MOL0     C90997  -0.428   2.460  10.528  0.9007  0.0973  0.8573
  690MOL0     N90998   0.122   2.959  10.546  0.3678 -0.2987 -0.3397
  690MOL0     N90999   0.237   3.004  10.602  0.1532 -0.8983 -0.0995
  690MOL0     C91000   1.648   2.884  10.798 -0.9923 -0.0562 -0.3998
  690MOL0     C91001   1.740   2.883  10.918 -1.1270 -0.2193 -0.1481
  690MOL0     C91002   1.936   2.863  11.314 -0.1157  0.2996  0.3955
  690MOL0     C91003   1.985   2.990  11.349  0.1227  0.3859 -0.3119
  690MOL0     C91004   2.083   3.000  11.445  0.1947 -0.8327  0.1432
  690MOL0     C91005   2.146   2.883  11.500  0.7981  0.0924  0.1329
  690MOL0     O91006   2.249   2.893  11.596  0.0546  0.0527  0.2822
  690MOL0     C91007   2.297   3.024  11.629 -0.2081 -0.5735  0.5890
  690MOL0     C91008   2.369   3.008  11.769 -0.4283 -0.1838 -0.5891
  690MOL0     C91009   2.274   2.978  11.882 -0.0182  0.4323  0.6145
  690MOL0     C91010   2.347   2.967  12.018  0.9609  0.2836  0.1951
  690MOL0     C91011   2.436   2.854  12.032 -1.1154 -0.5726 -0.5770
  690MOL0     C91012   2.502   2.748  12.036  0.3921  0.0845 -0.9688
  690MOL0     C91013   2.099   2.763  11.459 -0.3728  0.3864  0.4808
  690MOL0     C91014   1.992   2.751  11.371 -0.6453  0.3333  0.1647
  690MOL0     H91015   1.588   3.094  11.122 -0.5670 -1.5158 -0.4636
  690MOL0     H91016   1.443   3.125  10.923 -0.7389 -0.4666 -0.5015
  690MOL0     H91017   1.284   3.017  10.829  2.0426  0.3521  0.9359
  690MOL0     H91018   1.286   2.856  10.755  3.5388 -0.9321 -1.6370
  690MOL0     H91019   1.241   2.920  10.534 -2.1258  0.0699 -0.7951
  690MOL0     H91020   1.247   3.094  10.567  0.1435 -0.1914 -0.9666
  690MOL0     H91021   1.057   3.043  10.745  1.1988  1.8755 -0.4977
  690MOL0     H91022   1.060   2.884  10.678 -0.2206 -0.4166 -1.0933
  690MOL0     H91023   0.990   3.152  10.559  0.2361  0.5525  0.5636
  690MOL0     H91024   0.998   3.013  10.450  1.9924 -0.4844  0.4370
  690MOL0     H91025   0.814   3.028  10.713  0.4403  1.1616 -0.8840
  690MOL0     H91026   0.835   2.881  10.617  1.2292 -0.5225  1.4295
  690MOL0     H91027   0.730   3.008  10.424 -0.6288 -1.9276  0.2047
  690MOL0     H91028   0.723   3.154  10.524  3.3267  0.1509 -1.3867
  690MOL0     H91029   0.577   2.883  10.556  4.0066 -0.4133 -1.9086
  690MOL0     H91030   0.567   3.015  10.679 -3.4429 -1.6514 -0.0672
  690MOL0     H91031   0.491   3.087  10.396 -1.7401 -0.0970 -1.3905
  690MOL0     H91032   0.440   3.154  10.553 -0.7407 -0.3143 -0.1741
  690MOL0     H91033   0.345   2.875  10.324  1.6914  4.1116 -1.4534
  690MOL0     H91034   0.089   2.766  10.275  1.4883  0.2361  0.3176
  690MOL0     H91035   0.033   2.930  10.257  1.4362 -0.2992 -1.3564
  690MOL0     H91036  -0.141   2.729  10.322  2.2642 -1.5247 -0.7899
  690MOL0     H91037  -0.136   2.856  10.446 -0.8012 -1.0667  0.2304
  690MOL0     H91038   0.054   2.612  10.446 -0.0167 -1.6920  1.0250
  690MOL0     H91039  -0.005   2.706  10.585  1.1114 -0.5769  0.2217
  690MOL0     H91040  -0.128   2.487  10.569 -1.9655 -0.3535  0.1113
  690MOL0     H91041  -0.184   2.532  10.412 -0.6771 -1.0317  0.8211
  690MOL0     H91042  -0.417   2.734  10.730 -0.9694  1.3602 -0.7388
  690MOL0     H91043  -0.653   2.642  10.785  0.4078  1.1167  0.6537
  690MOL0     H91044  -0.953   2.275  10.878  3.1200  1.0639  1.2983
  690MOL0     H91045  -1.190   2.261  10.972  1.6819  1.1297  1.8608
  690MOL0     H91046  -1.465   2.542  10.754 -3.3527  1.2943 -0.0258
  690MOL0     H91047  -1.580   2.515  10.885 -0.3175 -1.1150  0.6815
  690MOL0     H91048  -1.548   2.259  10.866 -0.6894  0.5886  1.9044
  690MOL0     H91049  -1.437   2.308  10.733 -0.0399  0.9356 -1.2200
  690MOL0     H91050  -1.606   2.384  10.585  1.2522  2.8681  1.4703
  690MOL0     H91051  -1.710   2.408  10.722  2.1161  0.7921  3.2115
  690MOL0     H91052  -1.645   2.135  10.604  0.5597  0.2285  0.4156
  690MOL0     H91053  -1.722   2.163  10.764  0.4925 -0.7438  0.5068
  690MOL0     H91054  -1.836   2.220  10.481 -3.1246  3.0996  0.0904
  690MOL0     H91055  -1.912   2.277  10.634  0.6219  1.0682 -1.4691
  690MOL0     H91056  -1.911   2.033  10.702  0.4382 -0.3431 -0.7889
  690MOL0     H91057  -1.874   1.996  10.532 -1.3590 -1.5510  0.5629
  690MOL0     H91058  -2.115   2.156  10.608 -1.0134 -0.9564  1.3569
  690MOL0     H91059  -2.069   2.101  10.444 -2.5550  3.4530  0.9933
  690MOL0     H91060  -2.126   1.938  10.705 -2.8119  0.3215  0.6237
  690MOL0     H91061  -2.067   1.866  10.561  0.6220 -0.7229  2.6446
  690MOL0     H91062  -1.260   2.678  10.835 -2.2889 -1.9922 -3.1679
  690MOL0     H91063  -1.036   2.691  10.771 -0.0497  0.0339  1.8148
  690MOL0     H91064  -0.575   2.311  10.518 -0.8348 -0.9620  1.8644
  690MOL0     H91065  -0.357   2.408  10.465 -2.6399 -4.2809  0.0268
  690MOL0     H91066   1.668   2.824  10.710  0.5735 -0.5880  0.2707
  690MOL0     H91067   1.826   2.818  10.903 -0.8681 -0.2448  1.3336
  690MOL0     H91068   1.945   3.083  11.311  1.5659  0.8633 -0.7139
  690MOL0     H91069   2.094   3.107  11.462 -0.4568 -0.6835 -0.3114
  690MOL0     H91070   2.215   3.097  11.635 -1.0428 -1.3798 -0.5567
  690MOL0     H91071   2.370   3.057  11.555 -0.5292 -0.8383  0.1468
  690MOL0     H91072   2.447   2.933  11.757 -1.8395 -1.5762 -1.4101
  690MOL0     H91073   2.433   3.091  11.802  2.9368 -3.0549  0.7410
  690MOL0     H91074   2.224   2.886  11.854 -0.9644  1.3919 -0.9889
  690MOL0     H91075   2.200   3.057  11.900 -1.0764 -0.2130 -0.7323
  690MOL0     H91076   2.401   3.059  12.044  1.4027 -0.3654  1.6930
  690MOL0     H91077   2.276   2.954  12.100 -1.8333  0.0891 -2.1067
  690MOL0     H91078   2.565   2.662  12.049 -0.8998 -0.9330 -1.2116
  690MOL0     H91079   2.157   2.679  11.496  1.2105  1.4096  0.4646
  690MOL0     H91080   1.966   2.652  11.336  4.0781 -1.8251  1.8086
  691MOL0     O91081   2.909   1.965   2.584 -0.3996 -0.7586  0.0641
  691MOL0     C91082   2.987   1.875   2.628 -0.5786  0.7305  0.5375
  691MOL0     O91083   2.952   1.743   2.649 -0.2450 -0.7888  0.5225
  691MOL0     C91084   2.837   1.699   2.600  0.2010 -0.2344  0.3896
  691MOL0     C91085   2.811   1.702   2.461 -0.3953 -0.8705  0.3788
  691MOL0     C91086   2.687   1.667   2.417  0.0449  0.6563  1.0410
  691MOL0     C91087   2.582   1.628   2.510  0.3825  0.0128 -0.1506
  691MOL0     O91088   2.447   1.616   2.491  0.4471  0.7973 -0.0039
  691MOL0     C91089   2.405   1.632   2.356 -0.3871  0.4141  0.1133
  691MOL0     C91090   2.254   1.587   2.338 -0.3966  0.4954  0.0102
  691MOL0     C91091   2.233   1.437   2.354  0.7003 -0.3675 -0.3041
  691MOL0     C91092   2.093   1.385   2.297 -0.1263  0.4898  0.5360
  691MOL0     C91093   2.055   1.251   2.355 -0.1941  0.3100  0.3500
  691MOL0     C91094   1.906   1.206   2.327 -0.6600  0.0996  0.9068
  691MOL0     C91095   1.802   1.297   2.393 -0.6933  0.5039 -0.3459
  691MOL0     C91096   1.661   1.243   2.378  0.3850  0.3710 -0.7761
  691MOL0     N91097   1.573   1.305   2.478 -0.1632  0.1100  0.6950
  691MOL0     C91098   1.495   1.415   2.466 -0.1940 -0.8403  0.3909
  691MOL0     C91099   1.434   1.428   2.581  0.4677  0.1089 -0.6586
  691MOL0     C91100   1.313   1.519   2.609 -0.9041  0.6726 -0.7858
  691MOL0     C91101   1.182   1.458   2.576 -0.6652 -0.3938  0.0499
  691MOL0     C91102   1.063   1.545   2.627 -0.5547  0.5532  0.2626
  691MOL0     C91103   0.923   1.489   2.594  0.9505 -0.6262 -0.4162
  691MOL0     O91104   0.821   1.596   2.597 -0.0565 -0.7565 -0.3821
  691MOL0     C91105   0.694   1.555   2.633  0.6771 -0.1051  0.1676
  691MOL0     C91106   0.614   1.661   2.682 -0.0083  0.0047  0.2415
  691MOL0     C91107   0.483   1.640   2.705  0.5580  0.9435  0.5234
  691MOL0     C91108   0.418   1.521   2.676  0.5428  1.1117 -0.7640
  691MOL0     C91109   0.277   1.496   2.697 -0.6295 -0.4437  0.7143
  691MOL0     O91110   0.209   1.395   2.637  0.4925 -0.4245 -0.1724
  691MOL0     C91111   0.074   1.365   2.671  0.1431 -0.3628 -0.3364
  691MOL0     C91112  -0.028   1.461   2.689 -0.2562  0.2602  0.3759
  691MOL0     C91113  -0.158   1.422   2.715  0.5897 -0.1505  0.5220
  691MOL0     C91114  -0.193   1.289   2.711  0.1223 -0.3224 -0.0176
  691MOL0     O91115  -0.333   1.259   2.721 -0.6372 -0.0014  0.3569
  691MOL0     C91116  -0.372   1.126   2.767 -0.4448 -0.6883  0.6271
  691MOL0     C91117  -0.520   1.122   2.798 -0.2696 -0.6230  0.5980
  691MOL0     C91118  -0.567   0.980   2.828  0.1703  1.0023  0.1367
  691MOL0     C91119  -0.716   0.972   2.859  0.4387  0.2210  0.0550
  691MOL0     C91120  -0.756   0.823   2.896  0.3736 -0.4954  0.2938
  691MOL0     C91121  -0.913   0.823   2.903  0.3647 -0.2473 -0.5535
  691MOL0     C91122  -0.980   0.689   2.861  0.5575  0.1488 -0.2948
  691MOL0     C91123  -1.132   0.689   2.889 -0.1523 -0.2245  0.0389
  691MOL0    Cl91124  -1.196   0.533   2.812 -0.3828 -0.2605 -0.0138
  691MOL0     C91125  -0.093   1.198   2.697 -0.0057  0.0028 -0.2164
  691MOL0     C91126   0.036   1.230   2.686 -0.7523  0.6999  0.1273
  691MOL0     O91127   0.237   1.568   2.788 -0.6369 -0.3882  0.5408
  691MOL0     C91128   0.502   1.412   2.630 -0.9785 -0.1853  0.4193
  691MOL0     C91129   0.644   1.426   2.619  1.2162  0.0686 -0.2050
  691MOL0     N91130   1.477   1.335   2.669 -1.5213  0.7874 -0.1398
  691MOL0     N91131   1.575   1.279   2.609 -0.1358 -0.4476 -0.0910
  691MOL0     C91132   2.621   1.617   2.648  0.6757  0.5189  0.6385
  691MOL0     C91133   2.742   1.649   2.685 -0.0210 -1.0817  0.1418
  691MOL0     C91134   3.119   1.916   2.683  0.3421  0.1027 -0.2584
  691MOL0     C91135   3.171   2.045   2.675 -0.1757 -0.3681  0.4877
  691MOL0     C91136   3.299   2.074   2.726 -0.3746  0.1293 -0.0768
  691MOL0     C91137   3.376   1.978   2.802  0.5441 -1.0614  0.6363
  691MOL0     O91138   3.490   2.004   2.866 -0.0311  0.6778 -0.1039
  691MOL0     C91139   3.545   2.136   2.875 -0.7751 -0.6010  0.4482
  691MOL0     C91140   3.686   2.124   2.939  0.0197  0.1839  1.0789
  691MOL0     C91141   3.685   2.043   3.066  0.5830  0.7115 -0.2286
  691MOL0     C91142   3.825   1.982   3.095  0.7062  0.4565  0.2953
  691MOL0     C91143   3.931   2.083   3.116 -0.0441  0.3667  0.2086
  691MOL0     C91144   4.016   2.156   3.157 -0.3999 -0.8892  0.3635
  691MOL0     C91145   3.319   1.853   2.806 -0.6319 -0.5155 -0.3690
  691MOL0     C91146   3.199   1.820   2.749  0.2842  0.5931 -0.7165
  691MOL0     H91147   2.891   1.745   2.402 -0.4670  0.1760  1.0017
  691MOL0     H91148   2.660   1.682   2.313  0.0077 -0.0596  0.9428
  691MOL0     H91149   2.460   1.571   2.285 -4.5191 -0.5771 -2.5853
  691MOL0     H91150   2.422   1.739   2.339  0.5850  0.1526 -0.5844
  691MOL0     H91151   2.214   1.622   2.242  0.1249 -1.8478 -1.1244
  691MOL0     H91152   2.189   1.637   2.410 -0.9199  0.2813 -0.3070
  691MOL0     H91153   2.233   1.426   2.463  0.6998  0.4761 -0.2147
  691MOL0     H91154   2.312   1.368   2.322  0.6634 -0.8181  0.5299
  691MOL0     H91155   2.023   1.468   2.309  0.7616  1.2460  0.6575
  691MOL0     H91156   2.101   1.364   2.190 -4.6318 -1.4058  0.3420
  691MOL0     H91157   2.070   1.269   2.462  0.2131  0.1549  0.3194
  691MOL0     H91158   2.130   1.178   2.322  2.1637  3.0669 -0.8113
  691MOL0     H91159   1.895   1.101   2.355 -2.0429 -0.3258 -1.0288
  691MOL0     H91160   1.904   1.202   2.218  2.5234  0.8743  0.7346
  691MOL0     H91161   1.830   1.319   2.496  0.5951 -1.8324 -0.1263
  691MOL0     H91162   1.817   1.386   2.331  0.3755  0.4439 -0.1826
  691MOL0     H91163   1.659   1.135   2.394 -3.1462  0.4484  0.0340
  691MOL0     H91164   1.619   1.266   2.280  0.1821  2.1563 -0.3100
  691MOL0     H91165   1.476   1.468   2.373  1.2618  0.2490  0.6803
  691MOL0     H91166   1.322   1.614   2.555  2.2315  0.9185 -0.0015
  691MOL0     H91167   1.318   1.542   2.716 -0.5847 -0.0157 -0.6474
  691MOL0     H91168   1.176   1.360   2.624 -0.4398  0.0081  0.9064
  691MOL0     H91169   1.176   1.451   2.467  1.1167  2.4498 -0.3224
  691MOL0     H91170   1.073   1.562   2.735  1.1745  2.7359 -0.1702
  691MOL0     H91171   1.074   1.647   2.591 -1.1564  0.7549  0.6364
  691MOL0     H91172   0.902   1.420   2.676  3.4595  0.5006  1.2586
  691MOL0     H91173   0.918   1.433   2.500  0.3127 -2.5273  0.6916
  691MOL0     H91174   0.665   1.757   2.692  0.5280 -0.4614  2.4925
  691MOL0     H91175   0.420   1.720   2.744 -3.5892 -1.4946 -0.5337
  691MOL0     H91176   0.003   1.565   2.679  0.5877 -0.0882 -0.9629
  691MOL0     H91177  -0.238   1.492   2.737  1.8358  0.8468  2.1665
  691MOL0     H91178  -0.311   1.111   2.856  3.9810 -1.0222 -2.1163
  691MOL0     H91179  -0.341   1.059   2.686 -0.5789  0.0952 -0.0901
  691MOL0     H91180  -0.562   1.169   2.708  0.3637  0.0627  0.6514
  691MOL0     H91181  -0.537   1.186   2.885 -0.4498 -0.3515  0.3652
  691MOL0     H91182  -0.511   0.937   2.912  0.3616  0.1550 -0.4150
  691MOL0     H91183  -0.547   0.921   2.738  2.6363 -0.3805  1.4941
  691MOL0     H91184  -0.755   1.039   2.936 -3.9950 -0.8231 -0.9897
  691MOL0     H91185  -0.770   1.001   2.768  1.4798  3.0563  0.2172
  691MOL0     H91186  -0.706   0.790   2.988 -1.3051 -3.1959  0.3275
  691MOL0     H91187  -0.727   0.752   2.818 -1.0118 -1.2096  0.4061
  691MOL0     H91188  -0.959   0.895   2.835 -0.3303 -1.4067 -1.3372
  691MOL0     H91189  -0.950   0.838   3.005 -0.0216 -3.6828 -0.0741
  691MOL0     H91190  -0.963   0.675   2.754  0.1736 -0.6569 -0.2635
  691MOL0     H91191  -0.938   0.602   2.912  1.6303  0.9948  0.2984
  691MOL0     H91192  -1.174   0.780   2.847  2.5401  1.2353  0.2821
  691MOL0     H91193  -1.147   0.690   2.997  2.0059 -2.1320  0.4371
  691MOL0     H91194  -0.123   1.096   2.676 -0.9158  0.6762 -2.4938
  691MOL0     H91195   0.105   1.148   2.667 -0.5815 -0.8385  5.5344
  691MOL0     H91196   0.450   1.317   2.616 -0.5247 -0.0836 -2.5210
  691MOL0     H91197   0.709   1.343   2.590  3.2126  0.8730  1.6864
  691MOL0     H91198   2.561   1.556   2.715  0.2392 -1.4572 -1.4501
  691MOL0     H91199   2.761   1.648   2.792 -1.7988  0.2517  0.5119
  691MOL0     H91200   3.121   2.128   2.625  0.0822  0.4932  1.6100
  691MOL0     H91201   3.335   2.176   2.716 -1.1248  0.2835 -1.3573
  691MOL0     H91202   3.481   2.202   2.933  1.0532  1.1119  0.6372
  691MOL0     H91203   3.556   2.185   2.778  0.2265 -1.0885  0.2943
  691MOL0     H91204   3.752   2.089   2.859  0.0225  0.2750  1.0406
  691MOL0     H91205   3.724   2.223   2.967  0.1349  0.1322  1.1065
  691MOL0     H91206   3.609   1.964   3.060 -0.2218  1.0646  3.3264
  691MOL0     H91207   3.645   2.095   3.153 -0.9807 -0.3220 -0.2852
  691MOL0     H91208   3.827   1.917   3.184 -0.3648 -4.2944 -2.7723
  691MOL0     H91209   3.838   1.903   3.021  0.3428  0.8698 -0.2075
  691MOL0     H91210   4.093   2.212   3.206 -0.9182  0.1049  0.0858
  691MOL0     H91211   3.376   1.775   2.856 -1.8626 -3.1210 -2.7357
  691MOL0     H91212   3.167   1.718   2.769  3.1280 -0.9398 -3.1841
  692MOL0     O91213  10.287   1.516   2.169  0.0395 -0.5235 -0.0538
  692MOL0     C91214  10.312   1.610   2.244 -0.3514  0.8891 -0.2812
  692MOL0     O91215  10.242   1.647   2.350 -0.1506 -0.1082 -0.0103
  692MOL0     C91216  10.139   1.577   2.410  0.0088 -0.2943 -0.6548
  692MOL0     C91217  10.117   1.594   2.542 -0.8026 -0.3373  0.1717
  692MOL0     C91218  10.042   1.509   2.623  0.1702 -0.3586  0.0735
  692MOL0     C91219   9.960   1.406   2.563  0.5729 -0.6202 -0.3572
  692MOL0     O91220   9.882   1.334   2.634  0.6717  0.5668  0.0122
  692MOL0     C91221   9.840   1.203   2.593  0.0778 -0.2120  0.3590
  692MOL0     C91222   9.737   1.164   2.698  0.1253  1.1978  0.3417
  692MOL0     C91223   9.626   1.256   2.708  0.4008 -1.0752 -0.8123
  692MOL0     C91224   9.515   1.205   2.810  0.3496  0.0662 -0.1291
  692MOL0     C91225   9.410   1.323   2.830  0.6979  0.4213 -0.8270
  692MOL0     C91226   9.294   1.274   2.914 -0.7886 -0.5031 -1.2020
  692MOL0     C91227   9.183   1.380   2.921 -0.5064 -0.2518 -0.4394
  692MOL0     C91228   9.074   1.331   3.020  0.1744  0.4681  0.8665
  692MOL0     N91229   8.965   1.429   3.027 -0.4586 -0.0309  0.1482
  692MOL0     C91230   8.897   1.456   3.139  0.1474  0.3917 -0.2593
  692MOL0     C91231   8.784   1.520   3.110  0.9572 -0.6726 -0.4963
  692MOL0     C91232   8.682   1.555   3.214  0.1471 -0.3027 -0.4469
  692MOL0     C91233   8.541   1.557   3.148 -0.0989  0.0967  0.2187
  692MOL0     C91234   8.438   1.607   3.250 -0.1350  0.3797  0.0572
  692MOL0     C91235   8.304   1.579   3.201  0.4570 -0.5775  1.2302
  692MOL0     O91236   8.203   1.638   3.289 -0.2755 -0.0237 -0.0344
  692MOL0     C91237   8.062   1.616   3.271 -0.6210  0.1091  0.5591
  692MOL0     C91238   8.009   1.546   3.160  0.0755 -0.4600  0.8401
  692MOL0     C91239   7.872   1.531   3.140  0.6632  0.3012  0.0244
  692MOL0     C91240   7.779   1.584   3.244  0.3450 -0.2115  0.5640
  692MOL0     C91241   7.632   1.572   3.230  0.1750 -0.2722  0.1461
  692MOL0     O91242   7.558   1.600   3.344  0.1672  0.3982 -0.0674
  692MOL0     C91243   7.428   1.557   3.338 -0.0602 -0.7482  0.1600
  692MOL0     C91244   7.390   1.424   3.368 -0.5592  0.4890  0.1559
  692MOL0     C91245   7.258   1.391   3.357 -0.2714 -0.1356 -0.4947
  692MOL0     C91246   7.155   1.488   3.343  0.1748  0.5871 -0.5827
  692MOL0     O91247   7.018   1.460   3.325 -0.4788  0.5384 -0.3907
  692MOL0     C91248   6.976   1.383   3.214  0.9102  0.3613  0.0669
  692MOL0     C91249   6.985   1.235   3.246  0.0863  0.1229 -0.0168
  692MOL0     C91250   6.859   1.164   3.216  0.3538  0.4991  0.4020
  692MOL0     C91251   6.847   1.024   3.285  0.0380 -0.1584  0.2904
  692MOL0     C91252   6.715   0.970   3.240 -0.8006  0.0830 -0.5721
  692MOL0     C91253   6.656   0.852   3.322 -0.2207 -0.2881  0.8138
  692MOL0     C91254   6.642   0.867   3.470  0.3870  0.2641 -0.1525
  692MOL0     C91255   6.546   0.975   3.507 -0.5984  0.4539 -0.6854
  692MOL0    Cl91256   6.381   0.948   3.440  0.0920 -0.1013  0.2155
  692MOL0     C91257   7.193   1.623   3.334  0.6346  0.2125  0.2188
  692MOL0     C91258   7.331   1.656   3.325  0.6686 -0.2383 -0.0343
  692MOL0     O91259   7.597   1.502   3.138  0.6976  0.3268  0.0398
  692MOL0     C91260   7.838   1.660   3.346  0.3365 -0.4920 -1.2868
  692MOL0     C91261   7.975   1.673   3.360 -0.3452  0.2444 -0.0900
  692MOL0     N91262   8.784   1.546   2.971 -0.0900 -1.1214 -0.1812
  692MOL0     N91263   8.893   1.494   2.927 -0.3628  0.0031  0.7286
  692MOL0     C91264   9.966   1.403   2.423  0.0267  0.6141  0.5949
  692MOL0     C91265  10.058   1.479   2.343 -0.0305 -0.2759  0.1971
  692MOL0     C91266  10.443   1.691   2.215  0.7464 -0.2807 -0.1370
  692MOL0     C91267  10.529   1.662   2.097 -0.3421 -0.3802 -0.1287
  692MOL0     C91268  10.638   1.752   2.059  0.9387 -1.0089 -0.7820
  692MOL0     C91269  10.680   1.852   2.152 -0.7112  0.1072  0.2595
  692MOL0     O91270  10.779   1.943   2.131  0.6042  0.1812  0.6413
  692MOL0     C91271  10.857   1.934   2.013  0.6950  0.3541  1.1603
  692MOL0     C91272  10.919   2.069   2.007  0.0204 -0.0140 -0.5182
  692MOL0     C91273  11.034   2.102   2.104 -0.2492 -0.0536  0.0674
  692MOL0     C91274  11.155   2.005   2.110 -0.0165  0.1390 -0.5469
  692MOL0     C91275  11.226   1.974   1.984  0.3149 -0.7302 -0.0599
  692MOL0     C91276  11.305   1.968   1.888  1.4027  0.2204 -0.6492
  692MOL0     C91277  10.616   1.859   2.281 -0.3703 -0.0190  0.1679
  692MOL0     C91278  10.498   1.782   2.304  0.9276 -0.9559 -0.7285
  692MOL0     H91279  10.170   1.673   2.595 -1.2027  0.5883 -0.7800
  692MOL0     H91280  10.026   1.531   2.728  1.3927 -1.5165  0.5375
  692MOL0     H91281   9.925   1.138   2.618  0.2958 -0.3170 -0.6199
  692MOL0     H91282   9.814   1.185   2.489  1.5576  0.5883 -0.1797
  692MOL0     H91283   9.789   1.161   2.794  0.3458 -1.6899  0.2124
  692MOL0     H91284   9.704   1.065   2.665 -0.5042  0.5283  2.8407
  692MOL0     H91285   9.584   1.262   2.607  1.1342 -4.1931 -1.4105
  692MOL0     H91286   9.658   1.357   2.736  5.0834 -2.3954 -0.6256
  692MOL0     H91287   9.472   1.112   2.773 -1.0813  0.1513  1.2041
  692MOL0     H91288   9.561   1.183   2.907  1.7083 -1.3170 -1.0389
  692MOL0     H91289   9.366   1.364   2.739 -0.3668  1.1597 -0.0021
  692MOL0     H91290   9.456   1.410   2.877  2.5504 -0.7107 -0.4146
  692MOL0     H91291   9.327   1.251   3.015 -0.9384 -0.7082 -1.2000
  692MOL0     H91292   9.250   1.184   2.870 -1.8150 -1.2342  1.1852
  692MOL0     H91293   9.222   1.476   2.956 -3.3475  1.3982 -1.4821
  692MOL0     H91294   9.137   1.402   2.824 -3.0384  2.2110  1.1691
  692MOL0     H91295   9.110   1.320   3.123  0.8793  0.3120  0.6075
  692MOL0     H91296   9.030   1.236   2.986 -0.7960  1.4003 -0.5952
  692MOL0     H91297   8.921   1.425   3.240  0.7938 -1.5958 -0.9783
  692MOL0     H91298   8.717   1.652   3.251 -0.1515 -0.7585  1.0913
  692MOL0     H91299   8.679   1.484   3.297 -1.8393  1.1513  0.8134
  692MOL0     H91300   8.512   1.454   3.128 -1.9310  0.2665  1.7143
  692MOL0     H91301   8.542   1.614   3.054  3.1740 -0.3564 -0.1561
  692MOL0     H91302   8.454   1.570   3.352  0.7244  1.0870  0.1898
  692MOL0     H91303   8.448   1.716   3.256  0.3964  0.4303 -1.3371
  692MOL0     H91304   8.303   1.470   3.199  0.6946 -0.6335 -2.1597
  692MOL0     H91305   8.297   1.607   3.096 -0.2187  0.9868  1.6559
  692MOL0     H91306   8.076   1.513   3.080 -0.4899  0.9903 -0.2920
  692MOL0     H91307   7.839   1.467   3.060  2.4132  0.8965 -1.2528
  692MOL0     H91308   7.468   1.353   3.393 -0.7887 -0.7278 -2.3014
  692MOL0     H91309   7.226   1.289   3.378 -2.1892  0.3576 -0.8430
  692MOL0     H91310   7.035   1.409   3.125 -0.6958 -2.2477 -1.8831
  692MOL0     H91311   6.873   1.414   3.193  0.3480 -0.6256  1.2404
  692MOL0     H91312   7.002   1.215   3.352  0.9250  0.2407 -0.1209
  692MOL0     H91313   7.060   1.195   3.177 -0.7757  1.3467 -1.7377
  692MOL0     H91314   6.844   1.157   3.107  0.7121 -2.5524  0.4708
  692MOL0     H91315   6.780   1.225   3.260 -2.4181 -3.0990  0.8619
  692MOL0     H91316   6.930   0.964   3.248  1.4249  2.5627 -1.3326
  692MOL0     H91317   6.849   1.031   3.394 -2.5130  1.5099  0.3053
  692MOL0     H91318   6.724   0.935   3.137  3.3879 -0.2205 -0.2778
  692MOL0     H91319   6.632   1.039   3.249 -2.8677 -2.4279  1.2936
  692MOL0     H91320   6.719   0.763   3.319  1.2267  0.6739  1.4316
  692MOL0     H91321   6.562   0.827   3.272 -0.3980  3.1845 -0.9317
  692MOL0     H91322   6.595   0.780   3.517 -2.5621  0.5716 -2.2420
  692MOL0     H91323   6.740   0.888   3.513 -0.0745 -0.3985  1.2904
  692MOL0     H91324   6.592   1.069   3.477 -1.1557  0.0927 -2.7962
  692MOL0     H91325   6.530   0.966   3.615  1.0031 -1.8204 -0.5689
  692MOL0     H91326   7.115   1.698   3.329 -1.5627 -1.6362  3.5626
  692MOL0     H91327   7.371   1.756   3.317  1.9128 -0.6297  0.8896
  692MOL0     H91328   7.782   1.712   3.423  1.2854 -2.4533  0.8329
  692MOL0     H91329   8.010   1.714   3.455  0.3425  0.0270 -0.2452
  692MOL0     H91330   9.913   1.322   2.374 -0.1661 -0.5775  2.6494
  692MOL0     H91331  10.065   1.443   2.241 -0.1300 -1.2736  0.5339
  692MOL0     H91332  10.506   1.571   2.042 -0.0732 -0.3835 -0.2397
  692MOL0     H91333  10.685   1.735   1.963  1.3420  3.2101 -1.5366
  692MOL0     H91334  10.791   1.929   1.926 -1.2702  1.0996  2.5303
  692MOL0     H91335  10.938   1.861   2.004  2.2315  2.1821 -1.4325
  692MOL0     H91336  10.943   2.072   1.900  1.1697 -1.1584 -0.3090
  692MOL0     H91337  10.846   2.146   2.033 -1.2843 -1.9400  1.9310
  692MOL0     H91338  10.986   2.110   2.202 -2.2790 -0.1372 -0.8659
  692MOL0     H91339  11.066   2.205   2.092 -2.1307  0.9307  2.5585
  692MOL0     H91340  11.227   2.055   2.175 -0.1306  0.5254 -0.7125
  692MOL0     H91341  11.125   1.911   2.157  1.1761 -0.7019 -1.4232
  692MOL0     H91342  11.383   1.962   1.815 -0.5825 -1.1561 -2.8158
  692MOL0     H91343  10.663   1.925   2.354 -1.5128 -2.8228  3.7396
  692MOL0     H91344  10.442   1.795   2.396 -3.1800 -1.8821 -2.8655
  693MOL0     O91345   0.457   6.357   9.961 -0.6548 -0.1042  0.1235
  693MOL0     C91346   0.457   6.254   9.886 -0.3283  0.0627 -0.1549
  693MOL0     O91347   0.349   6.196   9.824  0.8608  0.7535  0.6382
  693MOL0     C91348   0.226   6.251   9.837 -0.0840 -0.4642  0.3693
  693MOL0     C91349   0.124   6.177   9.881 -0.2276  0.2609 -0.3719
  693MOL0     C91350  -0.001   6.241   9.906  0.2804  0.4743 -0.0888
  693MOL0     C91351  -0.023   6.373   9.863  0.1051 -0.6380  0.8870
  693MOL0     O91352  -0.155   6.418   9.883  0.0539  0.1194  0.0694
  693MOL0     C91353  -0.174   6.568   9.864  0.3929 -0.1003 -0.3472
  693MOL0     C91354  -0.322   6.596   9.860  0.3719 -0.3578 -0.7943
  693MOL0     C91355  -0.338   6.749   9.898  0.3664 -0.6040  0.5356
  693MOL0     C91356  -0.463   6.801   9.845  1.2128 -0.0137 -0.1270
  693MOL0     C91357  -0.502   6.936   9.906  0.1282 -0.2659  0.0922
  693MOL0     C91358  -0.377   7.030   9.907  0.5372 -0.2705 -0.0050
  693MOL0     C91359  -0.418   7.176   9.914  0.1373 -0.0872  0.4849
  693MOL0     C91360  -0.464   7.223  10.048 -0.5592 -0.0277 -0.8723
  693MOL0     N91361  -0.361   7.291  10.125  0.0284  0.4010 -0.2963
  693MOL0     C91362  -0.350   7.429  10.134  0.1719 -0.4448  0.1800
  693MOL0     C91363  -0.243   7.458  10.213 -0.5283 -0.0303 -0.6800
  693MOL0     C91364  -0.182   7.591  10.243 -0.1708 -0.7302  0.4124
  693MOL0     C91365  -0.206   7.640  10.385 -0.6986  0.7153 -0.0533
  693MOL0     C91366  -0.135   7.773  10.408  0.1377 -0.5549 -0.2608
  693MOL0     C91367  -0.161   7.828  10.548  0.3815  0.1519  1.1447
  693MOL0     O91368  -0.303   7.856  10.569 -0.0191 -0.2943  0.9945
  693MOL0     C91369  -0.351   7.968  10.502  0.7773  0.4999 -0.1080
  693MOL0     C91370  -0.281   8.076  10.454  0.0764 -0.4034 -0.2282
  693MOL0     C91371  -0.343   8.198  10.407  0.0431  0.0191  0.4653
  693MOL0     C91372  -0.481   8.200  10.396 -0.2427 -0.3014  0.0217
  693MOL0     C91373  -0.557   8.315  10.335  0.0850  0.3982  0.1994
  693MOL0     O91374  -0.691   8.301  10.324  0.0899  0.3935  0.1058
  693MOL0     C91375  -0.785   8.404  10.316 -0.0063  0.8264 -0.0675
  693MOL0     C91376  -0.901   8.381  10.243  1.1633  0.2724 -0.1375
  693MOL0     C91377  -0.991   8.484  10.243 -0.1378  0.2847  0.3705
  693MOL0     C91378  -0.973   8.604  10.313 -0.0136 -1.1902 -0.4895
  693MOL0     O91379  -1.077   8.699  10.326  0.9538  0.2847 -0.0917
  693MOL0     C91380  -1.144   8.733  10.205 -1.2082 -0.0828  0.2926
  693MOL0     C91381  -1.290   8.749  10.250 -0.1213  0.2991  0.3384
  693MOL0     C91382  -1.382   8.812  10.139 -0.3871  0.0178 -0.6773
  693MOL0     C91383  -1.526   8.818  10.199  0.6159  0.2316  0.7201
  693MOL0     C91384  -1.615   8.902  10.113 -0.8792  0.2930  0.3540
  693MOL0     C91385  -1.761   8.880  10.155  0.0106  0.5284 -0.2123
  693MOL0     C91386  -1.856   8.966  10.066 -0.6270  0.1075 -0.1462
  693MOL0     C91387  -2.007   8.953  10.081 -0.6867  0.2169  0.3110
  693MOL0    Cl91388  -2.097   8.976   9.923  0.2429  0.1249  0.2848
  693MOL0     C91389  -0.856   8.628  10.385  0.2571 -0.1751  1.7855
  693MOL0     C91390  -0.763   8.528  10.390  0.0421  0.2931  0.6512
  693MOL0     O91391  -0.498   8.421  10.306 -0.2557  0.7066 -0.5537
  693MOL0     C91392  -0.552   8.085  10.442  0.1285 -0.4008 -0.7838
  693MOL0     C91393  -0.493   7.972  10.497 -0.2525  0.2291  0.2944
  693MOL0     N91394  -0.191   7.341  10.259  0.5547 -0.2697 -0.0455
  693MOL0     N91395  -0.268   7.242  10.212 -0.5313 -0.2045 -0.3098
  693MOL0     C91396   0.085   6.440   9.798 -0.1524 -0.0680 -0.6349
  693MOL0     C91397   0.210   6.382   9.790  0.6620  0.1216 -0.1625
  693MOL0     C91398   0.586   6.190   9.865  0.0946 -0.1450  0.3774
  693MOL0     C91399   0.600   6.079   9.772  0.5415 -0.0922  0.6393
  693MOL0     C91400   0.726   6.023   9.753  0.7775 -0.0263  0.4207
  693MOL0     C91401   0.834   6.064   9.821 -0.7572 -0.4910  0.2048
  693MOL0     O91402   0.953   6.001   9.789  0.4951  0.5631  0.7674
  693MOL0     C91403   1.058   6.091   9.752  0.5030  0.3761  0.3280
  693MOL0     C91404   1.171   6.005   9.719 -0.2213  0.8809 -0.5639
  693MOL0     C91405   1.160   5.914   9.593  0.3246 -0.0863  0.6209
  693MOL0     C91406   1.125   5.978   9.456  0.0565 -0.5622 -0.0805
  693MOL0     C91407   1.214   6.092   9.425  0.1717  0.6376  0.3402
  693MOL0     C91408   1.291   6.185   9.401  0.1569  0.7521  0.4930
  693MOL0     C91409   0.823   6.172   9.905  0.3374 -0.3544 -0.8427
  693MOL0     C91410   0.704   6.230   9.932  0.7444  0.4402  0.6253
  693MOL0     H91411   0.139   6.073   9.908 -1.0576  0.4676  1.0181
  693MOL0     H91412  -0.083   6.177   9.934  0.2064  1.4132  2.0371
  693MOL0     H91413  -0.129   6.610   9.774  1.7543  1.6885  1.0853
  693MOL0     H91414  -0.124   6.628   9.940  0.4715 -1.2941  0.5675
  693MOL0     H91415  -0.369   6.533   9.935 -2.0375  0.1484 -1.7944
  693MOL0     H91416  -0.359   6.582   9.758  1.0029  0.6710 -1.1818
  693MOL0     H91417  -0.251   6.803   9.859  0.8463 -0.7339  1.4026
  693MOL0     H91418  -0.353   6.763  10.005 -1.5359  1.2878  0.0882
  693MOL0     H91419  -0.462   6.815   9.737 -1.2266  1.4692 -0.0310
  693MOL0     H91420  -0.542   6.728   9.868 -2.7159  3.9271  0.3257
  693MOL0     H91421  -0.527   6.919  10.012  0.7257 -0.7438  0.1598
  693MOL0     H91422  -0.579   6.989   9.848  1.8780  3.3114  0.7520
  693MOL0     H91423  -0.331   7.023   9.808 -0.1684  0.9294 -0.4358
  693MOL0     H91424  -0.318   7.003   9.995  0.7780 -2.8192 -0.8600
  693MOL0     H91425  -0.336   7.238   9.875  1.3935  0.1706  3.3133
  693MOL0     H91426  -0.504   7.198   9.850  0.5528 -0.3275 -0.1639
  693MOL0     H91427  -0.497   7.137  10.108  0.2541  1.0196  1.1529
  693MOL0     H91428  -0.553   7.284  10.034 -1.3350 -0.8119  0.4116
  693MOL0     H91429  -0.414   7.505  10.089  0.7238  2.3315  3.5953
  693MOL0     H91430  -0.242   7.654  10.177 -2.6383 -2.8873  0.4363
  693MOL0     H91431  -0.075   7.593  10.221 -0.1827 -1.5585  0.2551
  693MOL0     H91432  -0.167   7.568  10.458 -1.2076 -1.0802 -1.4545
  693MOL0     H91433  -0.314   7.647  10.402 -0.8210  0.1390 -0.5617
  693MOL0     H91434  -0.028   7.753  10.402  0.2218 -1.3958  2.5140
  693MOL0     H91435  -0.170   7.839  10.328  0.7293  0.3063  0.1779
  693MOL0     H91436  -0.090   7.910  10.561  0.8515 -0.2903  1.4200
  693MOL0     H91437  -0.125   7.760  10.626  4.2120 -0.0022 -0.5213
  693MOL0     H91438  -0.177   8.093  10.478  0.5050  0.0256 -2.2637
  693MOL0     H91439  -0.280   8.286  10.395  1.3687 -0.5202  2.7780
  693MOL0     H91440  -0.922   8.286  10.195  0.2048 -1.1089  2.7601
  693MOL0     H91441  -1.087   8.457  10.200 -0.3842 -0.1091  1.1545
  693MOL0     H91442  -1.130   8.661  10.124  1.1156  0.5691  0.0455
  693MOL0     H91443  -1.099   8.825  10.166 -0.7627 -0.3240  0.2327
  693MOL0     H91444  -1.286   8.815  10.336 -0.1665 -0.0670  0.6242
  693MOL0     H91445  -1.331   8.654  10.285 -1.4071  0.9175  0.5517
  693MOL0     H91446  -1.378   8.752  10.048 -0.1241 -0.7205 -0.1868
  693MOL0     H91447  -1.348   8.913  10.114 -0.0190 -0.2759 -1.3798
  693MOL0     H91448  -1.568   8.718  10.212 -1.4809  0.7863 -1.1572
  693MOL0     H91449  -1.523   8.857  10.301  2.2859 -1.4986  1.4018
  693MOL0     H91450  -1.598   8.884  10.007  0.7058  0.7321  0.5116
  693MOL0     H91451  -1.580   9.004  10.132  3.0107 -0.6339 -1.0537
  693MOL0     H91452  -1.772   8.913  10.259  2.5875  0.7148  0.0573
  693MOL0     H91453  -1.786   8.773  10.154 -0.3139  0.5806  0.9180
  693MOL0     H91454  -1.843   9.073  10.082 -1.0969  0.0241  0.8782
  693MOL0     H91455  -1.824   8.938   9.965 -1.7493 -0.0251 -0.4794
  693MOL0     H91456  -2.043   9.032  10.146  0.6332  1.7596 -0.7352
  693MOL0     H91457  -2.037   8.862  10.134  1.2309 -0.3693  0.4949
  693MOL0     H91458  -0.847   8.717  10.447 -4.1832  0.5158  1.7671
  693MOL0     H91459  -0.672   8.538  10.448 -0.0406 -1.9604  1.2641
  693MOL0     H91460  -0.660   8.095  10.446  0.0299 -0.0690 -2.8032
  693MOL0     H91461  -0.560   7.896  10.535  1.8528 -0.7214  2.3450
  693MOL0     H91462   0.071   6.535   9.747 -0.1105 -0.3378 -1.1490
  693MOL0     H91463   0.297   6.425   9.740  0.0410  0.5228 -0.9399
  693MOL0     H91464   0.521   6.034   9.712  1.7710 -1.5515  0.0559
  693MOL0     H91465   0.723   5.944   9.679  5.3860 -0.1350  0.1000
  693MOL0     H91466   1.085   6.154   9.837  0.4099  0.7331  0.0943
  693MOL0     H91467   1.027   6.161   9.674 -4.3397 -1.5013  0.1741
  693MOL0     H91468   1.254   6.074   9.701  0.9729 -0.3159  0.1590
  693MOL0     H91469   1.197   5.938   9.802  1.7577 -0.5427 -2.2133
  693MOL0     H91470   1.082   5.842   9.623 -0.7108  0.8820  0.3370
  693MOL0     H91471   1.252   5.856   9.586  0.8136  0.7328  0.1355
  693MOL0     H91472   1.142   5.897   9.384  0.7061 -0.3650 -0.1566
  693MOL0     H91473   1.025   6.015   9.478  1.3694  2.7742  0.7857
  693MOL0     H91474   1.356   6.266   9.374  1.7127  0.5507  3.2309
  693MOL0     H91475   0.900   6.220   9.964  0.0330 -1.7365  0.7428
  693MOL0     H91476   0.704   6.309  10.006  0.4601  0.9323  0.1034
  694MOL0     O91477   1.650   8.381   2.671 -0.0591 -0.1334  0.2808
  694MOL0     C91478   1.643   8.262   2.667 -0.2256  0.1147 -0.2223
  694MOL0     O91479   1.532   8.189   2.699  0.2636  0.2013  0.3783
  694MOL0     C91480   1.417   8.249   2.743 -0.4024 -0.0007  0.5802
  694MOL0     C91481   1.295   8.247   2.675  0.2025  0.0714  0.1269
  694MOL0     C91482   1.180   8.306   2.733 -0.1094 -0.3349 -0.2507
  694MOL0     C91483   1.183   8.369   2.858 -1.0835 -0.0079 -0.4519
  694MOL0     O91484   1.082   8.416   2.929 -0.8860 -0.5046 -0.3980
  694MOL0     C91485   0.960   8.435   2.858  0.1292  0.1585  0.0198
  694MOL0     C91486   0.859   8.497   2.952  0.1592  0.6061  0.4829
  694MOL0     C91487   0.840   8.410   3.081  0.7075 -0.0757  0.4798
  694MOL0     C91488   0.740   8.479   3.174 -0.1715 -0.0543  0.5814
  694MOL0     C91489   0.740   8.405   3.309  0.1554  0.3825  0.4995
  694MOL0     C91490   0.612   8.473   3.375  0.5756  0.2175 -0.0293
  694MOL0     C91491   0.580   8.417   3.518  0.3530 -0.1873  0.2099
  694MOL0     C91492   0.538   8.528   3.612 -0.1726 -0.5564  0.1258
  694MOL0     N91493   0.409   8.575   3.570  1.1291  0.6944 -0.2506
  694MOL0     C91494   0.379   8.702   3.530  0.1629  0.4536 -0.1993
  694MOL0     C91495   0.249   8.729   3.551 -0.1997  0.0661 -0.4554
  694MOL0     C91496   0.197   8.869   3.522  0.0466 -0.4808  0.9467
  694MOL0     C91497   0.262   8.969   3.616 -0.2673  0.3399 -0.4890
  694MOL0     C91498   0.210   8.953   3.762 -0.5931  0.2688 -0.0007
  694MOL0     C91499   0.058   8.919   3.778 -0.7240 -0.0095  0.3765
  694MOL0     O91500   0.023   8.953   3.914 -0.1720  0.2187  1.0013
  694MOL0     C91501  -0.109   8.949   3.952 -0.4374  1.0122  0.6428
  694MOL0     C91502  -0.128   8.968   4.094 -1.0043 -0.0909  1.1717
  694MOL0     C91503  -0.262   8.983   4.136 -0.5716  0.2963  0.4636
  694MOL0     C91504  -0.371   8.953   4.055  0.1948 -0.5214  0.3594
  694MOL0     C91505  -0.510   8.948   4.101 -0.3437 -0.0416  0.5633
  694MOL0     O91506  -0.530   8.964   4.231  0.0891 -0.9870  0.0117
  694MOL0     C91507  -0.660   8.977   4.278 -0.3291  0.1332 -0.2480
  694MOL0     C91508  -0.761   9.064   4.228  0.4165  0.1502 -0.4690
  694MOL0     C91509  -0.888   9.061   4.285 -0.4901  0.4855  0.0541
  694MOL0     C91510  -0.918   8.978   4.396  0.4077 -0.1923  0.4774
  694MOL0     O91511  -1.047   8.963   4.444  0.2821  0.1949 -0.5620
  694MOL0     C91512  -1.111   9.086   4.480  0.2878 -1.2440  0.5537
  694MOL0     C91513  -1.257   9.062   4.540  0.7618  0.9884  0.4348
  694MOL0     C91514  -1.313   9.183   4.604 -0.1678 -0.3223 -0.5490
  694MOL0     C91515  -1.463   9.167   4.645  0.4376  0.4276 -0.5173
  694MOL0     C91516  -1.504   9.290   4.721  0.2881  1.0591 -0.1677
  694MOL0     C91517  -1.643   9.272   4.798 -0.7655 -0.2128 -0.4444
  694MOL0     C91518  -1.702   9.399   4.854 -0.4357  0.6092  0.7807
  694MOL0     C91519  -1.790   9.479   4.754 -0.2987 -0.2940 -0.0617
  694MOL0    Cl91520  -1.950   9.392   4.717  0.1518  0.4963 -0.0591
  694MOL0     C91521  -0.814   8.914   4.458 -0.5121 -0.1589 -0.5201
  694MOL0     C91522  -0.685   8.917   4.399 -0.1615  0.2323 -0.7787
  694MOL0     O91523  -0.599   8.936   4.018  0.4338  0.3663  0.0342
  694MOL0     C91524  -0.346   8.916   3.915 -0.5992 -0.5430 -0.3384
  694MOL0     C91525  -0.213   8.915   3.864  0.2423 -0.5788  0.1447
  694MOL0     N91526   0.191   8.622   3.613 -0.4851  0.6306 -0.4772
  694MOL0     N91527   0.286   8.531   3.620 -0.6859 -0.4462 -0.3092
  694MOL0     C91528   1.305   8.370   2.923 -0.8342 -0.0405  0.0127
  694MOL0     C91529   1.422   8.310   2.869 -0.0012  0.5231  0.3290
  694MOL0     C91530   1.763   8.189   2.634  0.1714 -0.7313  0.5717
  694MOL0     C91531   1.885   8.254   2.630 -0.0318  0.6676  0.1415
  694MOL0     C91532   2.005   8.186   2.604  0.5439 -0.6015 -0.2543
  694MOL0     C91533   2.013   8.051   2.569 -0.4189  0.3037 -0.2122
  694MOL0     O91534   2.124   7.975   2.523 -0.1570 -0.7315 -0.2033
  694MOL0     C91535   2.249   8.034   2.558  0.3295 -1.0336  0.8173
  694MOL0     C91536   2.353   7.942   2.519 -0.2339 -0.4136 -0.3377
  694MOL0     C91537   2.489   8.021   2.505 -0.6631  0.9693 -0.2719
  694MOL0     C91538   2.540   8.093   2.630  0.6485  1.3504  0.9260
  694MOL0     C91539   2.662   8.166   2.591  0.1299 -0.6397  0.1775
  694MOL0     C91540   2.746   8.248   2.549  0.2015  0.4877 -0.4788
  694MOL0     C91541   1.894   7.979   2.575  0.9130 -0.3912 -0.5569
  694MOL0     C91542   1.777   8.049   2.606 -0.3491 -0.3377 -0.3654
  694MOL0     H91543   1.298   8.210   2.573  0.0426 -0.6706  0.3877
  694MOL0     H91544   1.085   8.300   2.681  0.5905 -1.0819 -1.4888
  694MOL0     H91545   0.925   8.338   2.821  1.2859 -0.4524  0.4646
  694MOL0     H91546   0.982   8.506   2.777  2.2351 -0.9391 -0.4432
  694MOL0     H91547   0.764   8.497   2.898  0.9629 -0.2012 -0.9954
  694MOL0     H91548   0.897   8.597   2.975  2.3767 -0.2894  0.9477
  694MOL0     H91549   0.938   8.408   3.130  1.9264  0.4532 -1.7668
  694MOL0     H91550   0.805   8.311   3.051  0.5857 -0.0232  0.4480
  694MOL0     H91551   0.762   8.585   3.190  0.1562 -0.4414  3.1474
  694MOL0     H91552   0.639   8.476   3.132 -0.4474 -3.7721  1.1864
  694MOL0     H91553   0.834   8.410   3.364  0.4839  2.3063 -0.1644
  694MOL0     H91554   0.711   8.302   3.285 -0.9924  1.1686 -1.8023
  694MOL0     H91555   0.527   8.456   3.309  0.3949  2.2109 -0.3668
  694MOL0     H91556   0.632   8.580   3.380  0.6769  0.3007 -1.8257
  694MOL0     H91557   0.510   8.332   3.520  2.8247 -2.3313  1.0564
  694MOL0     H91558   0.670   8.368   3.556  0.0853 -1.5541 -0.8192
  694MOL0     H91559   0.610   8.610   3.611  0.6077 -1.1618 -2.8321
  694MOL0     H91560   0.519   8.493   3.714 -3.4281 -2.6678 -1.0238
  694MOL0     H91561   0.462   8.768   3.505  0.3748  0.0938 -0.4432
  694MOL0     H91562   0.088   8.876   3.527 -0.1683 -3.0887  1.5950
  694MOL0     H91563   0.213   8.900   3.418  1.7881 -4.0452 -0.0306
  694MOL0     H91564   0.234   9.072   3.590  2.6933  2.1133  2.5700
  694MOL0     H91565   0.370   8.954   3.607 -0.3736  1.0414 -4.6963
  694MOL0     H91566   0.253   8.865   3.810 -1.7166  0.2119  0.9722
  694MOL0     H91567   0.241   9.046   3.812 -0.2105  2.2290 -3.5665
  694MOL0     H91568   0.045   8.811   3.767 -0.9336  0.0691 -0.2001
  694MOL0     H91569  -0.010   8.966   3.707 -1.6259 -3.3936 -1.2276
  694MOL0     H91570  -0.041   8.992   4.156  0.4860 -1.8460 -0.1260
  694MOL0     H91571  -0.276   9.003   4.242  1.1594 -2.4284  1.2964
  694MOL0     H91572  -0.754   9.112   4.131  3.4710 -2.5345 -1.7608
  694MOL0     H91573  -0.965   9.118   4.233 -0.2373  1.3644  0.6119
  694MOL0     H91574  -1.106   9.157   4.398 -1.0275 -0.7259  0.8944
  694MOL0     H91575  -1.054   9.125   4.565 -2.3298 -0.4241  2.0385
  694MOL0     H91576  -1.244   8.979   4.610  0.0261  1.4897  1.1753
  694MOL0     H91577  -1.315   9.022   4.456 -1.2042  1.8707  1.2939
  694MOL0     H91578  -1.294   9.261   4.529  1.5906  0.3950  0.5865
  694MOL0     H91579  -1.244   9.204   4.687 -0.2283  2.6144 -1.1169
  694MOL0     H91580  -1.531   9.146   4.562 -1.6769  2.6275  0.5154
  694MOL0     H91581  -1.473   9.086   4.719 -1.4106  0.7581 -0.3531
  694MOL0     H91582  -1.509   9.374   4.652  0.5393  0.8451 -0.4462
  694MOL0     H91583  -1.433   9.304   4.803  3.4764  0.3023 -2.6282
  694MOL0     H91584  -1.631   9.190   4.870  1.5067  0.9477  0.6057
  694MOL0     H91585  -1.708   9.232   4.720  0.5174 -0.8172 -1.2527
  694MOL0     H91586  -1.759   9.363   4.940  0.2732 -0.8769  0.6714
  694MOL0     H91587  -1.624   9.470   4.884 -0.7861  2.6147 -2.6170
  694MOL0     H91588  -1.731   9.511   4.668 -0.6458  1.9499  0.4775
  694MOL0     H91589  -1.817   9.569   4.809 -0.0324 -0.0683 -0.2963
  694MOL0     H91590  -0.823   8.877   4.560  2.2246 -0.2295 -0.2148
  694MOL0     H91591  -0.600   8.885   4.459  1.0244  0.3070 -2.3368
  694MOL0     H91592  -0.421   8.900   3.838  0.2381  1.4836 -1.6541
  694MOL0     H91593  -0.213   8.885   3.760 -0.9244 -2.2094  0.5805
  694MOL0     H91594   1.298   8.399   3.027  0.0334 -2.8247  0.9408
  694MOL0     H91595   1.521   8.297   2.911  0.2331 -0.6704 -0.5484
  694MOL0     H91596   1.893   8.360   2.651 -1.8813  0.7995  0.3503
  694MOL0     H91597   2.092   8.251   2.606 -2.0169  3.1925 -1.1197
  694MOL0     H91598   2.260   8.049   2.666  3.6766 -1.1412  0.5654
  694MOL0     H91599   2.254   8.125   2.498 -3.4531 -0.6973  0.7297
  694MOL0     H91600   2.370   7.861   2.590 -0.6185 -2.5569 -2.5473
  694MOL0     H91601   2.340   7.897   2.420 -1.1727 -3.2541  0.9896
  694MOL0     H91602   2.478   8.084   2.416 -1.6168  0.0449 -0.8256
  694MOL0     H91603   2.569   7.949   2.487  0.0160  1.4520  0.6973
  694MOL0     H91604   2.463   8.165   2.659  0.3498  0.3140  2.8696
  694MOL0     H91605   2.560   8.018   2.707 -2.9632 -3.3262 -2.0615
  694MOL0     H91606   2.817   8.320   2.516 -0.2095  1.0506 -0.1604
  694MOL0     H91607   1.892   7.875   2.543  2.3297  0.4550 -3.9584
  694MOL0     H91608   1.683   7.995   2.598 -2.0880  2.3038  0.6114
  695MOL0     O91609   7.199   5.330   8.712  0.1122 -0.9727 -0.0810
  695MOL0     C91610   7.241   5.442   8.751  0.5959  1.0431 -1.7387
  695MOL0     O91611   7.159   5.536   8.817  0.2820 -0.4962  0.8652
  695MOL0     C91612   7.025   5.524   8.862  0.6087  0.3074  0.9808
  695MOL0     C91613   6.944   5.411   8.847  0.2623  0.0096 -0.6741
  695MOL0     C91614   6.812   5.415   8.896 -0.1924  0.3161  0.2201
  695MOL0     C91615   6.757   5.523   8.969  0.3564  0.5091  0.3638
  695MOL0     O91616   6.647   5.525   9.043  0.9145  0.0333 -0.5152
  695MOL0     C91617   6.536   5.445   9.010  0.9067 -0.2876  0.5801
  695MOL0     C91618   6.410   5.502   9.086  0.1461 -0.2638  0.3105
  695MOL0     C91619   6.439   5.535   9.233 -0.1613 -0.3609 -0.2000
  695MOL0     C91620   6.304   5.512   9.307 -0.1882 -0.6294 -0.0826
  695MOL0     C91621   6.309   5.549   9.457 -0.6680  0.0940 -0.2229
  695MOL0     C91622   6.423   5.479   9.532 -0.5037 -0.4305  0.0936
  695MOL0     C91623   6.432   5.532   9.684 -0.2293 -0.5775 -0.5918
  695MOL0     C91624   6.301   5.555   9.749  0.1778  0.1711  0.6037
  695MOL0     N91625   6.322   5.573   9.893  0.7146  0.1893 -0.2966
  695MOL0     C91626   6.268   5.488   9.988  0.0742  0.5653 -0.1563
  695MOL0     C91627   6.301   5.539  10.105  0.4877 -0.6798 -0.6178
  695MOL0     C91628   6.258   5.496  10.248 -0.3297  0.0902 -0.6993
  695MOL0     C91629   6.163   5.371  10.261  0.3692 -1.0596 -0.1138
  695MOL0     C91630   6.227   5.235  10.225 -0.3498 -0.1398  0.2743
  695MOL0     C91631   6.138   5.124  10.278  0.4119  0.5281 -0.2451
  695MOL0     O91632   6.194   4.994  10.246 -0.2464 -0.4866  0.8755
  695MOL0     C91633   6.122   4.889  10.294  0.1082 -0.1638 -0.0169
  695MOL0     C91634   6.179   4.768  10.290  0.2877 -0.5845  0.0374
  695MOL0     C91635   6.110   4.650  10.325 -0.6123  0.3288 -0.0562
  695MOL0     C91636   5.979   4.653  10.371 -0.1588  0.2550 -0.5837
  695MOL0     C91637   5.923   4.529  10.424  1.4147  0.2994  0.6398
  695MOL0     O91638   5.807   4.539  10.501  0.4964 -0.4016 -0.6029
  695MOL0     C91639   5.739   4.425  10.528 -0.2437 -0.1932 -0.3849
  695MOL0     C91640   5.641   4.383  10.433  0.7265  0.9590 -0.0934
  695MOL0     C91641   5.570   4.264  10.464 -0.0152 -1.1062  0.6647
  695MOL0     C91642   5.601   4.188  10.576  0.0217 -0.2182 -0.7935
  695MOL0     O91643   5.526   4.093  10.630  0.2317 -0.5024 -0.6649
  695MOL0     C91644   5.404   4.073  10.570  0.9882  0.0039 -0.5020
  695MOL0     C91645   5.333   3.951  10.643 -0.7205 -0.0286  0.8619
  695MOL0     C91646   5.205   3.906  10.563 -0.0287 -0.1547  0.3291
  695MOL0     C91647   5.150   3.771  10.611 -0.3114 -0.1993  0.2498
  695MOL0     C91648   5.076   3.701  10.502  0.3581  0.2688 -0.1418
  695MOL0     C91649   4.993   3.580  10.558  0.3422 -0.2347  0.2683
  695MOL0     C91650   4.904   3.526  10.450 -1.1476  0.0566  0.3349
  695MOL0     C91651   4.794   3.425  10.494 -0.4734 -0.4801 -0.0469
  695MOL0    Cl91652   4.860   3.316  10.601  0.1571 -0.5819  0.0492
  695MOL0     C91653   5.706   4.227  10.657  0.8608  0.5837 -0.0358
  695MOL0     C91654   5.775   4.344  10.627  0.3295  0.7122 -1.1509
  695MOL0     O91655   5.984   4.423  10.389  0.4206  0.4699 -0.2863
  695MOL0     C91656   5.917   4.780  10.372  0.2376  0.4917  0.2136
  695MOL0     C91657   5.988   4.893  10.338  0.1941 -1.0823  0.5004
  695MOL0     N91658   6.357   5.661  10.082 -0.6559 -0.1208 -0.6163
  695MOL0     N91659   6.369   5.679   9.955 -0.2079 -0.3220 -0.7063
  695MOL0     C91660   6.842   5.634   8.982 -0.4863 -0.4716  0.4406
  695MOL0     C91661   6.975   5.638   8.928 -0.2307  0.2478 -0.3776
  695MOL0     C91662   7.382   5.467   8.720  0.2630  0.3068 -0.9515
  695MOL0     C91663   7.463   5.385   8.643 -0.0811  0.2602  0.7147
  695MOL0     C91664   7.597   5.425   8.607  0.0914 -1.1525 -0.5905
  695MOL0     C91665   7.650   5.548   8.653 -0.1759 -0.6705  0.0678
  695MOL0     O91666   7.769   5.594   8.607 -0.5581 -0.4204  0.4435
  695MOL0     C91667   7.776   5.723   8.543 -0.6209 -1.2372  0.1417
  695MOL0     C91668   7.751   5.698   8.395  0.3525 -0.4171  0.6358
  695MOL0     C91669   7.734   5.817   8.315 -0.9464  0.1192 -0.9341
  695MOL0     C91670   7.857   5.904   8.303 -0.0097  0.0782 -0.7331
  695MOL0     C91671   7.812   6.035   8.265 -0.4343  0.2481 -0.1203
  695MOL0     C91672   7.763   6.134   8.218 -0.6774 -0.3574 -0.5463
  695MOL0     C91673   7.578   5.624   8.738  0.6046 -0.5029 -0.4929
  695MOL0     C91674   7.446   5.582   8.775  0.4226 -0.0775 -0.1385
  695MOL0     H91675   6.982   5.323   8.797  1.5496 -0.3493  0.8410
  695MOL0     H91676   6.750   5.327   8.884  0.7992 -0.6542  1.9262
  695MOL0     H91677   6.544   5.343   9.048 -3.1634  0.1467  3.1617
  695MOL0     H91678   6.510   5.454   8.904 -1.3876 -0.8684  1.0430
  695MOL0     H91679   6.336   5.422   9.076  1.5472 -1.3339 -2.8992
  695MOL0     H91680   6.374   5.591   9.035 -2.8792 -0.3261  2.0871
  695MOL0     H91681   6.477   5.635   9.256 -0.5399  0.3698 -2.5205
  695MOL0     H91682   6.519   5.466   9.263 -0.2052 -0.3349 -0.0204
  695MOL0     H91683   6.222   5.565   9.256  0.6856  0.4850 -0.3870
  695MOL0     H91684   6.280   5.405   9.301  1.7595 -1.0586 -0.7330
  695MOL0     H91685   6.215   5.519   9.504 -1.1291 -0.5370 -1.4808
  695MOL0     H91686   6.325   5.657   9.463  3.6879 -0.3771 -0.1191
  695MOL0     H91687   6.521   5.480   9.485 -0.6424 -2.4674 -0.3070
  695MOL0     H91688   6.406   5.371   9.537 -0.4005 -0.4709 -0.3734
  695MOL0     H91689   6.481   5.450   9.737 -0.2396  0.9282  1.9267
  695MOL0     H91690   6.498   5.619   9.690 -1.9451  0.8867 -2.0103
  695MOL0     H91691   6.233   5.478   9.712 -0.6795  1.1435  0.0870
  695MOL0     H91692   6.268   5.657   9.726  3.6189  1.5378  1.1069
  695MOL0     H91693   6.213   5.395   9.976 -2.4765  2.2343 -2.7450
  695MOL0     H91694   6.204   5.584  10.284 -0.0421  0.7753 -1.8815
  695MOL0     H91695   6.345   5.492  10.314  1.0306  0.0363 -2.4361
  695MOL0     H91696   6.076   5.394  10.199 -0.6656  0.1324  1.6577
  695MOL0     H91697   6.114   5.375  10.359 -3.0516 -0.8691 -1.6683
  695MOL0     H91698   6.234   5.211  10.118  3.4508 -1.8363  0.7441
  695MOL0     H91699   6.327   5.219  10.267  0.6124  0.6613 -1.5873
  695MOL0     H91700   6.049   5.142  10.217  0.7711 -2.0190 -1.6332
  695MOL0     H91701   6.125   5.129  10.387 -0.5466 -3.9424  0.0416
  695MOL0     H91702   6.276   4.754  10.245  0.6504  3.2021 -0.7140
  695MOL0     H91703   6.161   4.558  10.298 -0.2990 -1.1171  4.5548
  695MOL0     H91704   5.619   4.444  10.346 -0.2366 -1.7695 -1.8843
  695MOL0     H91705   5.491   4.240  10.393 -0.8503 -1.3553  1.6501
  695MOL0     H91706   5.415   4.054  10.462  0.8950  0.8507 -0.6651
  695MOL0     H91707   5.336   4.159  10.577  1.0801 -0.0065  0.6603
  695MOL0     H91708   5.299   3.983  10.742 -1.3400  1.8906  0.0893
  695MOL0     H91709   5.404   3.868  10.645  2.7669  2.7180  0.4334
  695MOL0     H91710   5.241   3.905  10.459 -0.2922  1.5539  0.1805
  695MOL0     H91711   5.129   3.985  10.567 -0.3786 -0.5075  0.6545
  695MOL0     H91712   5.230   3.698  10.624 -1.9262 -1.8316  1.4617
  695MOL0     H91713   5.099   3.780  10.708 -2.2792 -1.5304 -0.6174
  695MOL0     H91714   5.146   3.669  10.424 -2.3171  0.1354 -2.6814
  695MOL0     H91715   5.001   3.760  10.449  0.9294 -1.3727 -2.9943
  695MOL0     H91716   4.937   3.610  10.647 -0.0338 -0.5433  0.1419
  695MOL0     H91717   5.065   3.503  10.585  0.9863 -0.8806 -2.8629
  695MOL0     H91718   4.859   3.612  10.398 -0.7127  0.6994  1.0053
  695MOL0     H91719   4.970   3.482  10.374  0.7893  0.6200  1.6162
  695MOL0     H91720   4.743   3.369  10.415 -1.7349 -1.3424  1.3431
  695MOL0     H91721   4.726   3.482  10.558  1.3546  0.1918  1.4169
  695MOL0     H91722   5.750   4.172  10.739  0.4739 -2.0971 -1.5058
  695MOL0     H91723   5.864   4.380  10.677 -0.0967  0.0505  0.1155
  695MOL0     H91724   5.818   4.800  10.413 -0.2396 -0.5015 -0.4050
  695MOL0     H91725   5.941   4.990  10.337 -0.3563 -1.3082  1.8385
  695MOL0     H91726   6.808   5.720   9.038 -1.6658  0.2669 -1.3318
  695MOL0     H91727   7.036   5.727   8.938 -0.9053  0.9852 -2.3173
  695MOL0     H91728   7.430   5.297   8.588  0.8363  0.2565  0.1554
  695MOL0     H91729   7.644   5.358   8.535  1.4427  1.8983 -2.7331
  695MOL0     H91730   7.874   5.768   8.559 -0.1645 -1.8619 -0.7865
  695MOL0     H91731   7.697   5.782   8.591  0.3146  0.5586 -0.4441
  695MOL0     H91732   7.833   5.639   8.353  2.0176  2.6419 -0.7819
  695MOL0     H91733   7.655   5.647   8.398 -0.8217  1.6484 -0.1364
  695MOL0     H91734   7.654   5.876   8.361  0.3787 -1.4014  3.8936
  695MOL0     H91735   7.708   5.779   8.216 -0.1502 -1.2503 -0.6390
  695MOL0     H91736   7.912   5.915   8.397 -1.2265  2.2018 -0.2002
  695MOL0     H91737   7.926   5.859   8.231 -0.3390 -0.0027 -1.0005
  695MOL0     H91738   7.705   6.205   8.162 -0.6211  0.0297 -0.1118
  695MOL0     H91739   7.623   5.714   8.780  1.1328 -1.3269  0.7734
  695MOL0     H91740   7.387   5.645   8.841  1.9095  0.1435  1.0270
  696MOL0     O91741   3.461   1.170   8.213 -0.0252 -0.2224  0.4116
  696MOL0     C91742   3.550   1.101   8.252  0.3097  0.9602 -1.0095
  696MOL0     O91743   3.547   1.038   8.375  0.0815 -0.4416  0.7461
  696MOL0     C91744   3.431   1.033   8.447 -0.3331  0.4551  0.4617
  696MOL0     C91745   3.457   0.984   8.577  0.3254  0.4438 -0.5176
  696MOL0     C91746   3.355   0.966   8.671 -0.4304  0.7675  0.8567
  696MOL0     C91747   3.219   0.964   8.635 -0.0090  0.4118  0.5161
  696MOL0     O91748   3.125   0.928   8.722  0.4475 -0.8405 -0.0981
  696MOL0     C91749   2.990   0.896   8.679 -1.0388 -0.0368  0.8214
  696MOL0     C91750   2.938   0.834   8.806  0.7405  0.8061 -0.0706
  696MOL0     C91751   2.806   0.771   8.773 -0.1714  0.9983 -0.0438
  696MOL0     C91752   2.744   0.699   8.901  0.4344  0.3332 -0.1159
  696MOL0     C91753   2.614   0.641   8.875  0.1645 -0.7752  0.4484
  696MOL0     C91754   2.544   0.549   8.980 -0.5728  0.8760 -0.2343
  696MOL0     C91755   2.400   0.546   8.936  0.4006  0.8133  0.0641
  696MOL0     C91756   2.322   0.430   9.005 -0.3348 -0.6821 -0.1953
  696MOL0     N91757   2.175   0.452   9.006 -0.1607 -0.2740  0.2774
  696MOL0     C91758   2.104   0.559   9.055 -0.2606  0.8095 -0.0712
  696MOL0     C91759   1.980   0.550   9.003 -0.3490  0.0938  0.1909
  696MOL0     C91760   1.861   0.637   9.037 -0.1561 -0.6541 -0.1051
  696MOL0     C91761   1.727   0.586   8.989  0.7941  0.4552 -0.1462
  696MOL0     C91762   1.608   0.687   9.015 -0.5192 -0.4275  0.1378
  696MOL0     C91763   1.474   0.617   8.986 -0.1203  0.0918 -0.1395
  696MOL0     O91764   1.360   0.700   9.001 -1.0829 -0.1345 -0.6025
  696MOL0     C91765   1.237   0.648   8.976  0.2592  0.4681 -0.0755
  696MOL0     C91766   1.133   0.727   9.019 -0.5823 -1.1509  0.0506
  696MOL0     C91767   1.003   0.684   9.024  0.9523 -0.1204  0.8961
  696MOL0     C91768   0.968   0.564   8.969  0.0837  0.1495 -0.5550
  696MOL0     C91769   0.828   0.542   8.959  0.6428 -0.4141  0.1329
  696MOL0     O91770   0.739   0.626   9.024 -0.2347  0.4604  0.1753
  696MOL0     C91771   0.600   0.606   9.028 -0.2916  0.2296 -0.2037
  696MOL0     C91772   0.534   0.726   9.049  0.3651  0.1089 -0.8122
  696MOL0     C91773   0.397   0.711   9.066  0.7264 -0.0830 -0.2618
  696MOL0     C91774   0.331   0.586   9.077  0.1398  0.1341  0.8455
  696MOL0     O91775   0.197   0.575   9.105 -0.0914  0.8542  0.2156
  696MOL0     C91776   0.105   0.679   9.060  0.2058 -0.8672 -0.5488
  696MOL0     C91777  -0.035   0.633   9.049  1.0695  0.1033 -0.0172
  696MOL0     C91778  -0.098   0.636   9.190  0.6060  0.0590  0.1674
  696MOL0     C91779  -0.249   0.590   9.183 -0.0705 -1.1536  0.3772
  696MOL0     C91780  -0.343   0.684   9.103  0.0049  0.6186 -0.8782
  696MOL0     C91781  -0.483   0.637   9.118 -0.4715 -0.0591  0.0454
  696MOL0     C91782  -0.580   0.710   9.019  0.4297 -0.6264  0.1653
  696MOL0     C91783  -0.724   0.683   9.028  0.2206  0.6859 -0.2561
  696MOL0    Cl91784  -0.818   0.817   8.941  0.5140  0.2316  0.0900
  696MOL0     C91785   0.398   0.473   9.040 -0.7061 -0.4537 -0.8146
  696MOL0     C91786   0.535   0.480   9.019 -0.1231  0.4382 -0.3537
  696MOL0     O91787   0.798   0.438   8.898 -1.4634  0.5908  0.0770
  696MOL0     C91788   1.070   0.477   8.920  1.0472 -0.0148  0.4647
  696MOL0     C91789   1.202   0.517   8.930 -0.4361  0.1517 -0.7500
  696MOL0     N91790   1.981   0.444   8.917  0.3006  0.0330 -0.1265
  696MOL0     N91791   2.094   0.382   8.924 -0.1959 -1.2022 -0.6371
  696MOL0     C91792   3.193   1.002   8.498 -0.1711 -0.4329  0.6982
  696MOL0     C91793   3.297   1.043   8.410  0.5559 -0.2432  0.0205
  696MOL0     C91794   3.678   1.093   8.188 -0.0462  0.5279  0.1282
  696MOL0     C91795   3.780   1.003   8.226  0.2284  0.3558  0.0891
  696MOL0     C91796   3.910   1.032   8.179 -0.2606  0.1086  0.2495
  696MOL0     C91797   3.933   1.124   8.084 -0.0553 -0.4990 -0.1075
  696MOL0     O91798   4.059   1.138   8.032  0.3520 -0.0697 -0.9411
  696MOL0     C91799   4.155   1.179   8.138  0.6722  0.0149 -1.0953
  696MOL0     C91800   4.273   1.259   8.075 -0.3060  0.3293 -0.0684
  696MOL0     C91801   4.398   1.173   8.048 -0.0408 -0.1964  0.5350
  696MOL0     C91802   4.519   1.237   7.969  1.3303 -0.7280 -0.0174
  696MOL0     C91803   4.571   1.166   7.849  0.5356 -0.3547 -1.1385
  696MOL0     C91804   4.593   1.103   7.753 -0.2071 -0.4483  0.7845
  696MOL0     C91805   3.822   1.192   8.025 -0.7495  0.0043  0.3322
  696MOL0     C91806   3.703   1.190   8.083  0.1282 -0.3026 -0.7407
  696MOL0     H91807   3.562   0.965   8.596  0.3481  2.5331  1.8796
  696MOL0     H91808   3.369   0.952   8.777 -0.2372 -0.2507  0.7140
  696MOL0     H91809   2.991   0.819   8.603 -2.7469  0.7529 -0.0506
  696MOL0     H91810   2.934   0.983   8.644 -0.2536  0.4390  0.7217
  696MOL0     H91811   2.917   0.910   8.882 -0.5326  1.9982 -1.5458
  696MOL0     H91812   2.999   0.750   8.842 -0.1836  1.1225  2.4219
  696MOL0     H91813   2.811   0.690   8.699  0.2928 -3.3302  4.2083
  696MOL0     H91814   2.747   0.855   8.736  1.8556  1.7819 -1.7025
  696MOL0     H91815   2.811   0.619   8.935  0.5565  0.1138 -0.8520
  696MOL0     H91816   2.722   0.775   8.976 -2.6932 -0.6094  0.1118
  696MOL0     H91817   2.626   0.585   8.782  0.2370  0.8447 -0.5687
  696MOL0     H91818   2.535   0.712   8.845 -1.9824 -3.9477 -2.1415
  696MOL0     H91819   2.537   0.579   9.085 -0.7034  1.8767 -0.5183
  696MOL0     H91820   2.587   0.448   8.973  1.5890  1.3778  3.3928
  696MOL0     H91821   2.356   0.643   8.962 -1.5435 -0.6115  2.6436
  696MOL0     H91822   2.395   0.541   8.827 -0.7508 -2.8984  0.1773
  696MOL0     H91823   2.361   0.432   9.107  0.2673 -1.9615 -0.3749
  696MOL0     H91824   2.347   0.329   8.970  0.5053 -0.8038  0.7166
  696MOL0     H91825   2.132   0.630   9.132  3.2771  1.4053 -1.6750
  696MOL0     H91826   1.869   0.745   9.021 -4.0900  0.0641  1.6395
  696MOL0     H91827   1.841   0.634   9.144  0.3408  1.8214  0.1150
  696MOL0     H91828   1.696   0.491   9.035 -2.7366  2.1682  1.3422
  696MOL0     H91829   1.736   0.574   8.881  1.7429  0.6779 -0.1071
  696MOL0     H91830   1.607   0.715   9.121  0.1705  0.0567  0.0298
  696MOL0     H91831   1.627   0.775   8.952  2.8886 -1.4453 -0.4686
  696MOL0     H91832   1.466   0.529   9.050  0.0780  1.0564  1.2475
  696MOL0     H91833   1.476   0.584   8.881  3.7862  0.1745 -0.2574
  696MOL0     H91834   1.163   0.824   9.058  3.6729 -1.5704 -1.5913
  696MOL0     H91835   0.928   0.759   9.045  1.5618  1.1666 -1.2465
  696MOL0     H91836   0.593   0.817   9.055  0.3832  0.0169  1.0439
  696MOL0     H91837   0.327   0.793   9.071 -1.2340 -1.6992  0.1077
  696MOL0     H91838   0.123   0.719   8.960 -2.6564  2.2567 -0.0055
  696MOL0     H91839   0.098   0.768   9.123 -0.5762 -0.7716 -0.7571
  696MOL0     H91840  -0.044   0.534   9.003 -0.0976  0.8300 -1.4301
  696MOL0     H91841  -0.083   0.702   8.980  1.2959 -0.8193 -1.1342
  696MOL0     H91842  -0.088   0.732   9.240 -1.2895  0.1927  0.3657
  696MOL0     H91843  -0.050   0.562   9.255  1.7797  0.5065 -0.1697
  696MOL0     H91844  -0.251   0.488   9.144 -0.6026 -1.5461  1.3867
  696MOL0     H91845  -0.283   0.588   9.287 -3.2752 -1.0322 -0.5417
  696MOL0     H91846  -0.317   0.684   8.997 -1.5598 -0.7329 -1.3006
  696MOL0     H91847  -0.346   0.790   9.130 -2.3905  0.7517 -1.4186
  696MOL0     H91848  -0.516   0.663   9.219  0.4975  0.7778  0.1608
  696MOL0     H91849  -0.481   0.532   9.087 -0.1943  0.7573 -3.0567
  696MOL0     H91850  -0.585   0.819   9.032 -1.4897 -0.6871  0.2183
  696MOL0     H91851  -0.554   0.698   8.913  2.0490  1.0616  0.3036
  696MOL0     H91852  -0.749   0.677   9.134  2.9194  1.3711  0.4996
  696MOL0     H91853  -0.742   0.585   8.983 -0.0436  0.5809  0.0799
  696MOL0     H91854   0.339   0.381   9.046 -2.4368  0.5300 -1.9818
  696MOL0     H91855   0.591   0.387   9.016  0.3460  0.7515 -1.8623
  696MOL0     H91856   1.041   0.380   8.880  0.9842  0.2108 -0.0497
  696MOL0     H91857   1.282   0.454   8.893  1.0706  2.3878 -1.4669
  696MOL0     H91858   3.093   0.990   8.457 -0.6428  2.9148  0.5441
  696MOL0     H91859   3.260   1.066   8.311 -0.6964  0.7308  0.6819
  696MOL0     H91860   3.764   0.935   8.309 -0.0291  1.3136  0.8443
  696MOL0     H91861   3.996   0.975   8.212  0.4573  1.4100  0.7126
  696MOL0     H91862   4.191   1.087   8.183 -0.6127  0.3131  0.6523
  696MOL0     H91863   4.117   1.237   8.223 -0.6273  0.0953 -1.7131
  696MOL0     H91864   4.231   1.309   7.988 -1.5807  2.6871  1.7912
  696MOL0     H91865   4.296   1.344   8.140  0.4702  0.6974 -0.8145
  696MOL0     H91866   4.363   1.094   7.981  1.5786  0.9840 -1.8356
  696MOL0     H91867   4.433   1.134   8.144  2.0411 -1.0287 -0.5121
  696MOL0     H91868   4.482   1.336   7.940  0.2676 -1.6873 -2.2028
  696MOL0     H91869   4.603   1.248   8.038  1.6963 -0.6745 -0.4673
  696MOL0     H91870   4.623   1.038   7.673 -1.1012  0.8991 -0.7084
  696MOL0     H91871   3.826   1.255   7.937  1.1405 -0.8974 -0.2793
  696MOL0     H91872   3.620   1.248   8.042  0.0078 -1.0545 -1.5882
  697MOL0     O91873   9.237   4.102   1.221 -0.0610  0.5041 -0.2752
  697MOL0     C91874   9.304   4.047   1.305 -0.2993 -0.5273 -0.3733
  697MOL0     O91875   9.278   3.934   1.362 -0.1019 -0.4020 -0.3039
  697MOL0     C91876   9.159   3.868   1.352  0.3943  0.1610  0.8543
  697MOL0     C91877   9.058   3.894   1.440 -0.7573  0.8189 -0.4022
  697MOL0     C91878   8.928   3.840   1.415 -0.0354  0.5884  0.0784
  697MOL0     C91879   8.905   3.747   1.306  0.2641 -0.2513  0.2653
  697MOL0     O91880   8.786   3.684   1.294  0.5184 -0.4671 -0.2584
  697MOL0     C91881   8.665   3.709   1.374 -1.1238  0.0918  0.3377
  697MOL0     C91882   8.588   3.829   1.316  0.1475 -0.3869  0.4483
  697MOL0     C91883   8.452   3.766   1.261  1.0435  0.2747 -0.0673
  697MOL0     C91884   8.371   3.883   1.201  0.1699  0.4719  0.2847
  697MOL0     C91885   8.234   3.823   1.167  0.0677  0.2082  0.7189
  697MOL0     C91886   8.155   3.953   1.116 -0.4172 -0.5632  0.2342
  697MOL0     C91887   8.009   3.913   1.063  0.2312  0.6578 -0.1920
  697MOL0     C91888   7.921   4.032   1.057  0.2363 -1.0285 -0.2049
  697MOL0     N91889   7.785   3.992   1.021  0.1116  0.4949 -0.6202
  697MOL0     C91890   7.732   3.996   0.893 -0.5328 -0.1776 -0.1612
  697MOL0     C91891   7.602   3.975   0.907 -0.3693 -0.2715 -0.4173
  697MOL0     C91892   7.511   3.974   0.796  0.7097  0.1434  0.0587
  697MOL0     C91893   7.366   3.935   0.835 -0.3197  0.2235  0.4024
  697MOL0     C91894   7.292   4.056   0.893  0.2711 -0.2390 -0.1461
  697MOL0     C91895   7.150   4.030   0.924 -0.4521 -0.7432 -1.0926
  697MOL0     O91896   7.064   3.985   0.823  0.8139 -0.2903 -0.2169
  697MOL0     C91897   6.932   4.000   0.849  0.0838  0.0940  0.7191
  697MOL0     C91898   6.853   3.965   0.730  0.0062  0.6843  0.6118
  697MOL0     C91899   6.713   3.967   0.735  0.0667 -0.0081 -0.9230
  697MOL0     C91900   6.645   4.011   0.850  0.3705  0.5822 -0.7594
  697MOL0     C91901   6.491   4.006   0.862  0.6774 -0.3924 -0.1945
  697MOL0     O91902   6.428   4.078   0.962  0.0929  0.1742  0.1401
  697MOL0     C91903   6.291   4.088   0.948  0.4079  1.0333  0.6972
  697MOL0     C91904   6.224   4.186   0.872  0.1849  0.0023  0.0392
  697MOL0     C91905   6.086   4.189   0.847  0.3212 -0.0316  0.1345
  697MOL0     C91906   6.006   4.081   0.894  1.2151 -0.3152 -0.1099
  697MOL0     O91907   5.867   4.065   0.880  0.4128 -0.4572  0.3877
  697MOL0     C91908   5.797   4.142   0.783 -0.5567  0.5230  0.1593
  697MOL0     C91909   5.675   4.079   0.733  0.3866  0.1429 -0.0483
  697MOL0     C91910   5.580   4.067   0.853 -0.3012  0.4252 -0.2353
  697MOL0     C91911   5.438   4.017   0.822 -0.3189 -0.4452  0.6460
  697MOL0     C91912   5.365   3.978   0.948  0.6095 -0.3014  0.3457
  697MOL0     C91913   5.217   3.963   0.924  0.1299  0.1729 -0.8959
  697MOL0     C91914   5.147   3.921   1.054  0.2984 -0.1211 -0.5557
  697MOL0     C91915   5.021   3.841   1.024 -0.0499  0.8170 -0.8122
  697MOL0    Cl91916   4.898   3.931   0.940  0.1486 -0.3985  0.1449
  697MOL0     C91917   6.073   3.984   0.969  0.0268  0.6143 -0.3571
  697MOL0     C91918   6.209   3.988   0.998 -0.2404  0.2196 -0.0010
  697MOL0     O91919   6.430   3.954   0.769  0.4196 -0.0301  0.9268
  697MOL0     C91920   6.724   4.052   0.964  0.4115  0.2707  0.0143
  697MOL0     C91921   6.862   4.052   0.956 -1.1672 -0.6510 -0.3479
  697MOL0     N91922   7.587   3.935   1.040  0.1643  0.9351  0.4732
  697MOL0     N91923   7.697   3.941   1.105  0.3163  0.3728  0.1471
  697MOL0     C91924   9.014   3.725   1.214 -0.3658 -0.1384 -0.4255
  697MOL0     C91925   9.135   3.782   1.238 -0.5766 -0.3314 -0.0379
  697MOL0     C91926   9.440   4.100   1.341  0.2796  0.0936  0.1300
  697MOL0     C91927   9.538   4.034   1.417 -0.0998  0.6233 -0.0105
  697MOL0     C91928   9.661   4.104   1.438 -0.3444 -0.3981  0.3649
  697MOL0     C91929   9.686   4.239   1.397 -0.8580 -0.8706  0.2334
  697MOL0     O91930   9.812   4.302   1.404 -0.1742 -0.3104  0.6641
  697MOL0     C91931   9.821   4.444   1.432 -0.2448  0.0739 -0.5223
  697MOL0     C91932   9.883   4.523   1.313  0.4712 -0.6021  0.1806
  697MOL0     C91933  10.023   4.463   1.294  0.0461 -0.3150  0.0443
  697MOL0     C91934  10.092   4.508   1.162 -0.3156 -0.0035 -0.2670
  697MOL0     C91935  10.238   4.492   1.174 -0.5119  1.1307  0.4050
  697MOL0     C91936  10.357   4.486   1.184  0.3535  0.6497 -0.7403
  697MOL0     C91937   9.581   4.300   1.335 -0.8221  0.3280  0.4494
  697MOL0     C91938   9.463   4.235   1.305 -0.0717  0.4414 -0.0131
  697MOL0     H91939   9.076   3.969   1.516 -0.8701  0.1768  0.2738
  697MOL0     H91940   8.862   3.850   1.500  2.1456 -2.9335  2.4789
  697MOL0     H91941   8.693   3.723   1.479  0.9446 -0.0961 -0.1424
  697MOL0     H91942   8.591   3.629   1.368  0.5499 -1.3848 -2.5125
  697MOL0     H91943   8.646   3.891   1.247 -0.3624  1.3048  1.4849
  697MOL0     H91944   8.569   3.896   1.400 -0.0395  1.4726 -1.0246
  697MOL0     H91945   8.400   3.724   1.347 -0.5534  1.5899 -0.3364
  697MOL0     H91946   8.456   3.692   1.181 -0.9960 -0.8474  0.7838
  697MOL0     H91947   8.364   3.963   1.274  0.4081 -0.3268  1.2028
  697MOL0     H91948   8.435   3.915   1.118  3.2032 -0.9137  1.9348
  697MOL0     H91949   8.186   3.786   1.257 -0.2862 -0.1457  0.3911
  697MOL0     H91950   8.237   3.741   1.095 -0.3062  0.7447  0.0774
  697MOL0     H91951   8.205   4.010   1.037 -0.7661  0.0947  0.4845
  697MOL0     H91952   8.149   4.032   1.191 -1.8597  1.8002 -2.2099
  697MOL0     H91953   8.005   3.864   0.966  0.0431  0.0408  0.1248
  697MOL0     H91954   7.959   3.845   1.132  2.1686  0.9625  1.6477
  697MOL0     H91955   7.962   4.109   0.990  0.8034 -0.0544  1.2082
  697MOL0     H91956   7.922   4.076   1.157  1.5156  1.0780 -1.0604
  697MOL0     H91957   7.798   4.020   0.810 -0.5781  3.2829  0.6393
  697MOL0     H91958   7.539   3.898   0.722 -3.1578 -2.2244  0.7399
  697MOL0     H91959   7.522   4.072   0.748 -2.3793  1.6812  2.1267
  697MOL0     H91960   7.374   3.852   0.905 -5.5049  0.6793  1.8906
  697MOL0     H91961   7.315   3.896   0.746  2.1751 -2.0566 -0.1605
  697MOL0     H91962   7.344   4.095   0.981  1.3046  0.4340 -1.0398
  697MOL0     H91963   7.292   4.144   0.828 -1.7723  1.2337  1.6786
  697MOL0     H91964   7.108   4.123   0.964  0.1390 -1.1798  0.6181
  697MOL0     H91965   7.146   3.959   1.006 -2.5922 -0.4528 -0.8704
  697MOL0     H91966   6.906   3.935   0.640 -1.7117  1.0017 -0.5545
  697MOL0     H91967   6.654   3.953   0.645 -0.6727  1.1866 -0.6562
  697MOL0     H91968   6.280   4.265   0.824 -1.8591  2.4153  1.3786
  697MOL0     H91969   6.039   4.268   0.789  0.2366 -1.4138 -1.7802
  697MOL0     H91970   5.869   4.158   0.701  0.6194 -0.0555  1.0566
  697MOL0     H91971   5.767   4.235   0.831 -1.3226  0.0929  0.5267
  697MOL0     H91972   5.683   3.988   0.674 -1.3554 -0.4224  0.5215
  697MOL0     H91973   5.623   4.154   0.672 -0.1449 -1.0547 -1.1153
  697MOL0     H91974   5.570   4.166   0.898  1.0612 -0.0284  1.1577
  697MOL0     H91975   5.625   3.998   0.925 -0.7391  2.6550  2.3646
  697MOL0     H91976   5.383   4.097   0.771 -0.0467 -0.2095  0.7210
  697MOL0     H91977   5.436   3.936   0.749  0.2535 -0.0925  0.2346
  697MOL0     H91978   5.396   4.053   1.022 -0.1687 -1.8422  2.3195
  697MOL0     H91979   5.399   3.880   0.983  1.7023  0.5095  1.6825
  697MOL0     H91980   5.204   3.874   0.862 -1.1277 -0.8306  0.7296
  697MOL0     H91981   5.184   4.050   0.867  1.1053 -0.0684 -1.8653
  697MOL0     H91982   5.212   3.852   1.110 -1.2255  0.3700  1.9727
  697MOL0     H91983   5.123   4.006   1.118  4.1084  1.2094 -0.6468
  697MOL0     H91984   4.990   3.782   1.111  1.6355 -1.6710 -1.7518
  697MOL0     H91985   5.041   3.761   0.952 -4.6758 -0.7234 -0.7231
  697MOL0     H91986   6.006   3.917   1.021 -0.5347 -0.2562 -2.1437
  697MOL0     H91987   6.259   3.906   1.049  0.2374  0.2410 -0.4317
  697MOL0     H91988   6.666   4.113   1.032 -1.7336 -0.2658 -1.2342
  697MOL0     H91989   6.918   4.084   1.043  0.6278  0.1726 -1.7254
  697MOL0     H91990   8.986   3.658   1.133 -1.7288 -1.0696  0.7750
  697MOL0     H91991   9.218   3.751   1.177  0.3830  2.1012 -0.0726
  697MOL0     H91992   9.523   3.931   1.446 -0.0757  0.3264 -0.9911
  697MOL0     H91993   9.736   4.053   1.497  0.2282  0.2231  0.1895
  697MOL0     H91994   9.884   4.447   1.522 -0.7956  0.0798 -0.1332
  697MOL0     H91995   9.729   4.490   1.469 -0.2618 -1.4096  1.4214
  697MOL0     H91996   9.818   4.512   1.226  0.5715 -2.2545  0.2790
  697MOL0     H91997   9.890   4.629   1.338 -1.7138 -0.1792 -0.8537
  697MOL0     H91998  10.017   4.354   1.295 -0.3243 -0.3029  1.7516
  697MOL0     H91999  10.075   4.504   1.381 -0.0226 -1.6113  0.7056
  697MOL0     H92000  10.050   4.451   1.078  0.1923  0.9947 -1.2235
  697MOL0     H92001  10.065   4.614   1.162  0.2576  0.1662  0.9922
  697MOL0     H92002  10.459   4.465   1.209  0.4737 -3.7842 -3.6888
  697MOL0     H92003   9.583   4.404   1.305  1.1410  0.5995  1.4049
  697MOL0     H92004   9.390   4.305   1.265  0.9503  1.3609 -0.3285
  698MOL0     O92005  11.104   0.190   2.927 -0.4703 -0.4624 -0.9090
  698MOL0     C92006  11.160   0.097   2.985 -0.1219  0.5811  0.7885
  698MOL0     O92007  11.291   0.071   2.988 -0.1139 -0.2024  0.1479
  698MOL0     C92008  11.384   0.149   2.921 -0.4979  0.1808  0.6482
  698MOL0     C92009  11.400   0.280   2.957 -0.5925  0.1888  0.9803
  698MOL0     C92010  11.498   0.362   2.900  0.1512  0.4859 -0.0557
  698MOL0     C92011  11.598   0.306   2.818  0.3035  0.4163 -0.1261
  698MOL0     O92012  11.695   0.377   2.760  0.0614 -0.8453 -0.4003
  698MOL0     C92013  11.713   0.515   2.793  0.3793  0.4167  0.3831
  698MOL0     C92014  11.811   0.574   2.698  0.1733 -0.0538 -0.0246
  698MOL0     C92015  11.766   0.571   2.552  0.3257  0.3452  0.4275
  698MOL0     C92016  11.863   0.652   2.451  0.1606 -0.2182 -0.9789
  698MOL0     C92017  11.834   0.623   2.305  1.0795  1.4691 -1.6334
  698MOL0     C92018  11.923   0.709   2.214  0.4238 -0.3924  0.2158
  698MOL0     C92019  11.889   0.693   2.065  0.4937 -0.8505 -0.0097
  698MOL0     C92020  11.763   0.756   2.017  0.2232 -1.3456  0.0159
  698MOL0     N92021  11.751   0.902   2.026  0.6705 -0.2072 -0.6867
  698MOL0     C92022  11.681   0.958   2.133 -0.1708  0.1041 -0.5489
  698MOL0     C92023  11.644   1.081   2.089 -0.9113  0.0079  0.3645
  698MOL0     C92024  11.570   1.182   2.163 -0.1819  0.0708  0.0256
  698MOL0     C92025  11.421   1.140   2.174  0.0923  0.1210  0.6835
  698MOL0     C92026  11.351   1.237   2.265 -0.0284  0.9974  0.5020
  698MOL0     C92027  11.197   1.184   2.268 -0.8560 -0.1902 -0.1752
  698MOL0     O92028  11.207   1.077   2.365 -0.0886  0.2249  0.4113
  698MOL0     C92029  11.093   1.001   2.371 -0.4022 -0.0505 -0.3868
  698MOL0     C92030  11.090   0.872   2.432 -0.8549  0.1170  0.4942
  698MOL0     C92031  10.973   0.797   2.447  0.0580 -0.5985 -0.2952
  698MOL0     C92032  10.856   0.850   2.391  0.8069  0.5416  0.0763
  698MOL0     C92033  10.729   0.777   2.400  0.6796 -0.7532 -0.9016
  698MOL0     O92034  10.615   0.852   2.401 -0.6430  0.1096 -0.0845
  698MOL0     C92035  10.502   0.778   2.387  0.3383 -0.7755  0.2852
  698MOL0     C92036  10.446   0.774   2.264  0.0499 -0.3858 -0.7671
  698MOL0     C92037  10.337   0.689   2.237  0.0178 -0.5869  0.3675
  698MOL0     C92038  10.273   0.619   2.347  0.1974  0.0632 -0.6857
  698MOL0     O92039  10.163   0.548   2.321 -0.3716  0.1100  0.2280
  698MOL0     C92040  10.055   0.563   2.416  0.0921 -0.6551  0.0608
  698MOL0     C92041   9.935   0.477   2.376 -0.9390  0.3400 -0.0537
  698MOL0     C92042   9.901   0.479   2.229  0.3065  0.1837  0.1471
  698MOL0     C92043   9.766   0.409   2.204  0.1303  0.4331 -0.2845
  698MOL0     C92044   9.746   0.384   2.061  0.2992  0.0684 -0.1570
  698MOL0     C92045   9.729   0.516   1.974 -0.5358 -0.7096 -0.1225
  698MOL0     C92046   9.606   0.596   2.027  1.0173 -0.3464  0.0458
  698MOL0     C92047   9.575   0.720   1.933  0.2245  0.2914 -0.5319
  698MOL0    Cl92048   9.473   0.671   1.786  0.0731  0.2181  0.2398
  698MOL0     C92049  10.334   0.623   2.473  0.3025 -0.5517 -0.6395
  698MOL0     C92050  10.449   0.701   2.489  0.3167 -0.2510  0.3606
  698MOL0     O92051  10.736   0.656   2.402  0.7415  0.0020 -0.5021
  698MOL0     C92052  10.859   0.974   2.329  0.6013 -0.1967 -0.2617
  698MOL0     C92053  10.977   1.048   2.324 -0.2764  0.4393  0.5162
  698MOL0     N92054  11.692   1.094   1.962  0.1557 -0.5845  0.4543
  698MOL0     N92055  11.754   0.993   1.926  0.5779 -0.1356  0.1353
  698MOL0     C92056  11.586   0.176   2.788  0.4357  0.6189  0.3079
  698MOL0     C92057  11.479   0.094   2.831  0.1933 -0.7410 -0.2648
  698MOL0     C92058  11.076   0.023   3.073  0.2498  0.4420 -1.1741
  698MOL0     C92059  11.134  -0.073   3.163 -0.0874  0.0664  0.6764
  698MOL0     C92060  11.060  -0.154   3.250  0.5873 -0.2606  0.2642
  698MOL0     C92061  10.921  -0.127   3.269 -0.3155  0.2318  0.6114
  698MOL0     O92062  10.833  -0.191   3.354  0.3114 -0.2892  0.2308
  698MOL0     C92063  10.869  -0.330   3.396  0.3606 -0.2392  0.1341
  698MOL0     C92064  10.756  -0.420   3.395  0.4596 -1.0604 -0.5072
  698MOL0     C92065  10.640  -0.360   3.485  0.3921 -1.0497  0.5927
  698MOL0     C92066  10.509  -0.452   3.469 -1.0637 -0.3986  0.0839
  698MOL0     C92067  10.398  -0.407   3.565  0.2731 -1.2534 -0.3138
  698MOL0     C92068  10.315  -0.355   3.647 -0.5316 -0.2379  0.5304
  698MOL0     C92069  10.857  -0.035   3.170 -1.1174  0.2915 -0.3426
  698MOL0     C92070  10.939   0.044   3.087  0.3356 -0.0351  0.1613
  698MOL0     H92071  11.336   0.319   3.035 -0.5016 -0.1506  1.2234
  698MOL0     H92072  11.513   0.462   2.940 -1.0104  0.9210 -0.6639
  698MOL0     H92073  11.741   0.539   2.896 -2.1598 -0.8670  1.4583
  698MOL0     H92074  11.615   0.563   2.782 -1.0357 -1.9551  1.8444
  698MOL0     H92075  11.906   0.520   2.708  0.3554  0.2740  0.0427
  698MOL0     H92076  11.828   0.676   2.735  2.4649 -1.0778  2.0370
  698MOL0     H92077  11.662   0.606   2.544 -0.9481 -3.4657 -1.9941
  698MOL0     H92078  11.754   0.467   2.522 -1.9230  1.2978 -2.4720
  698MOL0     H92079  11.864   0.759   2.473  0.5908 -0.0920 -1.6001
  698MOL0     H92080  11.965   0.618   2.473 -0.5154 -0.9267  1.4193
  698MOL0     H92081  11.725   0.636   2.299  0.6968 -1.3670 -2.0945
  698MOL0     H92082  11.854   0.516   2.294  0.3653  1.1785 -0.3279
  698MOL0     H92083  12.028   0.680   2.225  0.7118  1.4339  3.5552
  698MOL0     H92084  11.923   0.816   2.240  3.1157  0.0693 -1.3230
  698MOL0     H92085  11.959   0.748   2.001 -1.6316 -0.4694 -2.1667
  698MOL0     H92086  11.900   0.588   2.037  0.1669 -0.1983 -2.9096
  698MOL0     H92087  11.678   0.706   2.064 -0.9792  0.6193  0.0109
  698MOL0     H92088  11.746   0.741   1.910  1.3502 -0.2142 -0.3426
  698MOL0     H92089  11.654   0.906   2.224 -1.0795 -0.4350 -1.1145
  698MOL0     H92090  11.581   1.273   2.104  0.4828 -1.2308 -1.9454
  698MOL0     H92091  11.616   1.203   2.260  0.5583 -2.6282  0.3333
  698MOL0     H92092  11.423   1.038   2.213 -1.6322 -0.4531 -0.6468
  698MOL0     H92093  11.386   1.133   2.071  0.2898 -0.5688  0.6574
  698MOL0     H92094  11.395   1.239   2.365  1.4500  3.6391 -0.0912
  698MOL0     H92095  11.364   1.339   2.225  1.7690  0.8064  0.5208
  698MOL0     H92096  11.172   1.163   2.163  0.1435  2.0777 -0.9125
  698MOL0     H92097  11.131   1.266   2.298 -1.7889 -0.3297 -1.6854
  698MOL0     H92098  11.180   0.830   2.476  0.4187  0.8663 -1.2818
  698MOL0     H92099  10.976   0.711   2.513 -0.4694 -1.3508 -1.2299
  698MOL0     H92100  10.485   0.827   2.178 -0.4933  1.7303  0.2331
  698MOL0     H92101  10.300   0.684   2.135 -4.1106 -0.5159  1.6672
  698MOL0     H92102  10.021   0.664   2.390  1.4172 -0.6866 -2.0283
  698MOL0     H92103  10.085   0.554   2.521  1.8954 -0.8111 -0.4412
  698MOL0     H92104   9.853   0.504   2.442 -0.4471  1.0885  0.2634
  698MOL0     H92105   9.953   0.375   2.411 -2.2866  0.1780  0.1977
  698MOL0     H92106   9.983   0.432   2.174  1.0343  0.9660  0.5358
  698MOL0     H92107   9.892   0.585   2.203 -1.1513  0.5338  1.8650
  698MOL0     H92108   9.774   0.311   2.252  0.7695  0.1887 -0.8747
  698MOL0     H92109   9.686   0.469   2.249  0.7933 -0.1282  1.7467
  698MOL0     H92110   9.651   0.329   2.062  0.9042 -1.0185  1.7396
  698MOL0     H92111   9.827   0.329   2.014 -0.1458 -1.9693  1.3418
  698MOL0     H92112   9.711   0.482   1.871  1.4081  1.0819 -1.1216
  698MOL0     H92113   9.824   0.569   1.973 -0.1770 -1.3398 -0.0244
  698MOL0     H92114   9.518   0.531   2.028 -1.0144  2.2392  1.2191
  698MOL0     H92115   9.629   0.640   2.124 -1.0516  1.9561 -0.4008
  698MOL0     H92116   9.669   0.759   1.894  0.9081 -0.2670  0.5184
  698MOL0     H92117   9.519   0.793   1.991  1.7864 -0.3391  1.9248
  698MOL0     H92118  10.301   0.555   2.551  1.4074 -1.4217 -0.8988
  698MOL0     H92119  10.502   0.701   2.584 -2.1627  0.6871  1.8227
  698MOL0     H92120  10.773   1.015   2.277  1.7540 -0.1468 -2.2131
  698MOL0     H92121  10.969   1.145   2.276 -1.5810  0.9135  1.6373
  698MOL0     H92122  11.669   0.139   2.729  1.6640  0.8588  1.8481
  698MOL0     H92123  11.477  -0.013   2.814  3.1465 -1.2137  1.6101
  698MOL0     H92124  11.240  -0.094   3.156 -0.2169 -0.1380 -0.9482
  698MOL0     H92125  11.101  -0.231   3.314  0.7279  0.7406  1.4298
  698MOL0     H92126  10.922  -0.332   3.492 -1.1864 -0.4327  1.0179
  698MOL0     H92127  10.938  -0.368   3.320  1.0306  1.0709  0.0403
  698MOL0     H92128  10.723  -0.424   3.291  1.2453  1.7685 -0.9386
  698MOL0     H92129  10.782  -0.520   3.431 -3.4190 -3.2671 -3.0651
  698MOL0     H92130  10.613  -0.260   3.449 -2.1089 -1.6670  0.6302
  698MOL0     H92131  10.676  -0.350   3.587 -0.5348  0.5955  0.7939
  698MOL0     H92132  10.461  -0.444   3.371 -0.6702 -1.0844 -0.1758
  698MOL0     H92133  10.534  -0.555   3.495  0.7716  0.2883  1.2448
  698MOL0     H92134  10.242  -0.307   3.709 -1.9467 -1.2223 -0.3164
  698MOL0     H92135  10.751  -0.028   3.150 -0.8712 -1.4457 -2.8603
  698MOL0     H92136  10.894   0.109   3.013  0.7668 -0.9891 -0.9732
  699MOL0     O92137   0.845  10.285  10.022 -0.4262 -0.1561 -0.1748
  699MOL0     C92138   0.928  10.344   9.950 -0.2401 -0.8449  0.3383
  699MOL0     O92139   0.896  10.413   9.836  0.0709 -0.7254  1.0605
  699MOL0     C92140   0.768  10.450   9.824  0.6485  0.1533 -0.2958
  699MOL0     C92141   0.684  10.380   9.736 -0.5163  0.2356 -0.5208
  699MOL0     C92142   0.558  10.425   9.716 -0.5630  0.0500  0.1099
  699MOL0     C92143   0.510  10.541   9.782  0.0405  0.1519  0.7332
  699MOL0     O92144   0.385  10.585   9.789 -0.4032  0.3805  0.0892
  699MOL0     C92145   0.285  10.511   9.714  0.9032 -0.8631 -0.1615
  699MOL0     C92146   0.159  10.586   9.720 -0.2175  0.6577 -0.2026
  699MOL0     C92147   0.051  10.513   9.635 -0.2791 -0.5471 -0.2635
  699MOL0     C92148  -0.094  10.578   9.645  0.0781 -0.0821  0.6773
  699MOL0     C92149  -0.189  10.505   9.555 -0.1603 -0.0267 -0.3796
  699MOL0     C92150  -0.328  10.553   9.581 -0.5610 -0.2993 -0.4728
  699MOL0     C92151  -0.342  10.708   9.547 -0.3339 -0.2441  0.3855
  699MOL0     C92152  -0.473  10.744   9.454 -0.3551 -0.8806  0.2329
  699MOL0     N92153  -0.588  10.717   9.536  0.0889 -0.0748  0.2741
  699MOL0     C92154  -0.656  10.808   9.617 -0.3445  0.0097 -0.1866
  699MOL0     C92155  -0.757  10.742   9.671 -0.4215 -0.2927 -0.0925
  699MOL0     C92156  -0.856  10.790   9.772  0.0757  0.0226  0.0846
  699MOL0     C92157  -0.793  10.781   9.911 -0.2457  0.2097 -0.3526
  699MOL0     C92158  -0.890  10.769  10.033  0.2940 -0.3231 -0.1727
  699MOL0     C92159  -1.000  10.873  10.033  0.7267  0.3073 -0.0278
  699MOL0     O92160  -1.091  10.833   9.940  0.7165 -0.7695  0.4733
  699MOL0     C92161  -1.211  10.908   9.923 -0.5012 -0.3192  0.0530
  699MOL0     C92162  -1.232  11.035   9.979 -0.1638 -0.6869  0.2665
  699MOL0     C92163  -1.352  11.101   9.939  0.1351  0.0733  0.3490
  699MOL0     C92164  -1.448  11.045   9.856  0.1884 -0.1095 -0.3544
  699MOL0     C92165  -1.559  11.122   9.804  0.6341 -0.3831  0.0459
  699MOL0     O92166  -1.627  11.070   9.695 -0.2886  0.8224  0.2806
  699MOL0     C92167  -1.718  11.146   9.643 -0.4529 -0.5464  0.3740
  699MOL0     C92168  -1.841  11.092   9.611 -0.8570  0.2165  0.1093
  699MOL0     C92169  -1.934  11.170   9.535  0.0634  0.7257 -0.8260
  699MOL0     C92170  -1.896  11.298   9.480  1.8791  0.3277 -0.1641
  699MOL0     O92171  -1.979  11.373   9.396 -0.5915 -0.1870  0.4302
  699MOL0     C92172  -2.118  11.375   9.440 -0.0291  0.6749  1.2136
  699MOL0     C92173  -2.192  11.499   9.396  0.7036  0.8714 -0.7272
  699MOL0     C92174  -2.328  11.517   9.452  0.8866  0.2638  0.7291
  699MOL0     C92175  -2.437  11.414   9.404  0.4500  0.1181 -0.3507
  699MOL0     C92176  -2.570  11.450   9.464 -0.2663 -0.3991  0.9424
  699MOL0     C92177  -2.674  11.338   9.437  0.7726 -0.3451 -0.2829
  699MOL0     C92178  -2.802  11.362   9.515 -0.4774  0.0621 -0.4683
  699MOL0     C92179  -2.911  11.256   9.493  0.1845  1.0629 -0.0751
  699MOL0    Cl92180  -3.053  11.278   9.618  0.1410  0.2333  0.2475
  699MOL0     C92181  -1.769  11.346   9.506  0.6471  0.1375 -0.0173
  699MOL0     C92182  -1.679  11.271   9.584  0.9739  0.2291 -0.8364
  699MOL0     O92183  -1.588  11.235   9.854  0.2752  0.2653  0.1790
  699MOL0     C92184  -1.418  10.915   9.797 -0.5744 -0.7617  0.6461
  699MOL0     C92185  -1.305  10.849   9.839  0.1780  0.0516 -1.0999
  699MOL0     N92186  -0.739  10.605   9.642  0.0575 -1.4400 -0.1215
  699MOL0     N92187  -0.652  10.601   9.549  0.1038  0.0481  0.0705
  699MOL0     C92188   0.589  10.606   9.872  0.6379  0.1513 -0.9060
  699MOL0     C92189   0.720  10.560   9.895 -0.5060 -0.2525  0.1948
  699MOL0     C92190   1.074  10.318   9.948 -0.7664 -0.5907 -0.8969
  699MOL0     C92191   1.154  10.336   9.828 -0.1380 -0.7097  0.0183
  699MOL0     C92192   1.295  10.331   9.833  0.2326 -0.3597  0.1323
  699MOL0     C92193   1.370  10.289   9.945  0.3582  0.5202  0.7407
  699MOL0     O92194   1.508  10.271   9.946  0.5561 -0.5435 -0.1526
  699MOL0     C92195   1.580  10.295   9.826  0.8052 -0.0396  0.2213
  699MOL0     C92196   1.713  10.224   9.828 -0.4260 -0.7509  0.5235
  699MOL0     C92197   1.788  10.253   9.957  0.1107  0.0030 -1.2727
  699MOL0     C92198   1.793  10.400  10.008 -0.0169  0.0679 -0.0011
  699MOL0     C92199   1.834  10.484   9.899 -0.2734  0.4980 -0.1205
  699MOL0     C92200   1.864  10.560   9.809 -0.1585  1.0399  0.3448
  699MOL0     C92201   1.294  10.259  10.056  0.1303  0.0251  0.0052
  699MOL0     C92202   1.152  10.291  10.062  0.2666  0.2621 -0.2016
  699MOL0     H92203   0.734  10.295   9.691 -1.3799  0.5046 -2.0399
  699MOL0     H92204   0.512  10.355   9.646 -3.5927 -0.8313  2.7606
  699MOL0     H92205   0.263  10.422   9.773 -0.2143 -1.5084 -1.4844
  699MOL0     H92206   0.304  10.493   9.607 -2.7434  1.9129 -1.5022
  699MOL0     H92207   0.164  10.681   9.666 -2.2859  1.7737  1.4427
  699MOL0     H92208   0.135  10.607   9.825  2.0626 -0.3636  0.5880
  699MOL0     H92209   0.026  10.412   9.666 -0.6999 -0.1916  0.5941
  699MOL0     H92210   0.082  10.517   9.530 -0.4424  0.0337 -0.2931
  699MOL0     H92211  -0.128  10.573   9.749 -0.2342  3.1625  0.8224
  699MOL0     H92212  -0.086  10.686   9.631 -0.7790 -0.2477 -1.4131
  699MOL0     H92213  -0.175  10.399   9.580  1.1798  0.7219  2.5882
  699MOL0     H92214  -0.160  10.518   9.451  1.8041  0.0942  0.1396
  699MOL0     H92215  -0.368  10.536   9.681 -3.9396  1.4127 -1.3511
  699MOL0     H92216  -0.387  10.491   9.513  0.2826 -0.9452 -0.6336
  699MOL0     H92217  -0.325  10.761   9.641 -2.4141  1.5501 -0.1454
  699MOL0     H92218  -0.257  10.757   9.499  0.2009  0.3487  1.8620
  699MOL0     H92219  -0.467  10.676   9.368 -1.5180 -1.9143  0.9343
  699MOL0     H92220  -0.468  10.850   9.428  0.0938 -1.1023 -0.6430
  699MOL0     H92221  -0.626  10.911   9.634  0.7363 -0.1791 -0.8351
  699MOL0     H92222  -0.949  10.733   9.760 -0.6842  1.2365  0.0325
  699MOL0     H92223  -0.878  10.893   9.744 -0.4870 -0.2823 -0.6260
  699MOL0     H92224  -0.727  10.866   9.928  0.5082  0.0418 -2.2429
  699MOL0     H92225  -0.726  10.695   9.920  0.6700  1.0598  1.5903
  699MOL0     H92226  -0.937  10.670  10.028  0.0265 -0.1812 -0.3950
  699MOL0     H92227  -0.842  10.768  10.132 -2.3469  1.3324  1.2122
  699MOL0     H92228  -0.957  10.972  10.012  1.5594 -0.2410 -1.0037
  699MOL0     H92229  -1.046  10.887  10.131 -1.7461 -1.7853 -0.7853
  699MOL0     H92230  -1.163  11.094  10.038 -0.7526  0.2419  0.0474
  699MOL0     H92231  -1.367  11.205   9.967 -1.6462 -0.0251 -0.1273
  699MOL0     H92232  -1.853  10.988   9.642 -0.8279 -0.4893 -2.0669
  699MOL0     H92233  -2.034  11.137   9.507  0.2630  2.1505 -3.5366
  699MOL0     H92234  -2.132  11.373   9.549  2.3654  1.8476  1.6102
  699MOL0     H92235  -2.161  11.284   9.399  0.3712  0.9180  0.2359
  699MOL0     H92236  -2.193  11.510   9.287  1.1161 -0.8599 -0.9335
  699MOL0     H92237  -2.136  11.585   9.436  2.0135 -0.3757  0.2657
  699MOL0     H92238  -2.372  11.612   9.419  0.0672 -0.8002 -1.3972
  699MOL0     H92239  -2.339  11.521   9.561 -1.6377  0.4668  0.5335
  699MOL0     H92240  -2.438  11.407   9.295 -0.5359 -0.9302 -0.2937
  699MOL0     H92241  -2.411  11.313   9.439 -0.4905  0.4069  1.2818
  699MOL0     H92242  -2.604  11.543   9.418 -0.9906 -0.9778  0.2760
  699MOL0     H92243  -2.570  11.462   9.573  1.6134  0.9429  0.8361
  699MOL0     H92244  -2.634  11.237   9.451 -2.2095 -2.0147 -2.5738
  699MOL0     H92245  -2.690  11.348   9.329  0.5481 -0.7354 -0.2879
  699MOL0     H92246  -2.792  11.363   9.624  0.9209 -1.5540 -0.5221
  699MOL0     H92247  -2.836  11.463   9.492 -3.0437 -0.6374 -0.0453
  699MOL0     H92248  -2.872  11.155   9.510  0.0403  0.8018 -1.2161
  699MOL0     H92249  -2.960  11.260   9.395  2.0182  0.7117 -1.0420
  699MOL0     H92250  -1.730  11.433   9.455 -0.5184  0.2791 -0.6882
  699MOL0     H92251  -1.577  11.306   9.593  1.0978 -0.3174 -0.1340
  699MOL0     H92252  -1.486  10.862   9.731 -1.0177 -1.0372  1.3221
  699MOL0     H92253  -1.302  10.747   9.803  2.2632 -0.1308 -0.5544
  699MOL0     H92254   0.550  10.695   9.921 -1.0330 -2.0392  2.0823
  699MOL0     H92255   0.790  10.600   9.969  1.8704  1.1759 -2.6295
  699MOL0     H92256   1.122  10.357   9.726  1.4295  0.3012 -0.2943
  699MOL0     H92257   1.344  10.355   9.739  0.7394 -1.8813 -0.0339
  699MOL0     H92258   1.593  10.403   9.827 -3.7215  0.7233  1.1310
  699MOL0     H92259   1.528  10.273   9.732  2.9254  0.5502 -1.1473
  699MOL0     H92260   1.703  10.117   9.808 -1.3065 -0.7075  0.7179
  699MOL0     H92261   1.774  10.269   9.749  0.1581 -1.8459  0.3250
  699MOL0     H92262   1.891  10.223   9.940  0.8674  2.2706 -1.0306
  699MOL0     H92263   1.758  10.192  10.043  2.1867  2.0600  1.0412
  699MOL0     H92264   1.695  10.433  10.042  0.0416  0.5290 -0.2670
  699MOL0     H92265   1.856  10.417  10.095 -0.2290  2.6502 -0.2836
  699MOL0     H92266   1.881  10.629   9.729 -0.3675  0.4025 -0.2607
  699MOL0     H92267   1.353  10.235  10.144  2.0704  4.0449 -0.0112
  699MOL0     H92268   1.097  10.297  10.156  0.9569  0.3093  0.2056
  700MOL0     O92269   3.126   3.820   3.590  0.7293  0.8401  0.4445
  700MOL0     C92270   3.047   3.735   3.539 -0.8613  0.8612  0.0235
  700MOL0     O92271   3.080   3.630   3.463  0.3451  0.4776  0.4065
  700MOL0     C92272   3.204   3.606   3.420  0.4483  0.0818  0.4410
  700MOL0     C92273   3.277   3.527   3.500  0.0863 -0.5144  0.0847
  700MOL0     C92274   3.406   3.483   3.471  0.2871  0.2109  0.1892
  700MOL0     C92275   3.469   3.528   3.352 -1.0984 -0.0874 -0.0366
  700MOL0     O92276   3.595   3.487   3.300  0.1505  0.1194 -0.8412
  700MOL0     C92277   3.670   3.389   3.374  0.0725 -0.3188 -0.4204
  700MOL0     C92278   3.744   3.455   3.495  0.1009  0.4345 -0.3815
  700MOL0     C92279   3.854   3.556   3.452  0.6017  0.4005  0.0702
  700MOL0     C92280   3.798   3.689   3.404  0.7264  0.1215  0.1329
  700MOL0     C92281   3.878   3.817   3.431 -0.1152  0.1069 -0.5322
  700MOL0     C92282   3.870   3.860   3.574 -0.1131 -0.1125  0.0298
  700MOL0     C92283   4.006   3.908   3.625  0.3919 -0.9121  0.4959
  700MOL0     C92284   4.045   4.035   3.546  0.3081 -0.1282 -0.2799
  700MOL0     N92285   3.975   4.151   3.603 -0.1303  0.2530  0.0836
  700MOL0     C92286   3.858   4.206   3.549 -0.1201  0.0681  0.4557
  700MOL0     C92287   3.823   4.309   3.627  0.8057 -0.7795  0.1818
  700MOL0     C92288   3.705   4.404   3.620  0.4572  0.4120 -0.1547
  700MOL0     C92289   3.596   4.305   3.645  0.0211 -0.2394 -0.1652
  700MOL0     C92290   3.454   4.364   3.633  0.5022  0.4437 -0.0170
  700MOL0     C92291   3.397   4.440   3.749 -0.4799 -0.4394 -0.4843
  700MOL0     O92292   3.303   4.539   3.698 -0.0266  0.6513 -0.1790
  700MOL0     C92293   3.176   4.504   3.666  0.6109 -0.0923 -0.1963
  700MOL0     C92294   3.130   4.376   3.661  0.2482 -0.0555 -0.8390
  700MOL0     C92295   3.004   4.348   3.597 -0.6639  0.3963  0.4971
  700MOL0     C92296   2.920   4.458   3.553 -0.3772  0.6188  0.1627
  700MOL0     C92297   2.793   4.436   3.494 -0.5271  0.4881 -0.5330
  700MOL0     O92298   2.698   4.532   3.520  0.6399 -0.8985 -0.0428
  700MOL0     C92299   2.573   4.498   3.576 -0.1556  0.2290 -0.1858
  700MOL0     C92300   2.534   4.370   3.613 -0.4153 -0.1935  0.1740
  700MOL0     C92301   2.402   4.348   3.657 -0.3217  0.1128  0.7817
  700MOL0     C92302   2.306   4.450   3.664  0.5607  0.6729  0.0518
  700MOL0     O92303   2.171   4.430   3.696  0.1088 -0.2769 -0.3793
  700MOL0     C92304   2.137   4.337   3.798 -0.4866  0.6757 -0.6689
  700MOL0     C92305   1.981   4.332   3.789 -0.1064  0.0359 -0.4641
  700MOL0     C92306   1.913   4.461   3.856 -0.2937 -0.3008 -0.2631
  700MOL0     C92307   1.760   4.450   3.858 -0.0866  1.0196 -0.0356
  700MOL0     C92308   1.710   4.435   3.999  0.1270 -0.0950  0.1622
  700MOL0     C92309   1.556   4.443   4.010 -0.2818  0.4377 -0.1324
  700MOL0     C92310   1.496   4.438   4.154  0.7267  0.0320 -0.4243
  700MOL0     C92311   1.507   4.573   4.232  0.0751 -0.0433  0.0754
  700MOL0    Cl92312   1.420   4.564   4.396 -0.1614  0.4586  0.3498
  700MOL0     C92313   2.348   4.576   3.631  0.3268  0.2975 -0.9030
  700MOL0     C92314   2.475   4.601   3.591 -0.1696  0.2256  0.6906
  700MOL0     O92315   2.779   4.333   3.423  0.4076  0.0563 -0.1368
  700MOL0     C92316   2.975   4.588   3.569 -0.5586 -0.2359 -0.0182
  700MOL0     C92317   3.090   4.602   3.630  0.2324 -0.0959 -0.8368
  700MOL0     N92318   3.922   4.318   3.728  0.4989 -0.4076 -0.5029
  700MOL0     N92319   3.993   4.210   3.724  0.7592 -0.1775  0.5558
  700MOL0     C92320   3.391   3.616   3.272  0.7817 -0.1110 -0.8143
  700MOL0     C92321   3.263   3.667   3.315 -0.0437  0.4433  0.0004
  700MOL0     C92322   2.907   3.764   3.567  0.9164 -0.4066  1.4306
  700MOL0     C92323   2.862   3.863   3.652  0.7018  0.0312 -0.5178
  700MOL0     C92324   2.732   3.872   3.704  0.3352  0.1638  0.7461
  700MOL0     C92325   2.630   3.800   3.641 -0.5809 -1.4555  0.3317
  700MOL0     O92326   2.501   3.784   3.684 -0.1384  1.1904 -0.4135
  700MOL0     C92327   2.462   3.844   3.810 -0.8983 -0.5997  0.8159
  700MOL0     C92328   2.307   3.848   3.822  0.0965  0.5883  0.1357
  700MOL0     C92329   2.240   3.709   3.812 -0.5486  0.0851 -0.6311
  700MOL0     C92330   2.288   3.597   3.901  0.2560  0.6591  0.6315
  700MOL0     C92331   2.270   3.630   4.042  0.6209  0.2400 -0.2893
  700MOL0     C92332   2.259   3.656   4.158  0.4370  0.5363 -0.5454
  700MOL0     C92333   2.668   3.709   3.541 -0.3766 -0.1033 -1.2340
  700MOL0     C92334   2.801   3.680   3.508 -0.3642  0.0899 -0.6057
  700MOL0     H92335   3.225   3.485   3.586  1.3079  2.8693  2.6887
  700MOL0     H92336   3.452   3.409   3.535 -0.5477  1.5986  2.5360
  700MOL0     H92337   3.748   3.346   3.310  0.3503 -0.8473  0.2595
  700MOL0     H92338   3.615   3.299   3.401  0.8693 -0.3395  1.2534
  700MOL0     H92339   3.791   3.374   3.552  0.2189  2.6897  3.0216
  700MOL0     H92340   3.665   3.493   3.560  0.2403 -0.2156  0.1848
  700MOL0     H92341   3.924   3.519   3.376 -0.2261  0.5299 -0.7741
  700MOL0     H92342   3.914   3.574   3.541  0.2656  0.7674  0.2229
  700MOL0     H92343   3.785   3.678   3.296 -0.3767  2.9815 -0.0927
  700MOL0     H92344   3.695   3.705   3.437 -0.0402  1.7168 -2.7064
  700MOL0     H92345   3.855   3.900   3.363 -3.0160 -0.0489  0.1447
  700MOL0     H92346   3.983   3.798   3.404  0.3751 -0.5388  1.6208
  700MOL0     H92347   3.837   3.770   3.627  2.3359 -2.0172 -1.4447
  700MOL0     H92348   3.794   3.938   3.586  0.7806  1.1990 -2.1753
  700MOL0     H92349   4.003   3.923   3.733  1.3778  0.6559  0.3430
  700MOL0     H92350   4.081   3.829   3.611  2.6576  1.1532  0.3252
  700MOL0     H92351   4.014   4.021   3.442 -1.5588  0.8317  0.1053
  700MOL0     H92352   4.153   4.053   3.556  0.2768  0.1200 -0.3903
  700MOL0     H92353   3.810   4.172   3.457  0.4727  0.7682 -0.1234
  700MOL0     H92354   3.689   4.452   3.523  2.0473 -0.0780 -0.7000
  700MOL0     H92355   3.713   4.478   3.700 -0.1905  1.4593 -1.0314
  700MOL0     H92356   3.589   4.254   3.741 -1.2955  2.2755  1.1740
  700MOL0     H92357   3.605   4.220   3.576 -1.6783 -0.9189  0.4066
  700MOL0     H92358   3.443   4.419   3.539 -1.1284  1.7418  0.8642
  700MOL0     H92359   3.385   4.279   3.621 -0.8136  1.1446  2.0899
  700MOL0     H92360   3.475   4.503   3.793  0.0970 -2.0052  0.8331
  700MOL0     H92361   3.356   4.374   3.826 -2.2035  0.8771 -0.2039
  700MOL0     H92362   3.198   4.297   3.688 -1.3325 -0.6489  1.7617
  700MOL0     H92363   2.971   4.246   3.583  1.6233 -0.2391 -0.9434
  700MOL0     H92364   2.605   4.288   3.604 -2.2691 -2.2255  2.6104
  700MOL0     H92365   2.360   4.250   3.678 -1.1472  0.7036  2.0056
  700MOL0     H92366   2.169   4.359   3.900  1.2938  0.5117 -1.1399
  700MOL0     H92367   2.182   4.243   3.765 -1.2572  0.4500 -1.0857
  700MOL0     H92368   1.942   4.242   3.837  2.0354 -2.0239 -2.3506
  700MOL0     H92369   1.946   4.320   3.686 -0.6322 -0.3472 -0.2440
  700MOL0     H92370   1.950   4.547   3.799 -0.5206  0.2840  0.4642
  700MOL0     H92371   1.954   4.466   3.957  0.7133  0.3042 -0.6866
  700MOL0     H92372   1.713   4.537   3.812  1.1121 -0.0423 -3.6239
  700MOL0     H92373   1.729   4.363   3.799  1.9881  1.4602 -1.9149
  700MOL0     H92374   1.754   4.515   4.058 -3.5411  1.2458  1.3415
  700MOL0     H92375   1.751   4.347   4.049 -0.0077  0.5419  1.4267
  700MOL0     H92376   1.510   4.360   3.957 -1.6074  1.7092 -1.0433
  700MOL0     H92377   1.520   4.533   3.960 -5.1384 -0.0823  1.8601
  700MOL0     H92378   1.389   4.416   4.143  0.7431  0.0857 -0.7069
  700MOL0     H92379   1.541   4.355   4.209  1.1787  0.4973 -0.0813
  700MOL0     H92380   1.473   4.657   4.171 -1.2592 -1.6103 -1.4414
  700MOL0     H92381   1.612   4.601   4.245 -0.1888  2.4119 -2.3446
  700MOL0     H92382   2.284   4.661   3.649  1.8835  1.3605 -0.1174
  700MOL0     H92383   2.490   4.702   3.553  0.9925 -0.5757 -1.1218
  700MOL0     H92384   2.912   4.672   3.540 -2.9756 -2.1214 -0.5831
  700MOL0     H92385   3.127   4.703   3.646 -0.0739 -0.2864  1.5047
  700MOL0     H92386   3.431   3.661   3.182  3.1680  1.0146  0.6965
  700MOL0     H92387   3.200   3.734   3.257  0.6500  0.7987 -0.3466
  700MOL0     H92388   2.942   3.923   3.694  0.0883  1.8977 -1.8520
  700MOL0     H92389   2.724   3.933   3.794 -1.1224  1.5549 -0.2484
  700MOL0     H92390   2.484   3.950   3.826  0.2728 -0.0688 -3.2170
  700MOL0     H92391   2.503   3.789   3.895  1.4490 -0.7322 -0.3271
  700MOL0     H92392   2.294   3.879   3.927 -0.6880 -0.4528  0.3697
  700MOL0     H92393   2.252   3.925   3.767 -2.0831 -2.0021 -1.5466
  700MOL0     H92394   2.258   3.682   3.707  2.1294 -1.6325  0.1757
  700MOL0     H92395   2.133   3.725   3.830 -0.3970  1.1758 -0.6820
  700MOL0     H92396   2.231   3.509   3.870 -2.7487  2.4658  0.6878
  700MOL0     H92397   2.391   3.575   3.872 -0.2940 -0.6708 -0.3980
  700MOL0     H92398   2.233   3.683   4.258 -2.2840 -2.0447 -0.4301
  700MOL0     H92399   2.591   3.650   3.490 -1.5342  0.7128 -0.4714
  700MOL0     H92400   2.833   3.607   3.435  1.0708 -0.8394  0.8701
  701MOL0     O92401   3.526  10.829   9.549 -0.6207 -0.3179  0.4128
  701MOL0     C92402   3.585  10.822   9.440  0.0701  0.6637 -0.3622
  701MOL0     O92403   3.522  10.803   9.316 -1.1287  0.3412  0.7335
  701MOL0     C92404   3.386  10.803   9.323  0.0906  0.2791 -0.2632
  701MOL0     C92405   3.315  10.923   9.369 -0.1030  0.2672  0.6132
  701MOL0     C92406   3.174  10.919   9.381  0.4035 -0.7893  0.3217
  701MOL0     C92407   3.103  10.806   9.337  0.5402 -1.0708 -0.3840
  701MOL0     O92408   2.961  10.806   9.348 -0.3998  0.1028  0.2932
  701MOL0     C92409   2.901  10.674   9.333  0.3847  0.8845  0.0076
  701MOL0     C92410   2.747  10.695   9.351 -0.0817  0.0275  0.7917
  701MOL0     C92411   2.669  10.567   9.315  0.3813 -0.2507 -0.6435
  701MOL0     C92412   2.522  10.576   9.365 -0.0621  0.2237 -0.2357
  701MOL0     C92413   2.418  10.460   9.316  0.3517 -0.8645 -0.6012
  701MOL0     C92414   2.397  10.482   9.170 -0.1933  0.1344  0.0582
  701MOL0     C92415   2.265  10.409   9.129 -0.0914 -0.1966  0.3265
  701MOL0     C92416   2.274  10.262   9.155  0.5667  0.4967 -0.3293
  701MOL0     N92417   2.136  10.195   9.142  0.0674  0.0893  0.5483
  701MOL0     C92418   2.047  10.190   9.035  0.4313 -0.2900 -0.0548
  701MOL0     C92419   1.949  10.101   9.078  0.0845 -0.8035 -0.5815
  701MOL0     C92420   1.834  10.061   8.991 -0.0223 -0.7244  0.2407
  701MOL0     C92421   1.696  10.071   9.052  0.9563 -0.1478 -0.3928
  701MOL0     C92422   1.629  10.212   9.045  0.0405  0.0694  0.7781
  701MOL0     C92423   1.491  10.212   9.080  0.9244 -0.0087  0.1106
  701MOL0     O92424   1.407  10.113   9.004 -0.5957  0.1419 -0.1754
  701MOL0     C92425   1.278  10.086   9.043 -0.2992 -0.1712 -0.3720
  701MOL0     C92426   1.175  10.169   9.001 -0.0537 -0.4039  0.0372
  701MOL0     C92427   1.039  10.146   9.027  0.6112  0.1321 -0.0696
  701MOL0     C92428   0.997  10.044   9.110  0.4116  0.2484  0.0375
  701MOL0     C92429   0.851  10.020   9.138  0.3816 -0.2341  0.1302
  701MOL0     O92430   0.765  10.100   9.066 -0.7363 -0.7242 -0.5324
  701MOL0     C92431   0.625  10.082   9.055 -0.8715  0.0387  0.3951
  701MOL0     C92432   0.568   9.959   9.060  0.8030  0.4616  0.2941
  701MOL0     C92433   0.424   9.951   9.041 -0.2643  0.7773  0.0857
  701MOL0     C92434   0.353  10.062   9.015  0.5900 -0.6274 -0.2994
  701MOL0     O92435   0.212  10.074   9.010  0.2620  0.2517 -0.0006
  701MOL0     C92436   0.143   9.956   8.959 -0.7177  0.4828  0.3262
  701MOL0     C92437   0.001   9.970   8.892  0.8340 -0.5164  0.7860
  701MOL0     C92438  -0.002  10.068   8.778 -0.5529  0.0071  0.5402
  701MOL0     C92439  -0.143  10.106   8.732 -0.0867 -0.2650 -0.0374
  701MOL0     C92440  -0.142  10.165   8.593  0.3475  0.1075 -0.6767
  701MOL0     C92441  -0.282  10.180   8.549  0.2093 -0.5007  0.2119
  701MOL0     C92442  -0.365  10.268   8.646  0.4489 -0.2903 -0.3071
  701MOL0     C92443  -0.287  10.402   8.670 -0.0228 -0.7866 -0.2242
  701MOL0    Cl92444  -0.411  10.519   8.732  0.3302 -0.0584 -0.4399
  701MOL0     C92445   0.420  10.182   8.998 -0.0674 -0.6235 -0.3174
  701MOL0     C92446   0.557  10.188   9.012 -0.0953 -1.1933 -0.0871
  701MOL0     O92447   0.822   9.923   9.210  0.0944 -0.0580 -0.5219
  701MOL0     C92448   1.106   9.961   9.155 -0.0028  0.0833  0.0518
  701MOL0     C92449   1.242   9.980   9.117  0.8277 -0.5815  0.0393
  701MOL0     N92450   1.982  10.047   9.201 -0.9319 -0.3602 -0.3030
  701MOL0     N92451   2.092  10.108   9.238  0.1586 -0.0507 -0.0145
  701MOL0     C92452   3.172  10.683   9.299 -0.1977 -0.4463 -0.2585
  701MOL0     C92453   3.311  10.683   9.294 -0.5637  0.0033  0.5184
  701MOL0     C92454   3.722  10.856   9.427 -0.3899  0.3577  0.3593
  701MOL0     C92455   3.793  10.851   9.306 -0.0054 -0.5639 -0.1540
  701MOL0     C92456   3.928  10.865   9.309  0.2111 -0.0378 -0.3156
  701MOL0     C92457   4.006  10.913   9.415 -0.8037  0.0408  0.2829
  701MOL0     O92458   4.139  10.923   9.426  0.3521  0.4483  0.3547
  701MOL0     C92459   4.223  10.902   9.310 -0.4438 -0.2198  0.0947
  701MOL0     C92460   4.376  10.888   9.339  0.1748 -0.8464  0.2263
  701MOL0     C92461   4.437  11.021   9.369 -0.0625 -0.7192 -0.4776
  701MOL0     C92462   4.590  11.022   9.363 -1.1449 -0.7704 -0.1787
  701MOL0     C92463   4.663  10.931   9.455 -0.5902 -0.8703 -0.1657
  701MOL0     C92464   4.717  10.847   9.527 -0.1313 -1.0522  0.4102
  701MOL0     C92465   3.931  10.947   9.525 -0.8320  0.4628 -0.7013
  701MOL0     C92466   3.789  10.914   9.536 -1.0463 -0.5253 -0.1365
  701MOL0     H92467   3.381  11.004   9.398  0.5538 -0.0809  0.1316
  701MOL0     H92468   3.122  11.007   9.418  2.1090  0.4169 -0.0513
  701MOL0     H92469   2.932  10.611   9.418 -0.3840  0.6644  0.1318
  701MOL0     H92470   2.914  10.628   9.234  0.5024 -0.8733  0.7888
  701MOL0     H92471   2.714  10.783   9.295  2.3761 -0.1659 -1.1338
  701MOL0     H92472   2.734  10.714   9.458  1.6733 -1.0557  1.2536
  701MOL0     H92473   2.722  10.489   9.371 -0.4532  0.8178  1.7722
  701MOL0     H92474   2.673  10.551   9.207  0.2909  0.9591 -0.8338
  701MOL0     H92475   2.520  10.555   9.472 -1.1519 -0.6118 -0.3977
  701MOL0     H92476   2.489  10.680   9.350 -1.8864 -0.0700  1.2846
  701MOL0     H92477   2.329  10.463   9.381 -0.6944 -1.0656 -1.9711
  701MOL0     H92478   2.465  10.362   9.328 -1.1654 -2.0063 -3.1925
  701MOL0     H92479   2.486  10.444   9.119  0.2450 -0.8824  1.5084
  701MOL0     H92480   2.399  10.590   9.154 -0.8913  0.0518 -0.6456
  701MOL0     H92481   2.192  10.456   9.196  0.4327  0.4533  0.4360
  701MOL0     H92482   2.254  10.414   9.020 -2.1166 -1.4138  0.4086
  701MOL0     H92483   2.330  10.225   9.241  1.4340 -3.1496 -2.2863
  701MOL0     H92484   2.339  10.217   9.080  0.2358 -0.8590  0.1774
  701MOL0     H92485   2.053  10.254   8.947 -2.8616 -0.8394 -0.7936
  701MOL0     H92486   1.855   9.960   8.954 -1.2800 -1.1319  0.5864
  701MOL0     H92487   1.829  10.113   8.895  0.2679 -2.7850 -0.9462
  701MOL0     H92488   1.679  10.044   9.157  0.7846  1.0821 -0.0923
  701MOL0     H92489   1.637  10.008   8.985  2.6730 -1.0032 -1.1819
  701MOL0     H92490   1.689  10.278   9.108  2.3351 -1.6834  0.5860
  701MOL0     H92491   1.642  10.249   8.943 -0.0405 -3.1088 -0.5074
  701MOL0     H92492   1.465  10.316   9.058  2.0431  0.6812  1.8201
  701MOL0     H92493   1.468  10.201   9.186 -4.7677  0.4176 -0.7976
  701MOL0     H92494   1.184  10.246   8.924 -1.3495 -0.4623 -0.1946
  701MOL0     H92495   0.974  10.211   8.969  0.9341 -1.6987 -2.6718
  701MOL0     H92496   0.614   9.863   9.076 -1.2575 -1.3399 -3.3041
  701MOL0     H92497   0.380   9.852   9.053  1.0362  0.0976 -0.4598
  701MOL0     H92498   0.137   9.889   9.045  0.9841 -0.5479 -0.2989
  701MOL0     H92499   0.211   9.905   8.890 -1.0564 -2.5492  2.0351
  701MOL0     H92500  -0.075  10.004   8.964 -0.6907  0.4479 -1.1816
  701MOL0     H92501  -0.028   9.876   8.843 -0.1907  1.3249 -2.4096
  701MOL0     H92502   0.064  10.039   8.696 -0.6155  0.4032  0.3493
  701MOL0     H92503   0.047  10.157   8.819  2.5013 -1.0168 -0.5832
  701MOL0     H92504  -0.208  10.018   8.728 -0.4025  0.0052 -2.8868
  701MOL0     H92505  -0.188  10.175   8.805  0.1246 -0.8137  0.6224
  701MOL0     H92506  -0.100  10.097   8.518  0.8549 -0.3637  0.0201
  701MOL0     H92507  -0.077  10.253   8.599 -0.7463  0.8663  0.6613
  701MOL0     H92508  -0.332  10.087   8.520  1.3177 -0.1117 -3.4352
  701MOL0     H92509  -0.272  10.240   8.458  4.0876  0.3977  1.0534
  701MOL0     H92510  -0.461  10.283   8.596  1.0418 -0.6551 -1.5880
  701MOL0     H92511  -0.390  10.218   8.740 -3.7094  0.5510 -0.7929
  701MOL0     H92512  -0.243  10.437   8.576  2.1659 -2.7913 -0.0488
  701MOL0     H92513  -0.201  10.394   8.738  0.2814 -0.1202 -0.5211
  701MOL0     H92514   0.364  10.274   8.982 -0.8554 -0.5051  2.5703
  701MOL0     H92515   0.603  10.287   9.011  1.2752 -1.6176  3.8025
  701MOL0     H92516   1.085   9.874   9.216 -2.1103  0.6423  0.1916
  701MOL0     H92517   1.315   9.913   9.160  1.7945 -1.3029 -2.4936
  701MOL0     H92518   3.118  10.596   9.261  3.1031 -3.4490  1.2927
  701MOL0     H92519   3.369  10.595   9.270 -0.2484  0.1417  0.7764
  701MOL0     H92520   3.749  10.812   9.215  0.8530 -4.5299  0.9786
  701MOL0     H92521   3.981  10.844   9.216 -0.1827  1.2918 -0.8559
  701MOL0     H92522   4.212  10.978   9.233 -1.5173 -1.2246 -0.7665
  701MOL0     H92523   4.194  10.804   9.271 -0.5959  0.1981 -0.8590
  701MOL0     H92524   4.385  10.827   9.429  0.5524 -0.0641  0.7257
  701MOL0     H92525   4.424  10.838   9.254 -1.4238 -1.6023 -0.2690
  701MOL0     H92526   4.401  11.053   9.468  1.6444  0.8620 -0.3054
  701MOL0     H92527   4.397  11.089   9.294  3.0324 -0.8698 -2.4275
  701MOL0     H92528   4.613  11.008   9.257  0.2643  1.2430 -0.1770
  701MOL0     H92529   4.609  11.126   9.391 -1.9833 -0.1124 -1.8912
  701MOL0     H92530   4.766  10.789   9.602  0.3361 -3.9427 -1.9445
  701MOL0     H92531   3.973  10.999   9.610 -1.4199 -0.0159 -0.1036
  701MOL0     H92532   3.739  10.952   9.624  1.1802 -0.7001  1.2748
  702MOL0     O92533   9.521   0.449   3.634  1.0827  0.9360  0.3332
  702MOL0     C92534   9.558   0.357   3.702 -0.1836  0.2980 -0.1155
  702MOL0     O92535   9.510   0.322   3.829 -0.0582  0.1578 -0.0213
  702MOL0     C92536   9.393   0.377   3.874  0.4269 -0.3318  0.9034
  702MOL0     C92537   9.390   0.400   4.012  0.0542  0.3502  0.3279
  702MOL0     C92538   9.263   0.429   4.069  0.4246  0.0730  0.5156
  702MOL0     C92539   9.150   0.449   3.992 -0.8624 -0.8503  0.7992
  702MOL0     O92540   9.032   0.486   4.051 -0.2120 -0.0566  0.3639
  702MOL0     C92541   9.041   0.620   4.112  0.0510  1.1455 -1.2360
  702MOL0     C92542   8.908   0.663   4.184 -0.0445 -0.6488  0.3597
  702MOL0     C92543   8.874   0.581   4.303  0.8108  0.2027  0.2251
  702MOL0     C92544   8.741   0.625   4.368  0.0219  0.4583  0.7078
  702MOL0     C92545   8.719   0.531   4.493  0.4588 -0.3803  0.3004
  702MOL0     C92546   8.578   0.555   4.548 -0.2658 -0.1811  0.2594
  702MOL0     C92547   8.558   0.473   4.675 -0.2626  0.2977 -0.7703
  702MOL0     C92548   8.424   0.501   4.749  0.9099  0.2632 -0.3400
  702MOL0     N92549   8.305   0.461   4.669 -0.3123 -0.5459  0.1611
  702MOL0     C92550   8.273   0.332   4.635  0.6783  0.1291  0.5427
  702MOL0     C92551   8.150   0.336   4.571 -0.6018 -0.1674  0.4377
  702MOL0     C92552   8.063   0.219   4.518  0.7132 -0.5087 -0.1368
  702MOL0     C92553   7.919   0.210   4.567  0.4173 -0.0128 -0.1495
  702MOL0     C92554   7.904   0.215   4.715 -0.0517 -0.1993 -0.9518
  702MOL0     C92555   7.778   0.136   4.771 -0.1321  0.5214 -0.0954
  702MOL0     O92556   7.668   0.220   4.747 -0.3456 -0.6348  0.4947
  702MOL0     C92557   7.550   0.184   4.815  0.2623 -0.1577  0.1403
  702MOL0     C92558   7.466   0.296   4.851 -0.0719 -0.0437  0.2062
  702MOL0     C92559   7.345   0.283   4.922 -0.3309  0.4424  0.6690
  702MOL0     C92560   7.307   0.155   4.957  0.1145 -0.5975 -0.2691
  702MOL0     C92561   7.193   0.137   5.050  0.1136  0.7800  0.1001
  702MOL0     O92562   7.158   0.006   5.066 -0.1071 -0.0420  0.1772
  702MOL0     C92563   7.058  -0.033   5.156 -0.2559 -0.8255 -0.6772
  702MOL0     C92564   6.925   0.028   5.178 -0.8403 -0.1297 -0.7581
  702MOL0     C92565   6.845  -0.017   5.287 -0.0537 -0.7233  0.2633
  702MOL0     C92566   6.889  -0.116   5.371  0.3650  0.8710  0.1151
  702MOL0     O92567   6.799  -0.164   5.472  0.3731 -0.0180  0.0899
  702MOL0     C92568   6.845  -0.224   5.586  0.4830  0.9346  0.5385
  702MOL0     C92569   6.741  -0.236   5.701 -0.0754 -0.3160  0.6872
  702MOL0     C92570   6.619  -0.306   5.664 -0.2621 -0.1977 -0.5620
  702MOL0     C92571   6.523  -0.335   5.783 -0.0337  0.3990  0.5712
  702MOL0     C92572   6.378  -0.318   5.743 -0.0927 -0.5817  0.2023
  702MOL0     C92573   6.271  -0.373   5.850 -0.5822 -0.0126 -0.3419
  702MOL0     C92574   6.235  -0.524   5.824 -0.0538 -0.5511 -1.1355
  702MOL0     C92575   6.113  -0.546   5.724  0.6496  0.1628 -0.5806
  702MOL0    Cl92576   6.054  -0.712   5.744  0.4568  0.2274 -0.0203
  702MOL0     C92577   7.008  -0.172   5.347 -0.4210  0.1200 -0.0037
  702MOL0     C92578   7.094  -0.131   5.244  0.0462 -0.7298 -0.0994
  702MOL0     O92579   7.134   0.234   5.103 -0.3866  0.0654  0.7740
  702MOL0     C92580   7.386   0.043   4.914  1.4831  0.2861 -0.0779
  702MOL0     C92581   7.509   0.058   4.843 -0.3335  0.4263 -0.7971
  702MOL0     N92582   8.116   0.466   4.556  0.2276  0.6333 -0.1598
  702MOL0     N92583   8.206   0.535   4.617  0.3849  0.3448  0.2070
  702MOL0     C92584   9.158   0.438   3.856  0.9839  0.9169  0.0236
  702MOL0     C92585   9.283   0.405   3.796 -0.1179 -0.0226 -0.4936
  702MOL0     C92586   9.678   0.282   3.654 -0.0159  0.1676 -1.4171
  702MOL0     C92587   9.728   0.298   3.529  0.4947  0.2861  0.8163
  702MOL0     C92588   9.824   0.217   3.474 -0.3394  0.4988 -0.2555
  702MOL0     C92589   9.889   0.131   3.554 -0.9143 -0.4966  0.2153
  702MOL0     O92590  10.009   0.085   3.506 -0.2102 -0.7988 -0.0198
  702MOL0     C92591  10.120   0.030   3.581  0.0514 -0.0102  0.1635
  702MOL0     C92592  10.246   0.110   3.535  0.1327 -0.1000  0.3037
  702MOL0     C92593  10.366   0.021   3.534  0.5037  0.9789  0.1143
  702MOL0     C92594  10.480   0.080   3.464  0.3070  0.4143 -0.1021
  702MOL0     C92595  10.539   0.196   3.525  0.6992  0.1320 -0.8696
  702MOL0     C92596  10.570   0.288   3.587 -0.2072 -0.8207  0.0556
  702MOL0     C92597   9.846   0.108   3.684 -0.0834 -0.5011  0.4599
  702MOL0     C92598   9.738   0.181   3.735  0.4757 -0.3756  0.5151
  702MOL0     H92599   9.469   0.374   4.082 -0.6313  1.1393  1.4260
  702MOL0     H92600   9.248   0.437   4.176 -1.6432 -1.6692  0.4315
  702MOL0     H92601   9.075   0.686   4.032  0.5524  0.8592 -1.2639
  702MOL0     H92602   9.118   0.621   4.190  0.0445 -0.1406 -1.1854
  702MOL0     H92603   8.823   0.660   4.115  1.3270 -2.8532 -1.3685
  702MOL0     H92604   8.923   0.770   4.204  3.0384 -0.9799  0.2668
  702MOL0     H92605   8.956   0.575   4.375  0.1703 -0.8385  0.8976
  702MOL0     H92606   8.869   0.476   4.273  3.4131  0.4561 -1.3772
  702MOL0     H92607   8.753   0.731   4.392  1.1927  0.6653 -0.6712
  702MOL0     H92608   8.658   0.618   4.297  0.9843 -3.9215 -0.2929
  702MOL0     H92609   8.793   0.548   4.572 -1.9813  1.8681  2.3213
  702MOL0     H92610   8.734   0.429   4.457 -1.3044 -0.3404 -0.6807
  702MOL0     H92611   8.504   0.528   4.472 -1.1583  1.8876  0.3398
  702MOL0     H92612   8.575   0.662   4.571  0.5329  0.2553 -1.5318
  702MOL0     H92613   8.556   0.367   4.647 -1.4575  0.4207 -1.2080
  702MOL0     H92614   8.641   0.503   4.739 -3.1380  3.3845  1.8236
  702MOL0     H92615   8.423   0.607   4.774  1.9276  0.2525 -0.1967
  702MOL0     H92616   8.420   0.441   4.841  0.4703  2.0841  0.8724
  702MOL0     H92617   8.331   0.244   4.662  0.9770  0.3396  0.5964
  702MOL0     H92618   8.107   0.119   4.520  0.8674 -0.5582 -2.6414
  702MOL0     H92619   8.061   0.246   4.412  2.3441 -0.3557 -0.1409
  702MOL0     H92620   7.884   0.113   4.530  0.4360  0.7686 -2.3483
  702MOL0     H92621   7.848   0.283   4.528  0.6014 -0.1500 -0.7429
  702MOL0     H92622   8.000   0.169   4.743  2.7323  3.4331 -3.5623
  702MOL0     H92623   7.899   0.320   4.743 -2.0743  0.1767 -2.5514
  702MOL0     H92624   7.789   0.110   4.877  2.5386  0.9169 -0.2078
  702MOL0     H92625   7.755   0.045   4.716 -1.2542  0.5190  0.3489
  702MOL0     H92626   7.498   0.389   4.806  1.0345 -0.5413 -0.0918
  702MOL0     H92627   7.286   0.369   4.952  0.1120  1.6505 -1.6270
  702MOL0     H92628   6.883   0.110   5.121 -0.5020  1.2241  0.8613
  702MOL0     H92629   6.749   0.033   5.301  0.3426  0.9638 -2.2650
  702MOL0     H92630   6.927  -0.164   5.626  1.0332  1.0196 -0.6679
  702MOL0     H92631   6.878  -0.323   5.554 -2.4259  0.0736 -0.1642
  702MOL0     H92632   6.713  -0.135   5.730 -0.6272 -0.1130 -0.5123
  702MOL0     H92633   6.788  -0.282   5.789 -2.3240 -3.4136  0.4474
  702MOL0     H92634   6.646  -0.399   5.612 -1.4096 -1.5301  1.1111
  702MOL0     H92635   6.573  -0.233   5.596  4.2930  2.4221 -1.2411
  702MOL0     H92636   6.547  -0.433   5.825  1.5411 -0.2250 -1.5899
  702MOL0     H92637   6.530  -0.277   5.875  1.9368 -1.9004  1.9928
  702MOL0     H92638   6.366  -0.368   5.646  1.0985  1.7649 -1.2514
  702MOL0     H92639   6.355  -0.216   5.712 -1.0465 -1.5371 -2.6205
  702MOL0     H92640   6.180  -0.313   5.839  1.6154  3.3404 -1.7464
  702MOL0     H92641   6.306  -0.351   5.951  1.1965  0.7801 -1.0979
  702MOL0     H92642   6.319  -0.583   5.787  0.4250 -1.6034  1.3875
  702MOL0     H92643   6.202  -0.566   5.920 -2.2918 -1.2592 -2.1369
  702MOL0     H92644   6.145  -0.529   5.620  0.9728  0.2560 -0.4680
  702MOL0     H92645   6.032  -0.479   5.753 -0.8432 -1.5371 -0.6312
  702MOL0     H92646   7.055  -0.254   5.402  0.2971 -1.0230 -2.1973
  702MOL0     H92647   7.184  -0.191   5.230 -0.8920 -2.6895  1.7359
  702MOL0     H92648   7.348  -0.056   4.939 -2.2185  1.7042  0.5648
  702MOL0     H92649   7.565  -0.025   4.802 -1.4238  0.8938 -3.4151
  702MOL0     H92650   9.067   0.431   3.797  1.4219 -2.6365 -0.4760
  702MOL0     H92651   9.277   0.380   3.691 -0.0061 -2.3178 -0.0156
  702MOL0     H92652   9.678   0.369   3.465  1.0835 -1.1775 -1.4086
  702MOL0     H92653   9.863   0.217   3.373  1.3857 -2.1796  0.3265
  702MOL0     H92654  10.128  -0.075   3.549 -2.1492 -0.3175  0.4702
  702MOL0     H92655  10.100   0.045   3.687  0.4923  1.4658  0.0620
  702MOL0     H92656  10.227   0.164   3.442  0.3892  1.3712  1.0901
  702MOL0     H92657  10.265   0.187   3.610  0.6646 -0.8395  0.9534
  702MOL0     H92658  10.349  -0.074   3.483 -0.0185 -1.2225  3.9936
  702MOL0     H92659  10.385  -0.004   3.639  0.2777 -0.4040 -0.1572
  702MOL0     H92660  10.552  -0.002   3.455 -0.5395 -0.0827 -3.4011
  702MOL0     H92661  10.445   0.109   3.365  0.2224  3.1287  0.6297
  702MOL0     H92662  10.602   0.385   3.619  0.5367 -1.0979  0.1539
  702MOL0     H92663   9.891   0.036   3.752  0.2385 -1.5585 -0.8286
  702MOL0     H92664   9.701   0.159   3.834  3.1423 -2.5420  1.1193
  703MOL0     O92665   0.381   7.195   4.968 -0.4963 -0.1010 -0.0115
  703MOL0     C92666   0.369   7.099   5.047  0.1811  0.0779  0.2680
  703MOL0     O92667   0.240   7.061   5.094  0.1018  0.1981  0.1341
  703MOL0     C92668   0.119   7.101   5.051 -0.0920  0.3319  0.3025
  703MOL0     C92669   0.018   7.024   5.114 -0.0945  0.1593 -0.3053
  703MOL0     C92670  -0.116   7.056   5.089 -0.3093 -0.4914 -0.3063
  703MOL0     C92671  -0.150   7.160   5.000  0.1834 -0.5824  0.8062
  703MOL0     O92672  -0.285   7.195   4.980 -0.6718 -0.5386  0.0997
  703MOL0     C92673  -0.341   7.140   4.858  0.2976 -0.0088  0.8079
  703MOL0     C92674  -0.472   7.068   4.895  0.4899  0.2824 -0.0522
  703MOL0     C92675  -0.448   6.920   4.934 -0.2202  0.3183  0.1166
  703MOL0     C92676  -0.582   6.836   4.927  0.3725 -0.3756 -0.0773
  703MOL0     C92677  -0.699   6.899   5.013  0.3060 -0.2867  0.3272
  703MOL0     C92678  -0.812   6.798   5.019  0.0710  0.2731  0.3679
  703MOL0     C92679  -0.939   6.882   5.068 -0.1281 -0.9774  0.5856
  703MOL0     C92680  -1.067   6.806   5.046 -0.2516 -0.0259 -0.5623
  703MOL0     N92681  -1.185   6.896   5.055  0.6482  0.0863  1.0146
  703MOL0     C92682  -1.245   6.966   4.949 -0.8335 -0.1773  0.5083
  703MOL0     C92683  -1.298   7.073   5.011  0.2367 -1.0240 -0.5937
  703MOL0     C92684  -1.371   7.183   4.934 -0.1874 -0.3445 -0.5758
  703MOL0     C92685  -1.518   7.187   4.985 -0.2136  0.3525 -0.1325
  703MOL0     C92686  -1.598   7.272   4.892 -0.1511  0.4592 -0.3011
  703MOL0     C92687  -1.745   7.276   4.929 -0.0162 -0.4043 -0.1244
  703MOL0     O92688  -1.768   7.386   5.018 -0.0884  1.0588 -0.1438
  703MOL0     C92689  -1.893   7.427   5.041 -0.6286  0.2495  0.5873
  703MOL0     C92690  -2.011   7.369   4.986  0.4498 -0.2573 -0.3840
  703MOL0     C92691  -2.130   7.416   5.018  1.4569  0.4134  0.5722
  703MOL0     C92692  -2.150   7.536   5.084  1.0051 -1.0623  0.4729
  703MOL0     C92693  -2.289   7.581   5.133 -0.1364  0.8716  0.4299
  703MOL0     O92694  -2.289   7.693   5.209  0.5880  0.0784  0.8312
  703MOL0     C92695  -2.405   7.756   5.234 -0.1637 -0.3551 -0.1248
  703MOL0     C92696  -2.435   7.883   5.177  0.1441  0.1469  0.3645
  703MOL0     C92697  -2.560   7.952   5.205 -0.2998  0.8473 -0.7377
  703MOL0     C92698  -2.657   7.894   5.290 -0.7946 -0.5167 -0.4604
  703MOL0     O92699  -2.772   7.963   5.307  0.1689  0.4669 -0.4295
  703MOL0     C92700  -2.874   7.930   5.404  0.4371 -0.7410  0.5349
  703MOL0     C92701  -2.848   7.977   5.548  0.6189  0.1112 -0.0661
  703MOL0     C92702  -2.842   8.132   5.570  0.7175  0.5694 -0.3760
  703MOL0     C92703  -2.718   8.201   5.504 -0.3227 -0.1085 -0.6637
  703MOL0     C92704  -2.705   8.353   5.541 -0.2495  0.1915  0.7195
  703MOL0     C92705  -2.605   8.431   5.457  1.0916  0.4507 -0.7004
  703MOL0     C92706  -2.625   8.582   5.477 -0.1671  0.1526 -0.2671
  703MOL0     C92707  -2.551   8.657   5.366 -0.1369 -0.1244 -0.3908
  703MOL0    Cl92708  -2.379   8.631   5.367 -0.1751  0.0980  0.1869
  703MOL0     C92709  -2.628   7.765   5.346  0.6493  1.7377 -0.0552
  703MOL0     C92710  -2.501   7.706   5.322  0.2264 -0.4706 -0.0784
  703MOL0     O92711  -2.387   7.521   5.081  0.3138  0.0212 -0.2717
  703MOL0     C92712  -2.028   7.603   5.125  0.1739 -0.0231  0.5897
  703MOL0     C92713  -1.901   7.548   5.103 -0.5594  0.4683  0.4311
  703MOL0     N92714  -1.286   7.067   5.143 -0.0281 -0.1441 -0.5191
  703MOL0     N92715  -1.212   6.963   5.175 -0.4909  0.5394 -0.6437
  703MOL0     C92716  -0.049   7.231   4.938 -0.8127  0.2136  0.0244
  703MOL0     C92717   0.092   7.201   4.959  0.5731 -0.8185 -0.3875
  703MOL0     C92718   0.493   7.022   5.080 -0.0359  0.7960 -0.2107
  703MOL0     C92719   0.485   6.892   5.145 -0.2871  0.0555 -0.2853
  703MOL0     C92720   0.597   6.812   5.160 -0.5607  0.1654  0.3630
  703MOL0     C92721   0.726   6.865   5.142  0.7464  0.6689  0.0946
  703MOL0     O92722   0.837   6.799   5.184  0.4459  0.4365  0.4919
  703MOL0     C92723   0.844   6.653   5.167  0.0835 -0.6015  0.5668
  703MOL0     C92724   0.986   6.592   5.142 -1.4140  0.1622  0.8679
  703MOL0     C92725   1.070   6.598   5.275  0.2832 -0.2981 -0.0927
  703MOL0     C92726   1.213   6.548   5.234  0.6585 -0.2597  0.5206
  703MOL0     C92727   1.311   6.594   5.334 -0.0699  0.7340  0.2842
  703MOL0     C92728   1.403   6.636   5.402 -0.6437 -0.5406 -0.6936
  703MOL0     C92729   0.737   6.985   5.069 -0.2925  0.4194  0.8001
  703MOL0     C92730   0.622   7.062   5.036 -0.0312 -0.1349  0.6177
  703MOL0     H92731   0.045   6.955   5.193  0.4810  0.3705 -0.3129
  703MOL0     H92732  -0.197   7.001   5.137  0.0314  1.0653  2.2030
  703MOL0     H92733  -0.271   7.071   4.809  2.7942  1.0532  2.6578
  703MOL0     H92734  -0.371   7.226   4.797  3.1593  3.1400  3.4348
  703MOL0     H92735  -0.538   7.079   4.809  0.2514  0.8507  0.1959
  703MOL0     H92736  -0.523   7.117   4.979  2.3714  0.0504  1.2846
  703MOL0     H92737  -0.408   6.917   5.036  0.4577  1.2698 -0.1063
  703MOL0     H92738  -0.372   6.877   4.869 -1.5575 -0.4971 -0.9747
  703MOL0     H92739  -0.610   6.835   4.821  1.1450  3.6913 -0.5101
  703MOL0     H92740  -0.555   6.738   4.965  0.7447 -1.2551 -2.4561
  703MOL0     H92741  -0.738   6.979   4.949  0.4780  1.4310  2.2735
  703MOL0     H92742  -0.661   6.937   5.108  0.5662 -2.6642  1.2234
  703MOL0     H92743  -0.802   6.725   5.099 -2.5404 -1.3628 -0.6866
  703MOL0     H92744  -0.832   6.747   4.924 -1.7667  0.9312  0.3641
  703MOL0     H92745  -0.929   6.919   5.170 -0.6283  2.9248 -0.6334
  703MOL0     H92746  -0.945   6.969   5.002 -0.7422 -0.6801  1.0252
  703MOL0     H92747  -1.071   6.739   5.132 -0.4261 -0.8574 -1.2021
  703MOL0     H92748  -1.068   6.744   4.956  0.5277  0.8305 -1.1777
  703MOL0     H92749  -1.236   6.940   4.845  0.6734 -0.9620  0.8034
  703MOL0     H92750  -1.370   7.159   4.827 -0.6075 -2.6702 -0.1043
  703MOL0     H92751  -1.328   7.282   4.948 -2.1371  0.5568 -0.5967
  703MOL0     H92752  -1.517   7.225   5.087 -2.8262 -1.3429  0.6327
  703MOL0     H92753  -1.560   7.086   4.980 -0.4668  0.4932 -1.3666
  703MOL0     H92754  -1.556   7.373   4.902  3.6611 -0.9845 -0.0771
  703MOL0     H92755  -1.588   7.245   4.786 -2.3095  0.1881 -0.4720
  703MOL0     H92756  -1.784   7.181   4.966 -1.1874 -1.4458 -3.6751
  703MOL0     H92757  -1.802   7.297   4.838  0.6514  1.3459 -0.1757
  703MOL0     H92758  -2.015   7.282   4.921 -0.9654  0.2148 -0.9502
  703MOL0     H92759  -2.213   7.354   4.987 -2.1759  3.1095  3.7408
  703MOL0     H92760  -2.362   7.930   5.113 -1.3118  3.8282  1.1513
  703MOL0     H92761  -2.571   8.054   5.172 -0.5097  1.9374  2.3646
  703MOL0     H92762  -2.883   7.821   5.397  0.9174 -0.7348 -0.3915
  703MOL0     H92763  -2.971   7.971   5.376  0.6366 -1.2042 -0.9338
  703MOL0     H92764  -2.759   7.922   5.580  0.9417 -0.3865 -1.6843
  703MOL0     H92765  -2.934   7.944   5.606  0.0531  1.4351 -0.1052
  703MOL0     H92766  -2.844   8.151   5.678  1.8396 -0.7941 -0.0835
  703MOL0     H92767  -2.932   8.178   5.528  0.0333  0.0801  0.5089
  703MOL0     H92768  -2.625   8.149   5.531 -1.6477 -1.7585  1.0537
  703MOL0     H92769  -2.711   8.193   5.396  0.3329 -1.7433 -0.5264
  703MOL0     H92770  -2.655   8.364   5.638  2.2476  3.7528 -0.7181
  703MOL0     H92771  -2.799   8.406   5.529 -0.2136  0.6401  2.1354
  703MOL0     H92772  -2.624   8.413   5.350  0.7466  1.5469 -0.8362
  703MOL0     H92773  -2.503   8.398   5.480  0.1112 -1.6249  1.0277
  703MOL0     H92774  -2.732   8.603   5.466 -0.3200  0.2067  1.1445
  703MOL0     H92775  -2.593   8.627   5.572 -1.1457 -2.2628  1.3150
  703MOL0     H92776  -2.573   8.764   5.370  0.7803  0.3133 -3.9721
  703MOL0     H92777  -2.587   8.616   5.271  3.2862 -0.2022 -1.7815
  703MOL0     H92778  -2.679   7.711   5.425  2.2004  3.0853  1.9585
  703MOL0     H92779  -2.484   7.620   5.386 -2.9974 -0.2000  1.3219
  703MOL0     H92780  -2.029   7.698   5.177 -2.0211 -0.1670  0.9031
  703MOL0     H92781  -1.820   7.602   5.152 -1.8632  2.1855  0.7898
  703MOL0     H92782  -0.059   7.315   4.871 -2.8010  0.7016  0.8639
  703MOL0     H92783   0.164   7.259   4.901  0.0680  0.2435  0.0117
  703MOL0     H92784   0.385   6.867   5.178 -0.0868 -1.9470 -1.0226
  703MOL0     H92785   0.581   6.712   5.200  2.0412  0.6980  3.0487
  703MOL0     H92786   0.792   6.623   5.075  1.2168  1.3832 -0.7851
  703MOL0     H92787   0.800   6.590   5.245 -0.3080 -1.3808 -0.2569
  703MOL0     H92788   0.976   6.491   5.101 -1.9742  0.8195 -0.7136
  703MOL0     H92789   1.036   6.651   5.064  1.4780 -2.1571  0.8251
  703MOL0     H92790   1.030   6.531   5.352  0.7758 -0.8448 -0.3087
  703MOL0     H92791   1.079   6.698   5.321 -0.8602 -0.5474  0.7098
  703MOL0     H92792   1.216   6.439   5.226  1.6468 -0.1878 -0.4535
  703MOL0     H92793   1.228   6.585   5.132 -1.1228 -2.2235 -0.5225
  703MOL0     H92794   1.469   6.681   5.473 -0.3394 -1.4393 -0.3954
  703MOL0     H92795   0.837   7.017   5.039 -0.5784 -0.2510 -1.0536
  703MOL0     H92796   0.632   7.162   4.995 -1.2821 -0.2472 -0.0106
  704MOL0     O92797   2.645   0.871   6.980  0.7639  0.1864 -0.1666
  704MOL0     C92798   2.661   0.752   6.969  0.6957 -0.3142 -0.0457
  704MOL0     O92799   2.567   0.649   6.990 -0.7429  0.0744  0.0770
  704MOL0     C92800   2.437   0.692   6.989 -0.6021 -0.5680  0.3764
  704MOL0     C92801   2.376   0.780   6.897  0.0049 -0.1788 -0.1246
  704MOL0     C92802   2.241   0.802   6.898  0.2260 -0.3491 -0.7586
  704MOL0     C92803   2.155   0.733   6.988 -0.3678  0.0947  0.1178
  704MOL0     O92804   2.024   0.763   6.987  0.6088  0.2825 -0.5536
  704MOL0     C92805   1.938   0.660   6.932  0.2455 -0.9832 -0.4778
  704MOL0     C92806   1.792   0.705   6.939 -0.5280 -0.6115 -0.1047
  704MOL0     C92807   1.750   0.808   6.827  0.0224  0.4603 -0.7624
  704MOL0     C92808   1.609   0.825   6.829  0.6221  0.0589  0.0990
  704MOL0     C92809   1.572   0.976   6.826  0.5787 -0.5477  0.2920
  704MOL0     C92810   1.432   1.010   6.817  0.5591  0.5054  0.1212
  704MOL0     C92811   1.405   1.161   6.855  0.5424 -0.4186 -0.5443
  704MOL0     C92812   1.255   1.179   6.864 -0.4316  0.6196 -0.0888
  704MOL0     N92813   1.178   1.156   6.738 -0.2834  0.4340 -0.0597
  704MOL0     C92814   1.221   1.188   6.609 -1.1029  0.2544 -0.3415
  704MOL0     C92815   1.116   1.147   6.526 -1.0326 -0.8336  0.2327
  704MOL0     C92816   1.114   1.165   6.371 -1.3528 -0.9557  0.3306
  704MOL0     C92817   1.188   1.044   6.306  0.9085  0.1213  0.4269
  704MOL0     C92818   1.185   1.053   6.155 -0.1774  0.9677 -0.4949
  704MOL0     C92819   1.281   1.158   6.107  0.5787  0.4636  0.1177
  704MOL0     O92820   1.330   1.141   5.972  0.6568  0.1043  0.2946
  704MOL0     C92821   1.451   1.069   5.967  0.7196  0.0566 -0.7005
  704MOL0     C92822   1.493   0.987   6.070 -0.8711 -0.5218  0.1648
  704MOL0     C92823   1.618   0.927   6.060 -0.6965 -0.0920 -0.3426
  704MOL0     C92824   1.713   0.951   5.952  0.0786  0.1140  0.0629
  704MOL0     C92825   1.840   0.890   5.948 -0.7027 -0.7205 -0.3185
  704MOL0     O92826   1.924   0.936   5.849 -0.2519 -0.7221  0.7508
  704MOL0     C92827   2.059   0.913   5.842  0.0910  0.0275 -0.1969
  704MOL0     C92828   2.148   1.008   5.799  0.1530  0.4389 -0.2589
  704MOL0     C92829   2.291   0.976   5.786  0.1553  0.7862 -0.4261
  704MOL0     C92830   2.333   0.844   5.809 -0.0400 -0.0964 -0.1560
  704MOL0     O92831   2.468   0.823   5.807  0.5191  0.9397 -0.1684
  704MOL0     C92832   2.523   0.774   5.933  0.4966  0.0808  0.1903
  704MOL0     C92833   2.566   0.623   5.912 -0.0108 -0.2177  0.4508
  704MOL0     C92834   2.716   0.620   5.862  0.2679  0.3919 -0.2602
  704MOL0     C92835   2.757   0.466   5.884  0.0151 -0.0501 -0.2604
  704MOL0     C92836   2.888   0.436   5.806 -0.0894 -0.1947  0.2985
  704MOL0     C92837   2.956   0.314   5.849 -0.6406 -0.4316 -0.1653
  704MOL0     C92838   3.096   0.298   5.791 -0.8284  0.4535 -0.0088
  704MOL0     C92839   3.173   0.171   5.837  0.2958 -0.8309 -0.7972
  704MOL0    Cl92840   3.199   0.179   6.009 -0.1181  0.2810 -0.4290
  704MOL0     C92841   2.235   0.743   5.847  0.2228 -0.1893 -0.0952
  704MOL0     C92842   2.107   0.784   5.869  0.1913 -0.4797 -0.1619
  704MOL0     O92843   1.880   0.805   6.037 -0.2960  0.3444 -0.5744
  704MOL0     C92844   1.674   1.048   5.857 -1.0620 -0.3262 -0.4305
  704MOL0     C92845   1.541   1.096   5.862  0.2642 -0.0948 -0.2371
  704MOL0     N92846   1.008   1.106   6.605 -0.1227 -0.3640  0.4602
  704MOL0     N92847   1.048   1.115   6.735  0.5143 -0.7656 -0.8303
  704MOL0     C92848   2.211   0.646   7.077  0.0159  0.5102 -0.5180
  704MOL0     C92849   2.351   0.628   7.072 -0.2610  0.3721  0.6504
  704MOL0     C92850   2.795   0.702   6.926 -0.0232 -0.2936  0.0694
  704MOL0     C92851   2.828   0.564   6.946 -0.4808  0.0275 -0.6826
  704MOL0     C92852   2.966   0.521   6.924 -0.4795 -0.2559 -0.6768
  704MOL0     C92853   3.058   0.623   6.887 -0.1387  0.1140 -0.5220
  704MOL0     O92854   3.193   0.596   6.868  0.4138  0.0779 -0.2562
  704MOL0     C92855   3.240   0.457   6.856  0.8692 -0.3623 -0.5967
  704MOL0     C92856   3.379   0.459   6.785  0.5033  0.8231  0.1687
  704MOL0     C92857   3.404   0.566   6.671 -0.2244 -0.1195  0.7414
  704MOL0     C92858   3.492   0.533   6.548  0.0986 -0.5804 -0.8351
  704MOL0     C92859   3.412   0.453   6.457 -0.3058  0.4238 -0.1496
  704MOL0     C92860   3.350   0.384   6.379  0.1806 -0.1709  0.5693
  704MOL0     C92861   3.025   0.758   6.868  0.0955 -0.2944  0.9384
  704MOL0     C92862   2.897   0.799   6.891  0.5500  0.2901  0.4281
  704MOL0     H92863   2.437   0.833   6.825 -0.2947 -0.5685 -0.6674
  704MOL0     H92864   2.183   0.874   6.840 -0.0725 -0.8361 -1.0771
  704MOL0     H92865   1.938   0.559   6.973  0.6377 -0.9906 -0.4900
  704MOL0     H92866   1.950   0.655   6.823 -1.4754  2.1943 -0.9494
  704MOL0     H92867   1.787   0.754   7.037 -0.9912  0.5143 -0.6810
  704MOL0     H92868   1.726   0.618   6.940 -0.1310 -0.9200  0.9595
  704MOL0     H92869   1.776   0.762   6.732  0.2025 -5.1868  1.6154
  704MOL0     H92870   1.810   0.899   6.833 -0.0073  0.3938  2.8169
  704MOL0     H92871   1.560   0.777   6.744  1.0722  2.1145 -1.4001
  704MOL0     H92872   1.573   0.776   6.920  1.8393 -0.4671  0.3207
  704MOL0     H92873   1.624   1.024   6.744  0.6006 -1.0871 -0.0165
  704MOL0     H92874   1.605   1.020   6.921  1.1154  0.1399 -0.2064
  704MOL0     H92875   1.387   0.940   6.888 -0.4541  0.7695 -0.2503
  704MOL0     H92876   1.396   0.983   6.718  1.9359 -2.8655  0.4208
  704MOL0     H92877   1.454   1.184   6.950  0.5997  1.5441 -1.0227
  704MOL0     H92878   1.444   1.224   6.776  2.2103  1.5426  1.6954
  704MOL0     H92879   1.237   1.285   6.888 -0.3296  0.7057 -0.3908
  704MOL0     H92880   1.210   1.121   6.945  1.3229  0.9620  1.1865
  704MOL0     H92881   1.315   1.235   6.582  0.8805 -2.9596  0.3574
  704MOL0     H92882   1.169   1.253   6.336 -2.8474  0.6521  1.8805
  704MOL0     H92883   1.018   1.183   6.323 -0.0872 -0.7703 -2.3404
  704MOL0     H92884   1.142   0.949   6.334  0.8275  0.6231  2.0676
  704MOL0     H92885   1.295   1.034   6.329  0.7006  1.0465  1.8452
  704MOL0     H92886   1.219   0.960   6.109  2.8320  2.2447 -1.1188
  704MOL0     H92887   1.086   1.086   6.122 -1.3871  0.4354  2.3507
  704MOL0     H92888   1.370   1.166   6.171 -0.3501 -1.2643  1.7163
  704MOL0     H92889   1.233   1.256   6.115  1.0116  0.9432 -2.3156
  704MOL0     H92890   1.428   0.967   6.155 -2.1502 -1.4671 -0.9746
  704MOL0     H92891   1.650   0.864   6.142  0.7601 -2.7526 -2.7624
  704MOL0     H92892   2.116   1.110   5.778 -2.8234 -0.2347  0.5276
  704MOL0     H92893   2.365   1.055   5.781 -0.2155  1.2486  0.8338
  704MOL0     H92894   2.448   0.768   6.013  1.4134 -0.7932  1.0006
  704MOL0     H92895   2.599   0.847   5.961  0.9819 -1.6264  3.8389
  704MOL0     H92896   2.494   0.570   5.850 -0.9076 -1.2050  2.2423
  704MOL0     H92897   2.553   0.575   6.010 -0.8758 -1.4461 -0.2466
  704MOL0     H92898   2.790   0.672   5.924 -0.0250 -1.4264  1.7262
  704MOL0     H92899   2.726   0.656   5.760  2.7199  1.7838  0.3997
  704MOL0     H92900   2.783   0.454   5.990 -3.0697  1.6195  0.8045
  704MOL0     H92901   2.675   0.406   5.844  2.5572 -3.4576 -0.7980
  704MOL0     H92902   2.961   0.513   5.833  2.1454 -2.2491  0.5391
  704MOL0     H92903   2.871   0.450   5.699 -1.7264 -0.5309  0.4934
  704MOL0     H92904   2.896   0.230   5.816 -0.7582 -0.8014  0.9411
  704MOL0     H92905   2.961   0.309   5.958 -0.6883  1.5731 -0.0243
  704MOL0     H92906   3.098   0.279   5.683  2.4769 -0.3036  0.0462
  704MOL0     H92907   3.159   0.381   5.823  0.0896  0.0556 -0.7232
  704MOL0     H92908   3.257   0.170   5.767  0.2611  4.0314 -1.2104
  704MOL0     H92909   3.128   0.072   5.826 -2.0495 -0.3619  2.9718
  704MOL0     H92910   2.266   0.641   5.869  0.3120  0.0014  0.7071
  704MOL0     H92911   2.029   0.714   5.897 -0.0779 -0.6759 -1.3646
  704MOL0     H92912   1.745   1.094   5.789 -1.0971 -1.0747 -0.9732
  704MOL0     H92913   1.515   1.168   5.785  0.0428  2.7872  2.3246
  704MOL0     H92914   2.141   0.593   7.140  0.6829  0.4303  0.1697
  704MOL0     H92915   2.399   0.550   7.130  0.2771 -1.0879 -1.6233
  704MOL0     H92916   2.762   0.493   6.994  1.5274  1.4037  4.8698
  704MOL0     H92917   3.007   0.424   6.948  1.2494 -0.1029 -2.7667
  704MOL0     H92918   3.169   0.395   6.801 -1.2476  2.2942 -1.0683
  704MOL0     H92919   3.241   0.410   6.955  0.6040 -3.1645 -1.8288
  704MOL0     H92920   3.460   0.470   6.858 -1.4461  1.6049  2.3464
  704MOL0     H92921   3.392   0.359   6.743 -1.4246 -0.4313  2.2903
  704MOL0     H92922   3.450   0.647   6.729  0.6435 -0.8145  1.0538
  704MOL0     H92923   3.307   0.598   6.632 -0.5938 -2.0045  0.0366
  704MOL0     H92924   3.524   0.627   6.502 -3.8708  0.7031 -1.3123
  704MOL0     H92925   3.579   0.470   6.571  0.3640 -0.2040 -0.7876
  704MOL0     H92926   3.302   0.331   6.300 -1.0798  1.1713  0.3817
  704MOL0     H92927   3.097   0.832   6.837 -0.1957  0.3656  1.7821
  704MOL0     H92928   2.876   0.905   6.877  2.0976  0.3293 -2.2767
  705MOL0     O92929   2.595   9.771   5.027 -0.5214  0.2128  0.0146
  705MOL0     C92930   2.635   9.882   5.057 -0.0411 -0.5532 -0.1278
  705MOL0     O92931   2.547   9.988   5.080 -0.2248 -0.5728  0.2573
  705MOL0     C92932   2.417   9.971   5.041 -0.4393 -0.3712  0.7189
  705MOL0     C92933   2.383   9.999   4.911 -0.4303  0.7777  0.1177
  705MOL0     C92934   2.247   9.994   4.870 -0.5191 -0.3262  0.6225
  705MOL0     C92935   2.142   9.986   4.952  0.4687 -0.2526  0.2517
  705MOL0     O92936   2.019  10.001   4.891  0.1081  0.0715  0.4975
  705MOL0     C92937   1.896  10.030   4.971  0.0821  0.7177 -0.4085
  705MOL0     C92938   1.774   9.987   4.892 -0.5626  0.3939 -0.7688
  705MOL0     C92939   1.638  10.049   4.944 -0.0100 -0.1632  0.2967
  705MOL0     C92940   1.523  10.000   4.851  0.2871 -0.3142  0.6666
  705MOL0     C92941   1.494   9.851   4.837  0.2391  0.0658 -0.5162
  705MOL0     C92942   1.368   9.822   4.756 -0.1825 -0.3491  1.1736
  705MOL0     C92943   1.234   9.860   4.821 -0.5173  1.4338  0.1250
  705MOL0     C92944   1.217   9.836   4.968  0.0729 -0.0634 -0.0637
  705MOL0     N92945   1.089   9.896   5.002  0.6164  0.3395 -0.4930
  705MOL0     C92946   1.081   9.989   5.106  0.5609 -0.4618 -0.6439
  705MOL0     C92947   0.950  10.023   5.116  0.3125 -0.7423  0.7598
  705MOL0     C92948   0.896  10.135   5.206 -0.3821  0.6624 -0.5084
  705MOL0     C92949   0.796  10.069   5.312 -0.3325  0.2385  0.5174
  705MOL0     C92950   0.678   9.998   5.248 -0.1280 -0.5093 -0.2971
  705MOL0     C92951   0.563   9.952   5.335  0.0501 -0.2681  1.3086
  705MOL0     O92952   0.483  10.069   5.344  0.0834 -0.4800  0.6281
  705MOL0     C92953   0.367  10.045   5.402 -0.0346  0.2479 -0.3463
  705MOL0     C92954   0.251  10.090   5.356 -0.4138  0.0748  0.7642
  705MOL0     C92955   0.122  10.066   5.412 -0.4163 -0.2070 -0.2833
  705MOL0     C92956   0.106   9.989   5.526 -0.2996 -0.3532  1.0151
  705MOL0     C92957  -0.019   9.975   5.589 -0.4240 -0.7724  0.4921
  705MOL0     O92958  -0.120  10.062   5.547  0.3938  0.4835  1.1240
  705MOL0     C92959  -0.242  10.057   5.617 -0.8260 -0.1292  0.1578
  705MOL0     C92960  -0.264  10.147   5.726  0.0453 -0.2596  0.2303
  705MOL0     C92961  -0.372  10.119   5.804 -0.0869  0.7109  0.3387
  705MOL0     C92962  -0.464  10.015   5.767 -0.3956  0.1370 -0.6438
  705MOL0     O92963  -0.585   9.997   5.830  0.1668 -0.2542 -0.1297
  705MOL0     C92964  -0.643  10.102   5.901 -0.4898  0.1611  0.2037
  705MOL0     C92965  -0.787  10.085   5.927 -0.3571  0.1594 -0.4066
  705MOL0     C92966  -0.843  10.191   6.023  1.3992  0.4028 -0.2174
  705MOL0     C92967  -0.988  10.175   6.047 -0.1316  0.9855 -0.2107
  705MOL0     C92968  -1.057  10.271   6.145  0.0656  0.3616 -0.4256
  705MOL0     C92969  -1.073  10.419   6.100  0.0597 -0.8313  0.4293
  705MOL0     C92970  -1.142  10.506   6.208  0.5249  0.0687 -0.0150
  705MOL0     C92971  -1.173  10.651   6.157  0.3590  0.3305 -0.0519
  705MOL0    Cl92972  -1.247  10.755   6.282  0.3519  0.7082  0.0407
  705MOL0     C92973  -0.434   9.930   5.663 -0.6757  0.3388 -0.0022
  705MOL0     C92974  -0.324   9.952   5.585 -0.2575 -0.2401  1.0718
  705MOL0     O92975  -0.038   9.893   5.676 -0.2459 -0.4922  0.1154
  705MOL0     C92976   0.236   9.946   5.586  0.6419 -0.9462 -0.0442
  705MOL0     C92977   0.354   9.976   5.517 -0.5868  1.0427 -0.3376
  705MOL0     N92978   0.879   9.944   5.023 -0.1638  0.0823 -0.8098
  705MOL0     N92979   0.965   9.879   4.946 -0.2023 -0.3596 -0.0185
  705MOL0     C92980   2.175   9.978   5.092  0.8960 -0.0795 -0.3723
  705MOL0     C92981   2.314   9.952   5.128  1.4180 -0.2808 -0.2831
  705MOL0     C92982   2.776   9.909   5.083  0.3163  0.0313 -0.0473
  705MOL0     C92983   2.818  10.036   5.120 -0.4446  0.6957 -0.1096
  705MOL0     C92984   2.955  10.061   5.140 -0.5106  0.3757  0.2529
  705MOL0     C92985   3.047   9.965   5.144  0.0796 -0.0891 -0.8527
  705MOL0     O92986   3.176  10.002   5.149  0.0837 -0.5280 -0.8473
  705MOL0     C92987   3.254   9.936   5.245  0.2931 -0.3311  0.0832
  705MOL0     C92988   3.381  10.013   5.274 -0.4766  0.0702  0.1301
  705MOL0     C92989   3.460   9.939   5.383 -0.6032 -0.3941  0.4213
  705MOL0     C92990   3.584  10.014   5.425 -0.0264  0.3472 -0.8510
  705MOL0     C92991   3.695  10.023   5.326  0.4515 -0.9121  0.8502
  705MOL0     C92992   3.778  10.036   5.239  1.0043 -0.2045  0.0468
  705MOL0     C92993   3.005   9.832   5.118 -0.0752 -0.6334  0.2280
  705MOL0     C92994   2.870   9.805   5.084 -0.0489 -0.4141  0.5859
  705MOL0     H92995   2.456  10.011   4.831 -0.4383  0.0250 -0.0100
  705MOL0     H92996   2.234   9.999   4.762  2.9467  1.4630  0.1249
  705MOL0     H92997   1.889  10.138   4.987  3.2978  0.8195  1.1366
  705MOL0     H92998   1.891   9.979   5.067 -0.1007  0.3820 -0.5947
  705MOL0     H92999   1.773   9.879   4.908 -5.2300  0.3686  0.4697
  705MOL0     H93000   1.774  10.008   4.785 -2.2810  0.6499 -0.7555
  705MOL0     H93001   1.641  10.158   4.950 -0.4204 -0.1991  1.2280
  705MOL0     H93002   1.617  10.008   5.043 -1.7661 -0.3160 -0.1188
  705MOL0     H93003   1.433  10.036   4.901 -1.1984 -2.4166 -0.3178
  705MOL0     H93004   1.543  10.038   4.750  1.4132 -1.2114  0.5307
  705MOL0     H93005   1.485   9.801   4.934  0.6583  2.7226  0.9769
  705MOL0     H93006   1.580   9.806   4.786  0.3887  0.3087 -0.4812
  705MOL0     H93007   1.381   9.716   4.734  0.8739 -0.1881  1.0037
  705MOL0     H93008   1.373   9.869   4.658  1.3674 -1.9639  0.4090
  705MOL0     H93009   1.207   9.962   4.790 -0.8887  1.6003  0.9631
  705MOL0     H93010   1.165   9.788   4.776  0.7974  0.5397 -0.5012
  705MOL0     H93011   1.292   9.879   5.035 -0.8211 -1.5865  2.0429
  705MOL0     H93012   1.229   9.729   4.989 -0.0743  0.3269  2.1553
  705MOL0     H93013   1.160  10.031   5.168  1.0381  0.2849 -1.7355
  705MOL0     H93014   0.857  10.217   5.145  1.1879  1.1856 -0.8532
  705MOL0     H93015   0.976  10.189   5.257 -0.7406  0.9635 -0.2560
  705MOL0     H93016   0.756  10.139   5.386 -0.1015 -1.5304  2.3878
  705MOL0     H93017   0.857   9.996   5.365  1.3076  0.9249 -0.3365
  705MOL0     H93018   0.646  10.057   5.161 -0.6722 -0.5600 -0.1325
  705MOL0     H93019   0.706   9.902   5.204  0.4991 -2.0129  3.0428
  705MOL0     H93020   0.619   9.916   5.421  0.2259 -0.6673  1.0260
  705MOL0     H93021   0.508   9.875   5.280  2.6298 -0.2696 -1.5335
  705MOL0     H93022   0.241  10.135   5.258 -1.8652  0.5238  1.0905
  705MOL0     H93023   0.030  10.104   5.368 -1.2496  1.3998  2.5969
  705MOL0     H93024  -0.185  10.221   5.736 -2.0564  2.0261  0.7084
  705MOL0     H93025  -0.388  10.172   5.898 -0.2405  1.1722  0.0550
  705MOL0     H93026  -0.627  10.193   5.842  0.0434 -0.5462 -0.7692
  705MOL0     H93027  -0.582  10.106   5.992  1.2095 -1.8235 -0.7616
  705MOL0     H93028  -0.789   9.984   5.971 -1.4846 -0.0368 -0.8781
  705MOL0     H93029  -0.842  10.076   5.833 -0.2278 -0.9535 -0.3973
  705MOL0     H93030  -0.835  10.288   5.974 -2.8842  1.6416  1.1167
  705MOL0     H93031  -0.803  10.187   6.125  1.7201  2.6297 -0.2082
  705MOL0     H93032  -1.041  10.187   5.952 -2.1087 -0.9589  0.5615
  705MOL0     H93033  -1.018  10.077   6.085  0.4262  1.4486  1.5108
  705MOL0     H93034  -1.004  10.271   6.241  0.4576 -0.0955 -0.6344
  705MOL0     H93035  -1.153  10.226   6.171  0.8640 -1.7489 -0.9291
  705MOL0     H93036  -1.139  10.412   6.014 -2.8494  1.2551  2.3295
  705MOL0     H93037  -0.978  10.459   6.063  0.8313 -3.4494 -0.6470
  705MOL0     H93038  -1.235  10.457   6.236 -1.5155  2.0639 -2.7460
  705MOL0     H93039  -1.071  10.536   6.286  0.5062  0.7672 -0.2555
  705MOL0     H93040  -1.234  10.638   6.068  0.7656 -2.7919  0.0383
  705MOL0     H93041  -1.078  10.696   6.124  2.3582 -2.0301  2.0419
  705MOL0     H93042  -0.503   9.850   5.638  0.2948 -1.0452  1.5103
  705MOL0     H93043  -0.300   9.903   5.491  0.8022  2.3201 -0.1012
  705MOL0     H93044   0.238   9.917   5.691 -0.5081  1.4098  0.7052
  705MOL0     H93045   0.444   9.948   5.571 -0.1387  0.6867 -1.2492
  705MOL0     H93046   2.093   9.983   5.163  0.4211  3.2891 -0.9954
  705MOL0     H93047   2.336   9.936   5.233  0.5557  0.3767  0.0075
  705MOL0     H93048   2.748  10.118   5.133 -1.3132 -0.0698  0.2945
  705MOL0     H93049   2.981  10.166   5.142  0.9940  0.1994 -3.1955
  705MOL0     H93050   3.281   9.835   5.211  0.3469 -0.3977  0.3188
  705MOL0     H93051   3.207   9.928   5.344  0.0227 -0.2704 -0.0410
  705MOL0     H93052   3.447  10.015   5.187 -0.9399 -0.3318 -0.2351
  705MOL0     H93053   3.363  10.116   5.307 -1.5779 -0.0879  0.0708
  705MOL0     H93054   3.508   9.845   5.352  1.4422  1.1212 -1.3489
  705MOL0     H93055   3.402   9.929   5.475 -0.3875  1.7346  0.8380
  705MOL0     H93056   3.566  10.120   5.446  1.5895  1.1098 -2.9215
  705MOL0     H93057   3.637   9.970   5.510 -0.1374  2.4412  0.3972
  705MOL0     H93058   3.855  10.039   5.164  1.4379 -1.0039  0.4443
  705MOL0     H93059   3.085   9.758   5.117  0.2875 -0.2916 -2.5651
  705MOL0     H93060   2.838   9.707   5.052  2.1784 -0.4876 -1.7661
  706MOL0     O93061   0.469   6.800  11.209 -0.2496 -1.0388 -0.1699
  706MOL0     C93062   0.504   6.701  11.273  0.0851  1.0532 -0.3910
  706MOL0     O93063   0.419   6.627  11.355 -0.3115 -0.0253 -0.5747
  706MOL0     C93064   0.290   6.673  11.365  0.7883  0.8889  0.2811
  706MOL0     C93065   0.181   6.607  11.303 -1.5280 -0.4737  0.2095
  706MOL0     C93066   0.055   6.659  11.308 -0.1806  0.0378  0.6737
  706MOL0     C93067   0.024   6.777  11.373 -0.4149  0.6938  0.1266
  706MOL0     O93068  -0.100   6.824  11.396 -0.4748  0.5537 -0.1244
  706MOL0     C93069  -0.208   6.738  11.354  0.9937  0.2110  1.0880
  706MOL0     C93070  -0.343   6.759  11.426  0.1085 -0.9401 -0.4886
  706MOL0     C93071  -0.390   6.631  11.498  0.3956 -0.3576  0.4813
  706MOL0     C93072  -0.529   6.668  11.557  0.5656 -0.3155 -1.0561
  706MOL0     C93073  -0.608   6.547  11.592  0.1776  0.6721 -0.0752
  706MOL0     C93074  -0.757   6.575  11.604  0.9274 -0.1389  0.4050
  706MOL0     C93075  -0.801   6.697  11.691  0.0988  0.1593  0.3138
  706MOL0     C93076  -0.755   6.700  11.839  0.2771  0.4412 -0.1662
  706MOL0     N93077  -0.777   6.575  11.905 -0.2850 -0.0806  0.1154
  706MOL0     C93078  -0.896   6.508  11.937 -0.6935 -0.4749 -0.3800
  706MOL0     C93079  -0.857   6.391  12.002 -0.6127 -0.5304  0.3812
  706MOL0     C93080  -0.937   6.271  12.052 -0.2738  0.9578 -0.4114
  706MOL0     C93081  -1.089   6.297  12.075 -0.3209 -0.5055 -0.2556
  706MOL0     C93082  -1.138   6.362  12.199 -0.3055 -0.3553 -0.1321
  706MOL0     C93083  -1.287   6.317  12.216 -0.1160  0.4383  0.5128
  706MOL0     O93084  -1.390   6.372  12.132  0.6161  0.2414  0.1092
  706MOL0     C93085  -1.525   6.349  12.155 -0.2314  0.3440  0.0958
  706MOL0     C93086  -1.583   6.247  12.236 -0.3826 -0.0258  0.2302
  706MOL0     C93087  -1.722   6.230  12.241 -0.3636  0.6923  0.2845
  706MOL0     C93088  -1.811   6.320  12.179  0.1286 -0.2228 -0.3021
  706MOL0     C93089  -1.951   6.301  12.199 -0.0068  0.1867  0.1336
  706MOL0     O93090  -2.032   6.365  12.104 -0.0769  0.3298 -0.2925
  706MOL0     C93091  -2.170   6.350  12.119  0.7572 -0.9580 -0.1695
  706MOL0     C93092  -2.223   6.226  12.136  0.6464 -0.8543  0.1927
  706MOL0     C93093  -2.355   6.222  12.174  0.2878  0.0617 -0.2837
  706MOL0     C93094  -2.440   6.332  12.181  0.4374 -0.2604  0.2213
  706MOL0     O93095  -2.560   6.302  12.236 -0.6314 -0.3782 -0.2701
  706MOL0     C93096  -2.667   6.384  12.191 -0.5354 -0.1903 -0.0794
  706MOL0     C93097  -2.791   6.317  12.223  0.5787 -0.1029  0.2958
  706MOL0     C93098  -2.914   6.385  12.152  0.0497  0.3559 -1.0592
  706MOL0     C93099  -3.046   6.314  12.189  0.0034 -0.6247 -0.0310
  706MOL0     C93100  -3.028   6.174  12.124  0.2417  0.1821  0.2430
  706MOL0     C93101  -3.167   6.111  12.124  0.5250  0.3632  0.4812
  706MOL0     C93102  -3.184   5.967  12.072 -0.0801 -0.2300 -0.3412
  706MOL0     C93103  -3.330   5.931  12.044  0.7629 -0.5658  0.5890
  706MOL0    Cl93104  -3.441   5.956  12.193 -0.5027  0.2235  0.4230
  706MOL0     C93105  -2.393   6.461  12.140  0.5175  0.4628 -0.1371
  706MOL0     C93106  -2.260   6.463  12.110  0.5097  0.7264 -0.2010
  706MOL0     O93107  -1.994   6.243  12.301 -0.4101 -0.0497 -0.3605
  706MOL0     C93108  -1.744   6.428  12.100  0.3043  0.7473  0.2755
  706MOL0     C93109  -1.610   6.437  12.089 -0.4955 -0.6912 -0.5459
  706MOL0     N93110  -0.712   6.382  11.990  0.2880  0.1702  0.1791
  706MOL0     N93111  -0.670   6.496  11.941  1.1271 -0.0899 -0.2173
  706MOL0     C93112   0.126   6.847  11.429  0.0965 -0.6315  0.2931
  706MOL0     C93113   0.261   6.797  11.421 -0.1196  0.7031 -1.1479
  706MOL0     C93114   0.634   6.638  11.251 -0.3104  0.7967 -0.2452
  706MOL0     C93115   0.701   6.554  11.345 -0.7208  0.2715  0.4831
  706MOL0     C93116   0.829   6.498  11.318  0.0530 -0.5139  0.7752
  706MOL0     C93117   0.892   6.511  11.182  0.6267  0.7771 -1.4699
  706MOL0     O93118   1.013   6.457  11.138  0.3118  0.2111 -0.3657
  706MOL0     C93119   1.110   6.435  11.246 -0.2479 -0.1446  1.1502
  706MOL0     C93120   1.152   6.565  11.332  0.0347  0.4053  0.4309
  706MOL0     C93121   1.223   6.664  11.244  0.0194 -0.0607  0.0758
  706MOL0     C93122   1.356   6.606  11.196  0.0108 -0.0555 -0.6958
  706MOL0     C93123   1.453   6.706  11.167  0.0588 -0.0839 -0.3094
  706MOL0     C93124   1.544   6.794  11.169 -0.2550  0.8733  0.3933
  706MOL0     C93125   0.815   6.586  11.092 -0.7236  0.8882  0.5452
  706MOL0     C93126   0.693   6.645  11.120 -0.3883 -0.5898 -0.4739
  706MOL0     H93127   0.186   6.511  11.252  2.1370  1.0050 -2.7067
  706MOL0     H93128  -0.024   6.611  11.252  0.4813 -1.7416  1.2143
  706MOL0     H93129  -0.191   6.630  11.358  0.0672  0.0668  1.4724
  706MOL0     H93130  -0.223   6.758  11.247  0.0280 -1.1405  0.9408
  706MOL0     H93131  -0.429   6.787  11.365 -0.7004  0.1608  1.0877
  706MOL0     H93132  -0.327   6.844  11.493 -1.0606 -0.3239 -0.9780
  706MOL0     H93133  -0.319   6.583  11.567  0.4334 -1.2436 -0.1598
  706MOL0     H93134  -0.409   6.552  11.425  0.5034  0.0614 -0.0036
  706MOL0     H93135  -0.515   6.735  11.642 -1.5068 -0.1828 -0.7597
  706MOL0     H93136  -0.589   6.723  11.483 -0.2673  1.2645  0.6965
  706MOL0     H93137  -0.572   6.502  11.685 -0.0616 -1.7404 -1.0796
  706MOL0     H93138  -0.589   6.468  11.518  0.2629 -0.8234  1.4767
  706MOL0     H93139  -0.815   6.484  11.624  0.4816  0.2429  0.8570
  706MOL0     H93140  -0.781   6.602  11.501 -1.5101  1.3190  1.2577
  706MOL0     H93141  -0.759   6.787  11.646  1.3812  1.1927  3.3353
  706MOL0     H93142  -0.911   6.694  11.692 -0.0031  0.0158 -2.8645
  706MOL0     H93143  -0.817   6.771  11.895 -0.4038 -0.2533 -0.0204
  706MOL0     H93144  -0.649   6.726  11.841 -0.2700  2.8972 -0.1120
  706MOL0     H93145  -1.001   6.536  11.939 -1.0818 -1.4583 -3.1512
  706MOL0     H93146  -0.892   6.245  12.148 -2.4254 -1.0676  0.1364
  706MOL0     H93147  -0.929   6.182  11.989  0.1261 -0.5436  1.6341
  706MOL0     H93148  -1.122   6.194  12.063 -0.7378 -0.3297 -0.6452
  706MOL0     H93149  -1.126   6.353  11.988 -0.2428 -2.5825 -1.6841
  706MOL0     H93150  -1.088   6.325  12.289 -0.2942 -1.9840 -0.7771
  706MOL0     H93151  -1.124   6.471  12.196 -0.2514 -0.3026  1.1480
  706MOL0     H93152  -1.323   6.341  12.316 -0.3963 -1.3617  0.8932
  706MOL0     H93153  -1.283   6.208  12.205  2.6883  0.6678 -2.0832
  706MOL0     H93154  -1.521   6.177  12.291  1.9885  1.7201 -0.0935
  706MOL0     H93155  -1.766   6.147  12.296 -3.2852  2.2748  0.5034
  706MOL0     H93156  -2.169   6.132  12.145  0.7207 -0.7432  0.9746
  706MOL0     H93157  -2.398   6.129  12.210  0.6384  1.1828  3.4142
  706MOL0     H93158  -2.669   6.389  12.082 -0.3574 -1.4714 -0.1632
  706MOL0     H93159  -2.660   6.479  12.243  0.6092 -0.6928  0.7219
  706MOL0     H93160  -2.795   6.317  12.333 -0.1181  2.6712  0.3468
  706MOL0     H93161  -2.778   6.212  12.196  1.5969 -0.2033  1.0896
  706MOL0     H93162  -2.915   6.380  12.042 -2.7852  1.6499 -1.1916
  706MOL0     H93163  -2.914   6.492  12.175 -0.1627  0.1257  0.0729
  706MOL0     H93164  -3.070   6.312  12.295 -1.0600  1.7671 -0.1617
  706MOL0     H93165  -3.127   6.362  12.133  0.6969 -0.0867 -0.5842
  706MOL0     H93166  -2.962   6.122  12.195  0.2767  2.0779  1.6671
  706MOL0     H93167  -2.987   6.166  12.023  0.0791 -3.7112  0.3232
  706MOL0     H93168  -3.230   6.179  12.066 -2.6724 -1.6665  1.2897
  706MOL0     H93169  -3.206   6.113  12.226  3.0703 -0.9857  1.5800
  706MOL0     H93170  -3.123   5.958  11.982  2.6534  0.2622  1.3480
  706MOL0     H93171  -3.133   5.899  12.140 -0.0885 -1.3158 -1.3806
  706MOL0     H93172  -3.338   5.822  12.040 -0.2563 -0.5641  1.7660
  706MOL0     H93173  -3.372   5.977  11.954 -3.1066 -1.5158  1.7107
  706MOL0     H93174  -2.462   6.545  12.145 -1.6226 -1.2860  3.6906
  706MOL0     H93175  -2.223   6.562  12.085 -0.5363  0.9159 -1.0814
  706MOL0     H93176  -1.805   6.504  12.051  1.3777  1.5364  0.1237
  706MOL0     H93177  -1.584   6.513  12.016 -0.6617  0.3685  0.4529
  706MOL0     H93178   0.112   6.935  11.492  0.1821 -1.3161  1.2799
  706MOL0     H93179   0.336   6.852  11.477 -0.6519 -0.8732  1.2646
  706MOL0     H93180   0.665   6.530  11.445  1.0812 -2.5875  0.5862
  706MOL0     H93181   0.878   6.441  11.396 -0.2219  0.6023  1.7930
  706MOL0     H93182   1.204   6.391  11.209 -0.4180 -0.2190  0.8063
  706MOL0     H93183   1.074   6.356  11.313  1.2354 -0.7277  1.3200
  706MOL0     H93184   1.063   6.614  11.373  0.4303 -0.2363  2.1510
  706MOL0     H93185   1.215   6.551  11.420 -1.2769  1.3417  1.5587
  706MOL0     H93186   1.246   6.751  11.306 -0.4066 -0.4406  0.7839
  706MOL0     H93187   1.158   6.701  11.164 -0.5967  0.3688  0.7626
  706MOL0     H93188   1.391   6.531  11.267  0.5901 -0.6045 -1.5447
  706MOL0     H93189   1.334   6.546  11.106  1.5094  1.0573 -1.8633
  706MOL0     H93190   1.614   6.876  11.174  1.1962 -0.3744  1.9743
  706MOL0     H93191   0.854   6.598  10.991 -3.3988 -0.6105 -0.7691
  706MOL0     H93192   0.656   6.708  11.040  0.7157 -0.5360 -0.9712
  707MOL0     O93193   2.670   7.279   8.765 -0.3453  0.1657 -0.0803
  707MOL0     C93194   2.693   7.357   8.855  0.0921  0.9298 -0.5440
  707MOL0     O93195   2.604   7.391   8.956 -0.5219  0.5658  0.6060
  707MOL0     C93196   2.474   7.352   8.960 -0.5725 -0.0172 -0.3598
  707MOL0     C93197   2.401   7.276   8.860  0.7090  0.1002  0.5322
  707MOL0     C93198   2.274   7.223   8.884 -0.0930  0.0940 -0.3463
  707MOL0     C93199   2.214   7.249   9.011 -0.0424 -0.1392  0.7566
  707MOL0     O93200   2.090   7.200   9.039  0.0027  0.3503 -0.4016
  707MOL0     C93201   1.989   7.304   9.032 -1.3685 -0.0165 -0.4690
  707MOL0     C93202   1.862   7.270   9.102  0.3228 -0.1201  0.3141
  707MOL0     C93203   1.808   7.127   9.078  0.1939  0.3201  0.0520
  707MOL0     C93204   1.666   7.115   9.130  0.7796  0.6452  0.1837
  707MOL0     C93205   1.599   6.978   9.104  0.4468  0.2635  0.6278
  707MOL0     C93206   1.588   6.929   8.962 -0.2189  0.2438  0.1159
  707MOL0     C93207   1.530   7.038   8.872 -0.0297 -0.0085 -0.8039
  707MOL0     C93208   1.394   7.083   8.918 -0.1006  0.1240 -0.0884
  707MOL0     N93209   1.302   6.978   8.898  0.7271  0.5857 -0.6435
  707MOL0     C93210   1.210   6.933   8.998 -1.0093  0.1099 -0.9497
  707MOL0     C93211   1.133   6.841   8.941 -0.4639  0.0980 -0.0336
  707MOL0     C93212   1.024   6.766   9.015 -0.4374 -0.0500  0.0236
  707MOL0     C93213   1.071   6.631   9.064 -0.9434  0.0402  0.2946
  707MOL0     C93214   1.150   6.629   9.196  0.2403  0.4771  0.9189
  707MOL0     C93215   1.233   6.510   9.213  0.5151 -0.2214  0.6885
  707MOL0     O93216   1.337   6.532   9.312 -0.6911 -0.1032 -0.0705
  707MOL0     C93217   1.467   6.532   9.264 -0.8178 -0.2104  0.0947
  707MOL0     C93218   1.567   6.466   9.332 -1.5268 -1.1592 -0.2277
  707MOL0     C93219   1.699   6.470   9.293 -0.3571  0.0158 -0.3038
  707MOL0     C93220   1.739   6.550   9.180 -0.4617 -0.8585 -0.3817
  707MOL0     C93221   1.877   6.563   9.130  0.5518 -0.0022  0.0983
  707MOL0     O93222   1.897   6.646   9.017  0.4140  0.2867 -0.0907
  707MOL0     C93223   2.032   6.683   8.984  0.2823 -0.2309 -0.2409
  707MOL0     C93224   2.081   6.813   9.006  0.8952 -0.1773 -0.3749
  707MOL0     C93225   2.210   6.848   8.977 -0.0746 -0.7794 -0.2722
  707MOL0     C93226   2.297   6.753   8.912 -0.2432  0.4272  0.8838
  707MOL0     O93227   2.426   6.795   8.876  0.2389  0.0877 -0.1313
  707MOL0     C93228   2.488   6.914   8.939  0.1266  0.9338  0.3094
  707MOL0     C93229   2.639   6.928   8.912  0.0288 -0.0174  0.4088
  707MOL0     C93230   2.739   6.841   8.996  0.7373 -0.0704  0.2045
  707MOL0     C93231   2.870   6.863   8.929  0.0201  0.0735 -0.0663
  707MOL0     C93232   2.978   6.802   9.024  0.1984 -0.1185 -0.5438
  707MOL0     C93233   3.117   6.806   8.961 -0.4478  0.0779  0.7169
  707MOL0     C93234   3.224   6.758   9.052 -0.2723  0.0892 -0.4743
  707MOL0     C93235   3.228   6.602   9.095  0.3330 -0.4090  0.0511
  707MOL0    Cl93236   3.377   6.558   9.179  0.1305 -0.4345 -0.0571
  707MOL0     C93237   2.249   6.620   8.890 -0.4523  0.7133 -0.8418
  707MOL0     C93238   2.125   6.583   8.934 -0.1937 -0.0503 -1.0164
  707MOL0     O93239   1.962   6.510   9.194 -0.5818 -0.0692 -0.6295
  707MOL0     C93240   1.638   6.616   9.111  0.1529  0.5231 -0.9589
  707MOL0     C93241   1.507   6.606   9.156 -0.1348 -0.2068 -0.9238
  707MOL0     N93242   1.172   6.833   8.808  0.3792 -0.5861 -0.2013
  707MOL0     N93243   1.273   6.909   8.783  0.1831  0.1552 -0.6899
  707MOL0     C93244   2.283   7.329   9.104  0.5694  0.6759  0.8421
  707MOL0     C93245   2.407   7.381   9.077 -1.4956  0.7040 -0.5914
  707MOL0     C93246   2.821   7.418   8.857 -0.3472 -0.4673 -0.1829
  707MOL0     C93247   2.942   7.350   8.815  0.0757 -0.2259 -0.6533
  707MOL0     C93248   3.065   7.419   8.819 -0.5750  0.5030 -0.5277
  707MOL0     C93249   3.075   7.551   8.872  0.2097 -0.2063  0.1876
  707MOL0     O93250   3.202   7.592   8.882  0.3591  0.6852 -0.2685
  707MOL0     C93251   3.231   7.700   8.966 -0.1544  0.4651  0.8244
  707MOL0     C93252   3.379   7.731   8.982  0.2937 -0.3684  0.2000
  707MOL0     C93253   3.454   7.640   9.072  0.0813 -1.1326 -0.3281
  707MOL0     C93254   3.599   7.638   9.019  0.7935  0.8162 -0.6738
  707MOL0     C93255   3.664   7.527   9.094 -0.3690  0.7945 -0.2864
  707MOL0     C93256   3.714   7.436   9.156  0.2700  0.3084  0.3001
  707MOL0     C93257   2.955   7.621   8.908 -0.6550  0.6729 -0.1011
  707MOL0     C93258   2.834   7.555   8.890 -0.7447  0.1311  0.4548
  707MOL0     H93259   2.433   7.257   8.758 -1.5548  2.1353 -0.6631
  707MOL0     H93260   2.228   7.148   8.820 -1.1852  0.8202 -0.4470
  707MOL0     H93261   1.968   7.322   8.926  3.2771  0.6075 -1.5368
  707MOL0     H93262   2.027   7.398   9.075 -0.5891 -1.1609  1.4889
  707MOL0     H93263   1.788   7.339   9.061  1.8957 -0.5888 -3.7375
  707MOL0     H93264   1.878   7.285   9.209 -2.1806 -1.9263  1.0537
  707MOL0     H93265   1.882   7.058   9.120  1.1735  0.5061 -1.2780
  707MOL0     H93266   1.807   7.125   8.968  0.5753  2.1235 -0.0272
  707MOL0     H93267   1.660   7.118   9.239  2.5910 -2.1288  0.4702
  707MOL0     H93268   1.615   7.199   9.082 -1.8024  1.4255  3.8969
  707MOL0     H93269   1.505   6.969   9.159  0.3397  1.2979  0.6258
  707MOL0     H93270   1.662   6.905   9.156 -1.2239 -1.2678  0.6296
  707MOL0     H93271   1.535   6.833   8.952  1.6318 -0.9985  1.4651
  707MOL0     H93272   1.689   6.911   8.924  0.4033 -0.1505  1.8706
  707MOL0     H93273   1.605   7.117   8.862 -1.6063  2.0397  1.9732
  707MOL0     H93274   1.518   6.999   8.771  2.7740 -1.0201 -0.8264
  707MOL0     H93275   1.361   7.169   8.860 -0.6584 -0.1396 -0.1657
  707MOL0     H93276   1.383   7.110   9.023 -1.9198  1.1571 -0.5124
  707MOL0     H93277   1.212   6.955   9.105  1.3584 -0.7139 -0.7777
  707MOL0     H93278   0.946   6.740   8.942  0.0592 -1.9709  0.1304
  707MOL0     H93279   0.980   6.822   9.098  2.0800 -1.3936  2.4213
  707MOL0     H93280   1.122   6.573   8.986 -1.9463  3.9233 -3.7173
  707MOL0     H93281   0.977   6.580   9.086 -2.6007  0.4812 -4.4451
  707MOL0     H93282   1.213   6.718   9.204  0.4466  0.4637 -0.3466
  707MOL0     H93283   1.085   6.621   9.283 -0.7891  0.8976  0.2058
  707MOL0     H93284   1.289   6.481   9.123  1.4352  1.0154  0.8444
  707MOL0     H93285   1.167   6.431   9.251 -1.7590  1.5299  0.5551
  707MOL0     H93286   1.541   6.408   9.421  1.4527  1.0767  2.3192
  707MOL0     H93287   1.781   6.412   9.335 -0.4726  0.5948  0.7642
  707MOL0     H93288   2.011   6.884   9.047 -1.7161 -3.7369  1.8780
  707MOL0     H93289   2.253   6.944   9.003 -2.3784  0.9441 -2.4062
  707MOL0     H93290   2.480   6.911   9.048 -0.5454  1.0626  0.2687
  707MOL0     H93291   2.440   7.007   8.904 -0.4140  0.9333  1.0104
  707MOL0     H93292   2.672   7.031   8.930  0.0398  0.0800 -0.1582
  707MOL0     H93293   2.650   6.913   8.805 -0.8524 -1.5721  0.5041
  707MOL0     H93294   2.699   6.739   8.988 -2.1095  0.8429  1.5048
  707MOL0     H93295   2.737   6.866   9.102 -2.0753 -0.7369  0.3970
  707MOL0     H93296   2.883   6.837   8.823 -1.3215  1.5739 -0.6354
  707MOL0     H93297   2.876   6.972   8.927 -2.7273  0.3253  0.9267
  707MOL0     H93298   2.954   6.697   9.044  0.2161 -0.1142 -0.5010
  707MOL0     H93299   2.976   6.854   9.120 -0.1682  0.7681 -1.0172
  707MOL0     H93300   3.130   6.910   8.928 -0.4422  0.2939  1.3852
  707MOL0     H93301   3.109   6.737   8.877 -2.3685  0.9459  0.1261
  707MOL0     H93302   3.323   6.777   9.009  0.0377 -0.6635 -0.1100
  707MOL0     H93303   3.217   6.828   9.135 -0.0915 -0.8149  0.3268
  707MOL0     H93304   3.220   6.540   9.006  2.0198 -1.2741  0.4592
  707MOL0     H93305   3.146   6.575   9.163 -1.2650 -2.3185 -2.4478
  707MOL0     H93306   2.312   6.547   8.839 -0.1502  1.4585 -1.5566
  707MOL0     H93307   2.095   6.478   8.928 -1.4142  0.0937  1.2704
  707MOL0     H93308   1.658   6.671   9.019 -0.4519 -1.3118 -2.2513
  707MOL0     H93309   1.435   6.659   9.095 -0.6528  1.0020  0.6651
  707MOL0     H93310   2.233   7.339   9.200 -2.1890  0.8099 -0.5249
  707MOL0     H93311   2.461   7.430   9.157  0.9635 -1.4884 -0.7686
  707MOL0     H93312   2.932   7.255   8.764 -1.5638 -0.3496 -0.1810
  707MOL0     H93313   3.150   7.359   8.787 -0.8242 -2.1068  3.1195
  707MOL0     H93314   3.186   7.675   9.063 -2.6157 -0.5743 -0.4741
  707MOL0     H93315   3.185   7.797   8.945  1.4902  1.6370  2.3365
  707MOL0     H93316   3.416   7.739   8.880 -2.0966  1.8343 -0.5997
  707MOL0     H93317   3.390   7.832   9.022  2.3210 -0.3815 -0.1816
  707MOL0     H93318   3.411   7.540   9.063  0.2014 -1.1674 -0.5381
  707MOL0     H93319   3.449   7.675   9.175  4.2397 -2.0732  0.3850
  707MOL0     H93320   3.602   7.614   8.913  1.2558  1.2656 -0.7624
  707MOL0     H93321   3.656   7.730   9.033  2.7874 -0.1131 -2.1057
  707MOL0     H93322   3.768   7.359   9.206  0.9028  0.0356 -0.7600
  707MOL0     H93323   2.966   7.729   8.912 -0.2856  0.5932  1.4903
  707MOL0     H93324   2.738   7.601   8.911 -0.7095  1.5907 -2.2137
  708MOL0     O93325   5.009  10.787   7.740 -0.0533  0.0472  0.1945
  708MOL0     C93326   5.061  10.730   7.650  0.2356  0.6648  0.5909
  708MOL0     O93327   5.008  10.626   7.583  0.1358  0.0349 -0.6262
  708MOL0     C93328   4.874  10.603   7.606  0.3880 -0.4253  0.7357
  708MOL0     C93329   4.783  10.692   7.538  0.5339  0.4676  0.6457
  708MOL0     C93330   4.645  10.658   7.544 -0.1338  0.1443 -0.6773
  708MOL0     C93331   4.604  10.542   7.615 -0.2273 -0.6311  0.0673
  708MOL0     O93332   4.469  10.506   7.607 -0.6582 -0.3948 -0.1309
  708MOL0     C93333   4.440  10.367   7.571 -0.5933  0.7047 -0.0983
  708MOL0     C93334   4.318  10.341   7.483  0.5352  0.8376 -0.6554
  708MOL0     C93335   4.323  10.410   7.348  0.1129 -0.7364  0.1028
  708MOL0     C93336   4.233  10.332   7.253  0.1964 -0.1037  0.4368
  708MOL0     C93337   4.256  10.389   7.116 -0.0649 -0.5774 -0.0349
  708MOL0     C93338   4.161  10.337   7.017  0.4231  0.3089  0.1648
  708MOL0     C93339   4.006  10.368   7.024 -0.2885  0.3429  0.9493
  708MOL0     C93340   3.953  10.433   6.894  0.2385 -0.1130 -0.4916
  708MOL0     N93341   3.963  10.575   6.901 -0.2748  0.0114  0.1579
  708MOL0     C93342   4.081  10.638   6.878 -0.6825 -0.0368 -0.1315
  708MOL0     C93343   4.050  10.772   6.888  0.3823 -0.2415 -0.0680
  708MOL0     C93344   4.134  10.893   6.862  0.7892  0.9270 -0.6369
  708MOL0     C93345   4.109  10.949   6.723  0.6164  0.1007 -0.4011
  708MOL0     C93346   4.168  11.091   6.713  0.2927 -0.0932  0.1773
  708MOL0     C93347   4.317  11.108   6.734  0.2251  0.0479  0.1188
  708MOL0     O93348   4.391  11.015   6.660  0.3756  0.2494 -0.4373
  708MOL0     C93349   4.522  11.032   6.699  0.2449  0.0985  0.7999
  708MOL0     C93350   4.596  11.138   6.638 -0.3117  1.0849 -0.6992
  708MOL0     C93351   4.725  11.163   6.673 -1.0881 -0.5584 -0.1904
  708MOL0     C93352   4.791  11.082   6.769  0.4929 -0.0641  0.6575
  708MOL0     C93353   4.928  11.115   6.796 -0.6955  0.5311 -0.7648
  708MOL0     O93354   4.985  11.216   6.739  0.1172 -0.3273  0.0972
  708MOL0     C93355   5.107  11.263   6.751  0.2560 -0.7302  0.0628
  708MOL0     C93356   5.184  11.261   6.866 -0.0196  0.2717 -0.4802
  708MOL0     C93357   5.309  11.332   6.864  0.0133  0.5483  0.7045
  708MOL0     C93358   5.352  11.393   6.749 -1.0351 -0.3530  0.4314
  708MOL0     O93359   5.474  11.460   6.734  0.1467  0.1941  0.3635
  708MOL0     C93360   5.568  11.463   6.846  0.8603  1.0062  0.4458
  708MOL0     C93361   5.630  11.315   6.868 -0.0730 -0.7718  0.4910
  708MOL0     C93362   5.787  11.320   6.864 -0.2610 -0.5271 -0.2260
  708MOL0     C93363   5.847  11.389   6.988 -0.4511 -0.3256  0.3132
  708MOL0     C93364   6.004  11.424   6.976  1.0056  0.0516 -0.1483
  708MOL0     C93365   6.072  11.472   7.106 -0.2425 -0.2069 -0.7367
  708MOL0     C93366   6.221  11.432   7.125  0.3203  0.1825 -0.0191
  708MOL0     C93367   6.303  11.498   7.019 -0.5200  0.6922 -0.0680
  708MOL0    Cl93368   6.320  11.395   6.867 -0.4266 -0.0513  0.6918
  708MOL0     C93369   5.276  11.397   6.634 -0.2919 -1.0012 -0.4619
  708MOL0     C93370   5.151  11.338   6.637  0.3845 -0.5791 -0.9934
  708MOL0     O93371   4.989  11.039   6.880  0.1449 -0.3800  0.0442
  708MOL0     C93372   4.720  10.978   6.829  0.3876  0.1901 -0.0850
  708MOL0     C93373   4.589  10.944   6.788  0.2399 -0.0436 -0.3471
  708MOL0     N93374   3.908  10.780   6.898 -0.0368  0.1468 -0.0783
  708MOL0     N93375   3.863  10.667   6.920  0.8612  0.6430  0.0268
  708MOL0     C93376   4.695  10.446   7.664  0.4557 -0.4343 -0.1649
  708MOL0     C93377   4.828  10.484   7.667  0.2026 -0.3145  0.3266
  708MOL0     C93378   5.200  10.772   7.616  0.6961  0.5401  0.2193
  708MOL0     C93379   5.278  10.837   7.711 -0.0365  0.8103  0.1064
  708MOL0     C93380   5.399  10.889   7.675  0.1831 -0.5715  0.3091
  708MOL0     C93381   5.455  10.864   7.549  0.1059 -0.9405  0.8018
  708MOL0     O93382   5.583  10.914   7.525  0.3413  0.8622 -0.3700
  708MOL0     C93383   5.678  10.855   7.437 -0.1409 -0.5197  0.6321
  708MOL0     C93384   5.716  10.712   7.468 -0.7787  0.4842  0.6163
  708MOL0     C93385   5.830  10.658   7.369  0.7518 -0.8176  0.1693
  708MOL0     C93386   5.897  10.524   7.386 -0.5811  0.8183 -0.2823
  708MOL0     C93387   5.820  10.419   7.323  0.4350 -0.2341  0.2785
  708MOL0     C93388   5.751  10.331   7.268 -0.1352  0.2896 -0.2783
  708MOL0     C93389   5.380  10.792   7.457 -0.2083  1.1125  0.2100
  708MOL0     C93390   5.255  10.738   7.489 -0.6932 -1.1713 -0.3823
  708MOL0     H93391   4.816  10.775   7.476 -1.2502  0.9682  0.2961
  708MOL0     H93392   4.569  10.713   7.490 -2.4135 -0.2606  1.9060
  708MOL0     H93393   4.432  10.306   7.662  3.0698 -2.0847 -1.4043
  708MOL0     H93394   4.527  10.324   7.520  0.2589  0.2288  1.6742
  708MOL0     H93395   4.228  10.368   7.539  1.5807  0.1506  1.4619
  708MOL0     H93396   4.309  10.233   7.467  1.2174  1.1502 -3.8828
  708MOL0     H93397   4.424  10.418   7.307  0.3190 -0.4237  0.6590
  708MOL0     H93398   4.293  10.513   7.368  2.6002 -0.1418  1.2007
  708MOL0     H93399   4.248  10.225   7.240 -0.0694  0.0318 -1.0550
  708MOL0     H93400   4.126  10.342   7.274  0.2366  0.8489  0.2333
  708MOL0     H93401   4.360  10.371   7.089 -0.0526 -2.2175  1.0212
  708MOL0     H93402   4.231  10.496   7.117 -1.7632 -0.9448 -0.7406
  708MOL0     H93403   4.157  10.229   7.031 -3.5927  0.5889  2.6032
  708MOL0     H93404   4.199  10.362   6.917 -3.5155 -0.9623 -1.8478
  708MOL0     H93405   3.953  10.272   7.021  0.4149 -0.0385 -0.8877
  708MOL0     H93406   3.976  10.421   7.115 -2.1214 -3.2295  2.6202
  708MOL0     H93407   3.850  10.399   6.880 -0.7029  2.5678 -0.6811
  708MOL0     H93408   4.014  10.405   6.808 -0.3283 -0.4557 -0.7912
  708MOL0     H93409   4.179  10.593   6.867 -0.4446  0.7501 -1.4331
  708MOL0     H93410   4.235  10.850   6.854 -0.3634 -2.0410 -0.6186
  708MOL0     H93411   4.119  10.968   6.941 -5.0595 -2.0086  1.6676
  708MOL0     H93412   4.002  10.957   6.706  0.1470  1.0351  2.3370
  708MOL0     H93413   4.148  10.889   6.641  0.3352 -1.9484  0.8975
  708MOL0     H93414   4.140  11.130   6.615  0.8353 -0.7963 -0.2664
  708MOL0     H93415   4.120  11.148   6.793 -2.1713  0.4388 -1.5703
  708MOL0     H93416   4.339  11.081   6.837  0.4865 -2.6837 -0.5876
  708MOL0     H93417   4.356  11.207   6.711  2.4257 -1.2784 -2.4278
  708MOL0     H93418   4.546  11.198   6.563 -4.2366 -1.1158 -0.1388
  708MOL0     H93419   4.773  11.246   6.622 -0.0477 -1.3102 -0.4736
  708MOL0     H93420   5.159  11.194   6.947 -1.4294  1.0251 -0.2602
  708MOL0     H93421   5.358  11.323   6.960 -2.1028 -2.2993  1.6433
  708MOL0     H93422   5.524  11.506   6.936 -2.9106 -1.0044 -0.2494
  708MOL0     H93423   5.643  11.533   6.807 -0.3226 -0.0982 -4.5387
  708MOL0     H93424   5.597  11.246   6.789 -4.1062  0.8424  0.5288
  708MOL0     H93425   5.596  11.282   6.966 -2.4867  2.7408  1.0055
  708MOL0     H93426   5.808  11.370   6.769 -1.4396 -0.3647 -0.4191
  708MOL0     H93427   5.829  11.219   6.864  0.2371 -0.3630  1.8025
  708MOL0     H93428   5.790  11.478   7.016  0.6111 -0.0804  1.8091
  708MOL0     H93429   5.835  11.325   7.075  2.3200  2.6753  3.1738
  708MOL0     H93430   6.010  11.500   6.897 -0.1847  1.0885  0.7078
  708MOL0     H93431   6.053  11.332   6.944 -1.5523 -1.9242  1.1890
  708MOL0     H93432   6.011  11.439   7.191 -2.1526  2.8649 -0.7780
  708MOL0     H93433   6.060  11.580   7.100 -0.9176 -0.3032 -1.2709
  708MOL0     H93434   6.250  11.469   7.223 -0.0911 -0.4832  0.3595
  708MOL0     H93435   6.232  11.325   7.108 -2.1036 -0.0315 -0.7023
  708MOL0     H93436   6.406  11.511   7.054 -0.4091 -0.8090  0.2297
  708MOL0     H93437   6.266  11.598   6.992  1.7063  1.3696 -0.8198
  708MOL0     H93438   5.300  11.448   6.541  0.3769 -0.6636 -0.1062
  708MOL0     H93439   5.075  11.356   6.562 -1.0815  1.3046  0.8400
  708MOL0     H93440   4.763  10.929   6.916  1.4436 -0.0165 -0.7142
  708MOL0     H93441   4.526  10.860   6.817 -0.4706  0.0849 -1.4637
  708MOL0     H93442   4.654  10.352   7.701 -0.7142 -0.6631 -1.9307
  708MOL0     H93443   4.908  10.424   7.709  1.4417  0.8876 -0.2115
  708MOL0     H93444   5.227  10.852   7.806  2.1316 -0.6921  1.6328
  708MOL0     H93445   5.443  10.944   7.757 -0.8460  0.9271 -0.1116
  708MOL0     H93446   5.774  10.906   7.448 -0.9248  1.5958 -1.3601
  708MOL0     H93447   5.659  10.869   7.330 -3.4804 -2.2278  0.8656
  708MOL0     H93448   5.752  10.722   7.571 -0.1021 -0.3177  0.4646
  708MOL0     H93449   5.625  10.651   7.463  0.3053 -1.4250  2.3165
  708MOL0     H93450   5.911  10.732   7.372 -0.3387  0.4121  0.1147
  708MOL0     H93451   5.787  10.657   7.268  0.9230  0.1553  0.0749
  708MOL0     H93452   5.998  10.521   7.343  0.4400 -1.8789  1.9969
  708MOL0     H93453   5.917  10.503   7.491  0.5436  0.9361 -0.4575
  708MOL0     H93454   5.689  10.268   7.207  2.8534  0.0004 -3.3316
  708MOL0     H93455   5.414  10.766   7.358 -4.6484 -2.3019 -0.7362
  708MOL0     H93456   5.206  10.689   7.406 -0.1301  0.4265 -1.7072
  709MOL0     O93457   8.348   6.861   5.659 -0.1409  0.3167 -0.8602
  709MOL0     C93458   8.421   6.941   5.602  0.1108 -0.5323  0.2137
  709MOL0     O93459   8.401   7.073   5.586  0.5500  0.0541 -0.1819
  709MOL0     C93460   8.302   7.144   5.646 -0.1732  0.0954 -0.1035
  709MOL0     C93461   8.260   7.123   5.778  0.2272 -0.4733 -0.3261
  709MOL0     C93462   8.174   7.209   5.846  0.6642  0.6504  0.0801
  709MOL0     C93463   8.117   7.314   5.772 -0.8268 -0.6493 -0.0033
  709MOL0     O93464   8.027   7.408   5.818  0.1601  0.0881 -0.5862
  709MOL0     C93465   8.024   7.416   5.959 -0.8595  0.6361 -0.4328
  709MOL0     C93466   7.941   7.529   6.006  0.2690 -0.1487 -0.3458
  709MOL0     C93467   7.791   7.532   5.953 -1.2578  0.4623 -0.2944
  709MOL0     C93468   7.716   7.645   6.016  0.2055 -0.2729  0.1534
  709MOL0     C93469   7.578   7.660   5.939 -0.3494 -0.3050  0.0089
  709MOL0     C93470   7.511   7.783   5.984  0.2708 -0.6584 -0.5613
  709MOL0     C93471   7.363   7.792   5.954 -0.4344 -0.0812 -0.4320
  709MOL0     C93472   7.315   7.814   5.813  0.8008  0.1040 -0.6905
  709MOL0     N93473   7.164   7.821   5.805  0.7878  0.2327 -0.1068
  709MOL0     C93474   7.078   7.711   5.798 -0.5599  0.1294 -0.2638
  709MOL0     C93475   6.959   7.760   5.800  0.8392 -0.2480 -0.2031
  709MOL0     C93476   6.827   7.682   5.775 -0.0483  0.2486 -0.4112
  709MOL0     C93477   6.707   7.752   5.831 -0.9060  0.0874 -0.2599
  709MOL0     C93478   6.587   7.656   5.809  0.2736 -0.3765  0.8780
  709MOL0     C93479   6.459   7.729   5.852 -0.0833  0.2471  0.7131
  709MOL0     O93480   6.397   7.782   5.742  1.3496 -0.3191  0.0532
  709MOL0     C93481   6.266   7.727   5.723 -0.1047  0.5452 -0.1778
  709MOL0     C93482   6.161   7.820   5.719  0.1741  0.1725  0.0414
  709MOL0     C93483   6.027   7.783   5.692  0.4510 -0.0482 -0.2079
  709MOL0     C93484   6.004   7.653   5.655 -0.0997 -0.2951  0.2471
  709MOL0     C93485   5.864   7.604   5.631 -0.4880  0.0121  0.0759
  709MOL0     O93486   5.770   7.703   5.624  0.0055 -0.3479  0.3768
  709MOL0     C93487   5.637   7.656   5.602  0.7103  0.3825  0.1778
  709MOL0     C93488   5.553   7.598   5.692 -0.6460 -0.4203 -0.3764
  709MOL0     C93489   5.421   7.575   5.663 -0.3734  1.3994  0.1287
  709MOL0     C93490   5.367   7.600   5.537 -0.0052  0.9303 -0.7726
  709MOL0     O93491   5.234   7.578   5.518 -0.6804  0.5761 -0.3490
  709MOL0     C93492   5.198   7.560   5.383 -0.6384  0.7068  0.2713
  709MOL0     C93493   5.067   7.484   5.378 -0.0761  0.1545  0.1538
  709MOL0     C93494   4.945   7.549   5.442 -0.2740  0.5726  0.1158
  709MOL0     C93495   4.811   7.466   5.427 -0.0885 -0.9157  0.6618
  709MOL0     C93496   4.688   7.557   5.442 -0.5608 -0.4712  0.2547
  709MOL0     C93497   4.545   7.499   5.446 -0.0485  0.3334 -0.2061
  709MOL0     C93498   4.485   7.497   5.310  0.8944  0.0114  0.1907
  709MOL0     C93499   4.342   7.433   5.320 -0.7255 -0.4430  0.1074
  709MOL0    Cl93500   4.226   7.521   5.411 -0.4924 -0.6056 -0.0793
  709MOL0     C93501   5.451   7.652   5.440 -0.0107  0.9161  0.4686
  709MOL0     C93502   5.588   7.675   5.470 -0.6776  0.8547  0.0068
  709MOL0     O93503   5.845   7.486   5.609  0.0204  0.2630  0.7558
  709MOL0     C93504   6.112   7.563   5.655  0.4054  0.0279  0.4726
  709MOL0     C93505   6.241   7.592   5.697 -0.5839  0.8052  0.2331
  709MOL0     N93506   6.965   7.899   5.802  0.0186  0.5527 -0.0191
  709MOL0     N93507   7.085   7.938   5.806  0.1549  0.2875  0.4354
  709MOL0     C93508   8.154   7.331   5.636 -0.2594  0.5286 -0.1078
  709MOL0     C93509   8.248   7.244   5.573 -0.0005 -0.6934 -0.6243
  709MOL0     C93510   8.536   6.885   5.537 -1.1255 -0.8860 -0.2217
  709MOL0     C93511   8.567   6.750   5.570  0.3808  0.2895 -0.3821
  709MOL0     C93512   8.687   6.698   5.517 -0.4761  0.2893  0.0822
  709MOL0     C93513   8.783   6.778   5.447 -0.5903  1.2562 -0.3369
  709MOL0     O93514   8.900   6.737   5.391 -0.3391 -0.2252  0.0051
  709MOL0     C93515   8.948   6.616   5.435 -0.6729  0.3094  0.1603
  709MOL0     C93516   9.100   6.626   5.424  0.3623  0.6195  1.0086
  709MOL0     C93517   9.153   6.749   5.488 -0.1375  0.0387 -1.2606
  709MOL0     C93518   9.307   6.734   5.529  0.0830  0.5190 -0.9845
  709MOL0     C93519   9.357   6.864   5.581 -0.0065  0.3098 -1.5826
  709MOL0     C93520   9.385   6.964   5.641  0.5400 -0.1008  0.2875
  709MOL0     C93521   8.744   6.905   5.412 -0.7831  0.2265  0.5268
  709MOL0     C93522   8.619   6.959   5.452 -1.1363  0.4756 -0.8057
  709MOL0     H93523   8.314   7.057   5.844  0.9935  1.8844  1.5524
  709MOL0     H93524   8.155   7.186   5.951  1.3793 -2.7731 -0.4251
  709MOL0     H93525   8.120   7.443   6.003 -2.0215  4.0956  0.3124
  709MOL0     H93526   7.996   7.316   5.991  5.0250 -1.1119  0.3684
  709MOL0     H93527   8.000   7.619   5.986  2.3310 -2.0690 -3.9646
  709MOL0     H93528   7.932   7.518   6.115  2.1756 -2.3556 -0.3271
  709MOL0     H93529   7.742   7.438   5.978 -1.0474  0.6635  0.9601
  709MOL0     H93530   7.814   7.551   5.848 -0.8421  1.3128 -0.0642
  709MOL0     H93531   7.707   7.637   6.124 -1.7158  4.3307  0.5672
  709MOL0     H93532   7.773   7.734   5.987 -1.5231  0.3891 -1.4654
  709MOL0     H93533   7.513   7.573   5.950 -1.4214  0.4063 -0.5238
  709MOL0     H93534   7.602   7.659   5.832 -2.7097 -1.1611 -0.5757
  709MOL0     H93535   7.562   7.870   5.942  0.5185 -0.9047 -0.7746
  709MOL0     H93536   7.508   7.778   6.093  0.3408  2.0657 -0.3735
  709MOL0     H93537   7.326   7.696   5.991  1.0011 -0.9670 -1.2098
  709MOL0     H93538   7.328   7.871   6.020  4.2885  1.7950  0.2009
  709MOL0     H93539   7.360   7.746   5.739  1.0579 -0.6259  0.1191
  709MOL0     H93540   7.354   7.915   5.797  2.2769 -0.1841  0.7807
  709MOL0     H93541   7.099   7.606   5.780 -0.4467 -0.1020  1.0700
  709MOL0     H93542   6.838   7.591   5.834 -2.6504  0.8494  1.1544
  709MOL0     H93543   6.815   7.652   5.670 -1.1324  2.0891 -0.8480
  709MOL0     H93544   6.700   7.853   5.789  0.3182  0.1639 -0.3163
  709MOL0     H93545   6.719   7.760   5.939  0.6798 -2.7330 -0.1377
  709MOL0     H93546   6.590   7.631   5.703 -1.2623 -0.4443  0.8272
  709MOL0     H93547   6.595   7.559   5.858  0.3641 -0.7663  0.1007
  709MOL0     H93548   6.472   7.805   5.929 -3.9029  1.6107  0.2094
  709MOL0     H93549   6.404   7.654   5.911 -0.9814  0.5453  0.2803
  709MOL0     H93550   6.176   7.924   5.747 -0.2673  0.3787 -0.4796
  709MOL0     H93551   5.944   7.851   5.707 -0.2079 -1.1919  1.6184
  709MOL0     H93552   5.594   7.563   5.787 -1.2164 -0.4021 -0.1218
  709MOL0     H93553   5.359   7.542   5.746 -1.9051 -2.4014 -2.2210
  709MOL0     H93554   5.265   7.501   5.319 -1.5245  1.1167 -1.0849
  709MOL0     H93555   5.178   7.654   5.332  3.9230  0.5278 -2.4541
  709MOL0     H93556   5.090   7.398   5.441  0.0098  0.8170  1.0592
  709MOL0     H93557   5.052   7.445   5.277  0.6651  2.1080 -0.7684
  709MOL0     H93558   4.926   7.644   5.392 -1.0121 -0.8512 -2.5491
  709MOL0     H93559   4.977   7.558   5.546  3.3835 -3.3474 -0.3746
  709MOL0     H93560   4.806   7.423   5.326 -1.1707  1.8105 -0.5566
  709MOL0     H93561   4.804   7.376   5.488 -1.0203 -1.1473  0.2465
  709MOL0     H93562   4.701   7.637   5.368  0.1355 -0.4395  0.4049
  709MOL0     H93563   4.693   7.601   5.542 -0.2924 -2.2770  1.0693
  709MOL0     H93564   4.485   7.560   5.515 -0.4199 -2.5131  2.1973
  709MOL0     H93565   4.544   7.406   5.503 -1.0322  0.9776  0.8925
  709MOL0     H93566   4.476   7.598   5.267 -1.1299 -0.1544  0.1290
  709MOL0     H93567   4.538   7.434   5.239 -1.6067 -1.1310 -0.8034
  709MOL0     H93568   4.346   7.329   5.355  2.1522 -1.8057 -3.5878
  709MOL0     H93569   4.302   7.436   5.218 -1.3128  0.3758  0.3535
  709MOL0     H93570   5.408   7.687   5.347 -0.1821 -0.9829 -0.2073
  709MOL0     H93571   5.653   7.715   5.393  0.8400 -0.9351  0.2965
  709MOL0     H93572   6.093   7.462   5.619  0.6879 -0.2903  1.1819
  709MOL0     H93573   6.320   7.519   5.681  0.4588  0.9650  3.8087
  709MOL0     H93574   8.102   7.403   5.575 -1.6754 -1.4228 -1.3290
  709MOL0     H93575   8.286   7.236   5.472  2.4577 -3.1351  0.3660
  709MOL0     H93576   8.513   6.682   5.636 -0.3268 -0.0407 -1.2773
  709MOL0     H93577   8.715   6.593   5.527  0.1584  0.5607  1.2626
  709MOL0     H93578   8.908   6.529   5.381  1.6823  0.5849 -2.2168
  709MOL0     H93579   8.930   6.616   5.543 -2.3728  4.0650  0.0368
  709MOL0     H93580   9.142   6.536   5.471  0.3484  0.3622  0.5297
  709MOL0     H93581   9.115   6.634   5.316 -1.4151  2.2757  0.8301
  709MOL0     H93582   9.104   6.765   5.585  1.1981 -0.7278 -0.4216
  709MOL0     H93583   9.143   6.838   5.425  2.7340  1.8546  0.5849
  709MOL0     H93584   9.318   6.656   5.606  0.3432 -0.3669 -1.9022
  709MOL0     H93585   9.368   6.708   5.443  1.7283  1.0266 -0.0200
  709MOL0     H93586   9.410   7.057   5.687  1.4926 -1.5438  2.8848
  709MOL0     H93587   8.794   6.966   5.338 -3.1035 -1.4285 -2.6529
  709MOL0     H93588   8.600   7.065   5.438 -0.9316  0.7756  0.8889
  710MOL0     O93589   4.116   1.278   7.718 -0.2421  0.0782 -0.2499
  710MOL0     C93590   4.087   1.353   7.624 -0.6421 -0.5760 -1.1995
  710MOL0     O93591   3.968   1.409   7.595 -0.4298 -0.0093 -0.3735
  710MOL0     C93592   3.850   1.363   7.647 -0.2965  0.1847  0.6057
  710MOL0     C93593   3.835   1.224   7.665 -0.2984 -0.7723  0.2992
  710MOL0     C93594   3.715   1.177   7.710  0.1137  0.6133 -0.2003
  710MOL0     C93595   3.612   1.258   7.759 -0.2706 -0.1033 -0.5392
  710MOL0     O93596   3.503   1.219   7.835  0.2343  0.0917 -0.1026
  710MOL0     C93597   3.475   1.076   7.845 -0.6859 -0.7060  0.1629
  710MOL0     C93598   3.331   1.076   7.854 -0.0455  0.4725 -0.7285
  710MOL0     C93599   3.285   0.942   7.911  0.2010 -0.5704  0.1702
  710MOL0     C93600   3.134   0.917   7.895  0.3574  0.6737 -0.3867
  710MOL0     C93601   3.067   0.994   8.003 -0.3397 -0.1195  0.1169
  710MOL0     C93602   2.916   0.956   7.998 -0.1151 -0.0993  0.8747
  710MOL0     C93603   2.864   0.988   8.135  0.2417  0.0735  0.8737
  710MOL0     C93604   2.726   0.919   8.167 -0.3584  0.3979  0.4436
  710MOL0     N93605   2.700   0.949   8.303 -0.0786 -0.0731 -0.4668
  710MOL0     C93606   2.579   0.935   8.366 -0.1497  0.4878  0.6023
  710MOL0     C93607   2.595   0.984   8.495  0.0852 -0.1234  0.0955
  710MOL0     C93608   2.491   0.983   8.605  0.3918 -0.2881 -0.5586
  710MOL0     C93609   2.382   0.883   8.576  0.3446 -0.3107  0.4657
  710MOL0     C93610   2.276   0.905   8.681  1.3784 -0.2057  0.3199
  710MOL0     C93611   2.169   0.797   8.681 -0.6053  0.2852  0.5890
  710MOL0     O93612   2.087   0.806   8.798 -0.0885 -0.0788 -0.5724
  710MOL0     C93613   1.951   0.808   8.758 -0.5262  0.6517 -0.2396
  710MOL0     C93614   1.868   0.913   8.771 -0.1527  0.3632  1.0397
  710MOL0     C93615   1.734   0.906   8.724 -0.6329 -0.0059  0.1080
  710MOL0     C93616   1.690   0.795   8.644 -0.8941  0.3214 -0.0922
  710MOL0     C93617   1.548   0.789   8.597 -0.6975  0.4650  0.0256
  710MOL0     O93618   1.468   0.892   8.622 -0.2734  0.0445 -0.3568
  710MOL0     C93619   1.339   0.893   8.584 -0.3904 -0.3011  0.0558
  710MOL0     C93620   1.288   1.013   8.534  0.3066  0.4582 -1.3249
  710MOL0     C93621   1.150   1.018   8.496 -0.5072 -0.6379  0.2448
  710MOL0     C93622   1.070   0.905   8.502  0.7992  0.6458 -0.4281
  710MOL0     O93623   0.928   0.913   8.483  0.1094 -0.5005 -0.0919
  710MOL0     C93624   0.884   0.976   8.357 -0.0802  0.5766  0.3277
  710MOL0     C93625   0.772   0.877   8.296 -0.0376 -0.5785 -0.1064
  710MOL0     C93626   0.639   0.921   8.361  0.0799 -0.5885  0.5960
  710MOL0     C93627   0.520   0.839   8.315  0.1452  0.7261  0.8946
  710MOL0     C93628   0.396   0.895   8.377  1.2805 -0.3856  0.1348
  710MOL0     C93629   0.272   0.823   8.341 -0.0604  0.2216  0.1053
  710MOL0     C93630   0.259   0.819   8.188  0.1230  0.6662  0.0524
  710MOL0     C93631   0.125   0.766   8.134 -0.8590  0.1771 -0.2391
  710MOL0    Cl93632   0.126   0.585   8.148  0.4250  0.0097  0.0554
  710MOL0     C93633   1.123   0.788   8.557 -0.1539  0.4017  0.7733
  710MOL0     C93634   1.252   0.781   8.608 -0.6148  0.3600  1.6276
  710MOL0     O93635   1.513   0.676   8.566 -0.4619  0.5192  0.8034
  710MOL0     C93636   1.774   0.688   8.630 -0.8627  0.2602 -0.0004
  710MOL0     C93637   1.899   0.697   8.689  0.4779 -0.5391 -0.0629
  710MOL0     N93638   2.719   1.033   8.508 -0.5962  0.5750 -0.6168
  710MOL0     N93639   2.786   1.003   8.400 -0.1526  0.5318 -0.4336
  710MOL0     C93640   3.631   1.396   7.735  0.0586  0.4262  0.4590
  710MOL0     C93641   3.745   1.445   7.671  0.6993  0.1380  0.2413
  710MOL0     C93642   4.200   1.403   7.548 -0.3979 -0.6081  0.3319
  710MOL0     C93643   4.315   1.434   7.619 -0.6085 -0.0507  0.0970
  710MOL0     C93644   4.427   1.488   7.555 -0.3182  0.0703 -0.0533
  710MOL0     C93645   4.423   1.521   7.417 -0.7822 -1.0583  0.1887
  710MOL0     O93646   4.542   1.572   7.361 -1.1288  0.0291 -0.5122
  710MOL0     C93647   4.548   1.615   7.224 -0.2183  0.4185  0.2407
  710MOL0     C93648   4.696   1.643   7.186  0.8135 -0.8634 -0.3067
  710MOL0     C93649   4.768   1.736   7.276  0.0490  0.3585  0.7548
  710MOL0     C93650   4.910   1.775   7.227  0.6258  0.4696  0.4647
  710MOL0     C93651   5.022   1.736   7.311  0.3743 -0.3003  0.5377
  710MOL0     C93652   5.109   1.716   7.395 -0.2207 -1.3325  0.3549
  710MOL0     C93653   4.304   1.502   7.355  0.4114  0.1566 -0.5529
  710MOL0     C93654   4.193   1.449   7.417 -0.0457  0.2611  0.0241
  710MOL0     H93655   3.922   1.162   7.649  1.1139  1.4389 -1.2151
  710MOL0     H93656   3.713   1.070   7.725  0.7521  0.8933  2.2059
  710MOL0     H93657   3.526   1.031   7.931 -1.1406  1.3490  1.5854
  710MOL0     H93658   3.512   1.015   7.762  0.0515 -0.6247  0.4194
  710MOL0     H93659   3.293   1.091   7.753  1.4623  2.9376 -1.0065
  710MOL0     H93660   3.292   1.160   7.912 -1.2752 -1.6171  1.6752
  710MOL0     H93661   3.306   0.933   8.018 -3.4727 -2.2696  0.9005
  710MOL0     H93662   3.322   0.858   7.852 -1.7491 -1.8081  0.6140
  710MOL0     H93663   3.092   0.939   7.796 -0.9272 -3.8675 -1.0960
  710MOL0     H93664   3.113   0.810   7.898  1.2694  0.4194 -1.9352
  710MOL0     H93665   3.087   1.100   7.981  0.1425 -0.3831 -0.7536
  710MOL0     H93666   3.112   0.972   8.100 -2.9329  0.2949  1.5081
  710MOL0     H93667   2.911   0.848   7.982 -1.4642  0.1702 -0.8115
  710MOL0     H93668   2.868   1.003   7.911  2.4476 -1.5737 -1.4843
  710MOL0     H93669   2.943   0.963   8.206  0.4462 -0.7593  0.3715
  710MOL0     H93670   2.855   1.097   8.142 -1.6417  0.0154 -0.0317
  710MOL0     H93671   2.735   0.810   8.154  2.9068  0.5275  0.8920
  710MOL0     H93672   2.643   0.951   8.103  0.7908  0.1153 -1.2608
  710MOL0     H93673   2.488   0.886   8.333  2.6702 -3.8166 -1.6534
  710MOL0     H93674   2.453   1.085   8.616  2.6699  0.5119  0.4580
  710MOL0     H93675   2.526   0.963   8.707 -1.5098 -0.0749  0.1764
  710MOL0     H93676   2.407   0.777   8.586 -1.5115 -0.6055  3.1500
  710MOL0     H93677   2.341   0.903   8.477  1.9016  1.3254  0.0959
  710MOL0     H93678   2.319   0.919   8.781 -1.2105  3.2449  1.1504
  710MOL0     H93679   2.225   1.001   8.667  2.3468  0.7856  2.9500
  710MOL0     H93680   2.213   0.697   8.678  1.1562  1.0290  0.8234
  710MOL0     H93681   2.111   0.805   8.588 -0.7275  0.6156  0.6909
  710MOL0     H93682   1.913   1.000   8.818  1.0992  2.7795 -3.9684
  710MOL0     H93683   1.670   0.990   8.753  1.3389  1.1234  1.4901
  710MOL0     H93684   1.357   1.096   8.528 -1.2913  1.9473 -0.0796
  710MOL0     H93685   1.105   1.115   8.472 -1.1541 -0.7622  0.9094
  710MOL0     H93686   0.966   0.969   8.285  0.1482  0.6087  0.5812
  710MOL0     H93687   0.835   1.073   8.370  0.6137  0.7300  2.1302
  710MOL0     H93688   0.809   0.776   8.314 -0.9684 -0.8694  0.2322
  710MOL0     H93689   0.760   0.884   8.188  0.9223 -3.8062 -0.5058
  710MOL0     H93690   0.620   1.021   8.323 -3.6689 -1.5827 -0.5603
  710MOL0     H93691   0.634   0.923   8.471  0.5480  1.7428  0.6227
  710MOL0     H93692   0.515   0.843   8.205 -0.6729  0.6413  0.9251
  710MOL0     H93693   0.530   0.734   8.343  0.3812  0.4983  0.0025
  710MOL0     H93694   0.377   0.996   8.338 -0.9254 -1.3883 -1.6266
  710MOL0     H93695   0.398   0.917   8.484  1.0666 -0.7478  0.2147
  710MOL0     H93696   0.189   0.875   8.389 -0.4248  1.1625 -1.4913
  710MOL0     H93697   0.274   0.723   8.387 -0.3368 -0.4193 -1.2419
  710MOL0     H93698   0.273   0.923   8.155  0.4025  0.4992 -0.3628
  710MOL0     H93699   0.328   0.749   8.139  0.6880  1.0230  0.3205
  710MOL0     H93700   0.116   0.792   8.028 -2.4250 -2.1917 -0.7563
  710MOL0     H93701   0.039   0.816   8.180 -2.6711 -0.4008 -2.8352
  710MOL0     H93702   1.051   0.710   8.578 -2.3706  2.2645  0.5417
  710MOL0     H93703   1.289   0.686   8.646 -0.6518 -1.1321 -1.7279
  710MOL0     H93704   1.752   0.591   8.588  0.7016 -0.6211  1.0947
  710MOL0     H93705   1.969   0.614   8.685  0.6466 -0.4033  0.0506
  710MOL0     H93706   3.544   1.456   7.760 -0.3827 -0.8465  2.1168
  710MOL0     H93707   3.754   1.549   7.645 -0.3435  0.0343 -0.5979
  710MOL0     H93708   4.330   1.405   7.723  0.3604  0.5548  0.1398
  710MOL0     H93709   4.517   1.506   7.613  0.5185  0.4605 -1.4184
  710MOL0     H93710   4.489   1.703   7.196  0.2733 -0.3957 -4.0994
  710MOL0     H93711   4.509   1.533   7.163  3.1784 -2.7416  1.9295
  710MOL0     H93712   4.755   1.551   7.181  1.6570 -0.2938 -1.0949
  710MOL0     H93713   4.701   1.674   7.081  2.5710  0.1251  0.0286
  710MOL0     H93714   4.783   1.684   7.371  3.2910 -0.9355 -0.2979
  710MOL0     H93715   4.712   1.829   7.287 -0.8268 -0.0943  0.2371
  710MOL0     H93716   4.919   1.736   7.125 -0.5540  0.8772  0.1881
  710MOL0     H93717   4.919   1.882   7.209  3.8374  0.2592  0.2509
  710MOL0     H93718   5.182   1.704   7.473  1.0654  0.5115 -0.4806
  710MOL0     H93719   4.292   1.531   7.251 -0.8477  1.1506 -0.1590
  710MOL0     H93720   4.098   1.432   7.367 -0.6668  1.1808  0.8633
  711MOL0     O93721   9.214   0.080   8.797  0.6561  0.4329  0.7007
  711MOL0     C93722   9.106   0.106   8.848  0.4009 -0.9881 -0.2623
  711MOL0     O93723   9.050   0.027   8.949 -0.1650  0.5852 -0.1843
  711MOL0     C93724   9.141  -0.070   8.995 -0.3943 -0.6087 -0.5931
  711MOL0     C93725   9.226  -0.050   9.103 -0.4938  0.0844  0.2864
  711MOL0     C93726   9.288  -0.158   9.162  0.1760  1.4913 -0.3178
  711MOL0     C93727   9.255  -0.292   9.129  0.3893 -0.5511  0.1682
  711MOL0     O93728   9.312  -0.383   9.209  0.1234  0.2130 -0.2894
  711MOL0     C93729   9.291  -0.525   9.192 -0.2824 -0.2847  0.1611
  711MOL0     C93730   9.368  -0.590   9.306  0.7176 -0.5541  0.3005
  711MOL0     C93731   9.375  -0.739   9.269 -1.4332  0.2206  0.2645
  711MOL0     C93732   9.477  -0.802   9.359  0.2498  0.3959  0.5509
  711MOL0     C93733   9.501  -0.950   9.348  0.7121  0.4355  0.1536
  711MOL0     C93734   9.634  -0.992   9.396 -0.9375  0.4597 -0.1537
  711MOL0     C93735   9.761  -0.978   9.326 -0.3327  0.0545  0.6717
  711MOL0     C93736   9.794  -1.093   9.229 -0.2614 -0.1248 -1.2901
  711MOL0     N93737   9.790  -1.223   9.287 -0.9502  0.9957  0.9125
  711MOL0     C93738   9.719  -1.341   9.250 -0.3137  0.1848  0.1450
  711MOL0     C93739   9.740  -1.436   9.344 -0.1985  0.1618 -0.3959
  711MOL0     C93740   9.683  -1.571   9.372 -0.3682  0.4625 -0.7458
  711MOL0     C93741   9.551  -1.543   9.445 -0.1999 -0.1171 -0.0797
  711MOL0     C93742   9.494  -1.665   9.512  0.4446  0.1125  0.1158
  711MOL0     C93743   9.373  -1.640   9.593  1.1572 -0.4578 -0.0087
  711MOL0     O93744   9.281  -1.549   9.526 -0.8341  0.0683  0.1359
  711MOL0     C93745   9.154  -1.543   9.565 -0.0023 -1.0334 -0.0303
  711MOL0     C93746   9.091  -1.625   9.658 -0.4642  0.3059 -0.2130
  711MOL0     C93747   8.956  -1.608   9.696  0.4763  0.0848  0.5306
  711MOL0     C93748   8.883  -1.497   9.648 -0.6538  1.0485  0.0677
  711MOL0     C93749   8.747  -1.490   9.701  0.6853  0.3139 -0.4286
  711MOL0     O93750   8.728  -1.558   9.819  1.0899 -0.8733 -0.4138
  711MOL0     C93751   8.611  -1.541   9.888 -0.6288 -1.2826 -0.3175
  711MOL0     C93752   8.487  -1.561   9.828  0.6695 -0.0878 -0.1664
  711MOL0     C93753   8.373  -1.538   9.900 -0.4027  0.7997  0.1016
  711MOL0     C93754   8.370  -1.482  10.031 -0.2126 -0.1774 -0.2577
  711MOL0     O93755   8.257  -1.444  10.109 -0.0637 -0.8034  0.3950
  711MOL0     C93756   8.133  -1.510  10.068  0.5383  0.2272 -0.1250
  711MOL0     C93757   8.008  -1.487  10.153 -0.3209  0.3306 -0.1817
  711MOL0     C93758   7.879  -1.528  10.088  0.2515  0.0587 -0.8083
  711MOL0     C93759   7.756  -1.484  10.177  0.6055 -0.0004  0.8377
  711MOL0     C93760   7.625  -1.506  10.105  0.1246 -0.3061 -0.9938
  711MOL0     C93761   7.518  -1.449  10.205  0.4060  0.2881  0.1663
  711MOL0     C93762   7.374  -1.450  10.158 -0.8238 -0.1743 -0.0552
  711MOL0     C93763   7.268  -1.443  10.266 -0.1427 -0.6068 -0.2272
  711MOL0    Cl93764   7.102  -1.466  10.187  0.1323  0.6771 -0.0841
  711MOL0     C93765   8.490  -1.467  10.086 -0.4208  0.5207  0.9427
  711MOL0     C93766   8.605  -1.489  10.019 -0.8756  0.2554 -0.4404
  711MOL0     O93767   8.667  -1.422   9.636  0.1343 -0.3865 -0.0911
  711MOL0     C93768   8.947  -1.408   9.563  0.0855  0.1965  1.3213
  711MOL0     C93769   9.080  -1.437   9.518  0.1576 -0.4338 -0.0089
  711MOL0     N93770   9.834  -1.377   9.435  0.6666 -0.0985  0.3614
  711MOL0     N93771   9.867  -1.259   9.396 -0.1636  0.3336 -0.1825
  711MOL0     C93772   9.172  -0.312   9.025  0.3605  0.2177  0.2858
  711MOL0     C93773   9.116  -0.203   8.959  0.1041 -0.2153  0.0798
  711MOL0     C93774   9.033   0.222   8.805  0.7077  0.5444  1.0434
  711MOL0     C93775   8.940   0.294   8.880 -0.6600 -0.3393 -0.7010
  711MOL0     C93776   8.863   0.401   8.821  0.4726  0.4363  0.1274
  711MOL0     C93777   8.885   0.428   8.687  0.4471 -0.5812  0.1720
  711MOL0     O93778   8.823   0.543   8.628  0.4126  0.1143  0.5045
  711MOL0     C93779   8.691   0.589   8.667  0.4213  0.8676 -0.1333
  711MOL0     C93780   8.659   0.728   8.604 -0.2741 -0.1878  0.1913
  711MOL0     C93781   8.517   0.783   8.615  0.4747  0.5330 -0.1624
  711MOL0     C93782   8.510   0.913   8.531 -0.0906  0.6615  0.0114
  711MOL0     C93783   8.413   1.011   8.577  0.2149  0.1198 -0.5034
  711MOL0     C93784   8.335   1.092   8.610 -0.8177  1.1209  0.1293
  711MOL0     C93785   8.988   0.361   8.616 -0.2070 -0.1642  0.4408
  711MOL0     C93786   9.055   0.259   8.673  0.4046 -0.7884  0.2548
  711MOL0     H93787   9.222   0.047   9.151 -2.1691  0.3721 -0.3433
  711MOL0     H93788   9.348  -0.150   9.252  0.0019 -0.9635  0.0879
  711MOL0     H93789   9.336  -0.553   9.096 -0.8073 -1.2655  0.1900
  711MOL0     H93790   9.187  -0.554   9.207 -1.3579  1.4065 -3.1211
  711MOL0     H93791   9.315  -0.581   9.401  0.1660 -1.3562  0.0831
  711MOL0     H93792   9.465  -0.542   9.317  0.0761  0.4092  2.1143
  711MOL0     H93793   9.406  -0.750   9.165 -0.1467 -3.4964  0.8946
  711MOL0     H93794   9.284  -0.799   9.280  0.2832 -3.5725 -3.1725
  711MOL0     H93795   9.565  -0.742   9.336 -0.7872  2.6668  2.1266
  711MOL0     H93796   9.466  -0.775   9.464 -3.5566 -0.8442  0.6341
  711MOL0     H93797   9.494  -0.983   9.244 -0.7200  2.0377 -0.2903
  711MOL0     H93798   9.429  -1.008   9.407 -0.6311  0.8850 -0.9825
  711MOL0     H93799   9.626  -1.097   9.425  1.0560  0.2445 -0.2433
  711MOL0     H93800   9.637  -0.944   9.494  2.5780 -1.9730  1.1335
  711MOL0     H93801   9.748  -0.890   9.262 -0.6178  1.1810  2.2195
  711MOL0     H93802   9.848  -0.950   9.386  0.4177  2.3530 -1.2931
  711MOL0     H93803   9.899  -1.078   9.200  0.8851 -0.9590  1.9652
  711MOL0     H93804   9.730  -1.091   9.140 -1.2065  1.0275 -0.5986
  711MOL0     H93805   9.656  -1.351   9.162  0.5824  1.0652 -0.6114
  711MOL0     H93806   9.758  -1.623   9.432  0.8752 -0.0153 -2.6228
  711MOL0     H93807   9.676  -1.621   9.275  0.6066 -2.9579  0.7993
  711MOL0     H93808   9.484  -1.494   9.375  0.8439  3.6357  1.2846
  711MOL0     H93809   9.569  -1.466   9.522  1.2554 -1.7500  1.3010
  711MOL0     H93810   9.462  -1.733   9.432  0.9172 -1.2271  1.0114
  711MOL0     H93811   9.569  -1.718   9.571  0.3886 -0.3438 -0.2118
  711MOL0     H93812   9.396  -1.604   9.694  1.6181 -1.3532  0.2104
  711MOL0     H93813   9.317  -1.730   9.619 -3.5098  1.9449 -0.5759
  711MOL0     H93814   9.151  -1.701   9.707  2.2461  2.2960 -0.2507
  711MOL0     H93815   8.907  -1.683   9.757 -0.6050 -0.6722 -1.1946
  711MOL0     H93816   8.490  -1.574   9.720  2.0073  1.4318 -0.3508
  711MOL0     H93817   8.282  -1.556   9.843  0.8246 -0.1809 -1.6417
  711MOL0     H93818   8.139  -1.619  10.059 -0.9673  0.2727 -2.5375
  711MOL0     H93819   8.099  -1.466   9.974 -3.4839  4.4460  2.8403
  711MOL0     H93820   7.994  -1.386  10.193 -2.8345  0.1463 -0.4286
  711MOL0     H93821   8.019  -1.547  10.244 -0.1714  0.4102 -0.1476
  711MOL0     H93822   7.872  -1.635  10.065  1.3292  0.2774 -2.2133
  711MOL0     H93823   7.858  -1.480   9.992 -1.0826  2.0687  0.4109
  711MOL0     H93824   7.767  -1.539  10.271  1.9163  0.7273  1.1345
  711MOL0     H93825   7.752  -1.378  10.204  0.9549  0.3483 -0.4172
  711MOL0     H93826   7.615  -1.611  10.076 -1.1336 -0.3228 -0.5739
  711MOL0     H93827   7.619  -1.448  10.013 -0.3555 -0.0021 -0.7777
  711MOL0     H93828   7.552  -1.351  10.240  2.4816 -0.4655  0.3835
  711MOL0     H93829   7.514  -1.514  10.293  0.8867  2.0057  1.5337
  711MOL0     H93830   7.359  -1.365  10.091  1.2897  0.9434  0.8114
  711MOL0     H93831   7.361  -1.546  10.108 -1.9577  0.1304 -0.3871
  711MOL0     H93832   7.276  -1.344  10.313  0.8009  0.7879 -3.0679
  711MOL0     H93833   7.279  -1.524  10.338 -0.1326 -0.8238 -0.4718
  711MOL0     H93834   8.496  -1.434  10.189 -0.7119 -2.2106  1.9354
  711MOL0     H93835   8.700  -1.476  10.070  0.4180 -4.5292 -1.1122
  711MOL0     H93836   8.892  -1.320   9.533  4.2155  3.1076  1.4871
  711MOL0     H93837   9.123  -1.369   9.444 -0.5440 -0.6141 -0.5845
  711MOL0     H93838   9.150  -0.412   8.988 -0.5858 -0.0008  1.3954
  711MOL0     H93839   9.034  -0.216   8.889  0.2308 -1.2995  0.1099
  711MOL0     H93840   8.914   0.280   8.984  0.4790 -0.7939 -0.4554
  711MOL0     H93841   8.796   0.462   8.881  1.8905  1.9513  0.2453
  711MOL0     H93842   8.686   0.599   8.775 -0.9000  4.7839 -0.3891
  711MOL0     H93843   8.614   0.517   8.639 -1.0635  2.2489  0.2804
  711MOL0     H93844   8.725   0.796   8.658  1.1214 -0.8411 -0.6284
  711MOL0     H93845   8.692   0.723   8.499 -2.8838 -2.2483 -0.6343
  711MOL0     H93846   8.486   0.796   8.720  0.5478  0.4419 -0.1289
  711MOL0     H93847   8.447   0.707   8.578 -3.4015  3.2648  0.8204
  711MOL0     H93848   8.606   0.964   8.541 -1.0365  2.7119 -0.7179
  711MOL0     H93849   8.502   0.864   8.434  1.2024 -1.7927  1.0747
  711MOL0     H93850   8.270   1.172   8.640 -1.0833  2.5007 -3.5459
  711MOL0     H93851   9.009   0.372   8.511  3.6338 -4.3703  0.4648
  711MOL0     H93852   9.125   0.198   8.616 -0.0831 -0.3150 -0.8732
  712MOL0     O93853   3.619   9.662   3.221  0.5606 -0.4742 -0.3425
  712MOL0     C93854   3.687   9.701   3.128 -0.0676  0.0722 -0.5832
  712MOL0     O93855   3.649   9.717   3.000 -0.2943 -0.2481  0.0642
  712MOL0     C93856   3.511   9.723   2.976 -0.6212 -0.5866  0.4668
  712MOL0     C93857   3.441   9.833   3.018  0.5210 -0.2631  0.1391
  712MOL0     C93858   3.303   9.849   2.980  0.9764 -0.5995 -0.1610
  712MOL0     C93859   3.243   9.757   2.898 -0.4197  0.7290  0.1465
  712MOL0     O93860   3.108   9.754   2.862 -0.3849  0.5181  0.4694
  712MOL0     C93861   3.011   9.844   2.919 -0.2126  0.1442  0.5278
  712MOL0     C93862   2.974   9.800   3.063  0.6375 -0.8849 -0.1300
  712MOL0     C93863   2.889   9.664   3.066  0.1698  0.6142  0.5150
  712MOL0     C93864   2.848   9.607   3.205 -0.2948  0.8048  0.4348
  712MOL0     C93865   2.967   9.634   3.311  0.2920 -0.3840  0.4563
  712MOL0     C93866   3.096   9.567   3.287  0.1768 -0.0187  0.6826
  712MOL0     C93867   3.193   9.593   3.407 -0.6778 -0.0205 -0.2169
  712MOL0     C93868   3.350   9.588   3.362  0.0942 -0.7232  0.1242
  712MOL0     N93869   3.420   9.571   3.489  0.4797  0.0166  0.5964
  712MOL0     C93870   3.553   9.523   3.496 -0.2567 -0.2509 -0.2473
  712MOL0     C93871   3.589   9.519   3.626 -0.2748 -0.0058 -0.1787
  712MOL0     C93872   3.723   9.475   3.684  0.1270 -0.1086  0.9393
  712MOL0     C93873   3.713   9.334   3.738 -0.2569  0.7383 -0.1138
  712MOL0     C93874   3.711   9.307   3.889  1.3771 -0.5868 -0.5410
  712MOL0     C93875   3.575   9.378   3.933  0.0019 -0.1218  0.1660
  712MOL0     O93876   3.532   9.294   4.042  0.1078 -0.5291 -0.3591
  712MOL0     C93877   3.394   9.277   4.058 -0.1045  0.3770  0.3573
  712MOL0     C93878   3.304   9.382   4.044 -0.3091 -0.2428  0.5042
  712MOL0     C93879   3.180   9.363   4.096  0.5214  0.5130 -0.1502
  712MOL0     C93880   3.124   9.242   4.130 -0.4403 -0.1636 -0.3408
  712MOL0     C93881   2.977   9.230   4.158 -1.2653  0.6118 -0.5043
  712MOL0     O93882   2.925   9.333   4.222 -0.0008  0.3632  0.4191
  712MOL0     C93883   2.790   9.328   4.250  0.7174 -1.0805 -0.4902
  712MOL0     C93884   2.742   9.321   4.387 -0.0515  0.4154 -0.1096
  712MOL0     C93885   2.606   9.295   4.415  0.2592 -0.8017 -0.9087
  712MOL0     C93886   2.506   9.274   4.313 -0.4055 -0.6377  0.2904
  712MOL0     O93887   2.376   9.242   4.326 -0.5895  0.2313  0.3831
  712MOL0     C93888   2.306   9.266   4.449 -0.2698 -0.0833 -0.5344
  712MOL0     C93889   2.154   9.247   4.421 -0.3669 -1.0947  0.0386
  712MOL0     C93890   2.064   9.309   4.527 -0.1681 -0.1829 -0.3217
  712MOL0     C93891   1.916   9.275   4.505 -1.1155  0.1603 -0.0833
  712MOL0     C93892   1.850   9.347   4.392  0.1710  0.3273  0.1924
  712MOL0     C93893   1.703   9.329   4.412  0.7724 -0.1695 -0.1889
  712MOL0     C93894   1.622   9.333   4.279  0.6172 -0.4587  0.2061
  712MOL0     C93895   1.470   9.337   4.307 -0.2597 -0.8045 -0.5161
  712MOL0    Cl93896   1.430   9.495   4.370  0.0279 -0.1161 -0.0593
  712MOL0     C93897   2.558   9.271   4.181  0.1041  0.6471  0.7343
  712MOL0     C93898   2.694   9.299   4.146 -0.9393  0.4807  0.3680
  712MOL0     O93899   2.919   9.125   4.141 -0.0344 -0.4474 -0.5868
  712MOL0     C93900   3.216   9.130   4.125  0.5685 -0.5402  0.9746
  712MOL0     C93901   3.349   9.156   4.092 -0.4087  0.2561 -0.1233
  712MOL0     N93902   3.483   9.579   3.702 -0.2284 -0.4320  1.0493
  712MOL0     N93903   3.389   9.605   3.618 -0.5185 -0.5541  0.2097
  712MOL0     C93904   3.318   9.654   2.848 -0.2753  0.0786  0.2502
  712MOL0     C93905   3.452   9.639   2.891  0.2296 -0.3680  0.1127
  712MOL0     C93906   3.832   9.715   3.147  0.5489  0.1564 -0.3877
  712MOL0     C93907   3.884   9.724   3.274  0.3440 -0.2949 -0.0016
  712MOL0     C93908   4.020   9.746   3.295  0.1871  0.5750  0.6943
  712MOL0     C93909   4.108   9.750   3.190 -0.3216 -0.3731  0.2483
  712MOL0     O93910   4.239   9.767   3.216 -0.0465  0.3137  0.4536
  712MOL0     C93911   4.318   9.865   3.136 -0.6359 -0.1615 -0.8304
  712MOL0     C93912   4.252  10.003   3.124 -0.1081 -0.6967  0.0250
  712MOL0     C93913   4.195  10.069   3.254  0.0792 -0.0829  0.2664
  712MOL0     C93914   4.082  10.172   3.230 -0.0812 -0.4640  0.2526
  712MOL0     C93915   3.944  10.121   3.197 -0.0825  0.0659  0.6252
  712MOL0     C93916   3.844  10.065   3.165 -0.3051  1.0293 -0.7003
  712MOL0     C93917   4.060   9.721   3.059 -0.0548  0.0748 -0.3678
  712MOL0     C93918   3.922   9.714   3.034 -0.7477 -0.0708 -0.1466
  712MOL0     H93919   3.485   9.903   3.088 -2.4153  0.4627  1.4326
  712MOL0     H93920   3.253   9.937   3.020 -0.8821 -1.5707 -0.2475
  712MOL0     H93921   2.921   9.856   2.858  0.3827 -0.4776 -0.5023
  712MOL0     H93922   3.046   9.947   2.930  3.4376 -0.8465 -0.2228
  712MOL0     H93923   2.915   9.883   3.104  2.0443 -0.5160  1.2275
  712MOL0     H93924   3.069   9.786   3.115 -0.4588 -2.0798  1.6999
  712MOL0     H93925   2.961   9.597   3.018 -0.4308 -0.2563  0.7847
  712MOL0     H93926   2.802   9.673   2.999  1.5601  2.1465 -1.2044
  712MOL0     H93927   2.757   9.659   3.236 -0.7982  0.7706 -0.9268
  712MOL0     H93928   2.829   9.499   3.199  0.1892  0.6621  1.3083
  712MOL0     H93929   2.918   9.598   3.402  1.6386 -0.2909  1.2273
  712MOL0     H93930   2.983   9.742   3.315  0.5540 -0.4659  3.5036
  712MOL0     H93931   3.143   9.602   3.194 -1.7844 -0.7736 -0.6485
  712MOL0     H93932   3.077   9.463   3.260  1.4438  0.4875 -2.8525
  712MOL0     H93933   3.168   9.689   3.454 -3.0081 -1.5505  1.9472
  712MOL0     H93934   3.168   9.516   3.480 -2.1704  0.2802 -0.3770
  712MOL0     H93935   3.383   9.680   3.313  0.7703 -0.7032  0.5942
  712MOL0     H93936   3.387   9.510   3.296  2.4977 -1.4521  2.1767
  712MOL0     H93937   3.606   9.483   3.411 -1.5848 -3.0915  0.1426
  712MOL0     H93938   3.760   9.546   3.759  0.5135 -1.1449  1.7452
  712MOL0     H93939   3.793   9.480   3.599  1.0311  0.9865  1.7052
  712MOL0     H93940   3.804   9.278   3.713 -1.4759 -1.2997 -0.2506
  712MOL0     H93941   3.634   9.277   3.690 -0.3040 -0.9600  1.8241
  712MOL0     H93942   3.698   9.202   3.916 -0.1153 -0.2933 -0.0392
  712MOL0     H93943   3.802   9.352   3.929  0.3011 -0.1937  1.6053
  712MOL0     H93944   3.505   9.358   3.852 -0.6312 -0.7426  0.8490
  712MOL0     H93945   3.585   9.482   3.965 -5.4535  0.5568  0.6191
  712MOL0     H93946   3.329   9.477   3.997 -2.7896 -1.0598 -2.8945
  712MOL0     H93947   3.117   9.450   4.113  0.5588  0.5196 -0.0461
  712MOL0     H93948   2.816   9.324   4.466  0.0515 -2.7251  0.0423
  712MOL0     H93949   2.570   9.291   4.518 -1.7213  1.8825 -1.3660
  712MOL0     H93950   2.326   9.362   4.499 -0.1458  0.1952 -1.1171
  712MOL0     H93951   2.339   9.189   4.519 -3.3376 -1.0345  0.0048
  712MOL0     H93952   2.131   9.140   4.417  0.1600 -1.2100 -0.0426
  712MOL0     H93953   2.140   9.283   4.319  1.3821 -1.2909 -0.2977
  712MOL0     H93954   2.083   9.416   4.524  3.6572 -0.6562  0.9090
  712MOL0     H93955   2.098   9.280   4.627  1.4040  0.6779 -0.5705
  712MOL0     H93956   1.917   9.168   4.485 -0.6074 -0.3493  2.3486
  712MOL0     H93957   1.866   9.294   4.601  3.5889  4.1068  2.0518
  712MOL0     H93958   1.878   9.303   4.296  2.2963  0.8031  0.5424
  712MOL0     H93959   1.877   9.453   4.393 -2.2496  1.0008  0.2411
  712MOL0     H93960   1.657   9.400   4.482 -0.1307 -2.9112  2.1810
  712MOL0     H93961   1.675   9.235   4.459 -0.8436 -0.2701 -1.2857
  712MOL0     H93962   1.652   9.419   4.218  0.6783 -0.7087 -0.1214
  712MOL0     H93963   1.624   9.249   4.208 -2.5832 -0.4276 -0.0853
  712MOL0     H93964   1.449   9.258   4.379  0.4323  0.9066  1.6666
  712MOL0     H93965   1.409   9.321   4.217 -1.0585  0.7768 -0.3002
  712MOL0     H93966   2.484   9.254   4.104 -0.6635 -1.7441  1.8891
  712MOL0     H93967   2.732   9.302   4.045  2.3465 -3.4206  1.2417
  712MOL0     H93968   3.192   9.026   4.142  1.4303 -1.4441 -2.5664
  712MOL0     H93969   3.425   9.078   4.097 -0.1826  0.4510 -0.4801
  712MOL0     H93970   3.264   9.588   2.780  2.3834 -1.2021 -0.7857
  712MOL0     H93971   3.515   9.565   2.844  0.1448  0.6826 -1.7870
  712MOL0     H93972   3.820   9.707   3.360 -0.1297 -0.3154 -0.3575
  712MOL0     H93973   4.058   9.756   3.396 -1.0759  1.6584  1.0902
  712MOL0     H93974   4.319   9.831   3.031  0.4119 -0.4383 -0.7430
  712MOL0     H93975   4.418   9.871   3.181 -1.1148 -1.3634  0.4710
  712MOL0     H93976   4.325  10.075   3.086  0.0811 -0.8418  0.1138
  712MOL0     H93977   4.178  10.009   3.043  0.2561  3.1597 -0.2455
  712MOL0     H93978   4.284  10.122   3.289  1.4379 -2.0226 -0.1317
  712MOL0     H93979   4.169  10.001   3.335  0.1307 -0.1750  0.2064
  712MOL0     H93980   4.068  10.217   3.329 -5.3426  1.5991 -1.1233
  712MOL0     H93981   4.116  10.245   3.156  0.4669 -2.4796 -1.5886
  712MOL0     H93982   3.762   9.999   3.144 -1.4950  3.1181 -3.2423
  712MOL0     H93983   4.133   9.740   2.982  1.5563  1.2460  1.3761
  712MOL0     H93984   3.881   9.710   2.933 -0.4176 -0.8882 -0.2520
  713MOL0     O93985   3.336   6.864   4.363  0.1575  0.0040 -0.0083
  713MOL0     C93986   3.356   6.966   4.426  0.9032  0.3061  0.6659
  713MOL0     O93987   3.250   7.042   4.487 -0.5722 -0.8977  0.1161
  713MOL0     C93988   3.110   7.027   4.484  0.0107  0.7030  0.2360
  713MOL0     C93989   3.041   7.084   4.587  0.4277  0.1924  0.3020
  713MOL0     C93990   2.900   7.063   4.596 -0.0986 -0.2869  0.3425
  713MOL0     C93991   2.830   6.999   4.495 -0.7103  0.5573 -0.4279
  713MOL0     O93992   2.687   6.989   4.489  0.4274 -0.0039 -0.8341
  713MOL0     C93993   2.620   7.100   4.546  0.1041 -0.4188  0.0914
  713MOL0     C93994   2.473   7.095   4.519  0.4604  0.4015  0.4134
  713MOL0     C93995   2.406   6.991   4.604 -0.3180 -0.8545 -0.1807
  713MOL0     C93996   2.256   7.013   4.576 -0.7116  0.1196  0.1246
  713MOL0     C93997   2.171   6.931   4.671 -0.1644 -0.2668  0.0630
  713MOL0     C93998   2.020   6.976   4.643 -0.3571  0.7979 -0.8365
  713MOL0     C93999   1.918   6.903   4.745 -0.6334 -1.4278  0.2363
  713MOL0     C94000   1.923   6.747   4.727 -0.8831 -0.1954  0.8752
  713MOL0     N94001   1.797   6.691   4.779 -0.5331  0.1263 -0.6254
  713MOL0     C94002   1.783   6.659   4.911  1.0989 -0.0225  0.3623
  713MOL0     C94003   1.651   6.648   4.934  0.4821 -0.6115  0.4154
  713MOL0     C94004   1.577   6.615   5.057 -0.2638 -0.3286  0.1404
  713MOL0     C94005   1.588   6.477   5.108  0.1127  0.6265  1.2360
  713MOL0     C94006   1.546   6.379   4.991 -0.3997  0.8764  0.1780
  713MOL0     C94007   1.407   6.387   4.952 -0.1757 -0.0311  0.3913
  713MOL0     O94008   1.362   6.248   4.937 -0.7103 -1.1473  0.0560
  713MOL0     C94009   1.223   6.232   4.927  0.3672 -0.4957  0.7410
  713MOL0     C94010   1.134   6.332   4.898 -0.0085  0.1347  0.2267
  713MOL0     C94011   0.997   6.304   4.871 -0.6376  0.7595  0.6804
  713MOL0     C94012   0.951   6.167   4.860  0.4849  0.0387 -0.0551
  713MOL0     C94013   0.811   6.127   4.830  0.8119 -0.4658 -0.0274
  713MOL0     O94014   0.774   5.995   4.836 -0.3290 -0.0383  0.4130
  713MOL0     C94015   0.658   5.945   4.775 -0.5417  0.6513  0.9239
  713MOL0     C94016   0.666   5.820   4.708  0.7876  0.5269 -0.5335
  713MOL0     C94017   0.548   5.757   4.669  0.0015 -0.3779  0.2574
  713MOL0     C94018   0.427   5.831   4.673 -0.4093 -0.0017 -0.0936
  713MOL0     O94019   0.317   5.774   4.618 -0.1699  0.3027 -0.2821
  713MOL0     C94020   0.277   5.822   4.489 -0.1691 -0.6483 -0.4855
  713MOL0     C94021   0.265   5.716   4.380  0.2806 -0.3224 -0.0167
  713MOL0     C94022   0.408   5.676   4.340 -0.7900  0.2424 -0.0597
  713MOL0     C94023   0.434   5.614   4.200 -0.0374 -0.7067 -0.1314
  713MOL0     C94024   0.572   5.550   4.189 -0.3978  1.1823  0.6837
  713MOL0     C94025   0.686   5.652   4.186 -0.3131  0.0348  0.0309
  713MOL0     C94026   0.811   5.606   4.115  0.0869  0.0360 -0.5555
  713MOL0     C94027   0.871   5.741   4.067 -0.3212 -0.3443 -0.1759
  713MOL0    Cl94028   0.779   5.810   3.933 -0.1141 -0.1861 -0.3609
  713MOL0     C94029   0.424   5.961   4.725 -0.0569  0.8757  0.4735
  713MOL0     C94030   0.536   6.015   4.775 -0.2749  0.3596  0.0585
  713MOL0     O94031   0.734   6.216   4.797 -0.9740 -1.1234  0.2479
  713MOL0     C94032   1.047   6.073   4.883  0.2318  0.5103  0.2073
  713MOL0     C94033   1.178   6.102   4.917 -0.6864  0.1210  0.4934
  713MOL0     N94034   1.591   6.686   4.815  0.3208 -0.0314  0.5296
  713MOL0     N94035   1.679   6.716   4.729  0.1259 -0.4564 -0.2829
  713MOL0     C94036   2.902   6.949   4.383 -0.2256 -0.0585 -0.2017
  713MOL0     C94037   3.040   6.962   4.376  0.5664 -0.0390  1.0743
  713MOL0     C94038   3.497   7.004   4.439 -0.4482 -0.4919  0.1157
  713MOL0     C94039   3.540   7.099   4.534 -0.0396 -0.9989  0.6260
  713MOL0     C94040   3.681   7.124   4.560 -0.3492 -0.2671  0.1802
  713MOL0     C94041   3.783   7.050   4.503 -0.7214 -0.2169  0.5961
  713MOL0     O94042   3.919   7.069   4.526 -0.6152 -0.2484 -0.4247
  713MOL0     C94043   3.950   7.170   4.627  0.1869 -0.0482  0.2771
  713MOL0     C94044   4.102   7.172   4.639  0.1852  0.1279  0.3741
  713MOL0     C94045   4.156   7.306   4.698  0.1294  0.5442  0.1422
  713MOL0     C94046   4.277   7.277   4.779 -0.3264  0.5017 -0.2314
  713MOL0     C94047   4.326   7.416   4.805  0.2383 -0.7963 -0.0021
  713MOL0     C94048   4.364   7.531   4.836  0.3453 -0.8137 -0.0456
  713MOL0     C94049   3.740   6.961   4.405 -0.3103  0.6293 -0.2559
  713MOL0     C94050   3.605   6.940   4.366  0.0514  0.1049 -0.0122
  713MOL0     H94051   3.089   7.136   4.670 -0.9638  1.1589  0.5292
  713MOL0     H94052   2.851   7.096   4.687  0.8377  2.2411  0.0232
  713MOL0     H94053   2.659   7.191   4.499 -2.1789 -1.0288 -3.3338
  713MOL0     H94054   2.635   7.103   4.654  0.0916 -1.9623  0.1588
  713MOL0     H94055   2.464   7.095   4.410  2.3786  3.1404  0.1673
  713MOL0     H94056   2.429   7.192   4.544 -0.3993 -0.3261  1.8650
  713MOL0     H94057   2.420   7.020   4.709 -1.9864  0.0140 -0.1502
  713MOL0     H94058   2.436   6.887   4.590  1.4417 -0.5041  0.7292
  713MOL0     H94059   2.227   7.119   4.584 -0.6638  0.1991 -0.7283
  713MOL0     H94060   2.239   6.990   4.471  0.5305  2.1869 -0.5877
  713MOL0     H94061   2.209   6.963   4.768 -0.3617 -1.4854  0.5534
  713MOL0     H94062   2.193   6.824   4.665 -0.2547 -0.3454  0.9990
  713MOL0     H94063   1.990   6.961   4.539  1.7791 -0.6356 -1.3087
  713MOL0     H94064   2.022   7.082   4.669 -1.1071  0.1792  2.0630
  713MOL0     H94065   1.931   6.939   4.847 -0.0734  0.0223 -0.3235
  713MOL0     H94066   1.820   6.945   4.724 -0.0231  0.7198  1.4712
  713MOL0     H94067   2.007   6.707   4.785 -0.5924 -1.7210 -0.5091
  713MOL0     H94068   1.935   6.716   4.623 -1.4156 -2.6235  1.4585
  713MOL0     H94069   1.868   6.637   4.975  1.0493 -0.9266  0.1233
  713MOL0     H94070   1.470   6.633   5.052 -0.8033 -2.6734  1.7457
  713MOL0     H94071   1.602   6.689   5.134  0.1990 -0.1778 -0.1426
  713MOL0     H94072   1.515   6.450   5.185 -1.6055 -0.8989 -0.8131
  713MOL0     H94073   1.692   6.462   5.140  0.3971  2.6250  1.3382
  713MOL0     H94074   1.603   6.387   4.898  1.1888  0.1519  1.0391
  713MOL0     H94075   1.577   6.281   5.030  0.8336  0.9531 -0.5551
  713MOL0     H94076   1.389   6.441   4.858  3.8715  2.3990  0.7924
  713MOL0     H94077   1.354   6.438   5.033 -0.6518 -0.1570  0.1619
  713MOL0     H94078   1.163   6.436   4.897 -0.1516  0.1896 -1.0267
  713MOL0     H94079   0.917   6.376   4.861 -1.4125 -0.0311  1.0126
  713MOL0     H94080   0.760   5.766   4.715 -0.5407 -1.7590  1.3281
  713MOL0     H94081   0.542   5.656   4.630 -1.8814 -0.9655  1.9048
  713MOL0     H94082   0.348   5.894   4.447 -2.9928  0.3012 -4.0686
  713MOL0     H94083   0.178   5.867   4.490 -0.4535 -1.0967  2.3846
  713MOL0     H94084   0.217   5.751   4.288  3.1827 -1.0090 -1.9879
  713MOL0     H94085   0.230   5.627   4.433 -1.0857  2.2445  3.7379
  713MOL0     H94086   0.439   5.601   4.414 -3.2869 -2.1720 -1.2971
  713MOL0     H94087   0.471   5.763   4.357 -2.5955  1.0938  3.1992
  713MOL0     H94088   0.370   5.526   4.185  1.4314 -2.4231  2.6279
  713MOL0     H94089   0.425   5.697   4.129  0.7022 -1.0930 -0.6820
  713MOL0     H94090   0.571   5.494   4.095  1.3854 -0.6986  1.6998
  713MOL0     H94091   0.594   5.473   4.263 -0.1316 -0.2831 -0.8429
  713MOL0     H94092   0.699   5.671   4.293 -3.5521  0.9440  0.3422
  713MOL0     H94093   0.646   5.743   4.141 -1.3016 -0.0824  0.6514
  713MOL0     H94094   0.881   5.562   4.187 -0.6421  0.6717  0.5704
  713MOL0     H94095   0.798   5.536   4.032 -0.2220 -0.2034 -0.3100
  713MOL0     H94096   0.970   5.725   4.023  0.4139  0.5824  1.0659
  713MOL0     H94097   0.895   5.816   4.143  1.0599  2.3233 -3.0117
  713MOL0     H94098   0.342   6.032   4.719 -0.2997  0.9538  3.5819
  713MOL0     H94099   0.521   6.117   4.811 -0.0112  0.3882  0.0869
  713MOL0     H94100   1.018   5.968   4.876  0.9613  0.3240 -0.1217
  713MOL0     H94101   1.250   6.022   4.933 -0.9822 -0.1294  0.6019
  713MOL0     H94102   2.843   6.902   4.305 -0.1682  0.6168 -0.6580
  713MOL0     H94103   3.090   6.906   4.298  0.2854  1.7165 -0.4292
  713MOL0     H94104   3.465   7.144   4.599 -1.5866 -2.3407 -0.1656
  713MOL0     H94105   3.701   7.186   4.646  1.2344  0.6312 -0.7739
  713MOL0     H94106   3.899   7.139   4.719 -0.0497 -1.4192 -0.2885
  713MOL0     H94107   3.917   7.268   4.592 -1.4271 -1.1558 -1.5471
  713MOL0     H94108   4.124   7.083   4.699  1.9656  0.1872 -0.1455
  713MOL0     H94109   4.136   7.165   4.535 -1.4624  1.6221 -0.3235
  713MOL0     H94110   4.091   7.344   4.777  1.2206  1.7128  0.5254
  713MOL0     H94111   4.164   7.387   4.624  4.6639  0.0873 -0.1475
  713MOL0     H94112   4.254   7.226   4.873  0.0285 -2.7700 -1.7587
  713MOL0     H94113   4.355   7.216   4.731  1.6826  1.7740  1.2852
  713MOL0     H94114   4.383   7.633   4.863 -1.0838 -0.1427 -1.4233
  713MOL0     H94115   3.804   6.908   4.335 -1.7124 -0.7707 -0.5605
  713MOL0     H94116   3.578   6.874   4.284 -0.0967  1.6640 -1.2729
  714MOL0     O94117  10.334   2.837   1.460  0.2908 -0.9123  0.2655
  714MOL0     C94118  10.402   2.773   1.545  0.0091 -0.4360 -0.5772
  714MOL0     O94119  10.373   2.755   1.675  0.5296 -0.1462 -0.5831
  714MOL0     C94120  10.251   2.820   1.711  0.1185  0.9217  0.1249
  714MOL0     C94121  10.226   2.956   1.699  0.2378 -0.5311 -0.5195
  714MOL0     C94122  10.101   3.012   1.745 -1.0329  0.2636 -0.2673
  714MOL0     C94123  10.011   2.936   1.819 -0.5905  0.6669  0.2551
  714MOL0     O94124   9.901   3.011   1.862 -0.3326  0.3827  0.4747
  714MOL0     C94125   9.775   2.945   1.889 -0.0528  0.1083  0.3013
  714MOL0     C94126   9.688   3.054   1.943  1.3895 -1.0432 -0.3015
  714MOL0     C94127   9.539   3.011   1.965 -0.2138 -0.0553  0.2037
  714MOL0     C94128   9.459   3.127   2.017  0.8482 -1.2368  0.0086
  714MOL0     C94129   9.317   3.094   2.068  0.1980  0.2438  0.3505
  714MOL0     C94130   9.235   3.215   2.124  0.1989  0.2041  0.6473
  714MOL0     C94131   9.208   3.325   2.022  0.7114 -0.1603  1.3200
  714MOL0     C94132   9.079   3.388   2.053  0.4946 -0.9919 -0.3432
  714MOL0     N94133   9.086   3.450   2.189  0.9088 -0.8926  0.8094
  714MOL0     C94134   9.171   3.551   2.228  0.7889  0.5307  0.2570
  714MOL0     C94135   9.106   3.617   2.327 -0.0521 -0.3595 -0.6670
  714MOL0     C94136   9.157   3.731   2.402  0.1436 -0.3972 -0.1300
  714MOL0     C94137   9.136   3.850   2.307 -0.4824 -0.6673 -0.3435
  714MOL0     C94138   9.142   3.980   2.382  0.1526 -0.3129 -0.7611
  714MOL0     C94139   9.275   4.010   2.447 -0.3525  1.0186  0.2785
  714MOL0     O94140   9.380   4.016   2.352 -0.0824  0.6656 -0.5104
  714MOL0     C94141   9.506   4.033   2.397 -0.3154  0.0289  0.4454
  714MOL0     C94142   9.606   4.020   2.293 -0.2220 -0.6479 -0.0007
  714MOL0     C94143   9.746   4.035   2.318 -0.1615  0.3169 -0.4313
  714MOL0     C94144   9.786   4.058   2.447 -0.8213  0.1070 -0.2701
  714MOL0     C94145   9.935   4.061   2.467 -1.0966 -0.5390 -0.0968
  714MOL0     O94146  10.020   4.061   2.360 -0.2101  0.4474 -0.5619
  714MOL0     C94147  10.162   4.057   2.375  0.5905 -0.0483 -0.5366
  714MOL0     C94148  10.229   4.060   2.255 -1.0805 -0.2315 -0.6529
  714MOL0     C94149  10.371   4.072   2.245  0.4828 -0.0240 -0.4107
  714MOL0     C94150  10.446   4.090   2.363 -0.2593  0.0361 -0.3301
  714MOL0     O94151  10.575   4.139   2.366  0.4109 -0.3000 -0.0590
  714MOL0     C94152  10.668   4.081   2.274 -0.2962  0.0467  0.1410
  714MOL0     C94153  10.813   4.131   2.295  0.6470  0.1993 -0.7488
  714MOL0     C94154  10.911   4.117   2.176 -0.0741 -0.6304  0.3111
  714MOL0     C94155  11.061   4.159   2.225  0.2931  0.7122  0.7689
  714MOL0     C94156  11.158   4.184   2.111 -0.2054 -0.3749  1.0900
  714MOL0     C94157  11.154   4.081   1.999 -0.0553 -0.2212  0.2090
  714MOL0     C94158  11.264   4.085   1.892 -0.4875 -0.4740  0.1225
  714MOL0     C94159  11.412   4.057   1.930  0.7187  0.1322  0.1588
  714MOL0    Cl94160  11.438   3.900   2.035 -0.6124  0.0418 -0.2118
  714MOL0     C94161  10.380   4.060   2.484  0.1352  0.1923 -0.0103
  714MOL0     C94162  10.240   4.064   2.489 -0.0196 -0.1675 -0.1650
  714MOL0     O94163   9.966   4.049   2.588  0.7149  0.7172  0.1946
  714MOL0     C94164   9.691   4.080   2.548  0.3587  0.8576 -0.2625
  714MOL0     C94165   9.552   4.063   2.524 -0.4112  0.4083 -0.9076
  714MOL0     N94166   8.993   3.543   2.353  0.6652  0.1895  0.5221
  714MOL0     N94167   8.988   3.444   2.276 -0.4481  0.2212  0.2511
  714MOL0     C94168  10.042   2.795   1.838 -0.6374 -0.4559 -0.1503
  714MOL0     C94169  10.157   2.736   1.783  0.9036  0.3122 -0.3983
  714MOL0     C94170  10.533   2.706   1.489  0.8425 -0.4112 -0.0356
  714MOL0     C94171  10.549   2.681   1.353 -0.0979 -0.0395  0.1167
  714MOL0     C94172  10.657   2.600   1.318 -0.1199 -0.2445  0.3315
  714MOL0     C94173  10.759   2.558   1.403 -0.2885  0.8077  0.2879
  714MOL0     O94174  10.863   2.495   1.345  0.2052 -0.1014 -0.3260
  714MOL0     C94175  10.964   2.458   1.440  0.2689 -0.3911  1.4523
  714MOL0     C94176  11.100   2.447   1.379  0.7149 -0.6194  0.0417
  714MOL0     C94177  11.114   2.331   1.275  0.2366 -0.5326 -0.4108
  714MOL0     C94178  11.259   2.295   1.259  0.5911  1.0461  0.1878
  714MOL0     C94179  11.272   2.201   1.145  0.2799  0.4714  0.5055
  714MOL0     C94180  11.278   2.126   1.051  0.1031  0.0456 -0.2081
  714MOL0     C94181  10.730   2.573   1.541 -0.8480 -0.2785  0.0192
  714MOL0     C94182  10.615   2.645   1.583 -0.5435  0.6404  0.0303
  714MOL0     H94183  10.306   3.018   1.660 -0.5603 -1.2222 -3.5349
  714MOL0     H94184  10.093   3.120   1.735  3.2561  1.2349  3.3829
  714MOL0     H94185   9.778   2.855   1.951 -2.5894 -0.4141 -0.2018
  714MOL0     H94186   9.735   2.913   1.792 -1.1373  0.8694  0.4739
  714MOL0     H94187   9.682   3.137   1.872 -0.0700 -1.7118 -1.0050
  714MOL0     H94188   9.728   3.088   2.039 -0.9564 -0.4083  0.5249
  714MOL0     H94189   9.533   2.927   2.036  0.3750  1.1784  1.7636
  714MOL0     H94190   9.500   2.980   1.867  4.1766  1.1990 -2.1691
  714MOL0     H94191   9.518   3.187   2.086  1.3571 -0.8815 -0.7209
  714MOL0     H94192   9.435   3.181   1.925 -0.4635 -1.7906  0.0034
  714MOL0     H94193   9.333   3.032   2.157 -3.8908  0.5736  1.5559
  714MOL0     H94194   9.262   3.041   1.989  1.4405 -0.3508 -0.1294
  714MOL0     H94195   9.287   3.269   2.204  0.6662  0.2162  0.3372
  714MOL0     H94196   9.138   3.179   2.159 -1.1276  0.4281 -2.5155
  714MOL0     H94197   9.287   3.401   2.019  2.0034 -1.4682 -0.5577
  714MOL0     H94198   9.201   3.271   1.927  1.4540 -1.7245  2.1134
  714MOL0     H94199   8.995   3.318   2.057  0.6092 -1.2812 -2.0324
  714MOL0     H94200   9.073   3.468   1.979  1.9360  1.1249  1.6931
  714MOL0     H94201   9.265   3.583   2.185  0.8829 -0.7759 -0.5725
  714MOL0     H94202   9.261   3.727   2.436 -0.6107  3.3418  3.3646
  714MOL0     H94203   9.095   3.733   2.492 -0.7762 -1.2878 -0.7213
  714MOL0     H94204   9.037   3.849   2.260 -0.5750 -1.1991 -0.1431
  714MOL0     H94205   9.217   3.851   2.233  0.5273 -1.0230  0.7301
  714MOL0     H94206   9.114   4.055   2.307  0.3948 -1.6841 -2.2805
  714MOL0     H94207   9.071   3.998   2.463  0.3426 -2.5356 -0.0441
  714MOL0     H94208   9.302   3.942   2.528 -0.0342  0.9816  0.1428
  714MOL0     H94209   9.256   4.106   2.495  0.2797  0.2516  2.1834
  714MOL0     H94210   9.574   4.011   2.190 -0.0152 -0.8077 -0.0517
  714MOL0     H94211   9.818   4.039   2.237  0.7341  2.6182  0.4034
  714MOL0     H94212  10.172   4.062   2.163  1.9577 -1.4732 -2.7376
  714MOL0     H94213  10.414   4.077   2.145  0.3238 -0.8005 -0.5243
  714MOL0     H94214  10.644   4.112   2.172  2.7016  1.1983 -0.3249
  714MOL0     H94215  10.657   3.972   2.275  1.1642 -0.1564 -1.1160
  714MOL0     H94216  10.854   4.078   2.381  0.1174  0.4821 -0.3226
  714MOL0     H94217  10.819   4.239   2.313  0.9673  0.0698 -0.0331
  714MOL0     H94218  10.875   4.189   2.102 -2.9123  0.4941  2.5847
  714MOL0     H94219  10.897   4.014   2.143 -0.7187 -0.3711 -0.2463
  714MOL0     H94220  11.052   4.247   2.288  1.5660  2.2512 -1.0614
  714MOL0     H94221  11.091   4.072   2.284 -1.7526 -0.7047 -0.1506
  714MOL0     H94222  11.258   4.192   2.154  1.2877  1.1612 -2.3049
  714MOL0     H94223  11.130   4.277   2.059  1.2747 -2.2184 -3.4325
  714MOL0     H94224  11.060   4.103   1.947  1.3348  0.8487 -2.0491
  714MOL0     H94225  11.142   3.983   2.046 -2.5623 -0.0064  0.1684
  714MOL0     H94226  11.236   4.014   1.814 -1.5102 -0.7666  0.7249
  714MOL0     H94227  11.263   4.187   1.854 -0.1576 -0.3532  0.4349
  714MOL0     H94228  11.446   4.143   1.989  2.8516 -0.3570 -0.2688
  714MOL0     H94229  11.464   4.053   1.834 -1.6531  1.1832 -1.2609
  714MOL0     H94230  10.444   4.065   2.572  2.2220 -0.0615 -1.4470
  714MOL0     H94231  10.189   4.054   2.584  1.1992  2.6156  0.8882
  714MOL0     H94232   9.725   4.101   2.649 -0.1431 -1.4639  0.4607
  714MOL0     H94233   9.479   4.078   2.602  1.3135 -0.6354  0.9931
  714MOL0     H94234   9.973   2.720   1.875 -2.3906  1.6755  1.0863
  714MOL0     H94235  10.183   2.631   1.792  1.6971  0.3538 -1.8540
  714MOL0     H94236  10.466   2.713   1.289 -2.8732 -0.0873  3.4219
  714MOL0     H94237  10.681   2.587   1.213 -1.7994  2.2518 -0.4357
  714MOL0     H94238  10.949   2.358   1.480  1.7784 -0.1550  2.6901
  714MOL0     H94239  10.994   2.531   1.516  1.6137  1.6687 -0.8782
  714MOL0     H94240  11.125   2.543   1.334  1.0182 -0.9917 -0.5978
  714MOL0     H94241  11.174   2.430   1.459  3.3416 -1.2578 -2.3525
  714MOL0     H94242  11.079   2.359   1.175 -0.2154 -2.4055 -0.8289
  714MOL0     H94243  11.052   2.250   1.316 -0.7649  0.2530 -0.3486
  714MOL0     H94244  11.307   2.387   1.224  0.1931  0.4660 -2.0319
  714MOL0     H94245  11.292   2.261   1.358 -0.0866 -4.3189 -1.1330
  714MOL0     H94246  11.284   2.065   0.963  2.7808 -1.9237  1.1732
  714MOL0     H94247  10.801   2.523   1.605 -0.7983  0.6074  0.6798
  714MOL0     H94248  10.593   2.656   1.689 -3.0128 -4.4887  0.3419
  715MOL0     O94249   1.533   4.985   4.368  0.1444  0.1234 -0.4718
  715MOL0     C94250   1.562   5.010   4.251  0.4058 -0.1532 -0.8614
  715MOL0     O94251   1.481   5.079   4.166  0.4653  0.2831  0.0249
  715MOL0     C94252   1.356   5.124   4.209  0.7691 -0.8341  0.3849
  715MOL0     C94253   1.243   5.127   4.122 -0.7251 -0.1736  0.4310
  715MOL0     C94254   1.120   5.187   4.162  0.9623 -0.3687  0.2383
  715MOL0     C94255   1.107   5.250   4.285 -0.0698 -0.4661 -0.0221
  715MOL0     O94256   0.992   5.297   4.329  0.6522  0.5210  1.1009
  715MOL0     C94257   0.863   5.248   4.278 -0.7421 -0.4699  0.1160
  715MOL0     C94258   0.820   5.118   4.351  0.0776 -0.6313 -0.0047
  715MOL0     C94259   0.678   5.077   4.307  0.2008 -0.0852 -0.1034
  715MOL0     C94260   0.569   5.189   4.310 -0.3734  0.9240 -0.0544
  715MOL0     C94261   0.431   5.133   4.302  0.6224  0.3740  0.3937
  715MOL0     C94262   0.326   5.230   4.269  0.6314  0.3630  0.2628
  715MOL0     C94263   0.187   5.168   4.267 -0.0613  0.8206  0.2426
  715MOL0     C94264   0.083   5.261   4.205  0.2018  0.0802  0.2768
  715MOL0     N94265  -0.051   5.208   4.220  0.0343 -0.4116  0.0150
  715MOL0     C94266  -0.098   5.138   4.331  0.6329 -0.3625  0.0165
  715MOL0     C94267  -0.235   5.133   4.308  0.0912 -0.3097 -0.3488
  715MOL0     C94268  -0.339   5.072   4.397  0.7583  0.8738  0.2100
  715MOL0     C94269  -0.360   5.171   4.512 -0.7492  0.1245  0.7580
  715MOL0     C94270  -0.486   5.147   4.593 -0.0251 -0.0844 -0.0508
  715MOL0     C94271  -0.614   5.208   4.524 -0.1950  0.2959 -0.0669
  715MOL0     O94272  -0.612   5.347   4.544  0.0220  0.1989  0.5411
  715MOL0     C94273  -0.706   5.423   4.488 -1.1002 -0.2425 -0.7314
  715MOL0     C94274  -0.762   5.522   4.577  0.4089  0.0909  0.2793
  715MOL0     C94275  -0.880   5.592   4.531 -0.6565  0.1875  0.5930
  715MOL0     C94276  -0.932   5.561   4.406  0.6184 -0.2786  0.3066
  715MOL0     C94277  -1.065   5.620   4.369 -0.9282  0.3846  0.1395
  715MOL0     O94278  -1.122   5.704   4.456 -0.4269 -0.2935  0.3122
  715MOL0     C94279  -1.243   5.742   4.414 -0.0259 -0.7587 -0.1139
  715MOL0     C94280  -1.355   5.687   4.470  0.2220  0.0530 -0.2235
  715MOL0     C94281  -1.481   5.718   4.442 -0.8076  0.0789 -0.0554
  715MOL0     C94282  -1.502   5.811   4.341  0.2684 -0.4457  0.5259
  715MOL0     O94283  -1.626   5.866   4.315  0.0766  0.3975  0.1669
  715MOL0     C94284  -1.745   5.804   4.375 -1.3008  0.0979  0.2099
  715MOL0     C94285  -1.845   5.911   4.348 -0.2689  0.0842  0.2528
  715MOL0     C94286  -1.971   5.915   4.436  0.1349 -0.0785  0.8638
  715MOL0     C94287  -2.077   6.008   4.357 -0.1859  0.2177 -0.1337
  715MOL0     C94288  -2.222   5.993   4.411 -1.4389  1.1417 -0.7431
  715MOL0     C94289  -2.229   6.081   4.536 -0.8044  0.5847 -0.2127
  715MOL0     C94290  -2.376   6.088   4.561  0.3098  0.2153  0.1962
  715MOL0     C94291  -2.389   6.165   4.689 -0.7328 -0.0665 -0.3832
  715MOL0    Cl94292  -2.333   6.327   4.666  0.3038 -1.0641 -0.3290
  715MOL0     C94293  -1.399   5.879   4.280  0.2891 -0.0367 -0.1643
  715MOL0     C94294  -1.273   5.838   4.314  0.0929 -0.1743  0.3297
  715MOL0     O94295  -1.108   5.576   4.264  0.3395 -0.4951  0.3739
  715MOL0     C94296  -0.874   5.462   4.325  0.6248  0.0767  0.6500
  715MOL0     C94297  -0.760   5.393   4.361 -0.0543  0.5541 -0.9558
  715MOL0     N94298  -0.267   5.205   4.190 -0.5718 -0.4481 -0.5990
  715MOL0     N94299  -0.156   5.252   4.140 -0.3302 -0.2828 -0.3036
  715MOL0     C94300   1.227   5.264   4.365  0.4282  0.3458  0.2513
  715MOL0     C94301   1.346   5.197   4.327  0.1740 -0.2380 -0.5828
  715MOL0     C94302   1.689   4.956   4.201  0.1499 -0.7153 -0.8470
  715MOL0     C94303   1.721   4.981   4.066  0.0589 -0.1234  0.1865
  715MOL0     C94304   1.841   4.931   4.006 -1.0245  0.4426 -0.5702
  715MOL0     C94305   1.930   4.856   4.088 -0.5757  0.4163 -1.0039
  715MOL0     O94306   2.044   4.810   4.027  0.0697  0.7920 -0.3887
  715MOL0     C94307   2.134   4.708   4.096 -0.4250 -1.1236 -0.2392
  715MOL0     C94308   2.241   4.664   3.999  0.3138 -0.1621  0.1053
  715MOL0     C94309   2.374   4.734   3.999 -0.4408 -0.0270  0.5712
  715MOL0     C94310   2.476   4.712   4.105 -0.4597 -0.3100 -0.3163
  715MOL0     C94311   2.590   4.811   4.081  0.3184  0.0172 -0.5591
  715MOL0     C94312   2.685   4.888   4.079  0.2088  0.6952  0.0588
  715MOL0     C94313   1.904   4.832   4.221 -0.0604  0.0344 -1.0287
  715MOL0     C94314   1.783   4.885   4.281  0.6071 -0.4597 -0.2355
  715MOL0     H94315   1.243   5.072   4.029 -0.9053 -1.1606  0.9919
  715MOL0     H94316   1.031   5.176   4.101 -1.3794 -1.5577  3.5485
  715MOL0     H94317   0.849   5.231   4.171 -2.6341  1.3077  0.0385
  715MOL0     H94318   0.802   5.337   4.292  2.5088  2.0989 -0.7235
  715MOL0     H94319   0.815   5.149   4.456 -2.5388 -0.7079 -0.0333
  715MOL0     H94320   0.892   5.037   4.339 -2.2194 -2.6424 -0.9596
  715MOL0     H94321   0.651   4.986   4.361 -1.6426 -0.0700 -0.9042
  715MOL0     H94322   0.687   5.035   4.206 -0.6693 -2.9008  0.8880
  715MOL0     H94323   0.578   5.248   4.402  4.7187  1.4962 -0.6824
  715MOL0     H94324   0.589   5.259   4.228 -0.8187  1.4715  0.2857
  715MOL0     H94325   0.399   5.093   4.398  0.7681  1.8086  1.0567
  715MOL0     H94326   0.437   5.055   4.225  2.5449 -0.2788  1.1331
  715MOL0     H94327   0.346   5.297   4.185 -2.7936  1.0136 -0.2164
  715MOL0     H94328   0.318   5.305   4.349 -2.7929 -1.4541  1.8859
  715MOL0     H94329   0.190   5.081   4.202 -0.6988 -0.6127  2.0389
  715MOL0     H94330   0.166   5.144   4.372  0.3112 -1.3353 -0.1391
  715MOL0     H94331   0.092   5.281   4.098 -0.7301 -0.1996  0.1325
  715MOL0     H94332   0.088   5.355   4.261 -3.1909  1.2473 -1.0844
  715MOL0     H94333  -0.041   5.090   4.410  2.1756  0.6167 -0.4488
  715MOL0     H94334  -0.300   4.976   4.432  3.0281  1.8912  0.6776
  715MOL0     H94335  -0.435   5.053   4.348 -1.1001  3.2677  2.5857
  715MOL0     H94336  -0.361   5.275   4.478 -0.2689 -0.1768 -0.2013
  715MOL0     H94337  -0.270   5.162   4.573 -0.1906  0.9842  0.0804
  715MOL0     H94338  -0.486   5.039   4.605 -0.5559  0.0104  0.8535
  715MOL0     H94339  -0.488   5.173   4.699 -1.4586 -0.7872  0.1139
  715MOL0     H94340  -0.701   5.171   4.580 -1.3230  1.0162 -1.2899
  715MOL0     H94341  -0.628   5.176   4.420  0.5515  0.5889 -0.2662
  715MOL0     H94342  -0.723   5.544   4.676 -1.2379 -0.9419  1.1953
  715MOL0     H94343  -0.932   5.656   4.602 -0.6098  1.5190 -0.5412
  715MOL0     H94344  -1.335   5.630   4.560 -0.6633  0.1785  0.0638
  715MOL0     H94345  -1.549   5.645   4.485  0.4622 -2.5906 -2.2890
  715MOL0     H94346  -1.727   5.787   4.482  4.5895 -1.5154 -0.7001
  715MOL0     H94347  -1.778   5.715   4.322 -0.6889  0.1074 -0.1904
  715MOL0     H94348  -1.869   5.884   4.245  0.4345 -0.1980  0.1558
  715MOL0     H94349  -1.803   6.012   4.344  1.0920 -0.4987 -0.9974
  715MOL0     H94350  -1.942   5.947   4.536  2.3523 -2.7273  1.1899
  715MOL0     H94351  -2.003   5.811   4.444  1.9741 -0.7495  0.1459
  715MOL0     H94352  -2.045   6.111   4.345 -4.0520  1.6688  0.5527
  715MOL0     H94353  -2.085   5.970   4.254 -0.6658 -0.5515  0.1711
  715MOL0     H94354  -2.251   5.890   4.432 -1.4823  1.6811  2.1883
  715MOL0     H94355  -2.295   6.025   4.336 -2.8009  0.4807  0.2570
  715MOL0     H94356  -2.184   6.179   4.519 -0.8957  0.5760 -0.5054
  715MOL0     H94357  -2.170   6.025   4.610 -0.9035 -2.0121 -1.9757
  715MOL0     H94358  -2.439   6.132   4.483 -2.3947 -3.1453  0.2302
  715MOL0     H94359  -2.415   5.988   4.584  1.8351  0.0593  2.4906
  715MOL0     H94360  -2.326   6.121   4.768  0.0195  1.4330 -0.0959
  715MOL0     H94361  -2.491   6.157   4.727 -0.5054  0.0353  0.2808
  715MOL0     H94362  -1.413   5.963   4.212 -1.1245  2.5837  3.0323
  715MOL0     H94363  -1.195   5.891   4.261  0.4821  0.1219  1.1755
  715MOL0     H94364  -0.908   5.441   4.224  1.4113  0.9443  0.1862
  715MOL0     H94365  -0.716   5.320   4.294  0.6191 -0.6763  0.7314
  715MOL0     H94366   1.220   5.315   4.460 -1.2508  2.0440 -0.7262
  715MOL0     H94367   1.430   5.220   4.391 -0.9246  0.3514  0.6885
  715MOL0     H94368   1.645   5.034   4.008 -0.0595  0.7944  1.1521
  715MOL0     H94369   1.874   4.945   3.904  0.7201 -1.0984 -0.2716
  715MOL0     H94370   2.067   4.625   4.121 -0.7377  0.1935  3.9185
  715MOL0     H94371   2.183   4.740   4.188 -0.0341  0.6330 -1.0200
  715MOL0     H94372   2.249   4.556   4.016  1.5667  0.0101  0.7240
  715MOL0     H94373   2.210   4.683   3.896  2.0323  0.0287 -0.4103
  715MOL0     H94374   2.348   4.841   3.998  0.2088  0.1330  0.2865
  715MOL0     H94375   2.419   4.717   3.901 -4.8185  2.5746 -2.2630
  715MOL0     H94376   2.431   4.731   4.203 -1.0150  1.4053 -0.8850
  715MOL0     H94377   2.518   4.611   4.107  0.4982  0.0366 -1.6370
  715MOL0     H94378   2.759   4.964   4.066  0.8867 -0.0542 -0.6195
  715MOL0     H94379   1.975   4.780   4.285 -1.6606  0.9665  1.6709
  715MOL0     H94380   1.759   4.870   4.386 -0.2789  1.4219 -0.1179
  716MOL0     O94381   8.018  10.069   9.116 -0.8648  0.1632 -0.4123
  716MOL0     C94382   7.985   9.953   9.096  0.4103 -0.3894 -0.1490
  716MOL0     O94383   7.857   9.911   9.103 -0.4034  0.8729 -0.1775
  716MOL0     C94384   7.746   9.982   9.148  0.0312  0.4767 -0.2475
  716MOL0     C94385   7.636   9.906   9.198 -0.0091 -0.2492 -0.1753
  716MOL0     C94386   7.523   9.963   9.258 -0.1927 -0.0801 -0.1190
  716MOL0     C94387   7.516  10.105   9.269  0.0482  0.6095  0.3004
  716MOL0     O94388   7.410  10.172   9.322 -0.2541 -0.8063 -0.4555
  716MOL0     C94389   7.307  10.104   9.400  0.3160  0.0090 -0.4403
  716MOL0     C94390   7.198  10.039   9.322  1.2093  0.1618 -0.0371
  716MOL0     C94391   7.070  10.131   9.297 -0.3691 -0.2988 -0.3040
  716MOL0     C94392   7.098  10.255   9.213 -0.5681 -1.0373 -0.4274
  716MOL0     C94393   6.971  10.345   9.198  0.5430  0.8342 -0.0289
  716MOL0     C94394   6.994  10.434   9.087  0.2030  0.0801 -0.8303
  716MOL0     C94395   6.853  10.499   9.053 -0.4535 -0.6208  1.0007
  716MOL0     C94396   6.862  10.622   8.954 -0.0013  0.1694 -0.4558
  716MOL0     N94397   6.727  10.658   8.908 -0.2520 -0.1139 -0.6085
  716MOL0     C94398   6.642  10.570   8.849 -0.4122  0.1852 -0.1883
  716MOL0     C94399   6.540  10.646   8.814 -0.0765  0.4831  0.2698
  716MOL0     C94400   6.419  10.605   8.746  0.7503  0.3965  0.1097
  716MOL0     C94401   6.350  10.719   8.667 -0.5564 -0.0435  0.3771
  716MOL0     C94402   6.233  10.688   8.573 -0.3446  0.1519 -0.4344
  716MOL0     C94403   6.091  10.663   8.643 -0.6266  0.2131  1.2854
  716MOL0     O94404   6.008  10.619   8.529 -0.4309  0.9945  0.2962
  716MOL0     C94405   5.865  10.619   8.547  0.1493  0.7748  0.1395
  716MOL0     C94406   5.780  10.584   8.437  0.1010 -0.1018 -0.1329
  716MOL0     C94407   5.640  10.582   8.451 -0.1589  0.0905 -0.1157
  716MOL0     C94408   5.582  10.610   8.576 -0.2651 -0.2990  0.3429
  716MOL0     C94409   5.435  10.605   8.597  0.0656 -0.5449 -0.7825
  716MOL0     O94410   5.350  10.570   8.494  0.1832 -0.1900  0.1209
  716MOL0     C94411   5.209  10.589   8.498  0.4243 -1.0065  0.9897
  716MOL0     C94412   5.151  10.685   8.575 -0.6289 -0.2750  0.5900
  716MOL0     C94413   5.016  10.699   8.592 -0.2142  0.2396 -0.0908
  716MOL0     C94414   4.928  10.612   8.515 -0.1941  0.2235 -1.6778
  716MOL0     O94415   4.792  10.635   8.522 -0.3816  0.3967  0.3390
  716MOL0     C94416   4.736  10.698   8.632  0.6386 -0.6193 -0.8898
  716MOL0     C94417   4.584  10.669   8.635  0.0566 -0.7154 -0.1370
  716MOL0     C94418   4.490  10.772   8.584  0.1898  0.5377  0.0286
  716MOL0     C94419   4.471  10.756   8.430  0.1202  0.1760  0.3151
  716MOL0     C94420   4.394  10.875   8.377 -0.4427 -0.4457  0.4698
  716MOL0     C94421   4.255  10.925   8.429 -0.7513 -0.0723  0.6446
  716MOL0     C94422   4.158  10.809   8.410  0.2645  0.9354  0.0669
  716MOL0     C94423   4.029  10.838   8.324  0.1271  0.1955  1.1891
  716MOL0    Cl94424   4.060  10.954   8.187 -0.1905 -0.1695 -0.3005
  716MOL0     C94425   4.986  10.524   8.425 -0.2222 -0.0288 -0.2311
  716MOL0     C94426   5.122  10.518   8.416  0.5279  0.0505 -0.6222
  716MOL0     O94427   5.394  10.642   8.711  0.0188 -0.6480  0.2748
  716MOL0     C94428   5.660  10.638   8.683 -0.2233 -0.1030  0.3694
  716MOL0     C94429   5.801  10.644   8.668  0.3779  0.6131 -0.3489
  716MOL0     N94430   6.560  10.771   8.874  0.1344  0.4009 -0.0562
  716MOL0     N94431   6.674  10.775   8.929  0.7279 -0.1945  0.4954
  716MOL0     C94432   7.624  10.171   9.226 -0.5811  0.1815  0.0949
  716MOL0     C94433   7.739  10.118   9.173  0.6101 -0.3832  0.3832
  716MOL0     C94434   8.096   9.856   9.049  0.9482  0.0804  0.7593
  716MOL0     C94435   8.209   9.897   8.978  0.8511  0.1638 -0.2086
  716MOL0     C94436   8.302   9.807   8.932 -0.0494  0.8716  0.0288
  716MOL0     C94437   8.284   9.667   8.949 -0.8650 -0.2998  0.4201
  716MOL0     O94438   8.386   9.589   8.893  0.4383 -0.4557  0.3829
  716MOL0     C94439   8.355   9.456   8.865 -0.2353  0.7056  0.0914
  716MOL0     C94440   8.430   9.417   8.737  0.6978 -0.1865  0.8060
  716MOL0     C94441   8.589   9.409   8.755  0.3429 -0.1016 -0.1312
  716MOL0     C94442   8.659   9.359   8.632 -0.2399 -0.4654 -0.1311
  716MOL0     C94443   8.797   9.316   8.659 -1.0627  0.9271  0.7035
  716MOL0     C94444   8.911   9.283   8.654  0.6711  0.2304  0.6132
  716MOL0     C94445   8.174   9.622   9.019  0.2313 -0.2011  0.7402
  716MOL0     C94446   8.081   9.718   9.064  0.2396  0.5422 -0.2733
  716MOL0     H94447   7.643   9.797   9.196 -0.8044 -0.4088  2.2460
  716MOL0     H94448   7.455   9.899   9.314 -0.4377 -0.0714 -0.4055
  716MOL0     H94449   7.251  10.181   9.455 -0.7196 -0.5362 -0.6978
  716MOL0     H94450   7.346  10.041   9.481 -0.5109 -1.1671 -0.9275
  716MOL0     H94451   7.166   9.950   9.378  0.3473  1.7147  2.0948
  716MOL0     H94452   7.234  10.009   9.223  1.9790 -1.1704  0.6291
  716MOL0     H94453   7.032  10.158   9.396  0.6965 -0.2209  0.0852
  716MOL0     H94454   6.992  10.080   9.238 -1.7699  1.3505  0.0355
  716MOL0     H94455   7.177  10.316   9.259 -2.0297  0.3016  0.3900
  716MOL0     H94456   7.129  10.216   9.115  1.6502 -0.1447 -0.1326
  716MOL0     H94457   6.941  10.396   9.289  1.1239 -0.6932  1.0585
  716MOL0     H94458   6.889  10.279   9.164  2.2194 -0.4879 -1.7351
  716MOL0     H94459   7.053  10.389   9.006  2.1492  0.2902  0.4141
  716MOL0     H94460   7.058  10.513   9.127 -0.0837 -0.8582  1.6353
  716MOL0     H94461   6.793  10.423   9.003 -1.6097 -0.0476  1.4851
  716MOL0     H94462   6.803  10.533   9.143 -0.6441  0.0888  0.6303
  716MOL0     H94463   6.914  10.591   8.863 -2.2173  1.6725 -2.3582
  716MOL0     H94464   6.916  10.706   8.998 -0.6646  0.1871  0.3548
  716MOL0     H94465   6.649  10.465   8.821 -3.1007  0.7193 -3.5293
  716MOL0     H94466   6.342  10.571   8.816  2.0632 -0.7379  1.0577
  716MOL0     H94467   6.434  10.520   8.679 -1.2530  0.0891 -0.0244
  716MOL0     H94468   6.422  10.771   8.603 -0.8573 -0.8259 -0.6236
  716MOL0     H94469   6.325  10.804   8.731 -0.8872 -0.1768  0.4243
  716MOL0     H94470   6.231  10.771   8.502  0.9818 -1.0428 -1.9624
  716MOL0     H94471   6.251  10.606   8.503  1.8508  0.9005 -0.8299
  716MOL0     H94472   6.057  10.757   8.688  0.4128 -0.4453  3.5783
  716MOL0     H94473   6.081  10.582   8.715 -1.4102  1.1913  2.3116
  716MOL0     H94474   5.826  10.556   8.343 -0.5362 -1.1285 -0.1654
  716MOL0     H94475   5.582  10.544   8.367  2.6821 -2.9888 -0.8953
  716MOL0     H94476   5.223  10.747   8.625  1.1394 -2.2704  0.6655
  716MOL0     H94477   4.976  10.768   8.665  0.6084 -1.0453  1.6468
  716MOL0     H94478   4.752  10.804   8.657 -1.5087 -0.8605  1.9732
  716MOL0     H94479   4.775  10.649   8.721 -0.1686 -0.3156 -0.3602
  716MOL0     H94480   4.559  10.657   8.740 -0.3319  0.7327 -0.0394
  716MOL0     H94481   4.565  10.576   8.580 -2.2858 -0.8585  0.8065
  716MOL0     H94482   4.547  10.861   8.613  2.8180 -0.8577 -0.5197
  716MOL0     H94483   4.398  10.761   8.641  0.8286 -0.8164  0.8372
  716MOL0     H94484   4.568  10.733   8.384 -0.7961 -1.6902 -0.8386
  716MOL0     H94485   4.406  10.670   8.412 -1.3770  1.0609  1.3839
  716MOL0     H94486   4.389  10.864   8.268 -1.8375 -0.4974  0.5214
  716MOL0     H94487   4.468  10.954   8.399 -0.6114 -0.3352  0.6425
  716MOL0     H94488   4.236  11.015   8.370  0.2367 -0.8688 -0.9210
  716MOL0     H94489   4.258  10.942   8.538  0.0283 -1.2327  0.8187
  716MOL0     H94490   4.198  10.718   8.365 -1.2206  0.1665  0.2313
  716MOL0     H94491   4.123  10.778   8.509 -0.6945  3.0579  0.4539
  716MOL0     H94492   3.942  10.880   8.375  0.8712  2.2272  0.8999
  716MOL0     H94493   3.997  10.737   8.297 -4.6152  1.3670  1.6073
  716MOL0     H94494   4.917  10.468   8.362 -0.8308 -0.9794  1.2133
  716MOL0     H94495   5.166  10.455   8.340 -0.6122  0.0012 -1.2626
  716MOL0     H94496   5.627  10.657   8.785 -2.1326  3.1086 -0.7018
  716MOL0     H94497   5.846  10.653   8.767  3.8147 -3.6598 -1.1997
  716MOL0     H94498   7.621  10.280   9.233 -2.0518  0.2070 -0.4662
  716MOL0     H94499   7.811  10.192   9.139 -0.0778 -0.7656 -2.0842
  716MOL0     H94500   8.225  10.002   8.957  0.9469  0.3899  0.9292
  716MOL0     H94501   8.391   9.852   8.888 -0.0080 -0.2912 -1.1408
  716MOL0     H94502   8.250   9.432   8.844 -0.5275  0.6909  1.4860
  716MOL0     H94503   8.377   9.380   8.940 -3.4597  0.5044  0.9958
  716MOL0     H94504   8.388   9.318   8.718  3.1224 -1.9702  3.6417
  716MOL0     H94505   8.401   9.480   8.653 -2.9472 -0.0695  1.9985
  716MOL0     H94506   8.599   9.329   8.829 -3.8316 -0.9020 -0.1506
  716MOL0     H94507   8.616   9.512   8.783  0.1065 -0.2613  0.7110
  716MOL0     H94508   8.605   9.276   8.584 -0.0459  1.0464 -3.1760
  716MOL0     H94509   8.663   9.429   8.549  2.6337  1.7398  1.6759
  716MOL0     H94510   9.014   9.253   8.654  1.4385  2.1824  4.6542
  716MOL0     H94511   8.143   9.519   9.028  0.2139 -0.5361 -2.2803
  716MOL0     H94512   7.994   9.689   9.121  1.0039  0.4271  0.8820
  717MOL0     O94513   1.827   4.602   6.667 -0.0408 -0.0161 -0.8500
  717MOL0     C94514   1.867   4.490   6.618  1.0354  0.1660 -0.3607
  717MOL0     O94515   1.775   4.395   6.583  0.8330 -0.8979  0.0832
  717MOL0     C94516   1.642   4.440   6.570  0.4100 -0.4572 -0.4414
  717MOL0     C94517   1.593   4.530   6.464 -0.0536  0.5495 -0.2783
  717MOL0     C94518   1.451   4.556   6.456 -0.5919  0.2895 -0.3704
  717MOL0     C94519   1.356   4.506   6.541  0.1018  0.4471  1.2079
  717MOL0     O94520   1.218   4.524   6.507 -0.1704  0.9073  0.1050
  717MOL0     C94521   1.128   4.425   6.555  0.3930  0.2749  0.6377
  717MOL0     C94522   1.010   4.412   6.464  0.1304  0.5334  0.7821
  717MOL0     C94523   0.935   4.539   6.429 -0.2722 -0.1880  0.7367
  717MOL0     C94524   0.820   4.519   6.326  0.1423  0.2958  0.0220
  717MOL0     C94525   0.735   4.641   6.319  0.2257 -0.4938  1.1223
  717MOL0     C94526   0.609   4.607   6.250  0.5123  1.1387 -0.8259
  717MOL0     C94527   0.499   4.712   6.226 -0.0204  0.4299  0.0591
  717MOL0     C94528   0.381   4.651   6.155  0.3416 -0.6206  0.7857
  717MOL0     N94529   0.257   4.718   6.184  0.1495 -0.0902 -0.2336
  717MOL0     C94530   0.203   4.835   6.123 -0.0880  0.3203  0.9745
  717MOL0     C94531   0.096   4.869   6.202 -0.4128  0.2428  0.5555
  717MOL0     C94532   0.015   4.993   6.195  0.5442 -0.0911  0.1894
  717MOL0     C94533  -0.074   5.003   6.321 -0.8416  0.6973  0.8198
  717MOL0     C94534  -0.158   5.133   6.306  0.1004  0.1171  0.1888
  717MOL0     C94535  -0.245   5.143   6.428  0.3026 -0.0192 -0.1327
  717MOL0     O94536  -0.279   5.286   6.456 -0.1066 -0.5740 -0.3869
  717MOL0     C94537  -0.393   5.328   6.398  0.4886 -0.2480  0.6608
  717MOL0     C94538  -0.454   5.277   6.281 -0.4121 -0.2058 -0.3236
  717MOL0     C94539  -0.578   5.325   6.230 -0.7520 -0.2140 -0.7731
  717MOL0     C94540  -0.651   5.414   6.312 -0.2976  0.7753 -0.0344
  717MOL0     C94541  -0.781   5.461   6.267  1.1315 -0.3063 -0.5894
  717MOL0     O94542  -0.839   5.388   6.168 -0.6470 -0.8414  0.2941
  717MOL0     C94543  -0.943   5.441   6.096  0.6969 -0.0488 -0.3675
  717MOL0     C94544  -0.942   5.571   6.045 -0.3273 -0.5014  0.4854
  717MOL0     C94545  -1.055   5.622   5.983 -0.0015  0.3458  1.0807
  717MOL0     C94546  -1.179   5.545   5.965 -0.1170  0.1795 -0.0657
  717MOL0     O94547  -1.293   5.581   5.907  0.5778 -0.3538  0.0662
  717MOL0     C94548  -1.307   5.714   5.854  0.8609 -0.7574 -1.1929
  717MOL0     C94549  -1.450   5.761   5.834 -0.5697 -0.1910 -0.1069
  717MOL0     C94550  -1.517   5.679   5.730  0.8445  0.0276  0.5748
  717MOL0     C94551  -1.666   5.723   5.746 -0.5333 -0.4584  0.6866
  717MOL0     C94552  -1.757   5.638   5.666 -0.1581  0.5277  0.4120
  717MOL0     C94553  -1.900   5.679   5.701  0.2668 -0.2707 -0.3291
  717MOL0     C94554  -1.993   5.635   5.592 -0.3970 -1.0783 -0.1806
  717MOL0     C94555  -2.131   5.686   5.627  0.4630 -1.0124 -0.2243
  717MOL0    Cl94556  -2.245   5.656   5.489 -0.3251 -0.5296 -1.0389
  717MOL0     C94557  -1.181   5.419   6.037 -0.6979 -0.2534 -0.2214
  717MOL0     C94558  -1.063   5.377   6.101 -0.5833  0.1580 -0.9447
  717MOL0     O94559  -0.830   5.566   6.314 -0.0091  0.1333 -1.2928
  717MOL0     C94560  -0.585   5.487   6.416  0.7649 -0.2352  0.7895
  717MOL0     C94561  -0.462   5.440   6.456 -1.2942  0.7769  0.7458
  717MOL0     N94562   0.074   4.763   6.289  0.1738  0.1690 -0.1284
  717MOL0     N94563   0.166   4.674   6.281  0.9396 -0.1642  0.3601
  717MOL0     C94564   1.405   4.430   6.648 -0.5511 -0.1685  0.1358
  717MOL0     C94565   1.544   4.397   6.659 -0.5669 -0.2266  0.4181
  717MOL0     C94566   2.007   4.476   6.569 -0.2527  0.6091 -0.7385
  717MOL0     C94567   2.045   4.368   6.488  0.1744 -0.6701  0.5632
  717MOL0     C94568   2.176   4.365   6.416 -0.4929  0.2709 -0.3824
  717MOL0     C94569   2.270   4.466   6.436  0.1489 -0.2148 -0.7249
  717MOL0     O94570   2.399   4.462   6.389 -0.5810 -0.0939  0.3524
  717MOL0     C94571   2.426   4.364   6.287 -0.1169  1.0546  0.8342
  717MOL0     C94572   2.573   4.365   6.241  0.3787 -0.2386 -0.3006
  717MOL0     C94573   2.681   4.368   6.357 -0.1114 -0.8144 -0.7270
  717MOL0     C94574   2.728   4.227   6.407 -0.2123  0.2651  0.0983
  717MOL0     C94575   2.831   4.228   6.515 -0.1460  0.0800 -0.6816
  717MOL0     C94576   2.907   4.250   6.608 -0.4799  0.1828  0.3025
  717MOL0     C94577   2.232   4.567   6.525 -0.5372  0.2292 -0.6548
  717MOL0     C94578   2.100   4.570   6.587 -0.6796 -0.4872 -0.0595
  717MOL0     H94579   1.653   4.579   6.388 -2.3885  3.7284 -0.2927
  717MOL0     H94580   1.421   4.611   6.367 -0.3811  2.4999  0.8334
  717MOL0     H94581   1.091   4.456   6.653 -0.2636 -2.8871  1.4848
  717MOL0     H94582   1.168   4.324   6.564 -3.7805 -1.6627 -0.2306
  717MOL0     H94583   0.944   4.337   6.508  2.1193 -2.1120 -0.4461
  717MOL0     H94584   1.051   4.373   6.370 -0.4511  2.4057 -0.2997
  717MOL0     H94585   1.007   4.610   6.388 -1.7326  2.3311  2.2109
  717MOL0     H94586   0.888   4.582   6.519 -1.9470 -1.8452  0.7227
  717MOL0     H94587   0.869   4.501   6.230  0.9007  1.3644  0.1901
  717MOL0     H94588   0.759   4.436   6.364 -0.5875  1.4697  1.5474
  717MOL0     H94589   0.788   4.714   6.257 -1.3140 -0.2922 -0.0319
  717MOL0     H94590   0.708   4.690   6.413  0.9623  1.9396  0.1391
  717MOL0     H94591   0.568   4.522   6.306  1.8312  1.6208  0.9528
  717MOL0     H94592   0.618   4.562   6.150 -1.7898  2.0203 -1.4946
  717MOL0     H94593   0.471   4.750   6.325 -0.3640 -1.6553  0.8267
  717MOL0     H94594   0.533   4.797   6.166 -0.0866  0.9097  0.6916
  717MOL0     H94595   0.369   4.546   6.183  0.3572 -0.8313  0.0126
  717MOL0     H94596   0.399   4.653   6.047  2.8028 -0.0735  1.1463
  717MOL0     H94597   0.251   4.888   6.042 -1.5361  0.9884  0.5108
  717MOL0     H94598  -0.048   4.998   6.106 -1.5756  1.6335  1.6750
  717MOL0     H94599   0.080   5.081   6.199  0.7844 -0.2797  0.5145
  717MOL0     H94600  -0.012   5.001   6.411 -1.2948 -0.0773  1.1228
  717MOL0     H94601  -0.137   4.914   6.331  0.5710 -0.4871 -0.4687
  717MOL0     H94602  -0.086   5.215   6.319  1.2533 -1.2317  3.1467
  717MOL0     H94603  -0.208   5.136   6.209  1.7119  0.1714 -0.6761
  717MOL0     H94604  -0.191   5.110   6.518 -0.1550 -1.1807 -0.2754
  717MOL0     H94605  -0.332   5.077   6.420  1.0490 -0.7964 -2.2229
  717MOL0     H94606  -0.411   5.197   6.222  1.7593  1.2823 -0.8594
  717MOL0     H94607  -0.624   5.294   6.137  0.2925 -2.2362 -0.6680
  717MOL0     H94608  -0.859   5.641   6.042 -0.8705  0.1351 -0.5092
  717MOL0     H94609  -1.044   5.729   5.972 -1.3145  0.8294  3.6712
  717MOL0     H94610  -1.254   5.719   5.759 -3.2832 -1.6154 -3.8047
  717MOL0     H94611  -1.262   5.784   5.925  1.4519 -3.2090  1.0052
  717MOL0     H94612  -1.459   5.864   5.799 -2.3181  0.0195  0.8372
  717MOL0     H94613  -1.506   5.753   5.928  0.6292 -0.8636  0.5643
  717MOL0     H94614  -1.502   5.572   5.748 -0.8802 -0.3329  0.0051
  717MOL0     H94615  -1.485   5.690   5.626  0.6766 -0.5336  0.4585
  717MOL0     H94616  -1.687   5.710   5.853  1.7878  0.7405  1.3616
  717MOL0     H94617  -1.673   5.828   5.716 -3.7351 -1.2359 -1.9049
  717MOL0     H94618  -1.734   5.532   5.676 -1.5308  0.3285  1.9927
  717MOL0     H94619  -1.740   5.657   5.560  1.8974 -3.3919 -0.1105
  717MOL0     H94620  -1.909   5.788   5.698 -2.7029 -0.4451 -1.9524
  717MOL0     H94621  -1.918   5.640   5.801  0.9930  0.1753 -0.0198
  717MOL0     H94622  -1.959   5.678   5.497  1.1663 -1.8282  0.0240
  717MOL0     H94623  -2.010   5.527   5.578  0.3467 -1.3970  1.2619
  717MOL0     H94624  -2.133   5.794   5.646  0.5741 -1.2827  1.4656
  717MOL0     H94625  -2.165   5.649   5.724 -0.5207 -0.8091 -0.4732
  717MOL0     H94626  -1.265   5.351   6.048 -0.6568 -0.3592 -0.5493
  717MOL0     H94627  -1.065   5.288   6.164  0.0549  0.9016  0.1778
  717MOL0     H94628  -0.642   5.560   6.472 -0.6369 -0.4969 -0.2274
  717MOL0     H94629  -0.407   5.481   6.540  1.2718 -3.3359  1.3653
  717MOL0     H94630   1.331   4.392   6.718 -1.4353  1.3314  0.0732
  717MOL0     H94631   1.579   4.330   6.737  2.1758 -1.9761 -2.1009
  717MOL0     H94632   1.964   4.297   6.474  0.2988 -0.5110 -1.2496
  717MOL0     H94633   2.193   4.280   6.352  0.3025  0.5981 -0.6152
  717MOL0     H94634   2.352   4.388   6.209 -0.4186 -1.0781  0.4064
  717MOL0     H94635   2.403   4.262   6.320  3.1286  0.3904  1.3006
  717MOL0     H94636   2.596   4.284   6.172  0.8253  1.6938 -2.5445
  717MOL0     H94637   2.593   4.455   6.182 -1.5016  0.6243  0.3023
  717MOL0     H94638   2.648   4.425   6.444 -1.4946 -0.7425 -1.2841
  717MOL0     H94639   2.760   4.424   6.306  0.8782 -0.7622  0.7863
  717MOL0     H94640   2.644   4.168   6.444 -0.2025 -2.4458 -3.6692
  717MOL0     H94641   2.764   4.174   6.318  2.2401  0.6809  0.7494
  717MOL0     H94642   2.970   4.280   6.689 -0.5382 -1.7047  1.1072
  717MOL0     H94643   2.300   4.647   6.553  0.2453 -0.5089 -0.3895
  717MOL0     H94644   2.074   4.660   6.642 -1.4367 -2.0169  2.2561
  718MOL0     O94645   7.547   7.224   0.492  0.0884  0.4154 -0.3867
  718MOL0     C94646   7.534   7.104   0.463 -0.1497  0.1245 -0.6423
  718MOL0     O94647   7.409   7.029   0.452  0.3810  0.4323 -0.1604
  718MOL0     C94648   7.295   7.074   0.506 -0.0516  0.0873  0.1914
  718MOL0     C94649   7.256   7.009   0.623  0.8474  0.3828 -0.3518
  718MOL0     C94650   7.148   7.066   0.690 -0.0335 -0.0687  0.7317
  718MOL0     C94651   7.084   7.185   0.646  0.6976  0.2088  0.1162
  718MOL0     O94652   6.979   7.252   0.703  0.3032 -0.2283 -0.2055
  718MOL0     C94653   6.944   7.212   0.835  0.6008 -0.2971 -0.0195
  718MOL0     C94654   6.808   7.280   0.885  0.5110 -0.0361 -0.1297
  718MOL0     C94655   6.690   7.188   0.860 -0.5062 -0.2491  0.8236
  718MOL0     C94656   6.568   7.276   0.876  0.5710  1.0130  0.2117
  718MOL0     C94657   6.449   7.222   0.811  0.8048  1.1974  0.7574
  718MOL0     C94658   6.394   7.084   0.879  0.1274  0.3021  0.5889
  718MOL0     C94659   6.296   6.996   0.799  0.3335 -1.1457 -0.1263
  718MOL0     C94660   6.258   6.866   0.873  1.1917  0.3454  0.9461
  718MOL0     N94661   6.152   6.787   0.793  0.0259  0.3287 -0.2316
  718MOL0     C94662   6.022   6.765   0.839 -0.7897 -0.0145 -0.0350
  718MOL0     C94663   5.957   6.708   0.731  0.2322 -0.0583  0.0114
  718MOL0     C94664   5.819   6.649   0.751 -0.0212  0.2834  0.3113
  718MOL0     C94665   5.722   6.657   0.636  0.1474 -0.1037 -0.2182
  718MOL0     C94666   5.761   6.583   0.507 -0.0134 -0.1538 -0.1670
  718MOL0     C94667   5.634   6.574   0.426 -0.1515  0.5795 -0.5498
  718MOL0     O94668   5.544   6.472   0.480  0.8697  0.1783  0.6389
  718MOL0     C94669   5.416   6.476   0.440 -0.0078  0.4036  0.4118
  718MOL0     C94670   5.356   6.349   0.439  0.5565 -0.2990  0.6063
  718MOL0     C94671   5.228   6.335   0.395 -0.1559 -0.1810 -0.6517
  718MOL0     C94672   5.151   6.440   0.349 -0.1918 -0.2231 -1.4915
  718MOL0     C94673   5.007   6.415   0.301  0.3859  0.2648 -0.5319
  718MOL0     O94674   4.964   6.291   0.264  0.5695 -0.1983 -0.9558
  718MOL0     C94675   4.831   6.270   0.236  0.0520 -0.1513  0.2567
  718MOL0     C94676   4.757   6.168   0.295  0.0931  0.3806 -0.1807
  718MOL0     C94677   4.622   6.148   0.262 -0.0573  0.5684 -0.6082
  718MOL0     C94678   4.562   6.233   0.169 -0.9071  1.0944 -0.1623
  718MOL0     O94679   4.432   6.203   0.139  0.0292  0.1157  0.1664
  718MOL0     C94680   4.421   6.155  -0.000 -0.2672  0.6157  0.2602
  718MOL0     C94681   4.271   6.124  -0.021  1.0165 -0.0665  0.3980
  718MOL0     C94682   4.217   5.990   0.031 -0.6362  0.4361  0.4392
  718MOL0     C94683   4.079   5.947  -0.016  0.4979 -0.7393 -0.6917
  718MOL0     C94684   4.057   5.931  -0.170  0.1426  0.2357 -0.0585
  718MOL0     C94685   3.942   5.831  -0.190  1.2562 -0.4515 -0.1042
  718MOL0     C94686   3.908   5.799  -0.334 -0.0851  0.9205  0.5464
  718MOL0     C94687   4.024   5.736  -0.411  0.5476 -0.2728  0.1138
  718MOL0    Cl94688   4.054   5.573  -0.347 -0.1467 -0.4354  0.2443
  718MOL0     C94689   4.638   6.334   0.118  0.1699 -0.3323 -0.1800
  718MOL0     C94690   4.774   6.356   0.145 -0.1442 -0.7312 -0.8049
  718MOL0     O94691   4.933   6.516   0.295 -0.8562 -0.7090  0.1878
  718MOL0     C94692   5.207   6.569   0.363 -0.9090 -0.5495 -0.1844
  718MOL0     C94693   5.338   6.585   0.413  0.2587  1.4656  0.5425
  718MOL0     N94694   6.041   6.702   0.622 -0.3868  0.4238  0.6346
  718MOL0     N94695   6.162   6.745   0.653 -0.9162  0.2166  0.0234
  718MOL0     C94696   7.131   7.238   0.529  0.8937  0.0688  0.9032
  718MOL0     C94697   7.238   7.185   0.455  0.1972 -0.4912  0.1694
  718MOL0     C94698   7.663   7.025   0.450  0.7455 -0.6099  0.7064
  718MOL0     C94699   7.789   7.083   0.460  0.7328  0.0594  0.9351
  718MOL0     C94700   7.907   7.010   0.427  0.4081 -0.7208 -0.0182
  718MOL0     C94701   7.899   6.881   0.379 -0.1436 -0.4219 -0.8632
  718MOL0     O94702   8.013   6.813   0.347 -0.3540  0.5025 -0.4016
  718MOL0     C94703   8.011   6.676   0.308  0.2683  0.5792  0.6682
  718MOL0     C94704   8.155   6.621   0.273  0.4967  0.1813  1.1579
  718MOL0     C94705   8.146   6.508   0.172 -0.3159 -0.2590  0.2632
  718MOL0     C94706   8.285   6.454   0.141 -0.6841  0.5169  0.8008
  718MOL0     C94707   8.283   6.366   0.023  0.5915  0.3788  0.5054
  718MOL0     C94708   8.275   6.285  -0.064 -0.6264  0.5528 -0.1420
  718MOL0     C94709   7.764   6.821   0.376 -0.4157 -0.0190  0.6813
  718MOL0     C94710   7.659   6.889   0.416 -0.3334 -0.6554 -0.8622
  718MOL0     H94711   7.309   6.924   0.666 -0.8020  0.5580  2.2492
  718MOL0     H94712   7.116   7.014   0.779  0.9859  0.2372  1.2998
  718MOL0     H94713   7.027   7.237   0.901  0.1146 -1.3742  1.0522
  718MOL0     H94714   6.920   7.105   0.835 -2.3664  0.2732 -0.2641
  718MOL0     H94715   6.802   7.379   0.839 -0.3485  0.9609  1.9697
  718MOL0     H94716   6.824   7.300   0.991 -1.2198  1.2609 -0.0694
  718MOL0     H94717   6.691   7.099   0.923  1.9166 -0.8915  0.0042
  718MOL0     H94718   6.695   7.147   0.758 -0.4566 -1.8889  1.4579
  718MOL0     H94719   6.551   7.304   0.980 -1.4694 -0.0909  0.2407
  718MOL0     H94720   6.581   7.374   0.830 -0.7662  1.0839 -0.0599
  718MOL0     H94721   6.472   7.192   0.708 -2.3128  0.9746  0.0401
  718MOL0     H94722   6.378   7.304   0.804 -0.9577 -0.3619 -1.3018
  718MOL0     H94723   6.358   7.113   0.978  0.6224  0.1524  0.8177
  718MOL0     H94724   6.471   7.011   0.907 -3.3275 -4.0137  0.0567
  718MOL0     H94725   6.211   7.061   0.776  1.2754  0.2143  0.1025
  718MOL0     H94726   6.355   6.967   0.711  0.4937 -2.1644  0.3054
  718MOL0     H94727   6.221   6.877   0.976  0.1664 -2.7331  1.0280
  718MOL0     H94728   6.346   6.801   0.883  0.6076 -0.3956  1.4297
  718MOL0     H94729   5.980   6.787   0.937  1.7634  1.0175  0.8894
  718MOL0     H94730   5.772   6.707   0.831 -2.2271  0.8461 -1.2784
  718MOL0     H94731   5.831   6.544   0.781 -1.5900  0.3468  1.2785
  718MOL0     H94732   5.722   6.763   0.608  3.3133 -0.0075 -0.1995
  718MOL0     H94733   5.619   6.631   0.661 -0.9949  2.8698 -1.3582
  718MOL0     H94734   5.840   6.642   0.458  0.3261 -0.0107  0.5429
  718MOL0     H94735   5.807   6.484   0.515  2.2723  0.6957 -1.7153
  718MOL0     H94736   5.658   6.554   0.322 -1.6898  2.7110 -1.3761
  718MOL0     H94737   5.588   6.673   0.419 -3.3748 -0.8462 -1.2265
  718MOL0     H94738   5.402   6.258   0.476 -0.5731 -1.1075  0.1107
  718MOL0     H94739   5.183   6.237   0.384  1.8363 -1.1853 -0.3607
  718MOL0     H94740   4.812   6.101   0.360  1.7476  0.4767 -1.4509
  718MOL0     H94741   4.573   6.072   0.322  1.5569 -0.0109  0.0103
  718MOL0     H94742   4.479   6.062  -0.005 -0.5204  0.4941 -0.8362
  718MOL0     H94743   4.455   6.237  -0.063  0.3909  0.3428  0.2535
  718MOL0     H94744   4.270   6.124  -0.130  3.6336  0.5157  0.3061
  718MOL0     H94745   4.206   6.204   0.014 -0.0091  0.7029 -2.8982
  718MOL0     H94746   4.219   5.998   0.140  2.6259  1.2764  0.4038
  718MOL0     H94747   4.292   5.922  -0.011  1.0698  3.0869 -1.0566
  718MOL0     H94748   4.060   5.860   0.047 -0.6139  0.6820  1.0295
  718MOL0     H94749   4.012   6.030   0.006  0.8823 -1.1038  2.3207
  718MOL0     H94750   4.143   5.885  -0.219 -2.6297 -1.8454 -3.3947
  718MOL0     H94751   4.039   6.028  -0.218  2.2462 -0.4639 -2.4907
  718MOL0     H94752   3.863   5.881  -0.133  0.4311 -0.0243 -1.5688
  718MOL0     H94753   3.958   5.732  -0.146 -2.0781 -1.5897 -1.1309
  718MOL0     H94754   3.827   5.726  -0.336  0.7641 -0.0453 -0.1360
  718MOL0     H94755   3.872   5.891  -0.380  0.7661  0.8459 -0.3098
  718MOL0     H94756   4.115   5.796  -0.403 -0.8534  1.7503  1.9382
  718MOL0     H94757   3.998   5.725  -0.517 -1.2820 -2.5161  0.6931
  718MOL0     H94758   4.595   6.406   0.049  0.0687 -0.0343  0.1925
  718MOL0     H94759   4.837   6.430   0.096 -0.1867 -0.9327 -1.1687
  718MOL0     H94760   5.148   6.658   0.344 -0.7319 -0.7499 -1.8858
  718MOL0     H94761   5.383   6.681   0.434  1.2934  0.9199  0.8745
  718MOL0     H94762   7.082   7.326   0.488 -0.7354 -1.8639 -1.5892
  718MOL0     H94763   7.281   7.227   0.365 -0.6409 -3.1968 -1.5999
  718MOL0     H94764   7.781   7.182   0.503  0.1784  0.3799  0.1260
  718MOL0     H94765   8.009   7.048   0.428  2.0217 -4.5378 -1.5744
  718MOL0     H94766   7.951   6.671   0.217  0.8832 -2.4858  0.3052
  718MOL0     H94767   7.958   6.619   0.386  2.2864  0.9052  2.3789
  718MOL0     H94768   8.205   6.703   0.221 -3.6548  0.9665 -2.1800
  718MOL0     H94769   8.208   6.591   0.364 -0.4375 -2.1669  0.9893
  718MOL0     H94770   8.088   6.540   0.085  1.8674  0.0192 -1.1711
  718MOL0     H94771   8.086   6.426   0.215  2.3999 -2.1496  0.7065
  718MOL0     H94772   8.363   6.528   0.119  1.6018 -2.4468 -1.9555
  718MOL0     H94773   8.323   6.395   0.224  2.5647  0.2556 -0.7081
  718MOL0     H94774   8.272   6.233  -0.158  0.3123  4.5502 -2.6252
  718MOL0     H94775   7.761   6.715   0.355 -1.5833 -0.5005  3.0063
  718MOL0     H94776   7.566   6.834   0.404  0.4679 -1.8483 -1.7789
  719MOL0     O94777   1.868   6.291   6.450 -1.0645  0.5767  0.7114
  719MOL0     C94778   1.849   6.234   6.560 -0.0997  0.0599 -0.5681
  719MOL0     O94779   1.748   6.258   6.645 -0.5548  0.3723  0.2151
  719MOL0     C94780   1.638   6.333   6.607 -0.0741 -0.1424 -1.2117
  719MOL0     C94781   1.561   6.351   6.725  1.5831  0.2725  0.0039
  719MOL0     C94782   1.436   6.403   6.716  0.2710 -0.4830 -0.2062
  719MOL0     C94783   1.380   6.438   6.594 -0.3097  0.0607 -0.0118
  719MOL0     O94784   1.247   6.487   6.582 -0.3115  0.3688  0.1874
  719MOL0     C94785   1.176   6.561   6.686 -0.1422 -0.2781 -0.3019
  719MOL0     C94786   1.081   6.471   6.756 -0.1554 -0.2944 -0.2029
  719MOL0     C94787   1.060   6.489   6.912 -0.4374  0.6198  0.9052
  719MOL0     C94788   0.950   6.402   6.972  0.8314  0.6471  0.3525
  719MOL0     C94789   0.968   6.389   7.128  0.1456  0.0383  0.1140
  719MOL0     C94790   0.834   6.332   7.195 -0.0084 -0.5101  0.7582
  719MOL0     C94791   0.846   6.358   7.346 -0.1292 -0.8868 -0.2912
  719MOL0     C94792   0.738   6.275   7.424 -0.0057  0.2917 -0.9578
  719MOL0     N94793   0.600   6.332   7.432  0.1095 -0.0655 -0.1375
  719MOL0     C94794   0.559   6.463   7.434 -0.5164 -0.5420 -0.4233
  719MOL0     C94795   0.425   6.463   7.465  0.4004 -1.5446 -0.9241
  719MOL0     C94796   0.344   6.587   7.489  0.2532  1.1320 -0.0630
  719MOL0     C94797   0.206   6.562   7.434  1.5084 -0.3609 -0.0907
  719MOL0     C94798   0.120   6.687   7.476 -0.0971 -0.4665 -0.9827
  719MOL0     C94799  -0.032   6.691   7.436  0.1854 -0.4787 -0.1446
  719MOL0     O94800  -0.105   6.761   7.530  0.0537 -0.2567 -0.6399
  719MOL0     C94801  -0.214   6.689   7.585  0.4803 -0.3017 -0.2125
  719MOL0     C94802  -0.346   6.732   7.565 -0.0645  1.1427 -0.3154
  719MOL0     C94803  -0.448   6.658   7.625 -0.5546 -0.0237  0.8416
  719MOL0     C94804  -0.425   6.559   7.725  0.1299 -0.2781 -0.2194
  719MOL0     C94805  -0.534   6.497   7.804  0.2394 -0.4147  0.2944
  719MOL0     O94806  -0.644   6.573   7.817  0.2849  0.6458  0.8309
  719MOL0     C94807  -0.762   6.532   7.870 -0.6640  0.4364  0.5427
  719MOL0     C94808  -0.777   6.439   7.980  0.3971 -0.2099 -0.8431
  719MOL0     C94809  -0.904   6.394   8.018  0.2126  0.3279 -0.0485
  719MOL0     C94810  -1.016   6.457   7.959 -0.7588 -0.3876 -0.6054
  719MOL0     O94811  -1.143   6.423   7.991  0.8539 -0.2642 -0.2561
  719MOL0     C94812  -1.173   6.373   8.120  0.8185  0.0318  0.1016
  719MOL0     C94813  -1.327   6.358   8.127 -0.1683  0.4631 -0.0949
  719MOL0     C94814  -1.387   6.315   8.261 -0.0550  0.3997 -0.3776
  719MOL0     C94815  -1.533   6.304   8.253  0.7277  0.0535  0.1422
  719MOL0     C94816  -1.601   6.294   8.393 -0.6122  0.9559 -0.9388
  719MOL0     C94817  -1.747   6.303   8.360 -0.7118 -0.8698  0.2080
  719MOL0     C94818  -1.837   6.261   8.468 -0.4306  0.1857 -0.6330
  719MOL0     C94819  -1.989   6.264   8.425 -0.1001  0.2216 -0.0859
  719MOL0    Cl94820  -2.029   6.417   8.349 -0.3248  0.0862 -0.1609
  719MOL0     C94821  -1.002   6.548   7.857  0.3224  0.3540  0.2752
  719MOL0     C94822  -0.878   6.590   7.811 -0.0637 -0.1878  0.2490
  719MOL0     O94823  -0.520   6.392   7.859  0.1876  0.4633  0.5335
  719MOL0     C94824  -0.292   6.529   7.749 -0.1371 -0.3291 -0.1031
  719MOL0     C94825  -0.193   6.591   7.675 -0.2300  1.0782 -0.0012
  719MOL0     N94826   0.387   6.334   7.491 -0.8939  0.6026  1.2328
  719MOL0     N94827   0.491   6.258   7.463  0.2404 -0.7162 -0.4719
  719MOL0     C94828   1.457   6.421   6.477  0.7832  1.5005 -0.7543
  719MOL0     C94829   1.589   6.371   6.480 -0.2325  1.2441 -0.2849
  719MOL0     C94830   1.955   6.144   6.607  0.6144  0.1570 -0.3575
  719MOL0     C94831   2.079   6.123   6.548 -0.0359 -0.2663  0.0620
  719MOL0     C94832   2.181   6.053   6.601  0.2692  0.0726  0.4723
  719MOL0     C94833   2.156   5.966   6.705 -0.0803 -1.1314 -0.1059
  719MOL0     O94834   2.245   5.868   6.747 -0.7416 -0.3329  0.7638
  719MOL0     C94835   2.387   5.885   6.717  0.7595 -0.3515  0.2050
  719MOL0     C94836   2.473   5.780   6.783 -0.4407 -0.2378  0.4855
  719MOL0     C94837   2.630   5.798   6.756 -0.0959  0.4819 -0.7977
  719MOL0     C94838   2.707   5.675   6.720  1.2883  0.6579 -0.1024
  719MOL0     C94839   2.670   5.565   6.817 -0.5486  0.4295  0.1326
  719MOL0     C94840   2.642   5.479   6.897 -0.2821 -0.8348  0.4515
  719MOL0     C94841   2.039   5.985   6.772 -0.1004  0.3926  0.1496
  719MOL0     C94842   1.937   6.069   6.725  0.0039  0.1907  0.1750
  719MOL0     H94843   1.585   6.318   6.825  1.3572  0.5559  0.1518
  719MOL0     H94844   1.374   6.411   6.805 -0.7414  0.4893 -0.9701
  719MOL0     H94845   1.118   6.631   6.624  1.4760 -0.7703 -2.5159
  719MOL0     H94846   1.236   6.618   6.757 -0.5105 -1.5424  1.0596
  719MOL0     H94847   1.115   6.369   6.736  1.1189 -0.1873  1.1913
  719MOL0     H94848   0.981   6.478   6.712  0.4080 -1.2487 -1.7034
  719MOL0     H94849   1.038   6.593   6.938  0.0499  1.1388 -0.6511
  719MOL0     H94850   1.154   6.455   6.956 -0.1427  0.1763 -0.0385
  719MOL0     H94851   0.851   6.441   6.946  0.7078  0.3184  0.3175
  719MOL0     H94852   0.941   6.297   6.941 -3.6418  0.8595  0.2911
  719MOL0     H94853   0.988   6.489   7.167  0.3356  0.1742 -0.3259
  719MOL0     H94854   1.052   6.322   7.144 -0.4664 -0.4650  1.3318
  719MOL0     H94855   0.835   6.223   7.183  2.7158 -0.6350  1.4834
  719MOL0     H94856   0.748   6.384   7.151  1.8445  1.9498 -0.2433
  719MOL0     H94857   0.947   6.330   7.377  1.5751  1.3912 -3.2617
  719MOL0     H94858   0.839   6.465   7.370  0.8426 -0.3132 -2.3552
  719MOL0     H94859   0.769   6.255   7.527 -1.0178 -2.5934 -1.0991
  719MOL0     H94860   0.748   6.174   7.383  1.8852 -0.0776  0.2882
  719MOL0     H94861   0.625   6.546   7.414  0.4322 -1.8116 -2.9874
  719MOL0     H94862   0.379   6.673   7.431 -2.0393  1.8434 -0.4950
  719MOL0     H94863   0.340   6.611   7.596 -2.5109  0.8708 -0.0328
  719MOL0     H94864   0.153   6.476   7.475  0.6783  0.4846  0.6680
  719MOL0     H94865   0.204   6.544   7.326  3.0723  2.4756 -0.6946
  719MOL0     H94866   0.129   6.692   7.585  0.0452 -2.0891 -0.8901
  719MOL0     H94867   0.179   6.769   7.434  2.3647 -1.6568 -0.1145
  719MOL0     H94868  -0.071   6.591   7.414  0.4283 -0.5563 -0.2202
  719MOL0     H94869  -0.036   6.730   7.334  1.9530 -1.2227 -0.5323
  719MOL0     H94870  -0.361   6.820   7.503  2.0647  0.7327 -1.5064
  719MOL0     H94871  -0.552   6.682   7.606 -0.9033 -1.4599  0.7854
  719MOL0     H94872  -0.692   6.393   8.029 -0.4039 -0.5112  0.3100
  719MOL0     H94873  -0.906   6.318   8.095  1.3229  0.4506  0.1155
  719MOL0     H94874  -1.135   6.439   8.199 -1.1279 -0.8164  1.8456
  719MOL0     H94875  -1.123   6.278   8.143 -0.2932 -0.5102  0.3207
  719MOL0     H94876  -1.357   6.283   8.053 -2.4045  0.3918  0.8093
  719MOL0     H94877  -1.358   6.461   8.109  2.2496  1.0564 -1.3325
  719MOL0     H94878  -1.360   6.386   8.340  4.0599 -3.9636  2.7477
  719MOL0     H94879  -1.336   6.226   8.299  3.5849  1.4029 -2.5197
  719MOL0     H94880  -1.551   6.407   8.221 -1.1183  0.0525  1.0199
  719MOL0     H94881  -1.586   6.238   8.184  0.6021  0.9253 -0.6227
  719MOL0     H94882  -1.576   6.375   8.462 -2.4110  0.0684  0.8607
  719MOL0     H94883  -1.584   6.200   8.447  1.4734  2.2530  0.8207
  719MOL0     H94884  -1.754   6.235   8.275  4.8848 -1.7834  0.0955
  719MOL0     H94885  -1.761   6.403   8.318  0.4146 -0.2621  1.2043
  719MOL0     H94886  -1.817   6.161   8.507  1.9563  1.1592  0.8415
  719MOL0     H94887  -1.816   6.334   8.547 -0.1155 -0.1154 -0.4371
  719MOL0     H94888  -2.048   6.246   8.515 -0.8212  0.1262 -0.5733
  719MOL0     H94889  -2.006   6.178   8.360  2.0728 -0.3993  0.0909
  719MOL0     H94890  -1.092   6.598   7.822 -0.7823 -2.0706 -0.5501
  719MOL0     H94891  -0.863   6.664   7.733  2.0093 -1.5548 -0.7416
  719MOL0     H94892  -0.261   6.456   7.823  2.0216  2.1122  1.5463
  719MOL0     H94893  -0.085   6.593   7.684 -0.1843  1.0146 -0.4973
  719MOL0     H94894   1.403   6.465   6.394  1.0433 -1.9878 -2.9547
  719MOL0     H94895   1.655   6.367   6.394  1.7914 -0.2711  1.2235
  719MOL0     H94896   2.092   6.176   6.454  0.1277  0.2483  0.3685
  719MOL0     H94897   2.278   6.047   6.554  0.8916 -3.5736  1.9219
  719MOL0     H94898   2.431   5.985   6.725  1.6253 -0.6367 -0.7884
  719MOL0     H94899   2.394   5.853   6.612 -1.5594 -0.4176  0.0071
  719MOL0     H94900   2.449   5.788   6.890 -1.1126  2.8512  0.2127
  719MOL0     H94901   2.434   5.685   6.748  3.9531 -2.5125  1.0928
  719MOL0     H94902   2.664   5.847   6.848 -1.2182  1.1148 -0.7004
  719MOL0     H94903   2.644   5.869   6.674 -0.0900 -0.2242 -1.4207
  719MOL0     H94904   2.679   5.645   6.618 -2.3166 -0.9166  1.1822
  719MOL0     H94905   2.815   5.690   6.721  1.4677 -0.4757 -0.6624
  719MOL0     H94906   2.619   5.410   6.975  0.3586 -1.2609  0.2755
  719MOL0     H94907   2.020   5.935   6.867 -0.0994 -0.0942 -0.1043
  719MOL0     H94908   1.848   6.088   6.784  0.4730 -0.3874  1.0889
  720MOL0     O94909   3.753   0.206   5.265  0.2586 -0.3841  0.4471
  720MOL0     C94910   3.710   0.311   5.228  0.0468 -0.2961  0.1587
  720MOL0     O94911   3.575   0.330   5.198 -0.0275 -0.2692  0.3410
  720MOL0     C94912   3.468   0.246   5.222  0.3369  1.0718  0.0223
  720MOL0     C94913   3.477   0.117   5.290  0.6723  0.4246  0.2022
  720MOL0     C94914   3.359   0.034   5.310 -0.9289 -0.3897  0.9290
  720MOL0     C94915   3.242   0.075   5.255 -0.0007  0.1366  0.0258
  720MOL0     O94916   3.144  -0.024   5.265 -0.7045  0.1480 -0.5451
  720MOL0     C94917   3.010   0.017   5.232  0.4546  0.3823  0.9671
  720MOL0     C94918   2.928   0.080   5.348 -0.6793 -0.3062 -0.4279
  720MOL0     C94919   2.782   0.122   5.318 -0.5283 -0.3015  0.4267
  720MOL0     C94920   2.719   0.193   5.442 -0.0844 -0.5295  0.3487
  720MOL0     C94921   2.569   0.227   5.423 -0.2323  0.1332  0.0107
  720MOL0     C94922   2.505   0.284   5.554  0.1186  0.6732  0.2327
  720MOL0     C94923   2.352   0.305   5.544  0.0053 -0.9142 -0.1315
  720MOL0     C94924   2.299   0.355   5.679  0.2912  0.5622 -0.6302
  720MOL0     N94925   2.153   0.370   5.671 -0.0326  0.6728  0.1106
  720MOL0     C94926   2.053   0.287   5.729 -0.1765 -0.1805 -0.0920
  720MOL0     C94927   1.939   0.334   5.672  0.5410  0.2328  0.6759
  720MOL0     C94928   1.807   0.270   5.702  0.1362  0.3926  0.8902
  720MOL0     C94929   1.745   0.320   5.823  0.1190 -0.4016  1.0075
  720MOL0     C94930   1.739   0.478   5.827  0.6483  0.7703 -0.1002
  720MOL0     C94931   1.630   0.518   5.929 -0.6098 -0.1554 -0.2303
  720MOL0     O94932   1.498   0.492   5.869  0.1963 -0.5564  0.4052
  720MOL0     C94933   1.383   0.536   5.941  0.6892 -0.3189  0.1547
  720MOL0     C94934   1.373   0.586   6.069 -0.2754  0.5580  0.1759
  720MOL0     C94935   1.253   0.642   6.124 -0.1015  1.1436 -0.7954
  720MOL0     C94936   1.132   0.634   6.053  0.0401  0.0145 -0.1634
  720MOL0     C94937   0.998   0.665   6.108  0.0832  0.1779 -0.3217
  720MOL0     O94938   0.998   0.707   6.235  0.0374 -0.4166 -0.1610
  720MOL0     C94939   0.881   0.766   6.282 -0.3302  0.4590  0.6031
  720MOL0     C94940   0.821   0.878   6.217  0.7004  0.4703  0.3266
  720MOL0     C94941   0.693   0.915   6.254 -0.1134 -0.6088  0.3037
  720MOL0     C94942   0.616   0.847   6.359 -0.5422  0.0430 -0.2291
  720MOL0     O94943   0.493   0.887   6.402  0.6781 -0.7006  0.0111
  720MOL0     C94944   0.414   0.976   6.335 -0.3553  0.5346  0.0461
  720MOL0     C94945   0.270   0.941   6.383 -0.5294  0.0049 -0.9653
  720MOL0     C94946   0.240   0.789   6.341  0.4540 -0.1494  0.9177
  720MOL0     C94947   0.092   0.763   6.375 -0.7748  0.5328  0.3723
  720MOL0     C94948   0.057   0.617   6.324  0.4976 -1.1336 -0.1325
  720MOL0     C94949  -0.074   0.560   6.378 -0.2933 -0.4682 -0.0200
  720MOL0     C94950  -0.117   0.424   6.315 -0.3674 -0.4133  0.8813
  720MOL0     C94951  -0.001   0.330   6.276  0.4789 -0.0842 -0.6959
  720MOL0    Cl94952  -0.065   0.181   6.208  0.0331 -0.0523 -0.2892
  720MOL0     C94953   0.689   0.739   6.421  0.2763  1.0489 -0.1556
  720MOL0     C94954   0.817   0.693   6.384 -0.0573 -0.4735 -0.7558
  720MOL0     O94955   0.897   0.650   6.043 -0.7432 -0.4785  0.4515
  720MOL0     C94956   1.137   0.578   5.920  0.9920 -0.0513 -0.8463
  720MOL0     C94957   1.257   0.531   5.869 -0.8316 -0.4520  0.6109
  720MOL0     N94958   1.958   0.442   5.591  1.0264 -0.4165  0.3958
  720MOL0     N94959   2.084   0.465   5.595  0.2642 -0.0454 -0.3580
  720MOL0     C94960   3.229   0.205   5.191  0.3088  0.7851 -0.7308
  720MOL0     C94961   3.338   0.282   5.173 -0.4517 -0.2137  0.8914
  720MOL0     C94962   3.786   0.438   5.239 -0.9603  0.4488  1.1043
  720MOL0     C94963   3.756   0.564   5.174  0.4326  0.9561 -0.6697
  720MOL0     C94964   3.840   0.669   5.184  0.2677  0.7806  0.3000
  720MOL0     C94965   3.966   0.661   5.245 -0.4976  0.0814 -0.3934
  720MOL0     O94966   4.048   0.767   5.245 -1.0763  0.2319  0.8140
  720MOL0     C94967   4.162   0.772   5.331  0.0082  0.6571  1.1875
  720MOL0     C94968   4.191   0.915   5.367 -0.2680  0.3242  0.5558
  720MOL0     C94969   4.077   0.982   5.449 -0.6553 -0.6306 -0.0121
  720MOL0     C94970   4.118   1.118   5.518 -0.0611  0.5079 -0.0632
  720MOL0     C94971   4.167   1.212   5.416  0.3249  0.4541 -0.4748
  720MOL0     C94972   4.198   1.287   5.325  0.1873 -0.8519 -0.3966
  720MOL0     C94973   4.004   0.532   5.292 -0.2143  0.1315  0.2787
  720MOL0     C94974   3.918   0.425   5.286  0.4730  0.1011 -0.7087
  720MOL0     H94975   3.571   0.079   5.328  0.1173 -1.4383 -0.1732
  720MOL0     H94976   3.362  -0.063   5.358  0.2803  0.0897  1.8749
  720MOL0     H94977   2.956  -0.071   5.196  1.7453 -0.1774  0.3106
  720MOL0     H94978   3.007   0.086   5.147  1.1255 -0.5752  0.1342
  720MOL0     H94979   2.981   0.164   5.393 -1.4516 -0.4350  0.7895
  720MOL0     H94980   2.923   0.005   5.428  1.5491  0.0585  0.1217
  720MOL0     H94981   2.725   0.035   5.285 -0.7894 -0.5123  1.3979
  720MOL0     H94982   2.781   0.199   5.241  0.4540  0.9786  1.6299
  720MOL0     H94983   2.718   0.119   5.523 -2.3605 -0.3908  0.5192
  720MOL0     H94984   2.775   0.285   5.462 -0.1074 -0.5098  0.3197
  720MOL0     H94985   2.526   0.131   5.392 -0.3502  0.0637  0.3833
  720MOL0     H94986   2.543   0.299   5.345 -3.8681 -1.5112 -0.4991
  720MOL0     H94987   2.561   0.377   5.568  3.0365  0.4036 -6.1821
  720MOL0     H94988   2.528   0.219   5.638  0.6049  3.2963  2.2700
  720MOL0     H94989   2.336   0.380   5.465 -2.0971 -2.2010 -0.9931
  720MOL0     H94990   2.310   0.208   5.517  4.4266 -3.1643  0.1184
  720MOL0     H94991   2.345   0.452   5.703 -0.4187  0.7621 -0.0057
  720MOL0     H94992   2.330   0.282   5.754  1.0097  0.0521 -1.4119
  720MOL0     H94993   2.060   0.195   5.785 -0.0497 -1.4511 -2.0828
  720MOL0     H94994   1.829   0.163   5.708  2.5143  0.8820  2.1503
  720MOL0     H94995   1.753   0.280   5.608  2.1802 -1.8590 -0.6366
  720MOL0     H94996   1.802   0.282   5.907  1.6547  0.4668  0.3960
  720MOL0     H94997   1.642   0.284   5.813 -1.0241  2.7150  0.2905
  720MOL0     H94998   1.837   0.520   5.850  1.5730  0.9777 -3.7105
  720MOL0     H94999   1.712   0.521   5.730 -1.1370  0.2610  0.1450
  720MOL0     H95000   1.641   0.624   5.950 -1.6730  0.4139 -2.2742
  720MOL0     H95001   1.642   0.454   6.017 -0.4427  1.9065  1.3118
  720MOL0     H95002   1.468   0.605   6.118  0.4616  0.6742 -1.2204
  720MOL0     H95003   1.250   0.681   6.225  0.6632 -1.4711  0.3358
  720MOL0     H95004   0.874   0.926   6.136 -0.9700 -1.6902 -2.1835
  720MOL0     H95005   0.654   0.994   6.191 -1.4347  0.7548  2.6601
  720MOL0     H95006   0.406   0.955   6.228 -2.1357  1.2590  0.0077
  720MOL0     H95007   0.460   1.072   6.357 -0.3841  0.4581  0.4448
  720MOL0     H95008   0.200   1.013   6.341 -3.0173 -1.3601  0.5988
  720MOL0     H95009   0.270   0.944   6.492  1.5273 -0.3150 -0.9134
  720MOL0     H95010   0.297   0.728   6.411 -1.6567 -0.0960  2.8142
  720MOL0     H95011   0.263   0.775   6.235  1.5633 -1.3964  1.3008
  720MOL0     H95012   0.074   0.785   6.481  2.5835 -1.4537  1.5176
  720MOL0     H95013   0.031   0.834   6.319  0.0093  2.3404  1.7346
  720MOL0     H95014   0.134   0.547   6.357  1.5322 -0.1362 -0.4028
  720MOL0     H95015   0.062   0.620   6.214  5.2801  1.8814 -0.0911
  720MOL0     H95016  -0.149   0.639   6.369  0.9399  0.8134  0.5215
  720MOL0     H95017  -0.059   0.555   6.486 -1.0285  2.0111  0.2630
  720MOL0     H95018  -0.174   0.363   6.386  0.8654 -4.1902 -1.0614
  720MOL0     H95019  -0.185   0.429   6.229  1.1028  4.2275 -0.2818
  720MOL0     H95020   0.052   0.306   6.368 -1.1641  0.8439  0.5370
  720MOL0     H95021   0.067   0.372   6.201 -0.5752  1.4152 -0.8408
  720MOL0     H95022   0.638   0.686   6.500 -1.1112  2.0144 -0.3645
  720MOL0     H95023   0.856   0.606   6.437 -2.0128 -0.3486  1.0413
  720MOL0     H95024   1.047   0.582   5.860  1.8622  4.0016 -2.1849
  720MOL0     H95025   1.273   0.503   5.765 -0.7423 -0.2266  0.5641
  720MOL0     H95026   3.133   0.237   5.151 -0.0105  1.1173  0.2734
  720MOL0     H95027   3.336   0.378   5.123  1.5583 -0.8573 -0.5479
  720MOL0     H95028   3.659   0.582   5.129  0.2935  0.6296 -0.5051
  720MOL0     H95029   3.821   0.772   5.154 -2.0939  0.1553 -0.6128
  720MOL0     H95030   4.244   0.719   5.282 -1.7445 -1.2803  0.1553
  720MOL0     H95031   4.140   0.725   5.428  0.5314 -1.7166  0.2235
  720MOL0     H95032   4.282   0.910   5.428 -2.4588 -0.9733  4.0172
  720MOL0     H95033   4.211   0.972   5.276 -0.8234  1.3558  1.0541
  720MOL0     H95034   4.067   0.914   5.534  0.5880  1.4499  1.9127
  720MOL0     H95035   3.989   0.986   5.385  0.2121 -1.6793 -1.3151
  720MOL0     H95036   4.031   1.156   5.574 -0.2333 -1.1142  0.8608
  720MOL0     H95037   4.192   1.105   5.598 -1.2312  1.1241  1.1846
  720MOL0     H95038   4.215   1.377   5.270 -0.1494  1.2765  2.7275
  720MOL0     H95039   4.104   0.503   5.322 -0.1374 -1.8169 -1.6732
  720MOL0     H95040   3.966   0.327   5.292  0.2903  0.0663  0.3176
  721MOL0     O95041   2.572   2.455   5.813 -0.2269  0.0280  0.3457
  721MOL0     C95042   2.674   2.431   5.876 -0.5862  0.7185 -0.2193
  721MOL0     O95043   2.690   2.444   6.017  0.5133  0.5414 -0.9039
  721MOL0     C95044   2.569   2.441   6.089 -0.7873  0.7630  0.8758
  721MOL0     C95045   2.491   2.558   6.111  0.5294  0.3947  0.3932
  721MOL0     C95046   2.370   2.557   6.182 -0.0056  0.1693 -0.2323
  721MOL0     C95047   2.323   2.435   6.233  0.0512  0.3218  0.0213
  721MOL0     O95048   2.197   2.415   6.283  0.3552  0.1784  0.2813
  721MOL0     C95049   2.086   2.481   6.218  0.0916 -0.7793 -0.0111
  721MOL0     C95050   2.034   2.398   6.099 -0.9847  0.5498 -0.7794
  721MOL0     C95051   1.995   2.254   6.148  0.4826  0.2158  0.3291
  721MOL0     C95052   1.917   2.174   6.045 -0.0226 -0.0939 -0.0792
  721MOL0     C95053   1.863   2.042   6.100  0.6032  0.6180 -0.0569
  721MOL0     C95054   1.983   1.956   6.157 -0.3771  0.2054 -0.0269
  721MOL0     C95055   2.072   1.881   6.055 -0.4582 -0.5224 -0.5865
  721MOL0     C95056   2.189   1.803   6.117 -0.1539 -0.3879 -0.0445
  721MOL0     N95057   2.268   1.894   6.193 -0.3624 -0.8325 -0.6259
  721MOL0     C95058   2.268   1.908   6.334 -0.1970  0.4494  0.2300
  721MOL0     C95059   2.385   1.957   6.371 -0.6167  0.0751  0.4134
  721MOL0     C95060   2.454   1.972   6.507 -0.0892  0.6077 -0.3229
  721MOL0     C95061   2.375   2.073   6.597  0.6697  0.6243  0.0177
  721MOL0     C95062   2.338   2.206   6.537  0.3453  0.4076  0.4318
  721MOL0     C95063   2.239   2.273   6.634 -0.5305 -0.2955  0.7672
  721MOL0     O95064   2.109   2.208   6.633  0.2164 -0.9657  0.3705
  721MOL0     C95065   1.986   2.275   6.647 -0.4186 -0.5130 -0.3271
  721MOL0     C95066   1.966   2.408   6.597  0.1358  0.2050 -0.0425
  721MOL0     C95067   1.833   2.465   6.614 -0.2549 -0.0220  0.2542
  721MOL0     C95068   1.728   2.393   6.677 -0.3031  0.5672 -0.8628
  721MOL0     C95069   1.593   2.438   6.698 -0.1852  0.9326  0.1490
  721MOL0     O95070   1.490   2.347   6.725 -0.6539  0.9009  0.7212
  721MOL0     C95071   1.356   2.378   6.736  0.0500 -0.1329 -0.0923
  721MOL0     C95072   1.272   2.281   6.677  0.0733 -0.5916 -0.6502
  721MOL0     C95073   1.134   2.304   6.687 -1.3272 -0.5051  0.2404
  721MOL0     C95074   1.086   2.421   6.745  0.4808  0.0091 -0.3757
  721MOL0     O95075   0.948   2.440   6.734  0.1410 -0.7116  0.1290
  721MOL0     C95076   0.895   2.525   6.839  0.1057 -0.1782  0.0023
  721MOL0     C95077   0.741   2.521   6.816  0.1728  0.0125 -0.5505
  721MOL0     C95078   0.694   2.372   6.834 -0.4452 -0.8125 -0.0021
  721MOL0     C95079   0.567   2.368   6.924  0.8072 -0.0369  0.1865
  721MOL0     C95080   0.514   2.228   6.959  0.2037  0.5358 -0.6229
  721MOL0     C95081   0.443   2.161   6.843 -0.3670 -0.3547 -0.2967
  721MOL0     C95082   0.315   2.214   6.782 -0.4677 -0.2959  0.1782
  721MOL0     C95083   0.266   2.154   6.649 -0.1427 -0.7796  0.3567
  721MOL0    Cl95084   0.113   2.245   6.613  0.2481  0.2143 -0.1969
  721MOL0     C95085   1.170   2.517   6.802 -0.1241 -0.6939  0.3523
  721MOL0     C95086   1.303   2.491   6.802  0.9941 -0.0311  0.0642
  721MOL0     O95087   1.575   2.561   6.681  0.0834 -0.0292  0.1977
  721MOL0     C95088   1.756   2.267   6.723  0.6274 -0.1418  0.5219
  721MOL0     C95089   1.881   2.211   6.712 -1.3330  0.5890  0.4979
  721MOL0     N95090   2.452   1.988   6.252 -0.4031  0.7254 -0.6326
  721MOL0     N95091   2.391   1.938   6.140  0.3335  0.5232  0.5235
  721MOL0     C95092   2.396   2.320   6.208 -0.5416 -0.3024  0.5358
  721MOL0     C95093   2.522   2.323   6.152 -0.4244 -0.0307  0.4743
  721MOL0     C95094   2.794   2.383   5.802  0.3005  0.7034  0.3925
  721MOL0     C95095   2.922   2.368   5.859 -0.2275  0.1647 -0.3597
  721MOL0     C95096   3.026   2.313   5.786 -0.0564 -0.2581 -0.1237
  721MOL0     C95097   3.017   2.277   5.652  0.0403 -0.6134  0.0862
  721MOL0     O95098   3.115   2.213   5.581 -0.2834 -0.1352  0.5220
  721MOL0     C95099   3.218   2.292   5.523  0.5287  0.4918  0.0546
  721MOL0     C95100   3.339   2.208   5.495 -0.0516  0.0001  0.7721
  721MOL0     C95101   3.385   2.120   5.613 -0.2139  0.4284  0.3119
  721MOL0     C95102   3.445   2.210   5.723 -0.1249  0.4308  0.6264
  721MOL0     C95103   3.458   2.128   5.846  0.5629 -0.0509 -0.5771
  721MOL0     C95104   3.438   2.065   5.948  0.3724  0.0590  0.2588
  721MOL0     C95105   2.895   2.301   5.590  0.0699  0.1569  1.2314
  721MOL0     C95106   2.783   2.348   5.665  0.2973 -0.2700 -0.3121
  721MOL0     H95107   2.509   2.647   6.052 -0.6283 -1.0763 -2.3404
  721MOL0     H95108   2.304   2.642   6.183 -0.8337 -0.4416  1.4884
  721MOL0     H95109   2.102   2.579   6.173 -2.1818  0.4005  1.5614
  721MOL0     H95110   2.005   2.502   6.289 -0.1291  1.8129 -0.9146
  721MOL0     H95111   2.112   2.396   6.022 -0.4444 -1.3032 -0.2438
  721MOL0     H95112   1.947   2.452   6.062 -1.4231 -0.3075 -1.0300
  721MOL0     H95113   1.943   2.269   6.242 -1.6233  2.1996 -1.0430
  721MOL0     H95114   2.089   2.199   6.160  0.6817 -0.7331 -3.9672
  721MOL0     H95115   1.836   2.234   6.003  0.8955  1.0964 -0.2146
  721MOL0     H95116   1.967   2.146   5.953 -0.0799  0.1931 -0.2003
  721MOL0     H95117   1.822   1.975   6.024 -0.1507 -1.8558  2.3784
  721MOL0     H95118   1.788   2.055   6.179 -0.3320 -2.7307 -0.2287
  721MOL0     H95119   1.932   1.872   6.206 -1.5338  0.3755 -0.8895
  721MOL0     H95120   2.047   2.001   6.233 -0.3988  0.6755 -0.2827
  721MOL0     H95121   2.005   1.808   6.007  0.0255 -3.3852  2.6749
  721MOL0     H95122   2.112   1.943   5.975 -0.5457 -1.0812 -1.0680
  721MOL0     H95123   2.256   1.756   6.044  0.7383  3.8667 -2.2980
  721MOL0     H95124   2.149   1.721   6.178 -2.1731  0.8115  0.3490
  721MOL0     H95125   2.205   1.864   6.410  2.4385 -0.9742  1.7243
  721MOL0     H95126   2.560   1.995   6.493 -0.5344  3.0267 -0.1448
  721MOL0     H95127   2.449   1.881   6.567  1.1616  1.1076  0.5804
  721MOL0     H95128   2.435   2.093   6.687 -1.4692 -1.7201  2.1386
  721MOL0     H95129   2.279   2.029   6.624 -0.2861  3.6714  2.1288
  721MOL0     H95130   2.430   2.261   6.518  1.0313 -0.9473 -0.2739
  721MOL0     H95131   2.288   2.189   6.441  0.6481 -3.5692  0.7947
  721MOL0     H95132   2.232   2.377   6.600  1.7504 -0.5594 -0.7702
  721MOL0     H95133   2.293   2.283   6.729  1.7649  1.3982 -0.6162
  721MOL0     H95134   2.043   2.467   6.547  1.5859  1.5901  3.4639
  721MOL0     H95135   1.818   2.560   6.565 -1.9673 -0.2657  0.2421
  721MOL0     H95136   1.310   2.193   6.625 -3.8889 -2.1826 -1.2071
  721MOL0     H95137   1.071   2.231   6.636 -0.2820  0.6074 -2.9444
  721MOL0     H95138   0.929   2.629   6.835  1.4031 -0.6080 -0.7521
  721MOL0     H95139   0.919   2.484   6.938 -3.2707  0.5208  1.2377
  721MOL0     H95140   0.716   2.563   6.719 -1.8798  0.2952  0.0560
  721MOL0     H95141   0.689   2.568   6.900 -0.2013 -0.6284 -0.4164
  721MOL0     H95142   0.786   2.322   6.867  2.2271  2.6741 -1.5040
  721MOL0     H95143   0.685   2.326   6.735  2.2895  1.5890 -1.5413
  721MOL0     H95144   0.606   2.407   7.019  1.1250  0.4599 -0.1424
  721MOL0     H95145   0.496   2.439   6.882  4.1372  1.4222 -3.5897
  721MOL0     H95146   0.446   2.239   7.044  0.1872  0.6295 -0.6474
  721MOL0     H95147   0.602   2.167   6.981  0.1773  0.3046 -1.1528
  721MOL0     H95148   0.422   2.059   6.875 -1.4154  0.8721  3.3746
  721MOL0     H95149   0.517   2.161   6.762  3.3417  0.9272  2.7504
  721MOL0     H95150   0.238   2.214   6.860  0.0318 -0.2456  0.6782
  721MOL0     H95151   0.333   2.318   6.757 -1.0282 -0.0468  0.7860
  721MOL0     H95152   0.248   2.048   6.669  3.0029 -1.4479  0.0893
  721MOL0     H95153   0.351   2.172   6.582 -0.3032  1.2244  0.6272
  721MOL0     H95154   1.130   2.614   6.827  0.0213 -0.2506 -1.0346
  721MOL0     H95155   1.377   2.564   6.831  1.1710 -0.5199  0.8810
  721MOL0     H95156   1.680   2.207   6.772 -1.7049  3.3301  1.5518
  721MOL0     H95157   1.902   2.110   6.746  1.2336  1.4900  1.8474
  721MOL0     H95158   2.343   2.228   6.230  0.3856 -0.7615  0.9181
  721MOL0     H95159   2.583   2.235   6.137 -2.5155 -1.7498  1.3215
  721MOL0     H95160   2.932   2.390   5.965  0.5804  3.0328 -0.9509
  721MOL0     H95161   3.125   2.308   5.831  0.0269 -1.4015 -0.4139
  721MOL0     H95162   3.240   2.370   5.596 -0.4229  0.8905 -0.0809
  721MOL0     H95163   3.180   2.349   5.438  0.3601  0.4655  0.1122
  721MOL0     H95164   3.313   2.137   5.416 -0.2661 -0.7610  1.5139
  721MOL0     H95165   3.417   2.275   5.458  0.3295 -1.6992 -1.7218
  721MOL0     H95166   3.466   2.054   5.581 -1.6243 -1.2435  0.0162
  721MOL0     H95167   3.300   2.064   5.651 -0.4119 -0.7835 -1.7786
  721MOL0     H95168   3.547   2.248   5.707  0.2539  0.0960  2.0417
  721MOL0     H95169   3.383   2.299   5.731 -1.9536 -0.8874  2.0216
  721MOL0     H95170   3.421   1.998   6.030  0.0693 -1.5346 -1.0497
  721MOL0     H95171   2.885   2.292   5.482  0.3076  1.1800  1.1070
  721MOL0     H95172   2.686   2.376   5.624 -0.3450  0.1799  1.4222
  722MOL0     O95173  11.020   9.121   7.457 -0.2673 -0.2662 -0.0887
  722MOL0     C95174  11.031   9.228   7.395 -0.6645 -0.8780 -0.0455
  722MOL0     O95175  10.929   9.310   7.348  0.3189 -0.5359 -0.4726
  722MOL0     C95176  10.808   9.273   7.400 -0.7394 -0.5613  0.4609
  722MOL0     C95177  10.727   9.377   7.434 -0.2006  0.9607  0.2207
  722MOL0     C95178  10.593   9.363   7.458 -0.0017 -0.9651 -0.8416
  722MOL0     C95179  10.540   9.237   7.469  0.6976  0.4998  0.7855
  722MOL0     O95180  10.419   9.198   7.511  0.5250  0.2163  0.8174
  722MOL0     C95181  10.313   9.294   7.516  0.1704 -0.4762  0.1650
  722MOL0     C95182  10.185   9.229   7.470 -0.2133  0.3921  0.6544
  722MOL0     C95183  10.061   9.307   7.499 -0.1369 -0.1277 -0.7672
  722MOL0     C95184   9.936   9.223   7.465 -0.0093  0.6996  0.0693
  722MOL0     C95185   9.811   9.311   7.499 -0.4807  0.7308  0.1883
  722MOL0     C95186   9.686   9.229   7.552 -0.1529 -0.9141  0.3331
  722MOL0     C95187   9.558   9.324   7.582  0.6443 -0.1895 -0.6348
  722MOL0     C95188   9.440   9.228   7.623 -0.6723 -0.7013  0.3047
  722MOL0     N95189   9.372   9.149   7.520 -1.2445  0.3901  0.0227
  722MOL0     C95190   9.322   9.198   7.396 -1.4528 -0.7333 -0.3215
  722MOL0     C95191   9.239   9.101   7.348  0.5278 -1.2331 -1.0226
  722MOL0     C95192   9.177   9.123   7.221 -0.4992  0.5984 -0.3188
  722MOL0     C95193   9.156   9.005   7.136  0.0574  0.0682  0.1998
  722MOL0     C95194   9.273   8.907   7.135 -0.0860  0.3284 -0.4494
  722MOL0     C95195   9.298   8.839   7.000  0.1929 -0.4945  0.4317
  722MOL0     O95196   9.417   8.760   7.010  0.7171 -0.0547  0.3924
  722MOL0     C95197   9.459   8.672   6.906 -0.4563  0.4341 -0.6602
  722MOL0     C95198   9.558   8.572   6.930  0.3177  0.5866 -0.4456
  722MOL0     C95199   9.617   8.500   6.830  0.8594 -0.9348  0.4027
  722MOL0     C95200   9.556   8.510   6.701 -0.5481  0.1679 -0.4550
  722MOL0     C95201   9.627   8.436   6.596  0.2142 -0.0510  0.1526
  722MOL0     O95202   9.751   8.404   6.624 -0.1454 -0.1131 -0.1408
  722MOL0     C95203   9.813   8.325   6.521 -0.1576 -0.1211  0.6816
  722MOL0     C95204   9.946   8.178   6.586  0.0902  0.2957  0.1644
  722MOL0     C95205  10.071   8.075   6.454  0.1618 -0.0388 -0.3234
  722MOL0     C95206  10.057   8.109   6.243  0.7410 -0.3335 -0.4983
  722MOL0     O95207  10.148   8.048   6.165 -0.2854 -0.4416 -0.4700
  722MOL0     C95208  10.120   8.084   6.032  0.6824  0.4391  0.0638
  722MOL0     C95209  10.203   7.996   5.943 -0.7256 -1.1745  0.1387
  722MOL0     C95210  10.350   8.008   5.971  0.4804  0.2132 -0.2787
  722MOL0     C95211  10.424   7.899   5.900  0.3901 -0.3687  0.3700
  722MOL0     C95212  10.574   7.930   5.874 -0.8858  0.8479 -0.6457
  722MOL0     C95213  10.653   7.815   5.821 -1.2301  0.5315 -0.6409
  722MOL0     C95214  10.775   7.863   5.741  0.1623  0.4269 -0.7308
  722MOL0     C95215  10.854   7.731   5.692  0.0845 -0.8523  0.3062
  722MOL0    Cl95216  10.762   7.592   5.655  0.2108 -0.2797  0.1441
  722MOL0     C95217   9.915   8.255   6.169  0.4979  0.2451 -0.1609
  722MOL0     C95218   9.796   8.364   6.308 -1.0480 -0.0977  0.2950
  722MOL0     O95219   9.568   8.415   6.491  0.1536 -0.3891  0.2614
  722MOL0     C95220   9.451   8.595   6.677  0.5520  0.2947  0.1386
  722MOL0     C95221   9.409   8.684   6.772 -0.4051 -0.3210 -0.0212
  722MOL0     N95222   9.233   8.999   7.436  0.1869  0.6721  0.0639
  722MOL0     N95223   9.320   9.014   7.533 -0.9197  0.1668  0.2839
  722MOL0     C95224  10.623   9.129   7.444  0.6609  0.4640  0.1283
  722MOL0     C95225  10.751   9.145   7.409 -0.4877 -0.6160  0.2026
  722MOL0     C95226  11.163   9.291   7.367 -0.0641  0.0973 -0.0453
  722MOL0     C95227  11.274   9.246   7.440  0.6326 -1.1286 -1.1256
  722MOL0     C95228  11.394   9.321   7.420 -0.3655 -0.2897 -0.7497
  722MOL0     C95229  11.410   9.409   7.319  0.3870 -1.8083  0.1223
  722MOL0     O95230  11.529   9.472   7.276 -0.4842 -0.4135  0.3811
  722MOL0     C95231  11.654   9.411   7.318 -0.3286  0.4836  0.9144
  722MOL0     C95232  11.762   9.510   7.279 -0.4496  0.2596  0.4306
  722MOL0     C95233  11.774   9.519   7.126 -0.2033  0.3878 -0.6379
  722MOL0     C95234  11.919   9.589   7.095  1.0922  0.8765  0.6247
  722MOL0     C95235  11.959   9.593   6.952 -0.4865 -0.3381 -0.2862
  722MOL0     C95236  11.997   9.599   6.838 -0.4848 -0.0201 -0.1078
  722MOL0     C95237  11.295   9.449   7.241 -0.2840  0.5203  0.3579
  722MOL0     C95238  11.176   9.392   7.272  0.0972 -0.7824  0.2447
  722MOL0     H95239  10.770   9.477   7.435  1.0874  0.4494  2.5287
  722MOL0     H95240  10.545   9.455   7.492  0.4498 -1.1118  0.2080
  722MOL0     H95241  10.335   9.379   7.451  0.9750 -0.9804 -0.2269
  722MOL0     H95242  10.300   9.343   7.614  1.9460  1.4317 -0.4813
  722MOL0     H95243  10.169   9.134   7.522 -1.6850  0.7218  0.8611
  722MOL0     H95244  10.199   9.205   7.365  1.3393  0.0485  0.9154
  722MOL0     H95245  10.055   9.404   7.449 -4.4559  0.0455 -0.2429
  722MOL0     H95246  10.053   9.325   7.607 -0.9534  1.1738 -1.0219
  722MOL0     H95247   9.930   9.197   7.359  1.1201  2.4307 -0.4565
  722MOL0     H95248   9.935   9.125   7.515  3.5465 -0.4101 -1.6834
  722MOL0     H95249   9.775   9.363   7.410 -0.7191  0.7437  0.2913
  722MOL0     H95250   9.828   9.390   7.572 -2.0678  2.1557 -0.9075
  722MOL0     H95251   9.707   9.169   7.641  0.1941 -3.3174 -1.2701
  722MOL0     H95252   9.650   9.164   7.472  0.3185 -0.5718 -0.1674
  722MOL0     H95253   9.577   9.388   7.669  2.4076  0.0801 -1.1728
  722MOL0     H95254   9.540   9.391   7.497  0.4803 -0.2101 -0.6149
  722MOL0     H95255   9.357   9.292   7.655  0.4439  1.1373 -0.2816
  722MOL0     H95256   9.471   9.170   7.710 -1.1617 -1.2847  0.0955
  722MOL0     H95257   9.352   9.290   7.347 -2.0117  0.2248  1.0718
  722MOL0     H95258   9.230   9.201   7.165  1.1803 -0.1905  0.1145
  722MOL0     H95259   9.076   9.157   7.244 -0.0121  0.3139  2.5387
  722MOL0     H95260   9.146   9.048   7.035  0.2206  0.6788  0.4382
  722MOL0     H95261   9.070   8.944   7.163  1.4170 -1.7182  0.6939
  722MOL0     H95262   9.367   8.951   7.170 -1.3257  0.0528  3.7617
  722MOL0     H95263   9.236   8.831   7.205 -0.8094  0.1080 -1.0537
  722MOL0     H95264   9.296   8.918   6.924 -0.3695 -0.6819  0.2443
  722MOL0     H95265   9.216   8.777   6.963  2.0984 -1.8389 -1.8025
  722MOL0     H95266   9.599   8.549   7.028  0.8602 -1.3178 -1.0652
  722MOL0     H95267   9.700   8.441   6.866 -0.5890 -0.7721  4.6141
  722MOL0     H95268   9.969   8.168   6.691  3.9053 -0.1085 -0.5746
  722MOL0     H95269  10.144   8.017   6.509 -0.9545 -2.0008 -0.7959
  722MOL0     H95270  10.150   8.188   6.017  3.2229  0.6825  4.7070
  722MOL0     H95271  10.018   8.060   6.002  0.4831  1.7909 -0.4168
  722MOL0     H95272  10.200   8.025   5.837  2.9267 -0.1038  0.1954
  722MOL0     H95273  10.177   7.890   5.949 -0.1085 -1.3492 -0.1429
  722MOL0     H95274  10.372   7.989   6.077  1.1767 -2.3612 -0.8158
  722MOL0     H95275  10.391   8.105   5.943 -0.4453  0.2241 -1.6278
  722MOL0     H95276  10.404   7.813   5.964  2.7963  0.7082  2.7786
  722MOL0     H95277  10.381   7.887   5.800  2.5596 -1.9147 -0.4434
  722MOL0     H95278  10.616   7.966   5.968 -1.1772 -0.9360  0.2191
  722MOL0     H95279  10.579   8.012   5.802  1.7705  0.3945 -1.1118
  722MOL0     H95280  10.583   7.773   5.748 -1.4996 -3.6442  1.7178
  722MOL0     H95281  10.688   7.748   5.900  4.3278  1.0644 -2.1935
  722MOL0     H95282  10.737   7.922   5.657 -0.4117 -1.1618 -1.6196
  722MOL0     H95283  10.843   7.922   5.804 -0.0546  1.5565 -1.5188
  722MOL0     H95284  10.920   7.697   5.772  1.7778  0.6932 -0.3478
  722MOL0     H95285  10.915   7.748   5.602  0.9868 -0.8696  0.9027
  722MOL0     H95286   9.900   8.269   6.063 -2.6850  0.3252  0.2055
  722MOL0     H95287   9.723   8.436   6.270  0.3919  1.5115  0.4763
  722MOL0     H95288   9.418   8.600   6.573  3.9071  2.0113 -0.9797
  722MOL0     H95289   9.352   8.769   6.735 -0.3360  0.0616  0.7280
  722MOL0     H95290  10.586   9.027   7.446 -1.1236  1.0325 -1.1306
  722MOL0     H95291  10.809   9.059   7.380  1.8191  1.3301 -1.3538
  722MOL0     H95292  11.263   9.171   7.517 -1.6791 -1.0187 -1.2707
  722MOL0     H95293  11.475   9.299   7.490 -2.2159 -0.9449  1.3023
  722MOL0     H95294  11.681   9.316   7.272 -1.1879  0.4595  0.4611
  722MOL0     H95295  11.661   9.392   7.426  1.8604 -5.1424  0.1300
  722MOL0     H95296  11.737   9.609   7.319 -1.3556 -0.1833  0.9969
  722MOL0     H95297  11.857   9.477   7.320 -0.5092  3.2433  3.3472
  722MOL0     H95298  11.692   9.582   7.090 -0.3721 -1.2084 -3.3017
  722MOL0     H95299  11.775   9.424   7.072  1.6966  1.4388 -2.6232
  722MOL0     H95300  11.912   9.693   7.129  0.0097  0.0407  3.1662
  722MOL0     H95301  12.002   9.549   7.153  1.3211 -1.5539 -1.2410
  722MOL0     H95302  12.016   9.616   6.734  1.0928  0.6420  0.2541
  722MOL0     H95303  11.297   9.529   7.167 -0.7147  0.7737  0.6203
  722MOL0     H95304  11.090   9.432   7.219  1.7263  0.1234 -1.9129
  723MOL0     O95305   0.002   8.140   6.648 -0.8341  0.5917 -0.3471
  723MOL0     C95306   0.094   8.058   6.674  0.3764  0.4224 -0.6059
  723MOL0     O95307   0.077   7.925   6.701 -0.2716 -0.1538 -0.3874
  723MOL0     C95308  -0.045   7.879   6.730  0.6106 -0.7200  1.0095
  723MOL0     C95309  -0.057   7.847   6.864  0.3703  0.7434  0.6552
  723MOL0     C95310  -0.181   7.812   6.915 -0.7605  0.0383  0.1194
  723MOL0     C95311  -0.293   7.809   6.828  1.0454  0.5647 -0.1246
  723MOL0     O95312  -0.414   7.774   6.879 -0.5484 -0.4304  0.5357
  723MOL0     C95313  -0.529   7.846   6.842 -0.0583 -0.2101 -0.1332
  723MOL0     C95314  -0.641   7.767   6.904  0.5682 -0.1549  0.0827
  723MOL0     C95315  -0.783   7.809   6.865  0.0774  0.4250 -0.3466
  723MOL0     C95316  -0.817   7.802   6.711  0.4739  0.0374 -0.4653
  723MOL0     C95317  -0.967   7.804   6.693 -0.4407 -0.1854 -0.8402
  723MOL0     C95318  -1.042   7.680   6.742  0.3650 -0.4371 -0.2875
  723MOL0     C95319  -1.197   7.682   6.721 -0.0091  0.6933  0.1512
  723MOL0     C95320  -1.263   7.797   6.805  0.4077 -0.0866  0.1369
  723MOL0     N95321  -1.410   7.777   6.823  0.2078 -0.3875 -0.0137
  723MOL0     C95322  -1.506   7.828   6.730  0.3228  0.7423  0.2457
  723MOL0     C95323  -1.618   7.757   6.755  0.2756 -0.0904 -0.1353
  723MOL0     C95324  -1.744   7.755   6.680 -0.3685  0.3991  0.6838
  723MOL0     C95325  -1.853   7.838   6.751 -0.9349 -0.2187 -0.3533
  723MOL0     C95326  -1.923   7.759   6.865  1.0135  0.0086  0.3363
  723MOL0     C95327  -2.050   7.825   6.922  0.2169  0.3640 -0.1420
  723MOL0     O95328  -2.141   7.822   6.808  0.1290  0.3128 -0.1914
  723MOL0     C95329  -2.270   7.871   6.833  0.0420 -0.6084  0.4031
  723MOL0     C95330  -2.365   7.843   6.733 -0.3105 -0.0587  0.1019
  723MOL0     C95331  -2.502   7.872   6.761 -0.6925 -0.8892  1.2144
  723MOL0     C95332  -2.546   7.926   6.885  0.3166 -0.6514  0.4602
  723MOL0     C95333  -2.689   7.939   6.915  1.2233 -0.0973 -0.7442
  723MOL0     O95334  -2.765   7.930   6.807 -0.6131  0.1140 -0.4715
  723MOL0     C95335  -2.894   7.980   6.816 -0.1940 -0.4903  0.0292
  723MOL0     C95336  -2.937   8.102   6.876  0.4701 -0.2887 -1.3443
  723MOL0     C95337  -3.074   8.139   6.881 -0.3551 -0.1790  0.3138
  723MOL0     C95338  -3.173   8.051   6.826  0.0023 -0.4644 -0.1883
  723MOL0     O95339  -3.305   8.096   6.830 -0.5582 -0.0886 -0.1372
  723MOL0     C95340  -3.403   7.995   6.802 -0.1260  0.0525  0.3618
  723MOL0     C95341  -3.541   8.059   6.839  0.2539 -0.2141  0.1653
  723MOL0     C95342  -3.654   7.947   6.825  0.1750  0.0575  0.0358
  723MOL0     C95343  -3.790   7.996   6.839  0.0919  0.5618  0.3895
  723MOL0     C95344  -3.898   7.891   6.803 -0.7781 -0.4408 -0.4146
  723MOL0     C95345  -4.028   7.956   6.756 -0.1224 -0.1441  0.3741
  723MOL0     C95346  -4.126   7.837   6.753  0.0220  0.7093 -0.4425
  723MOL0     C95347  -4.254   7.881   6.686 -0.9164  0.3510 -0.4522
  723MOL0    Cl95348  -4.330   7.740   6.623  0.6472 -0.5844 -0.2482
  723MOL0     C95349  -3.129   7.927   6.778  0.4443 -0.8073 -0.2813
  723MOL0     C95350  -2.992   7.891   6.781 -0.1564  0.2983  0.3937
  723MOL0     O95351  -2.722   7.946   7.030  0.3739  0.1041 -0.2483
  723MOL0     C95352  -2.441   7.973   6.973  0.2814  0.5037  0.7583
  723MOL0     C95353  -2.314   7.940   6.944  0.7089 -0.1309 -0.5924
  723MOL0     N95354  -1.598   7.668   6.860 -0.4135 -0.0888 -0.6904
  723MOL0     N95355  -1.481   7.690   6.909 -0.8195 -0.2267  0.1170
  723MOL0     C95356  -0.273   7.837   6.688  0.3320  0.0849 -0.7681
  723MOL0     C95357  -0.147   7.872   6.639 -0.1186 -0.2306 -0.5434
  723MOL0     C95358   0.230   8.113   6.683 -0.5764 -0.3833  0.4419
  723MOL0     C95359   0.332   8.040   6.750 -0.3128  1.0003  0.1928
  723MOL0     C95360   0.447   8.098   6.785 -0.6381 -0.0625 -0.0035
  723MOL0     C95361   0.481   8.229   6.753 -0.2488  0.2858 -0.9616
  723MOL0     O95362   0.603   8.284   6.796  0.2377  0.3361 -0.2870
  723MOL0     C95363   0.655   8.393   6.726 -0.7179 -0.0946 -1.2095
  723MOL0     C95364   0.807   8.386   6.723 -0.3895 -0.0044 -0.0595
  723MOL0     C95365   0.861   8.401   6.881 -0.4700 -0.2564  0.2359
  723MOL0     C95366   1.023   8.389   6.862  0.6529  0.2533 -0.2591
  723MOL0     C95367   1.101   8.501   6.804  0.3449 -0.0287 -0.3841
  723MOL0     C95368   1.181   8.590   6.776  0.7291  0.1448  0.1425
  723MOL0     C95369   0.384   8.307   6.687  0.6863 -0.4918 -0.2380
  723MOL0     C95370   0.261   8.250   6.653  0.4107  0.5179 -1.2088
  723MOL0     H95371   0.037   7.857   6.918  1.2523 -2.0871 -0.1284
  723MOL0     H95372  -0.198   7.796   7.021  1.4479  0.6258  0.6145
  723MOL0     H95373  -0.536   7.843   6.732 -2.0452  0.8564 -0.0791
  723MOL0     H95374  -0.520   7.946   6.884  2.4679  0.4219 -1.9681
  723MOL0     H95375  -0.628   7.779   7.012 -0.4838 -1.9206  0.4513
  723MOL0     H95376  -0.629   7.662   6.875 -0.3362 -0.3141  0.2583
  723MOL0     H95377  -0.791   7.913   6.899 -3.8063  0.7132 -1.5671
  723MOL0     H95378  -0.851   7.749   6.926 -1.8835  2.9002  0.1067
  723MOL0     H95379  -0.771   7.878   6.647 -2.0092  1.7416 -0.3687
  723MOL0     H95380  -0.788   7.703   6.675 -0.1378 -0.2537 -0.1818
  723MOL0     H95381  -0.987   7.819   6.587 -2.0623 -1.9365 -0.8354
  723MOL0     H95382  -1.003   7.893   6.745  0.1041  0.0178 -0.8048
  723MOL0     H95383  -1.024   7.674   6.850 -0.8024 -0.5182 -0.0891
  723MOL0     H95384  -1.005   7.589   6.695  2.3449 -0.6422  1.4994
  723MOL0     H95385  -1.208   7.704   6.614 -0.4577  0.9595  0.2519
  723MOL0     H95386  -1.243   7.588   6.750  1.5934 -0.2488 -0.2182
  723MOL0     H95387  -1.238   7.895   6.762 -1.2202 -0.9108 -2.9357
  723MOL0     H95388  -1.218   7.793   6.905  0.0486  2.0005  0.4236
  723MOL0     H95389  -1.490   7.891   6.644 -3.2848 -1.9739 -2.7312
  723MOL0     H95390  -1.782   7.656   6.654  1.1755  0.8473 -4.2016
  723MOL0     H95391  -1.722   7.791   6.579  1.5263 -1.7173  0.2801
  723MOL0     H95392  -1.928   7.869   6.677  0.9005 -4.0862 -4.3145
  723MOL0     H95393  -1.806   7.926   6.795 -2.2824  0.6358 -0.5560
  723MOL0     H95394  -1.970   7.664   6.838 -1.9467  1.6863 -0.7652
  723MOL0     H95395  -1.852   7.742   6.947  0.0119 -1.3879  0.9510
  723MOL0     H95396  -2.011   7.926   6.943  2.2892  0.2712 -2.9265
  723MOL0     H95397  -2.083   7.775   7.013  1.3668 -0.4563 -0.1464
  723MOL0     H95398  -2.342   7.792   6.639 -3.6433 -0.4413 -0.6306
  723MOL0     H95399  -2.570   7.850   6.680 -1.3344 -0.8491  1.7386
  723MOL0     H95400  -2.870   8.180   6.911 -0.7701 -0.1657  0.9904
  723MOL0     H95401  -3.111   8.230   6.926 -1.5572  0.6077 -2.1131
  723MOL0     H95402  -3.389   7.908   6.866  0.2451  1.6876  2.6732
  723MOL0     H95403  -3.406   7.968   6.696 -1.9770 -0.8547  0.6156
  723MOL0     H95404  -3.559   8.148   6.777  0.8458 -1.0444 -1.2295
  723MOL0     H95405  -3.541   8.099   6.941 -1.2919  2.2068 -0.6704
  723MOL0     H95406  -3.638   7.878   6.909 -1.3622  0.3969  0.6436
  723MOL0     H95407  -3.644   7.888   6.733  0.1039  1.5811 -0.9699
  723MOL0     H95408  -3.806   8.031   6.942  0.5978 -0.0129  0.6743
  723MOL0     H95409  -3.808   8.081   6.773  0.6021  0.7559  0.4931
  723MOL0     H95410  -3.927   7.832   6.891 -1.2523  0.0368 -0.2420
  723MOL0     H95411  -3.860   7.825   6.725  1.0291 -1.9339  1.5755
  723MOL0     H95412  -4.008   8.001   6.658 -1.1606 -0.2363  0.1154
  723MOL0     H95413  -4.056   8.038   6.822 -2.5765  1.6660 -2.6403
  723MOL0     H95414  -4.080   7.753   6.702 -2.7067 -0.2889 -1.3879
  723MOL0     H95415  -4.151   7.795   6.851 -2.6135  0.2446 -1.2555
  723MOL0     H95416  -4.250   7.950   6.602 -5.3650 -0.0161 -1.2190
  723MOL0     H95417  -4.323   7.922   6.760 -1.1447  1.4676 -1.2610
  723MOL0     H95418  -3.202   7.862   6.732 -1.8638 -1.1770  3.5067
  723MOL0     H95419  -2.950   7.800   6.740 -0.0791 -0.8418  2.8373
  723MOL0     H95420  -2.474   8.025   7.063  0.1160 -0.0760  1.0393
  723MOL0     H95421  -2.244   7.973   7.019 -0.5605  0.0640  0.5430
  723MOL0     H95422  -0.358   7.826   6.623 -1.2220  0.1452  1.1700
  723MOL0     H95423  -0.137   7.893   6.533 -0.8570 -0.1379 -0.6013
  723MOL0     H95424   0.313   7.935   6.770 -1.2231  1.0494 -0.3519
  723MOL0     H95425   0.526   8.038   6.829 -1.5645 -0.6710  0.8610
  723MOL0     H95426   0.637   8.482   6.788  1.6877  0.0509 -0.5831
  723MOL0     H95427   0.618   8.411   6.625  0.7582 -0.1701 -1.7943
  723MOL0     H95428   0.847   8.294   6.680  1.2540  1.6746 -2.3816
  723MOL0     H95429   0.846   8.468   6.662  2.2557 -1.9471 -1.1566
  723MOL0     H95430   0.824   8.319   6.945 -0.9924 -0.1435  0.0846
  723MOL0     H95431   0.833   8.500   6.917  0.2934  0.6120 -1.4627
  723MOL0     H95432   1.064   8.369   6.962 -1.5046 -0.6262  0.5080
  723MOL0     H95433   1.054   8.304   6.802  0.2030 -1.1418  1.3979
  723MOL0     H95434   1.259   8.644   6.727  1.2000 -2.4903 -2.3111
  723MOL0     H95435   0.406   8.412   6.675 -2.4205  0.1987 -0.8832
  723MOL0     H95436   0.193   8.319   6.605 -0.1863  0.3825 -0.5824
  724MOL0     O95437   9.428   2.567   1.766 -0.7177 -0.8985  0.7494
  724MOL0     C95438   9.551   2.562   1.779  0.7409  0.2863 -0.2092
  724MOL0     O95439   9.622   2.508   1.885  0.0354  0.6029  0.5184
  724MOL0     C95440   9.559   2.490   2.003  0.0550  0.2447  0.5318
  724MOL0     C95441   9.505   2.606   2.068 -0.5177  0.0113  0.1277
  724MOL0     C95442   9.417   2.588   2.176 -0.0143  0.9186 -0.2671
  724MOL0     C95443   9.400   2.458   2.234  0.1851 -0.8339 -1.7209
  724MOL0     O95444   9.317   2.436   2.344 -0.2066  0.2170  0.8691
  724MOL0     C95445   9.286   2.546   2.436  1.0438 -0.0466 -0.3611
  724MOL0     C95446   9.229   2.507   2.574 -0.4923  0.6390 -0.3030
  724MOL0     C95447   9.074   2.499   2.565 -0.3886  0.6876 -0.2292
  724MOL0     C95448   9.022   2.375   2.503  0.5109  0.4082 -0.0706
  724MOL0     C95449   8.872   2.391   2.468  1.2407  0.1231 -0.4374
  724MOL0     C95450   8.768   2.418   2.586  0.2419  0.3350 -0.3768
  724MOL0     C95451   8.772   2.308   2.695 -0.2875  0.4242 -0.2904
  724MOL0     C95452   8.715   2.351   2.839 -0.8203 -0.4841 -0.9658
  724MOL0     N95453   8.582   2.408   2.818  0.5972  0.3735 -0.0736
  724MOL0     C95454   8.463   2.334   2.830  0.1331 -0.0610 -0.1750
  724MOL0     C95455   8.366   2.425   2.804 -0.8810 -0.8319  0.5161
  724MOL0     C95456   8.218   2.417   2.791  0.7184  0.2102  0.1998
  724MOL0     C95457   8.151   2.496   2.911 -1.1308 -0.9100 -1.0041
  724MOL0     C95458   7.999   2.541   2.880  0.9521  0.0434  0.4862
  724MOL0     C95459   7.922   2.570   3.003 -0.4482 -0.0946  0.4102
  724MOL0     O95460   7.793   2.628   2.978  0.2265 -0.3889  0.0887
  724MOL0     C95461   7.717   2.632   3.090 -0.0012  0.1157  0.7614
  724MOL0     C95462   7.584   2.607   3.063  0.4069  0.7399 -0.4241
  724MOL0     C95463   7.486   2.612   3.165 -0.9114  0.9344  0.1381
  724MOL0     C95464   7.527   2.644   3.302  0.4988  0.9670  0.4259
  724MOL0     C95465   7.427   2.669   3.403  0.6183  0.7114 -0.9081
  724MOL0     O95466   7.299   2.632   3.373 -0.1671  0.5636  0.3301
  724MOL0     C95467   7.187   2.630   3.454  0.4039 -0.3779  0.0299
  724MOL0     C95468   7.188   2.647   3.596 -0.0689 -0.1126 -0.4647
  724MOL0     C95469   7.061   2.628   3.659 -0.7162  0.5393  0.2232
  724MOL0     C95470   6.936   2.603   3.600  0.0015  0.1108 -0.5698
  724MOL0     O95471   6.816   2.582   3.661 -0.1868 -0.1931 -0.3003
  724MOL0     C95472   6.787   2.626   3.793  0.0635 -0.5675 -0.1503
  724MOL0     C95473   6.635   2.653   3.793  0.6620 -0.2351  0.7410
  724MOL0     C95474   6.550   2.527   3.810 -0.0232  0.1069 -0.2735
  724MOL0     C95475   6.401   2.544   3.802  0.1094  0.1349 -0.5645
  724MOL0     C95476   6.362   2.562   3.660 -0.5964 -0.3946 -0.7358
  724MOL0     C95477   6.211   2.542   3.647  0.2263 -0.3176 -0.2943
  724MOL0     C95478   6.155   2.568   3.502  0.2047  0.4797  0.3072
  724MOL0     C95479   6.012   2.503   3.483 -0.0137  1.1427 -0.2592
  724MOL0    Cl95480   5.904   2.547   3.610  0.1562 -0.0928 -0.3078
  724MOL0     C95481   6.942   2.601   3.459 -0.0260  0.3703  0.1107
  724MOL0     C95482   7.066   2.608   3.389 -0.0828 -0.4345 -0.1230
  724MOL0     O95483   7.465   2.709   3.510 -0.3646  0.1205  0.3922
  724MOL0     C95484   7.663   2.661   3.323  0.9079  0.2180 -0.1273
  724MOL0     C95485   7.759   2.652   3.226  0.6012 -0.9108 -0.0141
  724MOL0     N95486   8.427   2.544   2.777 -0.0841 -0.5047  0.3352
  724MOL0     N95487   8.552   2.535   2.777 -0.1772  0.2312  0.3535
  724MOL0     C95488   9.455   2.347   2.172 -0.9818 -0.0800 -0.0894
  724MOL0     C95489   9.538   2.362   2.056  0.7645 -0.0138 -0.1278
  724MOL0     C95490   9.642   2.604   1.673  0.3699  0.4464  0.5378
  724MOL0     C95491   9.778   2.578   1.671  0.1169 -0.4178 -0.6822
  724MOL0     C95492   9.859   2.625   1.573 -0.0352  1.3972 -0.0461
  724MOL0     C95493   9.800   2.709   1.472 -0.1307  0.2710 -0.3553
  724MOL0     O95494   9.870   2.764   1.368 -0.1243  0.3154  0.5309
  724MOL0     C95495   9.976   2.846   1.413  0.3983  0.1164  0.4015
  724MOL0     C95496  10.018   2.937   1.292 -0.0095  0.3374  0.1384
  724MOL0     C95497  10.064   2.859   1.158  0.8640 -0.5698 -0.6151
  724MOL0     C95498  10.150   2.966   1.070  0.2218  0.3069 -0.2278
  724MOL0     C95499  10.291   2.993   1.120  0.1624 -0.0421  0.1269
  724MOL0     C95500  10.393   3.029   1.175 -0.5187 -0.5678 -1.3199
  724MOL0     C95501   9.657   2.735   1.474 -0.1660 -0.0766 -0.8496
  724MOL0     C95502   9.580   2.690   1.576 -0.4827 -0.8761  0.1886
  724MOL0     H95503   9.514   2.706   2.028  1.5303  0.8206  2.3233
  724MOL0     H95504   9.384   2.684   2.214  1.3281  0.3797  2.5783
  724MOL0     H95505   9.212   2.610   2.385 -1.0095 -2.6178 -0.8092
  724MOL0     H95506   9.376   2.603   2.458  0.5875  1.0637 -1.2494
  724MOL0     H95507   9.267   2.574   2.651  1.2685 -0.4101 -0.2024
  724MOL0     H95508   9.264   2.405   2.592 -2.1994  0.0660 -0.0308
  724MOL0     H95509   9.031   2.584   2.511 -0.2148  1.5793  0.9684
  724MOL0     H95510   9.034   2.522   2.664 -1.6056 -0.1929 -0.4931
  724MOL0     H95511   9.067   2.379   2.403  0.9781 -0.2589  0.1061
  724MOL0     H95512   9.045   2.281   2.555 -1.2502  0.1737  0.3725
  724MOL0     H95513   8.832   2.308   2.409 -2.9918  0.9469  0.8806
  724MOL0     H95514   8.858   2.471   2.394  0.9973  2.0297  1.5514
  724MOL0     H95515   8.665   2.421   2.550  0.0851  1.7808  0.0954
  724MOL0     H95516   8.783   2.520   2.625 -2.1850  0.6208 -0.0760
  724MOL0     H95517   8.723   2.220   2.651  1.3324  0.0037 -1.3016
  724MOL0     H95518   8.875   2.273   2.701  0.6081  2.6480 -1.7192
  724MOL0     H95519   8.777   2.428   2.886 -0.7231  0.3248 -2.3600
  724MOL0     H95520   8.719   2.271   2.913 -1.6675 -1.2479 -1.7258
  724MOL0     H95521   8.443   2.228   2.844 -0.6087  0.0453 -0.4304
  724MOL0     H95522   8.173   2.318   2.776 -0.9062  1.2113 -2.0778
  724MOL0     H95523   8.185   2.468   2.700 -2.1769 -1.8272 -0.0614
  724MOL0     H95524   8.209   2.586   2.934  0.8181 -2.5399  0.7824
  724MOL0     H95525   8.152   2.432   3.000  0.0450 -0.8385 -0.9504
  724MOL0     H95526   7.998   2.628   2.814  0.7850 -0.7442 -0.5638
  724MOL0     H95527   7.964   2.453   2.826  0.7440  1.9392 -2.7391
  724MOL0     H95528   7.978   2.638   3.068  0.9502  0.4477 -1.2438
  724MOL0     H95529   7.908   2.474   3.053 -2.5427 -0.5173 -0.8679
  724MOL0     H95530   7.571   2.590   2.957 -0.4883 -0.3955 -0.1529
  724MOL0     H95531   7.385   2.592   3.132 -0.1902 -2.5530 -0.2993
  724MOL0     H95532   7.275   2.671   3.656 -2.0486  0.3261  2.4674
  724MOL0     H95533   7.050   2.654   3.764  0.2320 -0.3339  0.5577
  724MOL0     H95534   6.835   2.724   3.806  0.4745 -0.7470 -0.3016
  724MOL0     H95535   6.831   2.562   3.870 -0.4011 -0.3413  0.3130
  724MOL0     H95536   6.605   2.697   3.697 -0.8042 -0.7407  0.9357
  724MOL0     H95537   6.613   2.726   3.871 -1.7595  0.1039 -0.1620
  724MOL0     H95538   6.575   2.480   3.906 -1.9520  0.2295  0.3361
  724MOL0     H95539   6.572   2.447   3.738  1.8834 -1.7026  2.1459
  724MOL0     H95540   6.356   2.453   3.841  2.0923  0.1705  2.0709
  724MOL0     H95541   6.373   2.631   3.863  1.8109 -0.5492  1.3111
  724MOL0     H95542   6.407   2.481   3.602 -1.3877  0.1172 -2.1425
  724MOL0     H95543   6.403   2.653   3.613  1.2487 -1.2795 -0.9071
  724MOL0     H95544   6.159   2.613   3.713 -2.0329 -0.1995 -2.0909
  724MOL0     H95545   6.193   2.439   3.679  0.7026 -0.8268 -1.6166
  724MOL0     H95546   6.153   2.677   3.489 -0.4798  0.4125 -0.2157
  724MOL0     H95547   6.225   2.537   3.424 -0.0982 -0.7763  0.5163
  724MOL0     H95548   6.030   2.395   3.479 -0.0303  1.1712 -1.5596
  724MOL0     H95549   5.978   2.535   3.384 -1.1389 -3.6114 -1.7113
  724MOL0     H95550   6.846   2.587   3.411 -0.0227 -3.8739  0.9339
  724MOL0     H95551   7.066   2.612   3.280 -0.3475 -0.0068 -0.1111
  724MOL0     H95552   7.692   2.695   3.422 -0.2049 -0.1407  0.3378
  724MOL0     H95553   7.861   2.654   3.262  0.7275 -1.6961 -0.3102
  724MOL0     H95554   9.428   2.250   2.212 -0.5995  0.1484  0.7507
  724MOL0     H95555   9.583   2.275   2.008  1.6257 -1.1179  2.5142
  724MOL0     H95556   9.818   2.515   1.750  1.4626  0.6573 -0.4769
  724MOL0     H95557   9.966   2.603   1.571 -0.5129 -1.3248 -2.2207
  724MOL0     H95558  10.067   2.794   1.445  1.5749  1.6989 -0.2129
  724MOL0     H95559   9.941   2.907   1.497 -1.8446 -1.8160  0.9689
  724MOL0     H95560   9.927   2.994   1.270  0.1325  0.5714  0.1546
  724MOL0     H95561  10.103   2.998   1.322  1.0523  1.0192 -3.6489
  724MOL0     H95562   9.979   2.828   1.096  0.2053 -0.3720  0.1777
  724MOL0     H95563  10.130   2.774   1.177  0.9598 -1.4139 -4.0901
  724MOL0     H95564  10.167   2.917   0.974  1.2666  0.0762  0.0566
  724MOL0     H95565  10.107   3.065   1.051  0.8404  0.4039 -1.1693
  724MOL0     H95566  10.476   3.063   1.233 -1.7524  1.1866 -0.5065
  724MOL0     H95567   9.609   2.794   1.396  1.2121 -1.2930 -2.6988
  724MOL0     H95568   9.479   2.731   1.582  0.4541  1.4316  1.7906
  725MOL0     O95569   3.306   1.629   6.936  0.5410  0.0384  0.5993
  725MOL0     C95570   3.336   1.523   6.885 -1.1284  0.6966 -0.5262
  725MOL0     O95571   3.266   1.401   6.887 -0.6244  0.9332  0.4073
  725MOL0     C95572   3.138   1.386   6.941 -0.4344  0.9028 -0.4694
  725MOL0     C95573   3.098   1.252   6.991 -0.5472 -0.0851  0.3226
  725MOL0     C95574   2.968   1.223   7.031 -0.4040  0.8563 -0.1720
  725MOL0     C95575   2.873   1.329   7.026  0.4635  0.3794 -0.4163
  725MOL0     O95576   2.741   1.320   7.058 -0.3881 -1.1064  0.3581
  725MOL0     C95577   2.691   1.202   7.116 -0.7361 -0.4163 -0.6098
  725MOL0     C95578   2.546   1.217   7.165 -0.3851 -0.0512 -0.1908
  725MOL0     C95579   2.479   1.100   7.234 -0.0141  0.3682 -0.1851
  725MOL0     C95580   2.342   1.145   7.292 -0.1693 -0.3724  0.3063
  725MOL0     C95581   2.303   1.061   7.414  0.1978  0.3096 -0.3895
  725MOL0     C95582   2.270   0.920   7.365  0.4422 -0.0028 -0.6145
  725MOL0     C95583   2.218   0.835   7.481  0.3873 -0.2870  0.2782
  725MOL0     C95584   2.221   0.692   7.446  0.0307  0.3860  0.2325
  725MOL0     N95585   2.163   0.612   7.551 -0.7842  0.5997  0.3911
  725MOL0     C95586   2.038   0.610   7.596 -0.8231  0.2396  0.3557
  725MOL0     C95587   2.046   0.533   7.711  0.0213 -0.2827 -0.5716
  725MOL0     C95588   1.930   0.497   7.791  0.3564 -0.2059  0.1970
  725MOL0     C95589   1.887   0.355   7.749  0.6877 -0.0726  0.2292
  725MOL0     C95590   1.767   0.318   7.845 -1.1289  1.2384  0.3404
  725MOL0     C95591   1.709   0.184   7.797 -0.6336  0.3105  0.9239
  725MOL0     O95592   1.651   0.119   7.905 -0.4039 -0.3404  0.1764
  725MOL0     C95593   1.513   0.147   7.929  0.5659  0.4398  0.6537
  725MOL0     C95594   1.419   0.120   7.827 -0.1507  0.5684 -0.7242
  725MOL0     C95595   1.293   0.161   7.835 -0.1479 -0.6378 -0.6671
  725MOL0     C95596   1.235   0.215   7.947 -0.0594 -0.5426  0.3261
  725MOL0     C95597   1.096   0.245   7.957  0.1053 -0.0052  0.3033
  725MOL0     O95598   1.028   0.211   8.063 -0.7522  0.0218 -0.4684
  725MOL0     C95599   0.893   0.220   8.064  0.6646  0.4936  0.7256
  725MOL0     C95600   0.814   0.106   8.059  1.1766  0.0895  0.3465
  725MOL0     C95601   0.676   0.117   8.077 -0.2750  0.8975 -0.9185
  725MOL0     C95602   0.612   0.239   8.089  0.6248 -0.1128  0.7602
  725MOL0     O95603   0.480   0.257   8.098 -0.1495  0.0923 -0.3019
  725MOL0     C95604   0.407   0.143   8.118  0.6729  0.1471  0.1452
  725MOL0     C95605   0.265   0.203   8.151 -0.7638  0.2371  0.2147
  725MOL0     C95606   0.176   0.093   8.212  0.2302 -0.5124 -0.2143
  725MOL0     C95607   0.049   0.164   8.250  0.2464 -0.2598  0.1527
  725MOL0     C95608  -0.071   0.076   8.292  0.7652 -0.5974 -0.1589
  725MOL0     C95609  -0.191   0.167   8.324 -0.2385 -0.3817  0.9166
  725MOL0     C95610  -0.318   0.092   8.353  0.4339 -0.1260  0.3631
  725MOL0     C95611  -0.404   0.184   8.436  0.8343  0.0164 -0.0115
  725MOL0    Cl95612  -0.550   0.117   8.500  0.1274 -0.0364  0.1280
  725MOL0     C95613   0.689   0.355   8.082 -0.0326 -1.4847 -0.2032
  725MOL0     C95614   0.828   0.342   8.076 -1.2682  0.1415 -0.5533
  725MOL0     O95615   1.052   0.297   7.850 -0.5716  0.1698 -0.1036
  725MOL0     C95616   1.324   0.241   8.049 -0.7584  0.3051  0.2381
  725MOL0     C95617   1.466   0.205   8.043  0.3191  0.0863 -0.0274
  725MOL0     N95618   2.175   0.492   7.737 -0.2367 -0.0262 -0.6103
  725MOL0     N95619   2.242   0.537   7.632 -0.1392 -0.4467  0.0430
  725MOL0     C95620   2.907   1.455   6.977  0.3581  0.0032  0.6759
  725MOL0     C95621   3.033   1.481   6.930  0.4702 -0.2839 -0.1644
  725MOL0     C95622   3.471   1.515   6.817  0.5572  0.6771  0.3073
  725MOL0     C95623   3.563   1.617   6.830 -0.7893  0.2307  0.4892
  725MOL0     C95624   3.688   1.602   6.768  0.0393 -0.4527 -0.2370
  725MOL0     C95625   3.723   1.481   6.704  0.2601  0.3931  0.6550
  725MOL0     O95626   3.839   1.492   6.643 -1.0625 -0.6664 -0.0998
  725MOL0     C95627   3.901   1.369   6.605  0.2488 -0.1682  0.1210
  725MOL0     C95628   4.041   1.397   6.564  1.1515  0.1404  0.0897
  725MOL0     C95629   4.136   1.277   6.551 -0.0604  0.7106  0.5159
  725MOL0     C95630   4.275   1.329   6.530  0.2631 -0.3509  0.1284
  725MOL0     C95631   4.362   1.222   6.470 -0.0321 -0.5950 -0.1778
  725MOL0     C95632   4.414   1.140   6.400  0.2612 -0.1492  0.1642
  725MOL0     C95633   3.634   1.373   6.705 -0.3333 -0.0072  0.4932
  725MOL0     C95634   3.511   1.393   6.760  0.0655  1.1897  0.5358
  725MOL0     H95635   3.162   1.165   6.994  0.3143  0.5618  2.3943
  725MOL0     H95636   2.938   1.125   7.067 -1.9589  1.3413 -0.0473
  725MOL0     H95637   2.752   1.191   7.207 -1.0215  0.9010 -0.2287
  725MOL0     H95638   2.696   1.112   7.054 -2.0960  0.4384 -2.0430
  725MOL0     H95639   2.481   1.254   7.085 -1.2345  0.5654  0.7643
  725MOL0     H95640   2.551   1.304   7.232  0.9828 -1.1647  1.2315
  725MOL0     H95641   2.543   1.068   7.317  1.3961 -1.7337 -1.9938
  725MOL0     H95642   2.458   1.017   7.166  1.2995  2.3805 -3.2169
  725MOL0     H95643   2.352   1.246   7.331 -2.3724 -0.0713  0.1921
  725MOL0     H95644   2.271   1.153   7.209 -0.8671  0.4145  0.9561
  725MOL0     H95645   2.213   1.110   7.454 -1.1775 -2.6135  0.3464
  725MOL0     H95646   2.390   1.071   7.480  1.3376  1.8430 -2.0288
  725MOL0     H95647   2.353   0.873   7.312  0.7632 -0.8036  0.5627
  725MOL0     H95648   2.187   0.940   7.297 -0.8473  4.2842  1.8512
  725MOL0     H95649   2.281   0.838   7.570 -0.2108  1.7099  0.6732
  725MOL0     H95650   2.116   0.869   7.501 -0.2212 -2.2291  0.6402
  725MOL0     H95651   2.323   0.657   7.429  0.6079  2.3769 -0.8089
  725MOL0     H95652   2.162   0.680   7.354 -4.4046  2.0321  2.5345
  725MOL0     H95653   1.960   0.650   7.532  2.4086 -0.6056 -4.6471
  725MOL0     H95654   1.848   0.565   7.765 -1.7373 -3.5404 -2.9542
  725MOL0     H95655   1.937   0.505   7.900 -2.3812  1.3303  0.3529
  725MOL0     H95656   1.970   0.286   7.765  3.2338  2.3540 -1.5900
  725MOL0     H95657   1.858   0.354   7.644  0.0162  0.6920  0.3966
  725MOL0     H95658   1.809   0.312   7.946  2.0224  4.1366 -0.5792
  725MOL0     H95659   1.691   0.397   7.839 -1.3794  0.8995 -1.5634
  725MOL0     H95660   1.791   0.122   7.759 -1.6932 -0.5027 -0.1182
  725MOL0     H95661   1.643   0.189   7.710 -0.9340 -1.4893  0.9937
  725MOL0     H95662   1.455   0.066   7.739  1.0047  1.7964 -1.0294
  725MOL0     H95663   1.226   0.135   7.753 -3.2181  0.2292  1.4300
  725MOL0     H95664   0.868   0.014   8.043  2.5664  1.1230 -1.2445
  725MOL0     H95665   0.632   0.018   8.086  1.2334  0.2661  0.1042
  725MOL0     H95666   0.432   0.078   8.202  1.5833  0.9530  0.4996
  725MOL0     H95667   0.400   0.075   8.032  0.4072 -0.2927  0.5101
  725MOL0     H95668   0.220   0.250   8.063 -1.8414  1.1198  1.2104
  725MOL0     H95669   0.275   0.282   8.226  0.6909 -1.6519  2.1575
  725MOL0     H95670   0.216   0.041   8.300  1.5923 -2.5341 -1.9401
  725MOL0     H95671   0.163   0.014   8.139  0.8459 -0.0620 -0.8240
  725MOL0     H95672   0.062   0.241   8.327 -0.3293 -0.4860  0.4812
  725MOL0     H95673   0.026   0.217   8.157  1.5959 -0.4421 -0.3049
  725MOL0     H95674  -0.047   0.013   8.379  0.0773 -0.2225  0.3113
  725MOL0     H95675  -0.108   0.014   8.210 -2.6744  1.2867 -0.2297
  725MOL0     H95676  -0.217   0.232   8.240 -0.4316  0.4056  1.5768
  725MOL0     H95677  -0.159   0.236   8.402  1.4181  1.0732 -0.9334
  725MOL0     H95678  -0.376   0.072   8.263 -2.1174  0.6673  1.7273
  725MOL0     H95679  -0.313  -0.010   8.391  0.1817 -1.6928 -3.4334
  725MOL0     H95680  -0.422   0.273   8.375  0.2484 -0.2785 -0.2681
  725MOL0     H95681  -0.346   0.218   8.523 -0.4779 -2.4937  1.9871
  725MOL0     H95682   0.649   0.455   8.092 -1.7035 -2.1801  0.3398
  725MOL0     H95683   0.889   0.428   8.101  1.3856 -2.1743  1.6055
  725MOL0     H95684   1.297   0.301   8.135 -0.0684  0.5652  0.2814
  725MOL0     H95685   1.528   0.229   8.129  0.6896  0.7561 -0.4760
  725MOL0     H95686   2.825   1.526   6.981 -1.8608 -2.3334 -0.3083
  725MOL0     H95687   3.055   1.581   6.893 -0.0473  0.1265  0.6191
  725MOL0     H95688   3.532   1.707   6.881 -0.5275  2.6237 -3.2051
  725MOL0     H95689   3.752   1.689   6.778 -1.5496  0.9946 -1.9770
  725MOL0     H95690   3.847   1.316   6.526 -0.3799 -1.7738  1.5837
  725MOL0     H95691   3.903   1.305   6.693  0.5586  0.5505  0.6452
  725MOL0     H95692   4.043   1.437   6.463  3.2814  0.6146  0.2668
  725MOL0     H95693   4.090   1.463   6.637 -1.5051  1.5382  0.7397
  725MOL0     H95694   4.106   1.212   6.468  2.0011 -0.5315  0.6653
  725MOL0     H95695   4.143   1.214   6.640  1.2932  1.1472  0.7476
  725MOL0     H95696   4.271   1.404   6.452 -1.5278 -1.6188 -1.0989
  725MOL0     H95697   4.324   1.345   6.627  2.3831 -2.4778 -0.4901
  725MOL0     H95698   4.457   1.070   6.331 -0.5832 -1.4640  0.9282
  725MOL0     H95699   3.659   1.270   6.681 -2.7625 -0.5812  0.1070
  725MOL0     H95700   3.440   1.311   6.754  0.3422  0.8267  1.8552
  726MOL0     O95701  10.689   6.451   9.374 -0.0806 -1.0526  0.2810
  726MOL0     C95702  10.765   6.416   9.467  0.5120 -0.3901  0.3194
  726MOL0     O95703  10.734   6.431   9.604 -0.7752  0.8601  0.4453
  726MOL0     C95704  10.620   6.497   9.629  0.3792 -0.5430 -0.3765
  726MOL0     C95705  10.534   6.415   9.702  0.0161  0.6105  0.2237
  726MOL0     C95706  10.410   6.466   9.747  0.2604  0.3614  0.3717
  726MOL0     C95707  10.371   6.602   9.730 -0.2475  0.1827 -0.2663
  726MOL0     O95708  10.252   6.641   9.779 -0.5635  0.2656 -0.0819
  726MOL0     C95709  10.194   6.773   9.758  0.0528  0.8102  0.3917
  726MOL0     C95710  10.057   6.779   9.823  0.6356 -0.3079  0.2328
  726MOL0     C95711   9.994   6.924   9.803 -1.1233  0.3546  0.1192
  726MOL0     C95712  10.068   7.025   9.892 -1.2889  0.1628 -0.0686
  726MOL0     C95713  10.007   7.027  10.036 -0.0582 -0.2821 -0.6176
  726MOL0     C95714  10.045   7.164  10.107  0.3807 -0.2085 -0.6747
  726MOL0     C95715   9.996   7.169  10.252  0.8036 -0.4407 -0.2455
  726MOL0     C95716  10.027   7.301  10.324  0.0257 -0.5719 -0.1297
  726MOL0     N95717   9.987   7.321  10.465 -0.8232  0.1281 -0.7386
  726MOL0     C95718   9.883   7.253  10.530 -0.7022 -0.0534  0.3116
  726MOL0     C95719   9.907   7.283  10.661 -0.1842 -0.1439  0.0381
  726MOL0     C95720   9.828   7.244  10.779 -0.7483 -0.1353 -0.5286
  726MOL0     C95721   9.677   7.229  10.762  0.1956  0.5646 -0.2036
  726MOL0     C95722   9.602   7.246  10.891 -0.8077 -0.4077 -0.5358
  726MOL0     C95723   9.453   7.251  10.861  0.6837  0.6603 -0.2763
  726MOL0     O95724   9.421   7.365  10.772 -0.7317  0.4908  0.7297
  726MOL0     C95725   9.282   7.382  10.753 -0.1011  0.0112 -0.7058
  726MOL0     C95726   9.227   7.505  10.798  0.3827  0.0712  0.1039
  726MOL0     C95727   9.086   7.528  10.761 -1.4732 -0.7978  0.1916
  726MOL0     C95728   9.010   7.429  10.697 -0.8268 -0.2551  0.7008
  726MOL0     C95729   8.867   7.446  10.671  0.5116 -0.4261 -0.4104
  726MOL0     O95730   8.821   7.558  10.606 -0.2081  0.9721 -0.1692
  726MOL0     C95731   8.695   7.597  10.660  0.1234  0.0051  0.8230
  726MOL0     C95732   8.584   7.606  10.570 -0.8744 -0.2062 -0.3253
  726MOL0     C95733   8.457   7.662  10.598 -0.1208 -0.6096 -0.8661
  726MOL0     C95734   8.434   7.707  10.730 -0.3724 -0.1808 -0.5793
  726MOL0     O95735   8.313   7.775  10.759  0.2116  0.6474 -1.3667
  726MOL0     C95736   8.274   7.793  10.902 -0.4469  0.0480  0.2177
  726MOL0     C95737   8.138   7.856  10.901 -0.0165  0.7441 -0.4678
  726MOL0     C95738   8.127   8.006  10.912 -0.4164 -0.5635  0.4991
  726MOL0     C95739   8.180   8.051  11.055 -0.5128 -0.6196 -0.8789
  726MOL0     C95740   8.229   8.197  11.067  0.2816 -0.4879 -0.5466
  726MOL0     C95741   8.229   8.232  11.222  0.0514 -0.2103 -0.6027
  726MOL0     C95742   8.332   8.341  11.249  1.0744 -0.3080  0.6769
  726MOL0     C95743   8.333   8.450  11.148  0.2618 -0.2664  0.5442
  726MOL0    Cl95744   8.193   8.544  11.179  0.2449  0.1294 -0.0592
  726MOL0     C95745   8.539   7.689  10.828 -0.3589  0.2740  0.5413
  726MOL0     C95746   8.666   7.632  10.792  0.0618  0.4982  0.1101
  726MOL0     O95747   8.792   7.366  10.724  0.1993 -0.1053 -0.6251
  726MOL0     C95748   9.069   7.310  10.659 -0.2159 -1.1532 -0.5294
  726MOL0     C95749   9.200   7.282  10.688 -0.1618  0.1866 -0.0531
  726MOL0     N95750  10.021   7.356  10.669  0.1334  0.4716 -0.1717
  726MOL0     N95751  10.058   7.390  10.551 -0.6250  0.3271 -0.3160
  726MOL0     C95752  10.457   6.686   9.658 -0.8397  0.8657  0.4346
  726MOL0     C95753  10.576   6.633   9.605  0.6107 -0.1636 -0.0637
  726MOL0     C95754  10.894   6.360   9.435  0.0535 -0.2898 -0.1444
  726MOL0     C95755  10.925   6.320   9.297  0.5716  0.7374  0.6163
  726MOL0     C95756  11.057   6.264   9.285 -0.5791 -1.3056 -0.6062
  726MOL0     C95757  11.147   6.241   9.387 -0.7081 -0.1207 -0.5617
  726MOL0     O95758  11.268   6.177   9.355 -0.2315  0.0493  0.6877
  726MOL0     C95759  11.379   6.149   9.447 -0.1366 -0.0496  0.4150
  726MOL0     C95760  11.365   5.997   9.489 -0.1278 -0.3960 -0.3565
  726MOL0     C95761  11.429   5.906   9.382  0.5548 -0.0379  0.4803
  726MOL0     C95762  11.354   5.788   9.344  0.6552  0.7062  0.2418
  726MOL0     C95763  11.395   5.673   9.420  0.4452  0.3880  0.5379
  726MOL0     C95764  11.414   5.580   9.498  0.2167  0.4627 -0.2237
  726MOL0     C95765  11.112   6.285   9.516 -0.2369  0.9824 -0.6547
  726MOL0     C95766  10.986   6.339   9.537  0.1064 -0.0947 -0.2247
  726MOL0     H95767  10.561   6.311   9.719  1.7756  0.9930 -0.0882
  726MOL0     H95768  10.344   6.393   9.792  1.2679 -2.4919 -2.3403
  726MOL0     H95769  10.174   6.774   9.651 -0.0442 -2.0528  0.3050
  726MOL0     H95770  10.256   6.857   9.791 -3.8631  3.1871  2.3885
  726MOL0     H95771  10.063   6.755   9.930  0.3554  0.0679  0.3379
  726MOL0     H95772   9.991   6.708   9.774 -0.8181  0.0768  1.5379
  726MOL0     H95773   9.887   6.913   9.821 -1.5107  1.7306 -1.1094
  726MOL0     H95774  10.009   6.948   9.697 -0.2577 -0.3784  0.0563
  726MOL0     H95775  10.175   7.009   9.908 -1.5321  0.8585  2.6837
  726MOL0     H95776  10.054   7.129   9.859 -0.1950  0.5518  0.6535
  726MOL0     H95777  10.051   6.941  10.087  0.4645  0.7246  0.6669
  726MOL0     H95778   9.899   7.019  10.024 -0.1706 -0.7860  0.6069
  726MOL0     H95779   9.998   7.254  10.065 -0.3526 -0.7994 -1.1461
  726MOL0     H95780  10.153   7.176  10.098  0.1619  0.8756 -2.3155
  726MOL0     H95781   9.888   7.155  10.249  0.5498 -0.1660  3.2355
  726MOL0     H95782  10.043   7.086  10.307 -1.7538 -2.2244 -0.5571
  726MOL0     H95783   9.991   7.392  10.275 -1.4427 -1.4266 -0.6911
  726MOL0     H95784  10.136   7.306  10.316  0.0377 -0.5098  0.0591
  726MOL0     H95785   9.807   7.186  10.490 -0.9542  0.4909 -0.1329
  726MOL0     H95786   9.843   7.322  10.855 -2.4005  0.6083 -0.9264
  726MOL0     H95787   9.882   7.157  10.819  1.4639  0.1042 -2.7661
  726MOL0     H95788   9.660   7.124  10.738  0.1544  0.4303  0.3978
  726MOL0     H95789   9.632   7.293  10.686 -1.5162 -0.4800 -0.1062
  726MOL0     H95790   9.629   7.176  10.970 -3.8167 -0.0786  0.9298
  726MOL0     H95791   9.640   7.341  10.930  1.2377 -1.4147  0.0216
  726MOL0     H95792   9.394   7.264  10.953  0.1926  2.7253 -0.8399
  726MOL0     H95793   9.417   7.163  10.807  1.2435  1.0517 -1.2929
  726MOL0     H95794   9.282   7.575  10.860 -0.0514 -0.7339  1.4434
  726MOL0     H95795   9.047   7.626  10.787  1.1535  0.5666 -0.6711
  726MOL0     H95796   8.604   7.556  10.476  2.0459 -1.8206  1.0353
  726MOL0     H95797   8.374   7.653  10.528 -1.9855  1.8094  0.8495
  726MOL0     H95798   8.345   7.858  10.955  1.2404 -0.9563 -0.7360
  726MOL0     H95799   8.275   7.697  10.955 -2.3455  1.2864  2.7814
  726MOL0     H95800   8.071   7.810  10.975 -0.8371  0.0669 -1.6048
  726MOL0     H95801   8.093   7.817  10.810  0.5330 -0.9675 -0.0436
  726MOL0     H95802   8.026   8.045  10.899 -0.7395 -0.9302  1.7813
  726MOL0     H95803   8.193   8.045  10.833 -1.7022  2.1283  0.6472
  726MOL0     H95804   8.103   8.025  11.129 -1.0517  2.9256 -0.0322
  726MOL0     H95805   8.262   7.988  11.090 -0.7820 -0.7134 -0.4052
  726MOL0     H95806   8.174   8.281  11.025 -0.4080  0.3028  1.8132
  726MOL0     H95807   8.331   8.196  11.025  0.2325  0.3137 -0.7012
  726MOL0     H95808   8.256   8.145  11.283 -0.0914  0.0092 -0.2237
  726MOL0     H95809   8.131   8.272  11.248  0.7104  0.6607  0.6261
  726MOL0     H95810   8.305   8.391  11.342 -0.1767 -0.6941  0.5277
  726MOL0     H95811   8.435   8.304  11.249  1.6265  1.1166 -0.0742
  726MOL0     H95812   8.336   8.420  11.042 -0.4158  0.2774  0.3637
  726MOL0     H95813   8.421   8.511  11.170  0.9007 -0.8937 -0.1732
  726MOL0     H95814   8.532   7.725  10.930  3.7188  0.9710  0.7369
  726MOL0     H95815   8.732   7.615  10.876  0.4066 -0.4349 -0.3363
  726MOL0     H95816   9.007   7.231  10.615  0.3578 -1.6515 -0.4536
  726MOL0     H95817   9.257   7.193  10.661  0.6725  0.5851  0.3541
  726MOL0     H95818  10.424   6.783   9.623 -0.6889  0.2909 -1.4329
  726MOL0     H95819  10.648   6.688   9.546  0.2284  0.9968  0.5194
  726MOL0     H95820  10.858   6.325   9.212  1.9313  1.2396 -0.4452
  726MOL0     H95821  11.074   6.217   9.188 -0.1176  0.9014 -1.6585
  726MOL0     H95822  11.382   6.208   9.539  3.5221  2.5116 -1.1405
  726MOL0     H95823  11.473   6.167   9.395  0.4522  0.1166  1.5099
  726MOL0     H95824  11.420   5.986   9.584 -1.7728  0.2985  0.7158
  726MOL0     H95825  11.262   5.970   9.515  0.5398 -1.7246  1.1012
  726MOL0     H95826  11.521   5.880   9.435 -0.4132  0.3125  2.4340
  726MOL0     H95827  11.442   5.967   9.292 -1.8931 -0.2429 -0.0737
  726MOL0     H95828  11.247   5.813   9.352  0.8795  1.4614  0.9498
  726MOL0     H95829  11.367   5.767   9.237  0.9846  1.5653  0.1019
  726MOL0     H95830  11.422   5.497   9.565  3.2873 -0.2689 -1.3140
  726MOL0     H95831  11.161   6.283   9.614  0.9505  0.2234 -1.2434
  726MOL0     H95832  10.971   6.370   9.640 -0.9059  3.5876 -1.3160
  727MOL0     O95833   7.586   4.638   9.808 -0.6099 -0.0161  0.1487
  727MOL0     C95834   7.623   4.756   9.821  0.5786 -0.4265 -0.1131
  727MOL0     O95835   7.542   4.861   9.868  1.1163 -0.3618  0.0516
  727MOL0     C95836   7.411   4.849   9.883 -0.5746  0.4910 -0.6168
  727MOL0     C95837   7.325   4.734   9.855 -0.1840 -1.0644  0.2617
  727MOL0     C95838   7.194   4.744   9.894  0.3415 -0.3322  0.0589
  727MOL0     C95839   7.133   4.860   9.951 -0.0830 -0.4257 -0.0807
  727MOL0     O95840   7.007   4.861  10.008  0.0506 -0.2060 -0.2518
  727MOL0     C95841   6.921   4.749   9.978  0.5456  0.7247  0.1311
  727MOL0     C95842   6.781   4.774  10.041  0.3306 -0.9015 -1.0509
  727MOL0     C95843   6.781   4.853  10.171 -0.4243  0.0020 -0.1290
  727MOL0     C95844   6.630   4.851  10.219  0.2284 -0.3521 -0.3252
  727MOL0     C95845   6.629   4.920  10.354  0.8259 -0.1737  0.2214
  727MOL0     C95846   6.495   4.946  10.423  0.0809  0.4521  0.6903
  727MOL0     C95847   6.512   5.035  10.544 -0.3819 -0.4851  0.6458
  727MOL0     C95848   6.384   5.043  10.634  0.1343  0.3988 -0.2255
  727MOL0     N95849   6.346   4.910  10.687 -0.4064 -0.0387  0.8637
  727MOL0     C95850   6.234   4.848  10.647  1.0105  0.5295 -0.7460
  727MOL0     C95851   6.222   4.737  10.732 -0.2156 -0.2546  0.4555
  727MOL0     C95852   6.154   4.608  10.714 -0.1794  0.4765 -0.7887
  727MOL0     C95853   6.033   4.590  10.807  0.0495 -1.0919  0.5079
  727MOL0     C95854   6.058   4.619  10.953 -0.1509  0.0395 -0.1134
  727MOL0     C95855   5.938   4.597  11.034 -0.3598  0.0400  0.2585
  727MOL0     O95856   5.891   4.458  11.026 -0.3074  0.8955  0.3539
  727MOL0     C95857   5.776   4.423  11.094  0.2241 -0.0240 -0.4870
  727MOL0     C95858   5.690   4.509  11.175 -0.1077  0.1033  0.0010
  727MOL0     C95859   5.578   4.462  11.243  0.4297 -0.4474 -0.2518
  727MOL0     C95860   5.524   4.335  11.220 -0.1724 -0.2078  0.5427
  727MOL0     C95861   5.397   4.286  11.274  0.0973 -0.4128  0.7151
  727MOL0     O95862   5.311   4.384  11.312  0.6952  0.1810 -0.3049
  727MOL0     C95863   5.189   4.334  11.364  0.0714  1.0431  0.1286
  727MOL0     C95864   5.181   4.290  11.495 -0.1651  0.8381 -0.6347
  727MOL0     C95865   5.059   4.237  11.543  0.8975 -0.3908 -0.1284
  727MOL0     C95866   4.943   4.226  11.463  0.2927  0.1117  0.4961
  727MOL0     O95867   4.825   4.165  11.507 -0.1866 -0.4041 -0.3096
  727MOL0     C95868   4.809   4.139  11.649  0.2416  0.8194  0.6582
  727MOL0     C95869   4.790   4.268  11.731  0.3766  0.0194  0.1483
  727MOL0     C95870   4.657   4.338  11.703 -0.2253 -0.3799 -0.3302
  727MOL0     C95871   4.629   4.454  11.798  0.2747  0.8243  0.2162
  727MOL0     C95872   4.523   4.555  11.750 -0.4449  0.1638  0.2199
  727MOL0     C95873   4.508   4.673  11.848  0.1327  0.1987 -0.1192
  727MOL0     C95874   4.365   4.730  11.845 -0.2726  0.5161 -0.5594
  727MOL0     C95875   4.364   4.855  11.930  0.4139 -0.5132  0.1376
  727MOL0    Cl95876   4.188   4.897  11.961 -0.0025  0.0446  0.0787
  727MOL0     C95877   4.951   4.269  11.337  0.0753  0.1532 -0.1216
  727MOL0     C95878   5.077   4.318  11.280 -0.0919  0.2224 -0.3879
  727MOL0     O95879   5.370   4.165  11.282  0.1066  0.3276  0.4026
  727MOL0     C95880   5.604   4.249  11.146  0.1765 -0.0794  0.2076
  727MOL0     C95881   5.725   4.291  11.087 -0.8450 -0.0112 -0.9300
  727MOL0     N95882   6.329   4.744  10.819 -0.5120 -0.3500  0.0760
  727MOL0     N95883   6.396   4.853  10.798  0.0053  1.2340 -0.5112
  727MOL0     C95884   7.217   4.969   9.971 -0.1344 -0.5247  0.2831
  727MOL0     C95885   7.356   4.963   9.943  0.4454  0.4772  0.0228
  727MOL0     C95886   7.759   4.793   9.795 -0.5536 -0.2572 -0.5782
  727MOL0     C95887   7.805   4.922   9.837  0.7765 -0.2451 -0.2281
  727MOL0     C95888   7.933   4.962   9.814 -0.4360 -0.1820  1.6549
  727MOL0     C95889   8.034   4.871   9.761 -0.1820  0.6242 -0.3960
  727MOL0     O95890   8.162   4.917   9.762 -0.4529  0.4157 -0.3201
  727MOL0     C95891   8.252   4.814   9.790  0.0883  0.7056 -0.4640
  727MOL0     C95892   8.386   4.867   9.843 -0.4726 -0.2423  0.2001
  727MOL0     C95893   8.452   4.973   9.741  0.4712 -0.0038  0.2259
  727MOL0     C95894   8.596   5.010   9.779 -0.7854  0.2748  0.1095
  727MOL0     C95895   8.646   5.131   9.722 -0.4149 -0.4083  0.2626
  727MOL0     C95896   8.686   5.234   9.673 -0.0912 -0.3842 -0.2972
  727MOL0     C95897   7.992   4.742   9.731 -0.0821  0.1283  0.0582
  727MOL0     C95898   7.862   4.707   9.751  0.8324  0.0924 -0.1618
  727MOL0     H95899   7.352   4.639   9.810 -0.2001 -0.6039 -0.7598
  727MOL0     H95900   7.130   4.659   9.872 -2.8768  2.1542 -0.8772
  727MOL0     H95901   6.961   4.659  10.025 -1.0076  0.8176  1.7060
  727MOL0     H95902   6.913   4.728   9.871  1.1490 -1.8035  0.5372
  727MOL0     H95903   6.723   4.685  10.067 -5.5822  1.9649 -2.6117
  727MOL0     H95904   6.717   4.835   9.977  0.4245 -0.1397 -0.4295
  727MOL0     H95905   6.816   4.952  10.140 -0.4844  0.1677  0.3311
  727MOL0     H95906   6.840   4.798  10.244 -0.7950  1.3147  1.2012
  727MOL0     H95907   6.569   4.913  10.154 -2.9900 -0.6377  2.1700
  727MOL0     H95908   6.598   4.747  10.230  0.3673 -0.4540 -0.8791
  727MOL0     H95909   6.674   5.020  10.349  0.9820 -0.0930  2.2945
  727MOL0     H95910   6.688   4.857  10.421  0.9679 -0.6617 -0.3476
  727MOL0     H95911   6.459   4.848  10.454 -1.3511  0.8093  0.2254
  727MOL0     H95912   6.414   4.985  10.361  0.3783 -0.8795 -0.5783
  727MOL0     H95913   6.597   4.996  10.601  0.8596  2.2409  0.8392
  727MOL0     H95914   6.543   5.132  10.503 -2.7408 -0.7874 -2.1058
  727MOL0     H95915   6.300   5.089  10.581 -0.8827  0.8647  1.7152
  727MOL0     H95916   6.404   5.115  10.714 -2.8371  1.2064 -0.0893
  727MOL0     H95917   6.175   4.859  10.557 -0.5597  0.0744  0.1812
  727MOL0     H95918   6.219   4.525  10.745 -2.4941 -0.6994  1.2612
  727MOL0     H95919   6.122   4.596  10.610 -0.1242 -4.3624 -0.4965
  727MOL0     H95920   5.995   4.487  10.807  2.0177 -1.8727  0.5509
  727MOL0     H95921   5.949   4.650  10.772  1.5850  1.4051  0.8674
  727MOL0     H95922   6.134   4.552  10.994  1.3981  2.1946  0.7162
  727MOL0     H95923   6.093   4.722  10.968  1.6229 -0.7048  1.1944
  727MOL0     H95924   5.867   4.669  10.994  1.7179  1.8169 -0.4270
  727MOL0     H95925   5.960   4.623  11.138 -1.0108 -3.2849  1.3462
  727MOL0     H95926   5.703   4.616  11.193 -0.8534 -0.0483  1.6072
  727MOL0     H95927   5.524   4.527  11.312 -1.6264 -1.5336 -0.7499
  727MOL0     H95928   5.270   4.289  11.557 -0.5311 -2.2765  0.0307
  727MOL0     H95929   5.047   4.217  11.649  0.0063  2.1370  0.3268
  727MOL0     H95930   4.897   4.083  11.682  0.9457  1.9082  0.6791
  727MOL0     H95931   4.724   4.070  11.656  0.5716  0.4962  1.6895
  727MOL0     H95932   4.871   4.339  11.712  0.4188 -0.1279 -0.2472
  727MOL0     H95933   4.800   4.243  11.837  1.3325  0.7656  0.2392
  727MOL0     H95934   4.573   4.268  11.712  0.1685 -0.6435  1.9393
  727MOL0     H95935   4.657   4.374  11.600 -1.8926 -0.9468 -0.5667
  727MOL0     H95936   4.604   4.427  11.901  1.0373  0.9694  0.4474
  727MOL0     H95937   4.723   4.508  11.816  0.6800 -0.2034  1.3517
  727MOL0     H95938   4.424   4.511  11.735 -0.5187  0.9387 -1.9173
  727MOL0     H95939   4.551   4.606  11.658  1.8898  2.1607  1.9071
  727MOL0     H95940   4.583   4.751  11.834 -1.7351  2.1656  0.2599
  727MOL0     H95941   4.529   4.637  11.949 -0.4009  0.4604  0.0884
  727MOL0     H95942   4.324   4.750  11.745 -2.7596 -1.2133  0.0315
  727MOL0     H95943   4.297   4.653  11.882 -0.1150 -0.8408 -2.9008
  727MOL0     H95944   4.421   4.938  11.888 -1.7845  0.0840 -1.8641
  727MOL0     H95945   4.396   4.825  12.031 -2.4303 -2.6873  0.5265
  727MOL0     H95946   4.862   4.256  11.277  0.5222 -1.7415 -0.4582
  727MOL0     H95947   5.070   4.340  11.174  0.4021 -1.9265 -0.9032
  727MOL0     H95948   5.567   4.150  11.118  0.9676 -0.4623  0.5021
  727MOL0     H95949   5.788   4.224  11.028 -0.7587  0.6536 -1.6084
  727MOL0     H95950   7.169   5.056  10.015  1.1288 -1.0271  2.8203
  727MOL0     H95951   7.422   5.046   9.966  0.4562 -0.1083  2.4306
  727MOL0     H95952   7.744   5.001   9.881  1.7204  0.9693 -1.0335
  727MOL0     H95953   7.946   5.064   9.849 -2.3866  1.9090 -2.8779
  727MOL0     H95954   8.262   4.751   9.701 -3.0263  2.2719 -2.0721
  727MOL0     H95955   8.211   4.746   9.865  1.8241 -0.5349 -0.5720
  727MOL0     H95956   8.374   4.909   9.943  1.1795  0.6942  0.0427
  727MOL0     H95957   8.457   4.784   9.839 -0.4364 -0.2284  0.5472
  727MOL0     H95958   8.387   5.061   9.742 -1.7542 -1.5808  0.9168
  727MOL0     H95959   8.459   4.931   9.640 -4.0646 -0.7731  0.0516
  727MOL0     H95960   8.590   5.033   9.886 -1.3036 -0.2011  0.1890
  727MOL0     H95961   8.666   4.930   9.758 -0.8872 -0.2810  1.7326
  727MOL0     H95962   8.699   5.328   9.622 -4.5960  1.3978  1.2770
  727MOL0     H95963   8.050   4.662   9.685  0.4463 -0.8275  2.2849
  727MOL0     H95964   7.826   4.607   9.726 -1.7756  1.2263 -1.3452
  728MOL0     O95965   9.676   8.623   9.234 -0.6603  0.0412  0.3637
  728MOL0     C95966   9.672   8.526   9.169 -0.6584  0.2413  0.3603
  728MOL0     O95967   9.560   8.476   9.109  0.2491  0.0932  0.9358
  728MOL0     C95968   9.441   8.491   9.177  0.5640 -0.1989  0.1743
  728MOL0     C95969   9.426   8.486   9.314  0.1878  0.3633 -0.1976
  728MOL0     C95970   9.296   8.490   9.368 -0.0753 -0.3939 -0.3887
  728MOL0     C95971   9.189   8.496   9.286 -0.4787  0.8696 -0.0248
  728MOL0     O95972   9.057   8.487   9.325  0.8514 -0.7124  0.3198
  728MOL0     C95973   9.033   8.403   9.438 -1.7143 -0.9317  0.0912
  728MOL0     C95974   8.889   8.366   9.453 -0.1228 -0.5231 -0.0310
  728MOL0     C95975   8.772   8.467   9.442 -0.1033 -0.2429  0.6508
  728MOL0     C95976   8.640   8.395   9.453 -0.4790  0.4870  0.0598
  728MOL0     C95977   8.512   8.474   9.455  0.5570 -0.5195  0.6001
  728MOL0     C95978   8.376   8.405   9.467  0.2993 -0.4892  0.2103
  728MOL0     C95979   8.262   8.496   9.439  0.4899 -0.0041  0.0465
  728MOL0     C95980   8.254   8.636   9.506  0.2845 -0.0424 -0.1256
  728MOL0     N95981   8.131   8.701   9.480  0.3795 -0.0500  0.3162
  728MOL0     C95982   8.003   8.658   9.463 -0.5351 -0.3214  0.1523
  728MOL0     C95983   7.934   8.762   9.414 -0.9237  0.5502  0.7377
  728MOL0     C95984   7.797   8.747   9.359  0.3263 -0.2398  0.5265
  728MOL0     C95985   7.775   8.834   9.233  0.4229  0.3681  0.0937
  728MOL0     C95986   7.643   8.823   9.166  0.7554 -0.2400 -0.7834
  728MOL0     C95987   7.623   8.927   9.061  0.0950 -0.4540  0.0846
  728MOL0     O95988   7.503   8.909   8.979 -0.8267  0.2046 -0.3861
  728MOL0     C95989   7.384   8.973   9.010  0.0639  0.3838  0.4953
  728MOL0     C95990   7.358   9.028   9.140  0.4187 -0.0420  0.4335
  728MOL0     C95991   7.236   9.088   9.161  0.7070  0.2706  0.4300
  728MOL0     C95992   7.131   9.068   9.069 -0.3412 -1.2127 -0.5257
  728MOL0     C95993   6.991   9.118   9.094  0.4908 -0.4385 -0.6922
  728MOL0     O95994   6.974   9.216   9.191 -0.6887 -0.5212 -0.3156
  728MOL0     C95995   6.843   9.239   9.233 -0.5573  0.2120 -0.0339
  728MOL0     C95996   6.792   9.154   9.330  0.0257 -0.6287  1.0478
  728MOL0     C95997   6.662   9.173   9.375 -0.7873  0.2953 -0.6730
  728MOL0     C95998   6.592   9.287   9.332  0.8294 -0.1191 -0.5794
  728MOL0     O95999   6.462   9.318   9.379 -0.1246 -0.5688 -0.9598
  728MOL0     C96000   6.433   9.277   9.507  0.0251  0.7272 -0.3612
  728MOL0     C96001   6.296   9.336   9.526  0.7680  0.0533  0.0086
  728MOL0     C96002   6.233   9.285   9.657 -0.1588  0.0186  0.3277
  728MOL0     C96003   6.093   9.328   9.683  0.7848 -0.0191  0.7753
  728MOL0     C96004   5.991   9.227   9.618  0.5058 -0.0375  0.3464
  728MOL0     C96005   5.854   9.294   9.615  0.3786  0.4408  0.4499
  728MOL0     C96006   5.757   9.211   9.525 -0.2465 -0.3260  0.2086
  728MOL0     C96007   5.614   9.258   9.534 -0.5596 -0.4542  0.1495
  728MOL0    Cl96008   5.505   9.163   9.422  0.1453 -0.3055  0.2381
  728MOL0     C96009   6.649   9.370   9.236 -0.6071 -0.6242  0.1086
  728MOL0     C96010   6.778   9.354   9.194 -0.7094 -0.3536  0.2205
  728MOL0     O96011   6.896   9.062   9.033  0.3087 -0.0029  0.0449
  728MOL0     C96012   7.162   9.006   8.947  0.5002 -0.2889 -1.0450
  728MOL0     C96013   7.287   8.965   8.913  0.0676  0.1508 -0.1487
  728MOL0     N96014   8.019   8.867   9.397  0.1289  0.0143 -0.4656
  728MOL0     N96015   8.131   8.832   9.446 -0.4559  0.9485 -0.1055
  728MOL0     C96016   9.203   8.511   9.149 -0.4068  0.0116  1.6097
  728MOL0     C96017   9.327   8.502   9.095  0.1221 -0.0587  0.0748
  728MOL0     C96018   9.804   8.461   9.144 -0.2332  0.7785  0.9073
  728MOL0     C96019   9.929   8.514   9.174 -0.4547  0.6700 -0.4258
  728MOL0     C96020  10.039   8.439   9.141 -0.3689  0.5267 -0.3397
  728MOL0     C96021  10.039   8.316   9.066  0.2640 -0.5406  0.2696
  728MOL0     O96022  10.163   8.267   9.031  0.5819 -0.5970  0.5321
  728MOL0     C96023  10.179   8.128   9.065 -0.7197 -0.1098  0.0531
  728MOL0     C96024  10.292   8.059   8.978 -0.1555  0.3800  0.2634
  728MOL0     C96025  10.420   8.129   8.971 -0.7997  0.2042 -0.3346
  728MOL0     C96026  10.519   8.066   8.869  0.7923  0.0716  0.0730
  728MOL0     C96027  10.504   8.139   8.740 -0.1251 -0.2546  0.1520
  728MOL0     C96028  10.473   8.191   8.632 -0.4641  0.1032 -0.2634
  728MOL0     C96029   9.916   8.262   9.038 -0.3403  0.8741 -0.3224
  728MOL0     C96030   9.801   8.335   9.076 -0.2865 -0.4461  0.0947
  728MOL0     H96031   9.513   8.468   9.377  0.6931  0.3498 -0.8753
  728MOL0     H96032   9.275   8.483   9.475  0.3686 -2.1120 -0.3852
  728MOL0     H96033   9.061   8.450   9.532  2.2363 -1.9712 -0.3992
  728MOL0     H96034   9.092   8.311   9.432  0.4065  0.3065  0.9005
  728MOL0     H96035   8.895   8.315   9.549  2.7820 -1.0978 -0.4283
  728MOL0     H96036   8.877   8.288   9.378 -1.9002 -1.7564  1.4522
  728MOL0     H96037   8.780   8.509   9.341  4.0201 -2.4644 -0.1630
  728MOL0     H96038   8.785   8.556   9.504 -0.7453  0.9295 -0.8215
  728MOL0     H96039   8.631   8.323   9.372 -1.0253 -0.4862  0.9720
  728MOL0     H96040   8.638   8.340   9.547 -0.6900 -0.0967 -0.2853
  728MOL0     H96041   8.500   8.522   9.357 -0.7253 -1.1683  0.4194
  728MOL0     H96042   8.525   8.550   9.533  0.8919 -1.4028  1.4151
  728MOL0     H96043   8.354   8.363   9.566  1.3837 -0.7839  0.3427
  728MOL0     H96044   8.359   8.322   9.399 -1.5675  0.0226  0.0071
  728MOL0     H96045   8.243   8.515   9.333 -0.4155 -0.1101  0.1816
  728MOL0     H96046   8.168   8.445   9.462 -1.3696  2.4345 -1.5967
  728MOL0     H96047   8.329   8.698   9.458 -0.6841 -0.8023 -2.7951
  728MOL0     H96048   8.275   8.629   9.613  1.6380  0.2052 -0.3589
  728MOL0     H96049   7.959   8.559   9.473 -2.6068  0.3222 -1.9075
  728MOL0     H96050   7.720   8.771   9.433  0.6327  1.4237  0.3504
  728MOL0     H96051   7.783   8.644   9.326  1.6135  0.5098 -2.7716
  728MOL0     H96052   7.850   8.803   9.161  0.3227  3.2668 -1.4158
  728MOL0     H96053   7.788   8.940   9.258  1.4950  0.1895  0.3150
  728MOL0     H96054   7.639   8.723   9.122  1.3710 -1.5036  1.8788
  728MOL0     H96055   7.565   8.836   9.242 -1.0234  3.1409 -2.9236
  728MOL0     H96056   7.706   8.921   8.990  0.0875 -2.2702  0.1657
  728MOL0     H96057   7.623   9.029   9.099 -1.9321 -0.6396  0.7213
  728MOL0     H96058   7.434   9.024   9.218 -1.2511 -1.1680  2.1070
  728MOL0     H96059   7.228   9.122   9.264  1.5464 -2.8858  1.6492
  728MOL0     H96060   6.862   9.081   9.369  2.3777  1.0719  0.1944
  728MOL0     H96061   6.625   9.108   9.454 -1.1409  1.0055 -0.2471
  728MOL0     H96062   6.510   9.314   9.576  0.1876 -0.6219  0.2125
  728MOL0     H96063   6.429   9.168   9.519  0.8961  0.8465  1.3683
  728MOL0     H96064   6.231   9.308   9.442 -0.8756  1.8066  0.6022
  728MOL0     H96065   6.303   9.444   9.544  0.1088  0.0582  0.2924
  728MOL0     H96066   6.300   9.301   9.742  0.9561 -2.8976  0.1132
  728MOL0     H96067   6.236   9.176   9.654  2.3421  0.0516 -2.1219
  728MOL0     H96068   6.076   9.317   9.791  1.8208 -3.4820  0.7043
  728MOL0     H96069   6.059   9.427   9.651 -2.1551 -1.0969  0.2803
  728MOL0     H96070   5.995   9.142   9.687 -2.2546 -0.1963  0.4253
  728MOL0     H96071   6.032   9.192   9.523  1.0592 -0.8233  0.8652
  728MOL0     H96072   5.863   9.388   9.559  1.9062  0.4666  0.6987
  728MOL0     H96073   5.816   9.318   9.715 -2.2555  2.5237 -0.8991
  728MOL0     H96074   5.781   9.216   9.419  0.7082 -1.0569  0.3808
  728MOL0     H96075   5.763   9.104   9.544 -0.4581 -0.5447 -0.9146
  728MOL0     H96076   5.619   9.365   9.513  0.0299 -0.9624 -2.6673
  728MOL0     H96077   5.578   9.249   9.637  0.9353 -1.4723  0.6246
  728MOL0     H96078   6.602   9.458   9.194 -0.8904 -0.6444  0.3782
  728MOL0     H96079   6.829   9.419   9.122 -2.2792  0.1020 -0.5193
  728MOL0     H96080   7.078   8.994   8.881 -1.5694 -1.5540  1.6319
  728MOL0     H96081   7.317   8.904   8.829  0.2898 -0.9647  0.7138
  728MOL0     H96082   9.114   8.519   9.087 -0.4660 -0.7002  1.5971
  728MOL0     H96083   9.333   8.492   8.987 -0.3077 -2.4646  0.2184
  728MOL0     H96084   9.940   8.607   9.229  2.1655 -1.5912  3.3160
  728MOL0     H96085  10.135   8.475   9.176 -0.3132 -1.4996  1.8543
  728MOL0     H96086  10.085   8.074   9.048  0.1135 -1.1466 -1.4902
  728MOL0     H96087  10.203   8.124   9.172 -0.8105  1.2781  0.1435
  728MOL0     H96088  10.300   7.955   9.010  2.0131 -0.1121 -1.6589
  728MOL0     H96089  10.255   8.056   8.875 -2.1515 -0.3585  0.9509
  728MOL0     H96090  10.460   8.108   9.071  0.7898 -0.6313 -1.0934
  728MOL0     H96091  10.412   8.238   8.961  1.1013  0.4533  0.3022
  728MOL0     H96092  10.623   8.068   8.902  0.8119 -0.9891  0.1089
  728MOL0     H96093  10.490   7.961   8.865 -2.9088  0.6109  4.3162
  728MOL0     H96094  10.451   8.230   8.534 -1.1675 -1.5449 -0.8005
  728MOL0     H96095   9.889   8.161   9.007  0.4229 -0.7659  3.7780
  728MOL0     H96096   9.708   8.283   9.055  1.1825 -3.7392  1.0750
  729MOL0     O96097   6.295   5.589   6.550 -1.1635  0.3829 -0.5598
  729MOL0     C96098   6.334   5.525   6.650  0.9695  0.3376 -0.5372
  729MOL0     O96099   6.270   5.410   6.710 -0.1380 -0.7582  0.7640
  729MOL0     C96100   6.169   5.351   6.643 -0.1583  0.0640  0.4794
  729MOL0     C96101   6.186   5.247   6.542 -0.1277 -1.3957  0.0971
  729MOL0     C96102   6.073   5.198   6.474 -0.1127 -0.0511 -0.4797
  729MOL0     C96103   5.941   5.240   6.507 -1.0280  1.1100 -0.2711
  729MOL0     O96104   5.824   5.197   6.454 -0.1314 -0.0332 -0.6430
  729MOL0     C96105   5.832   5.152   6.319 -0.1975 -0.0947  0.4748
  729MOL0     C96106   5.688   5.135   6.259 -0.2873  0.4064 -0.6550
  729MOL0     C96107   5.618   5.021   6.332 -0.2902  1.0572 -0.2231
  729MOL0     C96108   5.482   4.971   6.274  0.0682  0.3609  0.5340
  729MOL0     C96109   5.413   4.869   6.356  0.0896  1.1021 -0.5876
  729MOL0     C96110   5.409   4.886   6.507 -1.0792  0.5522 -0.1799
  729MOL0     C96111   5.311   4.786   6.571 -0.4533  0.0846  0.3035
  729MOL0     C96112   5.336   4.771   6.725  0.0888 -0.8411  0.4041
  729MOL0     N96113   5.272   4.873   6.803  0.2521  0.3958  0.0659
  729MOL0     C96114   5.142   4.905   6.813  0.0772 -0.1279 -0.6754
  729MOL0     C96115   5.117   4.989   6.916 -1.0596  0.3886 -0.5030
  729MOL0     C96116   4.995   5.055   6.966  0.1497  1.0013  0.7243
  729MOL0     C96117   4.891   4.944   6.984 -0.4111 -0.1987  0.0356
  729MOL0     C96118   4.775   4.981   7.077  1.0910 -0.2756  0.1093
  729MOL0     C96119   4.669   5.079   7.009 -0.1765 -0.4039 -0.0638
  729MOL0     O96120   4.565   5.113   7.096 -0.5848 -0.8929 -0.1758
  729MOL0     C96121   4.457   5.182   7.046 -0.1067  0.1210  0.8093
  729MOL0     C96122   4.328   5.151   7.096 -0.2296 -0.7233  0.0025
  729MOL0     C96123   4.213   5.208   7.041 -0.2619 -1.1179 -0.3072
  729MOL0     C96124   4.222   5.311   6.942 -0.3567 -0.6924 -0.5277
  729MOL0     C96125   4.102   5.386   6.896  0.3452  0.3412 -0.5026
  729MOL0     O96126   3.987   5.356   6.962  1.1110  0.2716  0.3640
  729MOL0     C96127   3.865   5.421   6.940 -0.7874  0.1886  0.0726
  729MOL0     C96128   3.790   5.462   7.054  0.0742  0.3419  0.0359
  729MOL0     C96129   3.672   5.534   7.032  0.5760  0.1984  0.5611
  729MOL0     C96130   3.621   5.565   6.899 -0.0631 -0.0311 -1.3539
  729MOL0     O96131   3.498   5.632   6.877 -0.1609 -0.9704  0.2150
  729MOL0     C96132   3.421   5.681   6.986 -0.2729  0.4239 -0.4471
  729MOL0     C96133   3.314   5.776   6.928 -0.1826 -0.3645 -0.1093
  729MOL0     C96134   3.368   5.883   6.831 -0.5989  0.7383  0.2453
  729MOL0     C96135   3.265   5.981   6.787  0.0339 -0.4699 -0.4070
  729MOL0     C96136   3.314   6.126   6.771  0.1086 -0.0648 -0.0452
  729MOL0     C96137   3.440   6.128   6.677  0.3927  0.7273 -0.0380
  729MOL0     C96138   3.477   6.280   6.678  0.2399  0.8165 -0.5114
  729MOL0     C96139   3.604   6.321   6.587  0.2360 -0.1111 -0.2171
  729MOL0    Cl96140   3.571   6.263   6.423  0.2544 -0.4117  0.0943
  729MOL0     C96141   3.700   5.526   6.788  0.0389  0.2117  0.1402
  729MOL0     C96142   3.822   5.456   6.811  0.0113  0.5589  1.0040
  729MOL0     O96143   4.116   5.471   6.806 -0.2525  0.0385 -0.3510
  729MOL0     C96144   4.356   5.344   6.899  0.0360 -0.1332 -0.9027
  729MOL0     C96145   4.462   5.271   6.939  0.2468 -0.0243 -0.4416
  729MOL0     N96146   5.239   4.996   6.976  0.4333 -0.1185 -0.2494
  729MOL0     N96147   5.331   4.931   6.912 -0.2210  0.2897  0.0224
  729MOL0     C96148   5.933   5.335   6.604  1.2352  0.1999 -0.5242
  729MOL0     C96149   6.039   5.395   6.669 -0.6855 -0.1429  1.4733
  729MOL0     C96150   6.470   5.552   6.708  0.3307 -0.8622  1.1160
  729MOL0     C96151   6.541   5.661   6.656 -0.5424 -0.6917 -0.1567
  729MOL0     C96152   6.665   5.692   6.710 -0.4447 -0.2920  0.9856
  729MOL0     C96153   6.734   5.623   6.802 -0.1092  0.2692 -0.3126
  729MOL0     O96154   6.849   5.680   6.853 -0.1520  0.0631  0.3844
  729MOL0     C96155   6.932   5.602   6.945 -0.5878 -0.4958  0.7290
  729MOL0     C96156   7.074   5.665   6.945  0.7601 -0.4373  0.8122
  729MOL0     C96157   7.132   5.703   6.808  0.1638  0.3087  0.9686
  729MOL0     C96158   7.231   5.606   6.752 -0.1287 -0.8003  0.2346
  729MOL0     C96159   7.364   5.625   6.801 -0.7225 -0.6359 -1.1181
  729MOL0     C96160   7.485   5.614   6.803  0.2340  0.3616  0.0613
  729MOL0     C96161   6.667   5.507   6.855 -0.2458 -0.1825  0.8472
  729MOL0     C96162   6.532   5.480   6.815 -0.2706  0.3051 -0.1413
  729MOL0     H96163   6.286   5.208   6.528 -0.6343 -2.2352 -1.4363
  729MOL0     H96164   6.089   5.135   6.387 -0.3087  2.0437 -2.1261
  729MOL0     H96165   5.895   5.063   6.308  0.5798  0.6962 -2.5477
  729MOL0     H96166   5.885   5.229   6.262  2.3789 -1.8187  0.3557
  729MOL0     H96167   5.691   5.105   6.153  1.0959 -2.0439 -0.0135
  729MOL0     H96168   5.633   5.228   6.274 -1.7630 -0.3771 -0.9089
  729MOL0     H96169   5.597   5.058   6.433  2.5424  0.8280  0.5456
  729MOL0     H96170   5.685   4.936   6.349 -0.8788  0.6374  0.0150
  729MOL0     H96171   5.415   5.058   6.273  0.9610  1.0666  0.3811
  729MOL0     H96172   5.502   4.942   6.170  1.3330  2.0058  0.2625
  729MOL0     H96173   5.460   4.771   6.342 -3.3210 -0.5540 -1.4417
  729MOL0     H96174   5.316   4.860   6.308  1.7538  1.0178 -4.2875
  729MOL0     H96175   5.397   4.994   6.524  0.6624  0.5346  1.3736
  729MOL0     H96176   5.506   4.857   6.546 -1.1772  0.1041 -0.2646
  729MOL0     H96177   5.204   4.789   6.547 -0.7319 -3.2462  0.6952
  729MOL0     H96178   5.340   4.687   6.536 -1.8893 -0.5341  0.7939
  729MOL0     H96179   5.445   4.773   6.733  0.6190  0.4934 -4.0437
  729MOL0     H96180   5.312   4.668   6.754  1.3123 -1.4501 -0.6095
  729MOL0     H96181   5.059   4.859   6.760 -2.1123 -0.0370  2.3974
  729MOL0     H96182   4.965   5.135   6.898  0.7683  1.7307  1.2859
  729MOL0     H96183   5.032   5.094   7.062  3.5585 -3.7863  1.7871
  729MOL0     H96184   4.932   4.851   7.026 -1.9266 -0.9330 -0.0651
  729MOL0     H96185   4.850   4.913   6.888  1.8980 -0.1599 -1.0469
  729MOL0     H96186   4.738   4.884   7.112  3.3014 -0.7631  1.2612
  729MOL0     H96187   4.808   5.035   7.166 -1.7823 -0.1938  1.2311
  729MOL0     H96188   4.638   5.015   6.926  1.5856 -1.7529  0.2762
  729MOL0     H96189   4.729   5.168   6.988 -0.3727 -0.2071  0.1900
  729MOL0     H96190   4.316   5.078   7.175  0.1616  0.3403  1.0614
  729MOL0     H96191   4.122   5.166   7.082 -0.1774 -2.4722 -1.4494
  729MOL0     H96192   3.818   5.443   7.158  1.9990  3.2224  0.1391
  729MOL0     H96193   3.609   5.576   7.110 -0.9147  0.5437 -0.7676
  729MOL0     H96194   3.490   5.736   7.050  1.7008 -0.6488 -1.5626
  729MOL0     H96195   3.368   5.600   7.036  0.3681  1.6934  2.4771
  729MOL0     H96196   3.263   5.824   7.012  2.3701 -0.3285  1.5379
  729MOL0     H96197   3.237   5.720   6.874 -2.1571  3.0599 -1.1375
  729MOL0     H96198   3.423   5.845   6.744  0.1358 -2.5895  1.9772
  729MOL0     H96199   3.454   5.928   6.882  1.5254 -1.2458 -1.3676
  729MOL0     H96200   3.207   5.951   6.699  1.0602  1.7404 -1.9435
  729MOL0     H96201   3.198   5.994   6.872  1.6613  0.4771  0.7875
  729MOL0     H96202   3.348   6.169   6.866 -0.2309 -0.1669  0.1236
  729MOL0     H96203   3.231   6.179   6.724 -0.9667 -1.3206  0.3794
  729MOL0     H96204   3.424   6.090   6.576  1.2778  0.3989 -0.0604
  729MOL0     H96205   3.526   6.082   6.726  0.3800  0.4014 -0.3251
  729MOL0     H96206   3.386   6.333   6.647 -0.6342 -0.0381  0.5354
  729MOL0     H96207   3.502   6.318   6.777 -0.8474  4.9872 -1.6515
  729MOL0     H96208   3.698   6.279   6.625 -1.1985 -1.4872  2.0348
  729MOL0     H96209   3.610   6.430   6.594 -1.1671 -0.0617  0.6306
  729MOL0     H96210   3.646   5.538   6.695  2.9109 -1.0094 -1.8106
  729MOL0     H96211   3.894   5.428   6.735  1.1546  2.5373  1.2842
  729MOL0     H96212   4.381   5.413   6.819  1.4990  1.4976  0.8657
  729MOL0     H96213   4.563   5.293   6.907  1.2696 -0.3070  2.2950
  729MOL0     H96214   5.833   5.368   6.632  1.7698  0.7528  0.8570
  729MOL0     H96215   6.029   5.485   6.728 -1.2607  0.6438  0.2229
  729MOL0     H96216   6.520   5.735   6.580 -2.9531 -1.9406 -0.8011
  729MOL0     H96217   6.717   5.776   6.666 -0.0721 -0.5011  1.0233
  729MOL0     H96218   6.938   5.496   6.919  1.3642 -0.3009  0.2593
  729MOL0     H96219   6.890   5.620   7.045 -0.5188  1.8220  0.3914
  729MOL0     H96220   7.052   5.755   7.003  0.5810  2.2502 -3.0172
  729MOL0     H96221   7.140   5.598   7.000  2.0216 -1.1640 -1.4669
  729MOL0     H96222   7.181   5.800   6.822  0.8142 -0.1396  1.9126
  729MOL0     H96223   7.052   5.712   6.734  1.0343 -0.8489 -0.1678
  729MOL0     H96224   7.201   5.501   6.759 -1.9741 -0.2501  1.5560
  729MOL0     H96225   7.229   5.636   6.647  2.6933  3.0067  1.0625
  729MOL0     H96226   7.592   5.608   6.805  0.3500  1.8707  2.0920
  729MOL0     H96227   6.717   5.440   6.924  0.9181 -1.3059 -1.0143
  729MOL0     H96228   6.479   5.411   6.880  1.1936 -0.4434  0.3170
  730MOL0     O96229   3.061   7.698   6.166 -0.3268  0.2973 -0.4349
  730MOL0     C96230   3.107   7.798   6.104 -0.8263 -0.0773  0.3580
  730MOL0     O96231   3.029   7.885   6.025 -0.8164  0.0626  0.4194
  730MOL0     C96232   2.895   7.861   6.041  0.7414 -0.2386  0.3508
  730MOL0     C96233   2.826   7.752   5.989 -0.4247  0.0248  0.0840
  730MOL0     C96234   2.691   7.738   6.014 -0.0350  0.3320 -0.7796
  730MOL0     C96235   2.614   7.841   6.074  0.1657  0.1395 -0.4563
  730MOL0     O96236   2.477   7.832   6.100 -0.3199  0.1524  0.9550
  730MOL0     C96237   2.401   7.818   5.978  0.1397 -0.2798  0.3694
  730MOL0     C96238   2.255   7.809   6.009  0.5391  0.0122 -0.2444
  730MOL0     C96239   2.187   7.932   6.071  0.2224 -0.8355 -0.4213
  730MOL0     C96240   2.058   7.897   6.147 -0.4093 -0.5131 -0.2995
  730MOL0     C96241   2.012   8.012   6.243 -0.1955  0.0338 -0.5953
  730MOL0     C96242   2.040   8.161   6.196 -0.9745  0.5167  0.1985
  730MOL0     C96243   1.989   8.252   6.306 -0.1974 -0.1551 -0.8655
  730MOL0     C96244   2.059   8.387   6.305  0.0118 -1.1489 -0.2845
  730MOL0     N96245   1.970   8.498   6.327  0.2974  0.3664  0.5946
  730MOL0     C96246   1.961   8.585   6.436  0.5288 -0.3693  0.4783
  730MOL0     C96247   1.857   8.662   6.412  0.4658  0.4160  0.3625
  730MOL0     C96248   1.786   8.768   6.498  0.0747 -0.1990  0.4261
  730MOL0     C96249   1.810   8.909   6.451 -0.4948  0.2601 -0.4260
  730MOL0     C96250   1.959   8.962   6.419  0.2857  0.2611 -0.9740
  730MOL0     C96251   2.061   8.938   6.534 -0.5315  0.0459 -0.1273
  730MOL0     O96252   2.173   9.026   6.531  0.7977 -0.5614 -0.2301
  730MOL0     C96253   2.288   8.988   6.593 -0.7227 -0.3664  0.2905
  730MOL0     C96254   2.392   9.071   6.577 -0.2021 -0.2725 -0.6625
  730MOL0     C96255   2.521   9.045   6.626 -0.0700  0.4096  0.1668
  730MOL0     C96256   2.554   8.940   6.701  0.2895 -0.2522 -0.2202
  730MOL0     C96257   2.689   8.936   6.751  0.0934  0.1145  0.2239
  730MOL0     O96258   2.697   8.837   6.842  0.3689  0.4156  0.0984
  730MOL0     C96259   2.825   8.816   6.887  0.0744  0.1146  0.3685
  730MOL0     C96260   2.869   8.862   7.013  0.1347 -0.9214  0.6126
  730MOL0     C96261   3.009   8.841   7.049 -0.0121 -0.0040 -0.1910
  730MOL0     C96262   3.098   8.782   6.965  0.1183  0.0664 -1.0442
  730MOL0     O96263   3.230   8.751   7.010  0.6640  0.4716  0.2287
  730MOL0     C96264   3.303   8.862   7.058 -0.1187  0.0942 -0.5623
  730MOL0     C96265   3.453   8.825   7.060  0.8285  0.1293  0.1225
  730MOL0     C96266   3.549   8.931   7.124 -0.1271  0.1722  0.5613
  730MOL0     C96267   3.561   8.902   7.270  0.0379 -0.5748  0.1190
  730MOL0     C96268   3.658   9.006   7.337  0.2395 -0.6479 -0.2723
  730MOL0     C96269   3.809   8.960   7.304 -0.4328 -0.3080  0.4550
  730MOL0     C96270   3.902   9.081   7.311  0.2716  0.0162 -0.5504
  730MOL0     C96271   4.050   9.046   7.277  0.6814  0.3322  0.1063
  730MOL0    Cl96272   4.108   8.894   7.359  0.1313  0.3740 -0.2048
  730MOL0     C96273   3.053   8.739   6.839  0.1357  0.0125 -0.3842
  730MOL0     C96274   2.921   8.752   6.802 -0.5714  0.2478  0.6589
  730MOL0     O96275   2.772   9.016   6.716 -0.0293 -0.6788  0.1460
  730MOL0     C96276   2.446   8.862   6.740  0.5947  0.5758  0.1939
  730MOL0     C96277   2.314   8.887   6.695 -0.2261  0.2941  0.4643
  730MOL0     N96278   1.800   8.626   6.289  0.3050  0.5980 -0.1217
  730MOL0     N96279   1.869   8.525   6.244  0.4307 -0.0428 -0.6784
  730MOL0     C96280   2.690   7.949   6.136  0.1599 -0.4741 -0.1602
  730MOL0     C96281   2.829   7.957   6.117  0.1463 -0.6851  0.5678
  730MOL0     C96282   3.250   7.824   6.111 -0.4637  0.1330 -0.5238
  730MOL0     C96283   3.335   7.713   6.114  0.2861  0.2694  1.0010
  730MOL0     C96284   3.477   7.730   6.100  1.0452 -0.1194  0.8997
  730MOL0     C96285   3.530   7.862   6.085  0.2853 -1.5334  0.9838
  730MOL0     O96286   3.665   7.890   6.063 -0.7015  0.2688  0.2310
  730MOL0     C96287   3.757   7.787   6.115 -0.7963 -0.6367  0.3354
  730MOL0     C96288   3.894   7.861   6.117  0.4269 -0.8898  1.1316
  730MOL0     C96289   3.969   7.818   6.239 -0.8310 -0.8602 -0.0015
  730MOL0     C96290   4.115   7.786   6.205  0.7476  0.4187  0.3750
  730MOL0     C96291   4.214   7.784   6.315 -0.6606 -0.0753  0.1587
  730MOL0     C96292   4.292   7.781   6.411 -1.1093 -0.3844 -0.4493
  730MOL0     C96293   3.441   7.961   6.079 -0.7084 -0.2136  0.6542
  730MOL0     C96294   3.302   7.951   6.092 -1.0097  0.3080  0.3327
  730MOL0     H96295   2.876   7.679   5.927 -1.2164 -2.6647  2.3914
  730MOL0     H96296   2.649   7.643   5.982  1.5043 -0.6524 -0.0500
  730MOL0     H96297   2.428   7.730   5.918 -1.7352 -0.3571 -0.4114
  730MOL0     H96298   2.415   7.911   5.922 -0.5725 -0.6659 -0.4773
  730MOL0     H96299   2.237   7.726   6.078 -0.0594  1.7861  1.8578
  730MOL0     H96300   2.209   7.791   5.912  0.9755 -2.7442 -0.0063
  730MOL0     H96301   2.164   8.018   6.008  1.4918  2.1266  2.8087
  730MOL0     H96302   2.255   7.981   6.142  1.0504 -0.8583 -1.1877
  730MOL0     H96303   1.987   7.877   6.066  0.1988  0.0100 -0.9773
  730MOL0     H96304   2.061   7.807   6.209 -2.4897  0.4935  1.3937
  730MOL0     H96305   2.071   8.001   6.335  1.4709  4.1878 -0.9622
  730MOL0     H96306   1.904   8.001   6.258 -0.5423  2.8405 -0.6749
  730MOL0     H96307   1.999   8.190   6.099 -0.6323 -5.0317 -2.0229
  730MOL0     H96308   2.148   8.181   6.199 -0.9485  0.3033  1.0944
  730MOL0     H96309   1.883   8.271   6.288 -0.4467  0.4804  1.0219
  730MOL0     H96310   2.011   8.197   6.399  1.8174 -0.1502 -1.3018
  730MOL0     H96311   2.106   8.403   6.207  0.2265  0.8860  0.1085
  730MOL0     H96312   2.141   8.384   6.377  0.2252 -1.7580 -0.5443
  730MOL0     H96313   2.030   8.569   6.518 -0.1843 -2.8190  0.6975
  730MOL0     H96314   1.821   8.760   6.601  1.4409 -0.0713  0.0012
  730MOL0     H96315   1.679   8.748   6.491 -0.2137  0.6151  2.1649
  730MOL0     H96316   1.761   8.977   6.521 -1.5919 -1.7051  0.8166
  730MOL0     H96317   1.761   8.909   6.353  0.8100 -0.6338 -1.1118
  730MOL0     H96318   2.001   8.922   6.326 -0.7485 -0.4280 -1.1726
  730MOL0     H96319   1.948   9.070   6.409  0.4429  0.1589 -2.6573
  730MOL0     H96320   2.096   8.835   6.518  0.6551  0.6415 -1.5765
  730MOL0     H96321   2.008   8.951   6.629 -1.6669 -1.0986 -0.5626
  730MOL0     H96322   2.374   9.154   6.509 -1.3709 -0.1665 -0.2446
  730MOL0     H96323   2.590   9.120   6.589  2.1395 -0.9984  1.2498
  730MOL0     H96324   2.806   8.912   7.087  0.1797  0.7956 -0.4598
  730MOL0     H96325   3.055   8.864   7.144  0.1380 -4.2059  0.9577
  730MOL0     H96326   3.263   8.891   7.156 -0.4041 -3.3241  0.4558
  730MOL0     H96327   3.292   8.949   6.992  3.7101  1.9176  0.8588
  730MOL0     H96328   3.482   8.790   6.960  0.9670  0.5994 -0.0042
  730MOL0     H96329   3.457   8.728   7.109  1.1389 -1.3272 -2.5954
  730MOL0     H96330   3.512   9.031   7.101 -1.2298 -0.2821  0.2516
  730MOL0     H96331   3.648   8.909   7.082  0.8413  1.9911  1.7931
  730MOL0     H96332   3.462   8.910   7.316 -0.1690 -2.0754 -0.0107
  730MOL0     H96333   3.597   8.801   7.289  2.8955  0.3688  0.2236
  730MOL0     H96334   3.664   9.009   7.446 -0.5384  3.0409 -0.2170
  730MOL0     H96335   3.643   9.111   7.311 -0.2540 -0.5704  0.3055
  730MOL0     H96336   3.823   8.934   7.199  1.5276  2.9002 -0.1976
  730MOL0     H96337   3.838   8.881   7.374  1.3884 -0.8139 -0.8125
  730MOL0     H96338   3.857   9.159   7.248 -0.3608 -1.1654 -1.6051
  730MOL0     H96339   3.900   9.102   7.418  2.1851  0.8171 -0.6305
  730MOL0     H96340   4.114   9.128   7.311  1.9551 -1.2299  1.6238
  730MOL0     H96341   4.050   9.034   7.168 -1.1728  1.4303 -0.0706
  730MOL0     H96342   3.122   8.694   6.769 -0.4725  0.3199 -1.1922
  730MOL0     H96343   2.905   8.708   6.704  1.5798  1.3485 -0.2576
  730MOL0     H96344   2.454   8.787   6.818 -0.3191  0.8067  0.5261
  730MOL0     H96345   2.233   8.823   6.728 -1.0505  1.8959  1.7377
  730MOL0     H96346   2.640   8.032   6.186 -1.0383  1.0458 -3.5406
  730MOL0     H96347   2.882   8.040   6.162 -1.8032  0.0944  1.5658
  730MOL0     H96348   3.293   7.613   6.126 -4.9381  2.0096 -0.1809
  730MOL0     H96349   3.536   7.639   6.096  0.5767 -0.4065  0.2467
  730MOL0     H96350   3.768   7.702   6.047  2.9170  0.1661 -0.2639
  730MOL0     H96351   3.720   7.758   6.213 -1.2640 -0.3056  0.2640
  730MOL0     H96352   3.949   7.842   6.025 -0.5420 -0.9334  0.5424
  730MOL0     H96353   3.876   7.968   6.125 -0.4214 -0.7842 -1.2347
  730MOL0     H96354   3.917   7.735   6.288 -0.6820 -0.4457  0.8800
  730MOL0     H96355   3.989   7.897   6.312 -0.1118 -0.2875 -0.7994
  730MOL0     H96356   4.098   7.684   6.168 -3.3071  0.3475  1.9470
  730MOL0     H96357   4.153   7.846   6.122  1.1068 -1.7496 -1.0977
  730MOL0     H96358   4.358   7.782   6.496 -0.3707 -1.3534 -0.9871
  730MOL0     H96359   3.481   8.060   6.057 -0.7859 -0.6947 -2.0281
  730MOL0     H96360   3.230   8.031   6.083 -3.3570 -1.7539 -0.6495
  731MOL0     O96361   7.419   8.828   0.874  0.0088 -0.1341  0.7020
  731MOL0     C96362   7.510   8.909   0.901  0.3875  0.0898 -0.4896
  731MOL0     O96363   7.498   9.022   0.974 -0.2542 -0.1936 -0.2792
  731MOL0     C96364   7.369   9.025   1.023 -0.3399 -0.0848 -1.3460
  731MOL0     C96365   7.353   8.958   1.151  0.1414 -0.8033  0.1147
  731MOL0     C96366   7.234   8.957   1.217  0.3844  0.4527  0.1817
  731MOL0     C96367   7.133   9.036   1.160  1.3988  0.3237  0.9204
  731MOL0     O96368   7.006   9.048   1.208 -0.2426  0.1477 -0.5728
  731MOL0     C96369   7.011   9.097   1.346 -0.1678  0.6235 -0.7575
  731MOL0     C96370   6.867   9.144   1.378  0.6990  0.0495 -0.2710
  731MOL0     C96371   6.765   9.024   1.376 -1.0934 -0.4017  0.1239
  731MOL0     C96372   6.620   9.081   1.359  0.9297 -0.5570 -0.2171
  731MOL0     C96373   6.527   8.960   1.337 -0.1339 -0.5319 -0.9760
  731MOL0     C96374   6.379   8.999   1.341 -0.9639 -0.1972  0.4304
  731MOL0     C96375   6.281   8.883   1.368  0.0185 -0.1212 -0.1402
  731MOL0     C96376   6.263   8.771   1.260 -0.1805  0.3610  0.1338
  731MOL0     N96377   6.199   8.830   1.140  0.6017  0.8037  0.9977
  731MOL0     C96378   6.260   8.889   1.036 -0.0639 -0.2341  0.2787
  731MOL0     C96379   6.165   8.944   0.963  0.0900 -0.8702  0.5828
  731MOL0     C96380   6.193   9.031   0.843  0.9048  0.1720  0.9856
  731MOL0     C96381   6.077   9.130   0.798  0.2213 -0.2642 -0.2329
  731MOL0     C96382   6.142   9.229   0.702  0.8994  0.4638  0.1080
  731MOL0     C96383   6.042   9.341   0.673 -0.3183  0.2434 -0.1100
  731MOL0     O96384   5.907   9.293   0.647 -0.3817  0.1124 -0.2298
  731MOL0     C96385   5.885   9.225   0.532  1.0394  0.3729  0.3533
  731MOL0     C96386   5.752   9.185   0.512 -0.2549 -0.3158  0.0944
  731MOL0     C96387   5.705   9.116   0.397  0.5118 -0.0378 -0.2907
  731MOL0     C96388   5.786   9.101   0.285 -0.3298  0.4730 -0.6010
  731MOL0     C96389   5.737   9.038   0.166 -1.0703 -0.3130  0.0492
  731MOL0     O96390   5.603   9.037   0.142 -0.2142  0.3595  0.4610
  731MOL0     C96391   5.552   8.950   0.045 -0.5889 -0.5784 -0.0954
  731MOL0     C96392   5.589   8.971  -0.088 -0.2684 -0.1393 -0.6599
  731MOL0     C96393   5.530   8.897  -0.190  0.9552 -0.3226  0.4781
  731MOL0     C96394   5.433   8.801  -0.162  0.4100  0.6920 -0.5037
  731MOL0     O96395   5.365   8.734  -0.257  0.0836 -0.1448 -0.1380
  731MOL0     C96396   5.436   8.649  -0.350  0.5561 -0.1120  0.1093
  731MOL0     C96397   5.443   8.718  -0.494 -0.4923 -0.2010 -0.1576
  731MOL0     C96398   5.331   8.810  -0.526  0.3659  0.1008 -0.5874
  731MOL0     C96399   5.190   8.744  -0.507  0.1539  0.3213  0.4158
  731MOL0     C96400   5.084   8.844  -0.557  0.0740 -0.2260  0.4456
  731MOL0     C96401   4.946   8.811  -0.492 -0.6417 -0.0094 -0.0303
  731MOL0     C96402   4.842   8.919  -0.514 -0.0878 -0.0312 -0.3656
  731MOL0     C96403   4.735   8.930  -0.413 -0.0686  0.6186 -0.4652
  731MOL0    Cl96404   4.693   8.756  -0.365  0.6122  0.2868  0.0086
  731MOL0     C96405   5.398   8.778  -0.026 -0.2640  0.1176 -1.0868
  731MOL0     C96406   5.451   8.853   0.078 -0.0526 -0.0664  0.8371
  731MOL0     O96407   5.829   9.009   0.086  0.6822 -0.1393 -0.0412
  731MOL0     C96408   5.917   9.146   0.302 -0.5422  0.0214  0.0303
  731MOL0     C96409   5.966   9.217   0.415  0.6245  0.4092 -0.3994
  731MOL0     N96410   6.043   8.928   1.028  0.2189 -0.3974  0.0180
  731MOL0     N96411   6.061   8.858   1.134  0.0703 -0.1993 -0.5410
  731MOL0     C96412   7.147   9.103   1.035 -0.0700  0.7844  0.5218
  731MOL0     C96413   7.271   9.099   0.969  0.2138  0.1585 -0.0141
  731MOL0     C96414   7.644   8.878   0.854  0.1793 -0.5041 -0.1214
  731MOL0     C96415   7.764   8.946   0.893  0.3329 -0.6685  0.3225
  731MOL0     C96416   7.889   8.910   0.839 -0.0487 -0.6204  1.1345
  731MOL0     C96417   7.901   8.819   0.738 -0.1656  0.7393 -0.0968
  731MOL0     O96418   8.017   8.768   0.685  0.6383 -0.0124  0.3513
  731MOL0     C96419   8.145   8.838   0.724  1.7471 -0.3844  0.2038
  731MOL0     C96420   8.263   8.781   0.644 -0.3297  0.0347 -0.5560
  731MOL0     C96421   8.392   8.854   0.692 -0.8572  0.0173  0.8807
  731MOL0     C96422   8.531   8.784   0.649 -0.7227 -0.5926  0.1466
  731MOL0     C96423   8.636   8.868   0.680 -0.4812 -0.3515 -0.1188
  731MOL0     C96424   8.728   8.935   0.708 -0.2943 -0.0586  0.1601
  731MOL0     C96425   7.789   8.756   0.696  0.7915 -0.7075 -0.4322
  731MOL0     C96426   7.658   8.778   0.755 -0.3600  0.2093  1.2697
  731MOL0     H96427   7.444   8.925   1.199 -0.1963  0.0826  1.3860
  731MOL0     H96428   7.227   8.901   1.310  0.2348 -1.1754 -0.7701
  731MOL0     H96429   7.083   9.178   1.363 -1.5959  2.4953 -2.9885
  731MOL0     H96430   7.040   9.016   1.413 -4.0760  0.7776  1.4089
  731MOL0     H96431   6.841   9.225   1.308  0.4146 -1.3362 -1.8411
  731MOL0     H96432   6.880   9.186   1.478  1.4769  1.3620 -0.8918
  731MOL0     H96433   6.768   8.967   1.469 -1.0122  0.9200  0.9601
  731MOL0     H96434   6.782   8.956   1.292 -1.9832 -2.4743  1.5394
  731MOL0     H96435   6.589   9.135   1.448  0.3708 -0.9312 -0.1787
  731MOL0     H96436   6.608   9.149   1.275 -2.7364 -0.5517  0.1523
  731MOL0     H96437   6.540   8.894   1.423 -1.8908 -1.3351 -1.2784
  731MOL0     H96438   6.567   8.902   1.253  2.1247  0.3003 -0.5530
  731MOL0     H96439   6.352   9.047   1.247 -0.8293 -2.6188 -0.9167
  731MOL0     H96440   6.370   9.067   1.426 -2.3980  0.9509 -0.5824
  731MOL0     H96441   6.324   8.831   1.455  2.1182 -1.9075 -2.1063
  731MOL0     H96442   6.180   8.915   1.394 -0.5772 -1.6086 -0.5243
  731MOL0     H96443   6.209   8.689   1.308 -2.7292  2.3283  0.8450
  731MOL0     H96444   6.360   8.733   1.226  0.2868  1.7783 -0.1610
  731MOL0     H96445   6.366   8.882   1.013 -0.2437 -0.7068 -0.4454
  731MOL0     H96446   6.216   8.964   0.760 -1.0016  0.4264  0.2133
  731MOL0     H96447   6.281   9.089   0.874  0.0540  0.8973  2.1177
  731MOL0     H96448   6.040   9.191   0.881  0.4061  0.2896 -0.5479
  731MOL0     H96449   5.993   9.078   0.752  0.5686 -1.3362  0.3072
  731MOL0     H96450   6.236   9.266   0.743  0.3799  1.1746  0.6710
  731MOL0     H96451   6.181   9.181   0.611 -0.6827  0.5862 -0.6814
  731MOL0     H96452   6.076   9.404   0.591  0.9378 -2.0634 -1.4716
  731MOL0     H96453   6.046   9.398   0.766  0.9608 -0.0385  0.0398
  731MOL0     H96454   5.681   9.182   0.594  0.7297 -3.1071  0.9781
  731MOL0     H96455   5.606   9.070   0.390  1.6448 -2.3972 -5.5737
  731MOL0     H96456   5.660   9.051  -0.109 -2.2804  2.0404  0.3075
  731MOL0     H96457   5.566   8.913  -0.291  0.8272 -1.8307  0.1663
  731MOL0     H96458   5.380   8.556  -0.365  0.5876  0.1435 -1.8781
  731MOL0     H96459   5.534   8.625  -0.309  2.7859  0.3492 -4.3295
  731MOL0     H96460   5.434   8.631  -0.559 -1.4611 -0.6310  0.5320
  731MOL0     H96461   5.539   8.770  -0.498 -1.3865  1.6608  1.1340
  731MOL0     H96462   5.345   8.835  -0.631  0.6019  0.4286 -0.4785
  731MOL0     H96463   5.338   8.899  -0.463  0.3991  0.4225 -1.0394
  731MOL0     H96464   5.186   8.640  -0.542 -0.9508  0.4053  0.2402
  731MOL0     H96465   5.175   8.727  -0.399 -0.1920  3.7417  1.0291
  731MOL0     H96466   5.069   8.819  -0.663  0.4333 -1.2714  0.6300
  731MOL0     H96467   5.111   8.950  -0.550  0.5726 -0.3733  0.7716
  731MOL0     H96468   4.960   8.797  -0.385 -1.2771 -1.5189 -0.1150
  731MOL0     H96469   4.910   8.716  -0.534  3.3351 -0.4926 -2.9034
  731MOL0     H96470   4.897   9.013  -0.516  0.2756 -0.2523 -1.2110
  731MOL0     H96471   4.801   8.901  -0.614 -2.5799 -0.2227  0.6098
  731MOL0     H96472   4.654   8.993  -0.449 -3.0322 -1.9503  1.1918
  731MOL0     H96473   4.764   8.980  -0.321 -1.5384  0.5441  0.0678
  731MOL0     H96474   5.313   8.712  -0.010  0.1497 -0.6791 -2.0750
  731MOL0     H96475   5.423   8.854   0.183  0.4386 -1.4548  1.0000
  731MOL0     H96476   5.980   9.130   0.216 -0.7304  0.2336 -0.1467
  731MOL0     H96477   6.065   9.262   0.410  0.1447  1.7254  1.1935
  731MOL0     H96478   7.057   9.155   1.002  1.2962  1.4336 -2.5860
  731MOL0     H96479   7.287   9.142   0.871 -1.9376 -0.4648 -0.6962
  731MOL0     H96480   7.751   9.008   0.981 -0.8129  0.7846 -0.8096
  731MOL0     H96481   7.974   8.968   0.875  0.2277 -0.1129 -0.2867
  731MOL0     H96482   8.156   8.843   0.832  0.0398 -1.3454  0.4606
  731MOL0     H96483   8.136   8.946   0.711 -0.7024 -0.3694  1.6366
  731MOL0     H96484   8.263   8.674   0.667 -0.3230  0.4368  1.5525
  731MOL0     H96485   8.256   8.802   0.537 -2.4824  1.0626 -0.2591
  731MOL0     H96486   8.386   8.850   0.801  1.8950 -0.6783  1.0791
  731MOL0     H96487   8.391   8.958   0.656 -0.0717 -0.3514 -0.2566
  731MOL0     H96488   8.535   8.690   0.705  0.7070 -0.4783  0.2747
  731MOL0     H96489   8.530   8.774   0.540  3.2181  1.4457 -0.2303
  731MOL0     H96490   8.803   9.009   0.721  0.3587 -0.7362  0.2835
  731MOL0     H96491   7.802   8.679   0.621 -0.8974  1.0506 -2.6823
  731MOL0     H96492   7.571   8.730   0.711  0.6148  0.2159 -0.7852
  732MOL0     O96493  10.547   6.847   7.872 -0.7189 -0.1418  0.1211
  732MOL0     C96494  10.562   6.893   7.987 -0.1004  1.0909 -0.2061
  732MOL0     O96495  10.461   6.960   8.067 -0.3734  0.4271  0.5891
  732MOL0     C96496  10.333   6.982   8.018 -0.2725  0.4000 -0.1308
  732MOL0     C96497  10.247   6.879   8.021 -0.3530  0.7776  0.6990
  732MOL0     C96498  10.118   6.886   7.964  0.0775 -0.4910  0.3299
  732MOL0     C96499  10.080   7.006   7.906 -0.1861 -0.2154  0.3451
  732MOL0     O96500   9.959   7.027   7.838 -0.2489 -0.3964 -0.1434
  732MOL0     C96501   9.884   6.912   7.808 -0.5940 -0.2598 -0.3113
  732MOL0     C96502   9.781   6.886   7.923  0.5408 -0.7628 -0.1302
  732MOL0     C96503   9.715   6.755   7.911  0.4708  1.4942  1.0530
  732MOL0     C96504   9.631   6.714   8.022  0.4427 -1.1584  0.2640
  732MOL0     C96505   9.502   6.803   8.009  0.6920  0.4269  0.2104
  732MOL0     C96506   9.400   6.753   8.113  0.3345  0.1559  1.1649
  732MOL0     C96507   9.268   6.832   8.103 -0.3630  0.0464  0.1927
  732MOL0     C96508   9.219   6.860   8.245  1.0069 -0.4807  0.0143
  732MOL0     N96509   9.084   6.922   8.246  1.0821 -0.0613  0.2868
  732MOL0     C96510   9.042   7.027   8.178  0.1554  1.1655 -0.2391
  732MOL0     C96511   8.911   7.003   8.156  0.3915  1.0194 -0.3046
  732MOL0     C96512   8.818   7.077   8.080 -0.1257  0.9860 -0.7121
  732MOL0     C96513   8.680   7.085   8.164 -0.0693  0.5694  0.3541
  732MOL0     C96514   8.604   7.199   8.127  1.0385  0.4008  0.4634
  732MOL0     C96515   8.561   7.212   7.978 -0.4277 -0.0293 -0.3971
  732MOL0     O96516   8.498   7.334   7.952  0.6691  0.0985  0.4015
  732MOL0     C96517   8.360   7.350   7.971 -1.1616 -0.4562 -0.0324
  732MOL0     C96518   8.267   7.246   7.960 -0.1539  0.4522  0.3375
  732MOL0     C96519   8.128   7.275   7.969  0.2028  0.1872 -0.2393
  732MOL0     C96520   8.081   7.403   7.969 -0.8219 -0.4300  0.4565
  732MOL0     C96521   7.944   7.442   7.954 -0.3591  0.5358  0.3833
  732MOL0     O96522   7.915   7.561   7.909 -0.1330 -0.7381 -0.5318
  732MOL0     C96523   7.785   7.588   7.890  0.0429  0.2334  0.1078
  732MOL0     C96524   7.746   7.611   7.756 -0.0952  0.4397 -0.4874
  732MOL0     C96525   7.610   7.643   7.740  0.1678  0.0994  0.0718
  732MOL0     C96526   7.517   7.663   7.846  0.3408  0.5470 -0.1977
  732MOL0     O96527   7.395   7.714   7.804  0.2242  0.1540  0.3588
  732MOL0     C96528   7.292   7.737   7.904 -0.1583 -0.2548  0.1969
  732MOL0     C96529   7.159   7.728   7.822  0.1025 -0.5900 -0.2126
  732MOL0     C96530   7.035   7.783   7.898 -0.6357  0.4396 -0.5178
  732MOL0     C96531   6.913   7.701   7.852  1.2701 -0.3032 -0.5258
  732MOL0     C96532   6.887   7.699   7.706  0.2519  0.4433  0.4473
  732MOL0     C96533   6.867   7.841   7.646  0.9004 -0.2480  0.7981
  732MOL0     C96534   6.795   7.841   7.510  0.3816  0.3295  0.3882
  732MOL0     C96535   6.809   7.986   7.447  0.5965 -0.1080  0.0361
  732MOL0    Cl96536   6.689   8.102   7.533 -0.2168  0.0632 -0.1345
  732MOL0     C96537   7.561   7.639   7.980  0.6192 -0.5575  0.0679
  732MOL0     C96538   7.696   7.607   8.002  0.0004  0.1970 -0.1457
  732MOL0     O96539   7.860   7.360   7.986  0.1900 -0.1481  0.1975
  732MOL0     C96540   8.176   7.507   7.974  0.1143 -0.1874 -0.2973
  732MOL0     C96541   8.311   7.477   7.975 -0.7625 -0.4329  0.2728
  732MOL0     N96542   8.879   6.898   8.234  0.3574  0.2733 -1.1660
  732MOL0     N96543   8.975   6.848   8.283 -0.5863 -0.0196 -0.4931
  732MOL0     C96544  10.168   7.115   7.918 -0.6399  0.3115 -0.0286
  732MOL0     C96545  10.302   7.098   7.968  1.3104  0.1660 -0.2125
  732MOL0     C96546  10.700   6.895   8.050  0.4360 -0.6365 -0.0528
  732MOL0     C96547  10.717   6.961   8.169  0.7126 -0.0595  0.9303
  732MOL0     C96548  10.852   6.978   8.216 -0.1234  0.7551 -0.3929
  732MOL0     C96549  10.970   6.920   8.149  0.4725  0.4200  1.5643
  732MOL0     O96550  11.102   6.922   8.184 -0.3002  0.3516 -0.2171
  732MOL0     C96551  11.120   6.968   8.320 -0.2693  0.2123 -0.1089
  732MOL0     C96552  11.257   6.928   8.368 -0.3264 -0.1443 -0.7547
  732MOL0     C96553  11.378   7.011   8.308 -0.3805 -0.4780  0.2290
  732MOL0     C96554  11.504   6.940   8.362  0.9252 -0.4888  0.3605
  732MOL0     C96555  11.620   7.021   8.336 -0.0098  0.2854  0.3898
  732MOL0     C96556  11.714   7.097   8.316  0.8324  0.7080 -0.7652
  732MOL0     C96557  10.943   6.849   8.028  0.3388 -0.1162  0.7677
  732MOL0     C96558  10.808   6.841   7.987 -0.4190 -0.1400  0.6264
  732MOL0     H96559  10.295   6.795   8.071 -0.7585  0.5469  0.7095
  732MOL0     H96560  10.061   6.793   7.962 -3.5547  1.5310 -2.1849
  732MOL0     H96561   9.952   6.831   7.780  1.3723  1.5177 -1.0087
  732MOL0     H96562   9.825   6.935   7.719 -1.8466 -1.7379  0.0979
  732MOL0     H96563   9.709   6.968   7.920  1.2289 -0.1542 -0.4241
  732MOL0     H96564   9.820   6.884   8.025 -1.7973 -0.5008  0.8126
  732MOL0     H96565   9.785   6.676   7.883  0.6067  2.2852 -1.1001
  732MOL0     H96566   9.652   6.762   7.821 -0.2325 -1.8191  1.1743
  732MOL0     H96567   9.617   6.607   8.006  4.0721 -1.8851  1.0852
  732MOL0     H96568   9.688   6.738   8.112  0.5299 -0.1722 -0.0418
  732MOL0     H96569   9.463   6.797   7.907  1.1085  2.7015 -0.1317
  732MOL0     H96570   9.521   6.909   8.027 -0.3397  0.7491 -0.4794
  732MOL0     H96571   9.440   6.749   8.214  0.6112 -0.2373  1.0448
  732MOL0     H96572   9.384   6.647   8.089 -0.1146  1.1881 -4.7730
  732MOL0     H96573   9.282   6.931   8.058 -0.4113 -1.1664 -2.7022
  732MOL0     H96574   9.200   6.788   8.029  1.3746 -0.2378 -1.3039
  732MOL0     H96575   9.294   6.909   8.308  1.4054 -0.9720 -0.0732
  732MOL0     H96576   9.214   6.763   8.295  0.2382  0.3269  1.5843
  732MOL0     H96577   9.104   7.108   8.140  0.3947  1.2388  0.3009
  732MOL0     H96578   8.808   7.040   7.978  1.4797  1.9713 -1.2550
  732MOL0     H96579   8.846   7.183   8.077  0.0325  0.9663 -0.1037
  732MOL0     H96580   8.708   7.096   8.269  1.2274  1.5121 -0.0603
  732MOL0     H96581   8.625   6.992   8.145  2.4920 -1.2638  1.2458
  732MOL0     H96582   8.509   7.188   8.181  1.6393 -2.7584  1.0737
  732MOL0     H96583   8.667   7.280   8.165 -1.7850  2.1155  1.8271
  732MOL0     H96584   8.493   7.128   7.967 -0.3107  0.0017 -1.4654
  732MOL0     H96585   8.651   7.209   7.915  0.0356  0.2234  0.2449
  732MOL0     H96586   8.293   7.144   7.934 -0.8371 -0.2079  2.1065
  732MOL0     H96587   8.056   7.194   7.965  0.9586 -0.4584 -1.2257
  732MOL0     H96588   7.822   7.609   7.679  2.4213  2.7675  1.7064
  732MOL0     H96589   7.568   7.664   7.642 -4.5111  0.3104  1.8716
  732MOL0     H96590   7.309   7.833   7.954  1.2113 -0.9772  1.1748
  732MOL0     H96591   7.289   7.656   7.977 -4.2404 -0.6683 -0.2145
  732MOL0     H96592   7.136   7.627   7.787  4.8051 -1.5231 -1.3594
  732MOL0     H96593   7.172   7.784   7.728 -0.3418 -0.5230 -0.2389
  732MOL0     H96594   7.017   7.886   7.869  2.1371  0.3940 -2.9238
  732MOL0     H96595   7.047   7.762   8.005 -1.2896 -0.0964 -0.5393
  732MOL0     H96596   6.928   7.598   7.883  0.0437 -0.2997  0.1777
  732MOL0     H96597   6.823   7.743   7.899  1.2872  1.1292 -1.7033
  732MOL0     H96598   6.793   7.646   7.688  0.9534 -0.7200  0.0671
  732MOL0     H96599   6.963   7.640   7.652 -1.0320 -1.6931  0.8792
  732MOL0     H96600   6.960   7.891   7.616  0.6165 -1.2314 -2.0447
  732MOL0     H96601   6.812   7.895   7.723 -2.0657  0.7878 -1.8141
  732MOL0     H96602   6.839   7.775   7.434 -4.0506  2.6102 -4.8026
  732MOL0     H96603   6.693   7.804   7.523  0.4177 -0.0200 -0.2798
  732MOL0     H96604   6.789   7.982   7.339  0.4439 -1.7419  0.1116
  732MOL0     H96605   6.908   8.030   7.461  1.7020 -1.9834 -1.4716
  732MOL0     H96606   7.495   7.663   8.063  0.2145 -0.9955 -0.1269
  732MOL0     H96607   7.730   7.584   8.103 -3.0275 -0.6367  0.7933
  732MOL0     H96608   8.148   7.612   7.971  0.3903 -0.1036 -0.0690
  732MOL0     H96609   8.381   7.560   7.965 -3.1520  1.9680  1.9382
  732MOL0     H96610  10.147   7.217   7.889  2.9355  1.4627  0.9163
  732MOL0     H96611  10.381   7.173   7.964  2.0449 -0.6193 -0.7497
  732MOL0     H96612  10.637   7.012   8.220 -1.9122 -0.7611 -2.1674
  732MOL0     H96613  10.863   7.013   8.318  0.2885 -0.6816  0.0790
  732MOL0     H96614  11.045   6.915   8.380 -2.4651  1.2909 -1.7895
  732MOL0     H96615  11.100   7.076   8.324  1.6768  0.6030  0.2332
  732MOL0     H96616  11.252   6.934   8.477 -0.7352 -2.9185 -0.5527
  732MOL0     H96617  11.267   6.821   8.345 -2.5001 -0.4249 -0.6094
  732MOL0     H96618  11.367   7.118   8.327 -0.8767  0.1256 -2.9293
  732MOL0     H96619  11.380   7.005   8.199  2.7892 -1.5988  0.2551
  732MOL0     H96620  11.497   6.935   8.471 -2.7423  0.2688  0.2917
  732MOL0     H96621  11.521   6.836   8.333 -2.9211 -1.2674  0.3402
  732MOL0     H96622  11.783   7.179   8.312  0.3437  1.2397  0.7464
  732MOL0     H96623  11.015   6.804   7.961 -1.1350 -2.7099  0.8045
  732MOL0     H96624  10.798   6.798   7.888  2.3456 -1.1441  0.6716
  733MOL0     O96625   4.254  11.125   4.037  0.1048 -0.4634 -0.4206
  733MOL0     C96626   4.361  11.090   4.092  0.6040  0.0043 -0.1963
  733MOL0     O96627   4.376  10.974   4.161 -0.6236  0.7538 -0.1219
  733MOL0     C96628   4.272  10.881   4.180  0.2392 -0.2026 -0.4154
  733MOL0     C96629   4.189  10.918   4.283 -0.7195  0.1116 -0.0390
  733MOL0     C96630   4.081  10.834   4.314 -0.0738 -0.0129  0.6782
  733MOL0     C96631   4.064  10.708   4.250 -0.3937  0.3827  0.1783
  733MOL0     O96632   3.952  10.647   4.295 -0.3846 -0.1066 -0.2750
  733MOL0     C96633   3.900  10.523   4.248 -0.2679  0.0546  0.2626
  733MOL0     C96634   3.773  10.487   4.339 -0.5579 -0.4116  0.0881
  733MOL0     C96635   3.654  10.587   4.319  0.8784 -0.6697 -0.7852
  733MOL0     C96636   3.554  10.579   4.433  0.5269 -0.8260 -0.1987
  733MOL0     C96637   3.452  10.697   4.420  0.5682  0.7277  0.2191
  733MOL0     C96638   3.340  10.687   4.528 -0.2055  0.1630 -0.5246
  733MOL0     C96639   3.241  10.803   4.534  0.0563 -0.8169  0.0312
  733MOL0     C96640   3.315  10.935   4.565 -0.2295  0.1704  0.5696
  733MOL0     N96641   3.223  11.046   4.568 -0.1063 -0.5533 -0.4372
  733MOL0     C96642   3.245  11.162   4.497  0.2647  0.2036  0.1315
  733MOL0     C96643   3.156  11.246   4.538 -0.4177  0.2894  0.3224
  733MOL0     C96644   3.129  11.385   4.489 -0.1869  0.2000 -0.2744
  733MOL0     C96645   3.093  11.392   4.343  0.4964  0.2567  0.0688
  733MOL0     C96646   3.058  11.532   4.296 -1.0659  1.0396 -0.1213
  733MOL0     C96647   3.004  11.537   4.155 -0.0692  0.5808  0.0143
  733MOL0     O96648   2.877  11.489   4.151  0.7599  0.0560  0.3143
  733MOL0     C96649   2.783  11.543   4.237  0.6017  0.0321 -0.7010
  733MOL0     C96650   2.750  11.680   4.236  0.4535  0.5399 -0.1385
  733MOL0     C96651   2.652  11.728   4.328 -0.3870 -0.6649 -0.2437
  733MOL0     C96652   2.598  11.645   4.421 -0.5970  0.0149 -0.0099
  733MOL0     C96653   2.503  11.699   4.520 -0.0317 -0.0466  0.2806
  733MOL0     O96654   2.461  11.614   4.623 -0.1449  0.5586 -0.0104
  733MOL0     C96655   2.355  11.646   4.703 -0.0859 -0.0337 -0.0611
  733MOL0     C96656   2.225  11.663   4.649 -0.4595  0.0275  0.0944
  733MOL0     C96657   2.123  11.699   4.735  0.5547  0.6593 -0.2890
  733MOL0     C96658   2.139  11.714   4.874  0.1072 -0.1607  0.0533
  733MOL0     O96659   2.026  11.750   4.945  0.3147  0.1717  0.0203
  733MOL0     C96660   2.015  11.712   5.084  0.5271  0.2836  0.3668
  733MOL0     C96661   1.874  11.740   5.132  0.3778  0.7797 -0.2437
  733MOL0     C96662   1.832  11.628   5.232  0.7968 -0.2123 -0.5027
  733MOL0     C96663   1.722  11.678   5.336  0.1251  0.4130  0.2450
  733MOL0     C96664   1.590  11.731   5.270 -0.5781  0.8525 -0.5755
  733MOL0     C96665   1.526  11.641   5.162 -0.1392  0.4861  0.0956
  733MOL0     C96666   1.417  11.714   5.079  0.0489  0.0579  0.6735
  733MOL0     C96667   1.287  11.742   5.144 -0.0974 -0.5999  0.6158
  733MOL0    Cl96668   1.294  11.849   5.283 -0.3010  0.0249 -0.0956
  733MOL0     C96669   2.270  11.697   4.923  0.1396  0.0717 -0.9239
  733MOL0     C96670   2.378  11.669   4.839  0.1349  0.7072 -0.3402
  733MOL0     O96671   2.471  11.815   4.516  0.0871 -0.7474  0.1130
  733MOL0     C96672   2.625  11.515   4.420 -0.8541 -0.2041  0.5464
  733MOL0     C96673   2.725  11.464   4.334  0.0914 -0.2220 -0.2303
  733MOL0     N96674   3.083  11.190   4.646  0.1873  0.5004  0.5173
  733MOL0     N96675   3.130  11.072   4.665  0.0315 -0.9718 -0.5415
  733MOL0     C96676   4.149  10.670   4.146  0.2743  0.3843 -0.0470
  733MOL0     C96677   4.250  10.762   4.105  0.5076  0.7517  0.7636
  733MOL0     C96678   4.476  11.174   4.058  0.4402  0.7103 -0.4088
  733MOL0     C96679   4.594  11.155   4.126 -0.1483  0.3428  0.0776
  733MOL0     C96680   4.711  11.213   4.081  0.3077 -0.2699 -0.2182
  733MOL0     C96681   4.722  11.310   3.978 -0.6031  0.1610 -0.2784
  733MOL0     O96682   4.841  11.363   3.947  0.6371  0.1113  0.1673
  733MOL0     C96683   4.843  11.479   3.857 -0.0860  0.3229 -0.1136
  733MOL0     C96684   4.984  11.528   3.833  0.1171 -0.6119 -0.5800
  733MOL0     C96685   5.067  11.448   3.735 -0.4317 -0.3482  0.2351
  733MOL0     C96686   5.221  11.469   3.741  0.8538  0.5166 -0.1143
  733MOL0     C96687   5.257  11.603   3.703  0.2199  0.4736 -0.6297
  733MOL0     C96688   5.294  11.710   3.683 -0.4061  0.5097  0.4916
  733MOL0     C96689   4.596  11.330   3.918 -0.5057  0.1163  0.5203
  733MOL0     C96690   4.473  11.263   3.955 -0.8552  0.3824 -0.4765
  733MOL0     H96691   4.191  11.010   4.341  3.4291 -2.0991  4.0006
  733MOL0     H96692   4.007  10.868   4.386  1.0479  1.6558  1.1023
  733MOL0     H96693   3.979  10.448   4.253 -1.8408 -1.7175 -0.4765
  733MOL0     H96694   3.861  10.528   4.146  1.3505  0.8837 -0.3509
  733MOL0     H96695   3.799  10.482   4.445 -0.9073 -0.0726  0.1882
  733MOL0     H96696   3.727  10.391   4.312 -1.4734 -0.2646  1.1196
  733MOL0     H96697   3.608  10.565   4.222  0.8558 -3.1711 -0.2711
  733MOL0     H96698   3.697  10.687   4.313  0.3701 -0.3423  0.6629
  733MOL0     H96699   3.505  10.481   4.437  1.1097 -1.2699 -2.4435
  733MOL0     H96700   3.606  10.590   4.529 -0.4510  1.2674  0.1366
  733MOL0     H96701   3.407  10.688   4.321  1.7887 -2.8982 -0.1438
  733MOL0     H96702   3.510  10.789   4.433  3.5219 -1.0264  0.3563
  733MOL0     H96703   3.389  10.668   4.624 -1.5543  0.1104  0.1714
  733MOL0     H96704   3.276  10.600   4.513  0.8381 -0.6277 -0.5332
  733MOL0     H96705   3.192  10.822   4.438  0.6388  2.1364  0.2269
  733MOL0     H96706   3.167  10.782   4.611 -0.3436  3.2555  0.9669
  733MOL0     H96707   3.386  10.956   4.485  0.2763  0.9862  1.2218
  733MOL0     H96708   3.362  10.918   4.662 -2.8614 -0.6074  1.8027
  733MOL0     H96709   3.317  11.177   4.417  0.1045  0.7039  0.0764
  733MOL0     H96710   3.205  11.459   4.515 -1.5917  2.4212 -2.0249
  733MOL0     H96711   3.039  11.418   4.543 -0.5886 -0.3020 -0.6256
  733MOL0     H96712   3.002  11.333   4.325  0.1645  1.4153 -2.5122
  733MOL0     H96713   3.176  11.357   4.281 -1.1055  0.5794 -2.4426
  733MOL0     H96714   2.981  11.577   4.360 -3.7088 -0.3763 -2.1276
  733MOL0     H96715   3.147  11.595   4.312 -1.9687  2.0090  1.3452
  733MOL0     H96716   3.066  11.481   4.083 -0.7187  0.7679 -0.7067
  733MOL0     H96717   2.990  11.635   4.107  0.3530 -0.4976 -2.4517
  733MOL0     H96718   2.795  11.753   4.169  1.6721 -0.3281 -0.3015
  733MOL0     H96719   2.632  11.835   4.330 -0.7665 -0.7386  0.2245
  733MOL0     H96720   2.211  11.650   4.542 -1.3054 -2.1405  0.4206
  733MOL0     H96721   2.019  11.688   4.706  0.8352  0.2202 -1.1312
  733MOL0     H96722   2.085  11.776   5.139  0.3856 -0.2437  1.1802
  733MOL0     H96723   2.029  11.604   5.101 -2.4690  0.1498  2.7372
  733MOL0     H96724   1.800  11.746   5.052  0.2606  1.2833 -0.1031
  733MOL0     H96725   1.867  11.844   5.166 -1.9592  1.2234 -1.7887
  733MOL0     H96726   1.910  11.587   5.297 -2.3415 -1.5458  2.7872
  733MOL0     H96727   1.801  11.540   5.177 -0.7942  0.8536 -1.3759
  733MOL0     H96728   1.700  11.595   5.404  2.6419 -0.4417  0.1017
  733MOL0     H96729   1.753  11.762   5.398 -2.3351 -0.7012  3.2272
  733MOL0     H96730   1.613  11.818   5.208 -1.1712  1.4615  0.0277
  733MOL0     H96731   1.526  11.760   5.354 -0.5825  2.9071 -1.2371
  733MOL0     H96732   1.483  11.552   5.210  0.8205 -0.2727 -0.4090
  733MOL0     H96733   1.605  11.609   5.093 -1.7770 -2.0928 -0.7584
  733MOL0     H96734   1.461  11.793   5.018 -0.8562  0.1626  0.1439
  733MOL0     H96735   1.392  11.642   5.000  1.0814  0.8160 -0.3831
  733MOL0     H96736   1.248  11.645   5.175  1.9518 -1.2500  1.3781
  733MOL0     H96737   1.223  11.787   5.067 -0.7294 -0.0592  1.4471
  733MOL0     H96738   2.287  11.706   5.030 -0.5952  1.4290 -0.9057
  733MOL0     H96739   2.472  11.646   4.887 -1.0584 -1.1445  1.2773
  733MOL0     H96740   2.576  11.449   4.491 -3.5491  0.3966 -0.6181
  733MOL0     H96741   2.765  11.363   4.343 -1.3976 -0.7480  0.9794
  733MOL0     H96742   4.124  10.593   4.073  1.0991  4.5074 -5.2341
  733MOL0     H96743   4.316  10.731   4.024  0.2300 -0.6864  1.0694
  733MOL0     H96744   4.595  11.080   4.204 -3.9886  1.6971  1.6414
  733MOL0     H96745   4.803  11.187   4.133  1.4703 -0.8412 -2.4099
  733MOL0     H96746   4.782  11.562   3.896 -0.7162 -0.2770  0.2089
  733MOL0     H96747   4.805  11.440   3.762  1.9197 -2.5596  0.1571
  733MOL0     H96748   4.985  11.636   3.816  2.7625 -0.3382  0.6408
  733MOL0     H96749   5.017  11.525   3.938  0.4878  1.0284 -0.6285
  733MOL0     H96750   5.041  11.480   3.634 -0.9643  1.5959  0.9342
  733MOL0     H96751   5.043  11.341   3.742  0.6078 -0.6138 -0.1805
  733MOL0     H96752   5.232  11.444   3.848 -3.4873 -1.7067  0.0435
  733MOL0     H96753   5.267  11.394   3.676  1.5688 -0.2570  1.2339
  733MOL0     H96754   5.332  11.804   3.647  0.6832 -0.4801 -1.0956
  733MOL0     H96755   4.592  11.399   3.834 -3.3393  0.6168  0.9462
  733MOL0     H96756   4.386  11.288   3.895 -1.2261  0.1370 -0.0526
  734MOL0     O96757   7.114   6.065   7.004 -1.0188  0.7285  0.0760
  734MOL0     C96758   7.167   6.153   7.072  0.7283  0.0959 -0.5674
  734MOL0     O96759   7.101   6.222   7.170  0.0656  0.4558  0.1704
  734MOL0     C96760   6.965   6.214   7.200  0.7943 -0.6716  0.0283
  734MOL0     C96761   6.870   6.139   7.131  0.3609 -0.0469  0.6188
  734MOL0     C96762   6.735   6.146   7.179 -0.0453 -0.9365  0.5726
  734MOL0     C96763   6.701   6.212   7.300 -0.7023  0.1600 -0.7815
  734MOL0     O96764   6.567   6.210   7.344 -0.5766  0.0651  0.9907
  734MOL0     C96765   6.545   6.120   7.451 -0.3961 -0.1199  1.0577
  734MOL0     C96766   6.413   6.174   7.502 -0.0974 -0.1440 -0.2383
  734MOL0     C96767   6.296   6.134   7.407 -0.6846  0.1329 -1.2013
  734MOL0     C96768   6.252   6.252   7.330 -0.5401  0.0188 -0.5389
  734MOL0     C96769   6.132   6.218   7.235 -0.2647 -0.4727  0.7096
  734MOL0     C96770   6.088   6.353   7.162  0.5606  0.5364 -0.2939
  734MOL0     C96771   5.961   6.335   7.071 -0.2304  0.5132 -0.8737
  734MOL0     C96772   5.824   6.307   7.140  0.1933 -0.2372 -0.4265
  734MOL0     N96773   5.722   6.316   7.037 -0.4677 -0.1870  0.5929
  734MOL0     C96774   5.688   6.428   6.970  1.0894 -1.3428 -0.3255
  734MOL0     C96775   5.577   6.400   6.895 -0.5731 -0.2880 -0.2765
  734MOL0     C96776   5.501   6.485   6.801  0.2453  0.2099  0.4811
  734MOL0     C96777   5.348   6.466   6.799  0.1334 -1.2119  0.3739
  734MOL0     C96778   5.285   6.595   6.743  0.1938 -0.3296 -0.3546
  734MOL0     C96779   5.128   6.571   6.738  0.1299 -0.8761 -0.7986
  734MOL0     O96780   5.064   6.680   6.663 -0.0583  0.1315  0.4163
  734MOL0     C96781   4.933   6.671   6.636  1.0642  0.0180 -0.1669
  734MOL0     C96782   4.884   6.607   6.523 -0.5647 -0.3960 -0.3295
  734MOL0     C96783   4.744   6.624   6.493 -0.4510  0.0412 -0.0392
  734MOL0     C96784   4.661   6.707   6.577  0.0881  0.2370 -0.1386
  734MOL0     C96785   4.518   6.708   6.548  0.4909  0.5210  0.8196
  734MOL0     O96786   4.450   6.819   6.578  0.0044  0.2407 -0.7563
  734MOL0     C96787   4.321   6.836   6.544  0.0246 -0.6238  0.1040
  734MOL0     C96788   4.214   6.784   6.616  0.1319 -0.6991  0.3103
  734MOL0     C96789   4.079   6.811   6.584 -0.0158 -0.3448 -0.8803
  734MOL0     C96790   4.044   6.899   6.480 -0.0484 -0.3468 -0.0039
  734MOL0     O96791   3.909   6.926   6.454 -0.8744 -0.3044 -0.1904
  734MOL0     C96792   3.865   6.963   6.323 -0.8469  0.3225  0.1343
  734MOL0     C96793   3.711   6.957   6.325 -1.0350 -0.0156  0.0664
  734MOL0     C96794   3.662   6.813   6.332  0.5056  0.1846  0.0303
  734MOL0     C96795   3.503   6.808   6.320  0.3898 -0.1946 -0.4786
  734MOL0     C96796   3.446   6.660   6.313 -0.6571  0.2208  0.9856
  734MOL0     C96797   3.301   6.662   6.301 -0.6532  0.2041  0.3669
  734MOL0     C96798   3.250   6.525   6.253  0.2624 -0.8039 -0.4151
  734MOL0     C96799   3.110   6.541   6.203  0.2043  0.1578 -0.1082
  734MOL0    Cl96800   3.098   6.608   6.044 -0.1983 -0.3194  0.3161
  734MOL0     C96801   4.154   6.955   6.408 -0.0194 -0.7413  0.2185
  734MOL0     C96802   4.290   6.917   6.435  0.4361  0.4061 -0.0422
  734MOL0     O96803   4.467   6.609   6.493  0.3611 -0.1076 -0.7838
  734MOL0     C96804   4.713   6.776   6.683  0.2660  0.2954  0.4409
  734MOL0     C96805   4.850   6.755   6.714  0.7800 -0.9450  0.3247
  734MOL0     N96806   5.529   6.281   6.943  0.8362 -0.0350  0.4378
  734MOL0     N96807   5.620   6.235   7.019 -0.2052  0.4252  0.2905
  734MOL0     C96808   6.797   6.296   7.359  0.2585 -0.2341 -0.3564
  734MOL0     C96809   6.924   6.300   7.307 -0.2676 -0.4098  0.5148
  734MOL0     C96810   7.307   6.197   7.061  1.5672  0.9111  0.0447
  734MOL0     C96811   7.356   6.303   7.137 -0.3271  0.7106 -0.7693
  734MOL0     C96812   7.494   6.340   7.128 -0.2516 -0.2477 -0.9165
  734MOL0     C96813   7.587   6.269   7.049  0.3391 -0.5021 -0.7840
  734MOL0     O96814   7.713   6.317   7.023 -0.0638  0.5103  0.0539
  734MOL0     C96815   7.818   6.221   7.052  0.1049  0.6219 -0.9485
  734MOL0     C96816   7.853   6.209   7.196  0.0998 -0.7168 -0.6668
  734MOL0     C96817   7.869   6.067   7.256 -0.0385 -0.0538  0.9291
  734MOL0     C96818   7.732   5.992   7.258 -0.0071  0.1391  0.6565
  734MOL0     C96819   7.633   6.027   7.358 -0.3273  0.2982 -0.2062
  734MOL0     C96820   7.538   6.061   7.426  0.1111  0.2365 -0.6225
  734MOL0     C96821   7.530   6.166   6.968 -0.3437  0.8882  0.2015
  734MOL0     C96822   7.390   6.131   6.971  0.7302 -0.2701 -0.2140
  734MOL0     H96823   6.884   6.083   7.039  1.6718 -0.2238  0.9019
  734MOL0     H96824   6.653   6.094   7.131 -1.9036  3.1339 -1.1804
  734MOL0     H96825   6.626   6.137   7.523 -0.5162 -0.6789  1.3376
  734MOL0     H96826   6.532   6.013   7.430  0.4422  0.2571 -1.6582
  734MOL0     H96827   6.408   6.280   7.528 -1.8679 -0.2016 -0.2286
  734MOL0     H96828   6.391   6.120   7.594  4.0234 -0.0185  1.0521
  734MOL0     H96829   6.209   6.112   7.470  0.0028  4.2910  1.6442
  734MOL0     H96830   6.333   6.064   7.332 -1.4996  1.3217 -2.7851
  734MOL0     H96831   6.210   6.330   7.394 -0.4450  1.2738 -1.9377
  734MOL0     H96832   6.343   6.297   7.289 -0.8060 -0.1033 -1.2843
  734MOL0     H96833   6.054   6.169   7.294  1.1333 -0.2667  2.8195
  734MOL0     H96834   6.164   6.149   7.156  1.3578 -0.1285  1.0294
  734MOL0     H96835   6.177   6.391   7.112  1.4971  3.4480  3.1659
  734MOL0     H96836   6.057   6.425   7.238 -2.4231 -0.4217 -0.4537
  734MOL0     H96837   5.957   6.428   7.014  1.2981  0.6468 -0.8025
  734MOL0     H96838   5.980   6.262   6.993 -0.2128  0.8091 -1.1496
  734MOL0     H96839   5.806   6.386   7.214  3.2189  3.4682 -3.2521
  734MOL0     H96840   5.837   6.206   7.179 -0.7688 -1.3585 -2.8333
  734MOL0     H96841   5.729   6.527   6.983  0.2663 -1.3756  4.0404
  734MOL0     H96842   5.533   6.463   6.698 -1.7661 -0.4063 -0.0599
  734MOL0     H96843   5.526   6.588   6.827 -1.4350  1.3765 -2.1419
  734MOL0     H96844   5.306   6.446   6.898 -0.9949  1.6139  0.5727
  734MOL0     H96845   5.327   6.382   6.732  0.1640 -0.9096 -0.0232
  734MOL0     H96846   5.308   6.686   6.799  2.4342 -1.0627  0.0032
  734MOL0     H96847   5.318   6.599   6.639  1.2365 -2.6145 -0.1522
  734MOL0     H96848   5.089   6.591   6.838  1.5039 -1.5259 -0.1081
  734MOL0     H96849   5.100   6.475   6.694  0.1232 -0.6031 -1.4087
  734MOL0     H96850   4.957   6.550   6.466  1.9421 -0.2819  2.5892
  734MOL0     H96851   4.707   6.575   6.404  1.0913  0.9578 -1.2314
  734MOL0     H96852   4.248   6.723   6.699  0.2469 -1.5782 -0.3687
  734MOL0     H96853   3.996   6.762   6.634 -1.3541 -0.4583 -3.0792
  734MOL0     H96854   3.907   6.890   6.254 -2.1659  1.3674 -1.8440
  734MOL0     H96855   3.904   7.056   6.280  0.2798 -1.3421 -2.6913
  734MOL0     H96856   3.668   7.019   6.246  0.1510  1.8288  0.7935
  734MOL0     H96857   3.679   7.011   6.414  2.7701  1.6459  0.6608
  734MOL0     H96858   3.689   6.756   6.422 -0.4892 -0.5023 -0.0866
  734MOL0     H96859   3.709   6.759   6.250 -0.2079 -4.4824  2.3526
  734MOL0     H96860   3.470   6.866   6.407  0.3163 -0.6372 -0.2097
  734MOL0     H96861   3.470   6.860   6.229 -0.5821 -0.2832 -0.1881
  734MOL0     H96862   3.483   6.593   6.391 -1.0176 -1.7255 -0.4062
  734MOL0     H96863   3.487   6.619   6.220  0.8324  1.0865  1.2309
  734MOL0     H96864   3.266   6.734   6.226 -1.3047  1.7265  2.0540
  734MOL0     H96865   3.258   6.683   6.400 -2.3155 -3.1425  0.4910
  734MOL0     H96866   3.302   6.477   6.171 -0.5367 -1.5781 -0.4864
  734MOL0     H96867   3.242   6.468   6.346 -0.9553  1.2975  0.8607
  734MOL0     H96868   3.051   6.609   6.266 -1.7862 -0.6850 -0.9746
  734MOL0     H96869   3.064   6.443   6.219  0.2176  0.5119  2.4874
  734MOL0     H96870   4.132   7.015   6.320 -1.3148  3.2778  3.0362
  734MOL0     H96871   4.363   6.960   6.367 -0.4589  0.9325 -0.6818
  734MOL0     H96872   4.649   6.842   6.742 -1.7102 -0.9239 -0.2443
  734MOL0     H96873   4.903   6.805   6.794  1.8900  0.5587 -1.2585
  734MOL0     H96874   6.779   6.365   7.441 -0.8931 -2.1039  1.0475
  734MOL0     H96875   6.989   6.377   7.347 -0.5358  1.4407 -2.3545
  734MOL0     H96876   7.300   6.357   7.212  1.2101 -1.1478  1.8888
  734MOL0     H96877   7.519   6.429   7.185 -2.2927  0.7241 -1.4437
  734MOL0     H96878   7.906   6.258   7.000  2.0096  0.1354  1.7289
  734MOL0     H96879   7.794   6.121   7.014  0.2898 -0.6493  2.0323
  734MOL0     H96880   7.945   6.260   7.228 -0.7561  0.8528 -0.6032
  734MOL0     H96881   7.774   6.261   7.252  1.1955  3.2091 -2.4241
  734MOL0     H96882   7.922   6.068   7.352  0.9668  1.2751  0.3889
  734MOL0     H96883   7.926   6.019   7.176 -2.9574 -1.6784 -0.3107
  734MOL0     H96884   7.690   5.993   7.157  0.4374  0.3060  0.4705
  734MOL0     H96885   7.759   5.887   7.267 -1.3251 -0.3775 -0.8183
  734MOL0     H96886   7.459   6.108   7.481 -1.6565 -0.6917 -2.2033
  734MOL0     H96887   7.597   6.103   6.910 -0.4704 -0.4102  1.3901
  734MOL0     H96888   7.357   6.051   6.906  1.8835 -0.2742 -0.8236
  735MOL0     O96889   8.433   1.747   9.469 -0.0456  0.0754  0.0656
  735MOL0     C96890   8.501   1.651   9.439 -0.4123 -0.3248 -0.9247
  735MOL0     O96891   8.461   1.546   9.362  0.2242  0.5500 -0.2305
  735MOL0     C96892   8.341   1.562   9.300 -0.7219  0.0746  0.3094
  735MOL0     C96893   8.255   1.453   9.295  0.2449  0.4251  0.1895
  735MOL0     C96894   8.129   1.457   9.230  0.6284  0.1289  0.7080
  735MOL0     C96895   8.098   1.569   9.157 -0.4591 -0.3732 -1.2819
  735MOL0     O96896   7.973   1.561   9.103 -0.5514  0.4318 -0.2470
  735MOL0     C96897   7.927   1.668   9.021  0.1268 -0.1136 -0.9681
  735MOL0     C96898   7.776   1.642   8.989 -0.2682  0.4590 -0.6671
  735MOL0     C96899   7.699   1.604   9.118  0.1216  0.2328  0.2819
  735MOL0     C96900   7.544   1.613   9.119  0.5279 -0.1286  0.8978
  735MOL0     C96901   7.490   1.634   9.262 -0.1115  0.1596  0.7467
  735MOL0     C96902   7.335   1.645   9.253 -0.5379 -0.7754 -0.4226
  735MOL0     C96903   7.277   1.504   9.287 -0.1207 -0.5939  0.6666
  735MOL0     C96904   7.254   1.477   9.437 -0.1128 -0.4291  0.1916
  735MOL0     N96905   7.143   1.553   9.482  0.1867  0.4137 -0.3609
  735MOL0     C96906   7.022   1.488   9.491 -0.0268 -0.2897  0.3485
  735MOL0     C96907   6.942   1.576   9.560 -0.6119  0.5127  0.4083
  735MOL0     C96908   6.802   1.554   9.604  0.9143  0.3299  0.4730
  735MOL0     C96909   6.695   1.536   9.497 -1.0116  0.1951  0.2221
  735MOL0     C96910   6.563   1.482   9.558  0.2748  0.1432  0.1954
  735MOL0     C96911   6.450   1.504   9.460 -0.0995  0.0014 -0.0344
  735MOL0     O96912   6.442   1.642   9.417 -0.5562  0.7572 -0.3902
  735MOL0     C96913   6.324   1.693   9.359  0.3815  0.4026  0.2653
  735MOL0     C96914   6.235   1.603   9.289 -0.7453 -0.4054  0.3353
  735MOL0     C96915   6.120   1.648   9.238  0.0097 -0.3194  0.8945
  735MOL0     C96916   6.090   1.784   9.236 -0.0285 -0.3908  0.0138
  735MOL0     C96917   5.949   1.825   9.186 -0.3450 -0.2238  0.2459
  735MOL0     O96918   5.854   1.733   9.163 -0.0806 -0.0446 -0.2000
  735MOL0     C96919   5.725   1.759   9.130  0.2800  0.5205  0.5736
  735MOL0     C96920   5.681   1.867   9.051 -0.8543 -0.3109 -0.0888
  735MOL0     C96921   5.547   1.877   9.011  0.3735 -0.1138  0.4088
  735MOL0     C96922   5.446   1.783   9.042  0.0778 -0.4159  0.8381
  735MOL0     O96923   5.320   1.804   8.993 -0.6659  0.1618 -0.6487
  735MOL0     C96924   5.220   1.733   9.059  0.5689 -0.6633  0.3154
  735MOL0     C96925   5.078   1.780   9.012 -0.0767  0.6346 -0.0598
  735MOL0     C96926   4.961   1.715   9.094 -0.3120 -0.2917 -0.1423
  735MOL0     C96927   4.941   1.562   9.064  0.1580  0.9396 -0.5964
  735MOL0     C96928   4.837   1.495   9.144  0.1075 -0.9184 -0.8831
  735MOL0     C96929   4.702   1.511   9.078  0.7628  0.6791 -0.2533
  735MOL0     C96930   4.600   1.393   9.098 -0.0377  0.2425  0.3638
  735MOL0     C96931   4.518   1.409   9.231  0.4296 -0.5776  0.5339
  735MOL0    Cl96932   4.616   1.404   9.378  0.0126 -0.1145 -0.0537
  735MOL0     C96933   5.487   1.677   9.128 -0.2679  0.1704 -0.1874
  735MOL0     C96934   5.621   1.667   9.156  0.4288  0.1245 -0.0368
  735MOL0     O96935   5.923   1.946   9.183  0.1304 -0.0690  0.1224
  735MOL0     C96936   6.185   1.870   9.296  0.1204  0.3873 -0.2513
  735MOL0     C96937   6.298   1.824   9.364  0.2030 -0.5708 -0.4232
  735MOL0     N96938   7.017   1.689   9.588 -0.4002 -0.1245 -0.3085
  735MOL0     N96939   7.137   1.672   9.536 -0.2831  0.4076 -0.5119
  735MOL0     C96940   8.186   1.682   9.150 -0.0346 -0.9865  0.0127
  735MOL0     C96941   8.309   1.674   9.217  0.0373  0.0899 -0.7088
  735MOL0     C96942   8.615   1.621   9.524 -0.1588  0.3607 -0.8129
  735MOL0     C96943   8.669   1.492   9.534  0.2911  0.2346 -0.6288
  735MOL0     C96944   8.785   1.463   9.615 -0.1971  0.0415 -0.0763
  735MOL0     C96945   8.845   1.563   9.685  0.0666  1.2043 -0.0597
  735MOL0     O96946   8.963   1.548   9.752 -0.3022 -0.2426  1.1286
  735MOL0     C96947   8.974   1.433   9.829 -0.0157 -0.6210  0.5211
  735MOL0     C96948   9.110   1.436   9.911 -0.5373 -0.5274 -0.1053
  735MOL0     C96949   9.141   1.308   9.990 -0.7229  0.9234  0.1096
  735MOL0     C96950   9.217   1.205   9.895  0.3018  0.0575  0.8239
  735MOL0     C96951   9.327   1.141   9.968  0.1192 -0.8054  0.2819
  735MOL0     C96952   9.428   1.109  10.028  0.0575 -0.5578 -0.4048
  735MOL0     C96953   8.791   1.687   9.670 -0.4257 -0.3379 -0.1010
  735MOL0     C96954   8.691   1.720   9.586 -0.0758  0.2426  0.3706
  735MOL0     H96955   8.288   1.361   9.343 -2.4272  0.8525  3.1479
  735MOL0     H96956   8.062   1.373   9.242 -0.5953  0.7238 -1.3464
  735MOL0     H96957   7.987   1.672   8.930 -1.5167 -0.5315 -2.1023
  735MOL0     H96958   7.936   1.762   9.076 -0.4759 -0.1827 -0.7445
  735MOL0     H96959   7.766   1.562   8.914  4.5647  0.6856 -1.9141
  735MOL0     H96960   7.731   1.731   8.944 -2.6372  2.5250  4.9574
  735MOL0     H96961   7.747   1.667   9.194  1.3624 -0.9774  0.5487
  735MOL0     H96962   7.719   1.497   9.133  1.1183 -0.3795 -4.0187
  735MOL0     H96963   7.515   1.700   9.058  0.6632  0.2548  1.3732
  735MOL0     H96964   7.504   1.522   9.074  1.1551  0.3539 -0.7264
  735MOL0     H96965   7.523   1.728   9.306 -0.3597  0.5505  0.1067
  735MOL0     H96966   7.517   1.544   9.319 -1.6237 -1.9965 -1.7075
  735MOL0     H96967   7.300   1.670   9.152  0.3299 -2.6557 -1.2289
  735MOL0     H96968   7.306   1.722   9.325  0.6732  0.4026 -1.1517
  735MOL0     H96969   7.181   1.493   9.236 -0.7594 -2.4163  2.1531
  735MOL0     H96970   7.340   1.425   9.244 -0.1697 -1.6605  2.4715
  735MOL0     H96971   7.343   1.505   9.494 -1.0281 -0.1979  1.5548
  735MOL0     H96972   7.239   1.369   9.451 -0.2656 -0.5959 -1.1467
  735MOL0     H96973   6.999   1.388   9.457  0.2512  0.2086 -1.4345
  735MOL0     H96974   6.762   1.637   9.662 -1.9874 -0.5681 -0.0884
  735MOL0     H96975   6.805   1.464   9.666  2.2307 -0.1275 -0.2054
  735MOL0     H96976   6.731   1.474   9.414 -1.9593  1.7739 -1.4381
  735MOL0     H96977   6.675   1.640   9.470  0.0449  0.3243 -0.1254
  735MOL0     H96978   6.574   1.376   9.586  1.9646  0.5927  1.4051
  735MOL0     H96979   6.536   1.536   9.649 -0.2495 -0.7937  0.6176
  735MOL0     H96980   6.353   1.473   9.500 -0.0255 -4.1435 -2.5217
  735MOL0     H96981   6.470   1.438   9.375  0.8508 -0.5953  0.6421
  735MOL0     H96982   6.261   1.498   9.288  4.6320  0.6691  0.8607
  735MOL0     H96983   6.047   1.580   9.194 -1.4550  0.5581  1.8989
  735MOL0     H96984   5.749   1.947   9.025 -4.1766  2.1985 -1.7554
  735MOL0     H96985   5.520   1.971   8.964  2.0563  0.6171  0.8372
  735MOL0     H96986   5.231   1.739   9.168  0.6002  1.6710  0.2467
  735MOL0     H96987   5.221   1.630   9.024 -2.5185 -0.4548 -0.7101
  735MOL0     H96988   5.056   1.746   8.910 -1.2977 -2.9452  1.2386
  735MOL0     H96989   5.074   1.889   9.010 -2.1213  0.6973  2.2567
  735MOL0     H96990   4.864   1.758   9.068 -0.2758 -0.7490 -1.0547
  735MOL0     H96991   4.986   1.741   9.198 -0.4790 -1.4991  0.2149
  735MOL0     H96992   4.924   1.548   8.957 -0.3009  1.8551 -0.6504
  735MOL0     H96993   5.033   1.504   9.081 -1.1234 -0.8496  0.5800
  735MOL0     H96994   4.832   1.533   9.247 -2.9070 -0.0327 -1.2591
  735MOL0     H96995   4.871   1.391   9.145  1.0928 -0.6057 -0.5051
  735MOL0     H96996   4.710   1.529   8.970 -1.5238  2.0200 -0.2546
  735MOL0     H96997   4.664   1.606   9.117 -1.9339 -0.7793  0.9883
  735MOL0     H96998   4.541   1.386   9.006  0.0375 -1.4704  0.4114
  735MOL0     H96999   4.653   1.298   9.108 -2.2499 -0.8260  3.4858
  735MOL0     H97000   4.455   1.319   9.227  2.3110 -2.0073 -3.6660
  735MOL0     H97001   4.463   1.503   9.226 -0.4101 -1.1145 -2.1036
  735MOL0     H97002   5.417   1.600   9.159 -0.0442  1.0605  2.9069
  735MOL0     H97003   5.652   1.578   9.211 -0.3779  0.3428  0.8026
  735MOL0     H97004   6.156   1.975   9.304 -1.2240 -0.0961  1.7121
  735MOL0     H97005   6.363   1.897   9.411  0.6062 -1.0775 -0.1889
  735MOL0     H97006   8.158   1.775   9.101 -0.4727 -2.1423 -2.0493
  735MOL0     H97007   8.379   1.755   9.202  0.8118 -0.7938 -1.9748
  735MOL0     H97008   8.638   1.404   9.479 -2.2952  0.5474  0.2076
  735MOL0     H97009   8.823   1.361   9.616 -1.5876 -0.5079  0.1070
  735MOL0     H97010   8.969   1.343   9.767  0.7620 -0.8576  0.7904
  735MOL0     H97011   8.885   1.420   9.891 -0.1023  0.5290  0.6597
  735MOL0     H97012   9.188   1.454   9.837 -0.8234  2.5278  0.2026
  735MOL0     H97013   9.123   1.519   9.981  1.0928  1.8627 -3.0138
  735MOL0     H97014   9.056   1.268  10.046 -1.2139  0.6669 -0.8098
  735MOL0     H97015   9.213   1.339  10.067 -0.9698  2.5898 -0.2968
  735MOL0     H97016   9.139   1.138   9.857  0.8172  0.1531 -0.4344
  735MOL0     H97017   9.271   1.255   9.815  0.6191 -1.8001 -0.1831
  735MOL0     H97018   9.517   1.090  10.084 -0.2836 -1.8899 -0.2853
  735MOL0     H97019   8.826   1.766   9.736 -1.2054  1.1685 -1.4218
  735MOL0     H97020   8.656   1.823   9.580  1.3949  0.8289  1.2489
  736MOL0     O97021   3.804   9.448   5.779  0.1608  0.9685  0.3719
  736MOL0     C97022   3.870   9.345   5.784  0.3610 -0.1068  0.5866
  736MOL0     O97023   3.827   9.219   5.751 -0.6487 -0.5772  0.2862
  736MOL0     C97024   3.697   9.202   5.724 -0.4228 -1.2178 -0.1062
  736MOL0     C97025   3.614   9.130   5.815 -0.0148  0.2812  1.1210
  736MOL0     C97026   3.487   9.113   5.776 -0.0244  0.0106  0.0602
  736MOL0     C97027   3.436   9.169   5.667 -0.4171  0.3230 -0.2061
  736MOL0     O97028   3.311   9.148   5.632 -0.9504 -0.3092  0.6110
  736MOL0     C97029   3.296   9.023   5.556  0.8127 -0.1003  0.9854
  736MOL0     C97030   3.147   8.984   5.569  0.3820 -0.7091 -0.3450
  736MOL0     C97031   3.117   8.859   5.479 -0.3967 -0.7172 -0.3770
  736MOL0     C97032   2.976   8.852   5.414  0.0590 -0.1847 -0.4943
  736MOL0     C97033   2.914   8.706   5.412 -0.1372 -0.1178 -1.0590
  736MOL0     C97034   2.772   8.698   5.371  0.5159  0.0822 -0.0556
  736MOL0     C97035   2.707   8.559   5.394  0.0856 -0.4602 -0.3400
  736MOL0     C97036   2.602   8.517   5.293 -0.3337 -0.1055  0.0348
  736MOL0     N97037   2.489   8.611   5.304  1.4102  0.2214 -0.5276
  736MOL0     C97038   2.403   8.617   5.411 -0.7885 -0.0645 -0.1792
  736MOL0     C97039   2.294   8.680   5.359 -0.4091 -0.0039  0.1577
  736MOL0     C97040   2.158   8.700   5.434 -1.0425 -0.4401  0.1996
  736MOL0     C97041   2.041   8.692   5.326  0.0283  0.2567 -0.3586
  736MOL0     C97042   1.892   8.698   5.394 -0.9269 -0.0380  0.2796
  736MOL0     C97043   1.798   8.765   5.297  0.0859  0.0367 -0.0450
  736MOL0     O97044   1.656   8.771   5.329  0.6294 -0.5410  0.2194
  736MOL0     C97045   1.574   8.664   5.322  0.1495  0.5997 -0.8507
  736MOL0     C97046   1.620   8.538   5.271 -0.2560 -0.2130  0.6079
  736MOL0     C97047   1.530   8.442   5.228 -0.0721 -0.1968 -0.3358
  736MOL0     C97048   1.385   8.464   5.247 -0.6844 -0.3685 -0.6592
  736MOL0     C97049   1.285   8.371   5.206 -0.1859  0.1396  0.2745
  736MOL0     O97050   1.321   8.296   5.094  0.7466  0.0814  0.3517
  736MOL0     C97051   1.227   8.212   5.038  0.2484 -0.0431 -0.6832
  736MOL0     C97052   1.172   8.104   5.119 -0.2333 -0.6170  0.0815
  736MOL0     C97053   1.074   8.022   5.065 -0.0640 -0.6681  0.3209
  736MOL0     C97054   1.035   8.037   4.928 -0.1360 -0.9052 -0.7168
  736MOL0     O97055   0.953   7.948   4.862 -0.5552  0.2026 -0.0243
  736MOL0     C97056   0.862   7.992   4.762  0.2205 -0.2477 -0.1716
  736MOL0     C97057   0.781   7.867   4.720 -0.2884 -0.0941 -0.4820
  736MOL0     C97058   0.652   7.891   4.633 -0.0715  0.5281  0.3018
  736MOL0     C97059   0.540   7.782   4.643  0.0471 -0.0206 -0.1274
  736MOL0     C97060   0.410   7.817   4.567  0.4112 -0.2029  0.0440
  736MOL0     C97061   0.315   7.700   4.577  0.4147 -1.2394  0.2228
  736MOL0     C97062   0.179   7.737   4.520 -0.2095 -0.0973 -0.4672
  736MOL0     C97063   0.089   7.615   4.480 -0.2812 -1.0722 -0.5970
  736MOL0    Cl97064   0.067   7.513   4.632  0.0094 -0.1440  0.3486
  736MOL0     C97065   1.090   8.141   4.851  1.1344 -0.0240 -0.0147
  736MOL0     C97066   1.190   8.223   4.900  0.2384 -0.5119  0.1768
  736MOL0     O97067   1.176   8.366   5.262 -0.2636 -0.6821 -0.4968
  736MOL0     C97068   1.345   8.583   5.314 -0.2633 -0.5468  0.5554
  736MOL0     C97069   1.434   8.682   5.339  0.2383 -0.1634 -0.6115
  736MOL0     N97070   2.316   8.716   5.225  0.2481 -0.7079 -0.0352
  736MOL0     N97071   2.433   8.674   5.197  0.1801 -0.2789  0.5908
  736MOL0     C97072   3.510   9.240   5.576  0.5765 -1.0431 -0.8524
  736MOL0     C97073   3.645   9.265   5.609  0.2224  0.5334  0.6984
  736MOL0     C97074   4.010   9.372   5.818 -0.2300  1.0106  0.0976
  736MOL0     C97075   4.103   9.270   5.827  0.4946  0.1508  0.0349
  736MOL0     C97076   4.242   9.298   5.848 -0.5407  0.1324  0.2638
  736MOL0     C97077   4.291   9.425   5.867 -0.2226  0.3786 -0.1775
  736MOL0     O97078   4.426   9.461   5.885  0.5982  0.6127 -0.1834
  736MOL0     C97079   4.524   9.358   5.842 -0.0058 -0.1775 -0.4227
  736MOL0     C97080   4.657   9.434   5.832 -0.1686  0.3285 -0.2099
  736MOL0     C97081   4.772   9.336   5.820  0.2491 -0.5572  1.0285
  736MOL0     C97082   4.788   9.283   5.674 -0.4236  0.0076 -0.2468
  736MOL0     C97083   4.933   9.266   5.642 -0.1659 -0.0284  0.8598
  736MOL0     C97084   5.052   9.256   5.614 -0.8476  0.5002  1.4927
  736MOL0     C97085   4.203   9.526   5.850  0.3219 -0.5058  1.1170
  736MOL0     C97086   4.065   9.504   5.827  0.3325 -0.3565 -0.5297
  736MOL0     H97087   3.651   9.069   5.897 -1.0574 -3.7023 -1.0766
  736MOL0     H97088   3.425   9.051   5.840 -1.3841  0.3428 -0.9178
  736MOL0     H97089   3.357   8.941   5.594  2.3398 -0.2071 -1.4894
  736MOL0     H97090   3.327   9.054   5.456 -2.8138  4.4521  0.9121
  736MOL0     H97091   3.076   9.064   5.545 -0.0913 -0.3938  1.8508
  736MOL0     H97092   3.127   8.965   5.675  0.7294  1.5697  0.1896
  736MOL0     H97093   3.143   8.775   5.545  1.6126 -0.2088 -0.4508
  736MOL0     H97094   3.181   8.854   5.390 -2.9434 -3.2685 -2.2251
  736MOL0     H97095   2.909   8.923   5.463 -0.8070 -0.9742 -0.5044
  736MOL0     H97096   2.969   8.882   5.309 -3.2562 -0.7273 -0.5289
  736MOL0     H97097   2.920   8.662   5.512  1.2240  1.3957 -0.4325
  736MOL0     H97098   2.973   8.646   5.342 -1.1607 -1.0709 -1.1262
  736MOL0     H97099   2.765   8.727   5.266 -1.5568 -1.1138 -0.3020
  736MOL0     H97100   2.717   8.784   5.411  0.9060  0.7810 -0.9869
  736MOL0     H97101   2.783   8.480   5.405 -3.1263 -3.4617  3.0288
  736MOL0     H97102   2.657   8.566   5.491  2.1952  1.6391  0.7036
  736MOL0     H97103   2.571   8.414   5.313  1.9375 -0.7525  0.5247
  736MOL0     H97104   2.637   8.510   5.190  0.0962  1.6067  0.0236
  736MOL0     H97105   2.427   8.571   5.507  1.1445  2.9486  0.9500
  736MOL0     H97106   2.158   8.795   5.488  1.9215 -1.0518  1.4883
  736MOL0     H97107   2.161   8.622   5.511  1.9458  0.9107  1.6339
  736MOL0     H97108   2.049   8.593   5.279  2.0002 -0.7409  1.8604
  736MOL0     H97109   2.045   8.780   5.262 -0.0366  0.8348  0.4175
  736MOL0     H97110   1.864   8.603   5.439 -0.0642 -0.2095  0.4710
  736MOL0     H97111   1.886   8.763   5.482 -0.2115 -1.1751  1.1878
  736MOL0     H97112   1.806   8.717   5.199  0.7101 -1.1390  0.5687
  736MOL0     H97113   1.837   8.867   5.289  0.6350 -0.0829  0.9924
  736MOL0     H97114   1.726   8.532   5.249  0.0027  1.9379  1.1034
  736MOL0     H97115   1.575   8.360   5.173  0.9684  1.6023 -2.3084
  736MOL0     H97116   1.196   8.093   5.224 -3.7661 -1.8528  0.9119
  736MOL0     H97117   1.035   7.939   5.123  2.4362 -1.6884  0.6907
  736MOL0     H97118   0.913   8.026   4.672 -1.6714  2.6698 -0.2799
  736MOL0     H97119   0.805   8.077   4.802  0.2381  0.4398 -1.5450
  736MOL0     H97120   0.749   7.821   4.814  1.6591 -0.3048  0.1326
  736MOL0     H97121   0.849   7.792   4.680 -0.6810  0.0551 -1.4421
  736MOL0     H97122   0.674   7.895   4.526 -3.1450  0.7458 -0.4212
  736MOL0     H97123   0.599   7.982   4.664 -1.8800 -1.3471  3.2584
  736MOL0     H97124   0.581   7.687   4.608  4.1193  1.0922  1.0013
  736MOL0     H97125   0.529   7.764   4.750 -0.9654 -0.3430 -0.2767
  736MOL0     H97126   0.434   7.840   4.463  0.9478  1.8111  0.5713
  736MOL0     H97127   0.369   7.907   4.615  1.2139  0.2853 -0.1723
  736MOL0     H97128   0.314   7.663   4.680  2.6537 -0.5092  0.5469
  736MOL0     H97129   0.358   7.616   4.522  1.0691 -0.1535 -0.9702
  736MOL0     H97130   0.120   7.792   4.595 -1.9408 -3.2861  0.6895
  736MOL0     H97131   0.202   7.806   4.438  4.1705 -1.9577 -1.0341
  736MOL0     H97132   0.142   7.556   4.405  0.5195  0.3135 -1.1601
  736MOL0     H97133  -0.012   7.647   4.452  0.0211  0.8378  0.2871
  736MOL0     H97134   1.055   8.161   4.750  1.8744  0.6409 -0.1523
  736MOL0     H97135   1.231   8.308   4.847  0.9534 -0.5184  0.7082
  736MOL0     H97136   1.242   8.609   5.332 -0.6407 -3.0788  2.7656
  736MOL0     H97137   1.401   8.777   5.380  2.6677 -0.0716  1.3754
  736MOL0     H97138   3.464   9.287   5.489  1.5762  0.5950 -0.5454
  736MOL0     H97139   3.712   9.319   5.543 -1.4453 -0.0202 -1.5965
  736MOL0     H97140   4.064   9.172   5.803  0.8640 -1.0392  3.6680
  736MOL0     H97141   4.309   9.213   5.858 -3.7840 -2.4127  3.0331
  736MOL0     H97142   4.504   9.300   5.752  1.2304  1.8456 -2.1070
  736MOL0     H97143   4.534   9.281   5.919  1.2177  1.1572  0.8232
  736MOL0     H97144   4.669   9.508   5.752  2.7081  1.1588  0.8800
  736MOL0     H97145   4.663   9.489   5.927  1.9565 -1.9101  1.0650
  736MOL0     H97146   4.762   9.264   5.902 -1.4718  1.0010  2.2582
  736MOL0     H97147   4.872   9.376   5.838  0.2706  1.2196 -2.3210
  736MOL0     H97148   4.723   9.196   5.662 -4.0915  2.2024  1.8963
  736MOL0     H97149   4.748   9.356   5.603 -1.2478 -0.3260 -0.1374
  736MOL0     H97150   5.159   9.243   5.612 -1.0190 -1.7239 -2.0734
  736MOL0     H97151   4.222   9.632   5.866 -2.6552  0.1996  0.5825
  736MOL0     H97152   3.995   9.587   5.824  0.9346  0.1668 -0.4157
  737MOL0     O97153  10.132   1.612   7.346  0.1638  0.0666 -0.8016
  737MOL0     C97154  10.105   1.589   7.226  0.6034 -0.5418  0.0725
  737MOL0     O97155   9.985   1.546   7.184  0.1884 -0.6339  0.1161
  737MOL0     C97156   9.900   1.475   7.275 -0.0471  0.1903  0.5798
  737MOL0     C97157   9.950   1.377   7.360 -0.0533 -0.2981 -1.1122
  737MOL0     C97158   9.880   1.300   7.449  0.4868 -0.4694 -0.6403
  737MOL0     C97159   9.747   1.328   7.457  0.1687  0.6517 -0.6087
  737MOL0     O97160   9.682   1.243   7.540  0.6048 -0.8716 -0.5076
  737MOL0     C97161   9.593   1.137   7.482  0.9626 -1.2433  0.3239
  737MOL0     C97162   9.582   1.017   7.579 -0.1386 -0.0069  0.3177
  737MOL0     C97163   9.695   0.926   7.564 -0.2953 -0.4512  0.3055
  737MOL0     C97164   9.694   0.810   7.670 -0.7015 -0.2001 -0.0818
  737MOL0     C97165   9.766   0.690   7.620 -0.2660  0.9227  0.6082
  737MOL0     C97166   9.922   0.707   7.625  0.6946 -0.5641  0.8761
  737MOL0     C97167   9.985   0.574   7.565 -0.3283 -0.1991 -0.7440
  737MOL0     C97168  10.143   0.591   7.578  0.5136  0.1930 -0.3056
  737MOL0     N97169  10.207   0.495   7.489  0.3448 -0.8240 -0.5368
  737MOL0     C97170  10.263   0.377   7.524 -0.8519  0.5322  0.4872
  737MOL0     C97171  10.297   0.310   7.406 -0.3906 -0.1398 -0.3651
  737MOL0     C97172  10.374   0.183   7.389  0.3030  0.5341  0.3827
  737MOL0     C97173  10.291   0.059   7.402 -0.2874 -0.7078 -1.5976
  737MOL0     C97174  10.205   0.060   7.276 -0.1472 -0.2687  0.3501
  737MOL0     C97175  10.119  -0.060   7.261 -0.0573 -0.1975  0.2226
  737MOL0     O97176  10.013  -0.065   7.360 -0.4904 -0.0347 -0.0327
  737MOL0     C97177   9.908   0.013   7.342  0.7188  0.3541  0.2449
  737MOL0     C97178   9.847   0.076   7.451  0.3470  0.2303 -0.8948
  737MOL0     C97179   9.732   0.145   7.450 -0.0615  0.2844 -0.1967
  737MOL0     C97180   9.681   0.177   7.317  1.0388  0.2220 -0.1221
  737MOL0     C97181   9.569   0.274   7.309  0.2474  0.1292 -0.1991
  737MOL0     O97182   9.558   0.369   7.412  0.4952  0.8062  0.0230
  737MOL0     C97183   9.449   0.445   7.436 -0.0137  0.1092  0.5088
  737MOL0     C97184   9.382   0.511   7.336 -0.4769 -0.1793 -0.6237
  737MOL0     C97185   9.281   0.603   7.368 -0.2631 -0.3153 -0.9099
  737MOL0     C97186   9.259   0.642   7.499  0.1457 -1.4791 -0.5479
  737MOL0     O97187   9.190   0.751   7.520 -0.1203 -0.1122 -0.3184
  737MOL0     C97188   9.119   0.762   7.648  1.0512  1.1059 -0.4332
  737MOL0     C97189   9.197   0.850   7.746 -0.1244  1.1642 -0.6240
  737MOL0     C97190   9.196   1.000   7.711 -0.2638 -0.1484 -0.2099
  737MOL0     C97191   9.307   1.070   7.796  0.0520 -0.2589  0.2090
  737MOL0     C97192   9.259   1.102   7.942  0.6372 -0.1582  0.5890
  737MOL0     C97193   9.170   1.232   7.951 -0.2418 -0.0628 -1.0090
  737MOL0     C97194   9.108   1.248   8.086  0.4488 -0.2972  0.4499
  737MOL0     C97195   9.088   1.400   8.113  0.4603  0.5225 -0.1760
  737MOL0    Cl97196   8.995   1.486   7.985  0.3027  0.3384  0.3408
  737MOL0     C97197   9.314   0.565   7.598 -0.1124 -0.2445  0.4651
  737MOL0     C97198   9.407   0.466   7.570  0.0764 -0.2301 -0.4371
  737MOL0     O97199   9.489   0.251   7.225 -0.1969  0.0713  0.4020
  737MOL0     C97200   9.735   0.121   7.198  0.6361  0.2799 -0.7999
  737MOL0     C97201   9.846   0.039   7.216 -0.7429 -0.0704 -0.5044
  737MOL0     N97202  10.255   0.398   7.305  0.3991 -0.0679  0.3085
  737MOL0     N97203  10.212   0.509   7.358 -0.3106  0.0277 -0.0509
  737MOL0     C97204   9.681   1.425   7.381  0.1950 -0.0305 -0.9708
  737MOL0     C97205   9.759   1.494   7.288 -0.3378 -0.2345  0.1920
  737MOL0     C97206  10.202   1.611   7.115 -0.3515 -0.7904 -0.0927
  737MOL0     C97207  10.159   1.633   6.982 -0.2524 -0.6749  0.1142
  737MOL0     C97208  10.250   1.664   6.881 -0.5247  0.0349 -1.0078
  737MOL0     C97209  10.385   1.665   6.915  1.0922  0.0281  0.3347
  737MOL0     O97210  10.473   1.676   6.812 -0.6905 -0.1172 -0.8334
  737MOL0     C97211  10.601   1.611   6.825 -0.6801  0.6750  0.4081
  737MOL0     C97212  10.654   1.578   6.682 -0.6530 -0.5986  0.0943
  737MOL0     C97213  10.789   1.521   6.698 -0.4523  1.1131 -0.6053
  737MOL0     C97214  10.905   1.619   6.719 -1.0178 -0.5620 -0.0477
  737MOL0     C97215  11.029   1.572   6.785 -0.0617 -0.2163 -0.2923
  737MOL0     C97216  11.123   1.518   6.828 -1.1442 -0.1249 -0.7976
  737MOL0     C97217  10.429   1.644   7.041 -0.3453 -0.1643  0.5020
  737MOL0     C97218  10.336   1.624   7.145 -0.1250  0.2493  0.0091
  737MOL0     H97219  10.057   1.365   7.350 -0.0582  0.2541 -1.9545
  737MOL0     H97220   9.926   1.218   7.504  2.2781 -0.7226 -2.4052
  737MOL0     H97221   9.630   1.116   7.382  0.2936  1.7762 -0.6538
  737MOL0     H97222   9.494   1.181   7.468  0.2453 -3.3439 -1.6149
  737MOL0     H97223   9.485   0.970   7.560 -0.0175 -0.1508  0.0586
  737MOL0     H97224   9.583   1.065   7.678  0.0610  1.0116 -0.1630
  737MOL0     H97225   9.794   0.971   7.570 -1.2710  2.3070 -1.9681
  737MOL0     H97226   9.684   0.903   7.458  1.1706  1.4069 -0.3082
  737MOL0     H97227   9.728   0.851   7.765  1.4767  0.1111 -0.9557
  737MOL0     H97228   9.597   0.761   7.685 -0.3227 -0.6865  0.8295
  737MOL0     H97229   9.731   0.654   7.523 -0.4965 -1.0465  1.3651
  737MOL0     H97230   9.742   0.605   7.685 -0.0467  1.3531  1.2679
  737MOL0     H97231   9.953   0.731   7.727 -0.5802  0.2416  1.0861
  737MOL0     H97232   9.958   0.791   7.565  0.8633 -0.4497  1.1354
  737MOL0     H97233   9.952   0.486   7.622 -0.9698 -0.6419 -1.7635
  737MOL0     H97234   9.957   0.555   7.460 -3.4994 -0.9865  0.1371
  737MOL0     H97235  10.184   0.580   7.679 -0.8523  1.2619  0.3968
  737MOL0     H97236  10.180   0.687   7.541 -0.1602 -0.7214 -3.6247
  737MOL0     H97237  10.284   0.329   7.620  2.3700  3.1795  1.2910
  737MOL0     H97238  10.455   0.173   7.463 -3.0056  2.6945  4.7278
  737MOL0     H97239  10.409   0.193   7.286 -1.5414 -0.5108 -0.3880
  737MOL0     H97240  10.226   0.078   7.488 -1.4673 -0.3956 -2.5141
  737MOL0     H97241  10.347  -0.033   7.418 -0.6131 -1.0386 -2.2880
  737MOL0     H97242  10.141   0.149   7.277 -1.0293 -0.7580 -2.5048
  737MOL0     H97243  10.268   0.070   7.188  0.9098  0.7188  1.2014
  737MOL0     H97244  10.191  -0.143   7.266 -1.0281 -1.0520  0.4196
  737MOL0     H97245  10.089  -0.075   7.157 -0.6251 -3.3040  0.7329
  737MOL0     H97246   9.891   0.063   7.549  1.5900 -1.0287 -1.5928
  737MOL0     H97247   9.695   0.187   7.543  0.2973 -0.6085  0.3640
  737MOL0     H97248   9.420   0.489   7.237  1.4583 -1.5407  0.3446
  737MOL0     H97249   9.232   0.670   7.298 -1.3438 -0.3016 -0.1687
  737MOL0     H97250   9.090   0.667   7.695 -1.3748  1.0442 -1.8832
  737MOL0     H97251   9.023   0.809   7.627  1.1748  1.1661 -0.8834
  737MOL0     H97252   9.296   0.810   7.769 -1.6760 -2.5625  0.2615
  737MOL0     H97253   9.139   0.845   7.838 -0.3154  1.8931 -0.6968
  737MOL0     H97254   9.092   1.030   7.726 -0.4403 -0.7605 -0.1920
  737MOL0     H97255   9.222   1.015   7.606  3.0491  0.4867  0.5730
  737MOL0     H97256   9.404   1.020   7.802 -0.8943 -2.2953 -0.6471
  737MOL0     H97257   9.312   1.171   7.753 -1.7596  0.3739  1.3645
  737MOL0     H97258   9.350   1.120   8.000  0.2750  1.1784  0.7678
  737MOL0     H97259   9.210   1.011   7.977 -0.9505  0.5048  0.1469
  737MOL0     H97260   9.085   1.233   7.882 -2.5750  0.3301  1.6461
  737MOL0     H97261   9.233   1.316   7.924 -0.7781  0.7408  0.1562
  737MOL0     H97262   9.021   1.182   8.096  0.5625 -0.4189  0.6440
  737MOL0     H97263   9.171   1.205   8.164 -1.1541 -1.0383  1.3895
  737MOL0     H97264   9.187   1.446   8.122  1.1376 -1.2873  3.5366
  737MOL0     H97265   9.035   1.410   8.208  0.9753  2.9097 -0.0961
  737MOL0     H97266   9.286   0.591   7.700 -0.3170  3.7882 -0.4323
  737MOL0     H97267   9.456   0.409   7.648 -0.3383  0.4503  0.3411
  737MOL0     H97268   9.686   0.140   7.103 -0.5820 -0.5620 -0.3697
  737MOL0     H97269   9.883  -0.004   7.123  1.1834  3.6623 -1.6369
  737MOL0     H97270   9.575   1.438   7.399  0.2399 -1.7765  0.8089
  737MOL0     H97271   9.707   1.574   7.236 -0.8816 -0.6543  0.0911
  737MOL0     H97272  10.052   1.627   6.962 -0.6402 -1.6797  2.2509
  737MOL0     H97273  10.221   1.681   6.778 -0.2527 -1.0405 -1.2705
  737MOL0     H97274  10.593   1.516   6.880  0.4644 -1.1822 -2.4163
  737MOL0     H97275  10.682   1.664   6.876  1.4440 -2.0317  0.0662
  737MOL0     H97276  10.599   1.500   6.628 -0.2465 -1.2996  0.6682
  737MOL0     H97277  10.648   1.667   6.618 -2.1504 -0.9858 -0.3341
  737MOL0     H97278  10.808   1.451   6.616 -1.6973  0.1691 -0.1433
  737MOL0     H97279  10.787   1.453   6.784  1.4387 -0.1495 -1.4972
  737MOL0     H97280  10.934   1.663   6.623  1.4037 -0.1848  0.7980
  737MOL0     H97281  10.885   1.708   6.779  3.4690  0.3692  0.4082
  737MOL0     H97282  11.207   1.479   6.882  0.7640  3.0687 -1.2134
  737MOL0     H97283  10.534   1.658   7.065 -0.4828  1.7402  0.1936
  737MOL0     H97284  10.363   1.598   7.247 -0.9616  1.2117  0.4909
  738MOL0     O97285  10.863   8.944  10.652 -0.0338 -0.2463 -0.5079
  738MOL0     C97286  10.861   8.904  10.769 -0.0759 -0.5880  0.5307
  738MOL0     O97287  10.782   8.957  10.869  0.2942  0.2562 -0.6471
  738MOL0     C97288  10.670   9.034  10.860  0.2130 -0.5390  0.0627
  738MOL0     C97289  10.605   9.069  10.739  0.1064  0.2433  0.5231
  738MOL0     C97290  10.487   9.146  10.742  0.4932  0.9632 -1.5919
  738MOL0     C97291  10.429   9.190  10.860 -0.1540  0.5850  0.4649
  738MOL0     O97292  10.306   9.254  10.851 -0.0477  0.7873 -0.6299
  738MOL0     C97293  10.266   9.344  10.958 -0.9775 -0.0182 -0.7109
  738MOL0     C97294  10.157   9.432  10.915  0.5637 -0.5174  0.4679
  738MOL0     C97295  10.076   9.484  11.029 -0.5734 -0.8210  0.5141
  738MOL0     C97296   9.970   9.589  11.006 -1.1424  0.2891  0.1153
  738MOL0     C97297   9.864   9.567  11.119  0.6007  0.3227  0.6574
  738MOL0     C97298   9.749   9.662  11.108 -0.3047  0.0901  0.7321
  738MOL0     C97299   9.657   9.642  10.984 -0.7359 -0.5499  1.0424
  738MOL0     C97300   9.567   9.768  10.937 -0.7239  0.2832 -0.0924
  738MOL0     N97301   9.486   9.811  11.054 -0.0458  0.2115  0.0510
  738MOL0     C97302   9.380   9.747  11.107  0.6663 -0.8948 -0.0966
  738MOL0     C97303   9.349   9.812  11.221 -0.5814  0.4585 -0.1493
  738MOL0     C97304   9.263   9.771  11.337  0.6827 -0.6136  0.2742
  738MOL0     C97305   9.129   9.841  11.315 -0.2214  0.3720  0.5134
  738MOL0     C97306   9.032   9.775  11.415 -0.1259  0.1498 -0.5280
  738MOL0     C97307   8.890   9.847  11.410  0.1681 -0.4570  0.3509
  738MOL0     O97308   8.793   9.759  11.468 -0.0555  0.1247 -0.4427
  738MOL0     C97309   8.660   9.802  11.479  0.6271 -0.6110 -0.4521
  738MOL0     C97310   8.580   9.724  11.559  0.0031 -0.2348  0.1934
  738MOL0     C97311   8.448   9.740  11.563  0.1103  0.8118  0.6910
  738MOL0     C97312   8.390   9.839  11.488 -0.1656 -0.9033  1.2415
  738MOL0     C97313   8.246   9.855  11.492 -0.0970 -0.3513  0.6293
  738MOL0     O97314   8.185   9.779  11.592 -0.6009 -0.4081  0.4648
  738MOL0     C97315   8.043   9.780  11.610 -0.7273  0.5020 -0.4217
  738MOL0     C97316   7.955   9.893  11.583 -0.5211  0.3122 -0.1452
  738MOL0     C97317   7.821   9.878  11.616  0.0203 -0.5860 -0.0798
  738MOL0     C97318   7.762   9.764  11.673 -0.8653  0.5566  0.6593
  738MOL0     O97319   7.628   9.742  11.701  0.1059 -0.4963 -0.2379
  738MOL0     C97320   7.536   9.805  11.613 -0.4669 -0.0140  0.0361
  738MOL0     C97321   7.417   9.720  11.624 -0.2838 -0.0363 -0.3832
  738MOL0     C97322   7.304   9.789  11.543  0.6441 -0.1746 -0.0933
  738MOL0     C97323   7.191   9.701  11.529  0.2598  0.6949  0.6669
  738MOL0     C97324   7.067   9.770  11.476 -1.2342  0.1075 -0.3880
  738MOL0     C97325   6.960   9.667  11.429  0.0026  0.2423 -0.6396
  738MOL0     C97326   6.888   9.607  11.557 -0.3973  0.2396  0.1512
  738MOL0     C97327   6.862   9.455  11.536 -0.4273  0.4310  0.9261
  738MOL0    Cl97328   6.741   9.439  11.400  0.4537  0.3198 -0.5292
  738MOL0     C97329   7.848   9.660  11.699  0.3424  0.5571  0.5713
  738MOL0     C97330   7.984   9.667  11.673  0.5625  0.1205 -0.2499
  738MOL0     O97331   8.186   9.927  11.410 -0.2782 -0.2238  0.5360
  738MOL0     C97332   8.467   9.922  11.403 -0.6047  0.5064 -1.2156
  738MOL0     C97333   8.607   9.911  11.407 -1.0141  0.3871 -0.1674
  738MOL0     N97334   9.444   9.912  11.231 -0.2909 -0.0435 -0.0867
  738MOL0     N97335   9.519   9.919  11.131  0.6111  0.0640  0.1181
  738MOL0     C97336  10.501   9.159  10.978  0.7452  0.4258 -0.3024
  738MOL0     C97337  10.619   9.083  10.984  0.0819  0.1734  0.4061
  738MOL0     C97338  10.981   8.829  10.812 -0.6988  1.0252  0.0538
  738MOL0     C97339  11.075   8.790  10.721  0.1659  0.0530  0.4390
  738MOL0     C97340  11.187   8.725  10.766 -0.5167 -0.2343  0.3915
  738MOL0     C97341  11.200   8.682  10.898 -0.1385  0.3438  0.3135
  738MOL0     O97342  11.308   8.631  10.954  0.2491  0.0145 -0.2279
  738MOL0     C97343  11.428   8.593  10.887  0.2063 -0.2481  0.8709
  738MOL0     C97344  11.418   8.455  10.815  0.2582  0.1550 -0.2188
  738MOL0     C97345  11.372   8.344  10.917 -0.4598  0.5638  0.7010
  738MOL0     C97346  11.344   8.211  10.840 -0.3833  0.6021 -0.1744
  738MOL0     C97347  11.205   8.196  10.789  0.5574 -0.5829  0.4440
  738MOL0     C97348  11.094   8.169  10.757  0.0701  0.3735 -0.4237
  738MOL0     C97349  11.106   8.717  10.987 -0.4311 -0.3478 -0.1120
  738MOL0     C97350  10.997   8.790  10.946  0.1217 -0.1524 -0.6415
  738MOL0     H97351  10.635   9.030  10.642 -1.3569 -1.4260  0.6767
  738MOL0     H97352  10.429   9.160  10.651 -0.6417  0.8819 -0.9067
  738MOL0     H97353  10.350   9.407  10.990 -0.3489 -0.6517 -1.0684
  738MOL0     H97354  10.241   9.288  11.049  2.3874 -1.2168 -0.3692
  738MOL0     H97355  10.098   9.387  10.835  2.6397  1.6121 -2.4519
  738MOL0     H97356  10.202   9.513  10.858 -1.1861  0.1874  0.0232
  738MOL0     H97357  10.142   9.515  11.111 -0.5436  1.0991 -0.1825
  738MOL0     H97358  10.031   9.391  11.064  1.7651 -2.0022  0.5489
  738MOL0     H97359  10.017   9.688  11.009  1.0766 -0.6672 -0.8771
  738MOL0     H97360   9.929   9.591  10.904  1.9425  1.3299 -1.2412
  738MOL0     H97361   9.911   9.586  11.216 -0.8595  3.6433  0.8374
  738MOL0     H97362   9.818   9.468  11.111 -0.2216  0.7415  0.0396
  738MOL0     H97363   9.783   9.766  11.114  0.4913 -0.1116 -0.0772
  738MOL0     H97364   9.694   9.635  11.199  0.3090 -3.3729  0.2238
  738MOL0     H97365   9.709   9.615  10.891  1.5993  4.2591  0.6371
  738MOL0     H97366   9.586   9.560  11.000 -0.6300 -1.4329 -2.2376
  738MOL0     H97367   9.518   9.740  10.844  1.4165 -0.6645 -1.0162
  738MOL0     H97368   9.636   9.847  10.904 -1.3599  1.5372  1.4486
  738MOL0     H97369   9.344   9.651  11.072  1.0699 -0.5939 -1.3867
  738MOL0     H97370   9.299   9.793  11.438  0.7684  1.8581 -0.2421
  738MOL0     H97371   9.242   9.663  11.335  0.3570 -0.6090  1.9178
  738MOL0     H97372   9.101   9.796  11.219  3.3204  0.3617 -0.6705
  738MOL0     H97373   9.126   9.950  11.302  0.0076  0.2509 -0.7506
  738MOL0     H97374   9.021   9.668  11.396 -0.0366 -0.1274  0.8695
  738MOL0     H97375   9.073   9.792  11.515 -1.0751  1.7626 -0.3845
  738MOL0     H97376   8.866   9.855  11.304 -1.6099 -0.8289  0.6942
  738MOL0     H97377   8.897   9.943  11.463  1.1826 -0.7975  0.8466
  738MOL0     H97378   8.620   9.646  11.623 -1.0457 -1.3847 -0.5074
  738MOL0     H97379   8.392   9.671  11.627 -1.3561 -0.2395 -1.5801
  738MOL0     H97380   7.997   9.972  11.521  3.3775 -0.4926  1.1921
  738MOL0     H97381   7.743   9.950  11.594  1.5268  0.8070 -1.0360
  738MOL0     H97382   7.579   9.800  11.513  0.6000 -3.0544  0.5305
  738MOL0     H97383   7.506   9.905  11.645  0.6360 -0.5291  3.0147
  738MOL0     H97384   7.382   9.724  11.727 -0.6783  1.5245 -0.5581
  738MOL0     H97385   7.432   9.616  11.592 -3.6159 -0.4268 -1.0722
  738MOL0     H97386   7.343   9.818  11.445  3.0489 -1.2056  0.4838
  738MOL0     H97387   7.276   9.885  11.588 -1.8314 -1.9765  2.6051
  738MOL0     H97388   7.226   9.635  11.448 -1.5834  1.2724 -0.6563
  738MOL0     H97389   7.174   9.636  11.616  1.5150  0.0235  0.4493
  738MOL0     H97390   7.098   9.830  11.389 -0.9807  4.2144  2.2603
  738MOL0     H97391   7.030   9.838  11.553 -1.8446 -0.2172 -0.3909
  738MOL0     H97392   6.999   9.579  11.376 -3.4204 -2.2613  0.5810
  738MOL0     H97393   6.885   9.709  11.360  0.7474 -1.1819 -2.4136
  738MOL0     H97394   6.946   9.623  11.649 -1.4515 -4.4866  1.9238
  738MOL0     H97395   6.791   9.656  11.565  0.9950  3.2543  0.2052
  738MOL0     H97396   6.819   9.407  11.624 -0.0452 -4.0419 -1.0526
  738MOL0     H97397   6.957   9.401  11.530 -0.1657  0.6899  2.3385
  738MOL0     H97398   7.807   9.574  11.751  0.7098  0.3855  0.5749
  738MOL0     H97399   8.050   9.589  11.710 -0.4405 -0.2642  0.7727
  738MOL0     H97400   8.422   9.994  11.336 -1.2769  1.8043  0.5416
  738MOL0     H97401   8.672   9.967  11.341 -0.4048 -1.2553 -1.0278
  738MOL0     H97402  10.457   9.189  11.073  1.8712 -1.9379  1.0589
  738MOL0     H97403  10.662   9.046  11.076  0.9718  0.6438  0.1849
  738MOL0     H97404  11.060   8.814  10.616 -0.1148 -2.1164 -0.0638
  738MOL0     H97405  11.265   8.693  10.697  0.6433  0.4506  1.3448
  738MOL0     H97406  11.507   8.588  10.962  0.4305  0.1134  0.6654
  738MOL0     H97407  11.457   8.657  10.803  0.9432 -1.2816  0.3192
  738MOL0     H97408  11.352   8.463  10.728 -0.4469  0.9030  0.3795
  738MOL0     H97409  11.516   8.416  10.786 -1.1506 -4.1962  0.1240
  738MOL0     H97410  11.287   8.369  10.981  0.1736  0.0725  1.7676
  738MOL0     H97411  11.459   8.326  10.981  1.9492  0.2391 -2.4455
  738MOL0     H97412  11.421   8.198  10.763  0.7439  2.2645  0.6090
  738MOL0     H97413  11.365   8.131  10.912 -0.3411  2.1603  1.6013
  738MOL0     H97414  10.993   8.134  10.750 -0.1511  0.6258  1.1949
  738MOL0     H97415  11.129   8.688  11.090  2.8107 -0.2191 -0.6984
  738MOL0     H97416  10.920   8.802  11.022  1.3924  0.2797  0.6191
  739MOL0     O97417   7.804   0.584   1.359  0.2452  0.3379  0.2937
  739MOL0     C97418   7.916   0.555   1.401  0.3948 -0.1593  1.2499
  739MOL0     O97419   7.955   0.508   1.521  0.1628  0.1388  0.1756
  739MOL0     C97420   7.871   0.488   1.622  0.2727 -0.1087 -0.6980
  739MOL0     C97421   7.922   0.515   1.746 -0.5975 -0.8615  0.5715
  739MOL0     C97422   7.853   0.507   1.869  0.0759 -0.6645 -0.0173
  739MOL0     C97423   7.713   0.479   1.856 -0.1390 -0.7679  0.3357
  739MOL0     O97424   7.640   0.490   1.972 -0.8306  0.0925  0.1672
  739MOL0     C97425   7.507   0.509   1.965  0.4946 -0.0273 -0.1160
  739MOL0     C97426   7.447   0.560   2.093 -0.0677 -0.1827  0.4055
  739MOL0     C97427   7.318   0.498   2.144  0.6191  0.1872 -0.3754
  739MOL0     C97428   7.262   0.578   2.265 -0.3424 -0.2964 -1.0124
  739MOL0     C97429   7.119   0.530   2.293  0.6855 -0.1894 -0.4563
  739MOL0     C97430   7.093   0.579   2.436 -0.8493  0.3186 -0.0735
  739MOL0     C97431   6.963   0.520   2.500  0.4029 -0.1390  0.9993
  739MOL0     C97432   6.831   0.581   2.443  0.2236  0.5607 -0.1096
  739MOL0     N97433   6.719   0.498   2.481  0.6860 -0.5733 -0.6967
  739MOL0     C97434   6.691   0.368   2.457 -0.5802 -0.0744 -0.3367
  739MOL0     C97435   6.566   0.353   2.510 -0.2992  1.1301 -0.2361
  739MOL0     C97436   6.483   0.226   2.509 -0.2956  0.5922  0.1655
  739MOL0     C97437   6.351   0.236   2.591  0.7879 -0.2526  0.5939
  739MOL0     C97438   6.245   0.140   2.535  0.0024 -0.7777  0.0310
  739MOL0     C97439   6.123   0.142   2.627 -0.1966  0.8762  0.2650
  739MOL0     O97440   6.012   0.059   2.573 -0.2478  0.4521 -0.0977
  739MOL0     C97441   5.899   0.057   2.647  0.4203  0.0404 -0.9210
  739MOL0     C97442   5.787   0.029   2.572 -0.8716  0.2022  0.6139
  739MOL0     C97443   5.661   0.026   2.623 -0.6507  0.3943 -0.6989
  739MOL0     C97444   5.643   0.069   2.752  0.1120 -0.1841  0.5366
  739MOL0     C97445   5.512   0.050   2.819 -0.5617 -0.4568 -0.7737
  739MOL0     O97446   5.411   0.005   2.747  0.7049  0.2518 -0.2406
  739MOL0     C97447   5.294  -0.027   2.813  0.6955  0.7776 -0.3475
  739MOL0     C97448   5.171   0.019   2.766  0.6409 -0.3865  0.0263
  739MOL0     C97449   5.047  -0.023   2.818 -0.1417  0.1228  0.0167
  739MOL0     C97450   5.047  -0.119   2.923  0.5636  0.0289  0.8762
  739MOL0     O97451   4.942  -0.171   2.986  0.6321 -0.0388 -0.5165
  739MOL0     C97452   4.813  -0.115   2.950 -0.3026  0.0851 -0.4829
  739MOL0     C97453   4.699  -0.185   3.024  0.3601  0.5775 -0.3511
  739MOL0     C97454   4.706  -0.196   3.174 -0.6882  0.3867 -0.9277
  739MOL0     C97455   4.579  -0.257   3.242  1.2246 -0.1633 -0.2495
  739MOL0     C97456   4.544  -0.389   3.176 -0.3148  0.2983  0.8835
  739MOL0     C97457   4.412  -0.459   3.233  0.1191  1.1292  0.5452
  739MOL0     C97458   4.411  -0.607   3.213 -0.4480 -0.7799 -0.1867
  739MOL0     C97459   4.320  -0.668   3.315  0.0968  0.9073 -0.0603
  739MOL0    Cl97460   4.154  -0.611   3.293 -0.2504 -0.2791 -0.0176
  739MOL0     C97461   5.168  -0.169   2.963  0.4388 -0.0105 -1.0517
  739MOL0     C97462   5.285  -0.132   2.904  0.2359 -0.9692  0.2495
  739MOL0     O97463   5.511   0.093   2.934 -0.2964 -0.2091  0.4087
  739MOL0     C97464   5.749   0.103   2.837  0.1215 -0.5490  0.3010
  739MOL0     C97465   5.881   0.100   2.782  0.1725 -0.0910 -0.0609
  739MOL0     N97466   6.520   0.479   2.551 -0.9471  0.3394 -0.0236
  739MOL0     N97467   6.615   0.557   2.540  0.1620  0.5225 -0.5772
  739MOL0     C97468   7.661   0.445   1.727 -0.3010 -0.4157 -0.2989
  739MOL0     C97469   7.736   0.462   1.614  0.2659  0.1213 -0.4568
  739MOL0     C97470   8.031   0.587   1.313 -0.0437  0.5211  0.0526
  739MOL0     C97471   8.163   0.562   1.349  0.1406 -0.3221  0.2363
  739MOL0     C97472   8.277   0.597   1.264  0.4084  0.5241  0.1427
  739MOL0     C97473   8.258   0.677   1.147 -0.5218  0.0196  0.0491
  739MOL0     O97474   8.372   0.708   1.075 -0.6079 -0.1832  0.4553
  739MOL0     C97475   8.361   0.792   0.963  0.2948  0.0732 -0.1410
  739MOL0     C97476   8.347   0.729   0.832 -0.2802 -0.2520  0.1886
  739MOL0     C97477   8.474   0.655   0.786 -0.4792  0.5626 -0.4766
  739MOL0     C97478   8.502   0.529   0.856  0.3895 -1.2456  0.0046
  739MOL0     C97479   8.627   0.474   0.808  0.4111 -0.7858  0.7248
  739MOL0     C97480   8.739   0.438   0.783 -0.5324  0.4186 -0.7108
  739MOL0     C97481   8.118   0.698   1.109  0.1725 -0.7526  1.0901
  739MOL0     C97482   8.011   0.649   1.183 -0.7867  0.1048  0.2232
  739MOL0     H97483   8.022   0.557   1.754 -0.7672 -0.4184  0.4360
  739MOL0     H97484   7.898   0.542   1.961 -0.0167  1.3431 -0.6680
  739MOL0     H97485   7.461   0.413   1.939 -0.9906  0.5853  0.1533
  739MOL0     H97486   7.486   0.577   1.881  1.1634 -0.9506 -1.0486
  739MOL0     H97487   7.428   0.668   2.094 -2.0820 -0.4916  2.2001
  739MOL0     H97488   7.521   0.538   2.171  0.2948 -0.2545  0.0449
  739MOL0     H97489   7.341   0.393   2.163  2.4687 -0.5246 -5.1394
  739MOL0     H97490   7.244   0.502   2.063  1.9162 -1.3109 -1.7009
  739MOL0     H97491   7.330   0.559   2.349 -1.8664  2.5348  1.0739
  739MOL0     H97492   7.252   0.683   2.237  1.4802 -0.3156 -1.8292
  739MOL0     H97493   7.106   0.421   2.285  1.1669 -0.1663 -1.7872
  739MOL0     H97494   7.040   0.563   2.225  1.4258 -0.9141 -1.6827
  739MOL0     H97495   7.088   0.688   2.429 -0.6361  0.2708 -1.0156
  739MOL0     H97496   7.177   0.550   2.499 -1.8571 -0.1513  1.0891
  739MOL0     H97497   6.966   0.411   2.505 -0.2020 -0.2985 -1.2542
  739MOL0     H97498   6.967   0.559   2.603  1.5415  1.4955  0.3863
  739MOL0     H97499   6.829   0.597   2.335 -0.5158 -0.0136 -0.1864
  739MOL0     H97500   6.822   0.688   2.465 -0.1219  0.5412 -0.1630
  739MOL0     H97501   6.747   0.305   2.390 -0.6727 -1.2588  0.6787
  739MOL0     H97502   6.534   0.141   2.554 -0.2272  0.3784 -0.3032
  739MOL0     H97503   6.456   0.184   2.411 -0.0459 -3.1235  1.5593
  739MOL0     H97504   6.319   0.337   2.565  0.6414 -0.4541 -0.0035
  739MOL0     H97505   6.365   0.225   2.699  1.1312 -1.4066  0.4410
  739MOL0     H97506   6.223   0.165   2.431 -1.7965 -1.7176  0.1436
  739MOL0     H97507   6.281   0.037   2.537  1.8215 -0.1888 -0.7748
  739MOL0     H97508   6.094   0.248   2.630 -1.6720  0.4711  1.5983
  739MOL0     H97509   6.156   0.111   2.727  2.5045 -2.0052 -1.3602
  739MOL0     H97510   5.801  -0.007   2.470 -0.1529 -2.3460  1.5276
  739MOL0     H97511   5.573  -0.003   2.566  0.8705 -0.6131 -2.6379
  739MOL0     H97512   5.168   0.094   2.688 -1.7249 -0.7956 -0.3513
  739MOL0     H97513   4.955   0.014   2.775 -0.1815 -1.0987 -1.0328
  739MOL0     H97514   4.784  -0.129   2.845 -3.9234  0.4825  0.3398
  739MOL0     H97515   4.815  -0.008   2.973 -0.7490  0.0409 -0.2349
  739MOL0     H97516   4.690  -0.278   2.966 -1.0513  0.8040 -0.5313
  739MOL0     H97517   4.616  -0.119   3.000  2.1724  2.4084 -2.0498
  739MOL0     H97518   4.725  -0.097   3.215  3.8024 -0.2977 -0.7717
  739MOL0     H97519   4.795  -0.248   3.212  0.3679  1.9544 -1.1344
  739MOL0     H97520   4.593  -0.282   3.347 -2.6727  0.5282  0.5979
  739MOL0     H97521   4.492  -0.191   3.249 -0.0163 -1.8546  1.2789
  739MOL0     H97522   4.632  -0.452   3.183 -0.6544 -0.7073 -2.2382
  739MOL0     H97523   4.524  -0.381   3.068  0.8402  1.6217  0.7432
  739MOL0     H97524   4.324  -0.433   3.174  0.2480 -1.4911 -0.9188
  739MOL0     H97525   4.403  -0.432   3.339 -0.2229  0.1389  0.7824
  739MOL0     H97526   4.376  -0.624   3.111 -0.7932 -0.1139 -0.1825
  739MOL0     H97527   4.516  -0.638   3.222  0.9293  3.2681 -0.1310
  739MOL0     H97528   4.350  -0.644   3.418 -0.2299  3.0933 -0.4428
  739MOL0     H97529   4.320  -0.778   3.313  1.1494  0.8419  1.6668
  739MOL0     H97530   5.174  -0.248   3.037  0.1356  1.7875  1.0056
  739MOL0     H97531   5.380  -0.170   2.939  1.3169  0.8722 -0.5637
  739MOL0     H97532   5.753   0.126   2.943 -0.9911 -4.9450  1.4892
  739MOL0     H97533   5.958   0.109   2.858  1.2165 -0.3916 -1.0542
  739MOL0     H97534   7.554   0.427   1.732 -0.8714  2.0982 -1.5801
  739MOL0     H97535   7.693   0.442   1.516  0.5163 -1.4877 -0.2655
  739MOL0     H97536   8.195   0.519   1.444  1.0172 -0.4483 -0.1032
  739MOL0     H97537   8.371   0.548   1.287  0.1183  0.2703  0.7902
  739MOL0     H97538   8.459   0.839   0.951 -0.7609  2.0606 -1.3683
  739MOL0     H97539   8.288   0.870   0.986  1.3090  0.3260  2.5066
  739MOL0     H97540   8.272   0.650   0.842 -0.3596 -0.0398  1.4913
  739MOL0     H97541   8.313   0.807   0.764 -0.3180 -0.0168  0.4754
  739MOL0     H97542   8.562   0.720   0.788  1.3206 -1.6822 -1.9922
  739MOL0     H97543   8.459   0.636   0.680  1.9340  0.3752 -0.8468
  739MOL0     H97544   8.515   0.559   0.960  0.1352 -2.6493  0.4659
  739MOL0     H97545   8.416   0.461   0.847 -1.2366  0.5275  1.1825
  739MOL0     H97546   8.832   0.391   0.761  1.2058  3.8134 -1.2640
  739MOL0     H97547   8.100   0.742   1.011  3.2955  1.6408  1.4265
  739MOL0     H97548   7.909   0.665   1.148 -0.5665 -0.3661 -0.6645
  740MOL0     O97549   0.877   7.486   3.716  0.6224 -0.0135  0.3585
  740MOL0     C97550   0.861   7.586   3.654  0.8675 -0.1967 -1.1963
  740MOL0     O97551   0.751   7.611   3.571 -0.0217 -0.3790  0.1739
  740MOL0     C97552   0.646   7.524   3.582  0.9561  0.6683 -0.7400
  740MOL0     C97553   0.531   7.561   3.646  0.6673 -0.3573 -0.0055
  740MOL0     C97554   0.422   7.471   3.650 -0.0239 -0.8559 -0.6923
  740MOL0     C97555   0.428   7.348   3.580 -0.0153  0.0652 -1.1781
  740MOL0     O97556   0.323   7.265   3.613 -0.3373  0.6619  0.9838
  740MOL0     C97557   0.264   7.186   3.505 -0.0873 -0.0294 -0.3479
  740MOL0     C97558   0.143   7.256   3.437 -0.2485 -1.0191  0.2603
  740MOL0     C97559   0.067   7.172   3.325  0.0514  0.0737 -0.9066
  740MOL0     C97560  -0.051   7.253   3.280 -0.1706 -0.2496 -0.6340
  740MOL0     C97561  -0.110   7.197   3.152 -0.3715 -0.8655  0.1301
  740MOL0     C97562  -0.197   7.299   3.088  0.1055 -0.3892 -0.1994
  740MOL0     C97563  -0.262   7.234   2.961  0.4425  0.3340  0.5276
  740MOL0     C97564  -0.367   7.314   2.887 -0.0704 -0.4618  0.2135
  740MOL0     N97565  -0.301   7.426   2.820 -0.6123 -0.0489  0.5000
  740MOL0     C97566  -0.292   7.554   2.866 -0.6962 -0.0424  0.0029
  740MOL0     C97567  -0.226   7.617   2.766 -0.5952 -0.4412 -0.3737
  740MOL0     C97568  -0.194   7.767   2.761  0.3648  0.9225  0.4473
  740MOL0     C97569  -0.307   7.854   2.715 -0.3611 -0.4201  0.5786
  740MOL0     C97570  -0.364   7.812   2.583 -0.3180  0.7696  0.2579
  740MOL0     C97571  -0.489   7.728   2.596  0.3823 -0.1440 -0.0750
  740MOL0     O97572  -0.604   7.819   2.624  0.9672 -0.4538  0.1364
  740MOL0     C97573  -0.725   7.809   2.560  0.3073 -0.0194  0.4666
  740MOL0     C97574  -0.810   7.917   2.548  0.4084  0.1807 -0.0192
  740MOL0     C97575  -0.933   7.903   2.493  0.1084 -0.1036  0.5243
  740MOL0     C97576  -0.980   7.779   2.441  0.7173  0.5454 -0.1211
  740MOL0     C97577  -1.114   7.760   2.372  0.2363 -0.2275 -0.2460
  740MOL0     O97578  -1.197   7.866   2.374  0.2005 -0.1575 -0.4056
  740MOL0     C97579  -1.329   7.854   2.338  0.1740 -1.1928 -0.3037
  740MOL0     C97580  -1.429   7.908   2.421 -0.0814 -0.0450  0.0850
  740MOL0     C97581  -1.560   7.894   2.397  0.8553  0.3669  0.0045
  740MOL0     C97582  -1.610   7.818   2.289 -0.5420 -0.5955  0.2143
  740MOL0     O97583  -1.736   7.787   2.255 -0.5706 -0.5276 -0.2372
  740MOL0     C97584  -1.844   7.820   2.338  0.0243 -1.2752  0.1352
  740MOL0     C97585  -1.983   7.812   2.267 -0.5878 -0.4761  1.2621
  740MOL0     C97586  -2.095   7.883   2.348  0.5477 -0.2843  0.4248
  740MOL0     C97587  -2.237   7.845   2.294 -0.0332 -0.4445 -0.0333
  740MOL0     C97588  -2.332   7.908   2.384 -0.0599 -0.4985  0.1852
  740MOL0     C97589  -2.469   7.849   2.359  1.3290 -0.4655 -0.6977
  740MOL0     C97590  -2.580   7.954   2.380 -0.4603 -0.3960 -0.6581
  740MOL0     C97591  -2.724   7.899   2.402 -0.1181 -0.3007  0.1540
  740MOL0    Cl97592  -2.751   7.769   2.273  0.5366 -0.1111  0.3668
  740MOL0     C97593  -1.515   7.759   2.208 -0.1710 -0.7538  0.3675
  740MOL0     C97594  -1.379   7.780   2.226  0.2825  0.2585  0.0189
  740MOL0     O97595  -1.131   7.654   2.307 -0.2391 -0.6205  0.2487
  740MOL0     C97596  -0.899   7.671   2.468  0.3204  1.2602 -0.4427
  740MOL0     C97597  -0.779   7.684   2.524 -0.5957  0.2409  1.2388
  740MOL0     N97598  -0.202   7.531   2.660 -0.4898  0.2105 -1.3268
  740MOL0     N97599  -0.235   7.416   2.707 -0.3332  0.2171  0.2026
  740MOL0     C97600   0.543   7.312   3.515 -0.5400 -1.2046 -0.1931
  740MOL0     C97601   0.652   7.397   3.518  0.4427 -0.1631  0.1679
  740MOL0     C97602   0.992   7.651   3.614 -0.2452  0.8732  0.9238
  740MOL0     C97603   0.999   7.766   3.537  0.8856 -0.0916  1.3015
  740MOL0     C97604   1.124   7.821   3.500 -0.1284  0.1641 -0.2255
  740MOL0     C97605   1.242   7.760   3.545  0.1082  0.6424  1.3971
  740MOL0     O97606   1.368   7.803   3.525 -0.5613 -0.0549  0.1367
  740MOL0     C97607   1.404   7.880   3.411 -0.3210  0.2389 -0.2134
  740MOL0     C97608   1.553   7.901   3.411 -0.0193 -0.2854 -0.3032
  740MOL0     C97609   1.623   7.930   3.547  0.0580 -0.3485 -0.4301
  740MOL0     C97610   1.776   7.925   3.524 -0.5171  0.1505 -0.3799
  740MOL0     C97611   1.858   7.949   3.651  0.7197  1.0927  0.7929
  740MOL0     C97612   1.916   7.949   3.756 -0.3281  0.0902 -0.0629
  740MOL0     C97613   1.238   7.644   3.624 -1.1551  0.4530  0.8671
  740MOL0     C97614   1.114   7.592   3.661 -0.2744  0.1257 -0.3510
  740MOL0     H97615   0.505   7.654   3.696 -0.5544 -2.1034  2.7980
  740MOL0     H97616   0.332   7.487   3.708  0.9308 -0.2842  0.6866
  740MOL0     H97617   0.233   7.095   3.556  0.1938  0.3489  0.5238
  740MOL0     H97618   0.342   7.158   3.434 -1.4489  2.8016 -3.2612
  740MOL0     H97619   0.183   7.351   3.402 -1.2043 -0.3232  1.0201
  740MOL0     H97620   0.067   7.295   3.505  0.2311 -0.4852  0.4996
  740MOL0     H97621   0.041   7.076   3.371 -0.9549  1.4886  1.7329
  740MOL0     H97622   0.137   7.175   3.241 -1.1034  0.7832 -1.8667
  740MOL0     H97623  -0.129   7.253   3.356 -2.5555  3.3300 -2.7693
  740MOL0     H97624  -0.010   7.354   3.268 -1.3480  0.4546  0.9403
  740MOL0     H97625  -0.160   7.102   3.168 -2.3687  0.1660  0.2624
  740MOL0     H97626  -0.025   7.179   3.085  0.2513 -0.7794  0.8830
  740MOL0     H97627  -0.141   7.387   3.057 -0.1505 -1.1779 -3.2994
  740MOL0     H97628  -0.279   7.325   3.155  1.6617 -1.0225  2.0441
  740MOL0     H97629  -0.177   7.206   2.898  0.2524  3.2832 -1.2427
  740MOL0     H97630  -0.302   7.137   2.991 -1.5313  1.2320  0.9257
  740MOL0     H97631  -0.449   7.340   2.955  0.8594  2.1244  0.4977
  740MOL0     H97632  -0.408   7.251   2.808  0.0054  0.8382 -0.9026
  740MOL0     H97633  -0.322   7.593   2.962  0.6148  1.1661 -0.0247
  740MOL0     H97634  -0.102   7.789   2.704  0.2707  0.1561 -0.0206
  740MOL0     H97635  -0.157   7.793   2.860 -0.9604 -2.6551  2.0461
  740MOL0     H97636  -0.271   7.955   2.693 -1.0149 -0.4664 -0.8194
  740MOL0     H97637  -0.388   7.845   2.787 -0.3304 -1.9706  0.4552
  740MOL0     H97638  -0.399   7.903   2.533 -1.3883  1.0035  1.3911
  740MOL0     H97639  -0.295   7.751   2.523 -3.5120 -3.6686  0.5975
  740MOL0     H97640  -0.481   7.674   2.691  3.5049 -0.1398 -0.2555
  740MOL0     H97641  -0.498   7.658   2.513  1.4429 -0.8464  0.3883
  740MOL0     H97642  -0.785   8.018   2.578 -1.3077  0.5671  0.1918
  740MOL0     H97643  -0.997   7.986   2.464  1.5967  0.5042 -1.1794
  740MOL0     H97644  -1.390   7.964   2.505  1.1245  0.0002 -0.4842
  740MOL0     H97645  -1.632   7.929   2.470  0.8635  0.8988 -0.2374
  740MOL0     H97646  -1.820   7.920   2.375 -2.6139 -1.0044  1.3005
  740MOL0     H97647  -1.851   7.748   2.420 -1.7852 -1.3007 -0.0022
  740MOL0     H97648  -2.010   7.708   2.243 -0.0377 -0.1370 -1.0244
  740MOL0     H97649  -1.974   7.874   2.178  2.6362 -1.5531  0.7102
  740MOL0     H97650  -2.081   7.992   2.338  1.9733 -0.4937 -0.2151
  740MOL0     H97651  -2.077   7.851   2.451  2.0747 -2.8246 -0.5389
  740MOL0     H97652  -2.254   7.877   2.191  0.3045 -0.2866 -0.0454
  740MOL0     H97653  -2.255   7.738   2.304  1.3264 -0.7097 -0.2331
  740MOL0     H97654  -2.320   8.015   2.363  2.4376 -1.3001 -3.5772
  740MOL0     H97655  -2.307   7.904   2.490 -2.2554 -0.7787  0.7388
  740MOL0     H97656  -2.465   7.764   2.427  3.0613  0.0936 -0.0519
  740MOL0     H97657  -2.482   7.800   2.262 -2.0895  0.3318 -0.7830
  740MOL0     H97658  -2.546   8.013   2.465 -1.9110  0.2685 -0.5181
  740MOL0     H97659  -2.575   8.017   2.291  1.0164  0.8898  0.2945
  740MOL0     H97660  -2.793   7.983   2.389  0.8208  0.5964  0.8529
  740MOL0     H97661  -2.741   7.864   2.504 -2.0980  1.5114  0.5211
  740MOL0     H97662  -1.537   7.699   2.120  3.1981  0.7330 -1.7063
  740MOL0     H97663  -1.302   7.746   2.158  2.7220 -1.1222  3.1698
  740MOL0     H97664  -0.935   7.573   2.439  3.1808  0.9658 -3.6138
  740MOL0     H97665  -0.722   7.597   2.555 -0.2678  1.0935  3.2228
  740MOL0     H97666   0.556   7.219   3.460  1.3249 -0.8661 -0.4158
  740MOL0     H97667   0.747   7.372   3.471  0.1374 -1.6146  0.2786
  740MOL0     H97668   0.904   7.811   3.513  1.4420  1.2769  1.5933
  740MOL0     H97669   1.118   7.914   3.445 -0.4666  0.7163  0.7286
  740MOL0     H97670   1.354   7.978   3.416  1.4430  1.3216 -2.1225
  740MOL0     H97671   1.376   7.823   3.322  4.3604 -0.2048 -1.6796
  740MOL0     H97672   1.606   7.816   3.368  2.8544  1.1372  0.1855
  740MOL0     H97673   1.576   7.982   3.341 -0.9671 -1.4450 -2.0272
  740MOL0     H97674   1.601   7.854   3.623  0.1292 -1.7752 -1.7985
  740MOL0     H97675   1.591   8.029   3.582 -0.4351 -0.1921 -1.3070
  740MOL0     H97676   1.804   7.829   3.480 -2.2137  0.0463 -1.3138
  740MOL0     H97677   1.799   7.995   3.444 -0.9803  0.1666 -0.5014
  740MOL0     H97678   1.957   7.948   3.855  1.4405 -2.8507 -0.6967
  740MOL0     H97679   1.328   7.604   3.668 -2.9789 -2.7053  2.0655
  740MOL0     H97680   1.102   7.507   3.728 -1.8911  1.1352  0.6953
  741MOL0     O97681   4.252   0.952   8.396 -0.0586 -0.7593 -0.4556
  741MOL0     C97682   4.292   1.039   8.471 -0.7328  0.3409 -0.2998
  741MOL0     O97683   4.218   1.133   8.548 -0.1107 -0.2999  0.1256
  741MOL0     C97684   4.099   1.099   8.611 -0.2939 -0.5076 -0.0222
  741MOL0     C97685   4.067   0.964   8.642  0.5461  0.9477  0.8479
  741MOL0     C97686   3.956   0.943   8.724  0.4378  0.3030  0.4122
  741MOL0     C97687   3.875   1.046   8.777  0.0138  1.0368 -0.4804
  741MOL0     O97688   3.777   0.995   8.864 -0.2762  0.3799 -0.2937
  741MOL0     C97689   3.700   1.098   8.924  1.0458  0.1537 -0.7485
  741MOL0     C97690   3.633   1.062   9.058  0.3308 -0.2534 -0.3413
  741MOL0     C97691   3.738   1.031   9.169 -0.3657  0.8246  0.0308
  741MOL0     C97692   3.678   1.043   9.308  0.0488  0.1353  0.0606
  741MOL0     C97693   3.778   0.998   9.413 -0.1077  0.7084 -0.4276
  741MOL0     C97694   3.701   0.976   9.539  0.5702 -0.1385  0.2386
  741MOL0     C97695   3.774   0.915   9.657 -0.4317 -0.0947 -0.0231
  741MOL0     C97696   3.709   0.935   9.792  1.2546 -0.2330  0.2178
  741MOL0     N97697   3.565   0.901   9.790 -0.7058 -0.4465  0.1351
  741MOL0     C97698   3.470   0.994   9.744 -0.5210  0.0057  0.2166
  741MOL0     C97699   3.366   0.915   9.722 -0.4454 -0.7111 -0.5938
  741MOL0     C97700   3.241   0.958   9.642  0.0561  0.1710 -0.8897
  741MOL0     C97701   3.259   1.001   9.498 -0.7525 -1.1753 -0.9436
  741MOL0     C97702   3.328   0.894   9.411  0.0162  0.4016  0.2759
  741MOL0     C97703   3.303   0.911   9.264 -0.1818 -0.1900  0.7725
  741MOL0     O97704   3.296   0.784   9.193  0.3550 -0.4759 -0.1632
  741MOL0     C97705   3.175   0.721   9.170  0.3034  0.3230 -0.8941
  741MOL0     C97706   3.181   0.604   9.088 -0.3978  0.1299 -0.5187
  741MOL0     C97707   3.069   0.522   9.069 -0.1507 -0.3273  0.5311
  741MOL0     C97708   2.953   0.556   9.134  0.5069  0.5908 -0.0968
  741MOL0     C97709   2.837   0.467   9.131  0.0664  0.1489  0.2559
  741MOL0     O97710   2.750   0.463   9.245  0.6821 -0.2286 -0.4452
  741MOL0     C97711   2.629   0.389   9.249 -0.0880  0.2958  0.6470
  741MOL0     C97712   2.607   0.272   9.171 -0.0923 -0.1168  0.7101
  741MOL0     C97713   2.486   0.197   9.196  0.1362  0.2584 -0.6558
  741MOL0     C97714   2.385   0.246   9.286  0.4456  1.0241 -0.1398
  741MOL0     O97715   2.266   0.187   9.282  0.1744 -0.0280  0.5362
  741MOL0     C97716   2.175   0.206   9.387  0.7311  0.3521  1.6066
  741MOL0     C97717   2.057   0.104   9.371 -0.2450 -0.2472  0.3151
  741MOL0     C97718   1.999   0.068   9.515 -0.7620 -0.2194  0.2873
  741MOL0     C97719   1.942   0.192   9.591 -1.4608  0.3635 -0.9512
  741MOL0     C97720   1.843   0.148   9.696  0.3320 -0.2804 -0.5080
  741MOL0     C97721   1.799   0.265   9.784 -0.3635  0.7913 -0.4463
  741MOL0     C97722   1.671   0.241   9.865 -0.4816 -0.2892  0.3461
  741MOL0     C97723   1.546   0.247   9.776  0.0718 -0.3592 -0.3055
  741MOL0    Cl97724   1.404   0.308   9.871  0.2104 -0.2814 -0.3038
  741MOL0     C97725   2.411   0.374   9.343  0.2211 -0.5432 -0.3110
  741MOL0     C97726   2.529   0.440   9.337  0.1910  0.3008 -0.1493
  741MOL0     O97727   2.823   0.396   9.034 -0.0184  0.2852 -0.4552
  741MOL0     C97728   2.946   0.670   9.221  0.1848 -0.4729 -1.2688
  741MOL0     C97729   3.053   0.756   9.233  0.1512  0.3239 -0.3552
  741MOL0     N97730   3.387   0.787   9.765  0.3882  0.0524  0.0805
  741MOL0     N97731   3.510   0.781   9.809 -0.3050 -0.0288 -0.5428
  741MOL0     C97732   3.923   1.169   8.756  0.5175  0.0519  0.6752
  741MOL0     C97733   4.024   1.201   8.671  0.0606 -0.1155  0.6406
  741MOL0     C97734   4.438   1.061   8.478 -0.0119  0.7868 -0.3327
  741MOL0     C97735   4.520   0.979   8.408 -0.7634 -0.6530 -0.3446
  741MOL0     C97736   4.658   1.005   8.401  0.8425  0.1246  0.3706
  741MOL0     C97737   4.725   1.105   8.475  0.5058  0.5776  0.0616
  741MOL0     O97738   4.864   1.119   8.476 -0.2695 -0.1925  0.1464
  741MOL0     C97739   4.907   1.256   8.475 -0.3976  0.3150  0.6652
  741MOL0     C97740   5.059   1.262   8.444 -1.1673 -0.8085  0.3699
  741MOL0     C97741   5.107   1.180   8.326  0.1857  0.0422  0.0947
  741MOL0     C97742   5.254   1.224   8.303  0.1403  0.1565 -0.2369
  741MOL0     C97743   5.303   1.217   8.162  0.8869  0.5957  0.5229
  741MOL0     C97744   5.307   1.217   8.045  0.3087 -0.4036  0.7905
  741MOL0     C97745   4.636   1.192   8.540 -0.1857 -0.0203 -0.4601
  741MOL0     C97746   4.493   1.171   8.544  0.3533 -0.3585 -0.0596
  741MOL0     H97747   4.120   0.882   8.594  0.6297  2.0117 -0.9673
  741MOL0     H97748   3.929   0.841   8.747 -2.5973  0.0833 -3.2012
  741MOL0     H97749   3.625   1.135   8.854  0.9989 -0.7614 -1.2025
  741MOL0     H97750   3.758   1.184   8.959 -1.2511  2.4034 -2.1393
  741MOL0     H97751   3.566   0.976   9.045  1.0426 -0.7141 -1.0915
  741MOL0     H97752   3.574   1.149   9.087  2.5279  0.5264  2.2179
  741MOL0     H97753   3.822   1.101   9.175  0.8231 -0.5478 -0.0949
  741MOL0     H97754   3.798   0.941   9.156  1.4405  1.3347  3.6136
  741MOL0     H97755   3.649   1.147   9.327  2.0358  0.2743  2.7618
  741MOL0     H97756   3.587   0.983   9.312  2.6246 -4.1112  2.2833
  741MOL0     H97757   3.855   1.073   9.432  2.2736 -1.2689 -1.6419
  741MOL0     H97758   3.833   0.906   9.390 -0.7451  0.5987 -1.6099
  741MOL0     H97759   3.632   0.902   9.497 -0.4640  0.5255  0.7360
  741MOL0     H97760   3.633   1.058   9.562 -1.0250 -1.7017  1.4185
  741MOL0     H97761   3.792   0.808   9.644  2.8006  0.4954 -1.2151
  741MOL0     H97762   3.876   0.955   9.652  1.0357 -3.5868 -2.4335
  741MOL0     H97763   3.713   1.031   9.843 -1.0116 -1.2972  2.6489
  741MOL0     H97764   3.759   0.866   9.860  1.9361  0.0129 -0.0292
  741MOL0     H97765   3.492   1.097   9.719  0.1811 -0.4095 -0.9838
  741MOL0     H97766   3.200   1.044   9.697 -2.8191 -2.2306  1.0360
  741MOL0     H97767   3.160   0.885   9.649  0.2723  0.0853  1.5430
  741MOL0     H97768   3.332   1.082   9.501 -2.8813  0.8215 -0.1963
  741MOL0     H97769   3.161   1.041   9.469  0.4879  4.1863  1.0840
  741MOL0     H97770   3.433   0.899   9.441 -0.3415 -0.3255  1.7260
  741MOL0     H97771   3.287   0.796   9.436  1.1210  0.2594  1.7011
  741MOL0     H97772   3.391   0.963   9.224 -0.2867  0.5947  1.5245
  741MOL0     H97773   3.212   0.970   9.247  0.2159 -0.2746 -2.1961
  741MOL0     H97774   3.276   0.581   9.042 -0.7294  1.6814 -2.1224
  741MOL0     H97775   3.078   0.427   9.016 -1.2738 -1.6877  2.6222
  741MOL0     H97776   2.674   0.224   9.100  0.4839  0.1308  1.0804
  741MOL0     H97777   2.473   0.103   9.143 -0.0385 -1.0535  1.5544
  741MOL0     H97778   2.139   0.309   9.387 -0.0964  0.0690  1.8979
  741MOL0     H97779   2.221   0.179   9.483 -1.6617 -0.3802  2.6270
  741MOL0     H97780   2.082   0.013   9.316  0.4322  0.0472  0.1210
  741MOL0     H97781   1.983   0.153   9.307 -1.2550 -2.5871 -0.4091
  741MOL0     H97782   2.075   0.023   9.580  1.0834  1.4685 -0.6061
  741MOL0     H97783   1.916  -0.001   9.496  0.3870 -1.6977  0.4275
  741MOL0     H97784   2.021   0.246   9.645 -2.5647  1.9827 -0.8815
  741MOL0     H97785   1.911   0.270   9.521 -1.0634  0.3686 -1.1212
  741MOL0     H97786   1.891   0.066   9.749  0.2139  0.7927  1.3348
  741MOL0     H97787   1.746   0.116   9.655 -1.1562  2.9175  0.2271
  741MOL0     H97788   1.784   0.355   9.723 -4.8035 -0.4121 -1.5214
  741MOL0     H97789   1.885   0.278   9.851 -1.8573  1.1299  1.4940
  741MOL0     H97790   1.672   0.141   9.909 -1.4795 -1.8590 -2.8560
  741MOL0     H97791   1.674   0.306   9.953  0.4877 -0.0993  0.1846
  741MOL0     H97792   1.535   0.150   9.725  2.6725  0.0115 -1.7340
  741MOL0     H97793   1.565   0.318   9.696 -0.5945  1.9915  1.5206
  741MOL0     H97794   2.337   0.424   9.404 -0.5163  1.1556 -2.4643
  741MOL0     H97795   2.541   0.540   9.376  1.7099  0.0218  0.1642
  741MOL0     H97796   2.851   0.694   9.267  0.2904 -0.0844 -1.2518
  741MOL0     H97797   3.035   0.842   9.297  0.8415  0.1933  0.0298
  741MOL0     H97798   3.884   1.255   8.810 -0.2070  0.4220 -0.4041
  741MOL0     H97799   4.040   1.308   8.666 -0.9757  0.0297 -0.0715
  741MOL0     H97800   4.479   0.901   8.345 -1.0338 -0.1926 -0.7484
  741MOL0     H97801   4.722   0.948   8.335  0.2745  3.9052 -3.8532
  741MOL0     H97802   4.900   1.298   8.576  0.9892  0.3351  0.7712
  741MOL0     H97803   4.851   1.321   8.407 -0.6143 -1.1049 -0.5735
  741MOL0     H97804   5.078   1.367   8.420 -1.5383 -1.1812 -1.6914
  741MOL0     H97805   5.115   1.234   8.534 -0.4173 -0.2844  0.0828
  741MOL0     H97806   5.046   1.199   8.236 -0.5322  1.8206  0.8951
  741MOL0     H97807   5.087   1.076   8.351  2.0760  0.2061  2.6299
  741MOL0     H97808   5.278   1.322   8.345  0.1527  0.5780 -1.2019
  741MOL0     H97809   5.316   1.154   8.359  0.2577  1.7396  1.6961
  741MOL0     H97810   5.297   1.219   7.938 -0.4075 -2.4313  0.7876
  741MOL0     H97811   4.648   1.272   8.612 -0.2205 -0.8064  0.4341
  741MOL0     H97812   4.438   1.239   8.608  1.5009 -0.2986  0.8892
  742MOL0     O97813  11.022   8.331   6.400 -0.9942 -0.3699  0.0027
  742MOL0     C97814  11.094   8.226   6.390  0.2805  0.1575  0.3525
  742MOL0     O97815  11.039   8.096   6.385 -0.0386  0.3963  0.2601
  742MOL0     C97816  10.915   8.090   6.441  0.0891  0.1363  0.4894
  742MOL0     C97817  10.802   8.062   6.364 -0.8582  0.2006  0.6013
  742MOL0     C97818  10.674   8.068   6.422  0.1352 -0.2177 -0.9038
  742MOL0     C97819  10.657   8.117   6.558  0.6629 -0.4265 -0.6917
  742MOL0     O97820  10.526   8.130   6.604  0.5225 -0.2516  0.4875
  742MOL0     C97821  10.510   8.244   6.679 -0.3559  0.9224 -0.1352
  742MOL0     C97822  10.368   8.274   6.685  0.6409  0.3578  0.3855
  742MOL0     C97823  10.343   8.424   6.701  0.4922  0.3791 -0.5958
  742MOL0     C97824  10.194   8.452   6.736 -0.2541  0.4587  0.6214
  742MOL0     C97825  10.165   8.592   6.686 -0.2619  0.5110  0.4154
  742MOL0     C97826  10.019   8.626   6.718  0.1326  0.2377 -0.2607
  742MOL0     C97827   9.968   8.761   6.656  0.0631  0.4183 -0.6349
  742MOL0     C97828   9.934   8.747   6.506  0.2530 -0.6153 -0.3593
  742MOL0     N97829   9.852   8.867   6.459 -0.3518 -0.5325  0.1763
  742MOL0     C97830   9.897   8.987   6.402 -0.4390  0.0056 -0.5800
  742MOL0     C97831   9.788   9.059   6.359  1.1807 -0.6315  0.1996
  742MOL0     C97832   9.792   9.200   6.299 -0.2514  0.0919  0.9317
  742MOL0     C97833   9.869   9.213   6.162  0.6550  0.9921 -1.3178
  742MOL0     C97834   9.801   9.169   6.036  0.0327  0.4416 -0.4492
  742MOL0     C97835   9.686   9.262   5.988 -0.3078 -0.3591  0.3058
  742MOL0     O97836   9.651   9.234   5.850  1.1518  0.7821 -0.2072
  742MOL0     C97837   9.527   9.292   5.833 -0.4722  0.2207  0.2887
  742MOL0     C97838   9.506   9.430   5.831 -0.2584 -0.2430  0.4373
  742MOL0     C97839   9.370   9.469   5.813 -0.3008 -0.1869 -0.0573
  742MOL0     C97840   9.266   9.383   5.758  0.3462  0.2615 -0.0422
  742MOL0     C97841   9.136   9.435   5.725 -0.4473 -0.6622  1.0358
  742MOL0     O97842   9.107   9.567   5.760  0.1841  0.4824 -0.1920
  742MOL0     C97843   9.026   9.640   5.679 -0.0248 -0.5386  0.5096
  742MOL0     C97844   8.939   9.741   5.730  0.0566  0.0436 -0.2895
  742MOL0     C97845   8.864   9.814   5.647  1.4148 -0.8431  0.2826
  742MOL0     C97846   8.852   9.787   5.510 -0.4911  0.6557 -1.4851
  742MOL0     O97847   8.757   9.850   5.441 -0.1617  0.0715 -0.3430
  742MOL0     C97848   8.728   9.817   5.300 -0.1667 -0.4196  0.6459
  742MOL0     C97849   8.793   9.918   5.203 -0.5986 -0.3342  0.1916
  742MOL0     C97850   8.771  10.066   5.227 -0.2442 -0.0815 -0.4652
  742MOL0     C97851   8.852  10.129   5.349 -0.4926 -0.5988  0.9454
  742MOL0     C97852   9.003  10.126   5.315  0.2085 -0.9924  0.8157
  742MOL0     C97853   9.065  10.175   5.174 -0.2322  0.6646 -0.4725
  742MOL0     C97854   9.221  10.171   5.184  0.0464  0.6349  0.5902
  742MOL0     C97855   9.272  10.088   5.072 -0.7233 -0.2533 -0.5982
  742MOL0    Cl97856   9.235  10.125   4.899 -0.1327 -0.3968 -0.0248
  742MOL0     C97857   8.932   9.693   5.456  0.7724 -0.0409  0.7610
  742MOL0     C97858   9.016   9.615   5.538  0.6719  0.0153 -0.2935
  742MOL0     O97859   9.056   9.355   5.672 -0.5464 -0.9521  0.1170
  742MOL0     C97860   9.296   9.244   5.744 -0.7624 -0.3201  0.2920
  742MOL0     C97861   9.424   9.196   5.793  0.2041  0.8348 -1.0482
  742MOL0     N97862   9.677   8.973   6.372  0.0935  0.5163 -0.0703
  742MOL0     N97863   9.720   8.859   6.423 -1.0431 -0.1255 -0.9213
  742MOL0     C97864  10.767   8.136   6.638 -0.4860  0.4546  0.4482
  742MOL0     C97865  10.893   8.127   6.577  0.5943 -0.1046  0.0494
  742MOL0     C97866  11.238   8.243   6.351 -0.1205  0.6079  0.7379
  742MOL0     C97867  11.310   8.365   6.349 -0.4666 -0.9815 -0.6885
  742MOL0     C97868  11.448   8.360   6.330  0.5437  0.8667  0.4078
  742MOL0     C97869  11.513   8.247   6.297  0.6520 -0.1739 -0.2032
  742MOL0     O97870  11.648   8.250   6.266  0.0323 -0.1969  0.4164
  742MOL0     C97871  11.718   8.367   6.206  0.6140  0.0441 -0.0262
  742MOL0     C97872  11.796   8.449   6.308 -0.0119 -0.2163  0.8812
  742MOL0     C97873  11.942   8.393   6.325 -0.8497 -0.1224 -0.6270
  742MOL0     C97874  11.951   8.240   6.348 -1.8444  0.1221  0.1567
  742MOL0     C97875  12.088   8.211   6.398 -0.3247  0.7661  0.4112
  742MOL0     C97876  12.192   8.169   6.448  0.0344 -0.0733 -0.0165
  742MOL0     C97877  11.447   8.128   6.305 -0.8925  0.3040  0.4477
  742MOL0     C97878  11.311   8.126   6.328 -0.0808  0.2465 -0.8161
  742MOL0     H97879  10.833   8.020   6.268  0.5632 -2.0809  1.9695
  742MOL0     H97880  10.581   8.043   6.370  0.7554  0.9935 -2.6821
  742MOL0     H97881  10.563   8.331   6.639 -0.9282  1.0809 -0.5662
  742MOL0     H97882  10.535   8.225   6.784 -1.8136  1.3653  0.3255
  742MOL0     H97883  10.319   8.208   6.758 -4.4970  1.3046 -1.7756
  742MOL0     H97884  10.316   8.254   6.591  1.0522 -0.0232  0.2338
  742MOL0     H97885  10.374   8.478   6.611  0.4436 -0.8464 -1.3597
  742MOL0     H97886  10.404   8.467   6.782  0.6614 -0.4113 -0.2922
  742MOL0     H97887  10.133   8.380   6.681 -0.8293  2.9008 -2.1732
  742MOL0     H97888  10.173   8.448   6.843  0.9015 -2.8921  0.8405
  742MOL0     H97889  10.175   8.606   6.578 -1.8177  2.0607  0.4277
  742MOL0     H97890  10.222   8.665   6.745 -5.4174  4.2327  1.5725
  742MOL0     H97891   9.992   8.608   6.823 -0.7461 -0.5545 -0.6009
  742MOL0     H97892   9.964   8.548   6.664  2.0545 -0.7573 -0.8332
  742MOL0     H97893   9.875   8.785   6.708 -0.5417 -2.0303 -0.4631
  742MOL0     H97894  10.046   8.835   6.675 -1.6871  2.0449  0.5895
  742MOL0     H97895   9.882   8.654   6.480 -2.2111 -0.1814  2.5055
  742MOL0     H97896  10.030   8.744   6.454 -0.0200  0.7807 -0.9838
  742MOL0     H97897  10.003   9.006   6.400 -0.8463  2.6167 -1.7684
  742MOL0     H97898   9.839   9.260   6.377  0.9023 -1.4523  1.4852
  742MOL0     H97899   9.691   9.243   6.291  1.4370  4.5334  0.5609
  742MOL0     H97900   9.960   9.158   6.189  0.1323  1.5584  1.9975
  742MOL0     H97901   9.902   9.317   6.163  1.5507  0.7592  0.9205
  742MOL0     H97902   9.886   9.165   5.967  0.4589 -2.3395  0.1143
  742MOL0     H97903   9.773   9.063   6.040  1.8778 -0.0951 -0.7691
  742MOL0     H97904   9.721   9.365   5.995  1.2403 -0.8050 -0.3902
  742MOL0     H97905   9.608   9.248   6.063  0.0277  2.0402  1.1890
  742MOL0     H97906   9.586   9.498   5.859 -0.6507  0.7148 -0.6680
  742MOL0     H97907   9.356   9.576   5.830 -1.1214 -0.4130  0.7534
  742MOL0     H97908   8.941   9.755   5.838 -0.8830  0.1843 -0.2827
  742MOL0     H97909   8.817   9.898   5.695 -0.3606 -2.1726  0.9544
  742MOL0     H97910   8.620   9.833   5.293 -0.2205 -1.3891 -1.4039
  742MOL0     H97911   8.750   9.713   5.273 -0.5237  0.2942 -2.9868
  742MOL0     H97912   8.752   9.906   5.102  2.2459  1.3524 -1.2905
  742MOL0     H97913   8.901   9.906   5.199 -0.3358  1.1505  1.9823
  742MOL0     H97914   8.666  10.079   5.255 -0.3671  0.1109 -0.9906
  742MOL0     H97915   8.782  10.125   5.135 -2.2016  1.1893  0.0520
  742MOL0     H97916   8.818  10.231   5.370 -0.0405  0.9866 -4.4257
  742MOL0     H97917   8.827  10.076   5.441 -0.8205  0.2417  1.3489
  742MOL0     H97918   9.030  10.021   5.328  1.2258 -0.8395  0.0061
  742MOL0     H97919   9.055  10.192   5.386  2.6240  0.8310 -2.3961
  742MOL0     H97920   9.032  10.268   5.129  0.4276  1.4003  0.5184
  742MOL0     H97921   9.029  10.100   5.103 -0.4672  0.1838  0.1364
  742MOL0     H97922   9.265  10.270   5.175  0.6498  0.2198 -1.7019
  742MOL0     H97923   9.252  10.127   5.279 -1.8857 -0.6592  0.6809
  742MOL0     H97924   9.237   9.985   5.080 -1.5698  0.0461 -0.2842
  742MOL0     H97925   9.380  10.082   5.082 -0.6958 -0.6607 -1.0781
  742MOL0     H97926   8.919   9.669   5.351 -3.1540  0.0851  1.0753
  742MOL0     H97927   9.074   9.533   5.499  0.2615  0.1882 -1.2832
  742MOL0     H97928   9.225   9.165   5.719 -1.5343 -0.2636  2.1334
  742MOL0     H97929   9.443   9.090   5.805  0.8059  1.2460  2.5740
  742MOL0     H97930  10.761   8.153   6.745  1.4287  3.3835  0.1890
  742MOL0     H97931  10.980   8.159   6.633  1.1966 -0.9291 -0.3954
  742MOL0     H97932  11.266   8.458   6.383 -0.3444 -1.0424 -0.3584
  742MOL0     H97933  11.496   8.456   6.337  0.0880  1.1482 -0.1821
  742MOL0     H97934  11.651   8.443   6.166  2.4240  1.9896  0.4243
  742MOL0     H97935  11.778   8.344   6.117 -1.1671  0.9816 -1.5146
  742MOL0     H97936  11.818   8.541   6.253 -1.0079 -0.6732 -0.3145
  742MOL0     H97937  11.740   8.489   6.393 -0.7483 -0.3716  0.4823
  742MOL0     H97938  11.987   8.450   6.406  0.8930 -1.9651 -0.2258
  742MOL0     H97939  12.004   8.416   6.238 -0.6297 -0.9800 -0.7077
  742MOL0     H97940  11.869   8.210   6.414 -1.0616 -0.5567  0.8405
  742MOL0     H97941  11.941   8.182   6.256  2.4613 -1.2619  0.3227
  742MOL0     H97942  12.266   8.105   6.494 -1.2964 -0.4030  1.7822
  742MOL0     H97943  11.506   8.038   6.286  0.4678  1.2521  0.0739
  742MOL0     H97944  11.256   8.034   6.337  1.1943 -0.3824  1.2304
  743MOL0     O97945   1.498   8.536   0.623 -0.6135 -0.0316  0.5610
  743MOL0     C97946   1.527   8.412   0.600  0.5541 -0.4858 -0.3135
  743MOL0     O97947   1.654   8.365   0.585  0.4426  0.2465  0.2602
  743MOL0     C97948   1.750   8.462   0.571 -0.1453  0.6701 -0.3649
  743MOL0     C97949   1.838   8.458   0.461 -0.6608  0.0688  0.7026
  743MOL0     C97950   1.954   8.538   0.460 -0.1148  0.7750 -0.9338
  743MOL0     C97951   1.976   8.632   0.555 -0.4713 -0.5067  0.3912
  743MOL0     O97952   2.084   8.711   0.537 -0.8737  0.6952  0.4676
  743MOL0     C97953   2.079   8.849   0.584 -0.1637 -0.7439  0.2902
  743MOL0     C97954   2.222   8.904   0.570 -0.6678  0.4976 -0.6884
  743MOL0     C97955   2.339   8.828   0.641  0.1673 -0.0682  0.4970
  743MOL0     C97956   2.313   8.819   0.791  0.1610  0.2613 -0.0147
  743MOL0     C97957   2.429   8.780   0.877 -0.1313 -0.0361  0.1826
  743MOL0     C97958   2.473   8.634   0.845 -0.2450  0.2148  0.0743
  743MOL0     C97959   2.357   8.536   0.876 -0.6192  1.0237  0.1249
  743MOL0     C97960   2.281   8.484   0.751 -0.5926  0.3596 -0.0639
  743MOL0     N97961   2.200   8.369   0.781 -0.1812  0.7152 -0.1577
  743MOL0     C97962   2.248   8.253   0.825  0.1342  0.6162  0.3306
  743MOL0     C97963   2.141   8.168   0.827 -0.2450 -0.1251 -0.6650
  743MOL0     C97964   2.157   8.024   0.871 -0.0777 -0.6912 -0.6376
  743MOL0     C97965   2.159   7.942   0.746  0.6547  0.0072  0.6580
  743MOL0     C97966   2.309   7.922   0.705 -0.3007 -0.2108 -0.5343
  743MOL0     C97967   2.313   7.830   0.584  1.0236 -0.5383 -0.6153
  743MOL0     O97968   2.307   7.694   0.628  0.2506 -0.5631 -0.0248
  743MOL0     C97969   2.216   7.624   0.546  0.2648  0.3074  0.5521
  743MOL0     C97970   2.111   7.570   0.605 -0.5397 -0.3397  0.3366
  743MOL0     C97971   2.006   7.510   0.541  1.0065 -0.6069  0.3385
  743MOL0     C97972   2.000   7.506   0.400 -0.3246 -0.4510 -0.9162
  743MOL0     C97973   1.883   7.454   0.327 -0.0267  0.2315 -1.0304
  743MOL0     O97974   1.884   7.459   0.189  1.0374  0.7938 -0.4412
  743MOL0     C97975   1.779   7.395   0.118 -0.2605 -0.4625 -0.7687
  743MOL0     C97976   1.726   7.474   0.011  0.0334 -0.2981  0.4347
  743MOL0     C97977   1.628   7.422  -0.073  0.2597 -0.1910  0.3097
  743MOL0     C97978   1.577   7.288  -0.049 -0.0603  0.4965  0.4607
  743MOL0     O97979   1.477   7.254  -0.130  0.2407 -0.1305 -0.0082
  743MOL0     C97980   1.508   7.176  -0.248 -0.6281 -0.3619 -0.5014
  743MOL0     C97981   1.376   7.162  -0.322 -0.1528 -0.9219  0.6870
  743MOL0     C97982   1.379   7.044  -0.418  0.5871  0.1146 -0.1552
  743MOL0     C97983   1.237   7.046  -0.475 -0.1208 -0.4856  0.4555
  743MOL0     C97984   1.191   6.939  -0.571  0.0133 -0.0327 -0.5287
  743MOL0     C97985   1.226   6.793  -0.533  0.3126  0.5003  0.5460
  743MOL0     C97986   1.154   6.738  -0.411  0.0983 -0.0252 -0.3475
  743MOL0     C97987   1.208   6.599  -0.383 -0.0053  0.7839 -0.5935
  743MOL0    Cl97988   1.117   6.487  -0.482  0.4021  0.0409  0.2512
  743MOL0     C97989   1.634   7.210   0.052  0.0772  0.3978  1.0711
  743MOL0     C97990   1.741   7.265   0.128  0.3514 -1.0482 -0.6413
  743MOL0     O97991   1.793   7.408   0.394  0.5205 -0.9396  0.2160
  743MOL0     C97992   2.113   7.566   0.333  0.2199 -0.3905  0.4998
  743MOL0     C97993   2.217   7.631   0.411 -0.4739  1.1924  0.0906
  743MOL0     N97994   2.031   8.232   0.780 -0.5848 -0.2198 -0.2874
  743MOL0     N97995   2.071   8.351   0.743  0.4538  0.4103 -0.3138
  743MOL0     C97996   1.884   8.648   0.666  0.5913  0.2575  1.0855
  743MOL0     C97997   1.778   8.556   0.674 -0.6470  0.0968 -0.1922
  743MOL0     C97998   1.413   8.315   0.594 -0.9414  0.1683 -0.1238
  743MOL0     C97999   1.281   8.362   0.587 -0.2362 -0.1965  0.0066
  743MOL0     C98000   1.172   8.269   0.574  0.0593 -0.1769  0.1568
  743MOL0     C98001   1.190   8.132   0.564 -0.2242  0.2776  0.0956
  743MOL0     O98002   1.077   8.060   0.545  0.1688 -0.3719 -0.1924
  743MOL0     C98003   1.068   7.920   0.546  0.5618  0.4550  0.0399
  743MOL0     C98004   1.112   7.860   0.409 -1.6027 -0.5274 -0.0799
  743MOL0     C98005   1.041   7.925   0.292  0.8109  0.3406  0.5096
  743MOL0     C98006   1.060   7.861   0.146 -0.1861  0.6786  0.4084
  743MOL0     C98007   0.983   7.945   0.053 -0.4075  0.1960  0.3202
  743MOL0     C98008   0.924   8.012  -0.025  0.3102 -1.0300  0.1093
  743MOL0     C98009   1.323   8.084   0.568 -0.2382  0.6166 -0.3408
  743MOL0     C98010   1.427   8.181   0.594 -0.3490  0.8147  0.0936
  743MOL0     H98011   1.821   8.380   0.388  2.8246  0.0683 -0.2791
  743MOL0     H98012   2.023   8.529   0.377  3.3926  1.6656  1.6646
  743MOL0     H98013   2.052   8.851   0.690 -0.3073  0.1149  0.2445
  743MOL0     H98014   2.014   8.907   0.517  0.7543  0.2756  0.2622
  743MOL0     H98015   2.222   9.010   0.597 -2.9871  0.7042 -1.3217
  743MOL0     H98016   2.242   8.906   0.462 -0.1852  0.3259 -0.6079
  743MOL0     H98017   2.433   8.882   0.631  2.2966 -3.6892 -0.8193
  743MOL0     H98018   2.353   8.731   0.593 -0.1042  0.3082 -0.3652
  743MOL0     H98019   2.284   8.917   0.829 -0.9545  0.6383 -1.7496
  743MOL0     H98020   2.235   8.744   0.807  1.7788 -2.3565 -3.1031
  743MOL0     H98021   2.397   8.801   0.979  0.5285  3.4056 -0.2088
  743MOL0     H98022   2.510   8.850   0.853  0.1924 -1.0577 -1.9471
  743MOL0     H98023   2.551   8.610   0.918  2.2331  0.3490 -2.3734
  743MOL0     H98024   2.520   8.610   0.750  0.1657 -1.8859  0.7459
  743MOL0     H98025   2.410   8.450   0.919 -0.3168 -0.1084 -2.3258
  743MOL0     H98026   2.282   8.576   0.945 -0.3347 -1.1640  1.8061
  743MOL0     H98027   2.349   8.463   0.668 -3.3421 -0.4068 -2.2805
  743MOL0     H98028   2.212   8.557   0.707  0.9590  1.0938 -1.3868
  743MOL0     H98029   2.349   8.231   0.857 -0.4024 -0.7084  1.2008
  743MOL0     H98030   2.080   7.993   0.942 -1.4492 -0.7843 -2.0890
  743MOL0     H98031   2.251   8.015   0.925 -0.4776  2.2548  0.7490
  743MOL0     H98032   2.102   7.991   0.667 -1.1407 -0.0682  1.8473
  743MOL0     H98033   2.123   7.841   0.766 -1.2325  0.0807 -1.9623
  743MOL0     H98034   2.347   8.020   0.675  1.8357 -1.2159 -1.2842
  743MOL0     H98035   2.375   7.888   0.785 -0.7578 -1.3136 -0.6013
  743MOL0     H98036   2.404   7.852   0.527  1.6396 -0.1036  0.5028
  743MOL0     H98037   2.221   7.854   0.530 -0.5977  1.3944  2.6752
  743MOL0     H98038   2.108   7.587   0.712  3.0761 -2.4537  0.9504
  743MOL0     H98039   1.921   7.494   0.607  0.8883  0.1663  0.3824
  743MOL0     H98040   1.754   7.575  -0.018 -0.3782 -0.7779 -1.7943
  743MOL0     H98041   1.575   7.469  -0.155 -0.6089 -0.0031  0.9696
  743MOL0     H98042   1.547   7.080  -0.213  3.4658  2.0676  2.3163
  743MOL0     H98043   1.581   7.228  -0.311  0.2063 -0.1066  0.6488
  743MOL0     H98044   1.361   7.251  -0.384 -1.4825 -2.3414 -1.1960
  743MOL0     H98045   1.297   7.148  -0.247 -2.5477  1.3404 -1.2171
  743MOL0     H98046   1.405   6.944  -0.383  1.1720 -0.2840 -1.6302
  743MOL0     H98047   1.455   7.073  -0.491 -0.7214  3.2370 -0.4149
  743MOL0     H98048   1.163   7.043  -0.394  1.3284 -1.0949  1.8106
  743MOL0     H98049   1.234   7.141  -0.528 -0.3937  1.1061  3.1529
  743MOL0     H98050   1.255   6.960  -0.657  0.9518  1.4544  0.4987
  743MOL0     H98051   1.082   6.935  -0.587 -0.0621  0.4164 -0.1224
  743MOL0     H98052   1.334   6.778  -0.523  0.1790 -1.6435 -0.5853
  743MOL0     H98053   1.199   6.732  -0.620 -2.1704  1.6991  0.3840
  743MOL0     H98054   1.158   6.805  -0.325 -4.4728  0.0608  0.0354
  743MOL0     H98055   1.048   6.741  -0.436  0.2380  1.1626 -0.8898
  743MOL0     H98056   1.180   6.579  -0.280  0.2487  3.0953 -0.0331
  743MOL0     H98057   1.316   6.595  -0.401  0.2072  0.0184  0.7411
  743MOL0     H98058   1.597   7.113   0.081  3.3380 -0.8527  1.4025
  743MOL0     H98059   1.795   7.201   0.197  2.7298  0.7476 -0.7133
  743MOL0     H98060   2.122   7.556   0.226 -1.1613 -2.3443  0.5193
  743MOL0     H98061   2.298   7.674   0.353 -1.0502 -0.0966 -1.7525
  743MOL0     H98062   1.892   8.726   0.741  2.7238  3.8422 -2.4646
  743MOL0     H98063   1.709   8.565   0.758 -0.4689  1.6045 -0.1848
  743MOL0     H98064   1.266   8.469   0.583 -2.4651 -0.3619  1.9969
  743MOL0     H98065   1.066   8.296   0.568  0.0808 -0.4074 -2.9905
  743MOL0     H98066   0.968   7.887   0.575  0.6529  1.5299  1.7622
  743MOL0     H98067   1.143   7.880   0.615  1.9769 -2.6150 -2.9607
  743MOL0     H98068   1.219   7.872   0.392 -1.3011 -1.5185  1.0047
  743MOL0     H98069   1.105   7.751   0.409  2.4161 -0.9650  2.1600
  743MOL0     H98070   1.081   8.026   0.278  1.6188 -0.3306 -2.7453
  743MOL0     H98071   0.933   7.924   0.314  0.5013  5.5527  0.4727
  743MOL0     H98072   1.165   7.855   0.117 -0.6904  0.7849 -1.6111
  743MOL0     H98073   1.021   7.759   0.135  2.1493 -0.0841 -1.7935
  743MOL0     H98074   0.878   8.045  -0.117  1.9534 -1.2557 -0.8296
  743MOL0     H98075   1.350   7.979   0.566  2.2219  0.9389  4.0484
  743MOL0     H98076   1.527   8.147   0.621 -0.9375  0.0925  1.4521
  744MOL0     O98077   0.210   9.622   0.554 -0.2665  0.8440  0.3140
  744MOL0     C98078   0.276   9.651   0.649  0.0913 -0.1115  0.3472
  744MOL0     O98079   0.225   9.720   0.756  0.0236 -1.3559 -0.0262
  744MOL0     C98080   0.093   9.702   0.779  0.4580 -0.0047  0.1977
  744MOL0     C98081   0.038   9.578   0.792 -0.8367  0.4176  0.0381
  744MOL0     C98082  -0.101   9.557   0.802 -0.4103  1.2880  0.3339
  744MOL0     C98083  -0.180   9.674   0.817  0.4608  0.1899  0.3002
  744MOL0     O98084  -0.319   9.666   0.824  0.1116  0.4301 -0.4299
  744MOL0     C98085  -0.383   9.563   0.908 -0.0776 -0.0553 -1.2119
  744MOL0     C98086  -0.502   9.627   0.991 -0.0323  0.0503  1.0676
  744MOL0     C98087  -0.469   9.764   1.046  0.4587  0.2756 -0.1694
  744MOL0     C98088  -0.578   9.799   1.150 -0.2924  0.0662 -0.4402
  744MOL0     C98089  -0.581   9.938   1.207 -0.1345 -0.6049  0.1362
  744MOL0     C98090  -0.717   9.951   1.283 -0.1331  0.2163  0.3384
  744MOL0     C98091  -0.749  10.105   1.301 -0.3396  0.2216 -0.4609
  744MOL0     C98092  -0.869  10.135   1.399 -0.0532 -0.3274 -0.3700
  744MOL0     N98093  -0.994  10.052   1.394 -0.8166 -0.1800 -1.0412
  744MOL0     C98094  -1.042   9.959   1.480 -0.3364 -0.6577 -0.2168
  744MOL0     C98095  -1.173   9.948   1.448 -0.1475 -0.6259 -0.2132
  744MOL0     C98096  -1.259   9.851   1.513 -0.8810  1.3750 -0.5732
  744MOL0     C98097  -1.370   9.930   1.582  1.1820 -0.1390 -0.0682
  744MOL0     C98098  -1.482   9.827   1.613 -0.0595  0.1020 -0.6774
  744MOL0     C98099  -1.606   9.895   1.682 -0.6725 -0.2508  0.2195
  744MOL0     O98100  -1.696   9.932   1.580  0.6057  0.2995  0.3894
  744MOL0     C98101  -1.824   9.880   1.606  0.1818 -0.0070  0.1960
  744MOL0     C98102  -1.929   9.949   1.660 -0.4586 -0.0782  0.1256
  744MOL0     C98103  -2.054   9.891   1.675 -0.1093  0.2153 -0.6042
  744MOL0     C98104  -2.079   9.760   1.630  0.3412 -0.2104 -0.1331
  744MOL0     C98105  -2.210   9.700   1.656 -0.4972 -0.3195  0.0793
  744MOL0     O98106  -2.313   9.783   1.706 -0.4941  0.2024  0.1090
  744MOL0     C98107  -2.438   9.731   1.737 -1.0770 -0.1494  0.0540
  744MOL0     C98108  -2.556   9.784   1.683 -0.7805  0.6391  0.6633
  744MOL0     C98109  -2.682   9.729   1.703  0.3678 -0.0401 -0.0286
  744MOL0     C98110  -2.689   9.620   1.786  0.8450  1.2147 -0.3739
  744MOL0     O98111  -2.813   9.568   1.808 -0.3450 -0.2107 -0.2301
  744MOL0     C98112  -2.858   9.607   1.931  0.2061  0.1325 -0.7871
  744MOL0     C98113  -3.005   9.621   1.927 -0.2593 -0.3743  0.5791
  744MOL0     C98114  -3.074   9.619   2.062 -1.0306  1.0035 -0.5612
  744MOL0     C98115  -3.227   9.627   2.035 -0.0974  0.1342 -0.8756
  744MOL0     C98116  -3.295   9.603   2.171 -0.2907  0.2629 -0.3810
  744MOL0     C98117  -3.451   9.613   2.155 -0.5864 -0.5315 -0.4374
  744MOL0     C98118  -3.527   9.588   2.282 -0.3010  0.4055 -0.2560
  744MOL0     C98119  -3.670   9.568   2.249 -0.2964 -0.8221  0.2617
  744MOL0    Cl98120  -3.689   9.400   2.180  0.4096 -0.3709 -0.6197
  744MOL0     C98121  -2.571   9.557   1.834  0.4313 -0.5989 -0.0460
  744MOL0     C98122  -2.449   9.612   1.809  0.7556 -0.2924  0.5148
  744MOL0     O98123  -2.219   9.592   1.599 -0.0433 -0.1828 -0.1407
  744MOL0     C98124  -1.977   9.692   1.570  0.4258 -0.7985  0.3947
  744MOL0     C98125  -1.850   9.748   1.562 -0.5681 -0.0840 -1.0509
  744MOL0     N98126  -1.203  10.025   1.337 -0.7930 -0.6319 -0.0426
  744MOL0     N98127  -1.091  10.093   1.314 -0.3474  0.5340  0.8614
  744MOL0     C98128  -0.129   9.800   0.827  0.1780  0.0105  1.1158
  744MOL0     C98129   0.012   9.813   0.811 -0.2779  0.1852  0.4948
  744MOL0     C98130   0.423   9.637   0.635  1.3805 -0.8172  0.9759
  744MOL0     C98131   0.484   9.603   0.514 -0.0334 -0.4508 -0.5416
  744MOL0     C98132   0.618   9.569   0.511 -0.5579 -0.4671 -0.7983
  744MOL0     C98133   0.702   9.578   0.628  0.1092 -0.5264  1.0494
  744MOL0     O98134   0.831   9.551   0.635 -0.6563  0.4388 -0.7963
  744MOL0     C98135   0.900   9.506   0.512  0.5897 -0.5453  0.1773
  744MOL0     C98136   0.942   9.624   0.412 -0.0227 -0.1114  0.5014
  744MOL0     C98137   1.038   9.567   0.300  0.1381 -0.5114 -0.7259
  744MOL0     C98138   0.978   9.450   0.217 -0.6240  0.3444 -0.2655
  744MOL0     C98139   1.071   9.415   0.108  0.7419 -0.3139  0.4809
  744MOL0     C98140   1.155   9.393   0.018  0.0170  0.5572  0.0043
  744MOL0     C98141   0.650   9.627   0.744 -0.1645 -0.1605 -0.2775
  744MOL0     C98142   0.509   9.653   0.745  0.3551 -0.0791 -0.0635
  744MOL0     H98143   0.090   9.484   0.780 -2.0834 -0.1042 -1.8652
  744MOL0     H98144  -0.145   9.459   0.813  1.2326  0.7754  3.0013
  744MOL0     H98145  -0.307   9.524   0.978 -0.2161  1.2957 -0.2751
  744MOL0     H98146  -0.414   9.481   0.843  2.1749 -1.9055 -0.1562
  744MOL0     H98147  -0.545   9.558   1.065 -2.7329  1.8860  1.3391
  744MOL0     H98148  -0.581   9.637   0.917  0.5789 -0.3592  0.3405
  744MOL0     H98149  -0.463   9.839   0.967  0.2936  1.2470  0.7171
  744MOL0     H98150  -0.370   9.755   1.093 -0.1941  0.9548  1.4322
  744MOL0     H98151  -0.670   9.767   1.100 -0.7811 -0.6160  0.8560
  744MOL0     H98152  -0.570   9.736   1.240  0.2992 -0.3078 -0.7463
  744MOL0     H98153  -0.569   9.994   1.114 -0.9629 -1.6427 -0.6136
  744MOL0     H98154  -0.497   9.969   1.271  0.1758  0.6091 -0.8261
  744MOL0     H98155  -0.699   9.905   1.381 -3.2422  1.0694  1.4345
  744MOL0     H98156  -0.804   9.899   1.242 -0.9434  0.8796  1.1692
  744MOL0     H98157  -0.658  10.151   1.340 -0.3665 -1.2535  1.5016
  744MOL0     H98158  -0.768  10.144   1.201 -2.2884  0.7349  0.0672
  744MOL0     H98159  -0.892  10.241   1.383  3.9903  0.6263 -0.8067
  744MOL0     H98160  -0.820  10.117   1.495 -3.8640  1.1164  2.0662
  744MOL0     H98161  -0.980   9.909   1.553  0.1241  1.2680  0.7759
  744MOL0     H98162  -1.199   9.798   1.588 -0.9167  2.4158  0.2254
  744MOL0     H98163  -1.303   9.780   1.442 -0.5602 -0.1519  0.6861
  744MOL0     H98164  -1.408  10.012   1.521  0.1128 -0.8117 -0.3323
  744MOL0     H98165  -1.333   9.961   1.681 -1.5151  0.0370  0.9792
  744MOL0     H98166  -1.514   9.771   1.525 -2.4159  1.1670 -0.5799
  744MOL0     H98167  -1.422   9.765   1.681 -1.4549 -0.2234  0.3065
  744MOL0     H98168  -1.575   9.985   1.736 -3.3806  0.5848  0.5495
  744MOL0     H98169  -1.651   9.827   1.754 -1.2908 -1.8982 -1.6316
  744MOL0     H98170  -1.907  10.045   1.705  2.5070 -0.8663  0.5464
  744MOL0     H98171  -2.138   9.944   1.719  0.4021 -0.4736  1.2796
  744MOL0     H98172  -2.545   9.866   1.613 -0.1819 -0.7686 -0.9642
  744MOL0     H98173  -2.773   9.778   1.672  0.8323  1.2518  0.5959
  744MOL0     H98174  -2.802   9.692   1.971 -0.4511  0.8054 -1.2873
  744MOL0     H98175  -2.828   9.521   1.992 -3.1850 -1.7701 -1.5280
  744MOL0     H98176  -3.052   9.547   1.862  0.6321 -0.4879  0.0567
  744MOL0     H98177  -3.025   9.719   1.883  4.7658 -0.7620 -3.4976
  744MOL0     H98178  -3.031   9.691   2.132  0.6042  2.3455 -2.8109
  744MOL0     H98179  -3.044   9.520   2.097  0.4914  1.2457 -1.0929
  744MOL0     H98180  -3.256   9.729   2.011 -0.7435  0.3286  0.6467
  744MOL0     H98181  -3.252   9.556   1.956 -1.1356  0.3492 -0.7562
  744MOL0     H98182  -3.269   9.679   2.245  1.7783 -3.1494  2.6794
  744MOL0     H98183  -3.274   9.502   2.208 -1.0709  0.0883 -0.4029
  744MOL0     H98184  -3.471   9.539   2.077  0.5119 -2.7803  1.2895
  744MOL0     H98185  -3.473   9.709   2.108 -2.6556 -1.0468 -0.5878
  744MOL0     H98186  -3.486   9.509   2.345  1.5103  2.4205  1.2506
  744MOL0     H98187  -3.525   9.679   2.343  2.0687 -0.6282  1.3595
  744MOL0     H98188  -3.709   9.633   2.169 -0.3703 -2.6097 -1.2151
  744MOL0     H98189  -3.734   9.584   2.336 -1.0376 -0.1752 -0.3805
  744MOL0     H98190  -2.587   9.481   1.910 -2.0579 -1.0516 -0.9451
  744MOL0     H98191  -2.363   9.566   1.857  1.3467 -0.0015 -0.2530
  744MOL0     H98192  -1.986   9.594   1.524  0.1269  0.8261 -3.4083
  744MOL0     H98193  -1.775   9.687   1.514 -1.5873 -2.6712  0.4099
  744MOL0     H98194  -0.206   9.871   0.853 -2.9532 -2.0448 -1.6591
  744MOL0     H98195   0.062   9.910   0.814 -0.2160  0.1494  3.3060
  744MOL0     H98196   0.429   9.594   0.421 -0.5971 -0.6533 -0.1924
  744MOL0     H98197   0.655   9.537   0.415 -2.0600 -1.1024 -1.1920
  744MOL0     H98198   0.833   9.433   0.466  2.3243 -0.9551 -1.7801
  744MOL0     H98199   0.991   9.453   0.539  0.0096 -1.4673  0.3542
  744MOL0     H98200   0.864   9.684   0.362  2.7533  1.3922 -2.3964
  744MOL0     H98201   1.001   9.695   0.470  1.5531 -0.7320 -0.2988
  744MOL0     H98202   1.132   9.525   0.339  0.4622 -1.2662 -2.2182
  744MOL0     H98203   1.062   9.646   0.228  1.2746 -0.9378 -0.8516
  744MOL0     H98204   0.967   9.358   0.275  0.0508  1.0737  1.0686
  744MOL0     H98205   0.878   9.485   0.190 -0.7247  0.0157 -0.3220
  744MOL0     H98206   1.234   9.370  -0.050  2.2853 -1.2153  2.9452
  744MOL0     H98207   0.716   9.655   0.825 -0.6335  0.6341 -0.1476
  744MOL0     H98208   0.475   9.686   0.842 -1.4587 -1.8431 -0.0296
  745MOL0     O98209  10.626  10.624  10.325 -0.1043 -0.2274  0.4137
  745MOL0     C98210  10.615  10.511  10.372 -0.4857  0.8479 -0.2030
  745MOL0     O98211  10.498  10.444  10.390  0.4328 -0.4957 -0.0170
  745MOL0     C98212  10.384  10.517  10.367 -0.4691 -0.0700 -0.2043
  745MOL0     C98213  10.345  10.623  10.455  0.0387  0.0006  0.3781
  745MOL0     C98214  10.224  10.688  10.442 -0.3902 -0.1150 -0.1162
  745MOL0     C98215  10.138  10.656  10.340  0.0626 -0.1585 -0.1072
  745MOL0     O98216  10.018  10.719  10.317 -0.8928 -0.3707  0.1298
  745MOL0     C98217   9.913  10.662  10.231 -0.4280  0.7458  0.6275
  745MOL0     C98218   9.812  10.776  10.228  0.0043  0.5884 -0.3795
  745MOL0     C98219   9.678  10.737  10.155  0.5874 -0.1588  0.0957
  745MOL0     C98220   9.591  10.868  10.142 -0.2273 -0.8518 -0.1689
  745MOL0     C98221   9.442  10.846  10.092 -0.3101 -0.3622 -0.3979
  745MOL0     C98222   9.376  10.983  10.082  0.0220  0.7128  0.9570
  745MOL0     C98223   9.265  10.987   9.970 -0.1776 -0.4669  0.6240
  745MOL0     C98224   9.204  11.132   9.967  0.4292 -0.9847  0.5655
  745MOL0     N98225   9.093  11.138   9.867  0.1933 -0.2037 -0.4099
  745MOL0     C98226   8.962  11.092   9.885 -0.2339 -0.4916 -0.1699
  745MOL0     C98227   8.893  11.127   9.776  0.1071  0.0749  0.3496
  745MOL0     C98228   8.747  11.106   9.730  1.2974 -0.6938 -0.5208
  745MOL0     C98229   8.679  10.970   9.767 -0.4434  0.3335 -0.7383
  745MOL0     C98230   8.534  10.951   9.731  0.3820  0.0535 -0.1555
  745MOL0     C98231   8.421  11.031   9.805 -0.2815 -0.4403 -0.8006
  745MOL0     O98232   8.338  10.928   9.857  0.0706  0.7197  0.4024
  745MOL0     C98233   8.208  10.948   9.882 -0.3137 -1.3506  0.2639
  745MOL0     C98234   8.130  10.835   9.889  0.1483  1.1755  0.2773
  745MOL0     C98235   8.000  10.842   9.910 -0.3869  0.6660  0.7509
  745MOL0     C98236   7.932  10.965   9.918  0.8457 -1.0001  0.7214
  745MOL0     C98237   7.794  10.985   9.943 -0.4207  0.7312  0.2310
  745MOL0     O98238   7.710  10.875   9.949  0.6149  0.2692 -0.0584
  745MOL0     C98239   7.573  10.892   9.971 -1.1765  0.2167  0.0733
  745MOL0     C98240   7.516  10.901  10.094  0.2321 -0.1210  0.1476
  745MOL0     C98241   7.380  10.889  10.111  0.5047 -0.6762 -0.8643
  745MOL0     C98242   7.296  10.879  10.000 -0.0732 -0.0427 -0.0064
  745MOL0     O98243   7.167  10.855  10.034  0.3772 -0.4608  0.3335
  745MOL0     C98244   7.079  10.809   9.926  0.4058  0.6725  0.1015
  745MOL0     C98245   6.937  10.790   9.972  0.1046 -0.0292  0.1881
  745MOL0     C98246   6.853  10.740   9.852  0.4484  0.4323  0.0821
  745MOL0     C98247   6.712  10.690   9.892  0.1740  0.0032  0.7708
  745MOL0     C98248   6.627  10.798   9.957  0.3027 -0.1763  0.0723
  745MOL0     C98249   6.490  10.725   9.997  1.0435  0.0930 -0.4501
  745MOL0     C98250   6.378  10.829  10.022 -0.3347  0.4733  0.3285
  745MOL0     C98251   6.291  10.795  10.137 -0.0035  0.3890 -0.1835
  745MOL0    Cl98252   6.153  10.911  10.141 -0.1348  0.5649 -0.1602
  745MOL0     C98253   7.346  10.904   9.878  0.0958  0.4484  0.3975
  745MOL0     C98254   7.485  10.919   9.863  0.2712  0.4166  0.8221
  745MOL0     O98255   7.756  11.100   9.966  0.1040  0.3015 -0.0255
  745MOL0     C98256   8.011  11.084   9.906 -0.4156 -0.6120  0.3132
  745MOL0     C98257   8.145  11.074   9.885 -0.0886  0.3480  1.0789
  745MOL0     N98258   8.984  11.185   9.689 -0.0234  0.4100 -0.7915
  745MOL0     N98259   9.097  11.179   9.740 -0.0923  0.4604 -1.8582
  745MOL0     C98260  10.179  10.551  10.251  0.5555 -0.5340 -0.3683
  745MOL0     C98261  10.301  10.490  10.258  0.3806  0.3475  0.6367
  745MOL0     C98262  10.753  10.443  10.395 -0.0826  0.9653  0.4051
  745MOL0     C98263  10.874  10.505  10.374 -0.0385  0.4179 -0.7730
  745MOL0     C98264  10.997  10.434  10.395  0.4803 -0.0196 -0.9117
  745MOL0     C98265  10.996  10.302  10.439 -0.4789 -0.7863  1.2272
  745MOL0     O98266  11.118  10.244  10.447  0.0594 -0.3765  0.5994
  745MOL0     C98267  11.126  10.101  10.479 -0.2217  0.3982 -0.2188
  745MOL0     C98268  11.275  10.072  10.471 -0.1536 -0.1449 -1.0720
  745MOL0     C98269  11.361  10.146  10.572  0.0060  0.5852  0.5408
  745MOL0     C98270  11.325  10.129  10.726  0.6565 -0.4567  1.1028
  745MOL0     C98271  11.432  10.189  10.796 -0.0481 -0.4277  0.4458
  745MOL0     C98272  11.532  10.223  10.855  0.9273  0.0368 -0.1333
  745MOL0     C98273  10.874  10.240  10.468  0.4003 -0.9080 -0.5897
  745MOL0     C98274  10.756  10.306  10.447  0.1058 -0.2340  0.3236
  745MOL0     H98275  10.409  10.641  10.541 -2.3739 -0.4068  2.3730
  745MOL0     H98276  10.192  10.766  10.510 -0.4685 -0.4206  0.1995
  745MOL0     H98277   9.885  10.566  10.274  0.6254  0.1588  0.0255
  745MOL0     H98278   9.940  10.640  10.127 -0.8655 -0.4878  0.7611
  745MOL0     H98279   9.859  10.858  10.172  1.1277  0.5059  0.4052
  745MOL0     H98280   9.793  10.809  10.331  0.1606  0.5923 -0.3523
  745MOL0     H98281   9.627  10.656  10.207 -0.1077  1.3569  1.9031
  745MOL0     H98282   9.699  10.704  10.053  3.4304 -1.6124  1.0475
  745MOL0     H98283   9.593  10.910  10.243  0.3691 -1.9315  0.2744
  745MOL0     H98284   9.637  10.944  10.078  3.0086 -0.5383  2.3170
  745MOL0     H98285   9.387  10.792  10.170 -0.4506  4.8372  3.6194
  745MOL0     H98286   9.442  10.801   9.992  0.7369 -0.5354 -0.3385
  745MOL0     H98287   9.442  11.055  10.033 -0.2220 -0.0436 -0.5200
  745MOL0     H98288   9.339  11.034  10.172 -1.9410 -1.0894  1.2744
  745MOL0     H98289   9.313  10.971   9.873 -0.9444  0.9107 -0.0163
  745MOL0     H98290   9.190  10.910   9.988 -3.0606  1.5401 -1.7427
  745MOL0     H98291   9.274  11.210   9.935 -0.1871 -1.3390 -1.8564
  745MOL0     H98292   9.176  11.179  10.062  3.9824  2.3095  0.2550
  745MOL0     H98293   8.923  11.026   9.961 -3.3521  0.7689 -0.5085
  745MOL0     H98294   8.726  11.145   9.630 -2.2996  0.1963  0.4516
  745MOL0     H98295   8.684  11.171   9.791 -0.6726 -3.3451  0.3976
  745MOL0     H98296   8.693  10.952   9.874 -1.8693  1.2833 -0.3634
  745MOL0     H98297   8.733  10.893   9.711  0.9715 -1.6904  3.0324
  745MOL0     H98298   8.513  10.973   9.626 -3.0848  0.1238  0.4370
  745MOL0     H98299   8.509  10.846   9.750 -0.8026  0.4235  0.4699
  745MOL0     H98300   8.360  11.086   9.732 -0.6436 -0.9771 -0.9095
  745MOL0     H98301   8.450  11.104   9.881  1.0582  1.3192 -2.8869
  745MOL0     H98302   8.178  10.738   9.903 -1.1558  0.2943 -1.0510
  745MOL0     H98303   7.952  10.745   9.922  2.6162 -1.3680 -1.7958
  745MOL0     H98304   7.570  10.916  10.187  0.5250 -0.0215 -0.0388
  745MOL0     H98305   7.343  10.874  10.212 -2.1102 -3.0775 -2.0248
  745MOL0     H98306   7.117  10.717   9.880 -0.7146 -0.1075  0.6776
  745MOL0     H98307   7.076  10.882   9.845  1.4691  1.1720  0.5056
  745MOL0     H98308   6.898  10.880  10.022 -1.2445 -0.6930  0.3646
  745MOL0     H98309   6.931  10.713  10.049 -1.2923  0.6162  0.7630
  745MOL0     H98310   6.896  10.651   9.804 -2.5084 -0.5248 -1.0427
  745MOL0     H98311   6.840  10.814   9.773 -1.4042  1.5438  1.3636
  745MOL0     H98312   6.659  10.643   9.809 -0.5447 -1.5335  2.0541
  745MOL0     H98313   6.719  10.606   9.961 -0.8443 -1.2582 -0.5972
  745MOL0     H98314   6.617  10.877   9.882 -0.6963  0.3421  0.7263
  745MOL0     H98315   6.674  10.836  10.048  0.6019  0.3593 -0.3029
  745MOL0     H98316   6.505  10.664  10.086  0.5210 -0.2019 -0.5569
  745MOL0     H98317   6.463  10.652   9.920 -0.6879 -1.1630  1.2366
  745MOL0     H98318   6.422  10.927  10.043  0.5462  0.4947 -1.4396
  745MOL0     H98319   6.311  10.851   9.937 -2.6469  1.3666  2.2528
  745MOL0     H98320   6.337  10.796  10.237  1.1197  0.8030 -0.6836
  745MOL0     H98321   6.263  10.690  10.122  0.9058  0.1448 -0.2400
  745MOL0     H98322   7.285  10.901   9.789  1.1364 -0.4276 -0.3186
  745MOL0     H98323   7.532  10.934   9.767 -0.0175  0.8242  0.7412
  745MOL0     H98324   7.979  11.186   9.926  1.8199  0.4681 -1.3073
  745MOL0     H98325   8.196  11.169   9.890  0.0918  0.2346  1.4919
  745MOL0     H98326  10.107  10.516  10.177 -0.4001  0.8248 -0.1427
  745MOL0     H98327  10.332  10.414  10.188 -1.8232 -1.7899  1.8323
  745MOL0     H98328  10.866  10.609  10.345 -1.7145  1.1127  1.8055
  745MOL0     H98329  11.099  10.469  10.379  1.4667 -2.8451 -1.3651
  745MOL0     H98330  11.077  10.031  10.410  0.5003 -1.3703  1.0027
  745MOL0     H98331  11.106  10.076  10.583  1.1206 -0.4779 -0.1470
  745MOL0     H98332  11.285   9.965  10.491 -0.9599 -0.2280 -1.0899
  745MOL0     H98333  11.310  10.085  10.368 -1.9802 -1.4633 -1.9051
  745MOL0     H98334  11.365  10.248  10.534 -2.2848  0.4996 -0.0893
  745MOL0     H98335  11.458  10.096  10.563 -1.0458 -1.1651 -3.4492
  745MOL0     H98336  11.230  10.176  10.754 -0.0038 -0.4829 -0.8673
  745MOL0     H98337  11.310  10.021  10.737  1.2517 -0.7691 -0.8091
  745MOL0     H98338  11.628  10.255  10.891  1.5342 -1.2562 -0.5333
  745MOL0     H98339  10.850  10.145  10.514 -0.2860  0.5172  2.2435
  745MOL0     H98340  10.672  10.243  10.471  0.0470 -0.6587 -0.9108
  746MOL0     O98341   3.908   4.734   9.393  0.1108 -0.3958 -0.9054
  746MOL0     C98342   3.922   4.669   9.292 -0.1203 -0.3758  0.2240
  746MOL0     O98343   3.966   4.706   9.173  0.4682 -0.0890  0.8259
  746MOL0     C98344   3.983   4.840   9.142  0.1713 -0.2425  0.3386
  746MOL0     C98345   3.973   4.952   9.221  0.2443  0.3636 -0.0975
  746MOL0     C98346   4.007   5.078   9.162 -0.1582  0.6938  0.0730
  746MOL0     C98347   4.032   5.091   9.027  0.3458  1.3329  1.0163
  746MOL0     O98348   4.049   5.224   8.977  0.0356 -0.5694 -0.1911
  746MOL0     C98349   4.043   5.245   8.837  0.3454 -1.3089  0.2389
  746MOL0     C98350   4.094   5.388   8.806  0.2123  0.9883  0.3187
  746MOL0     C98351   3.981   5.477   8.810 -0.4179  0.6235 -0.2050
  746MOL0     C98352   4.017   5.627   8.775 -0.0764 -0.3432 -0.0403
  746MOL0     C98353   4.049   5.658   8.626 -0.1337 -0.4339 -0.5084
  746MOL0     C98354   3.934   5.644   8.528 -0.0830  0.4588 -0.8559
  746MOL0     C98355   3.998   5.620   8.387 -0.2269 -0.0396 -0.3026
  746MOL0     C98356   4.005   5.757   8.305 -0.8200  0.2861 -0.5400
  746MOL0     N98357   3.873   5.816   8.275  0.5739  0.0672 -0.1213
  746MOL0     C98358   3.768   5.767   8.205  0.8751  0.5286 -0.4004
  746MOL0     C98359   3.669   5.848   8.244 -0.9058 -0.5067  0.2327
  746MOL0     C98360   3.539   5.828   8.181 -0.0280 -0.2510  0.2865
  746MOL0     C98361   3.451   5.726   8.257  0.4052  0.0756 -1.1601
  746MOL0     C98362   3.378   5.800   8.371  0.1070 -0.1598 -0.1825
  746MOL0     C98363   3.271   5.715   8.431  0.5887  0.8477 -0.1541
  746MOL0     O98364   3.164   5.683   8.333 -1.5775 -0.1216 -0.1856
  746MOL0     C98365   3.042   5.662   8.388  0.5694  0.0498  0.0062
  746MOL0     C98366   2.951   5.765   8.381  0.1230  0.3558  0.5338
  746MOL0     C98367   2.821   5.742   8.428 -0.1146  1.0692 -0.3358
  746MOL0     C98368   2.792   5.627   8.497  1.6151 -0.1144 -0.2399
  746MOL0     C98369   2.652   5.625   8.567 -0.0107 -0.3704  0.5906
  746MOL0     O98370   2.566   5.727   8.545  0.7958  0.0229  0.0825
  746MOL0     C98371   2.437   5.702   8.593 -0.0157  0.4717  0.0862
  746MOL0     C98372   2.335   5.664   8.511  0.6217  0.1907  0.3970
  746MOL0     C98373   2.205   5.650   8.553 -0.4618 -0.1146  0.4469
  746MOL0     C98374   2.172   5.687   8.686  0.5890  0.6499 -0.2522
  746MOL0     O98375   2.036   5.679   8.725 -0.1651  0.3366 -0.0550
  746MOL0     C98376   2.018   5.628   8.854 -0.1787  0.2047 -0.0543
  746MOL0     C98377   1.870   5.589   8.859  0.8552 -0.0586 -0.0443
  746MOL0     C98378   1.763   5.702   8.844 -0.3999 -0.0234 -0.3411
  746MOL0     C98379   1.761   5.793   8.718  0.2171 -0.3136 -0.5364
  746MOL0     C98380   1.729   5.728   8.588 -0.2070  0.8709 -0.6133
  746MOL0     C98381   1.575   5.731   8.557 -0.3010 -0.7451 -0.6664
  746MOL0     C98382   1.532   5.868   8.494  0.2068 -0.6046 -0.4136
  746MOL0     C98383   1.390   5.845   8.448  0.8182 -0.3593  0.3843
  746MOL0    Cl98384   1.289   5.823   8.591  0.4979  0.1070 -0.0022
  746MOL0     C98385   2.276   5.713   8.775 -0.5644  0.2635 -0.2630
  746MOL0     C98386   2.412   5.719   8.729  0.5661  0.4209 -0.1815
  746MOL0     O98387   2.628   5.514   8.612  0.3485  0.8077 -0.1937
  746MOL0     C98388   2.883   5.521   8.502 -0.6214  0.5385  0.1030
  746MOL0     C98389   3.002   5.536   8.440 -0.8306  0.4274  0.1819
  746MOL0     N98390   3.709   5.940   8.341 -0.5449 -0.1679 -0.2648
  746MOL0     N98391   3.838   5.924   8.345  0.6860 -0.7432 -0.1758
  746MOL0     C98392   4.041   4.974   8.950  0.1772 -0.1176 -0.7511
  746MOL0     C98393   4.029   4.850   9.013 -0.4076  0.0264  0.2460
  746MOL0     C98394   3.875   4.521   9.297 -0.0136  0.1748 -0.2588
  746MOL0     C98395   3.894   4.438   9.179  0.2483  0.6479  0.0670
  746MOL0     C98396   3.856   4.301   9.185  0.7065  0.4121 -0.0258
  746MOL0     C98397   3.828   4.236   9.307 -0.6232 -0.2969  0.4325
  746MOL0     O98398   3.806   4.105   9.302 -0.1578 -0.8769  0.1973
  746MOL0     C98399   3.816   4.014   9.411 -0.1659 -0.2524 -0.0985
  746MOL0     C98400   3.677   3.993   9.472 -0.1563  0.7324 -0.0598
  746MOL0     C98401   3.685   3.965   9.625 -0.2409  0.1632  0.7691
  746MOL0     C98402   3.552   3.938   9.686  0.1567  0.0329 -0.0698
  746MOL0     C98403   3.452   3.853   9.624  0.2472 -0.6406 -0.6242
  746MOL0     C98404   3.367   3.781   9.579 -0.8021  0.5977  0.5578
  746MOL0     C98405   3.807   4.316   9.416  0.0408 -0.4706 -0.8281
  746MOL0     C98406   3.829   4.457   9.415 -0.3364 -0.1595 -0.3673
  746MOL0     H98407   3.946   4.951   9.326  0.9838 -1.3435  0.1062
  746MOL0     H98408   4.018   5.168   9.220  1.5643  1.3080 -1.1303
  746MOL0     H98409   3.942   5.229   8.798 -0.8013 -1.9337  3.1886
  746MOL0     H98410   4.110   5.174   8.788 -0.7869 -1.0438 -1.7881
  746MOL0     H98411   4.133   5.386   8.704 -2.4256  1.1041 -0.7684
  746MOL0     H98412   4.172   5.413   8.879  0.8458 -0.9839  0.3681
  746MOL0     H98413   3.943   5.480   8.912 -0.9585 -2.7967 -0.2054
  746MOL0     H98414   3.897   5.446   8.748 -1.4921 -0.9593  1.9491
  746MOL0     H98415   3.943   5.702   8.806  3.3040  3.4610 -0.3206
  746MOL0     H98416   4.105   5.657   8.833  0.9400 -1.3125 -1.0170
  746MOL0     H98417   4.135   5.593   8.609 -1.2747 -2.0100 -0.4935
  746MOL0     H98418   4.081   5.763   8.633 -2.2997  0.2449  0.0482
  746MOL0     H98419   3.863   5.727   8.529 -1.3640 -0.5400 -2.4722
  746MOL0     H98420   3.870   5.562   8.562 -1.8335  2.5646  1.1438
  746MOL0     H98421   4.099   5.577   8.385 -0.4110 -0.4747 -1.6066
  746MOL0     H98422   3.941   5.549   8.325  1.5562 -0.3467 -1.6963
  746MOL0     H98423   4.059   5.749   8.210 -2.3889  2.5816 -1.7220
  746MOL0     H98424   4.069   5.825   8.361  0.0289 -1.0559  0.1670
  746MOL0     H98425   3.765   5.692   8.127 -0.5373  1.7412 -1.5988
  746MOL0     H98426   3.554   5.790   8.080  0.6745  0.5235  0.0925
  746MOL0     H98427   3.479   5.916   8.157 -1.5306 -0.4613  2.8500
  746MOL0     H98428   3.516   5.644   8.292 -2.0204 -1.8048 -0.7958
  746MOL0     H98429   3.382   5.673   8.190 -0.0788 -1.8341  0.7379
  746MOL0     H98430   3.449   5.836   8.446 -1.4241 -1.5973  2.0681
  746MOL0     H98431   3.335   5.894   8.334 -0.1695  1.2134  3.2448
  746MOL0     H98432   3.220   5.762   8.515 -0.7248 -0.4516 -0.1788
  746MOL0     H98433   3.322   5.624   8.465 -1.8677 -1.6882 -2.6157
  746MOL0     H98434   2.981   5.860   8.338  0.8824  0.0789  0.4265
  746MOL0     H98435   2.749   5.821   8.411 -1.3910 -0.1980 -1.1305
  746MOL0     H98436   2.360   5.648   8.407  0.4828 -0.8615  0.5071
  746MOL0     H98437   2.122   5.614   8.493  0.2962 -0.2180 -0.5588
  746MOL0     H98438   2.044   5.692   8.939 -1.3873  0.8214 -0.1243
  746MOL0     H98439   2.075   5.537   8.876 -1.3054 -0.7242 -0.8686
  746MOL0     H98440   1.841   5.547   8.955  1.4053 -1.5410 -0.5068
  746MOL0     H98441   1.873   5.512   8.781  0.1342  0.1020 -0.2410
  746MOL0     H98442   1.758   5.768   8.931  1.7139 -2.1793  1.5444
  746MOL0     H98443   1.672   5.641   8.845  0.6108 -1.6595  1.8271
  746MOL0     H98444   1.683   5.868   8.733  0.6865  0.8286 -3.2044
  746MOL0     H98445   1.853   5.852   8.728 -1.8129  2.7587  1.7852
  746MOL0     H98446   1.764   5.627   8.612 -1.3272  0.8990  1.3826
  746MOL0     H98447   1.779   5.768   8.500 -1.5513 -0.5599 -2.0926
  746MOL0     H98448   1.517   5.705   8.646  0.9477  0.4063  0.5354
  746MOL0     H98449   1.539   5.652   8.490 -2.7250  0.9320 -1.4914
  746MOL0     H98450   1.538   5.955   8.560  1.3907 -0.3833 -0.7970
  746MOL0     H98451   1.590   5.899   8.407  0.9820  3.7602  1.4255
  746MOL0     H98452   1.386   5.756   8.384 -0.2557  0.1701 -0.3243
  746MOL0     H98453   1.353   5.930   8.389  0.7331 -0.5388  0.1740
  746MOL0     H98454   2.260   5.721   8.882  2.9997 -3.1916  0.7742
  746MOL0     H98455   2.480   5.766   8.799 -1.9673  1.9912  1.4235
  746MOL0     H98456   2.869   5.432   8.564 -3.7668  0.3325 -0.7370
  746MOL0     H98457   3.080   5.460   8.447 -2.1506 -1.1020 -0.8699
  746MOL0     H98458   4.083   4.978   8.849  2.6327  3.0690  0.2174
  746MOL0     H98459   4.054   4.760   8.958 -1.9375 -0.6752  0.6216
  746MOL0     H98460   3.932   4.469   9.082 -0.2844  0.3940 -0.2236
  746MOL0     H98461   3.861   4.244   9.093  0.4904  2.9009 -1.6795
  746MOL0     H98462   3.881   4.055   9.489 -1.7450 -0.0838  1.1711
  746MOL0     H98463   3.845   3.916   9.372  0.7732 -0.0039 -0.0525
  746MOL0     H98464   3.621   4.086   9.458 -1.8897 -0.3563 -0.7430
  746MOL0     H98465   3.632   3.909   9.418 -2.3651  1.2844  0.8166
  746MOL0     H98466   3.739   4.046   9.673 -1.2145  0.5965  1.1618
  746MOL0     H98467   3.740   3.873   9.647 -1.4971 -0.5266  1.1829
  746MOL0     H98468   3.575   3.886   9.779  0.0641 -0.3366 -0.2550
  746MOL0     H98469   3.508   4.035   9.713  3.1842  0.6736  3.2447
  746MOL0     H98470   3.291   3.721   9.533  0.8733 -1.9720  0.9391
  746MOL0     H98471   3.800   4.260   9.509  1.4872 -0.1470 -0.5020
  746MOL0     H98472   3.822   4.515   9.506  0.0970 -1.0987  0.2878
  747MOL0     O98473   9.905   2.151   8.714  0.0043 -0.6389 -0.0099
  747MOL0     C98474   9.957   2.097   8.812 -0.0460 -0.3330 -0.5096
  747MOL0     O98475   9.898   2.034   8.918 -0.1393  0.1475  0.3928
  747MOL0     C98476   9.762   2.026   8.934 -0.3899  0.5269 -0.1606
  747MOL0     C98477   9.712   1.915   8.988  0.5569  0.2837  0.0712
  747MOL0     C98478   9.580   1.903   9.044  0.0974  0.3653  1.0582
  747MOL0     C98479   9.494   2.010   9.022 -1.1006 -0.3660 -0.3555
  747MOL0     O98480   9.371   2.006   9.072  0.2979 -0.5086 -1.1564
  747MOL0     C98481   9.286   1.890   9.055  0.6005  0.6811 -0.0727
  747MOL0     C98482   9.135   1.921   9.040  0.0378 -0.3840 -0.3422
  747MOL0     C98483   9.117   2.022   8.925 -0.5053 -0.5339 -0.7592
  747MOL0     C98484   8.971   2.074   8.911  0.6175  0.7447 -0.4289
  747MOL0     C98485   8.919   2.138   9.039 -0.1427 -0.1432  0.5440
  747MOL0     C98486   8.803   2.224   9.006  0.6491  0.2056 -0.2084
  747MOL0     C98487   8.677   2.144   8.961  0.2963  0.5819 -0.4535
  747MOL0     C98488   8.577   2.215   8.866  0.0972 -1.1267 -0.5967
  747MOL0     N98489   8.539   2.350   8.921  0.3767 -0.1553 -0.1671
  747MOL0     C98490   8.473   2.374   9.041  0.3150 -0.2995 -0.7597
  747MOL0     C98491   8.460   2.511   9.041  0.9080  0.8318  0.7869
  747MOL0     C98492   8.379   2.591   9.152 -0.1345 -0.4783 -0.3306
  747MOL0     C98493   8.241   2.540   9.166  0.2428  0.3672  0.1084
  747MOL0     C98494   8.157   2.644   9.234 -0.3760  0.0726 -0.1734
  747MOL0     C98495   8.017   2.595   9.253  0.3313  0.1937 -0.2561
  747MOL0     O98496   7.955   2.602   9.129  0.1232  0.5211 -0.0760
  747MOL0     C98497   7.817   2.592   9.102 -0.7785 -0.6846  0.2727
  747MOL0     C98498   7.715   2.580   9.201  0.1578 -0.5450 -0.6357
  747MOL0     C98499   7.586   2.562   9.155  0.5463  0.7655 -0.4864
  747MOL0     C98500   7.553   2.554   9.018 -0.0909  0.0991 -0.1345
  747MOL0     C98501   7.408   2.530   8.970 -0.1664 -0.0981  0.2557
  747MOL0     O98502   7.315   2.505   9.063  0.3169  0.3352 -1.4889
  747MOL0     C98503   7.198   2.466   9.014 -0.8730  0.4724  0.0706
  747MOL0     C98504   7.185   2.339   8.949 -0.0637  0.8051 -0.1629
  747MOL0     C98505   7.059   2.289   8.910  0.0784  0.7519 -0.6364
  747MOL0     C98506   6.947   2.366   8.942 -0.6530 -0.6485  0.1220
  747MOL0     O98507   6.829   2.297   8.905 -0.5898 -0.2701 -0.0610
  747MOL0     C98508   6.752   2.380   8.816  0.2132  0.4883  0.1876
  747MOL0     C98509   6.708   2.281   8.712  0.9737 -0.1666  0.4515
  747MOL0     C98510   6.673   2.347   8.569  0.4751 -0.4213 -0.6432
  747MOL0     C98511   6.551   2.284   8.508 -0.1508  1.0787  0.7683
  747MOL0     C98512   6.553   2.316   8.362 -0.2853  0.9832  0.1263
  747MOL0     C98513   6.542   2.467   8.334 -0.1885 -0.7067  0.2813
  747MOL0     C98514   6.456   2.473   8.208 -0.0318 -0.0095 -0.5694
  747MOL0     C98515   6.421   2.619   8.181 -0.2368  0.8974  0.1987
  747MOL0    Cl98516   6.327   2.644   8.035  0.2125  0.1637 -0.4355
  747MOL0     C98517   6.955   2.498   8.991  0.7510  0.7741  0.4902
  747MOL0     C98518   7.086   2.542   9.027  0.2655  0.0480  0.3322
  747MOL0     O98519   7.394   2.519   8.852 -0.6992 -0.4241 -0.0195
  747MOL0     C98520   7.657   2.549   8.923  0.5298 -0.3569  0.9219
  747MOL0     C98521   7.785   2.574   8.965 -1.6787  1.1463 -0.9223
  747MOL0     N98522   8.516   2.552   8.927 -0.0343 -0.2879  0.3765
  747MOL0     N98523   8.568   2.460   8.858  0.1110 -0.1493 -0.7942
  747MOL0     C98524   9.543   2.126   8.961  0.1473 -0.3174 -0.5036
  747MOL0     C98525   9.679   2.136   8.930  0.4722 -0.9061  0.2711
  747MOL0     C98526  10.104   2.100   8.815 -0.3462  0.2291 -0.0569
  747MOL0     C98527  10.173   2.046   8.929 -0.7381 -0.3202 -0.5972
  747MOL0     C98528  10.313   2.041   8.924  0.1253 -0.0552 -0.2001
  747MOL0     C98529  10.394   2.087   8.822  1.0185 -0.9649  0.0357
  747MOL0     O98530  10.528   2.076   8.846  0.4326  0.8500  0.2310
  747MOL0     C98531  10.618   2.182   8.806  0.9701 -0.1180  0.2324
  747MOL0     C98532  10.593   2.318   8.885 -0.3565  0.3865 -1.2024
  747MOL0     C98533  10.620   2.297   9.042  0.1719 -0.2892 -1.0740
  747MOL0     C98534  10.604   2.432   9.122  0.6113  1.1490  0.7520
  747MOL0     C98535  10.643   2.412   9.261  0.0728 -0.4202  0.0691
  747MOL0     C98536  10.697   2.383   9.371 -0.7370  0.6832 -0.8305
  747MOL0     C98537  10.331   2.139   8.709  0.3593 -0.7654  0.3347
  747MOL0     C98538  10.187   2.138   8.703  0.1660  0.1972  0.0153
  747MOL0     H98539   9.773   1.825   8.997  0.8608  0.2019 -2.1981
  747MOL0     H98540   9.550   1.810   9.091  0.1997 -0.1000  0.2210
  747MOL0     H98541   9.289   1.827   9.145 -1.9904  0.1736 -0.2475
  747MOL0     H98542   9.309   1.834   8.964  2.2225 -1.6821  1.6571
  747MOL0     H98543   9.105   1.975   9.130  2.2912  1.5722 -0.6641
  747MOL0     H98544   9.074   1.833   9.015 -1.4044  0.3231  0.5616
  747MOL0     H98545   9.149   1.979   8.829 -0.2839 -0.7590 -0.5871
  747MOL0     H98546   9.175   2.112   8.949 -2.0217  0.7246 -1.6001
  747MOL0     H98547   8.967   2.131   8.818  1.0652  0.2645 -0.7478
  747MOL0     H98548   8.913   1.982   8.897 -1.2472  2.0513 -1.6265
  747MOL0     H98549   8.998   2.209   9.066  0.8653  1.1764 -4.7761
  747MOL0     H98550   8.888   2.062   9.112 -2.2256 -0.4484 -0.5847
  747MOL0     H98551   8.829   2.305   8.937 -2.5586  1.4243 -0.1560
  747MOL0     H98552   8.777   2.282   9.095  0.7762  2.1087 -1.3460
  747MOL0     H98553   8.714   2.053   8.913 -1.3850 -1.5697  2.0804
  747MOL0     H98554   8.616   2.112   9.046  2.0596 -1.8541 -0.0145
  747MOL0     H98555   8.487   2.155   8.850 -1.8013  2.1462 -3.8316
  747MOL0     H98556   8.624   2.229   8.768  1.3273  1.6525  0.2776
  747MOL0     H98557   8.445   2.302   9.117 -0.4805 -1.3652 -2.0289
  747MOL0     H98558   8.377   2.694   9.114  1.4132 -0.2307  0.1773
  747MOL0     H98559   8.431   2.591   9.248  4.3117  0.6947 -2.4298
  747MOL0     H98560   8.233   2.449   9.227 -2.3561  2.1107  2.5953
  747MOL0     H98561   8.200   2.511   9.069 -1.1012 -0.5248  0.9070
  747MOL0     H98562   8.204   2.663   9.331  3.1509  0.0790 -1.7523
  747MOL0     H98563   8.160   2.739   9.181 -1.9476  1.6916  2.4035
  747MOL0     H98564   7.971   2.665   9.324  1.6613  0.6773  0.1609
  747MOL0     H98565   8.012   2.489   9.279 -3.3806  0.3506  0.1386
  747MOL0     H98566   7.726   2.577   9.309 -2.7416 -3.8551 -0.2681
  747MOL0     H98567   7.511   2.561   9.233 -1.2081  0.9065 -2.0768
  747MOL0     H98568   7.261   2.266   8.925 -0.8395  0.5022 -1.8777
  747MOL0     H98569   7.042   2.194   8.860 -1.1228  0.8325 -0.4040
  747MOL0     H98570   6.805   2.464   8.769 -0.8274  1.2040  0.2549
  747MOL0     H98571   6.673   2.423   8.879 -0.1758 -0.0309  0.0652
  747MOL0     H98572   6.622   2.225   8.750  0.2772 -1.0412 -2.1653
  747MOL0     H98573   6.775   2.195   8.698  1.3926 -0.0786  1.8103
  747MOL0     H98574   6.767   2.332   8.516  1.2314 -1.5785  0.9354
  747MOL0     H98575   6.646   2.452   8.574 -1.6105 -0.8694 -1.6099
  747MOL0     H98576   6.560   2.176   8.516 -2.7519  0.7757  0.3639
  747MOL0     H98577   6.458   2.307   8.561 -0.8555 -2.4496  1.3119
  747MOL0     H98578   6.485   2.249   8.310  0.7568  1.1111 -1.4730
  747MOL0     H98579   6.649   2.281   8.324  0.2145  0.0905  2.0795
  747MOL0     H98580   6.638   2.516   8.316 -0.9672  1.6931  2.1670
  747MOL0     H98581   6.493   2.514   8.420  0.1731 -2.7487  1.6772
  747MOL0     H98582   6.507   2.425   8.125  0.0299  1.1436 -1.2207
  747MOL0     H98583   6.369   2.410   8.228  0.2982 -0.3140 -0.0614
  747MOL0     H98584   6.517   2.667   8.163  0.5804 -0.7674 -0.1224
  747MOL0     H98585   6.383   2.663   8.274 -0.8367 -1.0333  0.9282
  747MOL0     H98586   6.870   2.562   9.013  1.4067  1.6093  0.6484
  747MOL0     H98587   7.088   2.620   9.102 -2.7967 -0.8721  1.5183
  747MOL0     H98588   7.641   2.518   8.820  1.3397  2.3674 -0.1017
  747MOL0     H98589   7.862   2.556   8.891 -0.9212  2.1402 -0.4017
  747MOL0     H98590   9.484   2.216   8.967  2.5455  1.2395  1.8342
  747MOL0     H98591   9.712   2.237   8.910  1.1423 -0.9997  0.8809
  747MOL0     H98592  10.133   2.007   9.021  0.1985  0.7611  0.3042
  747MOL0     H98593  10.378   2.001   9.001  1.2871  2.3961  0.1956
  747MOL0     H98594  10.605   2.203   8.699 -2.6694 -0.4609  0.4750
  747MOL0     H98595  10.716   2.138   8.829  2.0434  1.5650 -0.9478
  747MOL0     H98596  10.675   2.385   8.859 -1.1585  3.0341  2.3215
  747MOL0     H98597  10.496   2.367   8.873 -1.5478 -1.9584 -1.7334
  747MOL0     H98598  10.720   2.256   9.059 -1.5595 -3.9804  1.5446
  747MOL0     H98599  10.551   2.221   9.080 -0.3757  0.9242  0.4841
  747MOL0     H98600  10.661   2.508   9.068 -2.4698  2.1849 -1.3623
  747MOL0     H98601  10.500   2.466   9.122  0.8134  1.9280 -1.2620
  747MOL0     H98602  10.750   2.358   9.461 -0.3362 -0.8597 -1.4694
  747MOL0     H98603  10.391   2.181   8.628 -1.3083  0.8080 -0.1587
  747MOL0     H98604  10.132   2.177   8.618 -0.0957  3.6698  1.5795
  748MOL0     O98605   9.634  10.589   9.040  0.1447 -0.0533  0.2879
  748MOL0     C98606   9.752  10.567   9.052  0.3040 -0.3479  0.0556
  748MOL0     O98607   9.843  10.649   9.096 -0.3309 -0.6912  0.1849
  748MOL0     C98608   9.807  10.782   9.128  0.5154  0.4469  0.3346
  748MOL0     C98609   9.734  10.814   9.240 -0.4936  0.6213 -0.4052
  748MOL0     C98610   9.711  10.948   9.268 -0.2006 -0.2263 -0.3036
  748MOL0     C98611   9.751  11.056   9.178 -0.5912  0.6892  0.3564
  748MOL0     O98612   9.713  11.183   9.211 -0.4008  0.3959 -0.1767
  748MOL0     C98613   9.635  11.246   9.111 -1.2586  0.1144 -0.0146
  748MOL0     C98614   9.613  11.392   9.140 -0.3028  0.2896 -0.3756
  748MOL0     C98615   9.716  11.493   9.090 -0.5524 -0.2680  0.3456
  748MOL0     C98616   9.706  11.623   9.162 -0.2504 -0.2637 -0.4505
  748MOL0     C98617   9.803  11.728   9.111  0.4193 -0.1186 -0.6161
  748MOL0     C98618   9.946  11.718   9.153 -0.6210 -0.0112  0.9055
  748MOL0     C98619  10.038  11.793   9.058  0.6253 -0.5988  0.4786
  748MOL0     C98620  10.180  11.768   9.098  0.2703 -0.2791 -0.4240
  748MOL0     N98621  10.205  11.822   9.235 -0.9316  0.1538 -0.2538
  748MOL0     C98622  10.276  11.754   9.336  0.2504  0.2844  0.5175
  748MOL0     C98623  10.304  11.844   9.430  0.5627  0.4181  0.1061
  748MOL0     C98624  10.371  11.802   9.554  0.1656 -0.2606  0.1523
  748MOL0     C98625  10.451  11.921   9.616 -0.2387 -0.1857 -0.1517
  748MOL0     C98626  10.571  11.961   9.523  0.1887  0.1360  0.2562
  748MOL0     C98627  10.702  11.874   9.537  0.4691 -0.2235 -0.3469
  748MOL0     O98628  10.672  11.739   9.564  0.1211  0.5886  0.0771
  748MOL0     C98629  10.782  11.665   9.560  0.0402  0.2442 -0.5295
  748MOL0     C98630  10.878  11.664   9.664 -0.1843 -0.6366 -0.0903
  748MOL0     C98631  11.006  11.603   9.650  0.0437 -0.3270  0.3163
  748MOL0     C98632  11.037  11.547   9.522 -0.6074 -0.5260 -0.3760
  748MOL0     C98633  11.174  11.506   9.486 -0.7138 -0.8112  0.4812
  748MOL0     O98634  11.207  11.477   9.357  0.4590 -0.6887 -0.9420
  748MOL0     C98635  11.339  11.445   9.344 -0.3964 -0.8437 -0.2105
  748MOL0     C98636  11.430  11.544   9.297  0.6977 -0.3760  0.0028
  748MOL0     C98637  11.566  11.515   9.287  0.0204 -0.2906  0.2816
  748MOL0     C98638  11.610  11.382   9.301  0.4274  0.1135  1.0473
  748MOL0     O98639  11.739  11.340   9.282 -0.1353 -0.4414 -0.4426
  748MOL0     C98640  11.788  11.345   9.142  0.2058 -0.6658  0.2704
  748MOL0     C98641  11.921  11.265   9.136 -0.6814  0.0889 -0.2841
  748MOL0     C98642  12.038  11.341   9.203  0.3296 -1.1554 -0.5555
  748MOL0     C98643  12.169  11.268   9.170 -0.2613 -0.0263  0.1166
  748MOL0     C98644  12.296  11.341   9.230  0.0437  0.2027  0.8014
  748MOL0     C98645  12.428  11.272   9.198  0.0343 -1.1359 -0.0962
  748MOL0     C98646  12.508  11.331   9.084  0.4610  0.2910  0.1750
  748MOL0     C98647  12.650  11.270   9.071 -0.1961 -0.6794  0.1246
  748MOL0    Cl98648  12.772  11.323   9.190  0.1632 -0.0050 -0.3127
  748MOL0     C98649  11.527  11.284   9.345 -0.0701 -0.2943  0.4102
  748MOL0     C98650  11.393  11.322   9.375 -0.5595  0.4643 -0.1884
  748MOL0     O98651  11.249  11.505   9.585  0.0384  0.2136  0.1559
  748MOL0     C98652  10.933  11.534   9.423  0.3945 -0.0607 -0.4139
  748MOL0     C98653  10.808  11.594   9.447 -0.4032  1.3751  0.1476
  748MOL0     N98654  10.252  11.970   9.388 -0.1877  0.5130  0.1380
  748MOL0     N98655  10.198  11.961   9.266 -0.2922  0.3893  0.3043
  748MOL0     C98656   9.823  11.014   9.071 -0.1161  0.5215  1.0614
  748MOL0     C98657   9.844  10.879   9.035 -0.6409 -0.1476 -0.7387
  748MOL0     C98658   9.796  10.441   9.001  0.4534  0.5803  0.4559
  748MOL0     C98659   9.714  10.350   8.931 -0.5145  1.3518  0.0783
  748MOL0     C98660   9.777  10.245   8.856 -0.7971 -0.2758 -0.5396
  748MOL0     C98661   9.912  10.208   8.874 -0.6312 -0.6885 -0.1043
  748MOL0     O98662   9.958  10.110   8.791  0.0557 -0.4346 -0.0452
  748MOL0     C98663  10.105  10.087   8.786 -0.2284  0.3418  0.5334
  748MOL0     C98664  10.131   9.996   8.668 -0.5154  0.1540  0.6136
  748MOL0     C98665  10.140   9.851   8.718 -0.4528  0.4194  0.1060
  748MOL0     C98666  10.113   9.748   8.609  0.0847  0.5117 -0.5318
  748MOL0     C98667  10.147   9.620   8.668 -0.3887 -0.5740  0.3520
  748MOL0     C98668  10.180   9.519   8.729  0.5194  0.5596 -0.0448
  748MOL0     C98669   9.986  10.286   8.965  0.6760  0.4618  0.2060
  748MOL0     C98670   9.927  10.398   9.023  0.5106  0.0662 -0.5233
  748MOL0     H98671   9.729  10.737   9.316  3.4012 -1.1566 -1.6644
  748MOL0     H98672   9.660  10.992   9.353  1.3146  0.3418  0.3456
  748MOL0     H98673   9.538  11.197   9.099 -1.3857  0.7718 -2.0235
  748MOL0     H98674   9.687  11.250   9.015  0.5306 -1.2510  0.8412
  748MOL0     H98675   9.592  11.399   9.247 -2.2126 -1.3712 -0.5999
  748MOL0     H98676   9.519  11.421   9.092  0.4155  0.7711 -1.5539
  748MOL0     H98677   9.700  11.506   8.982  1.7205 -0.8700 -0.1315
  748MOL0     H98678   9.814  11.447   9.109 -0.4925 -1.2533 -1.9296
  748MOL0     H98679   9.604  11.660   9.145 -0.3053  0.9204  2.0109
  748MOL0     H98680   9.703  11.609   9.270  0.9283  0.3522 -0.3199
  748MOL0     H98681   9.770  11.824   9.150 -2.7768 -0.9675 -0.9370
  748MOL0     H98682   9.793  11.728   9.002 -2.3455  1.8531 -0.4733
  748MOL0     H98683   9.980  11.614   9.145  0.5658  0.2574  2.1527
  748MOL0     H98684   9.960  11.748   9.258 -0.7626 -1.0267  1.2240
  748MOL0     H98685  10.018  11.757   8.957 -0.9532 -2.1558  1.2874
  748MOL0     H98686  10.019  11.901   9.063  0.5314 -0.4965 -1.4716
  748MOL0     H98687  10.252  11.819   9.032 -1.5115  2.1098 -0.6524
  748MOL0     H98688  10.204  11.661   9.091  0.7322 -0.5124  3.1423
  748MOL0     H98689  10.298  11.648   9.348  2.7701  0.5737 -0.8183
  748MOL0     H98690  10.428  11.709   9.549  1.0681  0.0521  2.9912
  748MOL0     H98691  10.295  11.767   9.624  0.1153  0.7636  0.6267
  748MOL0     H98692  10.499  11.895   9.711  2.6008  2.1264 -0.8175
  748MOL0     H98693  10.380  12.004   9.623 -0.2261 -0.1678 -0.2494
  748MOL0     H98694  10.537  11.953   9.420  1.4950 -2.3464 -0.0621
  748MOL0     H98695  10.589  12.067   9.542  2.3040  0.3388 -2.2253
  748MOL0     H98696  10.771  11.920   9.609  0.6319  0.3028 -0.8316
  748MOL0     H98697  10.750  11.880   9.439 -1.7799  1.4615 -1.4616
  748MOL0     H98698  10.864  11.732   9.748  1.7286 -0.8301  0.4184
  748MOL0     H98699  11.093  11.616   9.713 -0.2298  0.4608  0.5467
  748MOL0     H98700  11.398  11.644   9.271  2.0990 -0.4262 -2.2391
  748MOL0     H98701  11.626  11.600   9.256 -3.9338  2.6420 -0.0944
  748MOL0     H98702  11.813  11.449   9.117 -1.2760 -0.6467 -1.2587
  748MOL0     H98703  11.720  11.301   9.069  1.2141 -2.4446  0.3553
  748MOL0     H98704  11.949  11.253   9.031  0.3415 -0.2673  0.0148
  748MOL0     H98705  11.895  11.167   9.177 -6.1157  2.5103  3.2837
  748MOL0     H98706  12.031  11.353   9.312  0.6458  0.9440 -0.7106
  748MOL0     H98707  12.058  11.440   9.161  1.4835 -0.4643  1.4927
  748MOL0     H98708  12.160  11.174   9.226 -0.8155  0.0073  0.0833
  748MOL0     H98709  12.174  11.235   9.066 -2.8176 -1.0706  0.2669
  748MOL0     H98710  12.280  11.361   9.337 -0.1275  1.8668  0.4925
  748MOL0     H98711  12.301  11.440   9.184  2.6021  0.2357  1.0382
  748MOL0     H98712  12.415  11.164   9.194 -1.3989 -1.0619  1.3136
  748MOL0     H98713  12.487  11.290   9.288 -2.4215  3.4004  0.9224
  748MOL0     H98714  12.455  11.307   8.990  0.1797  2.8953 -0.4066
  748MOL0     H98715  12.515  11.440   9.090 -0.0160  0.2438  1.9739
  748MOL0     H98716  12.690  11.304   8.975  2.1252  0.2281  1.3383
  748MOL0     H98717  12.631  11.162   9.080 -2.5331 -0.4916 -1.6808
  748MOL0     H98718  11.555  11.183   9.372  0.4563  0.0025  0.9908
  748MOL0     H98719  11.335  11.244   9.423  2.2465 -1.5982  0.1642
  748MOL0     H98720  10.948  11.475   9.334  0.9708 -3.8425  1.9597
  748MOL0     H98721  10.740  11.587   9.363 -1.4093  0.0430  1.0433
  748MOL0     H98722   9.856  11.086   8.997  0.4500 -2.6527 -2.0465
  748MOL0     H98723   9.897  10.851   8.944  1.6787  2.9674 -0.4886
  748MOL0     H98724   9.611  10.369   8.900 -0.1582  1.0484 -1.3563
  748MOL0     H98725   9.719  10.207   8.772  1.5048 -3.0218 -1.0644
  748MOL0     H98726  10.144  10.041   8.877  0.6659 -1.0395 -0.5123
  748MOL0     H98727  10.160  10.181   8.774 -0.8421  0.9488  2.2632
  748MOL0     H98728  10.045   9.988   8.601 -0.7122  0.0960  0.8691
  748MOL0     H98729  10.222  10.031   8.619  0.3795  0.4664  2.4331
  748MOL0     H98730  10.070   9.831   8.799 -1.8905  1.4187 -0.8456
  748MOL0     H98731  10.240   9.832   8.757 -0.1548  1.9838  0.1772
  748MOL0     H98732  10.005   9.745   8.588 -0.1144 -1.1244  0.5523
  748MOL0     H98733  10.165   9.769   8.515 -0.0295 -0.6137 -0.8703
  748MOL0     H98734  10.203   9.439   8.796  1.2751  0.1150 -0.8114
  748MOL0     H98735  10.089  10.265   8.989  0.7167  0.8471  0.3773
  748MOL0     H98736   9.995  10.453   9.087  0.5163  0.4319 -0.8360
  749MOL0     O98737   6.763  10.147  10.211  0.2227 -0.4962 -1.3667
  749MOL0     C98738   6.793  10.260  10.171  0.6942 -0.0575  0.4946
  749MOL0     O98739   6.708  10.348  10.113 -0.9103  0.6914 -1.0812
  749MOL0     C98740   6.589  10.299  10.073  0.5911 -0.2126 -0.7411
  749MOL0     C98741   6.491  10.279  10.182  0.0669 -0.3967  0.1648
  749MOL0     C98742   6.362  10.261  10.145  0.2341 -0.3764 -0.7770
  749MOL0     C98743   6.323  10.232  10.011 -0.0173 -0.4163 -0.2049
  749MOL0     O98744   6.188  10.201   9.993  0.7063 -0.1595 -0.9202
  749MOL0     C98745   6.131  10.187   9.855 -0.4044  0.5155  0.5463
  749MOL0     C98746   5.982  10.172   9.865 -0.4138 -0.8593 -0.5435
  749MOL0     C98747   5.914  10.291   9.924  0.0188 -0.0796 -0.4051
  749MOL0     C98748   5.755  10.271   9.934  0.3688  0.0942 -0.3479
  749MOL0     C98749   5.679  10.365  10.022  0.3505 -0.7191 -0.5640
  749MOL0     C98750   5.525  10.360  10.000  0.6289  0.0210  0.4861
  749MOL0     C98751   5.463  10.422  10.134 -0.1842 -0.4324 -0.1356
  749MOL0     C98752   5.316  10.417  10.151 -0.2282 -0.4188 -0.4879
  749MOL0     N98753   5.286  10.469  10.283 -0.5131  0.3654 -0.4895
  749MOL0     C98754   5.226  10.584  10.297 -0.0836 -0.1552  0.6039
  749MOL0     C98755   5.197  10.597  10.429  0.3160 -0.0217  0.0131
  749MOL0     C98756   5.110  10.698  10.495  0.0294  0.3502  0.1225
  749MOL0     C98757   4.968  10.641  10.517 -0.1217  0.2774  1.0215
  749MOL0     C98758   4.852  10.743  10.507  0.2368 -1.2460  0.2929
  749MOL0     C98759   4.725  10.663  10.519  0.9105  0.4721 -0.2629
  749MOL0     O98760   4.620  10.755  10.518 -0.0662 -0.4866 -0.2888
  749MOL0     C98761   4.495  10.714  10.513  0.6371  0.1759  0.0999
  749MOL0     C98762   4.450  10.580  10.522  0.2701 -0.7500 -0.3761
  749MOL0     C98763   4.310  10.556  10.514 -0.3851  0.1025  0.6280
  749MOL0     C98764   4.218  10.648  10.483  0.7556 -0.0161  0.4280
  749MOL0     C98765   4.079  10.631  10.468 -0.4979  0.0042 -0.9382
  749MOL0     O98766   4.000  10.739  10.439  0.1693 -0.4512 -0.2222
  749MOL0     C98767   3.863  10.735  10.435  0.2056 -0.9952  0.2158
  749MOL0     C98768   3.800  10.624  10.373 -0.7161 -0.0794  0.4766
  749MOL0     C98769   3.665  10.623  10.357 -0.0854 -0.0719 -0.0181
  749MOL0     C98770   3.587  10.736  10.404 -0.4107 -0.6745  0.1162
  749MOL0     O98771   3.452  10.711  10.391 -0.1562 -0.4100  0.0852
  749MOL0     C98772   3.351  10.786  10.460 -0.3102 -0.0098  0.0763
  749MOL0     C98773   3.219  10.710  10.447 -0.6582  0.5425  0.3195
  749MOL0     C98774   3.102  10.803  10.462 -0.2887 -0.0044  0.1118
  749MOL0     C98775   2.977  10.722  10.477  0.9128  0.2856 -0.2851
  749MOL0     C98776   2.853  10.792  10.425 -0.2179  0.4077 -1.4758
  749MOL0     C98777   2.722  10.707  10.427  0.9382 -0.1451 -0.2726
  749MOL0     C98778   2.593  10.801  10.442 -0.3656 -0.2971 -0.3319
  749MOL0     C98779   2.461  10.719  10.448  0.8281  0.5113  0.2575
  749MOL0    Cl98780   2.318  10.809  10.489 -0.3125 -0.1450  0.5920
  749MOL0     C98781   3.648  10.846  10.469 -0.4961  0.9349 -0.7472
  749MOL0     C98782   3.786  10.849  10.482 -0.0268  0.1723 -0.2683
  749MOL0     O98783   4.037  10.527  10.512  0.0978  0.5035  0.0192
  749MOL0     C98784   4.270  10.781  10.466  0.6647 -0.4385  0.4862
  749MOL0     C98785   4.399  10.815  10.482 -0.7842  0.0395 -0.1737
  749MOL0     N98786   5.261  10.490  10.490  0.5497 -0.2136 -0.1076
  749MOL0     N98787   5.311  10.409  10.405  0.3753  0.0762  0.1508
  749MOL0     C98788   6.422  10.237   9.909  0.0595 -0.4284 -0.1628
  749MOL0     C98789   6.552  10.265   9.944  0.5185 -0.7209  0.6207
  749MOL0     C98790   6.942  10.284  10.164 -0.4134  0.2224  0.4695
  749MOL0     C98791   6.985  10.420  10.157  0.2123  0.7401  0.4696
  749MOL0     C98792   7.123  10.447  10.169 -0.4111 -0.2716  0.4382
  749MOL0     C98793   7.217  10.347  10.197  0.2718 -0.1602 -0.1589
  749MOL0     O98794   7.343  10.374  10.235  0.0379 -0.0056  0.1480
  749MOL0     C98795   7.409  10.488  10.179  0.9628  0.7449  0.5541
  749MOL0     C98796   7.420  10.476  10.022  0.0199  0.4041  0.1131
  749MOL0     C98797   7.528  10.365   9.994  0.0366  0.2404  0.4958
  749MOL0     C98798   7.466  10.247   9.927  0.2524  0.3384 -0.0889
  749MOL0     C98799   7.575  10.152   9.889 -0.1841 -0.2855  0.0741
  749MOL0     C98800   7.655  10.072   9.843 -0.6105 -0.4809 -0.0114
  749MOL0     C98801   7.174  10.213  10.183 -0.5272 -1.3300  0.1558
  749MOL0     C98802   7.038  10.183  10.162 -0.2281 -0.5244 -0.7208
  749MOL0     H98803   6.513  10.304  10.286  1.1004  0.5248 -0.2619
  749MOL0     H98804   6.294  10.251  10.229  1.3852 -0.6523  0.1618
  749MOL0     H98805   6.181  10.101   9.810 -0.8790  1.9104 -2.9815
  749MOL0     H98806   6.159  10.274   9.795  0.4292 -0.7937 -1.0324
  749MOL0     H98807   5.956  10.089   9.932  0.2163 -0.7608 -0.1753
  749MOL0     H98808   5.947  10.152   9.763  0.9230 -0.5898 -1.0634
  749MOL0     H98809   5.930  10.378   9.859 -0.4768 -1.6284 -2.7410
  749MOL0     H98810   5.968  10.303  10.018  2.6633  0.0070 -1.8323
  749MOL0     H98811   5.712  10.262   9.834 -2.4442 -1.1424  0.8481
  749MOL0     H98812   5.732  10.171   9.974 -1.7731  0.2044 -1.1705
  749MOL0     H98813   5.709  10.466   9.994 -0.2780  0.1629  1.7272
  749MOL0     H98814   5.703  10.349  10.127 -1.1168  0.8747  0.0658
  749MOL0     H98815   5.507  10.253   9.988 -0.4891  0.3166 -0.6872
  749MOL0     H98816   5.494  10.407   9.906 -0.4552 -2.4832 -0.4934
  749MOL0     H98817   5.502  10.368  10.221 -3.9808 -2.7361  0.3848
  749MOL0     H98818   5.496  10.525  10.149 -2.0796  0.1716  0.1701
  749MOL0     H98819   5.276  10.315  10.156  1.6034 -1.1132  2.9415
  749MOL0     H98820   5.268  10.469  10.067 -0.8445 -0.0141  0.1021
  749MOL0     H98821   5.206  10.656  10.218  4.6210  2.4214  1.3424
  749MOL0     H98822   5.105  10.789  10.435 -0.1893 -0.7252 -1.5492
  749MOL0     H98823   5.158  10.724  10.590  0.9206  0.6976 -0.4099
  749MOL0     H98824   4.968  10.602  10.619  2.4210  0.4813  1.1676
  749MOL0     H98825   4.955  10.565  10.439  0.1394  1.8867 -0.6668
  749MOL0     H98826   4.862  10.826  10.578  2.3582  1.4788 -2.9230
  749MOL0     H98827   4.850  10.786  10.407  0.9212  1.1217  1.2227
  749MOL0     H98828   4.720  10.602  10.610  0.4936  0.1826 -0.4743
  749MOL0     H98829   4.705  10.595  10.435  1.4551 -1.2276  0.9235
  749MOL0     H98830   4.510  10.490  10.533  0.2480 -0.6226  0.9878
  749MOL0     H98831   4.281  10.451  10.509  0.4384 -0.1051  0.0002
  749MOL0     H98832   3.861  10.541  10.337 -0.9448 -0.5349  1.1238
  749MOL0     H98833   3.614  10.540  10.311  1.1775 -0.4112 -0.8524
  749MOL0     H98834   3.353  10.882  10.408  1.7819  0.5521  1.1100
  749MOL0     H98835   3.386  10.803  10.562  0.3865 -1.8495  0.1829
  749MOL0     H98836   3.229  10.632  10.524 -0.2654 -0.0591 -0.3326
  749MOL0     H98837   3.224  10.650  10.356  3.1156  2.2449 -0.7806
  749MOL0     H98838   3.106  10.863  10.370  0.9409 -0.7181 -0.3166
  749MOL0     H98839   3.130  10.870  10.543 -0.7118 -0.9564  1.0706
  749MOL0     H98840   2.995  10.629  10.421 -1.3550 -1.3558  1.5400
  749MOL0     H98841   2.958  10.693  10.580 -0.5590 -4.3084 -1.6184
  749MOL0     H98842   2.864  10.837  10.327 -2.2852  2.6877 -0.7396
  749MOL0     H98843   2.839  10.873  10.497 -1.8353  0.1397 -1.4637
  749MOL0     H98844   2.714  10.662  10.526 -3.7190  3.7668  1.5450
  749MOL0     H98845   2.706  10.624  10.359 -0.1488 -0.9111  0.8667
  749MOL0     H98846   2.616  10.853  10.535 -3.0205  2.4146 -1.0331
  749MOL0     H98847   2.579  10.867  10.356 -1.7583  0.7743  0.6678
  749MOL0     H98848   2.477  10.646  10.528 -0.0441  0.3620  0.3141
  749MOL0     H98849   2.438  10.671  10.353 -0.3185 -0.3253  0.9355
  749MOL0     H98850   3.582  10.927  10.496 -1.7676  0.0617 -1.1090
  749MOL0     H98851   3.834  10.932  10.534  2.4423 -2.1258  1.4491
  749MOL0     H98852   4.206  10.865  10.440  1.2726 -0.7891 -2.4571
  749MOL0     H98853   4.437  10.914  10.463  0.0309  0.0301  1.2341
  749MOL0     H98854   6.394  10.218   9.806  1.8667  1.5273 -1.0967
  749MOL0     H98855   6.627  10.266   9.866 -0.5810 -0.9527 -0.4652
  749MOL0     H98856   6.915  10.501  10.143 -2.2027 -1.5003 -1.7395
  749MOL0     H98857   7.153  10.551  10.179 -1.3940  0.2589 -1.6648
  749MOL0     H98858   7.503  10.509  10.230  0.1625 -0.4722  2.6401
  749MOL0     H98859   7.350  10.577  10.199  0.8268  1.6145 -2.9643
  749MOL0     H98860   7.323  10.449   9.980 -0.9917  0.8140  2.0675
  749MOL0     H98861   7.460  10.573   9.992  0.3757 -0.3455 -1.9833
  749MOL0     H98862   7.566  10.337  10.093 -3.0906 -0.7400  1.5692
  749MOL0     H98863   7.607  10.401   9.928 -0.5818 -1.1290 -1.0809
  749MOL0     H98864   7.391  10.195   9.988  1.3526  1.2498  2.1274
  749MOL0     H98865   7.407  10.269   9.837  0.3757  1.4186  0.0765
  749MOL0     H98866   7.724  10.007   9.795  0.8153 -0.2798  1.6825
  749MOL0     H98867   7.248  10.134  10.191  0.7015 -0.2225  0.1264
  749MOL0     H98868   7.002  10.081  10.153 -0.4349 -0.4201 -1.1116
  750MOL0     O98869   2.812   4.244   6.002 -0.5836  0.2960  0.1988
  750MOL0     C98870   2.855   4.132   6.033 -0.2503  0.6819  0.6712
  750MOL0     O98871   2.783   4.018   6.072  0.2068 -0.6058 -0.8614
  750MOL0     C98872   2.645   4.032   6.095  0.1555  0.5521 -0.1435
  750MOL0     C98873   2.552   4.085   6.008 -0.1168 -0.2092  0.4424
  750MOL0     C98874   2.413   4.091   6.038 -1.3460  0.1260 -0.3820
  750MOL0     C98875   2.362   4.044   6.159 -0.0977 -0.4127  0.3867
  750MOL0     O98876   2.232   4.061   6.193  0.5873 -0.0963 -0.1391
  750MOL0     C98877   2.174   3.983   6.294  0.0705 -0.0276  0.2589
  750MOL0     C98878   2.018   4.000   6.312 -0.1701  0.4382 -0.5895
  750MOL0     C98879   1.947   3.929   6.436 -0.0262  0.2508  0.0844
  750MOL0     C98880   1.797   3.938   6.408  0.5393  0.5937 -0.1883
  750MOL0     C98881   1.729   3.973   6.540 -0.0685 -0.2277 -0.3401
  750MOL0     C98882   1.580   3.971   6.537 -0.0320  0.3923  0.0260
  750MOL0     C98883   1.520   4.094   6.459  0.5549  0.1042 -0.3041
  750MOL0     C98884   1.473   4.053   6.325 -0.0523  0.7757 -0.3692
  750MOL0     N98885   1.433   4.159   6.232  0.4758 -0.3042 -0.5175
  750MOL0     C98886   1.498   4.270   6.207 -0.2528  0.3216 -0.4629
  750MOL0     C98887   1.418   4.334   6.119  0.4478  0.0614  0.4183
  750MOL0     C98888   1.461   4.465   6.050  0.7581  1.5691 -0.4696
  750MOL0     C98889   1.350   4.558   6.000  0.5773  1.0094 -0.4739
  750MOL0     C98890   1.247   4.595   6.103  0.2699  0.3021  0.0774
  750MOL0     C98891   1.135   4.687   6.064 -0.6807  0.2331  0.2415
  750MOL0     O98892   1.032   4.613   5.999 -0.9656  0.4833  0.0808
  750MOL0     C98893   0.917   4.685   5.961 -0.2543  0.2305  0.0969
  750MOL0     C98894   0.800   4.603   5.947 -1.2407 -0.3787 -0.5578
  750MOL0     C98895   0.677   4.655   5.903 -0.3375  0.5610  0.0240
  750MOL0     C98896   0.665   4.794   5.884 -0.4829  0.0850 -0.4419
  750MOL0     C98897   0.534   4.852   5.845  0.1995 -0.3466  0.5729
  750MOL0     O98898   0.429   4.763   5.818  0.5190 -0.1797 -0.4845
  750MOL0     C98899   0.305   4.798   5.762 -0.5463 -0.1257  1.4611
  750MOL0     C98900   0.188   4.724   5.803  0.4195 -0.1151 -0.1812
  750MOL0     C98901   0.060   4.770   5.767  0.5112 -0.2417 -0.7798
  750MOL0     C98902   0.050   4.865   5.660  0.3552  0.1412 -0.6834
  750MOL0     O98903  -0.061   4.919   5.613 -0.3084  0.7042 -0.6422
  750MOL0     C98904  -0.166   4.955   5.710  0.5965  0.1879  0.3329
  750MOL0     C98905  -0.296   4.871   5.693 -0.0127  0.6074 -0.3438
  750MOL0     C98906  -0.411   4.949   5.755  0.7138 -0.1091 -0.3924
  750MOL0     C98907  -0.417   4.932   5.914  0.0281  0.2378 -0.1032
  750MOL0     C98908  -0.558   4.977   5.964  0.1161 -0.0528  0.3509
  750MOL0     C98909  -0.577   4.950   6.113 -0.2577 -0.3823  0.6371
  750MOL0     C98910  -0.721   4.986   6.149  0.1377  0.3879  0.2720
  750MOL0     C98911  -0.739   4.968   6.299  0.2297 -0.1442 -0.4346
  750MOL0    Cl98912  -0.912   4.977   6.362 -0.0192 -0.3077  0.1717
  750MOL0     C98913   0.165   4.924   5.620  0.0709 -0.2182 -0.8075
  750MOL0     C98914   0.292   4.897   5.668  0.1375 -0.5365  0.2896
  750MOL0     O98915   0.529   4.970   5.818 -0.3932  0.3471 -0.7595
  750MOL0     C98916   0.785   4.877   5.896  0.3209 -0.3671 -0.0599
  750MOL0     C98917   0.911   4.823   5.930 -0.6646 -0.5167  0.7401
  750MOL0     N98918   1.316   4.256   6.084  0.0920  0.0383  0.2391
  750MOL0     N98919   1.327   4.151   6.148  0.1088  0.5243  0.2096
  750MOL0     C98920   2.454   3.981   6.248 -0.2017 -0.8009 -0.0802
  750MOL0     C98921   2.590   3.971   6.212 -0.4792 -1.1372  0.5822
  750MOL0     C98922   2.998   4.109   5.998  0.2387 -0.3240 -0.5291
  750MOL0     C98923   3.032   3.976   5.964  0.2301  0.4987 -0.0448
  750MOL0     C98924   3.166   3.947   5.926 -0.3434  0.3076 -0.2624
  750MOL0     C98925   3.263   4.048   5.899  0.5833 -0.0547 -0.3674
  750MOL0     O98926   3.393   4.022   5.863 -0.2161 -0.0481  0.3469
  750MOL0     C98927   3.420   3.885   5.816 -0.6200 -0.0746 -0.4523
  750MOL0     C98928   3.567   3.858   5.781  0.2262  0.1136 -0.6851
  750MOL0     C98929   3.657   3.861   5.912  0.0446 -0.4889 -0.0456
  750MOL0     C98930   3.649   3.742   6.003 -0.0924  0.5698 -0.4587
  750MOL0     C98931   3.772   3.733   6.086 -0.3129  0.4712 -0.1108
  750MOL0     C98932   3.870   3.715   6.160  0.1807  0.6208 -1.2671
  750MOL0     C98933   3.215   4.181   5.911  0.7159  0.0917  0.1120
  750MOL0     C98934   3.087   4.212   5.962 -0.6580  0.1249 -0.8801
  750MOL0     H98935   2.585   4.121   5.912 -0.8511 -1.0817 -0.1593
  750MOL0     H98936   2.349   4.118   5.955 -1.0749 -1.5433 -1.1861
  750MOL0     H98937   2.223   4.012   6.388  1.6166 -0.0477 -0.5144
  750MOL0     H98938   2.200   3.879   6.274  0.6050  0.6509 -3.1190
  750MOL0     H98939   1.968   3.957   6.225 -0.7904  0.6628 -0.3464
  750MOL0     H98940   1.982   4.103   6.321 -2.2356 -0.3756  1.3209
  750MOL0     H98941   1.977   3.974   6.531 -0.2931 -0.8745  0.7149
  750MOL0     H98942   1.973   3.823   6.446 -0.1541  0.3048  1.0952
  750MOL0     H98943   1.771   4.022   6.343  0.3867  2.7601  2.4548
  750MOL0     H98944   1.759   3.841   6.376  1.6825 -0.0034  0.2177
  750MOL0     H98945   1.763   4.074   6.565 -1.0499  0.4070 -1.4896
  750MOL0     H98946   1.763   3.904   6.618  0.7597 -1.6021 -1.8608
  750MOL0     H98947   1.537   3.980   6.637  0.4241  0.0467  0.2534
  750MOL0     H98948   1.535   3.878   6.501  3.4881 -1.5897  0.3102
  750MOL0     H98949   1.437   4.130   6.520  1.9715  1.6502  0.8125
  750MOL0     H98950   1.586   4.180   6.468 -0.2098  0.8687 -1.6637
  750MOL0     H98951   1.393   3.980   6.341  1.9330 -0.8346  3.1040
  750MOL0     H98952   1.545   3.994   6.268  1.7556  2.6790 -0.1867
  750MOL0     H98953   1.580   4.303   6.269 -1.7914 -1.8964  3.0647
  750MOL0     H98954   1.529   4.437   5.969 -0.5850 -1.3760 -0.7064
  750MOL0     H98955   1.513   4.538   6.113 -0.2115  1.3287  0.6247
  750MOL0     H98956   1.305   4.501   5.917  0.3141 -1.0791  1.0297
  750MOL0     H98957   1.403   4.647   5.965  0.2034  1.3353 -0.2194
  750MOL0     H98958   1.198   4.504   6.137 -1.1401  0.9773 -0.0774
  750MOL0     H98959   1.301   4.635   6.190 -0.7279 -0.0559  0.8715
  750MOL0     H98960   1.178   4.760   5.994 -1.5577 -0.8856 -1.5167
  750MOL0     H98961   1.092   4.740   6.149 -0.0265  0.6776  0.3087
  750MOL0     H98962   0.820   4.497   5.960  3.6737  0.3476 -0.6689
  750MOL0     H98963   0.595   4.588   5.878 -0.5914  0.6630  0.5704
  750MOL0     H98964   0.202   4.645   5.875  1.2667  1.1048  1.0329
  750MOL0     H98965  -0.023   4.718   5.814  1.3279  0.8060  1.9868
  750MOL0     H98966  -0.195   5.060   5.709 -0.8712 -0.1903 -0.0502
  750MOL0     H98967  -0.126   4.930   5.809 -1.8150 -0.5337  1.2011
  750MOL0     H98968  -0.280   4.770   5.731  1.6792  0.7154 -0.6570
  750MOL0     H98969  -0.314   4.867   5.585  3.5939  0.9329 -1.1077
  750MOL0     H98970  -0.502   4.905   5.714  1.1207 -0.0733 -1.3540
  750MOL0     H98971  -0.419   5.053   5.723  0.7796 -0.4180 -1.4444
  750MOL0     H98972  -0.396   4.828   5.938  0.9592  0.5101  0.3490
  750MOL0     H98973  -0.337   4.998   5.952  1.2943 -0.5204 -1.3635
  750MOL0     H98974  -0.630   4.914   5.911 -0.1248 -0.8253  1.5690
  750MOL0     H98975  -0.585   5.077   5.929 -0.6516  0.6472  2.7465
  750MOL0     H98976  -0.506   5.010   6.171 -1.4850  0.4899  1.2801
  750MOL0     H98977  -0.550   4.846   6.134  0.8922  0.0174  1.2491
  750MOL0     H98978  -0.744   5.090   6.124  1.0288  1.3780  3.1978
  750MOL0     H98979  -0.784   4.919   6.091 -1.1938  1.8084 -0.0067
  750MOL0     H98980  -0.678   5.046   6.346 -1.4218  0.8618  0.1101
  750MOL0     H98981  -0.690   4.875   6.328 -0.4463 -0.8484 -1.5106
  750MOL0     H98982   0.154   5.000   5.544  0.5714  1.6545  0.8995
  750MOL0     H98983   0.367   4.966   5.631 -1.3552  0.7554 -0.4520
  750MOL0     H98984   0.781   4.985   5.888  1.4619  0.0855  3.6224
  750MOL0     H98985   0.991   4.897   5.926 -1.6008  0.4810 -1.1562
  750MOL0     H98986   2.420   3.936   6.340 -1.6814 -2.8735 -1.5443
  750MOL0     H98987   2.652   3.933   6.293 -1.1881 -3.6006  0.0811
  750MOL0     H98988   2.971   3.888   5.976  0.6263  0.4688  2.2158
  750MOL0     H98989   3.184   3.847   5.888  0.0962  0.3506 -0.1748
  750MOL0     H98990   3.341   3.868   5.741 -0.8157  1.0160 -0.5006
  750MOL0     H98991   3.393   3.814   5.895  0.5455  0.6206  0.6040
  750MOL0     H98992   3.573   3.761   5.732 -0.0945  0.1644 -0.8310
  750MOL0     H98993   3.606   3.938   5.717  0.9711 -0.3685 -0.8452
  750MOL0     H98994   3.639   3.958   5.961 -0.8079 -0.5609 -0.2006
  750MOL0     H98995   3.762   3.866   5.883 -0.7371 -1.7042 -3.5263
  750MOL0     H98996   3.557   3.746   6.063 -0.5160  3.8815 -1.1359
  750MOL0     H98997   3.642   3.652   5.942 -1.1131  2.4849 -3.3677
  750MOL0     H98998   3.957   3.695   6.219  0.2117  1.2687 -1.0896
  750MOL0     H98999   3.283   4.262   5.887  1.0885 -0.1154  0.4465
  750MOL0     H99000   3.052   4.315   5.969  1.6560  0.9157 -0.0827
  751MOL0     O99001   4.606   1.983   9.219 -0.7168  0.5906  1.1425
  751MOL0     C99002   4.599   2.008   9.099 -0.8162 -0.5465 -0.2748
  751MOL0     O99003   4.492   2.005   9.032 -0.0912 -0.1938 -0.4595
  751MOL0     C99004   4.366   1.970   9.080  0.2452  0.2711  0.2265
  751MOL0     C99005   4.325   1.887   9.188  0.0645  0.6297  0.3101
  751MOL0     C99006   4.197   1.858   9.215 -0.2671  0.5197 -0.6803
  751MOL0     C99007   4.097   1.911   9.136 -0.4707 -0.0227 -0.3859
  751MOL0     O99008   3.968   1.877   9.186 -0.2397  0.3935 -0.0444
  751MOL0     C99009   3.851   1.927   9.115  0.7664  0.2335  0.4679
  751MOL0     C99010   3.733   1.850   9.149  0.7041  0.1424 -0.2572
  751MOL0     C99011   3.747   1.695   9.116  0.0164 -0.6148 -0.0626
  751MOL0     C99012   3.810   1.613   9.230  0.3776  0.5298  1.0128
  751MOL0     C99013   3.848   1.468   9.190 -0.0228 -0.0842 -0.6512
  751MOL0     C99014   3.906   1.445   9.056  1.0616  0.2466 -0.1539
  751MOL0     C99015   4.047   1.507   9.031  0.1133  0.0126 -0.5260
  751MOL0     C99016   4.082   1.512   8.888  0.0206  0.0069  0.3449
  751MOL0     N99017   4.221   1.542   8.873 -0.6850  0.5966  0.1013
  751MOL0     C99018   4.277   1.669   8.858  0.7034  0.2951 -0.3653
  751MOL0     C99019   4.404   1.642   8.825 -0.7898 -0.6164 -0.0027
  751MOL0     C99020   4.526   1.727   8.829  0.1486  0.0540  0.6410
  751MOL0     C99021   4.591   1.716   8.688 -0.1219  0.1312 -0.4751
  751MOL0     C99022   4.710   1.815   8.683  0.2544 -0.4045  0.0308
  751MOL0     C99023   4.840   1.743   8.711 -0.0686 -0.3206 -0.4963
  751MOL0     O99024   4.882   1.640   8.625 -0.4560 -0.1563 -0.6629
  751MOL0     C99025   5.016   1.613   8.642  0.5442  0.7877  0.6950
  751MOL0     C99026   5.066   1.504   8.720 -0.0357 -1.1581 -0.5023
  751MOL0     C99027   5.199   1.483   8.732 -1.3226 -0.4093  0.6222
  751MOL0     C99028   5.289   1.575   8.678  0.2308  0.5196  0.5289
  751MOL0     C99029   5.429   1.559   8.688 -0.0827  0.3823  0.0589
  751MOL0     O99030   5.507   1.675   8.659 -0.0668  0.0527 -0.0787
  751MOL0     C99031   5.635   1.668   8.686 -0.5426  0.1874 -0.0715
  751MOL0     C99032   5.686   1.625   8.809  0.2335  0.6377 -0.7265
  751MOL0     C99033   5.830   1.621   8.823  0.4902 -0.2803  0.1678
  751MOL0     C99034   5.917   1.665   8.718  0.7891  0.5937  0.5497
  751MOL0     O99035   6.049   1.675   8.721  0.3219 -0.2378  0.5669
  751MOL0     C99036   6.108   1.577   8.808  1.3376  0.7834  0.6085
  751MOL0     C99037   6.255   1.607   8.817 -1.0801 -0.1258 -0.1515
  751MOL0     C99038   6.328   1.508   8.908 -0.4334  0.5039 -0.3563
  751MOL0     C99039   6.455   1.563   8.965  0.5047  0.2019 -0.3905
  751MOL0     C99040   6.549   1.459   9.022  0.4604  0.0046  0.8737
  751MOL0     C99041   6.679   1.524   9.075  0.9527  0.3906  0.1394
  751MOL0     C99042   6.767   1.396   9.098  0.7371 -0.7098  0.2830
  751MOL0     C99043   6.918   1.437   9.111  0.5187 -0.1181  0.0503
  751MOL0    Cl99044   6.993   1.483   8.949  0.2956 -0.2040  0.4601
  751MOL0     C99045   5.860   1.710   8.601 -0.8664 -0.3749 -0.7363
  751MOL0     C99046   5.723   1.717   8.590 -0.5656  0.1402  0.1768
  751MOL0     O99047   5.473   1.450   8.719 -0.8142  0.2275 -0.2800
  751MOL0     C99048   5.238   1.675   8.601  0.4782  0.4858 -0.6044
  751MOL0     C99049   5.106   1.706   8.584  0.2782  0.6714 -0.2058
  751MOL0     N99050   4.412   1.512   8.806 -0.2660  0.7519 -0.3008
  751MOL0     N99051   4.311   1.451   8.830  0.0555  0.6430  0.7868
  751MOL0     C99052   4.124   1.994   9.025  1.3191  0.3802 -0.5520
  751MOL0     C99053   4.264   2.018   8.997 -0.4761  0.2687 -0.2756
  751MOL0     C99054   4.726   2.063   9.035 -0.1830  0.8725  0.6353
  751MOL0     C99055   4.838   2.083   9.107 -0.7062 -0.2102 -0.0236
  751MOL0     C99056   4.951   2.129   9.056 -0.0986  0.3687  0.5807
  751MOL0     C99057   4.969   2.163   8.918  0.0332 -0.5463 -0.0368
  751MOL0     O99058   5.081   2.187   8.845  0.6925 -0.5608  0.0051
  751MOL0     C99059   5.207   2.162   8.902 -0.3286 -0.3110 -1.1433
  751MOL0     C99060   5.322   2.179   8.801  0.4146  0.2915  0.2421
  751MOL0     C99061   5.314   2.071   8.690  0.0791  1.0386 -0.1234
  751MOL0     C99062   5.436   2.085   8.591 -0.5604  0.0850  0.0058
  751MOL0     C99063   5.552   2.062   8.670  0.4509  0.1214  0.4577
  751MOL0     C99064   5.659   2.036   8.712 -0.3492 -0.6451  0.4912
  751MOL0     C99065   4.854   2.142   8.834 -0.6308 -0.0318  0.2557
  751MOL0     C99066   4.732   2.106   8.890 -0.0363  0.4893 -0.4518
  751MOL0     H99067   4.398   1.842   9.254 -0.6090 -0.5021  0.2991
  751MOL0     H99068   4.170   1.800   9.302 -1.3241  2.7884  0.6117
  751MOL0     H99069   3.863   1.908   9.008 -0.1979  0.6062  0.2796
  751MOL0     H99070   3.830   2.033   9.131 -0.7404  0.2651 -1.3775
  751MOL0     H99071   3.656   1.902   9.092  1.8196  1.1534 -0.8846
  751MOL0     H99072   3.712   1.865   9.256 -0.1149  1.2362 -0.5449
  751MOL0     H99073   3.800   1.687   9.021  0.0529  1.8183 -0.3280
  751MOL0     H99074   3.645   1.657   9.100 -1.7359  2.8882  1.5682
  751MOL0     H99075   3.907   1.650   9.263  2.2152 -0.5689 -2.5742
  751MOL0     H99076   3.748   1.608   9.320  1.0442 -0.9302  1.4201
  751MOL0     H99077   3.754   1.412   9.199 -0.9907  1.6043  0.2273
  751MOL0     H99078   3.917   1.431   9.266  1.3361  0.3781 -1.6274
  751MOL0     H99079   3.840   1.483   8.977  1.9910  1.7635 -0.2432
  751MOL0     H99080   3.914   1.337   9.039  0.8876 -0.2139  2.3919
  751MOL0     H99081   4.054   1.605   9.079 -0.3175 -0.4269  0.4689
  751MOL0     H99082   4.114   1.441   9.087 -1.7980  1.2189  3.5883
  751MOL0     H99083   4.023   1.597   8.853 -0.9420 -0.8890 -0.2737
  751MOL0     H99084   4.067   1.420   8.831 -2.1280 -0.2176  1.1544
  751MOL0     H99085   4.224   1.758   8.892  0.7154 -0.3035  1.3179
  751MOL0     H99086   4.589   1.677   8.903 -0.2162 -2.0061 -0.3486
  751MOL0     H99087   4.500   1.832   8.846  1.3568  0.3069  0.9790
  751MOL0     H99088   4.517   1.744   8.612 -0.7769 -0.8411 -0.2044
  751MOL0     H99089   4.625   1.614   8.670  1.3310  0.5552 -0.3244
  751MOL0     H99090   4.715   1.863   8.584  0.0645  1.4331  0.8660
  751MOL0     H99091   4.692   1.892   8.759 -2.4787  0.2280 -1.1266
  751MOL0     H99092   4.834   1.701   8.811 -1.1568 -2.1664 -1.2778
  751MOL0     H99093   4.915   1.821   8.697 -0.8160  0.3881 -0.6810
  751MOL0     H99094   4.994   1.432   8.759 -0.1738 -0.0650  1.3617
  751MOL0     H99095   5.228   1.397   8.792  1.6874 -0.4121 -0.6618
  751MOL0     H99096   5.615   1.587   8.881  0.3946  1.7413  0.0396
  751MOL0     H99097   5.862   1.599   8.924  0.4020 -0.2937  0.1930
  751MOL0     H99098   6.107   1.469   8.794  1.0439  0.8210  0.3391
  751MOL0     H99099   6.058   1.590   8.905 -1.7848  1.2609 -0.9292
  751MOL0     H99100   6.265   1.702   8.871 -1.7053 -0.8029  1.2114
  751MOL0     H99101   6.295   1.614   8.716  0.5351 -0.1260  0.4562
  751MOL0     H99102   6.353   1.425   8.842  1.1022  2.4319 -2.3399
  751MOL0     H99103   6.265   1.467   8.988  2.7295 -1.8510  1.1629
  751MOL0     H99104   6.512   1.619   8.890  0.4933 -0.0262 -0.5689
  751MOL0     H99105   6.433   1.641   9.039  0.4305 -0.6938  0.5631
  751MOL0     H99106   6.576   1.386   8.946 -0.4406 -2.0005  2.3818
  751MOL0     H99107   6.505   1.404   9.106  0.3943  1.3626  1.7788
  751MOL0     H99108   6.647   1.577   9.165  0.3046 -1.4262  1.0303
  751MOL0     H99109   6.714   1.592   8.996 -0.1869  0.5004 -0.2838
  751MOL0     H99110   6.738   1.347   9.191 -2.2503 -1.7195 -1.0618
  751MOL0     H99111   6.757   1.319   9.021 -4.3358  0.5662 -0.6873
  751MOL0     H99112   6.980   1.355   9.148  1.4137 -0.1475 -1.4355
  751MOL0     H99113   6.913   1.524   9.176 -3.3981  0.1909 -0.4066
  751MOL0     H99114   5.924   1.752   8.524  0.8646 -1.1322  0.2275
  751MOL0     H99115   5.685   1.761   8.498 -2.8299 -2.5118 -0.2878
  751MOL0     H99116   5.306   1.754   8.568  0.2907  2.2381  2.7658
  751MOL0     H99117   5.074   1.791   8.525  0.5242  1.2650  0.5056
  751MOL0     H99118   4.042   2.047   8.978 -1.1435 -1.7063  1.1315
  751MOL0     H99119   4.295   2.082   8.915  1.4750 -0.2016  0.0303
  751MOL0     H99120   4.841   2.073   9.215 -3.7832 -1.7453  0.0387
  751MOL0     H99121   5.029   2.147   9.129  0.2107 -0.7824  0.5493
  751MOL0     H99122   5.213   2.063   8.948  0.7980  0.5289  0.6562
  751MOL0     H99123   5.227   2.224   8.990  2.3133  0.6613 -2.3279
  751MOL0     H99124   5.324   2.279   8.758  0.3695  0.2231  0.0778
  751MOL0     H99125   5.415   2.179   8.859 -0.0804  0.1690  1.0386
  751MOL0     H99126   5.222   2.077   8.632  1.4421  1.5425 -2.3619
  751MOL0     H99127   5.308   1.976   8.744  1.7185  1.1618  0.3302
  751MOL0     H99128   5.422   2.008   8.515  1.0629 -0.0919 -0.1638
  751MOL0     H99129   5.437   2.178   8.533 -3.8461 -0.0178 -0.3657
  751MOL0     H99130   5.763   2.021   8.737 -0.3554  0.0987  0.9759
  751MOL0     H99131   4.850   2.162   8.728  3.6899 -0.1555 -0.1207
  751MOL0     H99132   4.640   2.114   8.833  0.1730 -0.2301 -0.9039
  752MOL0     O99133   3.196   5.173   7.182 -0.7829  0.3684  0.7650
  752MOL0     C99134   3.195   5.205   7.063 -0.1230  0.3409 -0.4327
  752MOL0     O99135   3.089   5.273   7.005  1.0870  0.1988  0.5164
  752MOL0     C99136   2.974   5.302   7.078  0.4489  0.7818 -0.0461
  752MOL0     C99137   2.978   5.404   7.173 -0.3023 -0.1102 -0.3747
  752MOL0     C99138   2.880   5.418   7.262  1.1504  0.6083 -0.1069
  752MOL0     C99139   2.754   5.356   7.246  0.2002 -0.4841  0.1574
  752MOL0     O99140   2.656   5.384   7.335  0.6024  0.1234 -0.4895
  752MOL0     C99141   2.608   5.272   7.411 -0.1846  0.3365 -0.0546
  752MOL0     C99142   2.508   5.334   7.523  0.5429 -0.1417 -0.4828
  752MOL0     C99143   2.471   5.219   7.609 -0.8856  0.4834 -0.2725
  752MOL0     C99144   2.399   5.272   7.737 -0.5791  0.8108 -0.2079
  752MOL0     C99145   2.322   5.158   7.808  0.0734  0.5827  0.5790
  752MOL0     C99146   2.235   5.213   7.925  0.1066 -0.0305  0.1806
  752MOL0     C99147   2.130   5.113   7.964 -0.2848  0.4974  0.0378
  752MOL0     C99148   2.183   4.999   8.049 -0.5816 -0.0361  0.7155
  752MOL0     N99149   2.069   4.919   8.099  0.4196  0.1061  0.6904
  752MOL0     C99150   2.004   4.818   8.026 -0.6984  0.2439 -0.7537
  752MOL0     C99151   1.907   4.783   8.111  0.1440 -0.0841  0.2882
  752MOL0     C99152   1.795   4.692   8.061  0.4705 -0.3203 -0.2419
  752MOL0     C99153   1.773   4.574   8.150 -0.2983 -0.7736  0.0254
  752MOL0     C99154   1.896   4.496   8.186 -0.3224  0.4728  0.5027
  752MOL0     C99155   1.981   4.441   8.074  0.4083 -0.1664  0.4333
  752MOL0     O99156   2.072   4.335   8.118  0.2877  0.4190 -0.1440
  752MOL0     C99157   2.197   4.369   8.160 -0.7716 -0.5194  0.0449
  752MOL0     C99158   2.301   4.271   8.170  0.1061  0.2209 -0.9501
  752MOL0     C99159   2.439   4.290   8.199  0.0151  0.1398  0.7413
  752MOL0     C99160   2.482   4.418   8.238 -0.5933  0.3960  0.2941
  752MOL0     C99161   2.625   4.453   8.248  0.7039 -0.2236 -0.2330
  752MOL0     O99162   2.661   4.580   8.227  0.0142  0.1526  0.4563
  752MOL0     C99163   2.797   4.619   8.234 -0.8851 -0.0549 -1.1380
  752MOL0     C99164   2.831   4.728   8.314  0.5804 -0.3569 -0.0230
  752MOL0     C99165   2.955   4.790   8.306 -0.0438  0.7619 -0.5409
  752MOL0     C99166   3.059   4.735   8.224 -0.3741 -0.7673 -0.2322
  752MOL0     O99167   3.181   4.795   8.215 -0.6788 -0.2494 -0.0506
  752MOL0     C99168   3.207   4.925   8.272 -0.7412  0.5215  0.0394
  752MOL0     C99169   3.149   5.036   8.187  0.6669 -0.4109 -0.2791
  752MOL0     C99170   3.207   5.176   8.230 -0.4544 -0.2179  0.5500
  752MOL0     C99171   3.178   5.279   8.121  0.0127  0.6257 -0.5001
  752MOL0     C99172   3.261   5.262   7.989  0.5517 -0.8171 -0.4665
  752MOL0     C99173   3.179   5.287   7.864 -0.0184 -0.1237  0.1422
  752MOL0     C99174   3.275   5.253   7.741  0.4945 -0.5990  0.1764
  752MOL0     C99175   3.388   5.358   7.727  0.2553  0.3685  0.4707
  752MOL0    Cl99176   3.455   5.346   7.561 -0.0885 -0.1583  0.1192
  752MOL0     C99177   3.027   4.621   8.153 -0.6838  0.0530 -0.3331
  752MOL0     C99178   2.899   4.574   8.153 -0.3544 -0.1333  0.6901
  752MOL0     O99179   2.696   4.359   8.289 -0.0984 -1.0977 -0.0663
  752MOL0     C99180   2.379   4.519   8.240 -0.2997 -0.4848 -0.1428
  752MOL0     C99181   2.245   4.495   8.199  1.0837 -0.8041  0.6779
  752MOL0     N99182   1.918   4.853   8.233 -0.6291  0.9613 -0.0122
  752MOL0     N99183   2.006   4.950   8.221 -0.2085  0.5269 -0.7672
  752MOL0     C99184   2.744   5.254   7.142  0.5212 -0.2815  0.7366
  752MOL0     C99185   2.851   5.231   7.054 -0.3185 -0.1624 -0.4786
  752MOL0     C99186   3.316   5.206   6.972 -0.2761  1.3349 -0.0990
  752MOL0     C99187   3.446   5.209   7.034  0.0013 -0.3685  0.2065
  752MOL0     C99188   3.558   5.202   6.960  0.5035  0.0063  0.0455
  752MOL0     C99189   3.549   5.193   6.820  0.1464  0.5113  0.1836
  752MOL0     O99190   3.667   5.206   6.739  0.7565 -0.2660  0.2717
  752MOL0     C99191   3.708   5.077   6.684 -0.6479  0.1726 -0.2558
  752MOL0     C99192   3.835   5.110   6.604  0.5236 -0.1493  0.3437
  752MOL0     C99193   3.900   4.975   6.560  0.6499  0.0149  0.3981
  752MOL0     C99194   3.962   4.879   6.664  0.5221 -0.5203 -0.7839
  752MOL0     C99195   4.097   4.935   6.695  0.5772  0.5213  0.0775
  752MOL0     C99196   4.203   4.978   6.740 -0.8557 -0.1680 -0.7433
  752MOL0     C99197   3.423   5.202   6.764  0.0893  0.3780  0.1214
  752MOL0     C99198   3.303   5.199   6.833  0.4998  0.2337 -1.0534
  752MOL0     H99199   3.064   5.471   7.181 -0.8114  0.4144  1.0349
  752MOL0     H99200   2.878   5.491   7.342 -1.3212 -1.3231  1.7410
  752MOL0     H99201   2.686   5.209   7.455 -0.2148 -0.2562 -0.8242
  752MOL0     H99202   2.549   5.210   7.342  1.7032 -0.2486 -1.2126
  752MOL0     H99203   2.421   5.365   7.463 -0.8881 -2.9181 -0.0145
  752MOL0     H99204   2.544   5.415   7.587 -1.4068 -2.2264  3.6377
  752MOL0     H99205   2.556   5.160   7.643 -0.7328  1.4721  1.1578
  752MOL0     H99206   2.404   5.167   7.540 -1.8771  1.3473  0.0194
  752MOL0     H99207   2.466   5.319   7.809  0.2344 -1.3448  0.5545
  752MOL0     H99208   2.322   5.336   7.695 -2.1800 -2.2915 -2.4286
  752MOL0     H99209   2.388   5.085   7.855 -0.9581  1.1659  3.1450
  752MOL0     H99210   2.263   5.104   7.734 -2.5708 -0.2464  3.1070
  752MOL0     H99211   2.173   5.295   7.888 -2.1136 -1.5058  0.3939
  752MOL0     H99212   2.284   5.253   8.014 -1.6457 -0.5503  1.4417
  752MOL0     H99213   2.047   5.163   8.017 -0.3856 -0.4320  0.7926
  752MOL0     H99214   2.077   5.078   7.875 -1.9299  4.9487 -1.0041
  752MOL0     H99215   2.237   5.040   8.135 -1.3407  0.1231  1.1302
  752MOL0     H99216   2.251   4.938   7.988 -0.2631  1.1753 -0.1776
  752MOL0     H99217   2.005   4.794   7.920 -0.1639 -1.5888 -0.3599
  752MOL0     H99218   1.823   4.663   7.960  0.3243 -2.8928  0.3921
  752MOL0     H99219   1.695   4.736   8.054  1.0490  0.7152 -5.4010
  752MOL0     H99220   1.713   4.506   8.088  0.3344 -0.7935 -0.5721
  752MOL0     H99221   1.719   4.606   8.240  1.4104  0.1489  0.7682
  752MOL0     H99222   1.955   4.549   8.262  1.2559 -0.8988  0.2930
  752MOL0     H99223   1.863   4.409   8.243  2.3243 -0.8764  0.1623
  752MOL0     H99224   2.016   4.528   8.017 -0.9368 -0.8092 -1.4731
  752MOL0     H99225   1.906   4.387   8.015  0.3815  0.0893  0.2320
  752MOL0     H99226   2.263   4.172   8.150 -1.6178  0.2831  1.5403
  752MOL0     H99227   2.501   4.201   8.190 -1.7444 -1.0066 -1.2615
  752MOL0     H99228   2.751   4.771   8.375 -0.6230 -0.3329 -1.5517
  752MOL0     H99229   2.959   4.885   8.359  0.6897  0.4872 -0.1002
  752MOL0     H99230   3.317   4.928   8.269 -0.6663 -1.4028 -1.6271
  752MOL0     H99231   3.176   4.931   8.376  0.4760  2.8860  0.3558
  752MOL0     H99232   3.042   5.052   8.201  1.3102  5.7014  0.0426
  752MOL0     H99233   3.173   5.015   8.083  2.1743  0.3161 -0.1016
  752MOL0     H99234   3.316   5.180   8.238 -0.0363 -0.2916 -3.1732
  752MOL0     H99235   3.157   5.209   8.321 -0.2665  3.1541 -0.4420
  752MOL0     H99236   3.073   5.261   8.096 -0.5326  1.1192  1.2973
  752MOL0     H99237   3.182   5.380   8.163  0.7426  1.1400 -1.7507
  752MOL0     H99238   3.307   5.163   7.995 -0.1202 -1.3007 -2.6727
  752MOL0     H99239   3.349   5.328   7.984  3.1179 -4.0600 -2.3807
  752MOL0     H99240   3.144   5.389   7.847 -1.3133 -0.7843 -1.4483
  752MOL0     H99241   3.094   5.220   7.873 -1.4892  1.4203 -1.4600
  752MOL0     H99242   3.319   5.153   7.740  2.9282  0.3854 -1.8068
  752MOL0     H99243   3.208   5.267   7.655 -0.1678  0.4348  0.8387
  752MOL0     H99244   3.453   5.347   7.814 -0.7691 -0.7896  1.1366
  752MOL0     H99245   3.343   5.457   7.734 -0.1726  0.5105 -2.8189
  752MOL0     H99246   3.096   4.572   8.085  2.2555  1.3737  1.4809
  752MOL0     H99247   2.858   4.503   8.083 -2.1882  1.1461  0.3957
  752MOL0     H99248   2.409   4.620   8.267 -0.0063 -0.6703  0.2396
  752MOL0     H99249   2.180   4.582   8.193  2.5887  0.2872 -1.0600
  752MOL0     H99250   2.646   5.225   7.107  2.0625 -0.5373 -4.1278
  752MOL0     H99251   2.836   5.154   6.979 -1.7153 -1.0367  0.6458
  752MOL0     H99252   3.463   5.225   7.141 -0.9025 -1.5644  0.5448
  752MOL0     H99253   3.653   5.195   7.012  1.3630 -1.5158 -1.6016
  752MOL0     H99254   3.634   5.030   6.619  1.8686 -2.7182 -1.2494
  752MOL0     H99255   3.736   5.004   6.760 -1.7578 -0.0244 -0.0241
  752MOL0     H99256   3.798   5.172   6.522 -1.1669 -3.6145 -1.7424
  752MOL0     H99257   3.910   5.161   6.665 -0.2724  2.5412 -0.7950
  752MOL0     H99258   3.978   5.006   6.490  1.0982  1.6426  1.5497
  752MOL0     H99259   3.827   4.917   6.503 -0.4310  0.8024  0.9573
  752MOL0     H99260   3.909   4.876   6.759  0.8507  1.6161 -0.4738
  752MOL0     H99261   3.967   4.779   6.621  0.5716  0.2029 -2.5678
  752MOL0     H99262   4.302   5.013   6.760 -1.0779  0.1995 -0.2630
  752MOL0     H99263   3.431   5.204   6.656 -0.2039  1.7579  0.1082
  752MOL0     H99264   3.206   5.212   6.784 -0.2815  0.6354  0.5365
  753MOL0     O99265   0.298   0.296  11.228  0.6752 -0.0326  0.5724
  753MOL0     C99266   0.365   0.193  11.227  0.0726  0.7727  0.6349
  753MOL0     O99267   0.335   0.085  11.299 -0.3643 -0.2869  0.4356
  753MOL0     C99268   0.217   0.074  11.363 -0.0787 -0.5634 -0.3583
  753MOL0     C99269   0.098   0.139  11.329  0.2656 -0.2960  0.2790
  753MOL0     C99270  -0.016   0.149  11.408  0.1703  0.5389 -0.6141
  753MOL0     C99271  -0.021   0.091  11.529 -0.1813  0.1595 -0.8080
  753MOL0     O99272  -0.130   0.101  11.615 -0.4986  0.7354 -0.6943
  753MOL0     C99273  -0.232   0.176  11.564  0.3836  0.2058 -0.5836
  753MOL0     C99274  -0.351   0.148  11.665  0.6142 -0.3188 -0.0995
  753MOL0     C99275  -0.473   0.241  11.642  0.6565 -0.8358 -0.1133
  753MOL0     C99276  -0.586   0.202  11.736 -0.0874 -0.0440 -0.0671
  753MOL0     C99277  -0.680   0.317  11.726  0.5341  0.1655 -0.8468
  753MOL0     C99278  -0.813   0.271  11.804  0.3396  0.3721 -0.3292
  753MOL0     C99279  -0.910   0.387  11.836  0.2818  0.5751 -0.1858
  753MOL0     C99280  -1.041   0.342  11.907 -0.8884 -0.0767  0.2016
  753MOL0     N99281  -1.126   0.455  11.931 -0.2060 -0.7841  0.2300
  753MOL0     C99282  -1.198   0.475  12.043 -0.3237  0.3947 -0.1856
  753MOL0     C99283  -1.251   0.599  12.034 -1.0550  0.2653  0.1277
  753MOL0     C99284  -1.333   0.667  12.134 -0.5167  0.6899 -0.6257
  753MOL0     C99285  -1.473   0.614  12.151 -0.3153 -0.1471  0.4723
  753MOL0     C99286  -1.588   0.698  12.086 -0.1730 -0.3091 -0.2960
  753MOL0     C99287  -1.578   0.720  11.936  0.5192  0.1106  0.1071
  753MOL0     O99288  -1.690   0.788  11.874 -0.2089 -0.1314  0.4227
  753MOL0     C99289  -1.818   0.730  11.858 -0.5815  0.8624 -0.6196
  753MOL0     C99290  -1.848   0.599  11.876  0.2159  0.7174  0.1153
  753MOL0     C99291  -1.975   0.549  11.836 -0.1180  0.7718 -0.4569
  753MOL0     C99292  -2.081   0.636  11.795  0.3167 -0.5359 -0.0481
  753MOL0     C99293  -2.219   0.576  11.777  0.1921 -0.7669 -0.8857
  753MOL0     O99294  -2.324   0.659  11.735 -0.2708 -0.0050 -0.4714
  753MOL0     C99295  -2.450   0.611  11.717 -0.2179  0.1981 -0.4838
  753MOL0     C99296  -2.545   0.716  11.714 -0.5240  0.9859 -0.1060
  753MOL0     C99297  -2.676   0.688  11.705 -0.0028  0.0847 -0.2638
  753MOL0     C99298  -2.723   0.563  11.682  0.2072 -0.6408  0.5147
  753MOL0     O99299  -2.855   0.543  11.643 -0.0140 -0.1507  0.1722
  753MOL0     C99300  -2.922   0.442  11.716 -0.0601 -0.1368  0.4764
  753MOL0     C99301  -3.064   0.503  11.731 -0.5586 -0.0122  0.0919
  753MOL0     C99302  -3.135   0.539  11.597 -0.3307  0.4356 -0.1853
  753MOL0     C99303  -3.277   0.604  11.613  0.0714 -0.4548 -1.3574
  753MOL0     C99304  -3.316   0.655  11.481  0.7677 -0.4380 -0.4060
  753MOL0     C99305  -3.453   0.726  11.489 -0.3604  0.0863  0.1349
  753MOL0     C99306  -3.508   0.762  11.349 -0.7284 -0.6813 -1.0554
  753MOL0     C99307  -3.492   0.906  11.306  0.2477  0.2330  0.2072
  753MOL0    Cl99308  -3.314   0.950  11.319 -0.4763  0.1299  0.1004
  753MOL0     C99309  -2.633   0.450  11.688  0.9619 -0.7450  0.1022
  753MOL0     C99310  -2.493   0.477  11.694 -0.8276  0.8829 -0.8066
  753MOL0     O99311  -2.227   0.461  11.808 -1.3498  0.1033  0.0619
  753MOL0     C99312  -2.044   0.770  11.781  0.7748 -0.2939  0.4942
  753MOL0     C99313  -1.915   0.814  11.812  0.8270 -0.4244  0.1636
  753MOL0     N99314  -1.208   0.660  11.920  0.2044  0.2480 -0.1060
  753MOL0     N99315  -1.141   0.568  11.857 -0.6136  0.0579  0.2239
  753MOL0     C99316   0.099   0.027  11.575 -0.0252 -0.4064 -0.4982
  753MOL0     C99317   0.217   0.022  11.497  0.2216  0.0891 -0.1335
  753MOL0     C99318   0.486   0.175  11.134  0.2893  0.3247 -0.0098
  753MOL0     C99319   0.542   0.282  11.070  1.2709  0.3611  0.1243
  753MOL0     C99320   0.648   0.278  10.992 -0.9617 -0.2223  0.3976
  753MOL0     C99321   0.716   0.160  10.968  0.0179  0.5682 -0.0044
  753MOL0     O99322   0.805   0.161  10.867 -0.2714  0.4275 -0.9340
  753MOL0     C99323   0.861   0.031  10.838  0.1423 -0.0654  1.0341
  753MOL0     C99324   0.961   0.061  10.731  0.5947 -0.0083 -0.3954
  753MOL0     C99325   0.985  -0.056  10.631  0.1628  0.2486  0.0156
  753MOL0     C99326   1.034  -0.188  10.701 -0.2370  0.7703  0.4011
  753MOL0     C99327   1.166  -0.179  10.752  0.0539  0.3932  0.1408
  753MOL0     C99328   1.277  -0.171  10.799  0.2628  0.2191 -0.2211
  753MOL0     C99329   0.664   0.040  11.033 -0.2490  0.4085  0.5844
  753MOL0     C99330   0.552   0.056  11.112  0.7426  0.1420  0.2512
  753MOL0     H99331   0.078   0.181  11.231 -1.0665 -0.0225  0.6436
  753MOL0     H99332  -0.096   0.201  11.356  1.4525  2.1230 -1.0787
  753MOL0     H99333  -0.269   0.132  11.471 -1.9963  1.6010 -0.3944
  753MOL0     H99334  -0.202   0.280  11.552 -1.5852  1.2682  2.4938
  753MOL0     H99335  -0.317   0.152  11.769  0.9655 -0.9980 -0.1813
  753MOL0     H99336  -0.392   0.047  11.656 -2.0605  0.6054  0.7945
  753MOL0     H99337  -0.506   0.227  11.539  0.9388  4.1534 -1.1577
  753MOL0     H99338  -0.438   0.344  11.650 -0.0371 -0.6948  1.7001
  753MOL0     H99339  -0.634   0.113  11.692  0.7643  0.5054 -2.2483
  753MOL0     H99340  -0.554   0.187  11.839  0.0808 -1.7747 -0.3290
  753MOL0     H99341  -0.705   0.338  11.622 -0.5366  1.9586 -0.2667
  753MOL0     H99342  -0.632   0.403  11.772  3.1787 -1.4578 -0.3611
  753MOL0     H99343  -0.792   0.228  11.903  1.6151 -2.1683 -1.6098
  753MOL0     H99344  -0.863   0.195  11.744  3.8403 -1.3039 -1.3601
  753MOL0     H99345  -0.858   0.453  11.906 -1.3057  2.5908 -0.8070
  753MOL0     H99346  -0.927   0.433  11.737  1.1270 -0.1405 -0.6771
  753MOL0     H99347  -1.006   0.306  12.004  2.6793 -0.8869 -1.2385
  753MOL0     H99348  -1.099   0.274  11.844  0.9196  0.3149 -2.0145
  753MOL0     H99349  -1.220   0.402  12.120 -1.2763 -0.3410 -1.1298
  753MOL0     H99350  -1.332   0.774  12.109 -1.8721  0.8492 -0.0678
  753MOL0     H99351  -1.285   0.650  12.231 -1.1755 -1.9515 -0.6888
  753MOL0     H99352  -1.506   0.615  12.255  0.3034 -1.3989  0.7029
  753MOL0     H99353  -1.476   0.513  12.110 -1.1742  0.8095 -1.9890
  753MOL0     H99354  -1.679   0.638  12.089  0.4939 -1.3624 -0.6281
  753MOL0     H99355  -1.606   0.797  12.130 -4.1534  0.5747 -3.4236
  753MOL0     H99356  -1.567   0.620  11.893 -0.2209  0.4539 -0.8961
  753MOL0     H99357  -1.481   0.765  11.911  0.3902  0.1892 -0.2517
  753MOL0     H99358  -1.779   0.526  11.916  2.6196  1.9565 -1.5341
  753MOL0     H99359  -1.997   0.447  11.868 -0.3771  1.3706  1.3965
  753MOL0     H99360  -2.517   0.820  11.725 -1.8511  1.2038  1.7290
  753MOL0     H99361  -2.744   0.772  11.711  2.0229  2.3514 -4.2107
  753MOL0     H99362  -2.879   0.422  11.815  3.1638  3.0396 -0.1014
  753MOL0     H99363  -2.941   0.354  11.654 -4.7295  0.9440 -0.0091
  753MOL0     H99364  -3.064   0.600  11.782 -1.6929  0.7864 -1.3796
  753MOL0     H99365  -3.123   0.437  11.796 -0.2292  0.5066  0.9363
  753MOL0     H99366  -3.146   0.448  11.538 -2.3189  0.8760 -0.5689
  753MOL0     H99367  -3.074   0.607  11.537 -2.1516  0.2545 -2.4017
  753MOL0     H99368  -3.353   0.544  11.663  1.3114 -3.3143 -2.6342
  753MOL0     H99369  -3.272   0.685  11.686 -1.1676 -1.7207  0.1925
  753MOL0     H99370  -3.330   0.565  11.422  1.5943 -1.2385  0.5675
  753MOL0     H99371  -3.238   0.723  11.446 -0.2633 -0.1697 -2.2965
  753MOL0     H99372  -3.439   0.813  11.553  1.3313 -0.3253  0.3764
  753MOL0     H99373  -3.527   0.652  11.521  0.1894 -1.0834 -1.1920
  753MOL0     H99374  -3.473   0.685  11.281  1.3313 -1.4739  0.7553
  753MOL0     H99375  -3.613   0.733  11.353 -0.2964 -2.2600 -0.4892
  753MOL0     H99376  -3.557   0.972  11.364  2.2853  0.2149  2.6762
  753MOL0     H99377  -3.520   0.920  11.201 -0.8821 -0.8477  0.3338
  753MOL0     H99378  -2.674   0.350  11.682  1.3142 -0.8669 -0.4269
  753MOL0     H99379  -2.419   0.400  11.675 -1.8043  0.1834 -1.9274
  753MOL0     H99380  -2.125   0.838  11.759 -0.4342 -2.3466 -1.8238
  753MOL0     H99381  -1.893   0.920  11.802 -0.5259 -0.1594 -0.1317
  753MOL0     H99382   0.095  -0.005  11.678  0.2672  3.4340  0.8621
  753MOL0     H99383   0.305  -0.028  11.536  2.0289  1.6398 -1.9417
  753MOL0     H99384   0.499   0.379  11.092  1.5660  0.8757 -1.4186
  753MOL0     H99385   0.676   0.367  10.936  2.9799 -1.4732  0.1232
  753MOL0     H99386   0.781  -0.037  10.807 -0.6575 -0.1981  3.2268
  753MOL0     H99387   0.911  -0.014  10.925 -0.0130  0.1259  1.2241
  753MOL0     H99388   0.941   0.158  10.685  1.3178  0.5806  0.4791
  753MOL0     H99389   1.053   0.084  10.787 -0.0898 -0.9569  1.2051
  753MOL0     H99390   1.061  -0.011  10.567 -0.3015  2.8314  1.1453
  753MOL0     H99391   0.895  -0.067  10.569  0.1715  3.1199 -0.6490
  753MOL0     H99392   0.968  -0.207  10.786 -0.4764 -1.8096 -0.2727
  753MOL0     H99393   1.027  -0.272  10.632  1.2068 -1.4069  2.7427
  753MOL0     H99394   1.378  -0.161  10.835 -0.9318  3.5739  2.8945
  753MOL0     H99395   0.703  -0.060  11.017 -1.4391  0.0009  0.1396
  753MOL0     H99396   0.503  -0.034  11.147 -2.0850  0.9704 -1.2831
  754MOL0     O99397  10.713   5.446   8.204 -0.0607  0.6310  0.5036
  754MOL0     C99398  10.721   5.508   8.305 -0.3551 -0.0883  0.1415
  754MOL0     O99399  10.830   5.584   8.340  0.5902  0.1019 -0.1876
  754MOL0     C99400  10.939   5.606   8.258  0.3399 -0.2311  0.2563
  754MOL0     C99401  11.068   5.600   8.316 -0.9666 -0.0327  0.0202
  754MOL0     C99402  11.177   5.625   8.239  0.0510 -0.0836  0.1553
  754MOL0     C99403  11.165   5.669   8.109 -0.4287  0.2853 -0.4343
  754MOL0     O99404  11.271   5.705   8.031 -0.9797  0.0408 -0.0632
  754MOL0     C99405  11.396   5.653   8.069 -0.5794 -0.8857  0.1388
  754MOL0     C99406  11.504   5.711   7.974  0.4983  0.5376 -0.5515
  754MOL0     C99407  11.462   5.850   7.937 -0.8319 -0.4850  0.2696
  754MOL0     C99408  11.588   5.923   7.878  0.3623 -0.6362 -0.2390
  754MOL0     C99409  11.564   6.058   7.808  0.1534 -0.0667 -0.9289
  754MOL0     C99410  11.519   6.158   7.910 -0.7636  0.3872  0.1275
  754MOL0     C99411  11.503   6.300   7.855  0.0525  0.3667  0.2615
  754MOL0     C99412  11.392   6.323   7.754 -0.2233  0.4966  0.3720
  754MOL0     N99413  11.272   6.249   7.803 -0.3370  0.2525 -0.0117
  754MOL0     C99414  11.221   6.131   7.750 -0.3200 -0.9663  0.4808
  754MOL0     C99415  11.108   6.102   7.818 -0.3686 -0.8006 -1.1549
  754MOL0     C99416  11.022   5.983   7.785 -0.5379  0.1010 -0.1631
  754MOL0     C99417  10.871   6.005   7.806 -0.1092 -0.1599  0.2891
  754MOL0     C99418  10.826   5.989   7.953 -0.9209 -0.1953 -1.1780
  754MOL0     C99419  10.671   6.000   7.976  0.4922  0.1487  0.6423
  754MOL0     O99420  10.660   5.954   8.113  0.0180 -0.7414  0.0441
  754MOL0     C99421  10.530   5.949   8.162  0.1062 -0.4850  0.2397
  754MOL0     C99422  10.421   6.028   8.114 -0.7816 -0.7000  0.1347
  754MOL0     C99423  10.289   6.007   8.157 -0.5783  0.6382  0.0961
  754MOL0     C99424  10.264   5.911   8.252 -0.6351 -0.0655  0.0771
  754MOL0     C99425  10.131   5.895   8.304 -0.0495 -0.1502  0.1134
  754MOL0     O99426  10.032   5.974   8.261 -0.2678  0.2536  0.3727
  754MOL0     C99427   9.900   5.950   8.301 -0.0900 -0.8368  0.0329
  754MOL0     C99428   9.789   5.966   8.215  0.3850 -0.2775  0.5193
  754MOL0     C99429   9.653   5.941   8.251  0.8683  0.2070  0.7721
  754MOL0     C99430   9.619   5.910   8.378 -0.1447 -0.7451  0.0643
  754MOL0     O99431   9.485   5.888   8.410  0.2888 -0.1747  0.3005
  754MOL0     C99432   9.451   5.837   8.541  0.9159 -0.5715 -0.5149
  754MOL0     C99433   9.293   5.831   8.566  0.2462  0.4080 -0.0485
  754MOL0     C99434   9.245   5.688   8.532 -0.5459 -0.0936 -0.2119
  754MOL0     C99435   9.098   5.682   8.550  0.0091  0.3623  0.1421
  754MOL0     C99436   9.055   5.529   8.515 -0.1623  0.9381 -0.7399
  754MOL0     C99437   8.900   5.516   8.531  0.0523  0.6719 -0.2155
  754MOL0     C99438   8.855   5.367   8.542 -0.4590  1.7243  0.5180
  754MOL0     C99439   8.834   5.312   8.399 -0.0386  0.0709 -0.4928
  754MOL0    Cl99440   8.692   5.388   8.310 -0.5619  0.2742  0.1981
  754MOL0     C99441   9.728   5.910   8.476  0.7409 -0.6279 -0.0121
  754MOL0     C99442   9.864   5.925   8.438  0.2595 -0.3421  0.0188
  754MOL0     O99443  10.125   5.819   8.395  0.0948  0.4856  0.7510
  754MOL0     C99444  10.372   5.824   8.293  0.3965 -0.6095  0.0367
  754MOL0     C99445  10.500   5.845   8.252  0.3581 -0.3778  0.2213
  754MOL0     N99446  11.094   6.197   7.921 -0.2887 -0.8268  0.7401
  754MOL0     N99447  11.198   6.281   7.907 -0.3469  0.7450  0.3117
  754MOL0     C99448  11.036   5.673   8.050 -0.9845 -0.8265  0.1724
  754MOL0     C99449  10.931   5.637   8.124  1.3501 -0.1489 -0.3236
  754MOL0     C99450  10.600   5.501   8.394  0.6730 -0.4813 -0.6870
  754MOL0     C99451  10.470   5.475   8.343  0.0104  0.1355  1.0321
  754MOL0     C99452  10.357   5.442   8.427 -0.6803  0.8101 -0.0693
  754MOL0     C99453  10.375   5.455   8.571  1.0633 -0.5551  0.9521
  754MOL0     O99454  10.265   5.439   8.660  0.0761 -0.2677  0.2593
  754MOL0     C99455  10.143   5.381   8.617 -0.0424 -0.4354 -0.4828
  754MOL0     C99456  10.032   5.483   8.589  0.6511 -0.0828 -0.0724
  754MOL0     C99457   9.893   5.414   8.557 -0.3197 -0.6177  0.2937
  754MOL0     C99458   9.777   5.514   8.554  0.3661  0.8772 -0.0624
  754MOL0     C99459   9.648   5.461   8.589 -0.9756  0.1940 -0.9070
  754MOL0     C99460   9.548   5.409   8.628 -0.0925  0.6789 -0.9946
  754MOL0     C99461  10.493   5.515   8.620  0.3103  0.0244  0.4404
  754MOL0     C99462  10.602   5.524   8.529  0.4359 -0.0760  0.4173
  754MOL0     H99463  11.086   5.588   8.422  0.8263  0.7394 -0.1659
  754MOL0     H99464  11.271   5.610   8.291 -0.0521 -0.0299  0.3621
  754MOL0     H99465  11.406   5.544   8.077 -1.3214 -1.1574 -1.8491
  754MOL0     H99466  11.406   5.701   8.166 -1.3836  1.9142 -1.0723
  754MOL0     H99467  11.516   5.643   7.890  3.8446  1.5168 -1.0495
  754MOL0     H99468  11.596   5.715   8.034 -0.1567 -0.2186  0.5484
  754MOL0     H99469  11.421   5.911   8.018  0.3284  0.4391  0.1950
  754MOL0     H99470  11.379   5.840   7.866  0.2045 -0.9548 -0.9211
  754MOL0     H99471  11.668   5.946   7.949  0.3753  2.1779 -1.0511
  754MOL0     H99472  11.624   5.854   7.802 -0.8644 -1.1298 -0.3922
  754MOL0     H99473  11.493   6.054   7.725 -0.0290  3.7717 -1.1517
  754MOL0     H99474  11.656   6.094   7.762 -0.8330 -0.2278 -3.1716
  754MOL0     H99475  11.581   6.171   7.999  0.3147  0.5793 -0.6299
  754MOL0     H99476  11.427   6.126   7.960  0.7889 -0.8784  2.4218
  754MOL0     H99477  11.480   6.365   7.940  0.0827  0.8193 -0.0769
  754MOL0     H99478  11.600   6.334   7.817  1.0378 -2.2224  0.2416
  754MOL0     H99479  11.426   6.277   7.661 -0.6110 -0.6401  0.7708
  754MOL0     H99480  11.371   6.429   7.741  1.5901  0.5176 -4.5117
  754MOL0     H99481  11.254   6.086   7.657 -0.3862 -1.0634  0.5039
  754MOL0     H99482  11.048   5.896   7.847 -1.8332 -0.0774  0.1574
  754MOL0     H99483  11.045   5.951   7.682  0.0566  3.9186 -1.3648
  754MOL0     H99484  10.818   5.933   7.742 -2.0946  2.2539 -0.9790
  754MOL0     H99485  10.843   6.104   7.768 -2.9942 -1.2712 -0.8119
  754MOL0     H99486  10.858   5.889   7.987 -0.3493  0.0780 -0.8919
  754MOL0     H99487  10.876   6.058   8.021 -1.2894 -1.6636  0.6707
  754MOL0     H99488  10.618   5.924   7.918  0.3192 -1.1838  2.4577
  754MOL0     H99489  10.630   6.100   7.957 -2.9071 -1.4697 -1.4064
  754MOL0     H99490  10.442   6.097   8.033  2.1019 -1.2193  0.3231
  754MOL0     H99491  10.197   6.051   8.122 -4.2892 -4.1377  2.6359
  754MOL0     H99492   9.814   5.977   8.110  1.0600 -5.3192 -0.0733
  754MOL0     H99493   9.575   5.950   8.176  1.7199 -0.1449 -0.1804
  754MOL0     H99494   9.487   5.894   8.627 -1.8890 -1.6600  1.5254
  754MOL0     H99495   9.488   5.734   8.553  1.2059 -0.3096  1.1316
  754MOL0     H99496   9.249   5.917   8.515 -1.8919  0.6484  2.0556
  754MOL0     H99497   9.272   5.850   8.672  2.4790  3.4571  0.0058
  754MOL0     H99498   9.299   5.619   8.598  0.0995 -1.4126 -2.0496
  754MOL0     H99499   9.282   5.666   8.432 -1.8826  0.9117 -0.9767
  754MOL0     H99500   9.073   5.704   8.654  2.0399 -0.3359  0.8158
  754MOL0     H99501   9.048   5.744   8.475  0.0460  0.0343 -0.1571
  754MOL0     H99502   9.106   5.456   8.578 -0.7310  2.4664  1.6724
  754MOL0     H99503   9.087   5.511   8.412  1.2511  0.4557 -0.2345
  754MOL0     H99504   8.834   5.575   8.466 -1.3981  2.5255  2.7378
  754MOL0     H99505   8.863   5.562   8.624  1.4600  0.0082  0.6965
  754MOL0     H99506   8.918   5.296   8.596 -3.3903 -1.5169  0.0113
  754MOL0     H99507   8.762   5.367   8.598  1.4490  1.3844  3.9479
  754MOL0     H99508   8.799   5.210   8.417 -0.9218  0.4463 -0.0343
  754MOL0     H99509   8.929   5.295   8.347 -0.2620  0.6189 -1.0853
  754MOL0     H99510   9.711   5.865   8.573  0.3543 -1.5419 -0.4911
  754MOL0     H99511   9.937   5.912   8.517  0.0920 -3.1866 -0.1934
  754MOL0     H99512  10.350   5.743   8.362 -0.1711 -0.1759  0.3766
  754MOL0     H99513  10.585   5.786   8.286  0.6529 -0.2993 -0.3642
  754MOL0     H99514  11.029   5.700   7.944 -0.4765 -1.4832 -0.0314
  754MOL0     H99515  10.834   5.642   8.077  1.1278 -2.0742 -0.1585
  754MOL0     H99516  10.452   5.458   8.238 -0.1599  3.6412  0.3965
  754MOL0     H99517  10.266   5.400   8.385 -1.1136 -0.6656  2.1694
  754MOL0     H99518  10.108   5.329   8.707 -1.1369  0.5059 -0.3372
  754MOL0     H99519  10.151   5.310   8.534 -0.0448  0.6086 -1.3953
  754MOL0     H99520  10.015   5.548   8.676  0.0789  1.2104 -1.1214
  754MOL0     H99521  10.065   5.546   8.506  0.5690 -1.2835 -1.0342
  754MOL0     H99522   9.874   5.335   8.631 -2.4115  0.8029  1.3746
  754MOL0     H99523   9.902   5.357   8.464  0.3979 -0.6767  0.3912
  754MOL0     H99524   9.808   5.595   8.621 -2.1897  0.8475  1.2775
  754MOL0     H99525   9.780   5.556   8.453  2.2024  0.9976  0.0112
  754MOL0     H99526   9.461   5.365   8.672 -0.0552  0.4804 -1.1179
  754MOL0     H99527  10.509   5.545   8.723 -1.8867  0.4133  0.7088
  754MOL0     H99528  10.692   5.573   8.565 -0.1910  1.4084  0.0390
  755MOL0     O99529   1.213   2.879   8.142  0.1385 -0.7367 -0.2047
  755MOL0     C99530   1.187   2.999   8.173  0.3161 -0.7312  0.4989
  755MOL0     O99531   1.060   3.046   8.184  0.6060 -0.0246 -0.0381
  755MOL0     C99532   0.957   2.954   8.184 -0.1670 -0.4707 -0.1046
  755MOL0     C99533   0.881   2.933   8.297  0.5256 -0.7140  0.3717
  755MOL0     C99534   0.783   2.834   8.290  1.0237  0.2772  0.3761
  755MOL0     C99535   0.758   2.761   8.173 -0.0135  0.3840 -0.8742
  755MOL0     O99536   0.663   2.659   8.156  0.1143  0.1407  0.6459
  755MOL0     C99537   0.540   2.674   8.217  0.5209  0.2428 -0.9986
  755MOL0     C99538   0.493   2.538   8.258  0.6105  0.6543 -0.1833
  755MOL0     C99539   0.349   2.542   8.321 -0.1387 -0.8534 -0.0804
  755MOL0     C99540   0.286   2.405   8.342 -0.3210  1.0003 -0.2526
  755MOL0     C99541   0.160   2.415   8.419 -0.6589 -0.2179 -0.6704
  755MOL0     C99542   0.041   2.484   8.350  0.8341  0.0404  0.7271
  755MOL0     C99543  -0.091   2.437   8.409  0.3275 -0.4213 -0.4268
  755MOL0     C99544  -0.208   2.517   8.359  0.2370 -0.0918  0.4552
  755MOL0     N99545  -0.340   2.467   8.420  0.0462  0.5552 -0.0350
  755MOL0     C99546  -0.457   2.540   8.420 -0.0398 -0.0421 -0.0293
  755MOL0     C99547  -0.544   2.452   8.476 -0.1447 -0.1580  0.9102
  755MOL0     C99548  -0.689   2.485   8.493 -0.2018 -0.2319  0.9218
  755MOL0     C99549  -0.753   2.457   8.355  0.4567  0.0740 -0.3959
  755MOL0     C99550  -0.897   2.404   8.360 -0.2236 -0.4729  0.1585
  755MOL0     C99551  -0.998   2.515   8.423  0.2528 -0.0926  0.3736
  755MOL0     O99552  -1.127   2.451   8.390 -0.4085 -0.3872  0.0113
  755MOL0     C99553  -1.232   2.481   8.473  0.0674 -0.1883  0.0115
  755MOL0     C99554  -1.259   2.621   8.487  0.7503  0.1167 -0.3619
  755MOL0     C99555  -1.362   2.663   8.572  0.4908 -0.3289  0.1207
  755MOL0     C99556  -1.449   2.571   8.644 -0.3991 -0.0212  0.7287
  755MOL0     C99557  -1.559   2.618   8.721  0.2469  0.7002  0.5446
  755MOL0     O99558  -1.607   2.517   8.800  0.6393 -0.4390  0.0105
  755MOL0     C99559  -1.715   2.540   8.881  0.1141 -0.4002  0.9571
  755MOL0     C99560  -1.820   2.458   8.871 -0.4974  0.7305 -1.0283
  755MOL0     C99561  -1.927   2.474   8.950  0.2254 -1.3124 -0.0695
  755MOL0     C99562  -1.929   2.582   9.041 -0.0303 -0.4219 -0.5063
  755MOL0     O99563  -2.039   2.603   9.123 -0.6820  0.2756  0.0391
  755MOL0     C99564  -2.139   2.503   9.128  0.7489  0.9697 -0.2204
  755MOL0     C99565  -2.247   2.531   9.231 -0.6331 -0.2342 -0.5181
  755MOL0     C99566  -2.358   2.624   9.197  0.6913 -0.8776  0.1258
  755MOL0     C99567  -2.451   2.651   9.318  0.2961  0.6155  0.3384
  755MOL0     C99568  -2.547   2.764   9.287  0.0824  0.0755  0.2974
  755MOL0     C99569  -2.630   2.786   9.411  0.0059  0.1930  0.6867
  755MOL0     C99570  -2.748   2.884   9.384  0.1563  0.0423  0.9651
  755MOL0     C99571  -2.848   2.884   9.498  0.4114 -0.4818  0.1324
  755MOL0    Cl99572  -2.801   2.949   9.660  0.1946  0.1269 -0.2043
  755MOL0     C99573  -1.822   2.663   9.064 -0.0294  0.4608 -0.0775
  755MOL0     C99574  -1.713   2.648   8.970 -1.1119 -0.2182 -0.0270
  755MOL0     O99575  -1.592   2.734   8.725 -0.0453  0.1906 -0.1790
  755MOL0     C99576  -1.416   2.435   8.620  0.1273 -0.6778 -0.0026
  755MOL0     C99577  -1.310   2.389   8.540  0.3808  0.1773 -0.5039
  755MOL0     N99578  -0.478   2.329   8.506  0.3596 -0.0175 -0.4712
  755MOL0     N99579  -0.361   2.341   8.467  0.6221  0.1082 -1.2551
  755MOL0     C99580   0.835   2.785   8.065  0.3983  0.5858 -0.2717
  755MOL0     C99581   0.924   2.886   8.064 -0.1045  0.1022 -0.0898
  755MOL0     C99582   1.295   3.100   8.183  0.8247 -0.3028 -0.7991
  755MOL0     C99583   1.427   3.052   8.206 -0.6789  0.1408  0.7287
  755MOL0     C99584   1.530   3.152   8.207 -0.0484  0.0167  0.9296
  755MOL0     C99585   1.502   3.289   8.195  1.2104  0.3953 -0.0711
  755MOL0     O99586   1.615   3.361   8.209  0.5381 -0.0629 -0.3000
  755MOL0     C99587   1.611   3.494   8.165  0.2307  0.6158  0.1666
  755MOL0     C99588   1.562   3.597   8.261 -0.4622 -0.1279  1.1857
  755MOL0     C99589   1.649   3.612   8.376  0.1885 -0.5512 -0.2220
  755MOL0     C99590   1.595   3.708   8.483  0.5054 -1.1124  0.3424
  755MOL0     C99591   1.642   3.852   8.451  0.1018  0.5546  0.6261
  755MOL0     C99592   1.673   3.970   8.449  0.8503 -0.8746 -0.1202
  755MOL0     C99593   1.367   3.332   8.178 -0.3141  0.5706 -0.5143
  755MOL0     C99594   1.263   3.242   8.172 -0.2109  0.1171 -0.9418
  755MOL0     H99595   0.884   2.995   8.386 -0.8976  1.9944 -1.3370
  755MOL0     H99596   0.734   2.799   8.380  0.1725  2.8014  0.9809
  755MOL0     H99597   0.468   2.708   8.143 -0.5962  0.4389  0.1466
  755MOL0     H99598   0.532   2.745   8.301 -4.6665 -1.1885  0.1027
  755MOL0     H99599   0.569   2.493   8.323 -0.4772  1.9361  2.0766
  755MOL0     H99600   0.475   2.477   8.169 -2.5836 -2.2473  2.1926
  755MOL0     H99601   0.288   2.612   8.263  0.5712 -1.4886 -1.6555
  755MOL0     H99602   0.357   2.581   8.423 -2.2464 -0.1463 -0.1464
  755MOL0     H99603   0.273   2.360   8.243  1.5547  0.0554 -0.0974
  755MOL0     H99604   0.349   2.334   8.394  1.3983  2.4938 -0.2057
  755MOL0     H99605   0.177   2.479   8.506 -2.2190 -0.6653  0.0008
  755MOL0     H99606   0.136   2.315   8.456  0.6248  0.4042  2.0477
  755MOL0     H99607   0.043   2.470   8.242 -0.8778 -0.2809  0.7139
  755MOL0     H99608   0.049   2.590   8.379  0.7325 -0.1532  1.4922
  755MOL0     H99609  -0.106   2.331   8.383 -0.0421  0.0579 -2.3872
  755MOL0     H99610  -0.095   2.461   8.515  0.0862 -2.0705 -0.0300
  755MOL0     H99611  -0.218   2.510   8.250 -1.6028 -1.1931  0.6458
  755MOL0     H99612  -0.197   2.622   8.385 -2.3062 -0.5611  4.2897
  755MOL0     H99613  -0.482   2.641   8.390  0.3171  0.1286  0.2475
  755MOL0     H99614  -0.701   2.587   8.529 -0.9930 -0.8395  2.5002
  755MOL0     H99615  -0.729   2.423   8.575  3.5154 -1.4088  2.0386
  755MOL0     H99616  -0.688   2.387   8.302 -2.1204 -1.9587 -1.0777
  755MOL0     H99617  -0.747   2.554   8.304  2.2911 -0.6615 -1.6691
  755MOL0     H99618  -0.922   2.386   8.255 -0.5985  0.3329  0.1111
  755MOL0     H99619  -0.902   2.318   8.428  1.0880  1.7776  3.3408
  755MOL0     H99620  -0.983   2.610   8.371 -0.1442  0.4827  1.3007
  755MOL0     H99621  -0.979   2.522   8.530 -1.4147 -2.1566  0.8560
  755MOL0     H99622  -1.193   2.694   8.440  0.2191  0.0714 -1.1908
  755MOL0     H99623  -1.389   2.767   8.580 -1.2420 -0.7623  0.3585
  755MOL0     H99624  -1.800   2.372   8.809 -0.3557 -0.2314  0.2937
  755MOL0     H99625  -2.013   2.408   8.938  0.9966 -2.2789 -0.4027
  755MOL0     H99626  -2.098   2.407   9.159 -2.5474 -0.4027  0.3025
  755MOL0     H99627  -2.173   2.499   9.025 -2.9253 -0.6597  0.8910
  755MOL0     H99628  -2.200   2.560   9.326 -1.7276 -0.5115  0.1309
  755MOL0     H99629  -2.301   2.436   9.243 -0.4931 -0.5672 -2.3085
  755MOL0     H99630  -2.421   2.594   9.113  0.6011 -0.3740  0.0118
  755MOL0     H99631  -2.307   2.715   9.165 -0.7249 -0.1702 -0.1814
  755MOL0     H99632  -2.505   2.557   9.332 -1.3206  1.7862  2.8472
  755MOL0     H99633  -2.393   2.669   9.409 -0.0620  0.8677  0.5201
  755MOL0     H99634  -2.623   2.741   9.211 -0.0153 -0.1963  0.4773
  755MOL0     H99635  -2.486   2.848   9.252  2.2673 -0.4096  2.7114
  755MOL0     H99636  -2.574   2.821   9.498 -0.1183 -3.1335  2.2662
  755MOL0     H99637  -2.670   2.688   9.439  1.0753 -1.0899 -1.8870
  755MOL0     H99638  -2.712   2.986   9.366  0.3594  0.6131  3.9853
  755MOL0     H99639  -2.805   2.860   9.294 -0.0298  0.8267  0.8613
  755MOL0     H99640  -2.895   2.787   9.516 -0.7952  0.1555  0.5073
  755MOL0     H99641  -2.928   2.952   9.467 -1.4246 -2.8509 -0.5633
  755MOL0     H99642  -1.834   2.733   9.146 -1.6972  0.1327 -0.0159
  755MOL0     H99643  -1.632   2.720   8.967 -1.8542  0.6489 -2.9693
  755MOL0     H99644  -1.484   2.361   8.661 -1.8544  0.6014 -0.8317
  755MOL0     H99645  -1.281   2.285   8.527 -0.2666  0.0017 -0.5992
  755MOL0     H99646   0.814   2.727   7.975 -1.4616  1.1980 -0.2747
  755MOL0     H99647   0.987   2.907   7.978 -2.5848  1.0187 -1.8070
  755MOL0     H99648   1.450   2.947   8.216  4.0976  0.7064 -1.4744
  755MOL0     H99649   1.635   3.125   8.217  0.1035  0.5946  0.9205
  755MOL0     H99650   1.553   3.502   8.072 -1.6329  0.2744  1.2452
  755MOL0     H99651   1.711   3.518   8.129 -0.4630  1.4078 -1.2967
  755MOL0     H99652   1.538   3.693   8.215  0.2780 -0.1105  0.8164
  755MOL0     H99653   1.463   3.574   8.300 -0.1541 -0.0995  2.0128
  755MOL0     H99654   1.751   3.638   8.346  0.6419 -1.0160  0.8564
  755MOL0     H99655   1.666   3.522   8.437  0.8285  1.1427  2.2757
  755MOL0     H99656   1.487   3.696   8.474  0.7249 -1.9637 -1.8191
  755MOL0     H99657   1.641   3.682   8.578  0.2282 -2.0349  0.2338
  755MOL0     H99658   1.713   4.070   8.451  0.0716 -0.5503  1.9375
  755MOL0     H99659   1.354   3.440   8.186  1.3101  0.6714  1.9633
  755MOL0     H99660   1.163   3.286   8.173  0.2854  1.2908  0.3431
  756MOL0     O99661   9.449   1.086   7.048  0.2298 -0.2626 -0.0162
  756MOL0     C99662   9.464   1.012   7.144  0.0578  0.6425 -0.5145
  756MOL0     O99663   9.389   1.012   7.255  0.2943  0.5081  0.5785
  756MOL0     C99664   9.287   1.110   7.275 -0.4977 -0.4815  0.1376
  756MOL0     C99665   9.174   1.071   7.344  0.3496 -0.0093 -0.5318
  756MOL0     C99666   9.082   1.173   7.379 -0.7454 -0.0177  0.5669
  756MOL0     C99667   9.095   1.311   7.336 -0.5298 -0.2965  0.2933
  756MOL0     O99668   9.012   1.410   7.384 -0.6168  0.9113 -0.1332
  756MOL0     C99669   8.870   1.390   7.355  1.0842  0.1999 -0.5495
  756MOL0     C99670   8.793   1.516   7.392 -0.0620  0.1650  0.5294
  756MOL0     C99671   8.653   1.526   7.342 -0.3236  0.2390  0.3570
  756MOL0     C99672   8.584   1.657   7.379 -0.1577  0.0446 -0.1247
  756MOL0     C99673   8.451   1.673   7.314 -0.4724 -0.0046  0.4208
  756MOL0     C99674   8.369   1.797   7.369 -0.6333  0.1118 -0.4620
  756MOL0     C99675   8.434   1.942   7.351  0.5520  0.5545  0.1836
  756MOL0     C99676   8.421   1.987   7.207 -0.3947  0.8033 -0.2813
  756MOL0     N99677   8.445   2.121   7.188  0.2196  0.4569  0.0736
  756MOL0     C99678   8.545   2.189   7.248 -0.1844 -0.7683  0.5682
  756MOL0     C99679   8.536   2.312   7.188 -0.4457  0.3347  0.7854
  756MOL0     C99680   8.627   2.436   7.201  0.8967  0.3736 -0.4746
  756MOL0     C99681   8.781   2.412   7.231 -0.2119  0.2666  0.2624
  756MOL0     C99682   8.849   2.541   7.186  0.1465 -0.1602 -0.3255
  756MOL0     C99683   9.004   2.539   7.211  0.4076  0.6389  0.2752
  756MOL0     O99684   9.070   2.655   7.149 -0.2132 -0.1872 -0.2437
  756MOL0     C99685   9.206   2.647   7.133  0.0862  0.2735  0.2231
  756MOL0     C99686   9.267   2.735   7.046  0.0656 -0.0104  0.8877
  756MOL0     C99687   9.406   2.733   7.023 -0.9252  0.5981  0.1717
  756MOL0     C99688   9.494   2.637   7.085  0.5865  0.5564 -0.0147
  756MOL0     C99689   9.642   2.638   7.065 -0.5732 -0.5927  0.2556
  756MOL0     O99690   9.698   2.720   6.972  0.4761  0.6757 -0.0681
  756MOL0     C99691   9.832   2.712   6.949  0.3147  0.2115 -0.0014
  756MOL0     C99692   9.910   2.590   6.926 -0.8133  0.0400  0.2467
  756MOL0     C99693  10.039   2.605   6.862  0.8106 -0.0575  0.0429
  756MOL0     C99694  10.094   2.729   6.850  0.0163  0.0613 -0.3425
  756MOL0     O99695  10.231   2.731   6.812 -0.3743  0.1175 -0.3737
  756MOL0     C99696  10.275   2.836   6.728  0.5753 -0.2253 -0.0323
  756MOL0     C99697  10.397   2.806   6.644 -0.5119  0.2032  0.0014
  756MOL0     C99698  10.520   2.791   6.738 -0.6433  0.1526  0.7115
  756MOL0     C99699  10.633   2.729   6.662 -0.5627  0.3663  0.4037
  756MOL0     C99700  10.759   2.707   6.746 -0.5221 -0.0034  0.0206
  756MOL0     C99701  10.882   2.716   6.651 -0.1612  0.2306 -0.1254
  756MOL0     C99702  11.019   2.655   6.692 -0.4862 -0.3398 -0.9135
  756MOL0     C99703  11.002   2.518   6.756 -0.0795 -0.0534 -0.2145
  756MOL0    Cl99704  10.928   2.400   6.635 -0.3598  0.1897  0.1586
  756MOL0     C99705  10.017   2.843   6.878 -0.3141  1.0278  0.5183
  756MOL0     C99706   9.885   2.834   6.920 -0.1171 -0.4587 -0.4900
  756MOL0     O99707   9.701   2.547   7.122 -0.6772 -0.6304 -0.2662
  756MOL0     C99708   9.429   2.544   7.177 -0.2707  0.2429  0.2822
  756MOL0     C99709   9.286   2.554   7.203 -0.5223  0.3555 -0.3713
  756MOL0     N99710   8.421   2.316   7.111 -0.5970  0.1479  0.7837
  756MOL0     N99711   8.358   2.202   7.125 -1.2176 -0.2272  0.8152
  756MOL0     C99712   9.211   1.352   7.271  0.4337 -0.4104 -0.1305
  756MOL0     C99713   9.306   1.250   7.243  0.3019  0.9260 -0.1471
  756MOL0     C99714   9.570   0.909   7.136 -0.6240  0.6555 -0.3006
  756MOL0     C99715   9.671   0.910   7.036 -0.6315 -0.8000 -0.5739
  756MOL0     C99716   9.773   0.813   7.027 -0.3845  0.4634  0.7074
  756MOL0     C99717   9.780   0.706   7.121 -0.1580  0.1059  0.0945
  756MOL0     O99718   9.885   0.618   7.094  0.1732  0.0427 -0.2149
  756MOL0     C99719   9.877   0.495   7.159 -0.0812 -0.2108  0.4093
  756MOL0     C99720   9.967   0.395   7.091  0.1236  0.4714 -0.1049
  756MOL0     C99721   9.914   0.348   6.958  0.0315  0.3160 -0.1376
  756MOL0     C99722  10.017   0.257   6.894 -0.0760  0.5514  0.0782
  756MOL0     C99723  10.020   0.248   6.755 -0.2947 -0.5009  0.4924
  756MOL0     C99724  10.024   0.216   6.638  0.2469 -0.1242 -0.6924
  756MOL0     C99725   9.677   0.702   7.218 -0.6670  0.7955  0.6440
  756MOL0     C99726   9.579   0.800   7.229 -0.1653  0.7890  0.6891
  756MOL0     H99727   9.151   0.968   7.369  0.2230  0.4996  1.6281
  756MOL0     H99728   8.999   1.147   7.443  0.5423 -0.6540  2.0655
  756MOL0     H99729   8.838   1.300   7.407 -0.0048 -0.2842 -1.9905
  756MOL0     H99730   8.837   1.358   7.256 -2.5479  0.9492  0.2702
  756MOL0     H99731   8.847   1.600   7.348  2.7106 -1.4882  0.5163
  756MOL0     H99732   8.786   1.521   7.501 -1.0557 -0.9001  0.5415
  756MOL0     H99733   8.596   1.437   7.370 -1.9284  1.4935  1.2370
  756MOL0     H99734   8.665   1.521   7.233  1.5675  1.8648  0.4240
  756MOL0     H99735   8.555   1.655   7.485  0.0478  0.6688 -0.0562
  756MOL0     H99736   8.653   1.741   7.367  2.6016 -1.9349  0.6174
  756MOL0     H99737   8.385   1.588   7.334  1.0886 -1.3391  0.0862
  756MOL0     H99738   8.454   1.678   7.205 -2.3158 -0.9503  0.2880
  756MOL0     H99739   8.370   1.792   7.478  2.4953 -1.9960 -0.4607
  756MOL0     H99740   8.267   1.793   7.330  0.1060  0.9069 -2.5895
  756MOL0     H99741   8.379   2.015   7.411 -0.1764 -0.2621  0.5311
  756MOL0     H99742   8.540   1.936   7.378  1.1954  0.9404 -2.0985
  756MOL0     H99743   8.322   1.960   7.171 -1.1909  1.6292  1.1862
  756MOL0     H99744   8.496   1.926   7.155  0.3942  1.0592  0.5279
  756MOL0     H99745   8.618   2.171   7.326  0.2403  2.2809  1.0129
  756MOL0     H99746   8.584   2.498   7.280  1.3023  0.7326 -0.5289
  756MOL0     H99747   8.625   2.493   7.107  1.0436  1.7552  0.3398
  756MOL0     H99748   8.822   2.324   7.181  0.4858  0.9940 -0.4650
  756MOL0     H99749   8.801   2.382   7.334  0.7866  0.3415  0.0960
  756MOL0     H99750   8.829   2.562   7.081  0.1364 -0.1567 -0.3229
  756MOL0     H99751   8.811   2.632   7.233 -4.2601 -0.2239 -3.1926
  756MOL0     H99752   9.050   2.458   7.153 -1.0391  1.0836 -1.5784
  756MOL0     H99753   9.031   2.523   7.315 -0.3014 -1.1449  0.2194
  756MOL0     H99754   9.202   2.804   6.994 -2.4521 -2.8012  0.0617
  756MOL0     H99755   9.448   2.799   6.948 -1.0212  0.8974  0.3782
  756MOL0     H99756   9.863   2.493   6.917 -3.5123  1.0804  1.8049
  756MOL0     H99757  10.108   2.526   6.832 -0.5537 -1.0886 -0.4796
  756MOL0     H99758  10.292   2.927   6.786  1.6915 -0.0522 -0.5961
  756MOL0     H99759  10.189   2.859   6.664  1.7601  1.3214 -1.1494
  756MOL0     H99760  10.417   2.891   6.578  0.2800  0.7229  0.8748
  756MOL0     H99761  10.379   2.713   6.590  0.5182 -0.6125  1.0067
  756MOL0     H99762  10.487   2.729   6.823 -1.2908  2.7004  2.4392
  756MOL0     H99763  10.561   2.882   6.783  2.8063 -1.6914  1.7216
  756MOL0     H99764  10.601   2.632   6.621 -3.0961  1.0679  0.5824
  756MOL0     H99765  10.660   2.788   6.574  1.6863 -0.6608  0.3299
  756MOL0     H99766  10.758   2.607   6.792 -0.0735 -0.1826 -0.3577
  756MOL0     H99767  10.763   2.772   6.834  0.7417 -1.8631  1.4229
  756MOL0     H99768  10.900   2.822   6.630  0.2186  0.7588  2.5156
  756MOL0     H99769  10.858   2.672   6.554 -1.3394 -0.0986  0.2889
  756MOL0     H99770  11.072   2.627   6.601 -1.1725 -0.7046 -1.2056
  756MOL0     H99771  11.072   2.726   6.756  3.1026 -3.6670  0.1728
  756MOL0     H99772  10.938   2.515   6.845  0.6019 -1.1502  0.2615
  756MOL0     H99773  11.101   2.480   6.783 -0.0880  0.6233  0.8231
  756MOL0     H99774  10.063   2.940   6.864 -0.0253  0.9270  0.7526
  756MOL0     H99775   9.827   2.922   6.944 -1.3415 -1.2205 -0.5685
  756MOL0     H99776   9.491   2.467   7.220  1.4388  0.3391 -1.8240
  756MOL0     H99777   9.242   2.499   7.285 -0.8572  0.6245 -0.3666
  756MOL0     H99778   9.218   1.454   7.237 -0.3180 -0.4293 -0.3563
  756MOL0     H99779   9.393   1.282   7.187 -1.3721  1.1715 -2.7577
  756MOL0     H99780   9.679   1.001   6.977  3.1144  0.3661  1.4674
  756MOL0     H99781   9.843   0.818   6.944  0.0234  1.9512  1.1065
  756MOL0     H99782   9.773   0.463   7.146  0.3322 -1.0672 -1.0832
  756MOL0     H99783   9.899   0.495   7.266  0.0405 -2.1610  0.4224
  756MOL0     H99784  10.074   0.417   7.089  0.2066  0.0489 -1.3775
  756MOL0     H99785   9.969   0.309   7.159  2.4159 -0.3723 -1.1281
  756MOL0     H99786   9.920   0.441   6.900  1.7506  1.0856  1.1764
  756MOL0     H99787   9.814   0.307   6.969  0.1819  0.2862  1.3963
  756MOL0     H99788  10.119   0.268   6.933 -0.0310  4.5689 -0.7100
  756MOL0     H99789   9.982   0.158   6.923 -0.4509  0.3533 -1.0412
  756MOL0     H99790  10.037   0.180   6.538 -1.8074 -0.8195 -0.7562
  756MOL0     H99791   9.666   0.617   7.285 -2.4146  0.0420 -0.5233
  756MOL0     H99792   9.499   0.780   7.299 -2.6856  1.1611 -1.9002
  757MOL0     O99793   9.804   2.884   3.105 -0.2067 -0.8266  0.6451
  757MOL0     C99794   9.864   2.847   3.005 -0.9591  0.8044  0.4089
  757MOL0     O99795   9.811   2.804   2.897  0.4630 -0.2095  0.5785
  757MOL0     C99796   9.678   2.844   2.880  0.7998  0.1529 -0.7926
  757MOL0     C99797   9.636   2.977   2.850  0.2303  0.6248 -0.0689
  757MOL0     C99798   9.502   3.004   2.844 -0.3105 -0.1127 -0.2652
  757MOL0     C99799   9.405   2.909   2.883  0.8289 -0.4504  0.4208
  757MOL0     O99800   9.283   2.954   2.899  0.2447 -0.7302  0.2608
  757MOL0     C99801   9.187   2.878   2.965  0.1326 -0.1915  0.2474
  757MOL0     C99802   9.056   2.943   2.971 -0.1089 -0.7444  0.1135
  757MOL0     C99803   8.956   2.847   3.039 -0.1545  0.6532 -0.0634
  757MOL0     C99804   8.815   2.905   3.075  0.7060 -0.1476 -0.0334
  757MOL0     C99805   8.728   2.799   3.136 -0.1553  0.9547 -1.2196
  757MOL0     C99806   8.582   2.831   3.132  0.1016 -0.6369  0.7846
  757MOL0     C99807   8.522   2.847   2.989  0.8748  0.3123 -0.4146
  757MOL0     C99808   8.372   2.812   2.980  0.3022  0.3914 -0.5502
  757MOL0     N99809   8.279   2.906   3.038 -0.3621 -0.6486  0.2703
  757MOL0     C99810   8.145   2.912   2.995 -0.4304 -0.0696 -1.3005
  757MOL0     C99811   8.093   3.019   3.060 -0.4082  0.0284  0.1783
  757MOL0     C99812   7.948   3.065   3.045 -0.1443  0.2410 -0.1543
  757MOL0     C99813   7.862   3.047   3.185 -0.7591 -0.4282 -0.0225
  757MOL0     C99814   7.716   3.064   3.152 -0.2637  0.0880  0.5445
  757MOL0     C99815   7.631   3.026   3.269 -0.0171 -0.1088  0.2884
  757MOL0     O99816   7.508   2.981   3.204 -0.4353 -0.4326 -0.4823
  757MOL0     C99817   7.395   2.978   3.277  0.1976  0.3827  0.1515
  757MOL0     C99818   7.272   2.984   3.212  0.1541 -0.1247 -0.1609
  757MOL0     C99819   7.156   2.981   3.285  0.3493  0.4562 -0.2753
  757MOL0     C99820   7.146   2.976   3.426 -0.0020  0.3742  0.2332
  757MOL0     C99821   7.014   2.964   3.502  0.1435  0.6846 -0.0975
  757MOL0     O99822   6.893   2.935   3.434 -0.3869  0.2784 -0.0146
  757MOL0     C99823   6.770   2.933   3.481  0.0883  0.7024 -0.3723
  757MOL0     C99824   6.669   2.857   3.415 -0.4034 -0.1718 -0.0919
  757MOL0     C99825   6.532   2.868   3.460 -0.5601 -0.2013  0.6435
  757MOL0     C99826   6.492   2.932   3.578 -1.0406  0.5828 -1.1117
  757MOL0     O99827   6.361   2.919   3.621 -0.1298  0.1250 -0.4303
  757MOL0     C99828   6.334   2.969   3.755 -0.9227 -0.4617 -1.1670
  757MOL0     C99829   6.179   2.989   3.783  1.4183 -1.1550 -0.5848
  757MOL0     C99830   6.122   3.117   3.709 -0.2137  0.9329  0.4224
  757MOL0     C99831   5.970   3.127   3.727 -0.7168 -0.4345  0.3605
  757MOL0     C99832   5.916   3.252   3.662  0.5348 -0.5620  0.6937
  757MOL0     C99833   5.765   3.272   3.677 -0.1680 -1.0381  0.0458
  757MOL0     C99834   5.724   3.421   3.630  0.2942 -0.0948 -0.2054
  757MOL0     C99835   5.763   3.456   3.489  0.2397 -0.2019 -0.2217
  757MOL0    Cl99836   5.684   3.348   3.366 -0.0540 -0.1779  0.3396
  757MOL0     C99837   6.599   3.010   3.639 -0.2988 -0.0294  0.0216
  757MOL0     C99838   6.730   3.014   3.588  0.0198  0.8721  0.2611
  757MOL0     O99839   7.028   2.979   3.628 -0.2052  0.0972  0.5169
  757MOL0     C99840   7.275   2.980   3.489  0.2372  0.4577 -0.3217
  757MOL0     C99841   7.396   2.985   3.418  0.2848  0.0593  0.5367
  757MOL0     N99842   8.197   3.088   3.122  0.7593  0.5275  0.0999
  757MOL0     N99843   8.307   3.014   3.109 -0.2749 -0.7481  0.1559
  757MOL0     C99844   9.441   2.767   2.897  0.4093  0.7655 -0.8450
  757MOL0     C99845   9.581   2.746   2.903 -0.5573 -0.1224  0.5174
  757MOL0     C99846  10.014   2.859   2.997 -0.0237 -0.1826 -0.1525
  757MOL0     C99847  10.091   2.841   2.878  0.3781  0.7516  0.0269
  757MOL0     C99848  10.229   2.866   2.882 -0.3670  0.6195  0.7700
  757MOL0     C99849  10.292   2.902   2.996 -0.2516 -0.6861 -0.0182
  757MOL0     O99850  10.429   2.920   2.992  0.6342  0.8283  0.0290
  757MOL0     C99851  10.500   2.851   3.100 -0.1943 -0.1245  1.2716
  757MOL0     C99852  10.576   2.726   3.033  0.3366 -0.2280 -0.0775
  757MOL0     C99853  10.471   2.614   3.002  0.4275  1.1604 -0.4388
  757MOL0     C99854  10.513   2.477   3.068  0.1302 -0.4198  0.6831
  757MOL0     C99855  10.442   2.356   3.008  0.9021  0.0551  0.5883
  757MOL0     C99856  10.373   2.273   2.952  0.4170 -1.0092  0.0007
  757MOL0     C99857  10.216   2.934   3.110  0.1470 -0.8223  0.5021
  757MOL0     C99858  10.080   2.904   3.109  0.2915  0.5622  0.6888
  757MOL0     H99859   9.708   3.058   2.835 -1.2621  1.6014 -2.5500
  757MOL0     H99860   9.478   3.097   2.795 -2.7253 -0.1297  0.7411
  757MOL0     H99861   9.219   2.863   3.068  1.3711  1.7480  0.1941
  757MOL0     H99862   9.168   2.784   2.911 -1.6454  1.0178 -1.3943
  757MOL0     H99863   9.024   2.986   2.876 -0.1100  0.3410  0.5840
  757MOL0     H99864   9.070   3.037   3.026 -0.4200  2.3582 -4.5435
  757MOL0     H99865   9.003   2.814   3.133  0.7141  1.9103 -0.0303
  757MOL0     H99866   8.945   2.761   2.972  1.2387  1.2821 -1.1838
  757MOL0     H99867   8.823   2.986   3.147 -1.1331  0.2894 -0.2746
  757MOL0     H99868   8.758   2.949   2.992  0.6530  0.8754  0.5343
  757MOL0     H99869   8.741   2.789   3.244 -1.0037  1.0740 -1.1032
  757MOL0     H99870   8.745   2.696   3.104 -2.5666 -0.7186  2.3190
  757MOL0     H99871   8.563   2.931   3.170 -2.7709 -1.3849  1.5136
  757MOL0     H99872   8.529   2.763   3.199  0.6139 -0.6791  1.1538
  757MOL0     H99873   8.529   2.945   2.941 -3.1246  1.0608  0.1569
  757MOL0     H99874   8.578   2.780   2.923 -1.2841 -1.2528 -0.7491
  757MOL0     H99875   8.368   2.712   3.024 -1.5070  1.3100  1.5428
  757MOL0     H99876   8.348   2.784   2.877  0.2378 -0.0567 -0.4192
  757MOL0     H99877   8.087   2.842   2.934  0.0624  0.7830 -2.7924
  757MOL0     H99878   7.906   3.009   2.961 -2.7900  1.7707  0.0444
  757MOL0     H99879   7.940   3.168   3.011  3.4158  0.7680  0.2798
  757MOL0     H99880   7.894   3.119   3.261 -2.0455  0.8761 -0.6667
  757MOL0     H99881   7.887   2.950   3.231  0.2272  0.4125  1.2930
  757MOL0     H99882   7.690   3.167   3.126  0.0513 -0.4027 -1.9114
  757MOL0     H99883   7.691   3.000   3.067  0.7225  2.2539 -1.4646
  757MOL0     H99884   7.618   3.112   3.336 -2.5068 -1.0835  1.1503
  757MOL0     H99885   7.677   2.945   3.327  0.1312 -1.0795 -1.1348
  757MOL0     H99886   7.266   2.983   3.104  0.9001 -0.5165 -0.2108
  757MOL0     H99887   7.063   2.958   3.235  0.4745 -0.2458 -0.1971
  757MOL0     H99888   6.691   2.794   3.329  0.9192 -1.7148  1.3000
  757MOL0     H99889   6.456   2.831   3.393  2.0935  0.2955 -2.9408
  757MOL0     H99890   6.380   3.068   3.752  0.1451 -0.9760 -1.9278
  757MOL0     H99891   6.380   2.913   3.837 -0.5845  2.4026  0.7609
  757MOL0     H99892   6.168   3.004   3.891  1.3659 -0.9679 -0.6159
  757MOL0     H99893   6.129   2.898   3.749  0.6686 -1.5957  1.4969
  757MOL0     H99894   6.134   3.100   3.601  1.2353  2.5015  0.2937
  757MOL0     H99895   6.180   3.209   3.723  3.3459 -1.0253 -0.2829
  757MOL0     H99896   5.918   3.039   3.687 -1.9638  0.7036 -0.6101
  757MOL0     H99897   5.946   3.128   3.834 -1.9522 -2.1421  0.1522
  757MOL0     H99898   5.938   3.229   3.557  1.1160  0.0827  0.6673
  757MOL0     H99899   5.982   3.337   3.683 -1.2166  1.3794 -1.1748
  757MOL0     H99900   5.725   3.259   3.778  0.0660 -1.5990  0.0698
  757MOL0     H99901   5.705   3.193   3.630  1.2682 -3.1828  1.6051
  757MOL0     H99902   5.614   3.424   3.636  0.1390  0.0261 -2.4301
  757MOL0     H99903   5.763   3.491   3.705  2.9877 -1.3063 -0.3787
  757MOL0     H99904   5.873   3.453   3.489  0.3441  1.7184 -1.1982
  757MOL0     H99905   5.727   3.555   3.461 -2.8167 -0.3226  2.6825
  757MOL0     H99906   6.593   3.072   3.728 -1.4734  0.4830 -0.3910
  757MOL0     H99907   6.802   3.080   3.634  0.6682 -0.5262  1.3536
  757MOL0     H99908   7.275   2.974   3.597  0.9143 -0.3385 -0.3568
  757MOL0     H99909   7.484   3.006   3.477 -0.9926  3.5794  1.4993
  757MOL0     H99910   9.380   2.678   2.907 -0.2542  0.9503 -2.7815
  757MOL0     H99911   9.617   2.645   2.918  1.6189  0.2136 -1.6611
  757MOL0     H99912  10.063   2.803   2.781  0.7824 -0.7203  0.4682
  757MOL0     H99913  10.282   2.838   2.791 -3.0143  0.2342 -0.7608
  757MOL0     H99914  10.443   2.815   3.187 -2.1219 -0.8575 -0.2266
  757MOL0     H99915  10.577   2.918   3.139 -1.2002 -0.5505  4.2550
  757MOL0     H99916  10.642   2.754   2.951  0.6117  0.4108  0.3574
  757MOL0     H99917  10.647   2.692   3.109  1.4916 -1.7703 -1.7621
  757MOL0     H99918  10.480   2.610   2.893  1.5574  2.8445 -0.4486
  757MOL0     H99919  10.365   2.634   3.024 -0.1258  0.2923 -2.1337
  757MOL0     H99920  10.621   2.459   3.064 -0.1536 -2.1445 -1.3284
  757MOL0     H99921  10.479   2.474   3.172  0.8224  0.7025  0.9532
  757MOL0     H99922  10.304   2.198   2.918  3.2476 -3.6848 -0.2433
  757MOL0     H99923  10.264   2.965   3.202  0.0761  0.6593  0.0603
  757MOL0     H99924  10.015   2.924   3.194  0.2115  2.8054  0.1610
  758MOL0     O99925   5.181   0.948   1.205  0.1584  0.0810 -1.0488
  758MOL0     C99926   5.175   0.993   1.092  0.0512 -0.4674  0.8268
  758MOL0     O99927   5.068   0.989   1.007 -0.6124 -0.2405  0.3633
  758MOL0     C99928   4.943   0.969   1.060 -0.1495  1.1456  0.2707
  758MOL0     C99929   4.898   1.060   1.159 -0.0772 -0.0291  0.1128
  758MOL0     C99930   4.775   1.040   1.218  0.4213 -0.1087  0.6743
  758MOL0     C99931   4.695   0.928   1.184 -0.2337  0.2556 -1.3853
  758MOL0     O99932   4.568   0.922   1.242 -0.1221 -0.2091  0.1057
  758MOL0     C99933   4.466   0.833   1.201  0.3627  0.2274  0.2376
  758MOL0     C99934   4.331   0.886   1.249  0.9961  0.1297 -0.2936
  758MOL0     C99935   4.213   0.810   1.188 -0.0818  0.5481 -0.7999
  758MOL0     C99936   4.082   0.859   1.244  0.0152  0.3858  0.7182
  758MOL0     C99937   3.959   0.834   1.156 -0.3310  0.7637 -0.0562
  758MOL0     C99938   3.957   0.923   1.029  0.2579 -0.2978  0.3387
  758MOL0     C99939   3.830   0.906   0.935  0.2615 -0.1355  1.0725
  758MOL0     C99940   3.847   0.948   0.786  0.9702  0.2760 -0.1917
  758MOL0     N99941   3.728   0.913   0.698 -0.2571  0.2355  0.6528
  758MOL0     C99942   3.597   0.932   0.729  0.8245  0.1795 -0.8869
  758MOL0     C99943   3.529   0.855   0.639  0.2063 -0.7911  0.8815
  758MOL0     C99944   3.372   0.831   0.611 -0.1594  0.6148 -0.1989
  758MOL0     C99945   3.325   0.713   0.682  0.5936  0.2407 -0.2909
  758MOL0     C99946   3.181   0.661   0.640 -1.2012  0.1920 -0.0081
  758MOL0     C99947   3.167   0.523   0.696  0.2249 -0.0896  0.1401
  758MOL0     O99948   3.126   0.536   0.834  0.4044 -0.2273  0.9723
  758MOL0     C99949   3.001   0.580   0.879  0.0661 -0.1801  0.3944
  758MOL0     C99950   2.999   0.639   1.015  0.8624  0.3588 -0.1925
  758MOL0     C99951   2.881   0.703   1.062  0.3667 -0.1425  0.2288
  758MOL0     C99952   2.763   0.689   0.981 -0.2482 -0.1327 -0.1103
  758MOL0     C99953   2.636   0.753   1.028 -0.4037 -0.0796  0.9535
  758MOL0     O99954   2.521   0.719   0.959 -0.6946  0.2262  0.3937
  758MOL0     C99955   2.401   0.776   0.987  0.1728  0.0395  0.2894
  758MOL0     C99956   2.324   0.796   0.873  0.2874 -0.6982 -0.4892
  758MOL0     C99957   2.194   0.852   0.888  0.5157 -0.2043 -0.4073
  758MOL0     C99958   2.142   0.885   1.010  0.2129  0.1088  0.1168
  758MOL0     O99959   2.016   0.937   1.036  0.0856 -0.0881 -0.7800
  758MOL0     C99960   1.960   1.024   0.937  0.7542 -0.4401 -0.0166
  758MOL0     C99961   1.853   0.948   0.865  0.0793 -0.3321  0.2392
  758MOL0     C99962   1.722   0.958   0.940  0.5545 -0.7905 -0.2274
  758MOL0     C99963   1.657   1.096   0.957 -0.1796  0.4708 -0.0883
  758MOL0     C99964   1.511   1.058   0.990 -0.1972  0.2068  0.0938
  758MOL0     C99965   1.451   1.181   1.058 -0.0033  0.4128 -0.8448
  758MOL0     C99966   1.298   1.165   1.074  0.1753 -0.2001  0.4944
  758MOL0     C99967   1.221   1.279   1.148 -0.0334 -0.1544  0.1510
  758MOL0    Cl99968   1.056   1.229   1.161  0.1635  0.3565  0.0051
  758MOL0     C99969   2.221   0.854   1.121  0.1254 -0.2874  0.1511
  758MOL0     C99970   2.348   0.803   1.114 -0.4043  0.3542 -0.3220
  758MOL0     O99971   2.646   0.828   1.127 -0.3205 -0.4291  0.2397
  758MOL0     C99972   2.765   0.619   0.857  0.2153  0.4360  0.8403
  758MOL0     C99973   2.882   0.571   0.800 -0.1889  0.0454 -0.0055
  758MOL0     N99974   3.618   0.778   0.564  0.7207  0.4335  0.1892
  758MOL0     N99975   3.737   0.827   0.590  0.0884 -0.8244 -0.3373
  758MOL0     C99976   4.740   0.835   1.098 -1.0517 -0.1732 -0.1281
  758MOL0     C99977   4.863   0.852   1.030  0.3906 -0.7731  0.4646
  758MOL0     C99978   5.298   1.056   1.043 -0.5516 -0.8541  0.0465
  758MOL0     C99979   5.389   1.108   1.129  0.0652  1.1285 -0.2792
  758MOL0     C99980   5.500   1.181   1.087 -0.8406 -0.0098  0.1104
  758MOL0     C99981   5.537   1.183   0.954 -0.3356 -0.7925  0.2294
  758MOL0     O99982   5.655   1.250   0.917  0.0488  0.1797  0.4075
  758MOL0     C99983   5.706   1.250   0.777 -0.0824 -0.6330  0.5143
  758MOL0     C99984   5.837   1.335   0.787 -0.2537 -0.0203  0.1254
  758MOL0     C99985   5.950   1.265   0.863 -0.6008  0.0370  0.8311
  758MOL0     C99986   6.089   1.340   0.838 -0.3412 -0.5876 -0.2174
  758MOL0     C99987   6.137   1.344   0.700  0.4979  0.4069 -0.7629
  758MOL0     C99988   6.163   1.374   0.587  0.3447 -0.3008 -0.7452
  758MOL0     C99989   5.447   1.135   0.862  0.5568  0.2046 -0.1900
  758MOL0     C99990   5.328   1.072   0.904  0.2010  0.7942 -0.3312
  758MOL0     H99991   4.962   1.141   1.193  2.1240 -1.7777  0.3792
  758MOL0     H99992   4.733   1.112   1.287 -0.9504  1.8461 -2.0189
  758MOL0     H99993   4.475   0.728   1.229 -1.1175 -0.1243 -0.5228
  758MOL0     H99994   4.470   0.831   1.092  1.3605 -3.6632  0.1978
  758MOL0     H99995   4.321   0.992   1.221  3.0905  0.5107  0.1940
  758MOL0     H99996   4.333   0.882   1.358  2.4915 -0.7293 -0.3339
  758MOL0     H99997   4.211   0.704   1.216 -0.1071  0.5185 -0.9120
  758MOL0     H99998   4.227   0.822   1.080  2.1689  0.9610 -0.5202
  758MOL0     H99999   4.059   0.809   1.339  1.0117  0.2235  0.8816
  758MOL0     H    0   4.093   0.967   1.256 -1.5290  0.6545 -0.0566
  758MOL0     H    1   3.867   0.848   1.213  0.2450  2.5105  0.4847
  758MOL0     H    2   3.959   0.729   1.122 -2.3644  0.3715  1.0057
  758MOL0     H    3   4.032   0.903   0.951 -1.7064  1.0514 -2.0463
  758MOL0     H    4   3.976   1.028   1.053  1.7578 -0.8130  1.5590
  758MOL0     H    5   3.797   0.803   0.945 -0.0834 -0.1094  0.2412
  758MOL0     H    6   3.744   0.957   0.980 -1.3413 -1.1440 -0.7339
  758MOL0     H    7   3.935   0.910   0.732  1.4520  4.5473 -2.8701
  758MOL0     H    8   3.871   1.054   0.775 -0.3727  0.9010  2.3024
  758MOL0     H    9   3.569   1.012   0.796  0.7867  0.5132 -1.2928
  758MOL0     H   10   3.362   0.818   0.503  1.5533 -3.8878 -0.0588
  758MOL0     H   11   3.316   0.918   0.646 -0.1792  1.2306 -1.6962
  758MOL0     H   12   3.325   0.704   0.791  0.4785 -4.3514 -0.4801
  758MOL0     H   13   3.395   0.640   0.640 -2.2231 -2.5364 -0.5874
  758MOL0     H   14   3.108   0.732   0.680 -0.3833 -0.0112  1.9650
  758MOL0     H   15   3.170   0.659   0.532 -2.8985  2.6930  0.0487
  758MOL0     H   16   3.257   0.462   0.688 -0.7855 -1.3278 -3.4512
  758MOL0     H   17   3.091   0.473   0.636  1.5501 -0.8459 -0.9566
  758MOL0     H   18   3.094   0.644   1.068  0.2419 -0.5854  1.0479
  758MOL0     H   19   2.885   0.753   1.158 -2.1932  2.8443 -1.0863
  758MOL0     H   20   2.354   0.775   0.771  0.9117 -1.0701 -0.2325
  758MOL0     H   21   2.131   0.881   0.805 -0.1236  0.0277  0.1509
  758MOL0     H   22   2.034   1.068   0.871 -0.2897 -0.8278 -1.5046
  758MOL0     H   23   1.912   1.109   0.988  2.0896  0.6275 -0.4973
  758MOL0     H   24   1.884   0.843   0.865 -1.0172 -0.7951 -3.6261
  758MOL0     H   25   1.839   0.982   0.762  1.2314  0.7333  0.4051
  758MOL0     H   26   1.732   0.907   1.036 -0.1634 -0.6295 -0.0599
  758MOL0     H   27   1.654   0.901   0.876  0.7332 -3.1731  1.5816
  758MOL0     H   28   1.700   1.150   1.042 -0.0588  1.9150 -1.0268
  758MOL0     H   29   1.659   1.158   0.866 -0.7633 -1.8464 -1.7708
  758MOL0     H   30   1.500   0.965   1.045  0.2470 -1.5288 -2.5775
  758MOL0     H   31   1.460   1.027   0.898 -1.5400 -0.1236  0.9142
  758MOL0     H   32   1.474   1.269   0.997 -0.1940 -0.8226 -2.7837
  758MOL0     H   33   1.489   1.188   1.160 -2.7633 -2.1426  0.5138
  758MOL0     H   34   1.257   1.146   0.975  1.8578  1.7857 -0.6785
  758MOL0     H   35   1.284   1.069   1.124 -0.4824 -0.1189  0.4645
  758MOL0     H   36   1.228   1.372   1.091  3.5150 -0.9882 -1.0041
  758MOL0     H   37   1.270   1.299   1.244 -1.7561 -0.5816  1.1725
  758MOL0     H   38   2.184   0.899   1.212 -1.1762 -0.1932 -0.3939
  758MOL0     H   39   2.394   0.790   1.211 -0.8458  1.9293  0.1378
  758MOL0     H   40   2.676   0.616   0.795  2.0246  0.2642 -1.9141
  758MOL0     H   41   2.882   0.523   0.702 -2.0015 -0.9245  0.4127
  758MOL0     H   42   4.678   0.747   1.083 -2.0836  0.1294  1.9956
  758MOL0     H   43   4.902   0.784   0.955  0.2330  1.6768 -1.9696
  758MOL0     H   44   5.366   1.105   1.235 -0.3404 -1.7299 -0.3739
  758MOL0     H   45   5.559   1.232   1.161 -0.1248 -1.6790  0.7494
  758MOL0     H   46   5.635   1.291   0.705  0.4113 -2.2130 -0.9353
  758MOL0     H   47   5.721   1.149   0.737 -3.2118 -0.2349 -2.0240
  758MOL0     H   48   5.880   1.353   0.688 -1.9281 -2.0217 -1.0308
  758MOL0     H   49   5.821   1.437   0.824  1.7984  0.2425  0.4109
  758MOL0     H   50   5.957   1.165   0.820 -0.0563  0.7694 -0.8782
  758MOL0     H   51   5.931   1.254   0.970  2.0401 -4.6699  1.0760
  758MOL0     H   52   6.087   1.448   0.856 -0.0676 -0.7335  0.7318
  758MOL0     H   53   6.167   1.314   0.909  0.9542 -1.1067 -1.7709
  758MOL0     H   54   6.208   1.401   0.493 -0.3965  1.0466 -0.7359
  758MOL0     H   55   5.464   1.138   0.755  2.0406  0.9929  0.0433
  758MOL0     H   56   5.278   1.024   0.821 -0.4534 -1.4764  1.2819
  759MOL0     O   57   0.524   8.086   9.696  0.4847  0.4863 -0.2880
  759MOL0     C   58   0.568   8.119   9.585 -0.1792  0.6322  0.2224
  759MOL0     O   59   0.494   8.177   9.487 -0.2953 -0.4834  0.1055
  759MOL0     C   60   0.365   8.214   9.519  0.3378 -0.0713  0.6936
  759MOL0     C   61   0.332   8.345   9.545 -0.1599 -0.1373 -0.4867
  759MOL0     C   62   0.202   8.380   9.589 -0.0600  0.4310  0.4104
  759MOL0     C   63   0.100   8.283   9.584  0.0472 -0.2165  0.2757
  759MOL0     O   64  -0.021   8.313   9.645 -0.3402 -0.8678 -0.0786
  759MOL0     C   65  -0.138   8.264   9.593 -0.7663 -0.0763  0.3163
  759MOL0     C   66  -0.194   8.372   9.496 -0.5630  0.3927  0.0823
  759MOL0     C   67  -0.255   8.484   9.575 -0.9334 -1.0346  0.6405
  759MOL0     C   68  -0.293   8.604   9.485  1.3283  0.1920 -0.2832
  759MOL0     C   69  -0.352   8.722   9.558 -0.5589  0.2309 -0.2808
  759MOL0     C   70  -0.237   8.784   9.654 -0.3744  0.3656 -0.1083
  759MOL0     C   71  -0.278   8.920   9.719 -0.0105  0.4327  0.4602
  759MOL0     C   72  -0.401   8.907   9.806  0.0346 -0.4123 -1.0295
  759MOL0     N   73  -0.532   8.882   9.740 -0.3627  0.1018  0.0654
  759MOL0     C   74  -0.570   8.951   9.628  0.2172  0.8419  0.1848
  759MOL0     C   75  -0.682   8.887   9.578  0.2734 -0.5600 -0.5061
  759MOL0     C   76  -0.764   8.945   9.468  0.2428  0.1976 -0.2057
  759MOL0     C   77  -0.745   8.871   9.335 -0.6046 -0.1349  0.0347
  759MOL0     C   78  -0.825   8.943   9.223 -0.0214 -0.4434 -0.5192
  759MOL0     C   79  -0.972   8.887   9.212 -0.9322 -0.4775  0.8552
  759MOL0     O   80  -1.058   8.898   9.328  0.2250  0.3900 -0.6474
  759MOL0     C   81  -1.194   8.919   9.317  0.6805  0.8047  1.0219
  759MOL0     C   82  -1.259   8.902   9.191  0.5107 -0.4019  0.2187
  759MOL0     C   83  -1.392   8.949   9.178  0.1309 -0.3435 -0.0218
  759MOL0     C   84  -1.464   9.000   9.283 -0.8881 -0.0740  0.5102
  759MOL0     C   85  -1.611   9.014   9.251 -0.5152  0.0684 -0.1635
  759MOL0     O   86  -1.663   8.971   9.133 -0.1920  0.2066  0.0060
  759MOL0     C   87  -1.791   8.980   9.122  0.9481 -0.5670  0.7506
  759MOL0     C   88  -1.879   8.892   9.183 -0.5220 -0.2698 -0.7057
  759MOL0     C   89  -2.015   8.899   9.162  0.3923 -0.2909 -0.6691
  759MOL0     C   90  -2.067   9.001   9.081 -0.7482  0.8489 -0.1085
  759MOL0     O   91  -2.204   9.027   9.057 -0.6122  0.1826 -0.1536
  759MOL0     C   92  -2.295   8.972   9.152  0.9538  0.1795 -0.0261
  759MOL0     C   93  -2.447   8.981   9.112  0.7987  0.0906  0.1897
  759MOL0     C   94  -2.539   8.897   9.203 -0.9311  0.0991 -0.0332
  759MOL0     C   95  -2.681   8.925   9.155 -0.1762  0.6273 -0.1915
  759MOL0     C   96  -2.780   8.841   9.232  0.8622 -0.2285  0.2308
  759MOL0     C   97  -2.900   8.787   9.146  0.5735  0.2156  0.4596
  759MOL0     C   98  -2.999   8.894   9.096  0.1892 -0.2972  0.7492
  759MOL0     C   99  -3.132   8.829   9.046 -0.2398  0.0354 -0.6248
  759MOL0    Cl  100  -3.234   8.957   8.952  0.1486  0.0680 -0.1551
  759MOL0     C  101  -1.979   9.085   9.020  0.0420 -0.6811  0.2309
  759MOL0     C  102  -1.844   9.083   9.044  0.0194  0.1763 -0.0664
  759MOL0     O  103  -1.673   9.056   9.346 -0.4068 -0.8089 -0.3520
  759MOL0     C  104  -1.401   9.018   9.405  0.1769  0.0197  0.2969
  759MOL0     C  105  -1.269   8.973   9.427 -0.4867  0.1428  0.1643
  759MOL0     N  106  -0.718   8.791   9.671  0.1373 -0.6481  0.0742
  759MOL0     N  107  -0.624   8.787   9.761  0.0811 -0.3018 -0.5240
  759MOL0     C  108   0.130   8.154   9.540 -0.7415  0.0382  0.1409
  759MOL0     C  109   0.259   8.115   9.507  0.2863 -0.7658  0.2917
  759MOL0     C  110   0.706   8.086   9.555  0.3866 -0.4240  0.2639
  759MOL0     C  111   0.804   8.055   9.659 -0.2122  0.3467  0.3468
  759MOL0     C  112   0.940   8.043   9.631  0.4331  0.8797  0.2451
  759MOL0     C  113   0.979   8.038   9.501 -0.1301  0.0870 -0.4768
  759MOL0     O  114   1.118   8.022   9.479  0.2614  0.6221  0.2988
  759MOL0     C  115   1.167   8.025   9.343 -0.5525  0.5097  0.6369
  759MOL0     C  116   1.315   8.057   9.340 -0.3041 -0.6197 -0.3648
  759MOL0     C  117   1.340   8.208   9.326  0.7292  0.2227 -0.3801
  759MOL0     C  118   1.482   8.244   9.294 -1.5130  0.0025  0.2114
  759MOL0     C  119   1.500   8.388   9.271  0.4930 -0.9818  0.2851
  759MOL0     C  120   1.502   8.505   9.236 -0.5462 -0.2144 -0.8615
  759MOL0     C  121   0.888   8.056   9.400  1.2526 -0.3011 -0.1324
  759MOL0     C  122   0.758   8.093   9.426  0.7346  0.4545  0.3207
  759MOL0     H  123   0.403   8.427   9.541  0.8456 -0.7923  2.1908
  759MOL0     H  124   0.173   8.474   9.635 -0.5833  0.7185 -0.4809
  759MOL0     H  125  -0.202   8.230   9.676 -0.6199  0.7015  0.7562
  759MOL0     H  126  -0.121   8.175   9.532  0.3237  1.2952 -1.4638
  759MOL0     H  127  -0.282   8.333   9.444 -2.6864  4.2087  0.4809
  759MOL0     H  128  -0.123   8.404   9.420 -3.2893 -0.9985 -3.3009
  759MOL0     H  129  -0.189   8.519   9.655  1.3728 -1.1244 -1.1128
  759MOL0     H  130  -0.338   8.437   9.628 -0.8220 -2.3385 -0.2886
  759MOL0     H  131  -0.213   8.643   9.422  1.7592  1.3364  0.9215
  759MOL0     H  132  -0.369   8.569   9.414 -1.9856  3.0006  1.5785
  759MOL0     H  133  -0.436   8.678   9.614 -1.2625  0.6735 -0.9652
  759MOL0     H  134  -0.388   8.801   9.492  0.1745  1.2354  0.5062
  759MOL0     H  135  -0.145   8.802   9.598  0.7515 -1.8502  0.9045
  759MOL0     H  136  -0.202   8.714   9.730 -0.1076 -0.3505 -0.8720
  759MOL0     H  137  -0.194   8.958   9.779  1.5245 -1.4538 -0.3725
  759MOL0     H  138  -0.280   8.984   9.631 -1.3096  0.2950  0.3716
  759MOL0     H  139  -0.406   9.000   9.863  1.9670 -0.8854  0.0027
  759MOL0     H  140  -0.384   8.838   9.889 -0.0007 -0.7934 -1.3342
  759MOL0     H  141  -0.525   9.037   9.579 -0.7558  2.4155  1.9182
  759MOL0     H  142  -0.739   9.051   9.459  2.2845 -0.1436  0.7589
  759MOL0     H  143  -0.867   8.935   9.502 -0.1081  3.2512 -0.1181
  759MOL0     H  144  -0.767   8.767   9.357 -0.7968  0.4140  2.8122
  759MOL0     H  145  -0.638   8.881   9.313 -0.3507 -1.5530  0.5224
  759MOL0     H  146  -0.833   9.052   9.220 -2.7309 -0.5863 -3.0556
  759MOL0     H  147  -0.768   8.914   9.135  0.5093 -2.0592  0.3075
  759MOL0     H  148  -0.954   8.780   9.202 -0.1277 -0.2877  0.0976
  759MOL0     H  149  -1.025   8.929   9.125 -0.9987  2.6935  2.2972
  759MOL0     H  150  -1.209   8.856   9.107  2.6463  3.1618 -0.6780
  759MOL0     H  151  -1.444   8.943   9.083  3.4672  1.0221 -2.0873
  759MOL0     H  152  -1.851   8.804   9.241  0.1146 -0.0831 -0.7345
  759MOL0     H  153  -2.074   8.825   9.215  1.9334 -1.3950 -0.4084
  759MOL0     H  154  -2.282   9.026   9.246  1.0240  2.4831 -1.2789
  759MOL0     H  155  -2.265   8.867   9.155  2.2064  0.5376  0.3786
  759MOL0     H  156  -2.453   8.943   9.010  1.9048 -0.7795  0.4320
  759MOL0     H  157  -2.471   9.088   9.116 -4.0282 -0.7517  1.2377
  759MOL0     H  158  -2.526   8.945   9.300 -1.7845 -0.8960  0.5916
  759MOL0     H  159  -2.511   8.792   9.209 -0.2929  0.2748  0.1046
  759MOL0     H  160  -2.709   9.030   9.164 -0.7452  0.4293  0.4236
  759MOL0     H  161  -2.689   8.900   9.048  0.9320 -0.1381 -0.1116
  759MOL0     H  162  -2.818   8.889   9.323 -0.3937 -2.2748  0.8561
  759MOL0     H  163  -2.735   8.746   9.262  2.0152 -0.0251 -0.7655
  759MOL0     H  164  -2.968   8.721   9.200 -0.5353 -0.1628 -1.3021
  759MOL0     H  165  -2.870   8.722   9.063 -0.0674  3.4805 -2.6040
  759MOL0     H  166  -3.034   8.963   9.174 -2.0266  0.5795 -0.9220
  759MOL0     H  167  -2.949   8.942   9.012  1.2815 -0.0556  1.5168
  759MOL0     H  168  -3.180   8.795   9.138  1.4376 -2.6773 -0.6663
  759MOL0     H  169  -3.109   8.746   8.979  1.5701  0.4878 -0.6368
  759MOL0     H  170  -2.017   9.176   8.975  1.3502  0.7788  1.9309
  759MOL0     H  171  -1.773   9.153   9.002  0.4410 -0.2186 -0.0188
  759MOL0     H  172  -1.465   9.076   9.471  0.1047  0.3140 -0.0288
  759MOL0     H  173  -1.208   8.975   9.517 -0.3555  1.2752  0.0627
  759MOL0     H  174   0.053   8.077   9.540  0.0433 -0.9159 -3.3100
  759MOL0     H  175   0.283   8.010   9.497  0.1221 -0.9318  1.4577
  759MOL0     H  176   0.773   8.035   9.761  1.0682  1.8546  1.0759
  759MOL0     H  177   1.005   8.003   9.709  0.0173 -1.0172 -0.3171
  759MOL0     H  178   1.125   8.104   9.280 -2.3476 -0.0237  1.0968
  759MOL0     H  179   1.153   7.935   9.284  1.1739  1.1774 -0.8715
  759MOL0     H  180   1.365   8.011   9.426  0.3501 -2.4166 -1.6367
  759MOL0     H  181   1.342   8.005   9.247 -3.1370 -2.0056 -0.5160
  759MOL0     H  182   1.321   8.259   9.421 -0.1906  1.3279 -1.1367
  759MOL0     H  183   1.273   8.248   9.249 -2.5588  0.5326  2.4084
  759MOL0     H  184   1.542   8.216   9.381 -1.0701 -1.0282 -0.3952
  759MOL0     H  185   1.503   8.178   9.208 -0.5944 -1.3255  1.4005
  759MOL0     H  186   1.482   8.609   9.218 -1.0633  0.2036  1.7991
  759MOL0     H  187   0.916   8.071   9.296  1.3996 -1.3412 -0.2528
  759MOL0     H  188   0.692   8.130   9.348  1.3854  0.1091 -0.4155
  760MOL0     O  189   9.492   1.993   9.552  0.6079 -0.5601 -0.3972
  760MOL0     C  190   9.541   2.063   9.466 -0.0021  0.3393  0.0028
  760MOL0     O  191   9.484   2.178   9.412 -0.1425  0.4709  0.1118
  760MOL0     C  192   9.356   2.194   9.451 -0.1784  0.2655 -0.6164
  760MOL0     C  193   9.252   2.183   9.357  0.0947 -0.7254 -0.6310
  760MOL0     C  194   9.123   2.213   9.396 -0.5915  0.2772 -0.1756
  760MOL0     C  195   9.088   2.254   9.522 -0.2765  1.8333 -0.7314
  760MOL0     O  196   8.954   2.269   9.544 -0.2577 -0.0646  0.1892
  760MOL0     C  197   8.917   2.370   9.632 -0.4020  0.3887  0.5345
  760MOL0     C  198   8.770   2.384   9.645  0.8985 -0.7457  0.0185
  760MOL0     C  199   8.715   2.493   9.739  0.4787 -0.3163 -0.3186
  760MOL0     C  200   8.562   2.494   9.740  0.8369  0.1095  0.0610
  760MOL0     C  201   8.495   2.601   9.832 -0.2902 -0.5211 -0.0228
  760MOL0     C  202   8.343   2.584   9.839 -0.5408 -0.3333  0.1467
  760MOL0     C  203   8.280   2.703   9.927 -0.7636 -0.6183 -0.3580
  760MOL0     C  204   8.131   2.739   9.905 -1.0440  0.5294 -0.8191
  760MOL0     N  205   8.101   2.760   9.764  0.1691 -0.9536  0.4468
  760MOL0     C  206   8.102   2.882   9.698 -0.1285  0.1624  0.8160
  760MOL0     C  207   8.057   2.850   9.571 -0.0016  0.6320 -0.5516
  760MOL0     C  208   8.013   2.942   9.456 -0.5021 -0.2769  0.5724
  760MOL0     C  209   7.860   2.936   9.435  0.2562 -0.0422  0.1437
  760MOL0     C  210   7.821   2.960   9.294  0.6059  0.0992  0.4653
  760MOL0     C  211   7.675   3.006   9.285  0.2319 -0.7853 -0.7235
  760MOL0     O  212   7.579   2.897   9.307  0.0806  0.9908 -1.2020
  760MOL0     C  213   7.447   2.932   9.287 -0.0768 -0.7847 -0.5031
  760MOL0     C  214   7.366   2.985   9.391 -0.4780  0.6485  0.4064
  760MOL0     C  215   7.229   2.996   9.370 -0.1080  0.0509  0.0928
  760MOL0     C  216   7.165   2.959   9.249 -0.5008  0.1670 -0.1403
  760MOL0     C  217   7.021   2.989   9.221 -0.3567 -0.1532  0.1194
  760MOL0     O  218   6.949   3.068   9.314 -0.2198 -0.8185  0.4835
  760MOL0     C  219   6.821   3.089   9.284  0.7233  0.7296 -0.7569
  760MOL0     C  220   6.727   2.982   9.257 -0.1806 -0.2730 -0.6777
  760MOL0     C  221   6.600   3.007   9.207 -0.2506 -0.0927 -0.0045
  760MOL0     C  222   6.548   3.138   9.212  0.3283  0.9929  0.2250
  760MOL0     O  223   6.429   3.161   9.160  0.8646  0.7450 -0.4762
  760MOL0     C  224   6.388   3.295   9.143  0.3782 -0.1492  0.2753
  760MOL0     C  225   6.251   3.310   9.092 -0.1786  0.2932 -0.4435
  760MOL0     C  226   6.214   3.455   9.057  0.2786 -0.5342 -0.3441
  760MOL0     C  227   6.208   3.536   9.189  0.8833  0.0636 -0.1683
  760MOL0     C  228   6.141   3.673   9.170 -0.2501  0.4436 -0.2792
  760MOL0     C  229   6.228   3.763   9.080  0.6705  0.2091 -0.2578
  760MOL0     C  230   6.172   3.900   9.069  0.3446 -0.4185 -0.9771
  760MOL0     C  231   6.237   3.961   8.938  0.0362 -0.2131 -1.3242
  760MOL0    Cl  232   6.121   3.904   8.823  0.1269  0.2662  0.1497
  760MOL0     C  233   6.634   3.238   9.248 -0.1538 -0.6812  0.1131
  760MOL0     C  234   6.766   3.213   9.280 -0.8591  0.5949 -0.8656
  760MOL0     O  235   6.984   2.948   9.117  0.3113  0.8631 -0.4587
  760MOL0     C  236   7.250   2.896   9.153  0.4931 -0.2197 -0.5289
  760MOL0     C  237   7.389   2.885   9.161 -0.3412 -0.6059 -0.3140
  760MOL0     N  238   8.049   2.708   9.563 -0.4135 -0.0605 -0.2739
  760MOL0     N  239   8.053   2.659   9.679 -0.0879 -0.1219  0.2627
  760MOL0     C  240   9.194   2.262   9.618  0.2995 -0.3330 -0.1257
  760MOL0     C  241   9.324   2.241   9.578  0.0518 -0.3125 -0.2364
  760MOL0     C  242   9.670   2.018   9.406 -0.5525  0.2161  0.6714
  760MOL0     C  243   9.747   1.907   9.452  0.4931 -0.2347 -0.5342
  760MOL0     C  244   9.873   1.890   9.396 -0.1909  0.6552  0.5620
  760MOL0     C  245   9.914   1.977   9.291  0.0353  0.0348 -0.1868
  760MOL0     O  246  10.045   1.974   9.240  0.0804 -0.3355 -0.0740
  760MOL0     C  247  10.140   1.876   9.292 -0.9179  0.1961  0.2441
  760MOL0     C  248  10.107   1.727   9.242 -0.5611 -0.4402  0.2425
  760MOL0     C  249  10.188   1.692   9.115  0.1473  0.7101 -0.5503
  760MOL0     C  250  10.138   1.566   9.039  0.4674 -0.7227 -0.2233
  760MOL0     C  251  10.023   1.601   8.949 -0.0307 -0.0896 -0.6871
  760MOL0     C  252   9.925   1.623   8.888  0.4492 -0.2942  0.6621
  760MOL0     C  253   9.833   2.078   9.243  0.1919 -0.0199  0.0864
  760MOL0     C  254   9.706   2.088   9.295 -0.5019 -0.3211 -0.1179
  760MOL0     H  255   9.272   2.159   9.253  0.3970  1.8395 -1.2283
  760MOL0     H  256   9.037   2.176   9.341 -1.1348  0.3716  0.5853
  760MOL0     H  257   8.968   2.464   9.609  1.5530 -0.2124  2.1425
  760MOL0     H  258   8.965   2.343   9.727  2.8195  1.6567 -0.5822
  760MOL0     H  259   8.723   2.288   9.667  1.9050 -1.0868  0.8212
  760MOL0     H  260   8.742   2.410   9.543 -0.2506  2.0352  0.9284
  760MOL0     H  261   8.756   2.589   9.707 -0.5562  0.6528  1.1358
  760MOL0     H  262   8.747   2.468   9.841  0.1719 -1.8564 -0.5702
  760MOL0     H  263   8.528   2.505   9.637 -1.2404 -0.6245  0.6014
  760MOL0     H  264   8.511   2.405   9.778 -1.4410  1.5767  0.6131
  760MOL0     H  265   8.528   2.699   9.797 -1.4685  0.0314  0.3730
  760MOL0     H  266   8.541   2.582   9.930  2.0450  0.7623 -0.7965
  760MOL0     H  267   8.301   2.486   9.867  1.0122 -0.3237  2.8382
  760MOL0     H  268   8.299   2.600   9.741 -2.0787 -1.4355  0.6177
  760MOL0     H  269   8.275   2.666  10.029 -2.1641 -0.0236 -0.1938
  760MOL0     H  270   8.338   2.796   9.917  0.2948 -0.8705  2.5406
  760MOL0     H  271   8.092   2.816   9.973 -1.9579 -0.3802 -0.2906
  760MOL0     H  272   8.074   2.649   9.929 -2.5418  1.7888  0.6332
  760MOL0     H  273   8.131   2.976   9.744  1.5153 -0.7891  1.8311
  760MOL0     H  274   8.066   2.917   9.364 -0.4954  2.8933 -0.4370
  760MOL0     H  275   8.052   3.042   9.481  1.9727 -1.0836  0.2335
  760MOL0     H  276   7.813   3.008   9.503  0.1039 -0.8670  0.9417
  760MOL0     H  277   7.809   2.842   9.459  0.9368 -0.1963  1.0223
  760MOL0     H  278   7.877   3.047   9.257 -0.8382  1.4529  1.2968
  760MOL0     H  279   7.838   2.870   9.234  1.1012  0.2671  0.3452
  760MOL0     H  280   7.654   3.049   9.187  0.2928 -2.8011 -1.6780
  760MOL0     H  281   7.663   3.079   9.365 -1.4704 -0.7218 -0.9964
  760MOL0     H  282   7.413   3.020   9.482 -1.4635  1.6008  0.5717
  760MOL0     H  283   7.168   3.048   9.444 -0.1083  2.9777 -1.7758
  760MOL0     H  284   6.742   2.876   9.275 -3.9328 -0.5573  2.0838
  760MOL0     H  285   6.534   2.922   9.196 -0.3193  0.0052 -0.3585
  760MOL0     H  286   6.449   3.351   9.072  0.8976 -1.0946 -0.0472
  760MOL0     H  287   6.400   3.352   9.235  3.9211 -0.4449  0.1085
  760MOL0     H  288   6.171   3.274   9.158  1.0125  0.4967  1.1650
  760MOL0     H  289   6.237   3.251   9.001 -0.6923 -0.9395  0.4083
  760MOL0     H  290   6.119   3.462   9.003  0.2219 -3.1099 -0.6825
  760MOL0     H  291   6.290   3.507   8.998  0.0934 -0.4838 -0.5423
  760MOL0     H  292   6.159   3.468   9.259 -1.6272  0.6522 -1.2637
  760MOL0     H  293   6.308   3.557   9.229  0.1207  0.5723  1.5640
  760MOL0     H  294   6.134   3.727   9.264 -2.2819  2.8710 -1.7147
  760MOL0     H  295   6.047   3.657   9.116  0.9305  1.9526 -2.9564
  760MOL0     H  296   6.237   3.717   8.980 -0.9574 -3.2719  1.0424
  760MOL0     H  297   6.329   3.777   9.120  1.7022 -0.3493 -2.4828
  760MOL0     H  298   6.063   3.908   9.076  0.5807  3.2034  1.0084
  760MOL0     H  299   6.213   3.958   9.151  4.4620 -0.4884 -2.7460
  760MOL0     H  300   6.339   3.927   8.921 -0.7046 -3.7260  0.3829
  760MOL0     H  301   6.231   4.070   8.928  0.2372 -0.0752 -0.0291
  760MOL0     H  302   6.601   3.341   9.240  0.6710 -0.5729 -3.5903
  760MOL0     H  303   6.832   3.295   9.306  1.6764 -0.8926 -2.2417
  760MOL0     H  304   7.195   2.847   9.072 -0.9939  0.2391  0.1638
  760MOL0     H  305   7.446   2.836   9.082 -0.6057  1.8765 -2.1615
  760MOL0     H  306   9.169   2.300   9.717  1.5900  4.1024 -1.2571
  760MOL0     H  307   9.400   2.255   9.653  1.2411 -0.6235 -1.3407
  760MOL0     H  308   9.714   1.845   9.535  0.3785  0.9663  0.3403
  760MOL0     H  309   9.929   1.802   9.425  0.1375 -0.4733 -3.0009
  760MOL0     H  310  10.138   1.886   9.401 -0.3899  0.8487  0.2050
  760MOL0     H  311  10.242   1.904   9.262  0.0787 -2.2855  1.0984
  760MOL0     H  312  10.133   1.649   9.315  2.3631  1.4665  1.4333
  760MOL0     H  313  10.001   1.720   9.215 -0.3736  3.1599 -2.0162
  760MOL0     H  314  10.294   1.678   9.139  0.3734  2.5774 -0.3053
  760MOL0     H  315  10.186   1.784   9.056  0.4058  0.7994 -0.4234
  760MOL0     H  316  10.209   1.525   8.966  1.5793  0.5885  0.0855
  760MOL0     H  317  10.107   1.495   9.116  1.0093 -0.8612 -0.1242
  760MOL0     H  318   9.838   1.637   8.828  0.1385  2.5959  1.6552
  760MOL0     H  319   9.864   2.133   9.155 -0.0804 -0.0162 -0.0107
  760MOL0     H  320   9.640   2.164   9.255  0.1157  0.6395  0.6591
  761MOL0     O  321   6.166  11.093   2.818  0.1691 -0.1270  0.7275
  761MOL0     C  322   6.198  11.049   2.933 -0.3124  0.0094  0.1182
  761MOL0     O  323   6.122  10.957   3.005 -0.4182 -0.3230  0.3690
  761MOL0     C  324   5.990  10.938   2.976 -0.1503  0.3202  0.1481
  761MOL0     C  325   5.967  10.855   2.871  0.6595 -0.0393  0.6013
  761MOL0     C  326   5.835  10.839   2.825  0.6343  0.0065 -0.1015
  761MOL0     C  327   5.731  10.912   2.881  0.4135 -0.5574 -0.1775
  761MOL0     O  328   5.593  10.908   2.842 -0.4076 -0.8963  0.1363
  761MOL0     C  329   5.558  10.789   2.766 -0.0422 -0.1024 -0.4899
  761MOL0     C  330   5.410  10.798   2.698 -0.4707 -0.2941  0.1606
  761MOL0     C  331   5.399  10.920   2.611  0.8904  0.3617  0.1637
  761MOL0     C  332   5.277  10.918   2.519 -0.2068  0.2517 -0.3419
  761MOL0     C  333   5.142  10.902   2.598 -0.1854  0.4784 -0.9538
  761MOL0     C  334   5.052  11.002   2.537 -0.0352  0.4184  0.3858
  761MOL0     C  335   4.914  10.987   2.601 -0.4580  0.6075  0.0461
  761MOL0     C  336   4.838  10.862   2.548 -0.7221 -1.3428  0.2073
  761MOL0     N  337   4.715  10.853   2.614  0.5375  0.5298  0.2570
  761MOL0     C  338   4.668  10.738   2.667  0.4958 -0.0826 -0.3447
  761MOL0     C  339   4.546  10.771   2.729 -0.0681  0.9615  0.1203
  761MOL0     C  340   4.450  10.692   2.821 -0.8612 -0.7264 -0.1912
  761MOL0     C  341   4.320  10.653   2.744 -0.2942  0.3619  0.6675
  761MOL0     C  342   4.223  10.612   2.853 -0.2905  0.2281 -0.0825
  761MOL0     C  343   4.084  10.595   2.791  0.8069  0.3673 -0.1809
  761MOL0     O  344   4.000  10.541   2.898  0.0936 -0.8727 -0.4114
  761MOL0     C  345   3.881  10.480   2.874 -0.2751  0.7348  0.5364
  761MOL0     C  346   3.823  10.469   2.746  0.4984 -0.1500 -0.8665
  761MOL0     C  347   3.701  10.396   2.721  0.5295 -0.3110 -0.3584
  761MOL0     C  348   3.625  10.359   2.841 -0.5482  0.0106  0.4935
  761MOL0     C  349   3.510  10.278   2.834  0.5947  0.2027  0.1500
  761MOL0     O  350   3.443  10.266   2.718 -0.0956 -0.4027  0.0050
  761MOL0     C  351   3.310  10.225   2.709 -0.7015 -0.7619 -0.5316
  761MOL0     C  352   3.259  10.196   2.582 -0.2505  0.2047 -0.1427
  761MOL0     C  353   3.128  10.154   2.551  0.2273 -0.1004 -0.0118
  761MOL0     C  354   3.035  10.150   2.661 -0.7924  0.6907 -0.4469
  761MOL0     O  355   2.909  10.104   2.662  0.0877 -0.5132  0.1919
  761MOL0     C  356   2.851  10.060   2.543 -0.4524 -0.1808  0.5896
  761MOL0     C  357   2.705  10.036   2.566 -0.5870 -0.1888 -0.2516
  761MOL0     C  358   2.629   9.944   2.474  0.0168  0.2577 -0.7648
  761MOL0     C  359   2.656   9.973   2.330 -0.4505  0.1000 -0.7783
  761MOL0     C  360   2.567   9.891   2.235  0.6671  0.5081 -0.3250
  761MOL0     C  361   2.522   9.975   2.118 -0.2885  0.1054 -0.0402
  761MOL0     C  362   2.427   9.891   2.025  0.2923 -0.9056 -0.1615
  761MOL0     C  363   2.291   9.862   2.084 -0.4875 -0.0204 -0.4559
  761MOL0    Cl  364   2.178   9.768   1.971  0.1025 -0.0207 -0.3400
  761MOL0     C  365   3.084  10.182   2.789  0.2847  0.0563 -0.4021
  761MOL0     C  366   3.216  10.220   2.813  0.9160 -0.1989 -0.4273
  761MOL0     O  367   3.477  10.223   2.942  0.0164 -0.2015 -0.1653
  761MOL0     C  368   3.681  10.386   2.963 -0.4596  0.0389  0.7493
  761MOL0     C  369   3.801  10.433   2.976  0.8066  0.0812 -0.2268
  761MOL0     N  370   4.533  10.905   2.698  0.6432 -0.8960  0.2466
  761MOL0     N  371   4.633  10.958   2.638  0.3935 -0.1953  1.0822
  761MOL0     C  372   5.751  10.995   2.997 -0.1615  0.6899 -0.2493
  761MOL0     C  373   5.885  11.007   3.044  0.0516 -1.5824  0.3363
  761MOL0     C  374   6.334  11.076   2.982 -0.3470  0.3193  0.8864
  761MOL0     C  375   6.381  10.993   3.086  0.7445  0.8393 -0.3813
  761MOL0     C  376   6.508  11.014   3.132 -0.2087  0.3622 -1.0015
  761MOL0     C  377   6.591  11.119   3.083 -0.3626  0.5877  0.2824
  761MOL0     O  378   6.701  11.145   3.152 -0.6956 -0.6905  0.2820
  761MOL0     C  379   6.797  11.237   3.101 -0.5329 -1.0119 -0.1823
  761MOL0     C  380   6.927  11.230   3.186  0.2843  0.8226 -0.4210
  761MOL0     C  381   7.034  11.293   3.106  0.2451 -0.4485  0.4403
  761MOL0     C  382   7.171  11.279   3.175  0.4298 -0.2623  0.0944
  761MOL0     C  383   7.169  11.357   3.307 -0.2098  0.0746 -0.4397
  761MOL0     C  384   7.176  11.425   3.411 -0.6972  0.4281  0.5126
  761MOL0     C  385   6.545  11.198   2.978 -0.0371  0.2311  0.2156
  761MOL0     C  386   6.417  11.180   2.927 -0.4553  0.3556 -0.1987
  761MOL0     H  387   6.040  10.800   2.812 -1.3608  0.8016 -2.9747
  761MOL0     H  388   5.829  10.763   2.748 -0.4226  0.4916 -0.5153
  761MOL0     H  389   5.565  10.699   2.828  0.8951 -0.9641 -1.7795
  761MOL0     H  390   5.630  10.780   2.683  0.7070  3.9327 -0.4774
  761MOL0     H  391   5.346  10.806   2.786  0.9250  2.3226  1.0613
  761MOL0     H  392   5.382  10.709   2.641  0.8072 -2.2226  2.3682
  761MOL0     H  393   5.488  10.943   2.552  0.8270 -1.6470 -0.8288
  761MOL0     H  394   5.378  11.002   2.679 -1.2749  1.4258 -1.6485
  761MOL0     H  395   5.272  11.014   2.468  0.3672  0.4199 -0.0926
  761MOL0     H  396   5.283  10.850   2.433 -3.0225  1.2430 -1.4420
  761MOL0     H  397   5.161  10.931   2.702  2.6827  0.4263 -1.3841
  761MOL0     H  398   5.099  10.802   2.591 -2.7544  1.2461  1.7881
  761MOL0     H  399   5.046  10.991   2.428 -1.6534 -2.0072  0.6476
  761MOL0     H  400   5.085  11.106   2.548  0.2548  0.1000  3.3609
  761MOL0     H  401   4.940  10.989   2.707  0.9082 -1.5674 -0.1783
  761MOL0     H  402   4.863  11.081   2.579  1.9504  2.4046  1.6788
  761MOL0     H  403   4.882  10.764   2.568 -1.8056 -1.3998  2.6975
  761MOL0     H  404   4.813  10.869   2.442  1.4057 -2.1234 -0.3946
  761MOL0     H  405   4.715  10.640   2.666  0.4865 -0.0849 -0.8508
  761MOL0     H  406   4.426  10.756   2.906 -1.5564  0.5361 -1.3059
  761MOL0     H  407   4.494  10.601   2.863 -1.2239 -0.8817 -0.1518
  761MOL0     H  408   4.345  10.571   2.676  2.1144 -1.3164  3.3639
  761MOL0     H  409   4.281  10.741   2.691 -1.0729  1.5195  3.0291
  761MOL0     H  410   4.265  10.521   2.896  1.4715 -0.3363 -2.8213
  761MOL0     H  411   4.231  10.683   2.936  0.6700  0.6738 -0.5439
  761MOL0     H  412   4.089  10.521   2.711  2.0284 -1.3623  1.4228
  761MOL0     H  413   4.048  10.693   2.758  0.1144  0.8618  1.8960
  761MOL0     H  414   3.874  10.494   2.653 -0.7407  3.2788 -0.7469
  761MOL0     H  415   3.663  10.388   2.620  2.2708 -0.0038 -1.0882
  761MOL0     H  416   3.327  10.204   2.498 -1.6083  0.3672 -1.2642
  761MOL0     H  417   3.094  10.125   2.452  0.1564 -0.5839  0.1513
  761MOL0     H  418   2.895   9.964   2.517  2.7818  1.3856 -0.1419
  761MOL0     H  419   2.860  10.134   2.463  0.4844  0.2859  1.1085
  761MOL0     H  420   2.658  10.134   2.558  3.2487  1.6562 -4.2214
  761MOL0     H  421   2.684   9.995   2.665 -2.4190  2.4673  0.5537
  761MOL0     H  422   2.524   9.968   2.494  0.0597  0.6243 -0.9600
  761MOL0     H  423   2.643   9.838   2.498  0.9057  0.2213 -1.4028
  761MOL0     H  424   2.651  10.080   2.305  2.4274  0.7538  0.9637
  761MOL0     H  425   2.759   9.946   2.302 -0.0006  0.7949  0.1570
  761MOL0     H  426   2.477   9.866   2.292  1.1707 -0.0055  0.2602
  761MOL0     H  427   2.626   9.806   2.198 -1.6740 -0.8154 -1.2066
  761MOL0     H  428   2.616   9.996   2.066  0.1498  0.6345  0.9301
  761MOL0     H  429   2.479  10.069   2.154  0.9334  0.9329 -0.6651
  761MOL0     H  430   2.418   9.941   1.928  1.3042 -1.0860 -0.3616
  761MOL0     H  431   2.485   9.805   1.990  1.9630  0.4464 -0.8297
  761MOL0     H  432   2.250   9.961   2.105 -2.3835 -0.9396  0.4444
  761MOL0     H  433   2.317   9.814   2.179  0.9839  1.5266 -0.0354
  761MOL0     H  434   3.020  10.171   2.877  1.7038 -2.2536  0.4324
  761MOL0     H  435   3.244  10.243   2.915 -2.1634  2.3012  0.0221
  761MOL0     H  436   3.626  10.367   3.055  1.5459 -2.6131  1.5305
  761MOL0     H  437   3.836  10.425   3.078 -0.0244  0.4323  0.0904
  761MOL0     H  438   5.667  11.043   3.047  1.0790 -0.6077  3.4642
  761MOL0     H  439   5.900  11.076   3.126 -1.7297 -1.9063  0.9926
  761MOL0     H  440   6.324  10.909   3.125  2.3262 -0.2815 -0.3593
  761MOL0     H  441   6.554  10.954   3.211  1.4891  0.2940 -2.0016
  761MOL0     H  442   6.752  11.336   3.112 -0.2823 -1.1520  2.6820
  761MOL0     H  443   6.820  11.212   2.997 -0.6903  1.4973 -0.8729
  761MOL0     H  444   6.905  11.265   3.287 -1.7958 -0.9516 -0.1610
  761MOL0     H  445   6.951  11.124   3.194  0.8397  1.0598  1.4164
  761MOL0     H  446   7.010  11.399   3.090  2.1612 -0.0577 -0.0122
  761MOL0     H  447   7.041  11.243   3.009  2.7687  0.4660  0.0739
  761MOL0     H  448   7.190  11.174   3.199 -0.3233  0.1928  3.1596
  761MOL0     H  449   7.262  11.303   3.119  1.5125 -0.8218  1.5419
  761MOL0     H  450   7.187  11.487   3.497  1.6162 -0.1341  0.6995
  761MOL0     H  451   6.605  11.282   2.943  1.6675  0.2253  2.8852
  761MOL0     H  452   6.381  11.250   2.853 -0.2541 -1.1138 -1.7534
  762MOL0     O  453   0.090   7.367   1.770  0.8125 -0.5323  0.1254
  762MOL0     C  454   0.068   7.385   1.891  0.7038 -0.6655  0.9464
  762MOL0     O  455  -0.049   7.420   1.951  0.3243 -0.1302 -0.2500
  762MOL0     C  456  -0.154   7.469   1.875  0.1767  0.8479  0.2856
  762MOL0     C  457  -0.206   7.388   1.772 -0.4486  0.7143  0.0493
  762MOL0     C  458  -0.310   7.438   1.696 -0.7245  0.2507  0.1773
  762MOL0     C  459  -0.368   7.558   1.723 -0.4774 -0.1758 -0.5809
  762MOL0     O  460  -0.468   7.613   1.647 -0.4309 -0.2907  0.2037
  762MOL0     C  461  -0.434   7.626   1.507  0.3323 -0.2727 -0.6147
  762MOL0     C  462  -0.531   7.559   1.413  0.0147 -1.0577 -0.3833
  762MOL0     C  463  -0.658   7.638   1.373 -1.1392 -0.1807 -0.1627
  762MOL0     C  464  -0.757   7.539   1.304  0.0599  1.0479 -0.4140
  762MOL0     C  465  -0.836   7.440   1.402  0.5825 -0.4146  0.5109
  762MOL0     C  466  -0.946   7.354   1.333  0.0981  0.2348 -0.2765
  762MOL0     C  467  -0.872   7.275   1.224 -0.6560 -0.0234 -0.6086
  762MOL0     C  468  -0.973   7.200   1.138 -0.9126  0.4047  0.1014
  762MOL0     N  469  -0.898   7.110   1.045  0.1261  0.1159  0.0714
  762MOL0     C  470  -0.821   7.000   1.085 -0.2874 -0.2249 -0.4362
  762MOL0     C  471  -0.781   6.940   0.967  0.6033 -0.3564 -0.3948
  762MOL0     C  472  -0.696   6.810   0.966  0.2088 -0.0054  0.2673
  762MOL0     C  473  -0.551   6.833   0.926  0.4632  0.4759  0.6737
  762MOL0     C  474  -0.485   6.702   0.966  0.6337  0.2223 -0.0701
  762MOL0     C  475  -0.332   6.712   0.948 -0.3166  0.8691 -0.9899
  762MOL0     O  476  -0.273   6.806   1.045  1.1508  0.2928 -0.4256
  762MOL0     C  477  -0.137   6.836   1.026 -0.0264  0.0420  0.0120
  762MOL0     C  478  -0.044   6.792   0.930 -0.1269 -0.0902  1.1835
  762MOL0     C  479   0.088   6.832   0.936 -0.7686 -0.0904 -0.1390
  762MOL0     C  480   0.130   6.937   1.013  1.0443 -0.3129  0.0949
  762MOL0     C  481   0.264   6.989   1.003 -0.3876  0.9365  0.1664
  762MOL0     O  482   0.301   7.073   1.101 -0.0856 -0.1746  0.7590
  762MOL0     C  483   0.429   7.129   1.099  0.4270 -0.1304 -0.4022
  762MOL0     C  484   0.506   7.184   0.992  0.1159  0.2877 -0.7367
  762MOL0     C  485   0.628   7.242   1.010 -0.0782 -0.0024 -0.0978
  762MOL0     C  486   0.684   7.249   1.141 -1.0104 -0.6921 -0.6692
  762MOL0     O  487   0.815   7.292   1.156 -0.4198  0.2806 -0.8609
  762MOL0     C  488   0.884   7.281   1.288 -0.4328 -0.1987 -0.0604
  762MOL0     C  489   1.035   7.290   1.264 -0.5820  0.1099  0.8243
  762MOL0     C  490   1.074   7.434   1.219 -1.1254  1.0602 -0.3409
  762MOL0     C  491   1.225   7.456   1.205 -0.7388  0.3796  0.8477
  762MOL0     C  492   1.270   7.400   1.069 -0.7362 -0.5172  0.8227
  762MOL0     C  493   1.420   7.446   1.039 -0.3904 -0.2752  0.7114
  762MOL0     C  494   1.526   7.401   1.144  0.0978  0.1076  0.1435
  762MOL0     C  495   1.665   7.454   1.105  0.4745  0.0984  0.4533
  762MOL0    Cl  496   1.728   7.408   0.938  0.0533 -0.0575  0.0208
  762MOL0     C  497   0.607   7.205   1.245  0.8600 -0.2236 -0.4748
  762MOL0     C  498   0.485   7.137   1.224 -0.6391  0.0508  0.3363
  762MOL0     O  499   0.330   6.952   0.906 -0.3611  0.4227  0.5775
  762MOL0     C  500   0.035   6.989   1.103  1.3598  0.7389  0.5129
  762MOL0     C  501  -0.092   6.931   1.118  0.7213  0.4946 -0.2215
  762MOL0     N  502  -0.841   7.011   0.865  0.0802  0.2756  0.0285
  762MOL0     N  503  -0.920   7.104   0.909 -0.6602  0.4079 -0.8312
  762MOL0     C  504  -0.331   7.629   1.844 -0.8348 -0.3601  1.1969
  762MOL0     C  505  -0.224   7.584   1.918  0.0552  0.4324 -0.5875
  762MOL0     C  506   0.173   7.361   1.981  0.2233  1.4810  0.1228
  762MOL0     C  507   0.155   7.352   2.118 -0.1346 -0.6992 -0.2790
  762MOL0     C  508   0.258   7.322   2.203 -0.2608 -0.3578  0.2268
  762MOL0     C  509   0.388   7.317   2.163  0.3577  0.5244  0.0806
  762MOL0     O  510   0.494   7.306   2.253 -0.6183  0.2228  0.3826
  762MOL0     C  511   0.578   7.195   2.217  0.6787  0.1207 -0.0921
  762MOL0     C  512   0.714   7.234   2.171  0.0787 -0.5457  1.3612
  762MOL0     C  513   0.798   7.111   2.158 -0.6576 -0.5056 -0.5103
  762MOL0     C  514   0.923   7.123   2.071 -0.5310  0.2500 -0.3117
  762MOL0     C  515   1.024   7.015   2.092 -0.5336  0.7917  0.0452
  762MOL0     C  516   1.115   6.935   2.098  0.0491 -0.1912  0.1258
  762MOL0     C  517   0.413   7.327   2.023  0.7070  0.9679  0.0031
  762MOL0     C  518   0.305   7.350   1.931  0.0212  0.3979 -0.0388
  762MOL0     H  519  -0.169   7.291   1.742  1.1239  1.8281 -1.8722
  762MOL0     H  520  -0.363   7.373   1.626 -1.2126 -0.5557  1.2715
  762MOL0     H  521  -0.339   7.579   1.484 -0.4992 -2.9773  1.0798
  762MOL0     H  522  -0.422   7.732   1.482 -0.2238 -0.2550 -0.8201
  762MOL0     H  523  -0.551   7.468   1.470  0.0214 -0.3557  0.7640
  762MOL0     H  524  -0.480   7.544   1.317  2.9103  2.4507  0.3896
  762MOL0     H  525  -0.630   7.715   1.301 -0.9367 -1.4835 -1.5176
  762MOL0     H  526  -0.698   7.689   1.461  3.0074 -0.0637  1.9236
  762MOL0     H  527  -0.821   7.591   1.232 -1.9617  0.8138  1.1273
  762MOL0     H  528  -0.687   7.482   1.242  1.6822  0.0589  2.1460
  762MOL0     H  529  -0.883   7.492   1.486 -2.7452 -2.4385  0.0740
  762MOL0     H  530  -0.770   7.366   1.446 -1.5129 -1.1602  2.5910
  762MOL0     H  531  -1.023   7.422   1.296  0.2476 -0.0013 -1.0278
  762MOL0     H  532  -1.003   7.297   1.407 -0.0707  0.3475 -0.3195
  762MOL0     H  533  -0.811   7.336   1.156 -1.1433  0.0403 -0.9957
  762MOL0     H  534  -0.804   7.210   1.279 -0.3208  0.8082 -0.0117
  762MOL0     H  535  -1.043   7.273   1.097 -2.4526 -1.3681 -0.5598
  762MOL0     H  536  -1.025   7.136   1.210  1.0020  0.1163  1.3289
  762MOL0     H  537  -0.802   6.972   1.188  2.0795  1.6393 -0.2682
  762MOL0     H  538  -0.740   6.736   0.899  0.6248 -1.1830  1.2750
  762MOL0     H  539  -0.705   6.773   1.069 -1.6917 -0.1117  0.0939
  762MOL0     H  540  -0.504   6.915   0.982 -0.3872  0.6426  1.1756
  762MOL0     H  541  -0.545   6.847   0.818 -0.2504  5.1877  1.0312
  762MOL0     H  542  -0.508   6.669   1.068  2.9020 -1.2177  0.0732
  762MOL0     H  543  -0.517   6.622   0.899 -0.3679  1.7084 -1.4117
  762MOL0     H  544  -0.313   6.710   0.840 -1.1301 -3.8757 -1.2710
  762MOL0     H  545  -0.287   6.616   0.975  0.4066  0.2758 -3.8948
  762MOL0     H  546  -0.064   6.712   0.860  2.4186  0.9762 -0.9542
  762MOL0     H  547   0.160   6.797   0.862  0.3678  0.8309  0.4818
  762MOL0     H  548   0.466   7.185   0.891  1.3357  1.1699 -1.2287
  762MOL0     H  549   0.689   7.276   0.927 -0.8358  1.0267 -0.2490
  762MOL0     H  550   0.873   7.183   1.336  1.6921 -0.0046  0.9597
  762MOL0     H  551   0.837   7.358   1.350 -3.1168 -0.1432 -2.0091
  762MOL0     H  552   1.057   7.220   1.183  1.3068  0.6761  0.7953
  762MOL0     H  553   1.089   7.254   1.352 -0.5382  2.4661  1.8414
  762MOL0     H  554   1.050   7.502   1.302  1.5862 -0.0582  1.5140
  762MOL0     H  555   1.023   7.473   1.131  3.8934  3.6533 -2.4940
  762MOL0     H  556   1.256   7.561   1.211 -2.5029  0.9349  1.0033
  762MOL0     H  557   1.277   7.404   1.285  0.3968 -1.4407 -0.9709
  762MOL0     H  558   1.212   7.444   0.987  2.3551  1.4064 -0.5160
  762MOL0     H  559   1.251   7.294   1.086 -1.6396 -0.2201  1.8330
  762MOL0     H  560   1.435   7.553   1.023  1.1513 -0.7691 -1.6481
  762MOL0     H  561   1.451   7.408   0.941 -2.7374 -0.5138 -0.0049
  762MOL0     H  562   1.503   7.457   1.235  1.5273  0.8270  0.0841
  762MOL0     H  563   1.524   7.295   1.169 -4.1673  0.1730  0.7533
  762MOL0     H  564   1.742   7.432   1.180  1.7155  0.8092 -0.5643
  762MOL0     H  565   1.665   7.563   1.103  0.2346  0.1090  0.8532
  762MOL0     H  566   0.649   7.228   1.342 -1.5262 -0.1072  0.6024
  762MOL0     H  567   0.423   7.088   1.299 -1.9469 -0.9897 -1.3427
  762MOL0     H  568   0.065   7.067   1.172  1.0201  0.8994  0.4835
  762MOL0     H  569  -0.162   6.977   1.187  1.6044  3.0743 -0.9113
  762MOL0     H  570  -0.372   7.724   1.877  0.6568  0.5733  0.4697
  762MOL0     H  571  -0.178   7.649   1.992  2.5314 -0.3247 -1.3640
  762MOL0     H  572   0.058   7.358   2.166 -0.1165  0.8751 -0.4090
  762MOL0     H  573   0.247   7.298   2.308  0.9845  1.2011  0.7519
  762MOL0     H  574   0.536   7.128   2.142  0.2638  1.2300 -0.8726
  762MOL0     H  575   0.582   7.133   2.307  2.9297  1.1459  0.5894
  762MOL0     H  576   0.703   7.284   2.074 -0.6713 -1.5349  0.9247
  762MOL0     H  577   0.762   7.309   2.236  1.9593  0.3437 -0.9122
  762MOL0     H  578   0.738   7.027   2.123 -1.3472 -1.0716  1.8638
  762MOL0     H  579   0.827   7.097   2.263 -1.1897  1.8032 -0.0071
  762MOL0     H  580   0.896   7.135   1.966 -2.0859 -0.6552 -0.0458
  762MOL0     H  581   0.980   7.211   2.102  1.1484 -1.1992  0.9464
  762MOL0     H  582   1.190   6.858   2.100 -1.4959 -1.8347 -1.3314
  762MOL0     H  583   0.511   7.335   1.977  0.9855  0.5593  0.5203
  762MOL0     H  584   0.339   7.366   1.829  2.2549 -1.0214  0.4259
  763MOL0     O  585   6.184   8.221  10.040  0.2762 -0.0357  0.1915
  763MOL0     C  586   6.224   8.321   9.977 -0.3297  0.7327  0.7638
  763MOL0     O  587   6.155   8.411   9.903  0.0347 -0.6329  0.2399
  763MOL0     C  588   6.019   8.419   9.908  0.8817  0.3518  0.4905
  763MOL0     C  589   5.932   8.311   9.880 -0.1130  0.9459 -0.2497
  763MOL0     C  590   5.794   8.336   9.880  0.1975 -0.0366  0.6823
  763MOL0     C  591   5.734   8.461   9.898  0.0945 -0.6743  0.4886
  763MOL0     O  592   5.605   8.499   9.888 -0.5564 -0.3130  0.6924
  763MOL0     C  593   5.547   8.452   9.767 -0.1277  0.3782 -0.5183
  763MOL0     C  594   5.449   8.559   9.704  0.2873 -0.1930  0.3640
  763MOL0     C  595   5.358   8.609   9.815 -0.6000  0.1037 -0.3831
  763MOL0     C  596   5.217   8.658   9.760 -0.1061  0.0864  0.2910
  763MOL0     C  597   5.129   8.707   9.873  0.2547  0.7448 -0.5766
  763MOL0     C  598   5.009   8.785   9.828  0.7484  0.1619  0.2675
  763MOL0     C  599   4.892   8.703   9.798  0.4635 -0.4425  0.3255
  763MOL0     C  600   4.876   8.665   9.656  0.2831  0.0618  0.1966
  763MOL0     N  601   4.754   8.584   9.629  0.8703 -0.6134  0.0673
  763MOL0     C  602   4.646   8.560   9.699  0.1854  0.1043 -0.1258
  763MOL0     C  603   4.571   8.484   9.616 -0.0104  1.3295 -0.5905
  763MOL0     C  604   4.438   8.425   9.652  0.8331  0.3674 -0.3166
  763MOL0     C  605   4.322   8.486   9.575  0.5801  0.4726 -0.5915
  763MOL0     C  606   4.341   8.472   9.419  0.4400 -0.1114 -0.3243
  763MOL0     C  607   4.219   8.512   9.342  0.1051  0.2526  0.6079
  763MOL0     O  608   4.099   8.450   9.392  0.0061 -0.0302  0.7240
  763MOL0     C  609   3.991   8.450   9.309  0.3291  0.7858  0.5896
  763MOL0     C  610   3.984   8.530   9.186 -0.1934 -1.0351  0.4408
  763MOL0     C  611   3.857   8.544   9.120  0.2085 -0.4340  0.4740
  763MOL0     C  612   3.742   8.469   9.167  0.4319 -0.3711  0.4333
  763MOL0     C  613   3.601   8.492   9.117 -0.6593 -1.1434  1.1372
  763MOL0     O  614   3.501   8.438   9.191  0.4354  0.4860 -0.2670
  763MOL0     C  615   3.372   8.476   9.150 -0.2874 -0.3001  0.8245
  763MOL0     C  616   3.305   8.408   9.043  0.2264  0.2736  0.1850
  763MOL0     C  617   3.173   8.449   9.013 -0.9192  0.2589 -0.1913
  763MOL0     C  618   3.111   8.550   9.079  0.0154  0.7298 -0.2070
  763MOL0     O  619   2.984   8.573   9.052 -0.2435 -0.0714  0.1695
  763MOL0     C  620   2.896   8.540   9.164 -0.1438  0.1329  0.0381
  763MOL0     C  621   2.766   8.497   9.102  0.4153  0.0892 -0.0571
  763MOL0     C  622   2.686   8.625   9.066 -0.6468  0.2551  0.1014
  763MOL0     C  623   2.543   8.584   9.002 -0.9615 -0.1414 -0.3741
  763MOL0     C  624   2.569   8.522   8.862 -0.0559  0.4549 -0.3467
  763MOL0     C  625   2.435   8.467   8.800 -0.4175 -0.6472 -0.5347
  763MOL0     C  626   2.381   8.339   8.880  0.3608 -0.3144 -0.5223
  763MOL0     C  627   2.274   8.272   8.785  0.1175 -0.3851 -0.8899
  763MOL0    Cl  628   2.138   8.373   8.756 -0.1095 -0.1497  0.1853
  763MOL0     C  629   3.182   8.626   9.169 -0.8257  0.0014 -0.3558
  763MOL0     C  630   3.314   8.590   9.203  0.3831 -0.6071  1.1328
  763MOL0     O  631   3.585   8.573   9.027 -0.0809  0.2935 -0.2217
  763MOL0     C  632   3.759   8.385   9.280  0.6348 -0.3834 -0.2481
  763MOL0     C  633   3.879   8.392   9.356  0.3945  0.6007 -0.0153
  763MOL0     N  634   4.635   8.458   9.500  0.6850  0.4606 -0.0419
  763MOL0     N  635   4.741   8.529   9.511 -0.4850 -0.0439 -0.7606
  763MOL0     C  636   5.820   8.559   9.934  0.0907  0.2017 -1.0438
  763MOL0     C  637   5.962   8.542   9.947 -0.6283  0.0894  0.1431
  763MOL0     C  638   6.366   8.344   9.996 -0.4976 -1.4956  0.3245
  763MOL0     C  639   6.415   8.477  10.000  0.4673  0.9362  0.1433
  763MOL0     C  640   6.543   8.509  10.029 -0.3869 -0.0804  0.2875
  763MOL0     C  641   6.635   8.405  10.052 -0.3900  0.5957  1.0448
  763MOL0     O  642   6.766   8.426  10.071  0.2112 -0.3006 -0.0839
  763MOL0     C  643   6.810   8.556  10.109 -0.5428 -0.5267 -1.0068
  763MOL0     C  644   6.942   8.543  10.170 -0.2447 -1.1245 -0.4590
  763MOL0     C  645   7.006   8.691  10.182 -0.0673  0.3923  0.8039
  763MOL0     C  646   7.061   8.721  10.044 -0.8528 -1.0869  0.6930
  763MOL0     C  647   7.107   8.864  10.038 -0.5693 -0.5975 -0.1312
  763MOL0     C  648   7.169   8.970  10.041 -0.1624  0.4430 -0.1610
  763MOL0     C  649   6.590   8.268  10.053  0.5179  0.8314 -0.9965
  763MOL0     C  650   6.462   8.239  10.016 -0.2769 -0.3491 -0.1280
  763MOL0     H  651   5.983   8.216   9.866  1.0479  1.0379  2.7174
  763MOL0     H  652   5.735   8.248   9.856 -1.1749  0.7940  0.9188
  763MOL0     H  653   5.483   8.366   9.788 -1.3033  1.5924  1.1714
  763MOL0     H  654   5.628   8.416   9.704  0.5818 -0.9122  1.0620
  763MOL0     H  655   5.406   8.501   9.622  3.1805 -0.3760 -1.1584
  763MOL0     H  656   5.504   8.638   9.652  0.7643 -1.6864 -1.5065
  763MOL0     H  657   5.403   8.690   9.875  0.6396 -1.4192  0.8476
  763MOL0     H  658   5.341   8.532   9.891 -0.7116 -0.0781 -0.5962
  763MOL0     H  659   5.240   8.728   9.679 -3.0865 -0.9001 -1.5890
  763MOL0     H  660   5.177   8.570   9.709  0.2699 -0.4232  0.8615
  763MOL0     H  661   5.194   8.773   9.931  0.3722  0.0579  0.0846
  763MOL0     H  662   5.104   8.630   9.947 -0.8849  0.6630 -1.0273
  763MOL0     H  663   5.037   8.852   9.746 -1.8107 -1.5703 -2.1857
  763MOL0     H  664   4.981   8.841   9.917  2.0990 -3.8506  3.5688
  763MOL0     H  665   4.885   8.619   9.868 -4.0590  0.7843  1.6447
  763MOL0     H  666   4.805   8.765   9.819  0.3055 -0.4687 -0.2291
  763MOL0     H  667   4.966   8.614   9.622 -0.4680 -1.1101 -0.0901
  763MOL0     H  668   4.870   8.760   9.601  1.2289  1.5267  2.4843
  763MOL0     H  669   4.629   8.587   9.803 -1.1339  2.1748 -0.8075
  763MOL0     H  670   4.432   8.446   9.759 -1.0252  0.6494 -0.4257
  763MOL0     H  671   4.447   8.319   9.627  3.1268  1.0713 -2.8766
  763MOL0     H  672   4.309   8.593   9.595 -0.6589  0.8655 -3.0452
  763MOL0     H  673   4.227   8.441   9.606 -1.0515  1.6642 -3.4659
  763MOL0     H  674   4.413   8.548   9.389 -0.2034  0.8267  0.4462
  763MOL0     H  675   4.370   8.370   9.392 -1.4021 -0.7031 -0.2063
  763MOL0     H  676   4.232   8.478   9.239 -0.7384 -0.7863  0.8281
  763MOL0     H  677   4.202   8.620   9.343 -0.6679  0.1336  1.8659
  763MOL0     H  678   4.057   8.598   9.144 -0.1823 -1.8412 -0.8979
  763MOL0     H  679   3.839   8.605   9.032 -0.1845  0.4663  1.1651
  763MOL0     H  680   3.357   8.328   8.990  1.6250  2.5266 -2.0540
  763MOL0     H  681   3.108   8.385   8.954  0.0434  0.5637 -1.6113
  763MOL0     H  682   2.888   8.634   9.220  0.6645  1.2643 -1.6464
  763MOL0     H  683   2.942   8.458   9.220 -0.8168 -0.5332 -0.3661
  763MOL0     H  684   2.707   8.432   9.167 -0.7756  1.1414 -0.0398
  763MOL0     H  685   2.784   8.442   9.010 -2.1320 -0.9750  0.0063
  763MOL0     H  686   2.747   8.691   9.003  0.2207  1.6016  2.2478
  763MOL0     H  687   2.669   8.683   9.157  3.2825 -0.8047  1.7262
  763MOL0     H  688   2.499   8.511   9.071  1.0456  0.7259  1.9753
  763MOL0     H  689   2.485   8.674   8.976 -0.6593 -0.4034 -2.0547
  763MOL0     H  690   2.623   8.427   8.864 -0.2515  0.3536  0.4086
  763MOL0     H  691   2.604   8.600   8.794 -2.5579  2.6771  0.7419
  763MOL0     H  692   2.461   8.435   8.699  2.5426 -1.3257  0.3364
  763MOL0     H  693   2.360   8.544   8.779 -0.8548 -1.5596 -2.5559
  763MOL0     H  694   2.461   8.266   8.897  1.0906  0.4199 -0.7279
  763MOL0     H  695   2.340   8.377   8.974 -1.0596 -2.9762  0.0105
  763MOL0     H  696   2.227   8.185   8.831 -1.7294  0.8071 -0.4009
  763MOL0     H  697   2.319   8.233   8.694 -0.4860 -0.9633 -0.9437
  763MOL0     H  698   3.127   8.708   9.215 -2.2583 -0.2671 -1.5207
  763MOL0     H  699   3.371   8.631   9.286  3.3426 -0.6319 -0.7521
  763MOL0     H  700   3.675   8.322   9.308  2.5472 -1.9701  2.4954
  763MOL0     H  701   3.891   8.335   9.448  2.6715  0.3608 -0.4203
  763MOL0     H  702   5.787   8.660   9.957 -1.0621 -0.6740  1.4664
  763MOL0     H  703   6.028   8.623   9.977  0.5549 -0.3054 -1.3099
  763MOL0     H  704   6.352   8.559   9.968 -1.2436 -0.9297 -1.5001
  763MOL0     H  705   6.577   8.612  10.017 -1.6959  0.3239 -0.0597
  763MOL0     H  706   6.741   8.613  10.173  0.6199  0.8797 -0.9374
  763MOL0     H  707   6.823   8.605  10.012 -0.4930 -0.1138 -0.7967
  763MOL0     H  708   6.922   8.497  10.267  2.0134 -0.9499  0.1564
  763MOL0     H  709   7.006   8.477  10.110  1.1060  0.2367 -0.5512
  763MOL0     H  710   7.091   8.699  10.250 -0.8033  3.1455  1.5416
  763MOL0     H  711   6.934   8.769  10.208 -1.4308 -0.0049 -1.5142
  763MOL0     H  712   7.155   8.668  10.028 -0.5692 -0.1305 -1.1403
  763MOL0     H  713   6.988   8.707   9.964  2.4775 -0.7557 -2.6720
  763MOL0     H  714   7.195   9.074  10.047 -1.7627  0.8804 -0.2578
  763MOL0     H  715   6.663   8.191  10.073  1.2883  1.4919 -1.1999
  763MOL0     H  716   6.439   8.133  10.015 -1.7082 -0.0651  0.5813
  764MOL0     O  717   8.288   0.300   2.390 -0.7353 -0.6289 -0.4267
  764MOL0     C  718   8.343   0.311   2.502 -0.1326 -0.2241 -0.5183
  764MOL0     O  719   8.285   0.292   2.626  0.0819  0.7275 -0.3753
  764MOL0     C  720   8.156   0.258   2.645  0.2026 -0.2585  0.2842
  764MOL0     C  721   8.065   0.204   2.561  0.3110  0.6918  0.3197
  764MOL0     C  722   7.941   0.177   2.607  0.7070 -0.0444  0.2293
  764MOL0     C  723   7.909   0.215   2.742  0.1782  0.4106  0.8994
  764MOL0     O  724   7.782   0.185   2.789 -0.6193  0.7682 -0.0092
  764MOL0     C  725   7.716   0.287   2.859 -0.3739  0.3185  0.1520
  764MOL0     C  726   7.578   0.251   2.922  0.0518  0.0094 -0.6373
  764MOL0     C  727   7.538   0.358   3.021 -0.9793  0.3952  0.4129
  764MOL0     C  728   7.392   0.338   3.070  0.8436 -0.3061 -0.4348
  764MOL0     C  729   7.336   0.445   3.168 -0.9138 -0.2759 -0.2276
  764MOL0     C  730   7.361   0.587   3.109 -0.7527  0.5548 -0.5883
  764MOL0     C  731   7.303   0.689   3.200  0.7381  0.8717  0.1832
  764MOL0     C  732   7.167   0.748   3.170 -0.0690 -0.0921 -0.5862
  764MOL0     N  733   7.071   0.643   3.161  0.6844 -0.2970 -0.2992
  764MOL0     C  734   7.005   0.590   3.269  0.2542  0.3062  0.5909
  764MOL0     C  735   6.909   0.511   3.220  0.5953  0.6098  0.1339
  764MOL0     C  736   6.802   0.449   3.312 -0.1636  1.0318 -0.3983
  764MOL0     C  737   6.841   0.304   3.361 -0.3512  0.2070 -0.1812
  764MOL0     C  738   6.748   0.245   3.467  0.2613 -0.3010 -0.3822
  764MOL0     C  739   6.614   0.193   3.415  0.2855  0.3726 -0.0071
  764MOL0     O  740   6.513   0.278   3.449  0.6707  0.8952  0.2307
  764MOL0     C  741   6.385   0.237   3.404  0.1186  0.5267 -0.5164
  764MOL0     C  742   6.282   0.249   3.492  0.0361 -0.5641  0.2572
  764MOL0     C  743   6.155   0.218   3.462  0.2791  0.0163 -0.0441
  764MOL0     C  744   6.117   0.181   3.331 -0.4378  0.1988  0.8361
  764MOL0     C  745   5.975   0.143   3.302 -0.3416  0.2735 -0.1525
  764MOL0     O  746   5.882   0.162   3.410  0.2557 -0.2568 -0.6155
  764MOL0     C  747   5.747   0.135   3.400 -0.0395 -0.5650 -0.0624
  764MOL0     C  748   5.675   0.070   3.289 -0.4537  0.2564 -0.2123
  764MOL0     C  749   5.532   0.050   3.297 -0.1829 -0.5749  0.7515
  764MOL0     C  750   5.464   0.089   3.410  0.0796  0.1531  0.1017
  764MOL0     O  751   5.338   0.047   3.445 -0.0676  0.2739  0.2525
  764MOL0     C  752   5.296  -0.071   3.375 -0.1658  0.1830  0.2200
  764MOL0     C  753   5.206  -0.144   3.471  0.7733  0.0890  0.3562
  764MOL0     C  754   5.119  -0.252   3.406 -0.3399  0.5014  0.1109
  764MOL0     C  755   5.045  -0.332   3.518  0.9125 -0.3364 -0.2472
  764MOL0     C  756   4.950  -0.438   3.469  0.0143  0.4330 -0.1821
  764MOL0     C  757   4.884  -0.526   3.577 -0.8223 -0.3831  0.0085
  764MOL0     C  758   4.774  -0.614   3.510  0.0906 -1.2381  0.4813
  764MOL0     C  759   4.706  -0.697   3.613  0.9528 -0.5766 -0.5181
  764MOL0    Cl  760   4.559  -0.788   3.560  0.0225 -0.2839 -0.1138
  764MOL0     C  761   5.528   0.163   3.505 -0.0939 -0.5509 -0.2689
  764MOL0     C  762   5.666   0.178   3.502  0.0258 -1.3077 -0.7364
  764MOL0     O  763   5.939   0.139   3.185 -0.2196  0.6616 -0.8898
  764MOL0     C  764   6.225   0.171   3.236 -0.0669  0.3647 -0.5098
  764MOL0     C  765   6.361   0.188   3.277 -0.1541  0.1949 -0.2588
  764MOL0     N  766   6.919   0.501   3.083 -0.9273 -0.4316  0.0369
  764MOL0     N  767   7.013   0.585   3.048  0.4825  0.0727 -0.0666
  764MOL0     C  768   7.997   0.275   2.819 -0.4137 -0.1107  0.0416
  764MOL0     C  769   8.127   0.286   2.777 -0.0542  0.0848 -1.1393
  764MOL0     C  770   8.486   0.345   2.490 -0.5783 -0.8564  0.0098
  764MOL0     C  771   8.554   0.323   2.377 -0.8803  0.4147 -0.0954
  764MOL0     C  772   8.693   0.346   2.379 -0.0083  0.6893  0.5983
  764MOL0     C  773   8.766   0.384   2.490  0.1607 -0.1080  0.9591
  764MOL0     O  774   8.902   0.411   2.465 -0.4076 -0.2914  0.3944
  764MOL0     C  775   8.992   0.404   2.580  0.2843  0.9233  0.5640
  764MOL0     C  776   9.134   0.439   2.512  0.5034 -0.6791  0.2262
  764MOL0     C  777   9.122   0.563   2.419 -0.2049  0.0733  0.7547
  764MOL0     C  778   9.257   0.627   2.378 -0.1683 -0.0040 -0.8258
  764MOL0     C  779   9.344   0.520   2.322  0.4498 -0.2093 -0.1064
  764MOL0     C  780   9.406   0.420   2.287 -0.0602 -0.4556  0.3211
  764MOL0     C  781   8.692   0.407   2.603  0.8598  0.2913 -0.6036
  764MOL0     C  782   8.556   0.386   2.608 -0.1963 -0.5982 -0.0601
  764MOL0     H  783   8.100   0.186   2.460  0.5367 -0.9398  0.6685
  764MOL0     H  784   7.875   0.133   2.533  1.7338 -0.3702 -0.5154
  764MOL0     H  785   7.699   0.363   2.783 -1.3258 -1.8252 -1.9367
  764MOL0     H  786   7.774   0.319   2.946 -1.7016  0.2284  1.1169
  764MOL0     H  787   7.592   0.152   2.964 -2.6065 -0.3009 -0.3071
  764MOL0     H  788   7.507   0.240   2.839  0.7521  2.3475 -1.6342
  764MOL0     H  789   7.550   0.456   2.973  3.3030 -0.3486 -0.5073
  764MOL0     H  790   7.610   0.356   3.104  0.8622  0.0448 -1.1129
  764MOL0     H  791   7.328   0.341   2.981 -1.2169  0.7457  1.0139
  764MOL0     H  792   7.377   0.239   3.114  2.8153  1.4083  4.8867
  764MOL0     H  793   7.393   0.433   3.260 -2.4818 -1.3955  0.6571
  764MOL0     H  794   7.229   0.428   3.181 -1.3356  0.3686 -2.4976
  764MOL0     H  795   7.310   0.593   3.012 -1.7705  2.5432  0.0197
  764MOL0     H  796   7.469   0.604   3.109 -0.1301 -2.8137 -0.4557
  764MOL0     H  797   7.297   0.651   3.302  1.8989  3.2013  1.2192
  764MOL0     H  798   7.378   0.769   3.195  0.0900  1.4192 -3.8285
  764MOL0     H  799   7.164   0.811   3.081 -1.8376  0.1680 -0.3850
  764MOL0     H  800   7.146   0.815   3.254  2.7123 -2.6767  2.4560
  764MOL0     H  801   7.036   0.612   3.371  2.6926 -0.9670  0.1869
  764MOL0     H  802   6.708   0.453   3.256 -0.4430  2.5820  0.1342
  764MOL0     H  803   6.798   0.518   3.397  1.0335 -0.8709  1.2829
  764MOL0     H  804   6.947   0.308   3.391 -1.1452 -1.0935  3.2247
  764MOL0     H  805   6.822   0.237   3.277 -3.8869  0.6365  0.1591
  764MOL0     H  806   6.794   0.158   3.516 -1.2513  0.2425  2.1854
  764MOL0     H  807   6.727   0.319   3.544  2.8939  0.1581 -0.0130
  764MOL0     H  808   6.586   0.095   3.456 -1.8652  1.0980  0.4007
  764MOL0     H  809   6.622   0.170   3.308 -0.0841  2.5387 -0.5487
  764MOL0     H  810   6.299   0.285   3.593 -0.1720 -2.1513  0.8992
  764MOL0     H  811   6.090   0.234   3.547  0.7716 -0.8944  0.5267
  764MOL0     H  812   5.725   0.033   3.199 -1.9801  1.6533 -1.7027
  764MOL0     H  813   5.485  -0.002   3.214  1.2617 -3.4086  1.5508
  764MOL0     H  814   5.378  -0.140   3.354  3.7804  4.5777 -0.3980
  764MOL0     H  815   5.242  -0.061   3.280 -3.5733 -0.8462  1.8542
  764MOL0     H  816   5.135  -0.071   3.511  0.2620 -0.6416  0.8120
  764MOL0     H  817   5.277  -0.169   3.550 -0.1482  0.5858  1.3725
  764MOL0     H  818   5.182  -0.330   3.361 -0.1534  0.8358 -0.2175
  764MOL0     H  819   5.047  -0.212   3.335  0.6468  2.1600 -0.0160
  764MOL0     H  820   5.117  -0.350   3.598  0.2951  0.6195  0.5448
  764MOL0     H  821   4.976  -0.259   3.560  1.1843  0.8187 -1.7111
  764MOL0     H  822   5.008  -0.502   3.402 -0.8041  0.7519 -1.2273
  764MOL0     H  823   4.871  -0.385   3.415 -0.3878  0.9619  0.8906
  764MOL0     H  824   4.846  -0.456   3.652 -0.4831  0.3957 -0.5330
  764MOL0     H  825   4.960  -0.593   3.618  2.5849  1.7425 -2.3056
  764MOL0     H  826   4.699  -0.545   3.469  1.3671  0.1701  0.4342
  764MOL0     H  827   4.799  -0.662   3.415 -1.3204 -0.7480 -0.1657
  764MOL0     H  828   4.673  -0.631   3.694 -0.1381 -2.4797  0.6531
  764MOL0     H  829   4.782  -0.758   3.662  0.6364  0.8886  1.9595
  764MOL0     H  830   5.493   0.190   3.604 -0.1391 -0.6359 -0.2620
  764MOL0     H  831   5.712   0.218   3.591 -0.1165 -1.1276 -0.7449
  764MOL0     H  832   6.215   0.140   3.132  1.9270  0.7935 -0.8661
  764MOL0     H  833   6.428   0.176   3.193  1.3479  3.1964  0.3769
  764MOL0     H  834   7.974   0.317   2.917 -0.7323 -1.8382  0.7413
  764MOL0     H  835   8.201   0.338   2.836 -0.2483  0.2587 -1.0478
  764MOL0     H  836   8.505   0.278   2.290 -0.2596  0.3831 -0.4323
  764MOL0     H  837   8.745   0.333   2.285  0.7957  1.7207  0.8852
  764MOL0     H  838   9.005   0.301   2.614  0.9762  1.1051  0.8760
  764MOL0     H  839   8.952   0.464   2.662  0.1443  1.8946 -0.1950
  764MOL0     H  840   9.200   0.456   2.598 -0.8312  1.0330  0.9691
  764MOL0     H  841   9.177   0.355   2.458  1.4913 -1.4221  2.0838
  764MOL0     H  842   9.070   0.640   2.476 -1.4524  2.8933 -3.7043
  764MOL0     H  843   9.067   0.542   2.327  2.6957 -1.8612 -0.6919
  764MOL0     H  844   9.237   0.715   2.317  3.6665  0.9363 -0.9335
  764MOL0     H  845   9.299   0.668   2.471  0.2101 -2.1224 -0.0063
  764MOL0     H  846   9.458   0.334   2.250 -0.2129  0.3331 -1.9130
  764MOL0     H  847   8.741   0.444   2.693 -1.0205  2.3010 -0.3498
  764MOL0     H  848   8.492   0.395   2.696 -0.7817  1.0568 -0.6044
  765MOL0     O  849  10.509   0.946   9.889 -0.2890  0.0637 -0.0646
  765MOL0     C  850  10.619   0.968   9.832  0.1068 -0.3430 -0.2827
  765MOL0     O  851  10.641   1.067   9.736  0.2368  0.0171  0.1612
  765MOL0     C  852  10.543   1.166   9.717 -0.1166 -0.5022  0.0009
  765MOL0     C  853  10.405   1.139   9.696 -0.2218 -0.3683 -0.1736
  765MOL0     C  854  10.309   1.242   9.680 -0.4919 -0.1915  0.1273
  765MOL0     C  855  10.360   1.369   9.668 -0.4776 -0.1172  0.2911
  765MOL0     O  856  10.269   1.469   9.645  0.3323  0.1424 -0.5122
  765MOL0     C  857  10.293   1.583   9.557 -0.2957 -1.0048 -0.3413
  765MOL0     C  858  10.240   1.720   9.619  0.1672 -0.1657  0.9677
  765MOL0     C  859  10.090   1.709   9.667 -0.3586 -0.2113 -0.3467
  765MOL0     C  860  10.037   1.835   9.724 -0.5999 -0.1440  0.1321
  765MOL0     C  861   9.885   1.803   9.775  0.7282 -0.7274  0.1000
  765MOL0     C  862   9.813   1.926   9.830 -0.3119  0.3832  0.5705
  765MOL0     C  863   9.672   1.896   9.895  0.2067  0.1055  0.5172
  765MOL0     C  864   9.606   2.020   9.958 -0.7779 -0.4701 -0.2682
  765MOL0     N  865   9.470   1.987  10.002 -0.4126 -0.3724  0.4988
  765MOL0     C  866   9.352   1.953   9.927 -0.1544 -0.7457 -0.0938
  765MOL0     C  867   9.262   1.911  10.019 -0.6035 -0.3966  0.4312
  765MOL0     C  868   9.121   1.871   9.987 -0.0122  0.5531  0.4304
  765MOL0     C  869   9.062   1.939   9.863  0.6113  0.3012 -0.2118
  765MOL0     C  870   8.994   2.070   9.881 -0.7411 -0.5694 -0.3971
  765MOL0     C  871   8.852   2.065   9.929 -0.0552  0.5188 -0.8680
  765MOL0     O  872   8.748   2.031   9.840  0.4689  0.3922 -0.4637
  765MOL0     C  873   8.620   2.068   9.888 -0.5688 -0.5203  0.7092
  765MOL0     C  874   8.578   2.106  10.023 -0.3636 -0.1925 -0.0504
  765MOL0     C  875   8.448   2.141  10.053 -0.8558  0.5798 -1.0153
  765MOL0     C  876   8.354   2.160   9.951 -0.2446  0.0515  0.1430
  765MOL0     C  877   8.221   2.205   9.989 -0.3449 -0.2370  0.0578
  765MOL0     O  878   8.131   2.211   9.887 -0.4312 -0.3025  0.2474
  765MOL0     C  879   7.996   2.234   9.914  0.2763  0.9849 -0.3827
  765MOL0     C  880   7.945   2.359   9.891  0.3433  0.5193  1.1190
  765MOL0     C  881   7.817   2.386   9.922 -0.4668  0.1909 -0.3714
  765MOL0     C  882   7.729   2.304   9.985  0.3904  0.4700 -0.3963
  765MOL0     O  883   7.603   2.347  10.022  0.3999  0.0917 -0.5493
  765MOL0     C  884   7.507   2.248  10.067  0.1496 -0.2010 -0.2351
  765MOL0     C  885   7.367   2.304  10.086  0.0681  0.6800 -0.1693
  765MOL0     C  886   7.330   2.398   9.968 -0.4337  0.0882  0.3726
  765MOL0     C  887   7.186   2.455   9.966 -0.0269  0.9666  0.0468
  765MOL0     C  888   7.136   2.521   9.834  0.5536  0.0514  0.5492
  765MOL0     C  889   6.985   2.566   9.829 -0.0203 -0.4918 -0.3615
  765MOL0     C  890   6.943   2.594   9.687 -0.1537  0.3119  0.2373
  765MOL0     C  891   6.807   2.653   9.666  0.2960 -0.6823 -0.5915
  765MOL0    Cl  892   6.808   2.822   9.738 -0.2534  0.1304  0.0385
  765MOL0     C  893   7.778   2.173  10.004  0.4031 -0.1299 -0.6663
  765MOL0     C  894   7.911   2.133   9.973  1.0216  1.0263 -0.1333
  765MOL0     O  895   8.193   2.233  10.110 -0.1919  0.4214 -0.0698
  765MOL0     C  896   8.391   2.139   9.817 -0.1935 -0.2915 -0.3483
  765MOL0     C  897   8.518   2.085   9.791 -1.3795  0.6502  0.9080
  765MOL0     N  898   9.318   1.927  10.143 -0.2194 -0.2829  0.0404
  765MOL0     N  899   9.444   1.962  10.132 -0.6097 -0.5104  0.5709
  765MOL0     C  900  10.496   1.400   9.678  0.5945  0.3564  0.4594
  765MOL0     C  901  10.588   1.298   9.714  1.1003 -0.8887  0.2273
  765MOL0     C  902  10.728   0.879   9.857 -1.8142  0.4584 -0.4195
  765MOL0     C  903  10.862   0.907   9.826  0.0140 -0.3181 -0.3788
  765MOL0     C  904  10.967   0.818   9.846 -0.0198 -0.3656  0.2894
  765MOL0     C  905  10.950   0.699   9.913  0.5048 -0.8119  0.3890
  765MOL0     O  906  11.041   0.601   9.935  0.0266  0.1824 -0.1313
  765MOL0     C  907  11.161   0.595   9.855  0.2998 -0.0195 -0.5455
  765MOL0     C  908  11.281   0.660   9.925  0.7434 -0.5935 -0.8492
  765MOL0     C  909  11.328   0.578  10.038 -0.5471 -0.4619 -0.8703
  765MOL0     C  910  11.423   0.652  10.133  0.1212  0.2991  0.4090
  765MOL0     C  911  11.424   0.579  10.266  0.2157 -1.1608  0.6873
  765MOL0     C  912  11.426   0.523  10.374 -0.1165 -0.7291  0.0345
  765MOL0     C  913  10.823   0.669   9.952 -0.1250 -0.0536 -0.3006
  765MOL0     C  914  10.712   0.757   9.924 -0.1748 -0.3198 -0.3268
  765MOL0     H  915  10.367   1.038   9.684 -0.3398 -0.2939 -0.4203
  765MOL0     H  916  10.203   1.221   9.671 -0.4000 -0.0344 -1.6211
  765MOL0     H  917  10.253   1.562   9.458  0.7909  4.4703 -2.3048
  765MOL0     H  918  10.399   1.608   9.546 -0.1071 -2.1972 -1.2981
  765MOL0     H  919  10.255   1.811   9.560  1.7544  0.9042  2.9039
  765MOL0     H  920  10.291   1.730   9.715 -1.1862 -1.0212  1.8001
  765MOL0     H  921  10.101   1.646   9.755  0.3678  2.0231  1.2522
  765MOL0     H  922  10.025   1.665   9.591  0.1680 -2.2906  0.3392
  765MOL0     H  923  10.104   1.859   9.806 -1.9595 -0.9101  1.5149
  765MOL0     H  924  10.039   1.920   9.655 -2.4184  0.8382  1.2142
  765MOL0     H  925   9.890   1.725   9.852 -0.8374 -0.9793 -0.0113
  765MOL0     H  926   9.819   1.756   9.701 -1.2472  0.1235  1.2396
  765MOL0     H  927   9.807   2.003   9.753  1.7609  1.0255  0.9952
  765MOL0     H  928   9.869   1.964   9.916 -1.6207 -2.1939  2.7275
  765MOL0     H  929   9.608   1.858   9.815 -0.5380  3.2849 -0.5477
  765MOL0     H  930   9.687   1.820   9.972  1.4041  0.2292  0.4256
  765MOL0     H  931   9.613   2.099   9.882  5.2475  0.9041  1.2112
  765MOL0     H  932   9.661   2.070  10.038 -2.0701 -1.1916  1.1338
  765MOL0     H  933   9.354   1.955   9.819  1.2998  0.5128 -0.0733
  765MOL0     H  934   9.058   1.889  10.075  0.2840  1.3987  0.4737
  765MOL0     H  935   9.123   1.762   9.978 -4.6059  0.4509 -2.6063
  765MOL0     H  936   8.988   1.864   9.835 -1.6290  2.0096  0.8438
  765MOL0     H  937   9.139   1.954   9.786 -0.4785 -1.4632 -1.7305
  765MOL0     H  938   9.059   2.126   9.948 -1.7648  1.7624 -1.2502
  765MOL0     H  939   9.004   2.119   9.784  0.4543  2.3756  1.0926
  765MOL0     H  940   8.830   2.164   9.969 -1.0595 -0.9166  2.5077
  765MOL0     H  941   8.843   2.000  10.017 -2.2814  1.6592 -0.1601
  765MOL0     H  942   8.654   2.091  10.099  2.2183 -1.8431 -2.7081
  765MOL0     H  943   8.420   2.138  10.158  2.4943 -1.2979 -0.0047
  765MOL0     H  944   8.018   2.431   9.856  2.0677 -1.2028  0.9935
  765MOL0     H  945   7.795   2.489   9.897  1.0397  0.5695 -0.2118
  765MOL0     H  946   7.541   2.200  10.159  0.2609  0.0232 -0.1577
  765MOL0     H  947   7.502   2.178   9.984 -1.0565  0.4617 -0.7494
  765MOL0     H  948   7.370   2.368  10.174  2.1953 -1.0213  1.0878
  765MOL0     H  949   7.292   2.227  10.107  2.2641 -2.2625 -2.2441
  765MOL0     H  950   7.346   2.342   9.875 -0.4832  0.5427  0.0898
  765MOL0     H  951   7.400   2.482   9.972 -1.0663  0.5754  1.7721
  765MOL0     H  952   7.117   2.372   9.982  0.5635  0.3193 -0.6838
  765MOL0     H  953   7.178   2.524  10.050 -0.9833 -1.3270  1.9503
  765MOL0     H  954   7.142   2.443   9.757 -2.2680  0.1685  0.0804
  765MOL0     H  955   7.201   2.601   9.798 -2.0106  1.4284 -1.4096
  765MOL0     H  956   6.968   2.663   9.877 -0.0431 -1.4456  1.6525
  765MOL0     H  957   6.914   2.494   9.872 -0.4620 -0.0116 -0.2749
  765MOL0     H  958   7.021   2.665   9.656 -0.7547  1.8101  1.9424
  765MOL0     H  959   6.971   2.504   9.633  3.2640  0.6664  1.1631
  765MOL0     H  960   6.735   2.599   9.728  0.4501 -1.6117 -1.2000
  765MOL0     H  961   6.775   2.647   9.562 -0.7043 -2.1059 -0.2370
  765MOL0     H  962   7.721   2.102  10.062  2.9235 -0.4910  1.5434
  765MOL0     H  963   7.942   2.031   9.993  1.7209  1.3381  0.4278
  765MOL0     H  964   8.327   2.166   9.735 -1.2834  1.5069  1.0229
  765MOL0     H  965   8.543   2.065   9.687  0.5800 -0.0576  1.4828
  765MOL0     H  966  10.537   1.497   9.651 -0.9872  1.9591  3.3006
  765MOL0     H  967  10.688   1.327   9.742  0.8013  0.1378  0.2688
  765MOL0     H  968  10.886   1.002   9.779  4.0490 -0.0343  1.8554
  765MOL0     H  969  11.062   0.844   9.801 -0.2925  0.7322  0.3204
  765MOL0     H  970  11.149   0.624   9.751  2.2739 -2.2952 -1.5096
  765MOL0     H  971  11.194   0.491   9.843 -0.7561 -0.2088 -2.0638
  765MOL0     H  972  11.361   0.684   9.854  1.9626 -0.4425  0.5375
  765MOL0     H  973  11.239   0.753   9.964  2.1103 -0.4428  0.3147
  765MOL0     H  974  11.373   0.484  10.004 -1.8395 -1.8934  1.1639
  765MOL0     H  975  11.245   0.551  10.104 -0.1980 -0.1015 -0.2751
  765MOL0     H  976  11.522   0.645  10.086 -0.8293 -1.5811 -1.4706
  765MOL0     H  977  11.384   0.754  10.142 -0.7246  0.2808 -2.2967
  765MOL0     H  978  11.428   0.474  10.469  1.2801  2.0057  1.5432
  765MOL0     H  979  10.824   0.573  10.002  1.0305 -1.0734 -2.1862
  765MOL0     H  980  10.614   0.723   9.958 -0.2353  2.5743  2.9001
  766MOL0     O  981   6.219   0.498  10.893 -0.5681 -0.1600 -0.1699
  766MOL0     C  982   6.162   0.448  10.995 -0.0947 -1.0184 -0.1245
  766MOL0     O  983   6.032   0.469  11.032 -0.1721  0.0693  0.6802
  766MOL0     C  984   5.956   0.562  10.958 -1.0454 -0.0431 -0.1163
  766MOL0     C  985   5.962   0.700  10.984 -0.7971 -0.0783 -0.6082
  766MOL0     C  986   5.887   0.800  10.921  0.6040 -0.8649  0.3502
  766MOL0     C  987   5.796   0.766  10.825 -0.3187  0.9609 -0.6304
  766MOL0     O  988   5.721   0.855  10.754 -0.1445  0.1313 -0.4846
  766MOL0     C  989   5.654   0.965  10.824 -0.9459  0.0160 -0.0673
  766MOL0     C  990   5.547   1.031  10.737  0.2125  0.1639  1.0447
  766MOL0     C  991   5.618   1.119  10.625 -0.0136 -0.2199  0.1744
  766MOL0     C  992   5.527   1.181  10.520  0.3960 -0.3549  0.2271
  766MOL0     C  993   5.453   1.075  10.425 -0.2436  0.2773 -0.1691
  766MOL0     C  994   5.330   1.141  10.355  0.8533 -0.1588  1.0384
  766MOL0     C  995   5.255   1.039  10.265  0.2990 -0.3827 -0.2134
  766MOL0     C  996   5.129   1.097  10.205  0.3578  0.6912  0.7590
  766MOL0     N  997   5.041   0.986  10.158 -0.1122  0.5724  0.0586
  766MOL0     C  998   4.957   0.998  10.049  0.1484  0.1472 -0.0268
  766MOL0     C  999   4.865   0.899  10.053 -0.3776 -0.0688 -0.2077
  766MOL0     C 1000   4.740   0.907   9.970  0.5676  0.2407  0.1568
  766MOL0     C 1001   4.638   0.805  10.019  0.3975  0.3825 -0.6002
  766MOL0     C 1002   4.537   0.785   9.904  0.0720  0.1602 -0.2307
  766MOL0     C 1003   4.424   0.684   9.937  0.5116  0.1383 -0.4781
  766MOL0     O 1004   4.296   0.722   9.873 -0.0855  0.2089  0.1212
  766MOL0     C 1005   4.193   0.641   9.883  0.4036  0.4351  0.6519
  766MOL0     C 1006   4.075   0.677   9.818  0.3019  0.3502  0.3421
  766MOL0     C 1007   3.970   0.585   9.816 -0.5451  1.0430  0.4435
  766MOL0     C 1008   3.973   0.475   9.902  0.5272  0.3929 -0.0925
  766MOL0     C 1009   3.855   0.383   9.904  0.0651  1.2895 -0.5475
  766MOL0     O 1010   3.733   0.445   9.877  0.2467  0.1950  0.1724
  766MOL0     C 1011   3.624   0.423   9.955 -0.6442 -0.3791 -0.6316
  766MOL0     C 1012   3.617   0.331  10.066 -0.3908 -0.7939  0.1775
  766MOL0     C 1013   3.493   0.299  10.126 -0.3059  0.3001  0.4881
  766MOL0     C 1014   3.377   0.355  10.072 -0.2244  0.5855  1.0711
  766MOL0     O 1015   3.256   0.342  10.128 -0.0988  0.1044 -0.0108
  766MOL0     C 1016   3.251   0.390  10.266 -0.3435  0.9041  0.0760
  766MOL0     C 1017   3.107   0.415  10.314 -0.1413  0.6427  0.3372
  766MOL0     C 1018   3.032   0.494  10.211  0.2704 -0.1999  0.5830
  766MOL0     C 1019   2.880   0.504  10.249 -0.1425  0.1128 -0.2045
  766MOL0     C 1020   2.845   0.525  10.392  1.0896 -0.2147  0.6964
  766MOL0     C 1021   2.698   0.579  10.405 -0.3676  0.0079  0.0563
  766MOL0     C 1022   2.585   0.493  10.345 -0.0418 -0.4162 -0.0205
  766MOL0     C 1023   2.443   0.530  10.410 -0.7415  1.0742  0.3926
  766MOL0    Cl 1024   2.313   0.409  10.365  0.3856 -0.0212  0.0785
  766MOL0     C 1025   3.383   0.430   9.958  0.8428 -0.3383  0.1478
  766MOL0     C 1026   3.501   0.473   9.900 -0.0593 -0.2262  0.2661
  766MOL0     O 1027   3.868   0.270   9.951 -0.1927 -0.9490 -0.2939
  766MOL0     C 1028   4.083   0.454   9.986 -0.0442 -0.2742  0.1791
  766MOL0     C 1029   4.194   0.534   9.971 -0.2991 -0.5595  0.1026
  766MOL0     N 1030   4.904   0.818  10.158  0.4883  0.3134 -0.0003
  766MOL0     N 1031   5.006   0.872  10.230  0.0930 -0.1895  0.0173
  766MOL0     C 1032   5.777   0.627  10.800 -0.7766  0.4284 -0.4164
  766MOL0     C 1033   5.861   0.527  10.862  1.0312  0.2957  1.2575
  766MOL0     C 1034   6.235   0.340  11.063  0.1027 -0.1134 -0.4460
  766MOL0     C 1035   6.343   0.280  10.999 -0.5338  0.6330  0.0242
  766MOL0     C 1036   6.433   0.208  11.069 -0.3270 -0.2632 -0.2605
  766MOL0     C 1037   6.403   0.171  11.199 -0.4950  0.4098  0.3667
  766MOL0     O 1038   6.498   0.095  11.254  0.4342 -0.0687 -0.6787
  766MOL0     C 1039   6.534   0.113  11.395  0.8707 -0.3360 -0.5512
  766MOL0     C 1040   6.620  -0.002  11.421 -0.2210 -0.3807 -0.1793
  766MOL0     C 1041   6.544  -0.118  11.484  0.5336  0.0768  0.7672
  766MOL0     C 1042   6.437  -0.187  11.393 -0.7061  0.0756 -0.1129
  766MOL0     C 1043   6.356  -0.286  11.473 -0.8526  0.0835 -0.3718
  766MOL0     C 1044   6.291  -0.376  11.537  0.8452  0.4817 -0.6599
  766MOL0     C 1045   6.280   0.210  11.264 -1.0325 -0.4283 -1.0252
  766MOL0     C 1046   6.201   0.302  11.191 -0.9138 -0.4749  0.6035
  766MOL0     H 1047   6.039   0.732  11.054 -2.5093 -0.6625  1.6676
  766MOL0     H 1048   5.915   0.902  10.944  2.8001 -1.9860  3.3823
  766MOL0     H 1049   5.725   1.044  10.850 -3.0581  2.9059 -2.4278
  766MOL0     H 1050   5.613   0.929  10.918  0.5277  2.8160  1.8091
  766MOL0     H 1051   5.483   1.097  10.795 -0.8226 -0.2821  0.4325
  766MOL0     H 1052   5.487   0.947  10.699  0.3128  0.1854  0.8385
  766MOL0     H 1053   5.696   1.059  10.577 -2.1483 -4.0803  1.0892
  766MOL0     H 1054   5.667   1.202  10.677  0.7161  0.8707 -2.1356
  766MOL0     H 1055   5.456   1.251  10.565 -0.2509  0.3445 -1.7406
  766MOL0     H 1056   5.591   1.246  10.460 -2.0797  3.4956  1.3653
  766MOL0     H 1057   5.419   0.982  10.473  0.4053  0.2057  0.1605
  766MOL0     H 1058   5.531   1.042  10.355 -0.1620  2.2639 -1.0694
  766MOL0     H 1059   5.372   1.210  10.282  0.1603 -0.8031  0.0165
  766MOL0     H 1060   5.259   1.189  10.424 -0.5591 -2.4256  1.2710
  766MOL0     H 1061   5.322   0.999  10.189  1.2807 -1.2122  1.0433
  766MOL0     H 1062   5.232   0.948  10.322 -2.0197 -1.7072 -3.0376
  766MOL0     H 1063   5.153   1.168  10.125 -0.8043  0.3057  0.0536
  766MOL0     H 1064   5.068   1.148  10.280 -3.0131 -1.3811 -0.3703
  766MOL0     H 1065   4.966   1.082   9.982  2.9581  1.5419  1.8926
  766MOL0     H 1066   4.783   0.882   9.872 -2.6384  0.2532 -1.3902
  766MOL0     H 1067   4.691   1.005   9.964  0.6554  0.2029 -2.0951
  766MOL0     H 1068   4.583   0.844  10.105 -0.3384 -1.0095 -0.3921
  766MOL0     H 1069   4.691   0.712  10.042 -1.7896 -1.3858 -2.1241
  766MOL0     H 1070   4.493   0.885   9.898  1.1450  0.7901  1.4670
  766MOL0     H 1071   4.589   0.761   9.811 -0.3098 -0.8559 -0.1986
  766MOL0     H 1072   4.400   0.703  10.042 -1.7641  1.2615 -1.1407
  766MOL0     H 1073   4.450   0.579   9.921  0.4051 -0.3387  2.1087
  766MOL0     H 1074   4.069   0.765   9.754  1.1922  0.2332  0.0897
  766MOL0     H 1075   3.875   0.613   9.772 -0.5150  4.4784  2.1874
  766MOL0     H 1076   3.707   0.291  10.111 -2.0992 -2.4068  2.4303
  766MOL0     H 1077   3.478   0.240  10.216  0.5308 -1.3013 -0.3741
  766MOL0     H 1078   3.306   0.485  10.269  1.2390  0.0428 -0.6292
  766MOL0     H 1079   3.303   0.329  10.341  0.4897  1.1087 -0.3299
  766MOL0     H 1080   3.119   0.473  10.406  0.2414  1.1411 -0.0197
  766MOL0     H 1081   3.061   0.317  10.323 -0.2308  0.6432 -0.0731
  766MOL0     H 1082   3.040   0.450  10.111  4.5332  2.2659 -0.3991
  766MOL0     H 1083   3.068   0.596  10.197 -0.3482 -0.2865 -2.2580
  766MOL0     H 1084   2.841   0.582  10.183  0.7174 -0.4724 -1.4515
  766MOL0     H 1085   2.830   0.413  10.213  1.9114 -0.5810 -1.5343
  766MOL0     H 1086   2.910   0.606  10.428  0.8679  0.1118  0.3721
  766MOL0     H 1087   2.870   0.431  10.442 -1.1314  0.2269  2.8388
  766MOL0     H 1088   2.699   0.683  10.371 -0.7571  0.0231  0.0945
  766MOL0     H 1089   2.695   0.587  10.514  3.8146 -0.4651  0.3930
  766MOL0     H 1090   2.579   0.503  10.236 -0.8870  0.2877  0.0769
  766MOL0     H 1091   2.595   0.389  10.377  0.7959 -0.5716 -0.7605
  766MOL0     H 1092   2.414   0.621  10.358  0.1381  1.7075  0.9697
  766MOL0     H 1093   2.440   0.546  10.518 -0.3677  6.7306 -0.1464
  766MOL0     H 1094   3.286   0.463   9.922  0.6301 -2.8954 -1.9289
  766MOL0     H 1095   3.508   0.540   9.815  0.5096 -0.4586  0.1263
  766MOL0     H 1096   4.079   0.373  10.058  2.7036  1.0066  1.9372
  766MOL0     H 1097   4.279   0.506  10.032  0.4952 -2.8736 -1.8803
  766MOL0     H 1098   5.706   0.592  10.726 -2.3233  1.1471  0.6850
  766MOL0     H 1099   5.872   0.421  10.841  1.2959  0.9404 -2.3728
  766MOL0     H 1100   6.366   0.298  10.895 -0.3985  0.9485  0.1081
  766MOL0     H 1101   6.521   0.172  11.016  1.6041  0.4406  2.3169
  766MOL0     H 1102   6.447   0.114  11.461  0.9939  0.8738 -0.3711
  766MOL0     H 1103   6.584   0.209  11.414 -0.8049 -0.1346  3.9569
  766MOL0     H 1104   6.660  -0.041  11.327  0.7142 -0.3785  0.2113
  766MOL0     H 1105   6.707   0.022  11.483  2.1814 -3.3029 -2.1196
  766MOL0     H 1106   6.478  -0.086  11.565 -2.1963  1.2638 -1.7563
  766MOL0     H 1107   6.618  -0.193  11.514  0.8519  0.7709  1.7795
  766MOL0     H 1108   6.365  -0.114  11.355  0.3330  1.4029  0.3884
  766MOL0     H 1109   6.491  -0.230  11.307 -1.7356  0.0083 -0.7480
  766MOL0     H 1110   6.241  -0.447  11.600  1.6608  0.3759 -0.1090
  766MOL0     H 1111   6.262   0.175  11.365  0.2273 -1.0765 -1.0138
  766MOL0     H 1112   6.106   0.338  11.227 -2.0773 -2.8884  0.1422
  767MOL0     O 1113   5.033   6.848  11.002 -0.1481 -0.7047  0.2436
  767MOL0     C 1114   5.090   6.790  11.093  0.2396  0.7526  0.7247
  767MOL0     O 1115   5.092   6.656  11.119  0.5997  0.2601  0.3681
  767MOL0     C 1116   5.035   6.562  11.031 -0.4305 -0.1530  0.3246
  767MOL0     C 1117   5.015   6.436  11.081 -0.2082 -1.4896 -0.1859
  767MOL0     C 1118   4.945   6.336  11.012 -0.1245  0.3607  0.6919
  767MOL0     C 1119   4.907   6.359  10.874 -0.0513  0.7031  0.0655
  767MOL0     O 1120   4.830   6.272  10.799 -0.1842  0.1232 -0.4100
  767MOL0     C 1121   4.823   6.130  10.839 -0.2869  0.2093 -0.5850
  767MOL0     C 1122   4.764   6.050  10.723 -0.9077  0.5644 -0.5102
  767MOL0     C 1123   4.628   5.996  10.781 -0.0529 -0.5485  0.0567
  767MOL0     C 1124   4.578   5.903  10.669  0.7618  0.0712  0.0322
  767MOL0     C 1125   4.494   5.783  10.715  1.1256 -0.5081 -0.7445
  767MOL0     C 1126   4.395   5.736  10.603  0.5654  0.7176 -0.6181
  767MOL0     C 1127   4.326   5.598  10.623  0.3404 -0.5786  0.4014
  767MOL0     C 1128   4.407   5.473  10.619  0.0142  0.4876 -0.2378
  767MOL0     N 1129   4.335   5.347  10.642  0.6352  0.3767 -0.6789
  767MOL0     C 1130   4.261   5.275  10.541  0.0111 -0.1546  0.5457
  767MOL0     C 1131   4.203   5.170  10.603  0.0479 -0.2780  0.2890
  767MOL0     C 1132   4.120   5.068  10.536  0.9924  0.3970 -0.4077
  767MOL0     C 1133   4.150   4.925  10.580  0.1278 -0.0821  0.2680
  767MOL0     C 1134   4.057   4.833  10.504 -0.4756 -0.1065  0.3289
  767MOL0     C 1135   4.103   4.698  10.558  0.1576 -0.6657 -0.2581
  767MOL0     O 1136   4.020   4.591  10.504  0.0851  0.1666 -0.0304
  767MOL0     C 1137   4.033   4.533  10.378 -0.9754 -0.2899  0.1978
  767MOL0     C 1138   3.942   4.437  10.338 -0.8901 -0.5939 -0.2555
  767MOL0     C 1139   3.942   4.387  10.201 -0.4145 -0.4376  0.3499
  767MOL0     C 1140   4.037   4.430  10.108 -0.1814  0.1954 -0.3960
  767MOL0     C 1141   4.038   4.387   9.963  0.2728  0.7102 -0.2100
  767MOL0     O 1142   4.140   4.445   9.889 -0.6881 -0.3772  0.3517
  767MOL0     C 1143   4.142   4.447   9.751  0.1786  0.9587  0.2807
  767MOL0     C 1144   4.129   4.332   9.665 -0.6211 -0.7401 -0.6416
  767MOL0     C 1145   4.151   4.341   9.522  0.3908 -0.2866  0.0309
  767MOL0     C 1146   4.181   4.467   9.470 -0.7089  1.1932  0.8140
  767MOL0     O 1147   4.173   4.474   9.331 -0.6166 -0.7753  0.4650
  767MOL0     C 1148   4.226   4.593   9.265  0.1247 -0.6904  0.0553
  767MOL0     C 1149   4.371   4.619   9.280  0.0480  0.0975 -0.3491
  767MOL0     C 1150   4.428   4.723   9.180  0.0847 -0.0481  0.3176
  767MOL0     C 1151   4.380   4.867   9.210  0.1790  0.5433  0.1880
  767MOL0     C 1152   4.443   4.971   9.122 -0.9182 -0.3633  0.5949
  767MOL0     C 1153   4.403   4.945   8.977  1.0647 -0.6221  0.4823
  767MOL0     C 1154   4.451   5.058   8.876 -0.3846  0.7267  0.2647
  767MOL0     C 1155   4.433   5.207   8.917 -0.0748  0.9626  0.4569
  767MOL0    Cl 1156   4.434   5.302   8.755  0.1232  0.0333  0.5181
  767MOL0     C 1157   4.188   4.580   9.554  0.6551  0.2890  0.0885
  767MOL0     C 1158   4.170   4.567   9.692 -0.3847  0.1638 -0.0282
  767MOL0     O 1159   3.966   4.296   9.926  0.8773 -0.0108  0.0115
  767MOL0     C 1160   4.131   4.530  10.147  0.7558  0.7092 -0.3184
  767MOL0     C 1161   4.125   4.585  10.279  0.3723 -0.2798 -0.1975
  767MOL0     N 1162   4.225   5.186  10.742 -0.6394 -0.0488 -0.4678
  767MOL0     N 1163   4.298   5.290  10.767  0.2396 -0.3753  0.7333
  767MOL0     C 1164   4.937   6.478  10.810  0.3550  1.2850 -0.7944
  767MOL0     C 1165   4.988   6.579  10.892 -0.5771 -0.3811  0.4884
  767MOL0     C 1166   5.172   6.877  11.177 -0.0163 -0.6225 -0.5504
  767MOL0     C 1167   5.256   6.829  11.281 -0.2036  0.2262  0.4589
  767MOL0     C 1168   5.317   6.911  11.376 -0.1844 -0.3884  0.9708
  767MOL0     C 1169   5.291   7.051  11.384  0.2198 -0.5560  0.2376
  767MOL0     O 1170   5.342   7.140  11.473  0.5606 -0.1810 -0.3580
  767MOL0     C 1171   5.376   7.086  11.603 -0.0362  0.2752 -0.2716
  767MOL0     C 1172   5.435   7.193  11.699  0.0462 -0.2662  0.1954
  767MOL0     C 1173   5.582   7.243  11.670 -0.7334 -0.0931  0.4571
  767MOL0     C 1174   5.579   7.370  11.567 -0.6589 -0.2274  0.2264
  767MOL0     C 1175   5.685   7.470  11.576  0.0034 -0.7796 -0.6491
  767MOL0     C 1176   5.775   7.551  11.587 -0.0589  0.3716 -0.4936
  767MOL0     C 1177   5.220   7.102  11.273  0.0115 -0.1326  1.2985
  767MOL0     C 1178   5.166   7.015  11.175 -0.1158  0.1445  0.5630
  767MOL0     H 1179   5.040   6.416  11.185  0.0544  0.9460  0.2617
  767MOL0     H 1180   4.926   6.243  11.064  2.2876 -0.3826  0.3428
  767MOL0     H 1181   4.768   6.106  10.930  1.3248 -2.2022 -0.1477
  767MOL0     H 1182   4.928   6.099  10.847  0.0947  1.3956 -0.8395
  767MOL0     H 1183   4.825   5.963  10.696 -1.7000  0.4363 -2.0015
  767MOL0     H 1184   4.765   6.106  10.629  0.0465  0.5934 -0.4843
  767MOL0     H 1185   4.553   6.073  10.801  0.0405 -0.9276  1.9982
  767MOL0     H 1186   4.636   5.942  10.875  0.3613  2.3520  1.7988
  767MOL0     H 1187   4.520   5.969  10.604  0.1686 -0.1334  0.3489
  767MOL0     H 1188   4.652   5.863  10.599 -1.1286  0.1795 -2.1644
  767MOL0     H 1189   4.441   5.811  10.807  0.1960 -0.5726 -1.2484
  767MOL0     H 1190   4.553   5.697  10.745 -1.9869 -2.1939  1.1112
  767MOL0     H 1191   4.458   5.738  10.514 -0.0513 -0.8264 -1.1281
  767MOL0     H 1192   4.316   5.806  10.572  1.0237  1.2969 -0.4886
  767MOL0     H 1193   4.283   5.611  10.722 -1.0091 -2.1308  0.0803
  767MOL0     H 1194   4.236   5.586  10.561 -1.1383  0.4010  2.2602
  767MOL0     H 1195   4.482   5.480  10.698 -4.2169 -1.3451  4.4547
  767MOL0     H 1196   4.464   5.476  10.526  0.1928  1.6374 -0.0964
  767MOL0     H 1197   4.259   5.291  10.434  1.0453 -0.8139  0.4124
  767MOL0     H 1198   4.132   5.073  10.427 -1.8525  0.6947 -0.7822
  767MOL0     H 1199   4.017   5.095  10.561  0.6125 -1.8665  0.6495
  767MOL0     H 1200   4.154   4.907  10.688 -1.7498  2.9442  0.9501
  767MOL0     H 1201   4.251   4.897  10.548  1.2223  3.2448  0.3466
  767MOL0     H 1202   3.951   4.856  10.516 -0.7932 -1.5566  0.4762
  767MOL0     H 1203   4.070   4.839  10.396 -0.6287 -1.5083  0.2076
  767MOL0     H 1204   4.105   4.686  10.667  1.7373 -0.2542 -0.2203
  767MOL0     H 1205   4.204   4.678  10.521 -0.4864 -2.3779 -1.1901
  767MOL0     H 1206   3.872   4.411  10.417 -1.1625  1.9940  0.4739
  767MOL0     H 1207   3.874   4.310  10.167 -1.7118  1.3307 -1.2628
  767MOL0     H 1208   4.118   4.236   9.716 -1.6074  0.3967  1.4385
  767MOL0     H 1209   4.144   4.252   9.459  0.5883 -1.7214  1.9486
  767MOL0     H 1210   4.171   4.679   9.303 -1.2197 -1.3275 -0.4127
  767MOL0     H 1211   4.205   4.590   9.158  0.6356 -0.1252 -0.0715
  767MOL0     H 1212   4.424   4.523   9.284 -1.7632 -1.1932 -3.5595
  767MOL0     H 1213   4.385   4.666   9.378 -1.6602  0.6992 -0.3606
  767MOL0     H 1214   4.412   4.691   9.077  1.8574  2.9972 -1.0490
  767MOL0     H 1215   4.537   4.723   9.190  0.0557  1.3036  0.8030
  767MOL0     H 1216   4.272   4.867   9.195  0.0974 -0.4546  0.6326
  767MOL0     H 1217   4.396   4.882   9.317  2.6355  0.9887 -0.1749
  767MOL0     H 1218   4.552   4.968   9.129 -0.8175  0.3971 -0.4767
  767MOL0     H 1219   4.403   5.069   9.150  2.1530  1.6415 -1.4146
  767MOL0     H 1220   4.295   4.954   8.985  0.9302 -2.1792  0.8638
  767MOL0     H 1221   4.425   4.848   8.931  0.5370  0.4332 -2.1279
  767MOL0     H 1222   4.555   5.039   8.848 -0.5091  2.3730 -1.5065
  767MOL0     H 1223   4.389   5.037   8.788  1.1492  1.7657 -1.0988
  767MOL0     H 1224   4.517   5.227   8.984  0.3782 -2.4039  1.0503
  767MOL0     H 1225   4.334   5.223   8.962 -0.9498 -0.7450 -0.7651
  767MOL0     H 1226   4.179   4.684   9.524  0.9673  0.6837  1.2822
  767MOL0     H 1227   4.184   4.653   9.757  2.2109 -0.5048  0.4462
  767MOL0     H 1228   4.206   4.562  10.076  0.9954  0.4290 -0.1959
  767MOL0     H 1229   4.196   4.663  10.302  0.1632 -0.2218  0.2604
  767MOL0     H 1230   4.887   6.488  10.715 -1.8419 -0.2316  0.1260
  767MOL0     H 1231   5.007   6.676  10.848 -0.2726  0.5667  2.5900
  767MOL0     H 1232   5.279   6.723  11.283 -1.6882 -0.1800 -0.9534
  767MOL0     H 1233   5.363   6.857  11.458 -1.9588  0.4151  2.5639
  767MOL0     H 1234   5.456   7.011  11.595 -0.4397 -0.3462  1.1543
  767MOL0     H 1235   5.283   7.050  11.647 -0.2925 -0.1445 -1.1330
  767MOL0     H 1236   5.361   7.274  11.693  0.2959 -0.0896 -0.7066
  767MOL0     H 1237   5.440   7.159  11.803 -0.9980 -0.4779  0.1954
  767MOL0     H 1238   5.625   7.164  11.607  0.1094  0.8767 -0.2262
  767MOL0     H 1239   5.642   7.267  11.758 -1.9561  0.5692  1.1418
  767MOL0     H 1240   5.564   7.347  11.461 -0.1324  1.3100 -0.2049
  767MOL0     H 1241   5.492   7.432  11.592  0.4719  1.4386  0.2486
  767MOL0     H 1242   5.842   7.632  11.608  0.2358 -0.0542  0.2712
  767MOL0     H 1243   5.212   7.209  11.259 -0.8361 -0.4402 -1.0187
  767MOL0     H 1244   5.105   7.069  11.104 -2.0003 -1.2114  1.0736
  768MOL0     O 1245   2.879  11.075   4.298  0.2574  0.2393 -0.3280
  768MOL0     C 1246   2.925  10.958   4.296  0.0402  0.7028  1.3366
  768MOL0     O 1247   2.902  10.868   4.397  1.3006 -0.7958  0.3690
  768MOL0     C 1248   2.793  10.892   4.490  0.6270 -1.5525 -0.0908
  768MOL0     C 1249   2.789  11.014   4.559 -0.2702 -0.3261 -0.4442
  768MOL0     C 1250   2.685  11.029   4.656 -0.2436  1.2290  0.2568
  768MOL0     C 1251   2.582  10.933   4.659  1.0088  0.0433 -0.2093
  768MOL0     O 1252   2.484  10.961   4.749  0.0244  0.0653 -0.3358
  768MOL0     C 1253   2.378  10.863   4.764 -0.1763 -0.0856 -0.0732
  768MOL0     C 1254   2.292  10.892   4.882 -0.7071 -0.4077 -0.3000
  768MOL0     C 1255   2.175  10.804   4.891 -0.1711 -0.3315 -0.0434
  768MOL0     C 1256   2.088  10.858   5.001 -0.6358  0.2491  0.3913
  768MOL0     C 1257   1.955  10.790   5.009  0.8288 -0.1359  0.1497
  768MOL0     C 1258   1.897  10.824   5.144  0.4126  0.2341 -0.1666
  768MOL0     C 1259   1.741  10.771   5.141  0.3438 -0.0784 -0.0200
  768MOL0     C 1260   1.651  10.855   5.040  0.7509 -0.2916 -0.6959
  768MOL0     N 1261   1.512  10.819   5.056 -0.1424 -0.1398 -0.7560
  768MOL0     C 1262   1.448  10.706   5.016  0.0186 -0.2204 -0.7519
  768MOL0     C 1263   1.323  10.733   5.058 -0.7301  0.0579 -0.3262
  768MOL0     C 1264   1.219  10.639   5.024  0.7984  0.4337 -0.1359
  768MOL0     C 1265   1.082  10.697   5.042 -0.1728 -0.1218 -0.1348
  768MOL0     C 1266   0.972  10.582   5.049  1.0161  0.0849  0.6036
  768MOL0     C 1267   0.836  10.622   5.092 -0.3400  0.4087  0.4128
  768MOL0     O 1268   0.743  10.517   5.079 -0.0509 -0.0447  0.1150
  768MOL0     C 1269   0.619  10.527   5.129 -0.8161  0.2920  0.2401
  768MOL0     C 1270   0.572  10.644   5.184  1.2506 -0.3698 -0.5408
  768MOL0     C 1271   0.446  10.647   5.238  0.1523  0.2983 -0.1020
  768MOL0     C 1272   0.377  10.524   5.253  0.4393  0.1360 -0.5898
  768MOL0     C 1273   0.250  10.524   5.340 -1.0937 -0.3481 -0.2115
  768MOL0     O 1274   0.242  10.611   5.445  0.4092 -0.2439 -0.2564
  768MOL0     C 1275   0.141  10.583   5.533  0.0207 -0.5660 -0.8714
  768MOL0     C 1276   0.182  10.534   5.663 -0.3202 -0.1085  0.5514
  768MOL0     C 1277   0.085  10.506   5.761 -0.0802 -0.1896  0.2540
  768MOL0     C 1278  -0.049  10.531   5.728  1.2007  0.0417  0.4710
  768MOL0     O 1279  -0.154  10.480   5.807 -0.7222 -0.6676  0.1113
  768MOL0     C 1280  -0.137  10.472   5.950 -0.8441  0.1886 -0.0956
  768MOL0     C 1281  -0.279  10.489   6.005  0.2176 -1.2997 -0.5369
  768MOL0     C 1282  -0.268  10.472   6.155  0.8843  0.3993  0.4060
  768MOL0     C 1283  -0.393  10.503   6.232  0.3367 -0.6896  0.5111
  768MOL0     C 1284  -0.409  10.655   6.243  0.1262  1.0291  0.5343
  768MOL0     C 1285  -0.542  10.719   6.271 -0.0157 -0.4491  1.4324
  768MOL0     C 1286  -0.632  10.741   6.149 -0.9340 -0.3764  0.8828
  768MOL0     C 1287  -0.746  10.835   6.183  0.3465  0.6661  0.0522
  768MOL0    Cl 1288  -0.841  10.763   6.311  0.0724  0.3264  0.3370
  768MOL0     C 1289  -0.084  10.585   5.603 -0.1994 -0.2840 -0.8203
  768MOL0     C 1290   0.014  10.617   5.511 -0.4738  0.3046  0.9578
  768MOL0     O 1291   0.163  10.456   5.293  0.0849 -0.2877 -0.0063
  768MOL0     C 1292   0.420  10.408   5.187 -0.5709 -0.3253 -0.2296
  768MOL0     C 1293   0.550  10.405   5.135  0.8963 -0.6754 -1.0346
  768MOL0     N 1294   1.303  10.860   5.104 -0.7147  0.0833 -0.2815
  768MOL0     N 1295   1.421  10.906   5.109  0.3406 -0.1111  0.0166
  768MOL0     C 1296   2.586  10.820   4.578  0.0731  0.2137 -0.2533
  768MOL0     C 1297   2.699  10.792   4.506 -0.2556  0.5413  0.2011
  768MOL0     C 1298   3.047  10.929   4.210 -0.3072  0.3669  0.2666
  768MOL0     C 1299   3.115  11.027   4.128 -0.3880  0.9852 -0.5187
  768MOL0     C 1300   3.218  10.988   4.041  0.0796  0.2626  0.2996
  768MOL0     C 1301   3.263  10.856   4.036  0.0337  0.4486  0.2532
  768MOL0     O 1302   3.369  10.830   3.957 -0.0777 -0.3033  0.1409
  768MOL0     C 1303   3.436  10.704   3.970  0.2534  1.0085 -0.2798
  768MOL0     C 1304   3.555  10.692   3.885  0.2086 -0.0458  0.7445
  768MOL0     C 1305   3.673  10.779   3.918 -0.3541 -0.3550 -0.9608
  768MOL0     C 1306   3.781  10.757   3.818 -0.1851 -0.6954 -0.6429
  768MOL0     C 1307   3.899  10.836   3.873  0.5392  0.0559 -0.0570
  768MOL0     C 1308   3.964  10.916   3.930  0.0826 -0.2882  1.2488
  768MOL0     C 1309   3.201  10.758   4.108  0.3936  0.0731  0.6322
  768MOL0     C 1310   3.098  10.797   4.196 -0.3450  0.1821  0.1226
  768MOL0     H 1311   2.864  11.093   4.559 -3.0261  2.5349  0.8652
  768MOL0     H 1312   2.671  11.118   4.717 -3.1854  0.3720  0.9509
  768MOL0     H 1313   2.430  10.771   4.793 -3.0005 -1.2317  1.7121
  768MOL0     H 1314   2.330  10.856   4.666  1.8048  4.0432 -1.6091
  768MOL0     H 1315   2.270  10.999   4.883 -0.7798 -0.4240 -0.1771
  768MOL0     H 1316   2.357  10.884   4.970  1.4610  0.1212 -1.7670
  768MOL0     H 1317   2.209  10.701   4.900 -0.2472 -0.5170 -1.5761
  768MOL0     H 1318   2.130  10.812   4.791  1.1360  1.8712 -0.5363
  768MOL0     H 1319   2.136  10.858   5.099  1.1744 -0.6321 -0.4531
  768MOL0     H 1320   2.079  10.964   4.976 -1.1669  0.5516  1.7816
  768MOL0     H 1321   1.971  10.682   5.007  3.7947  0.1984  1.1996
  768MOL0     H 1322   1.897  10.827   4.923 -0.4818 -2.3511  0.0100
  768MOL0     H 1323   1.899  10.931   5.167  0.6110  0.1635  0.1418
  768MOL0     H 1324   1.943  10.769   5.226 -0.4072  1.7054  1.3375
  768MOL0     H 1325   1.748  10.665   5.115 -0.0902  0.4888 -2.7761
  768MOL0     H 1326   1.708  10.772   5.245 -0.3808 -0.3829 -0.2443
  768MOL0     H 1327   1.674  10.848   4.934  2.4988 -1.9357 -0.2785
  768MOL0     H 1328   1.660  10.959   5.073 -2.4501  0.2185 -1.1231
  768MOL0     H 1329   1.489  10.616   4.971  2.0060 -1.3130  2.8389
  768MOL0     H 1330   1.224  10.548   5.084  0.6722  1.4631  1.5095
  768MOL0     H 1331   1.225  10.617   4.917 -0.7001 -0.0737 -0.1357
  768MOL0     H 1332   1.069  10.766   4.958  1.6090  0.1267 -0.2318
  768MOL0     H 1333   1.067  10.765   5.126 -2.0459  0.1313 -0.6164
  768MOL0     H 1334   0.975  10.529   4.953 -0.2820  0.3796  0.3807
  768MOL0     H 1335   0.998  10.510   5.127 -0.6005  0.1000  1.1817
  768MOL0     H 1336   0.806  10.709   5.033  0.6779  1.3631  1.2478
  768MOL0     H 1337   0.856  10.659   5.194  1.2057 -0.6891  0.5337
  768MOL0     H 1338   0.631  10.735   5.195 -1.3927  1.7217 -2.3929
  768MOL0     H 1339   0.405  10.740   5.277  2.2103  0.8083  0.9875
  768MOL0     H 1340   0.285  10.510   5.685 -0.9003  0.0751  4.0381
  768MOL0     H 1341   0.106  10.458   5.856  0.4321 -0.8674 -0.1855
  768MOL0     H 1342  -0.074  10.551   5.991  1.3045 -0.6110 -1.7018
  768MOL0     H 1343  -0.092  10.374   5.967  0.1183  0.3469 -1.5740
  768MOL0     H 1344  -0.354  10.418   5.969 -2.9561  1.9551 -0.9760
  768MOL0     H 1345  -0.321  10.589   5.990  2.2597  0.0796  1.9662
  768MOL0     H 1346  -0.186  10.535   6.190  1.4852 -1.4427  2.4733
  768MOL0     H 1347  -0.239  10.370   6.177 -1.0429 -0.0516  1.0653
  768MOL0     H 1348  -0.476  10.450   6.183  1.0221 -1.2140 -0.1115
  768MOL0     H 1349  -0.397  10.476   6.338  1.9850  1.9948  1.3416
  768MOL0     H 1350  -0.375  10.711   6.155  1.7315 -1.0074 -0.2339
  768MOL0     H 1351  -0.346  10.688   6.327 -0.2463  0.2269  1.1410
  768MOL0     H 1352  -0.518  10.818   6.311 -5.7468  0.9285  2.3263
  768MOL0     H 1353  -0.588  10.658   6.349  1.1894 -0.9893  1.7427
  768MOL0     H 1354  -0.573  10.789   6.071  0.1034  0.7546  2.3175
  768MOL0     H 1355  -0.660  10.646   6.103  3.2457  0.1931 -3.6183
  768MOL0     H 1356  -0.802  10.869   6.096 -1.9927 -0.7898  0.8762
  768MOL0     H 1357  -0.705  10.928   6.224  1.5029  0.2608 -0.1619
  768MOL0     H 1358  -0.186  10.616   5.586 -0.4599  0.7968  2.0861
  768MOL0     H 1359  -0.003  10.646   5.408  3.0446  0.2808  0.2614
  768MOL0     H 1360   0.355  10.321   5.199 -1.4558  0.5188  1.4385
  768MOL0     H 1361   0.583  10.308   5.099  1.5090 -1.1441  0.6872
  768MOL0     H 1362   2.505  10.747   4.572  0.5705 -0.2071 -2.3690
  768MOL0     H 1363   2.701  10.706   4.440  1.6150 -1.3502  2.5534
  768MOL0     H 1364   3.088  11.131   4.140 -1.5392  0.4973  1.8471
  768MOL0     H 1365   3.262  11.071   3.986 -3.0236  0.8285 -1.5196
  768MOL0     H 1366   3.371  10.622   3.939  0.2531  0.8529  0.1261
  768MOL0     H 1367   3.458  10.685   4.076 -0.8519  3.1285  0.3899
  768MOL0     H 1368   3.591  10.590   3.876 -1.9842 -0.7851 -0.5779
  768MOL0     H 1369   3.525  10.709   3.781  1.8599 -2.2301 -0.1515
  768MOL0     H 1370   3.704  10.746   4.018  2.0715  1.3518 -1.0633
  768MOL0     H 1371   3.642  10.883   3.928  1.4577  0.1253  0.2538
  768MOL0     H 1372   3.818  10.655   3.819 -0.5835 -0.9369 -3.1242
  768MOL0     H 1373   3.752  10.785   3.716 -3.1996  2.7606  0.8916
  768MOL0     H 1374   4.033  10.980   3.981  1.4346 -0.6596 -0.0546
  768MOL0     H 1375   3.234  10.655   4.123 -0.7578 -0.5286 -0.6992
  768MOL0     H 1376   3.050  10.719   4.256 -1.0902 -0.8804 -1.7671
  769MOL0     O 1377   9.965   8.012   8.761 -0.3887  0.0920 -0.3043
  769MOL0     C 1378   9.949   8.044   8.644  0.9969 -0.2228  0.2711
  769MOL0     O 1379   9.834   8.093   8.592  0.3000 -0.4101  0.0193
  769MOL0     C 1380   9.727   8.136   8.666 -0.2617 -0.7036 -0.5880
  769MOL0     C 1381   9.735   8.253   8.744  0.2625  0.4346 -0.3775
  769MOL0     C 1382   9.618   8.315   8.790  0.5953 -0.1540 -0.3705
  769MOL0     C 1383   9.492   8.261   8.773  0.2118  0.5424 -0.4113
  769MOL0     O 1384   9.369   8.316   8.805 -0.7098 -0.1752 -0.7219
  769MOL0     C 1385   9.322   8.420   8.723  0.3792  0.6355 -0.3173
  769MOL0     C 1386   9.174   8.404   8.720 -0.6977  0.3290 -0.2734
  769MOL0     C 1387   9.114   8.277   8.656  0.5023  0.9817  1.3915
  769MOL0     C 1388   8.962   8.274   8.663  0.0315 -0.2328  0.7896
  769MOL0     C 1389   8.893   8.175   8.570  0.3514  0.4488  0.3757
  769MOL0     C 1390   8.852   8.047   8.645  0.8193  0.4262  1.0293
  769MOL0     C 1391   8.758   7.952   8.576 -0.0270 -0.0990  0.3221
  769MOL0     C 1392   8.824   7.902   8.451  0.1594  0.5029  0.1164
  769MOL0     N 1393   8.750   7.788   8.395  0.2129  0.2274 -1.2822
  769MOL0     C 1394   8.624   7.782   8.365 -0.4018  0.2706  0.8353
  769MOL0     C 1395   8.613   7.655   8.312 -0.0709 -0.0943 -0.4149
  769MOL0     C 1396   8.502   7.593   8.227  0.0290 -0.0699 -0.5335
  769MOL0     C 1397   8.421   7.501   8.316  0.0539 -0.4513 -0.6265
  769MOL0     C 1398   8.331   7.583   8.409 -0.6026  0.0318  0.6315
  769MOL0     C 1399   8.229   7.670   8.330 -0.5919 -0.0514 -0.0384
  769MOL0     O 1400   8.164   7.751   8.436  0.4588 -0.7911  0.2342
  769MOL0     C 1401   8.044   7.801   8.396  0.4486 -0.2151 -0.7527
  769MOL0     C 1402   8.032   7.930   8.353 -0.2484 -0.3074  0.1601
  769MOL0     C 1403   7.907   7.972   8.310 -1.0337 -0.2110  0.7226
  769MOL0     C 1404   7.793   7.892   8.318  0.8693 -0.2410 -0.1088
  769MOL0     C 1405   7.651   7.926   8.298  0.4764 -0.1113 -0.0673
  769MOL0     O 1406   7.551   7.825   8.290  0.3587 -0.0495 -0.2477
  769MOL0     C 1407   7.417   7.855   8.297  0.8674 -0.5915  0.1926
  769MOL0     C 1408   7.340   7.972   8.295  0.1273  0.2211  0.0760
  769MOL0     C 1409   7.202   7.971   8.295  0.6721 -0.2657  0.4070
  769MOL0     C 1410   7.130   7.845   8.319 -0.5853  0.4758 -0.1544
  769MOL0     O 1411   7.000   7.824   8.300  0.4090 -0.4673 -0.1660
  769MOL0     C 1412   6.915   7.941   8.271 -0.6213  0.4269  0.5125
  769MOL0     C 1413   6.779   7.891   8.237 -0.3333  0.6713 -0.3948
  769MOL0     C 1414   6.675   8.011   8.231  0.3542  0.4538 -0.2984
  769MOL0     C 1415   6.533   7.953   8.229 -0.2350 -0.5751  0.8911
  769MOL0     C 1416   6.431   8.059   8.195  0.0062 -0.0164  0.5724
  769MOL0     C 1417   6.281   8.045   8.234 -1.1450 -0.0329  0.5386
  769MOL0     C 1418   6.194   7.995   8.117  0.0588  0.3460 -0.1385
  769MOL0     C 1419   6.202   7.847   8.108  0.0000  0.1659 -0.7177
  769MOL0    Cl 1420   6.125   7.763   7.975  0.3145  0.4654  0.0392
  769MOL0     C 1421   7.213   7.730   8.335  0.2850 -0.6375  0.3126
  769MOL0     C 1422   7.351   7.739   8.322  0.4624  0.0679 -0.2962
  769MOL0     O 1423   7.630   8.043   8.276  0.4024 -0.5624 -0.1090
  769MOL0     C 1424   7.814   7.753   8.341  0.5306 -0.3573 -0.4063
  769MOL0     C 1425   7.939   7.708   8.386  0.6397  0.8209  0.0081
  769MOL0     N 1426   8.733   7.586   8.327 -0.1096  0.5487  0.5763
  769MOL0     N 1427   8.812   7.672   8.378 -0.2110  0.4809  0.6035
  769MOL0     C 1428   9.486   8.143   8.703 -0.1167  0.1497  0.5204
  769MOL0     C 1429   9.601   8.075   8.644 -0.5353  0.5447 -0.8658
  769MOL0     C 1430  10.054   8.034   8.548 -0.6539 -0.6055  0.3358
  769MOL0     C 1431  10.170   7.958   8.576  0.1808 -0.8178 -0.8699
  769MOL0     C 1432  10.284   7.953   8.496  0.3914 -0.8986 -0.3846
  769MOL0     C 1433  10.279   8.022   8.376 -0.5705  0.1728 -0.0876
  769MOL0     O 1434  10.368   8.025   8.269 -0.0311 -0.4495 -0.1846
  769MOL0     C 1435  10.495   7.961   8.278 -0.2319  0.5356 -0.8424
  769MOL0     C 1436  10.608   8.027   8.363 -0.0884  0.2934 -0.1563
  769MOL0     C 1437  10.742   7.963   8.321 -0.1541  0.5764  0.5911
  769MOL0     C 1438  10.856   8.023   8.395  0.8905 -0.1919 -0.4770
  769MOL0     C 1439  10.969   7.956   8.350 -1.3772  0.1799 -0.8616
  769MOL0     C 1440  11.064   7.884   8.336 -0.2040  0.5486 -0.2388
  769MOL0     C 1441  10.163   8.096   8.342 -0.6926  0.3635 -0.7673
  769MOL0     C 1442  10.049   8.099   8.425  0.5446  0.0591 -0.6899
  769MOL0     H 1443   9.829   8.303   8.766  0.7028 -0.5622  0.1043
  769MOL0     H 1444   9.613   8.409   8.844  0.4383 -0.4742  0.1758
  769MOL0     H 1445   9.364   8.424   8.621  2.0552 -0.5841  0.2800
  769MOL0     H 1446   9.332   8.516   8.773 -1.4265  0.2253  0.9331
  769MOL0     H 1447   9.132   8.495   8.675 -0.4801 -0.9993 -3.4098
  769MOL0     H 1448   9.128   8.392   8.818 -0.0204 -1.7191 -0.1593
  769MOL0     H 1449   9.147   8.182   8.699  0.4489  0.7061  0.8363
  769MOL0     H 1450   9.144   8.285   8.551 -2.6180  2.8083  0.5116
  769MOL0     H 1451   8.919   8.251   8.761 -2.3108  0.7322  0.0598
  769MOL0     H 1452   8.928   8.371   8.626  1.6636 -0.1262 -0.5860
  769MOL0     H 1453   8.961   8.145   8.491  0.8987 -1.1981  1.4267
  769MOL0     H 1454   8.812   8.227   8.518  1.2557 -0.2611 -1.8650
  769MOL0     H 1455   8.807   8.069   8.742  0.0859  1.7926  0.4043
  769MOL0     H 1456   8.949   7.997   8.658  1.5710  1.3059 -0.8160
  769MOL0     H 1457   8.726   7.867   8.637  0.9929 -0.9005 -0.2213
  769MOL0     H 1458   8.673   8.016   8.549  1.7973  2.4218  0.1268
  769MOL0     H 1459   8.924   7.866   8.479  0.1394 -0.3833 -0.8892
  769MOL0     H 1460   8.827   7.970   8.367 -2.3090 -0.4575 -0.8488
  769MOL0     H 1461   8.563   7.872   8.365  1.4568  1.5905  0.1397
  769MOL0     H 1462   8.554   7.532   8.153 -0.3881  0.6281 -1.4268
  769MOL0     H 1463   8.447   7.674   8.177 -2.4330 -0.5650  1.2034
  769MOL0     H 1464   8.485   7.429   8.369 -2.0682 -3.0214 -1.2984
  769MOL0     H 1465   8.369   7.435   8.245  1.3662  1.6730 -3.7893
  769MOL0     H 1466   8.274   7.511   8.468 -0.9774 -0.6406 -0.5200
  769MOL0     H 1467   8.386   7.639   8.485  0.8658 -0.4649 -0.0370
  769MOL0     H 1468   8.160   7.602   8.279  1.1547 -1.6079 -0.3893
  769MOL0     H 1469   8.269   7.739   8.255 -2.7488  0.8863 -0.4146
  769MOL0     H 1470   8.104   8.011   8.351 -1.4306  0.7706  0.5984
  769MOL0     H 1471   7.907   8.076   8.279  3.3322 -0.2227  0.0822
  769MOL0     H 1472   7.390   8.069   8.289 -0.4057  0.6440  1.8440
  769MOL0     H 1473   7.144   8.061   8.280  0.2368 -0.3530  1.4928
  769MOL0     H 1474   6.965   7.993   8.189  3.2141 -2.1361  0.9908
  769MOL0     H 1475   6.916   8.003   8.362  0.8716  2.6732 -0.9236
  769MOL0     H 1476   6.744   7.819   8.312 -3.7021  2.5770  0.0705
  769MOL0     H 1477   6.780   7.836   8.142  0.8764 -1.8311  0.9761
  769MOL0     H 1478   6.692   8.076   8.144 -0.9235  2.5087  0.8883
  769MOL0     H 1479   6.690   8.075   8.319  2.1965  2.0843 -1.7083
  769MOL0     H 1480   6.530   7.881   8.147 -2.4898  0.8413 -0.3585
  769MOL0     H 1481   6.504   7.894   8.316  0.9086 -1.2233  0.8555
  769MOL0     H 1482   6.427   8.083   8.088 -2.2812  1.4438  0.9149
  769MOL0     H 1483   6.472   8.148   8.244  0.0298 -0.0769  0.6635
  769MOL0     H 1484   6.253   8.150   8.245  0.9182  1.1221 -3.2315
  769MOL0     H 1485   6.269   7.997   8.331  0.7747  2.1756  1.9884
  769MOL0     H 1486   6.089   8.016   8.138  0.7630  2.3779  1.7118
  769MOL0     H 1487   6.212   8.051   8.025 -2.6395 -0.4889 -1.2792
  769MOL0     H 1488   6.174   7.794   8.200  2.0988  0.4451  0.1420
  769MOL0     H 1489   6.305   7.814   8.095 -0.2683 -1.2226  0.4152
  769MOL0     H 1490   7.159   7.639   8.360  0.8847 -1.6300 -1.8025
  769MOL0     H 1491   7.412   7.649   8.316  2.1955  1.1824 -0.1357
  769MOL0     H 1492   7.734   7.679   8.342 -2.1060  2.2106 -2.0444
  769MOL0     H 1493   7.971   7.610   8.420  0.7673  1.0442  0.5504
  769MOL0     H 1494   9.389   8.104   8.674 -0.0127 -0.5068  1.0562
  769MOL0     H 1495   9.597   7.979   8.594  3.7514 -2.6429  3.8823
  769MOL0     H 1496  10.178   7.911   8.674  2.6012  2.6462  0.8148
  769MOL0     H 1497  10.377   7.901   8.517 -0.4853 -1.3742  2.8379
  769MOL0     H 1498  10.535   7.951   8.177  1.0672  2.9917 -0.6407
  769MOL0     H 1499  10.480   7.863   8.324  0.4310  1.0257  0.5002
  769MOL0     H 1500  10.603   8.133   8.334 -0.3289  1.2596  3.0339
  769MOL0     H 1501  10.588   8.021   8.470  0.1427  0.5416 -0.0963
  769MOL0     H 1502  10.760   7.973   8.214 -0.2876 -1.8089  0.3019
  769MOL0     H 1503  10.739   7.855   8.332 -2.0442  0.4112 -1.1486
  769MOL0     H 1504  10.872   8.127   8.367  2.7601 -0.3062  0.0580
  769MOL0     H 1505  10.835   8.009   8.501  2.4383  0.5745 -0.0496
  769MOL0     H 1506  11.144   7.816   8.316 -0.8187  0.3834 -2.4931
  769MOL0     H 1507  10.155   8.162   8.256 -2.2024 -0.7746 -1.5427
  769MOL0     H 1508   9.963   8.150   8.383  0.5447 -0.3393 -1.1927
  770MOL0     O 1509   7.253   9.820   4.422  0.1489 -0.8787  0.3428
  770MOL0     C 1510   7.229   9.746   4.326  0.0039  0.6151 -0.6923
  770MOL0     O 1511   7.104   9.708   4.285 -0.6368 -0.1012 -0.5318
  770MOL0     C 1512   7.009   9.692   4.383 -0.4997 -0.1056 -0.2194
  770MOL0     C 1513   6.885   9.732   4.348  0.5980 -0.3665 -0.3533
  770MOL0     C 1514   6.779   9.734   4.439  0.1904 -0.3784 -0.0455
  770MOL0     C 1515   6.794   9.684   4.563  0.7589  0.4123 -0.8299
  770MOL0     O 1516   6.685   9.664   4.644 -0.1826 -0.6827 -1.0868
  770MOL0     C 1517   6.656   9.780   4.730 -0.0227  0.1858  0.1266
  770MOL0     C 1518   6.576   9.892   4.661  0.0883 -0.1746  0.5858
  770MOL0     C 1519   6.426   9.847   4.668 -0.0175 -0.7359 -0.2150
  770MOL0     C 1520   6.324   9.956   4.625  0.2188 -0.7484  0.0722
  770MOL0     C 1521   6.293   9.960   4.470 -0.0930  0.5317 -0.7058
  770MOL0     C 1522   6.178  10.051   4.434  0.2384 -0.4699 -0.5279
  770MOL0     C 1523   6.047   9.995   4.496 -0.3270 -0.3787  0.1424
  770MOL0     C 1524   5.927  10.052   4.425 -0.2702  0.6713 -0.8636
  770MOL0     N 1525   5.823   9.950   4.395 -0.0399 -0.2984 -0.4902
  770MOL0     C 1526   5.716   9.932   4.478 -0.6448 -0.1636  0.4417
  770MOL0     C 1527   5.645   9.823   4.437  0.3413 -0.6110 -0.3440
  770MOL0     C 1528   5.513   9.773   4.486  1.0491 -0.1836  0.2763
  770MOL0     C 1529   5.443   9.866   4.586  0.0655  0.0510 -0.0751
  770MOL0     C 1530   5.351   9.967   4.510 -0.4254 -0.1414 -0.4668
  770MOL0     C 1531   5.283  10.077   4.588 -0.4367  0.3705 -0.7532
  770MOL0     O 1532   5.279  10.196   4.509 -0.4011  0.4445 -0.4394
  770MOL0     C 1533   5.391  10.276   4.527  0.6622  0.7946  0.1312
  770MOL0     C 1534   5.510  10.236   4.594  0.5348 -0.5113 -0.5598
  770MOL0     C 1535   5.615  10.331   4.600  0.3193  0.9091 -0.3867
  770MOL0     C 1536   5.604  10.457   4.557  0.8913 -0.6837  1.3824
  770MOL0     C 1537   5.710  10.559   4.576 -0.4066  0.0692 -0.6951
  770MOL0     O 1538   5.727  10.656   4.481  0.2804  0.2854  0.1289
  770MOL0     C 1539   5.825  10.754   4.497 -0.4630  0.7984 -0.5420
  770MOL0     C 1540   5.956  10.721   4.487 -0.6611  0.3521 -0.5184
  770MOL0     C 1541   6.063  10.819   4.497  0.3061  0.5799 -0.9373
  770MOL0     C 1542   6.022  10.949   4.532  0.5605 -0.2124 -0.4888
  770MOL0     O 1543   6.104  11.060   4.539  0.0210  0.2429  0.2040
  770MOL0     C 1544   6.247  11.033   4.517 -0.9359 -1.8854 -0.6173
  770MOL0     C 1545   6.319  11.167   4.534  0.1070 -0.0526  0.1892
  770MOL0     C 1546   6.469  11.158   4.531 -0.8498  0.5673 -0.0393
  770MOL0     C 1547   6.512  11.160   4.378 -0.1198 -0.3772 -0.3551
  770MOL0     C 1548   6.667  11.161   4.357 -0.7259 -0.7083  0.2167
  770MOL0     C 1549   6.701  11.313   4.338 -0.0082  0.5542  0.0244
  770MOL0     C 1550   6.861  11.340   4.340  0.1989  0.3937  0.0707
  770MOL0     C 1551   6.888  11.484   4.312 -0.1752 -0.2843 -0.5638
  770MOL0    Cl 1552   6.848  11.530   4.154 -0.5509 -0.0377  0.1835
  770MOL0     C 1553   5.883  10.984   4.531 -0.7640 -0.1283 -0.3517
  770MOL0     C 1554   5.790  10.880   4.515  0.5763 -1.3454 -0.0282
  770MOL0     O 1555   5.782  10.538   4.674 -0.2974  0.0685  0.1358
  770MOL0     C 1556   5.484  10.500   4.494  0.7100  0.7830 -0.2459
  770MOL0     C 1557   5.380  10.404   4.477  0.9085 -0.6730 -0.1901
  770MOL0     N 1558   5.720   9.764   4.334  0.0704  0.0674 -1.1372
  770MOL0     N 1559   5.821   9.842   4.309 -0.0159 -0.8356  0.0550
  770MOL0     C 1560   6.915   9.623   4.597 -0.5373 -0.4975 -0.2710
  770MOL0     C 1561   7.031   9.632   4.513  0.4074 -0.3043  0.1820
  770MOL0     C 1562   7.342   9.709   4.232  0.6377 -0.0372  0.2608
  770MOL0     C 1563   7.338   9.611   4.133  0.5214  0.5128 -0.4666
  770MOL0     C 1564   7.445   9.591   4.047 -0.2139  0.3248 -0.3689
  770MOL0     C 1565   7.559   9.664   4.055  0.4576  0.1592  0.0952
  770MOL0     O 1566   7.655   9.634   3.967 -0.0220 -0.3555  0.1288
  770MOL0     C 1567   7.758   9.730   3.936  0.4434 -0.3105  0.7897
  770MOL0     C 1568   7.839   9.684   3.824  0.0545 -0.0958  0.0796
  770MOL0     C 1569   7.774   9.671   3.683 -1.2250 -0.4722  0.7363
  770MOL0     C 1570   7.871   9.641   3.563 -0.2276  0.5092  0.3626
  770MOL0     C 1571   8.002   9.704   3.573 -0.0909 -0.6651 -1.1513
  770MOL0     C 1572   8.116   9.752   3.564  0.4878 -0.4702 -0.4329
  770MOL0     C 1573   7.571   9.762   4.151  0.4209 -1.0040  0.4062
  770MOL0     C 1574   7.468   9.769   4.258  0.9269  1.0816  1.0181
  770MOL0     H 1575   6.850   9.763   4.249 -1.2752 -1.2517  0.0044
  770MOL0     H 1576   6.688   9.783   4.405  1.2152  1.1399 -0.6954
  770MOL0     H 1577   6.751   9.826   4.760 -0.6682  2.3464 -0.9230
  770MOL0     H 1578   6.610   9.755   4.825  0.5089  1.3882  0.7169
  770MOL0     H 1579   6.610   9.907   4.559 -0.7991  1.0079  0.4366
  770MOL0     H 1580   6.595   9.987   4.711  0.8258 -0.9222  1.7905
  770MOL0     H 1581   6.401   9.823   4.772  0.7217  1.6601  0.5974
  770MOL0     H 1582   6.421   9.759   4.603  0.6201  0.1104 -1.4529
  770MOL0     H 1583   6.232   9.924   4.676  0.8705 -2.5920  0.1666
  770MOL0     H 1584   6.343  10.051   4.675  0.4058 -1.7427  1.9858
  770MOL0     H 1585   6.270   9.859   4.436  0.6393 -0.5986  1.8837
  770MOL0     H 1586   6.377   9.997   4.410 -1.2100  3.0864 -0.7943
  770MOL0     H 1587   6.172  10.044   4.325  0.7579 -1.7105 -0.4918
  770MOL0     H 1588   6.199  10.153   4.468  1.4130 -1.0591  0.5995
  770MOL0     H 1589   6.039   9.886   4.486 -2.5245 -0.4178  1.5599
  770MOL0     H 1590   6.027  10.027   4.598 -0.2119  2.5854 -0.6756
  770MOL0     H 1591   5.956  10.087   4.325 -0.7059  2.8742 -0.2666
  770MOL0     H 1592   5.893  10.128   4.495 -0.2152 -0.7521  0.7939
  770MOL0     H 1593   5.691   9.995   4.563 -3.1294 -0.4139 -0.0179
  770MOL0     H 1594   5.537   9.685   4.546  1.6152 -0.7297 -0.7153
  770MOL0     H 1595   5.441   9.751   4.407  1.3020 -1.0321  0.2700
  770MOL0     H 1596   5.514   9.924   4.646  1.0383  1.2802 -2.2880
  770MOL0     H 1597   5.374   9.806   4.645 -1.4325  0.3285 -1.4696
  770MOL0     H 1598   5.419  10.006   4.433  1.0096 -2.5362 -0.4972
  770MOL0     H 1599   5.271   9.910   4.461 -1.1411 -0.1457  0.6623
  770MOL0     H 1600   5.331  10.089   4.686  0.2885 -1.8480 -0.7941
  770MOL0     H 1601   5.179  10.044   4.603  0.6600 -2.3789  2.0307
  770MOL0     H 1602   5.537  10.135   4.623  0.5964 -0.9404 -2.0267
  770MOL0     H 1603   5.706  10.299   4.651  1.8369  4.1188 -0.7858
  770MOL0     H 1604   5.975  10.618   4.461 -0.2123 -0.1263  1.5462
  770MOL0     H 1605   6.169  10.794   4.495 -0.1091 -2.6217  3.6863
  770MOL0     H 1606   6.265  10.982   4.422 -0.5314 -1.1635 -0.9339
  770MOL0     H 1607   6.284  10.965   4.594  2.7925  0.4261 -0.1157
  770MOL0     H 1608   6.283  11.208   4.629 -0.2952  0.9688 -0.3837
  770MOL0     H 1609   6.289  11.234   4.453 -0.5841  2.2407  2.2391
  770MOL0     H 1610   6.497  11.064   4.580  0.3156  2.1480  2.4979
  770MOL0     H 1611   6.515  11.244   4.579 -2.4441  1.7609 -0.5458
  770MOL0     H 1612   6.476  11.068   4.331 -2.1982 -1.2760  2.6529
  770MOL0     H 1613   6.459  11.240   4.325 -1.0884 -1.2597 -0.7680
  770MOL0     H 1614   6.695  11.091   4.278 -1.5983 -1.1266  0.2629
  770MOL0     H 1615   6.710  11.124   4.451  0.3400 -1.9771 -0.7300
  770MOL0     H 1616   6.659  11.358   4.429 -0.9957 -0.6606  0.1950
  770MOL0     H 1617   6.655  11.356   4.248  0.1361  2.2192  0.6937
  770MOL0     H 1618   6.907  11.303   4.432  3.1549  4.3651  0.4685
  770MOL0     H 1619   6.898  11.272   4.262 -0.0393 -0.2803  0.5431
  770MOL0     H 1620   6.996  11.500   4.319 -0.6602  3.3274  0.5407
  770MOL0     H 1621   6.840  11.548   4.387 -0.7642  1.3405 -2.2368
  770MOL0     H 1622   5.841  11.084   4.534 -1.2225 -0.3360  0.5468
  770MOL0     H 1623   5.682  10.894   4.511  0.3448 -2.9638 -0.1992
  770MOL0     H 1624   5.472  10.595   4.443 -0.2179  0.8302  0.0531
  770MOL0     H 1625   5.286  10.427   4.429  1.7770  2.4588 -0.6188
  770MOL0     H 1626   6.928   9.571   4.691 -2.4926 -3.8960 -1.6613
  770MOL0     H 1627   7.130   9.594   4.535  1.0028  2.0514  2.0756
  770MOL0     H 1628   7.248   9.553   4.115 -0.1684  1.9818 -2.0559
  770MOL0     H 1629   7.448   9.509   3.976  0.8654 -0.8158  0.9282
  770MOL0     H 1630   7.822   9.740   4.024  0.4436  0.6889  0.6866
  770MOL0     H 1631   7.702   9.819   3.904  0.2718 -0.5432  0.4363
  770MOL0     H 1632   7.906   9.768   3.809  1.0694 -1.1686 -1.7222
  770MOL0     H 1633   7.900   9.594   3.839  0.2375  0.0899  0.4756
  770MOL0     H 1634   7.710   9.756   3.658  1.4728  2.5025  3.1025
  770MOL0     H 1635   7.693   9.596   3.680 -4.2339  2.5502 -1.9300
  770MOL0     H 1636   7.896   9.535   3.572  4.1543  1.2706 -0.7011
  770MOL0     H 1637   7.835   9.653   3.460  0.7559  2.8981  0.2332
  770MOL0     H 1638   8.210   9.802   3.552  0.0369  1.3977  2.7318
  770MOL0     H 1639   7.652   9.833   4.161 -0.3406 -0.2491  1.4511
  770MOL0     H 1640   7.466   9.843   4.337 -3.5881  1.5945  0.6989
  771MOL0     O 1641  10.046   8.660   1.391 -0.3976  0.2725 -0.5732
  771MOL0     C 1642  10.101   8.582   1.315  0.3544 -0.6988 -0.2578
  771MOL0     O 1643  10.058   8.538   1.196  0.1771  0.1378  0.6999
  771MOL0     C 1644   9.929   8.569   1.178 -0.0017 -0.1157 -0.6742
  771MOL0     C 1645   9.831   8.478   1.203  0.4929 -0.5630 -0.1746
  771MOL0     C 1646   9.701   8.508   1.179 -0.0309  0.2599 -0.5844
  771MOL0     C 1647   9.663   8.638   1.153 -0.4257 -1.4004  0.6471
  771MOL0     O 1648   9.530   8.678   1.143  0.0801  0.3330 -0.3559
  771MOL0     C 1649   9.489   8.783   1.061  0.3063 -0.0017 -0.4786
  771MOL0     C 1650   9.338   8.772   1.022 -0.1171 -0.4173  0.1037
  771MOL0     C 1651   9.297   8.889   0.935  0.1309  0.6201 -0.0609
  771MOL0     C 1652   9.167   8.872   0.860  0.4115  0.0592 -0.4324
  771MOL0     C 1653   9.115   9.004   0.800  0.3954 -0.6203 -0.4518
  771MOL0     C 1654   9.202   9.061   0.687  0.0188 -0.0832 -0.2526
  771MOL0     C 1655   9.146   9.194   0.628 -0.2563  0.0166 -0.5259
  771MOL0     C 1656   9.156   9.300   0.737 -0.2852  0.0121 -0.1183
  771MOL0     N 1657   9.139   9.430   0.682  0.4738 -0.5693  0.6582
  771MOL0     C 1658   9.013   9.483   0.665  0.2365  0.1788  0.2160
  771MOL0     C 1659   9.044   9.603   0.602 -0.2180  0.2565  1.5391
  771MOL0     C 1660   8.939   9.702   0.559 -1.1161  0.1905 -0.6643
  771MOL0     C 1661   8.850   9.758   0.666 -0.9159 -0.1431 -0.6427
  771MOL0     C 1662   8.753   9.858   0.613  0.5768  0.8959 -0.2055
  771MOL0     C 1663   8.695   9.956   0.722 -0.0237  0.1912  0.1359
  771MOL0     O 1664   8.630   9.882   0.826 -0.2345  0.0310  0.0304
  771MOL0     C 1665   8.499   9.856   0.825  0.0600  0.1171  0.0046
  771MOL0     C 1666   8.451   9.787   0.939 -1.0564 -0.8231  0.5239
  771MOL0     C 1667   8.321   9.754   0.954  0.7118 -0.6927 -0.0153
  771MOL0     C 1668   8.224   9.776   0.852  0.2715  0.3268 -0.6457
  771MOL0     C 1669   8.079   9.748   0.860 -0.0245  0.2696  0.6007
  771MOL0     O 1670   8.034   9.749   0.986 -0.0499 -0.0271 -0.5368
  771MOL0     C 1671   7.906   9.698   1.007  0.4075 -0.5639  0.6922
  771MOL0     C 1672   7.883   9.639   1.132  0.0223  0.5568  0.0505
  771MOL0     C 1673   7.761   9.576   1.169 -0.0859 -0.6603  0.0499
  771MOL0     C 1674   7.655   9.586   1.084  0.5956  0.6535 -0.1673
  771MOL0     O 1675   7.528   9.534   1.117  0.1187  0.4188  0.6126
  771MOL0     C 1676   7.507   9.434   1.218  0.3014  0.0819  0.0631
  771MOL0     C 1677   7.372   9.369   1.191  0.1824  0.0407 -0.2082
  771MOL0     C 1678   7.262   9.473   1.231 -0.1297  0.0371  0.1526
  771MOL0     C 1679   7.187   9.531   1.112  0.1365  1.1880  0.0324
  771MOL0     C 1680   7.101   9.424   1.040 -0.7146 -0.0768 -0.1958
  771MOL0     C 1681   7.001   9.485   0.943 -0.9698  0.0454  0.7032
  771MOL0     C 1682   6.900   9.377   0.872  0.2665 -0.0804 -0.2431
  771MOL0     C 1683   6.809   9.305   0.962  0.0753 -0.0678  0.3414
  771MOL0    Cl 1684   6.710   9.402   1.067 -0.4065  0.0712 -0.2268
  771MOL0     C 1685   7.669   9.653   0.961  0.2217  0.2005 -0.2503
  771MOL0     C 1686   7.790   9.714   0.928 -0.2579  0.4583  0.0559
  771MOL0     O 1687   8.021   9.701   0.763 -0.6358  0.2893 -0.3118
  771MOL0     C 1688   8.270   9.833   0.734 -0.2939 -0.5909  0.2158
  771MOL0     C 1689   8.404   9.884   0.724 -0.0163  0.0634  0.6781
  771MOL0     N 1690   9.186   9.626   0.607  0.4870  0.2927  1.2711
  771MOL0     N 1691   9.233   9.508   0.636  0.4264 -0.3147  0.1468
  771MOL0     C 1692   9.760   8.736   1.118 -0.9955  0.0709 -0.0661
  771MOL0     C 1693   9.900   8.699   1.121 -0.0537 -0.5884  0.0455
  771MOL0     C 1694  10.240   8.543   1.356 -0.5549 -0.3075  0.6989
  771MOL0     C 1695  10.323   8.455   1.274 -0.6882 -0.0451  0.0107
  771MOL0     C 1696  10.454   8.432   1.315 -0.7858  0.7811 -0.3058
  771MOL0     C 1697  10.507   8.489   1.429 -0.6113 -0.0290 -0.3893
  771MOL0     O 1698  10.638   8.485   1.473  1.0624 -0.5059 -0.0535
  771MOL0     C 1699  10.741   8.431   1.397  0.0453  0.9566  0.9730
  771MOL0     C 1700  10.748   8.278   1.378  0.3191  0.1708  0.3485
  771MOL0     C 1701  10.723   8.210   1.515  0.3348 -0.3666 -0.2907
  771MOL0     C 1702  10.761   8.064   1.514  0.3360  0.0204  0.5591
  771MOL0     C 1703  10.737   7.992   1.637  0.0964  0.3518 -0.0048
  771MOL0     C 1704  10.694   7.945   1.741  0.1176 -0.1196  0.9834
  771MOL0     C 1705  10.428   8.557   1.511  0.6307 -0.4729 -0.0401
  771MOL0     C 1706  10.299   8.593   1.475 -0.0316 -0.6340 -0.5805
  771MOL0     H 1707   9.862   8.379   1.235  0.9042 -0.2247  0.4663
  771MOL0     H 1708   9.625   8.432   1.197 -1.1646  1.5849  0.3905
  771MOL0     H 1709   9.549   8.784   0.970  1.6484  2.6779  0.2964
  771MOL0     H 1710   9.501   8.883   1.106  0.7413 -0.5750  0.7355
  771MOL0     H 1711   9.282   8.778   1.116  0.3231  1.4622  0.2973
  771MOL0     H 1712   9.325   8.680   0.965 -1.1866 -1.2281  1.5972
  771MOL0     H 1713   9.382   8.908   0.868  0.9220  0.5903  0.9078
  771MOL0     H 1714   9.293   8.976   1.002 -0.0953  0.3865  0.2316
  771MOL0     H 1715   9.179   8.793   0.785  0.9961 -0.3518  0.0892
  771MOL0     H 1716   9.096   8.838   0.935  1.9157 -2.5507 -0.1003
  771MOL0     H 1717   9.113   9.080   0.878 -3.6870 -1.5320  0.5586
  771MOL0     H 1718   9.014   8.993   0.758  0.4840  1.7291 -1.4308
  771MOL0     H 1719   9.216   8.991   0.605  0.1885  1.4574 -1.5894
  771MOL0     H 1720   9.298   9.089   0.732  0.0926 -0.6472 -0.0559
  771MOL0     H 1721   9.212   9.221   0.545 -1.7235 -1.5528 -2.2875
  771MOL0     H 1722   9.047   9.182   0.583 -0.7267  0.1702  0.4320
  771MOL0     H 1723   9.248   9.303   0.795 -1.1017  0.5187  1.2022
  771MOL0     H 1724   9.072   9.286   0.806 -0.5060  1.5824 -0.0345
  771MOL0     H 1725   8.918   9.432   0.678  0.1860  0.9728  4.9640
  771MOL0     H 1726   8.872   9.653   0.487 -1.9625  1.8719 -1.0553
  771MOL0     H 1727   8.993   9.788   0.518 -2.1339  1.2607  0.2049
  771MOL0     H 1728   8.921   9.793   0.742 -2.1433  0.3172  0.3225
  771MOL0     H 1729   8.791   9.675   0.705  1.2297 -1.8640 -0.8067
  771MOL0     H 1730   8.802   9.915   0.533 -1.6530  0.0227 -2.3295
  771MOL0     H 1731   8.668   9.805   0.568 -1.4344  3.7496 -0.0924
  771MOL0     H 1732   8.628  10.025   0.670 -0.3439 -1.7385 -2.2152
  771MOL0     H 1733   8.776  10.018   0.760  2.2080 -2.1723 -0.5222
  771MOL0     H 1734   8.513   9.753   1.022  0.0758 -0.2058 -0.0391
  771MOL0     H 1735   8.289   9.714   1.049 -5.3196  1.8074 -0.5537
  771MOL0     H 1736   7.967   9.640   1.201  2.7062  0.5366 -2.9523
  771MOL0     H 1737   7.762   9.530   1.268  0.9335  0.9558  0.8261
  771MOL0     H 1738   7.507   9.480   1.317 -0.8196 -0.2578  0.2426
  771MOL0     H 1739   7.583   9.355   1.217 -0.8722 -1.0863  0.1298
  771MOL0     H 1740   7.356   9.275   1.243  3.0304 -0.7872 -0.6639
  771MOL0     H 1741   7.369   9.333   1.088 -1.4057  0.9361 -0.5068
  771MOL0     H 1742   7.308   9.560   1.278  0.7014 -0.1065 -0.3616
  771MOL0     H 1743   7.193   9.421   1.298 -1.5191 -0.9123 -1.9024
  771MOL0     H 1744   7.130   9.613   1.156 -0.5682  0.8303 -0.1940
  771MOL0     H 1745   7.264   9.582   1.055  0.9226  2.2973  2.0120
  771MOL0     H 1746   7.047   9.371   1.118 -2.9658 -1.3242 -2.4374
  771MOL0     H 1747   7.166   9.358   0.982 -0.0526  2.3777 -2.4581
  771MOL0     H 1748   7.055   9.524   0.856 -2.0476 -1.5905 -0.7602
  771MOL0     H 1749   6.947   9.570   0.986  1.3271  0.7387  2.4497
  771MOL0     H 1750   6.845   9.429   0.793 -1.4317 -1.5009 -0.0417
  771MOL0     H 1751   6.960   9.305   0.815 -1.6585 -0.5734 -1.7455
  771MOL0     H 1752   6.862   9.240   1.033  1.8218  0.6062 -0.2887
  771MOL0     H 1753   6.742   9.244   0.900  1.3862  0.4350 -1.6439
  771MOL0     H 1754   7.578   9.654   0.901  0.2960 -0.7233 -0.3923
  771MOL0     H 1755   7.800   9.771   0.835 -2.0888  1.2529  0.2901
  771MOL0     H 1756   8.195   9.860   0.660  0.7157  0.8130 -0.3383
  771MOL0     H 1757   8.443   9.926   0.632 -1.6396 -0.6488 -0.3828
  771MOL0     H 1758   9.736   8.838   1.092 -0.8020 -0.1768 -1.3076
  771MOL0     H 1759   9.983   8.767   1.110 -2.4402  2.4303 -0.5696
  771MOL0     H 1760  10.274   8.410   1.188  1.1738  0.3684 -1.3162
  771MOL0     H 1761  10.531   8.389   1.251  2.4080 -0.1441  3.7372
  771MOL0     H 1762  10.826   8.460   1.460  1.1268  0.8743 -0.4015
  771MOL0     H 1763  10.738   8.477   1.299 -0.7117 -3.5712 -1.4098
  771MOL0     H 1764  10.685   8.243   1.295  0.9153  0.0743 -0.0724
  771MOL0     H 1765  10.847   8.246   1.346  0.0419 -1.3498  0.8987
  771MOL0     H 1766  10.624   8.235   1.552 -0.0365 -0.4376 -1.2178
  771MOL0     H 1767  10.789   8.264   1.585  2.1760 -0.4924 -1.8475
  771MOL0     H 1768  10.718   8.015   1.427  1.3418 -0.5851  0.3918
  771MOL0     H 1769  10.870   8.062   1.499  0.2757 -1.7534  0.1559
  771MOL0     H 1770  10.668   7.892   1.831  0.9958  1.2130  2.0640
  771MOL0     H 1771  10.467   8.586   1.608 -0.5089 -2.2007  0.9926
  771MOL0     H 1772  10.242   8.654   1.545  0.1393 -0.6300 -0.4448
  772MOL0     O 1773   7.278   0.119   4.358 -0.2948  0.1280  0.0907
  772MOL0     C 1774   7.366   0.069   4.428  0.0172  0.5700  0.4724
  772MOL0     O 1775   7.349  -0.024   4.529 -0.3930  0.0732  0.1300
  772MOL0     C 1776   7.220  -0.071   4.561 -0.6906  0.0743  0.3025
  772MOL0     C 1777   7.184  -0.184   4.493 -0.0684  0.0310  0.0895
  772MOL0     C 1778   7.062  -0.237   4.513  0.1410  0.6806  0.1262
  772MOL0     C 1779   6.976  -0.190   4.613 -0.7749  0.0813  0.3098
  772MOL0     O 1780   6.856  -0.264   4.624 -0.2268  0.5474  0.3232
  772MOL0     C 1781   6.760  -0.196   4.702  0.4195  0.5857  0.1190
  772MOL0     C 1782   6.780  -0.214   4.859  0.4791  0.6251  0.6402
  772MOL0     C 1783   6.647  -0.229   4.926 -0.0169 -0.6009 -0.3717
  772MOL0     C 1784   6.670  -0.253   5.079  0.1638 -0.2992  0.5704
  772MOL0     C 1785   6.548  -0.296   5.164  0.6729 -0.2269  0.4691
  772MOL0     C 1786   6.408  -0.232   5.141 -0.3927  0.4026  0.0314
  772MOL0     C 1787   6.302  -0.295   5.226 -0.8165  0.7037 -0.9324
  772MOL0     C 1788   6.269  -0.209   5.349 -1.0198  0.1143  0.0745
  772MOL0     N 1789   6.129  -0.221   5.404 -0.6688  0.6092  0.0164
  772MOL0     C 1790   6.015  -0.167   5.355 -0.2530  0.1431  0.2416
  772MOL0     C 1791   5.912  -0.235   5.405  0.1660 -0.2662 -0.0585
  772MOL0     C 1792   5.773  -0.212   5.388 -0.0702 -0.0083 -0.3880
  772MOL0     C 1793   5.690  -0.342   5.365  0.9614  0.3831  0.6389
  772MOL0     C 1794   5.549  -0.294   5.352  0.3112  0.2385 -1.8986
  772MOL0     C 1795   5.440  -0.407   5.372 -0.4272  0.9764  0.3433
  772MOL0     O 1796   5.321  -0.335   5.348  0.5412  0.0046  0.1942
  772MOL0     C 1797   5.208  -0.398   5.309 -0.8092  0.9272  0.2390
  772MOL0     C 1798   5.201  -0.542   5.299  0.2304  0.3908  0.1743
  772MOL0     C 1799   5.074  -0.603   5.308  0.4520  0.2091 -0.3990
  772MOL0     C 1800   4.955  -0.524   5.297 -0.4744  0.0955  0.0407
  772MOL0     C 1801   4.827  -0.591   5.297  0.1328 -0.1422 -0.2625
  772MOL0     O 1802   4.725  -0.513   5.328  0.0977  0.7572  0.2367
  772MOL0     C 1803   4.605  -0.563   5.297  0.1036  0.3717  0.3048
  772MOL0     C 1804   4.523  -0.634   5.383 -0.0216  0.6346 -0.0692
  772MOL0     C 1805   4.402  -0.703   5.345  0.3946  0.1767 -0.3787
  772MOL0     C 1806   4.349  -0.682   5.219  0.8648  0.0568  0.2297
  772MOL0     O 1807   4.236  -0.743   5.172 -0.4167  0.2220 -0.2632
  772MOL0     C 1808   4.117  -0.753   5.257  0.3925  0.6981 -0.1679
  772MOL0     C 1809   3.988  -0.701   5.182 -0.1334  0.1278 -0.6940
  772MOL0     C 1810   3.945  -0.803   5.072 -0.5545  0.0638  1.0799
  772MOL0     C 1811   3.819  -0.742   5.023 -0.1200 -0.5315  0.0667
  772MOL0     C 1812   3.764  -0.850   4.929  0.3475 -0.7889 -0.8367
  772MOL0     C 1813   3.643  -0.790   4.857 -0.5588  0.0103 -0.1080
  772MOL0     C 1814   3.580  -0.898   4.768  0.2641  1.1718  0.0176
  772MOL0     C 1815   3.434  -0.889   4.737  0.0187 -0.2579 -0.5815
  772MOL0    Cl 1816   3.374  -1.022   4.644 -0.1288 -0.4048  0.5628
  772MOL0     C 1817   4.419  -0.601   5.132 -0.2770  0.2357 -0.0388
  772MOL0     C 1818   4.546  -0.546   5.163  0.0315  0.4350 -0.2257
  772MOL0     O 1819   4.827  -0.704   5.251  0.0013  0.8284  0.1333
  772MOL0     C 1820   4.970  -0.382   5.288  0.0377 -0.2282  0.5408
  772MOL0     C 1821   5.097  -0.319   5.305  0.8793  0.3258 -0.3178
  772MOL0     N 1822   5.966  -0.331   5.497 -0.3134 -0.1619  0.3648
  772MOL0     N 1823   6.094  -0.321   5.491 -0.8013  0.0315 -0.5212
  772MOL0     C 1824   7.023  -0.083   4.697  0.6222  0.7207  0.2727
  772MOL0     C 1825   7.140  -0.020   4.666 -0.0205 -0.3726 -0.3063
  772MOL0     C 1826   7.508   0.065   4.383  0.3486  0.1892 -0.1494
  772MOL0     C 1827   7.549   0.166   4.291  0.6560 -0.2968  0.0073
  772MOL0     C 1828   7.677   0.160   4.237 -0.7857 -0.1515  0.8296
  772MOL0     C 1829   7.771   0.059   4.273  0.5698  1.3334 -0.0469
  772MOL0     O 1830   7.905   0.052   4.232  0.1386 -0.2205  0.6759
  772MOL0     C 1831   7.949   0.148   4.135  0.4321 -0.4456  0.2084
  772MOL0     C 1832   8.082   0.102   4.072  0.0549 -0.0204  0.0986
  772MOL0     C 1833   8.197   0.127   4.168 -0.9330 -0.4815 -0.6062
  772MOL0     C 1834   8.332   0.152   4.104  0.6251  0.0644  0.6189
  772MOL0     C 1835   8.433   0.219   4.187  0.0672  0.3625 -1.2035
  772MOL0     C 1836   8.509   0.285   4.243 -0.1850  0.6842 -0.4108
  772MOL0     C 1837   7.734  -0.039   4.367 -0.1563  0.3511 -0.0076
  772MOL0     C 1838   7.605  -0.033   4.419  0.3939  0.9544 -0.5572
  772MOL0     H 1839   7.256  -0.230   4.427 -0.3444 -1.7141  0.9539
  772MOL0     H 1840   7.028  -0.327   4.463 -0.0281  1.4108 -1.1073
  772MOL0     H 1841   6.672  -0.256   4.679  1.0237  0.3556 -1.7914
  772MOL0     H 1842   6.734  -0.093   4.675 -1.3850 -0.1570 -1.1415
  772MOL0     H 1843   6.828  -0.122   4.894 -0.5875  1.8124 -0.8599
  772MOL0     H 1844   6.839  -0.304   4.875  2.4555  0.9472 -3.4629
  772MOL0     H 1845   6.589  -0.312   4.886  0.8386 -2.4055  1.9141
  772MOL0     H 1846   6.591  -0.135   4.917 -0.2664 -0.2508  3.2140
  772MOL0     H 1847   6.738  -0.338   5.080  1.0393  0.3911  0.6618
  772MOL0     H 1848   6.728  -0.164   5.106 -2.5595  1.8669 -0.1369
  772MOL0     H 1849   6.562  -0.276   5.271 -2.7594  2.1606  0.6326
  772MOL0     H 1850   6.548  -0.404   5.148  2.5277 -0.0873 -0.9288
  772MOL0     H 1851   6.393  -0.245   5.034  2.4498 -2.7264 -0.1594
  772MOL0     H 1852   6.425  -0.127   5.167  1.6009  0.2185 -0.3270
  772MOL0     H 1853   6.209  -0.285   5.168  0.7232  3.1702 -3.2059
  772MOL0     H 1854   6.325  -0.399   5.248  2.2797  0.8441 -2.8812
  772MOL0     H 1855   6.284  -0.107   5.313 -0.1334 -0.2853 -0.7203
  772MOL0     H 1856   6.344  -0.231   5.426  0.2838  2.4008 -0.4651
  772MOL0     H 1857   6.004  -0.084   5.286 -0.0252 -0.7555 -0.9211
  772MOL0     H 1858   5.742  -0.146   5.307 -0.3456 -0.2328 -0.4636
  772MOL0     H 1859   5.744  -0.161   5.481  0.0354 -0.2909 -0.1999
  772MOL0     H 1860   5.711  -0.413   5.445  2.7341 -1.4711 -1.3362
  772MOL0     H 1861   5.710  -0.390   5.269  0.0163  0.7789  0.2367
  772MOL0     H 1862   5.540  -0.222   5.434 -0.1023 -0.7024 -1.1013
  772MOL0     H 1863   5.529  -0.247   5.255  0.7731  0.7401 -1.7516
  772MOL0     H 1864   5.434  -0.464   5.465  1.2320 -0.2457 -0.2393
  772MOL0     H 1865   5.462  -0.477   5.291  0.3913  1.5619  0.0389
  772MOL0     H 1866   5.279  -0.615   5.316  0.7882  0.8413 -0.4070
  772MOL0     H 1867   5.062  -0.710   5.307  0.3348  0.2223 -0.6785
  772MOL0     H 1868   4.566  -0.639   5.483  1.4659  0.3973 -0.6984
  772MOL0     H 1869   4.350  -0.772   5.411  1.1714 -2.0806 -2.0300
  772MOL0     H 1870   4.127  -0.701   5.352  0.8206 -1.0297  0.7646
  772MOL0     H 1871   4.096  -0.856   5.287  0.1908  0.4010 -1.2605
  772MOL0     H 1872   4.003  -0.607   5.128 -0.4428  0.2308 -0.6013
  772MOL0     H 1873   3.910  -0.701   5.258 -1.2704 -1.3510 -1.7980
  772MOL0     H 1874   3.922  -0.903   5.110 -0.1796 -1.0468 -1.4147
  772MOL0     H 1875   4.018  -0.810   4.990 -0.4005  0.1165  1.2122
  772MOL0     H 1876   3.754  -0.709   5.105 -0.6049 -2.6912  0.5936
  772MOL0     H 1877   3.845  -0.652   4.966  1.2345  0.2749  1.8440
  772MOL0     H 1878   3.732  -0.929   4.998 -1.2947 -0.2236 -0.8875
  772MOL0     H 1879   3.838  -0.888   4.859  1.7162 -1.5094  0.9188
  772MOL0     H 1880   3.666  -0.706   4.790 -0.2602 -0.7715 -1.0131
  772MOL0     H 1881   3.564  -0.750   4.922  1.2135  0.4026  1.9030
  772MOL0     H 1882   3.628  -0.888   4.670 -0.9434 -3.1128 -1.2317
  772MOL0     H 1883   3.611  -0.997   4.803  4.3489  1.5379 -1.9367
  772MOL0     H 1884   3.418  -0.788   4.697 -1.7814 -0.5827 -0.7699
  772MOL0     H 1885   3.383  -0.877   4.834 -0.3481  4.5523 -1.1237
  772MOL0     H 1886   4.383  -0.580   5.032  2.5444  1.1846 -0.9632
  772MOL0     H 1887   4.609  -0.496   5.090  0.6996 -0.0983 -0.0332
  772MOL0     H 1888   4.887  -0.313   5.285  0.1115 -0.0625 -3.8872
  772MOL0     H 1889   5.107  -0.212   5.317  0.2404  0.2482  1.0688
  772MOL0     H 1890   6.970  -0.044   4.783 -2.5471 -2.3145 -0.1106
  772MOL0     H 1891   7.174   0.067   4.720 -0.4644  1.3117 -2.5600
  772MOL0     H 1892   7.482   0.243   4.255 -0.4208 -0.6315  1.2309
  772MOL0     H 1893   7.699   0.233   4.161 -0.5296  0.2466  1.2804
  772MOL0     H 1894   7.967   0.249   4.173 -3.2451  0.5156 -0.2356
  772MOL0     H 1895   7.876   0.155   4.054 -3.3620  1.2480  3.4501
  772MOL0     H 1896   8.067  -0.005   4.053 -3.6341  0.5214 -0.7093
  772MOL0     H 1897   8.097   0.149   3.975  3.8450 -0.1483  0.4802
  772MOL0     H 1898   8.210   0.052   4.247  3.1569  1.0907  0.4581
  772MOL0     H 1899   8.175   0.222   4.218  0.4762 -1.1247  1.3528
  772MOL0     H 1900   8.361   0.061   4.052  3.0916  0.8228  0.5389
  772MOL0     H 1901   8.315   0.229   4.028  3.1909  0.5392  0.4536
  772MOL0     H 1902   8.575   0.347   4.301 -0.2374 -0.4164  0.8718
  772MOL0     H 1903   7.807  -0.108   4.407  2.0951  0.9058 -2.8116
  772MOL0     H 1904   7.594  -0.111   4.493  0.8376  0.1266 -1.3318
  773MOL0     O 1905   9.198   6.752   0.803 -0.2667 -0.3255  0.1898
  773MOL0     C 1906   9.264   6.827   0.875  0.2458 -0.1458 -0.1207
  773MOL0     O 1907   9.220   6.879   0.990  0.5813 -0.1680 -0.0610
  773MOL0     C 1908   9.089   6.865   1.027 -0.1426  0.1152  0.3911
  773MOL0     C 1909   9.054   6.845   1.161  0.5439 -0.1590  0.1686
  773MOL0     C 1910   8.916   6.850   1.198 -0.4253 -0.3034 -0.1242
  773MOL0     C 1911   8.821   6.889   1.113 -0.2170  0.4915 -0.6522
  773MOL0     O 1912   8.692   6.889   1.163 -0.7092  0.1094 -0.5216
  773MOL0     C 1913   8.599   6.980   1.105  0.4320  0.7712 -0.3128
  773MOL0     C 1914   8.511   6.905   1.006  0.1169 -0.7830 -0.2585
  773MOL0     C 1915   8.477   6.770   1.057 -1.0252 -0.1539 -0.8233
  773MOL0     C 1916   8.427   6.761   1.205 -0.2035 -0.4156  0.6614
  773MOL0     C 1917   8.336   6.644   1.237  0.0673  0.6608  0.5331
  773MOL0     C 1918   8.189   6.656   1.184 -0.5196 -0.2409 -0.4186
  773MOL0     C 1919   8.117   6.765   1.273  0.1517 -0.7426  1.0361
  773MOL0     C 1920   8.058   6.699   1.401  0.0838 -0.1281  1.0511
  773MOL0     N 1921   7.994   6.566   1.381 -0.2594 -0.0197 -0.5264
  773MOL0     C 1922   7.916   6.522   1.278 -0.2242  0.0427 -0.2856
  773MOL0     C 1923   7.838   6.423   1.326  0.5201 -0.1150 -0.1784
  773MOL0     C 1924   7.744   6.332   1.246 -0.2683  0.0581 -0.1132
  773MOL0     C 1925   7.602   6.378   1.233 -0.3352  0.2668 -0.1464
  773MOL0     C 1926   7.538   6.340   1.367 -0.3245  0.1324  0.3767
  773MOL0     C 1927   7.388   6.365   1.358 -0.2061 -0.0244  0.5224
  773MOL0     O 1928   7.327   6.409   1.484 -0.1638 -0.0615  0.2479
  773MOL0     C 1929   7.189   6.394   1.506  0.2676  0.1509  0.4598
  773MOL0     C 1930   7.155   6.422   1.640  1.0621 -0.0219 -0.6594
  773MOL0     C 1931   7.021   6.430   1.677  0.3059 -0.3514 -0.2551
  773MOL0     C 1932   6.915   6.407   1.588 -0.2347 -0.3398 -0.1187
  773MOL0     C 1933   6.772   6.397   1.620  0.9542  0.3188 -0.4345
  773MOL0     O 1934   6.683   6.375   1.517 -0.7662 -0.2595 -0.8498
  773MOL0     C 1935   6.541   6.375   1.508  0.0139 -0.3513  0.1183
  773MOL0     C 1936   6.495   6.344   1.382  0.1771  0.0955  0.1359
  773MOL0     C 1937   6.358   6.339   1.358 -0.5078 -0.2825 -0.2764
  773MOL0     C 1938   6.269   6.390   1.450 -0.6293 -0.1094 -0.4004
  773MOL0     O 1939   6.139   6.380   1.416 -0.0251 -0.6615 -0.3407
  773MOL0     C 1940   6.075   6.273   1.484  0.0555  0.0498 -0.7133
  773MOL0     C 1941   5.939   6.237   1.418 -0.3793 -0.3714 -0.3366
  773MOL0     C 1942   5.839   6.356   1.417 -0.4626  0.2765  0.3664
  773MOL0     C 1943   5.824   6.426   1.555 -0.1711  0.3415 -0.6574
  773MOL0     C 1944   5.852   6.564   1.536  0.3406 -0.6462  0.1404
  773MOL0     C 1945   5.831   6.658   1.646  0.2784  0.1867 -1.3291
  773MOL0     C 1946   5.863   6.808   1.629  0.1536 -0.2117 -0.3122
  773MOL0     C 1947   5.993   6.873   1.674 -0.1919 -0.4375  0.0240
  773MOL0    Cl 1948   6.148   6.811   1.605  0.1554  0.5664  0.2488
  773MOL0     C 1949   6.314   6.427   1.576 -0.7185  0.5559 -0.4399
  773MOL0     C 1950   6.457   6.410   1.607 -0.4569 -0.0764 -0.3449
  773MOL0     O 1951   6.743   6.398   1.738  0.1136 -0.3019 -0.6537
  773MOL0     C 1952   6.956   6.378   1.455 -0.0918  0.7082  0.7859
  773MOL0     C 1953   7.094   6.373   1.414  0.9471  0.3629  0.1683
  773MOL0     N 1954   7.881   6.395   1.454 -0.4541 -0.0614 -0.0604
  773MOL0     N 1955   7.969   6.485   1.484 -0.4293 -0.2643 -0.3648
  773MOL0     C 1956   8.857   6.915   0.985  0.1538  0.5355  0.3768
  773MOL0     C 1957   8.985   6.897   0.936  0.6097 -0.0958 -0.4526
  773MOL0     C 1958   9.407   6.833   0.848 -0.5502 -0.4249  0.6362
  773MOL0     C 1959   9.501   6.816   0.957 -0.5862 -0.2324  0.9371
  773MOL0     C 1960   9.636   6.829   0.929 -0.7097 -0.4780  0.0593
  773MOL0     C 1961   9.685   6.841   0.801 -0.2174 -0.2140 -1.0504
  773MOL0     O 1962   9.823   6.846   0.780 -0.1440  0.1227  0.3262
  773MOL0     C 1963   9.902   6.783   0.872  0.1770  0.4689 -0.3062
  773MOL0     C 1964  10.033   6.732   0.802 -0.4167  0.7759 -0.3545
  773MOL0     C 1965  10.105   6.846   0.731  0.3604 -0.1423 -0.1710
  773MOL0     C 1966  10.088   6.840   0.577  0.1834  0.3092  0.5413
  773MOL0     C 1967  10.172   6.946   0.516  0.3133 -0.0580  0.7049
  773MOL0     C 1968  10.231   7.042   0.475  0.5808 -0.2134  0.4696
  773MOL0     C 1969   9.593   6.845   0.695 -0.5028 -0.1053 -0.1153
  773MOL0     C 1970   9.455   6.839   0.715 -0.1130 -0.0660 -0.7597
  773MOL0     H 1971   9.123   6.821   1.241  1.3893 -0.0613 -0.5099
  773MOL0     H 1972   8.878   6.828   1.298  0.0860  0.4721  0.2496
  773MOL0     H 1973   8.647   7.071   1.067 -2.5272  2.5444 -0.1234
  773MOL0     H 1974   8.536   7.017   1.186 -2.3421  1.5523 -2.6430
  773MOL0     H 1975   8.571   6.876   0.920  0.1989 -1.0201 -0.1250
  773MOL0     H 1976   8.419   6.955   0.973  0.9931  1.3063  0.3095
  773MOL0     H 1977   8.568   6.710   1.061  0.1400  1.5686  2.3903
  773MOL0     H 1978   8.409   6.714   0.992 -1.0090  0.8022 -1.6755
  773MOL0     H 1979   8.521   6.740   1.257 -0.6864  2.4205  2.8865
  773MOL0     H 1980   8.385   6.858   1.229  0.5051  0.4725 -1.4135
  773MOL0     H 1981   8.319   6.636   1.345  0.3460 -0.5133  0.5063
  773MOL0     H 1982   8.379   6.551   1.198 -2.6082 -0.8746  1.0027
  773MOL0     H 1983   8.151   6.553   1.179  1.5326 -1.3597  2.9590
  773MOL0     H 1984   8.201   6.697   1.083  1.4208  2.4662  0.7973
  773MOL0     H 1985   8.182   6.853   1.278 -1.4714  1.4971 -5.9285
  773MOL0     H 1986   8.037   6.812   1.215 -0.2021 -3.8004 -1.2061
  773MOL0     H 1987   7.988   6.777   1.432 -2.0133 -0.2222 -2.7559
  773MOL0     H 1988   8.142   6.689   1.470 -0.2969  0.8721  1.6827
  773MOL0     H 1989   7.899   6.556   1.176  3.9846  2.3637 -0.4576
  773MOL0     H 1990   7.745   6.234   1.294 -1.7476  0.7083  1.3135
  773MOL0     H 1991   7.786   6.318   1.145  0.0139 -1.5334  0.1876
  773MOL0     H 1992   7.550   6.324   1.154  0.5249  2.6249 -2.4720
  773MOL0     H 1993   7.591   6.483   1.207  2.2035  0.5040 -0.5678
  773MOL0     H 1994   7.572   6.241   1.402 -1.0324  0.2577  1.4657
  773MOL0     H 1995   7.575   6.404   1.448  1.3125 -1.2098  0.7673
  773MOL0     H 1996   7.346   6.274   1.313 -2.0884  0.5796  0.9572
  773MOL0     H 1997   7.371   6.443   1.283 -2.1402  0.7375  1.6779
  773MOL0     H 1998   7.224   6.450   1.719  0.8816 -1.7982  0.1931
  773MOL0     H 1999   7.003   6.443   1.783 -3.0828 -1.1793 -0.6350
  773MOL0     H 2000   6.560   6.318   1.298  1.6480  0.3735  1.1442
  773MOL0     H 2001   6.330   6.293   1.263 -1.6223 -0.3816  0.0848
  773MOL0     H 2002   6.075   6.272   1.594  1.4346  0.0252 -0.6953
  773MOL0     H 2003   6.140   6.186   1.471  3.4500  2.3446 -0.6043
  773MOL0     H 2004   5.900   6.146   1.463  3.8513 -2.8285 -1.0834
  773MOL0     H 2005   5.954   6.200   1.316 -1.9363 -2.7803  0.2165
  773MOL0     H 2006   5.739   6.315   1.397  0.5749 -0.9511 -3.0687
  773MOL0     H 2007   5.856   6.421   1.331  3.2493 -1.5215 -0.5048
  773MOL0     H 2008   5.725   6.424   1.601  1.6162 -2.0839  3.8572
  773MOL0     H 2009   5.883   6.383   1.637 -0.8959 -0.0499 -0.3272
  773MOL0     H 2010   5.781   6.595   1.459  0.3516  0.1649  0.4551
  773MOL0     H 2011   5.953   6.570   1.496  0.3171  1.1399  0.2966
  773MOL0     H 2012   5.881   6.617   1.735 -0.5816  0.4161 -0.7277
  773MOL0     H 2013   5.724   6.661   1.668  0.6553  0.3017  0.7402
  773MOL0     H 2014   5.853   6.814   1.520 -1.3489 -1.9525 -0.3180
  773MOL0     H 2015   5.783   6.869   1.671  0.4745 -0.8717  1.3092
  773MOL0     H 2016   5.990   6.885   1.782  2.9841 -0.2494  0.1835
  773MOL0     H 2017   5.989   6.979   1.647  1.6002  0.0230  1.3891
  773MOL0     H 2018   6.242   6.454   1.652 -0.1608  0.7932  0.0148
  773MOL0     H 2019   6.497   6.420   1.707  0.8681 -0.9794 -0.7602
  773MOL0     H 2020   6.881   6.370   1.377 -0.9191 -0.7904  1.6871
  773MOL0     H 2021   7.117   6.355   1.310 -1.3192  2.7218 -0.8496
  773MOL0     H 2022   8.777   6.947   0.918 -0.4263 -1.7344 -0.0818
  773MOL0     H 2023   9.028   6.913   0.837  1.1469 -2.9465 -0.7941
  773MOL0     H 2024   9.464   6.802   1.058 -1.5211  0.1730  0.6584
  773MOL0     H 2025   9.703   6.815   1.013 -1.9401 -0.5781  1.0562
  773MOL0     H 2026   9.847   6.698   0.912 -2.2280  1.9021 -0.3493
  773MOL0     H 2027   9.931   6.853   0.951 -2.0690  2.5260 -1.1808
  773MOL0     H 2028  10.098   6.695   0.882  0.0339  0.9504 -0.6413
  773MOL0     H 2029  10.013   6.650   0.732 -1.1633 -1.6446  2.4764
  773MOL0     H 2030  10.209   6.840   0.766 -0.4758 -0.9703  2.4320
  773MOL0     H 2031  10.056   6.939   0.760  1.5367  0.3778  0.2246
  773MOL0     H 2032  10.116   6.741   0.540  2.3942  2.0446 -2.9020
  773MOL0     H 2033   9.982   6.842   0.548  0.4219  0.3967 -0.3565
  773MOL0     H 2034  10.286   7.120   0.427  0.4159 -0.1076  0.4481
  773MOL0     H 2035   9.633   6.850   0.594 -3.5532 -0.1117 -1.4179
  773MOL0     H 2036   9.380   6.854   0.637  0.6073  0.0239 -1.4534
  774MOL0     O 2037   1.977  10.269   3.179  0.1351 -0.4357 -0.1211
  774MOL0     C 2038   1.981  10.235   3.295 -0.6191 -0.3356 -0.9990
  774MOL0     O 2039   1.871  10.223   3.374  0.0418  0.7865 -0.4195
  774MOL0     C 2040   1.744  10.283   3.355 -0.4576  0.9434  0.0480
  774MOL0     C 2041   1.704  10.365   3.248 -0.0777 -0.9429 -1.4194
  774MOL0     C 2042   1.569  10.400   3.231 -0.3070 -0.6219 -0.2190
  774MOL0     C 2043   1.478  10.359   3.329 -0.2596  0.7168  0.2709
  774MOL0     O 2044   1.351  10.395   3.306 -0.1673  0.3807 -0.7745
  774MOL0     C 2045   1.248  10.340   3.397 -0.8275  0.6298 -0.1762
  774MOL0     C 2046   1.113  10.386   3.355 -0.2770 -0.0002 -1.1646
  774MOL0     C 2047   1.032  10.259   3.324  0.5014  0.0005 -0.1340
  774MOL0     C 2048   0.883  10.304   3.284 -0.3616  0.7751  0.0228
  774MOL0     C 2049   0.800  10.369   3.405 -0.8716 -0.4603 -0.2887
  774MOL0     C 2050   0.660  10.410   3.367 -0.1260  0.9503  0.3020
  774MOL0     C 2051   0.590  10.487   3.481  0.4889  0.5699  0.2896
  774MOL0     C 2052   0.577  10.396   3.613 -0.8316 -1.5252  0.8692
  774MOL0     N 2053   0.465  10.433   3.695  0.0604 -0.0450 -0.9548
  774MOL0     C 2054   0.438  10.554   3.746 -0.9799  0.6928 -0.4262
  774MOL0     C 2055   0.349  10.535   3.843 -0.2772 -0.4006  0.5769
  774MOL0     C 2056   0.275  10.629   3.933  1.1062 -0.1996 -0.5491
  774MOL0     C 2057   0.162  10.571   4.026 -1.4539  0.4101  0.8838
  774MOL0     C 2058   0.071  10.670   4.085  0.4323 -0.2578  0.5901
  774MOL0     C 2059  -0.049  10.597   4.158  0.3305  0.5571  0.4247
  774MOL0     O 2060  -0.128  10.523   4.059  0.1007 -0.1699 -0.6789
  774MOL0     C 2061  -0.250  10.480   4.091  0.0051  0.6776 -0.5509
  774MOL0     C 2062  -0.308  10.503   4.213 -0.1843  0.7744 -0.5844
  774MOL0     C 2063  -0.438  10.453   4.246 -0.3144  0.3692  0.0387
  774MOL0     C 2064  -0.501  10.372   4.142 -0.2489 -0.8034  0.0515
  774MOL0     C 2065  -0.635  10.319   4.163 -1.3191 -0.4891 -0.1803
  774MOL0     O 2066  -0.659  10.298   4.294  0.5839  0.1623  0.2578
  774MOL0     C 2067  -0.784  10.253   4.347  0.0409 -0.1654  0.3950
  774MOL0     C 2068  -0.779  10.257   4.485  0.3473  0.1211  1.3871
  774MOL0     C 2069  -0.892  10.210   4.552  0.5572 -0.0761 -0.0736
  774MOL0     C 2070  -1.004  10.159   4.481  0.0951  0.6455 -0.3136
  774MOL0     O 2071  -1.111  10.106   4.550  0.2541  0.5424  0.0119
  774MOL0     C 2072  -1.217  10.210   4.553 -0.5950 -0.4436 -0.7827
  774MOL0     C 2073  -1.344  10.131   4.577  0.1614 -0.0743 -0.3032
  774MOL0     C 2074  -1.402  10.124   4.719 -0.8266  0.0644 -0.1615
  774MOL0     C 2075  -1.529  10.050   4.717  0.3984  0.0622 -0.0643
  774MOL0     C 2076  -1.598  10.044   4.853 -0.5017 -0.3236 -0.7554
  774MOL0     C 2077  -1.518   9.944   4.940  0.3295 -0.3922  0.0964
  774MOL0     C 2078  -1.603   9.907   5.059 -0.3593 -0.6153  0.3300
  774MOL0     C 2079  -1.528   9.817   5.154  0.2761 -0.5280 -0.3008
  774MOL0    Cl 2080  -1.503   9.655   5.080  0.3587  0.0581 -0.1711
  774MOL0     C 2081  -1.002  10.156   4.341  1.0208 -0.2520  0.4952
  774MOL0     C 2082  -0.892  10.207   4.268  0.9169  0.3323  0.2037
  774MOL0     O 2083  -0.714  10.314   4.073 -0.5759  0.7850  0.1456
  774MOL0     C 2084  -0.437  10.355   4.018  0.1406 -0.4435  0.0047
  774MOL0     C 2085  -0.308  10.398   3.998  0.1481  0.2027 -0.3972
  774MOL0     N 2086   0.314  10.401   3.847  0.0150  0.7259 -0.2545
  774MOL0     N 2087   0.380  10.349   3.754 -0.1654  0.6064 -0.2459
  774MOL0     C 2088   1.518  10.285   3.438 -0.3416  0.1310  1.3915
  774MOL0     C 2089   1.648  10.241   3.453  0.3014  0.3559  0.7919
  774MOL0     C 2090   2.113  10.179   3.336  0.2688  0.1293 -0.1565
  774MOL0     C 2091   2.115  10.062   3.414 -0.1252 -0.7258  0.3981
  774MOL0     C 2092   2.235   9.998   3.431  0.2058 -0.0284 -1.0208
  774MOL0     C 2093   2.358  10.053   3.394 -0.0162  0.2614 -0.3664
  774MOL0     O 2094   2.465   9.974   3.439 -0.6198 -0.7462  0.1975
  774MOL0     C 2095   2.601  10.038   3.432 -0.6673  0.1088 -0.1079
  774MOL0     C 2096   2.638  10.156   3.526 -0.3667  0.1269 -0.2258
  774MOL0     C 2097   2.776  10.187   3.527 -0.3575  0.4635  0.7636
  774MOL0     C 2098   2.835  10.241   3.402  0.2674  1.0524 -0.5208
  774MOL0     C 2099   2.808  10.382   3.381 -0.1303 -0.6081  0.6720
  774MOL0     C 2100   2.780  10.500   3.345 -0.4313  0.2890  0.1821
  774MOL0     C 2101   2.364  10.177   3.319 -0.0700  0.6979  0.2389
  774MOL0     C 2102   2.236  10.236   3.285 -0.2615  0.1633 -1.1424
  774MOL0     H 2103   1.779  10.389   3.174 -0.5016 -0.0453 -1.5796
  774MOL0     H 2104   1.534  10.436   3.135  0.1911  3.3420  0.8882
  774MOL0     H 2105   1.278  10.368   3.498  0.2966 -0.6007 -0.1379
  774MOL0     H 2106   1.250  10.231   3.406 -1.0155  0.5355 -1.1323
  774MOL0     H 2107   1.112  10.450   3.267  0.7433  1.8854  0.1273
  774MOL0     H 2108   1.068  10.437   3.441 -1.8118  0.8093 -2.3969
  774MOL0     H 2109   1.032  10.200   3.416  0.5950  0.0555 -0.0990
  774MOL0     H 2110   1.077  10.194   3.248 -0.8134 -2.9940  1.5061
  774MOL0     H 2111   0.889  10.376   3.202  1.7044  0.0073 -0.5660
  774MOL0     H 2112   0.831  10.216   3.244 -0.1814 -0.3218  2.0626
  774MOL0     H 2113   0.853  10.461   3.435  0.5511 -0.7019 -1.9141
  774MOL0     H 2114   0.809  10.307   3.495  1.4204 -0.0038 -0.1322
  774MOL0     H 2115   0.605  10.318   3.346  2.7566 -0.7682 -0.1718
  774MOL0     H 2116   0.671  10.472   3.277  4.0691  0.4650  0.2710
  774MOL0     H 2117   0.649  10.578   3.493  0.1940  0.7118  0.6952
  774MOL0     H 2118   0.486  10.507   3.453  0.0967 -2.5133 -0.8734
  774MOL0     H 2119   0.675  10.408   3.661  1.6607  0.8556 -4.0707
  774MOL0     H 2120   0.572  10.291   3.583 -2.0516 -1.2190 -0.0947
  774MOL0     H 2121   0.481  10.651   3.724  1.0229 -0.3399 -1.3309
  774MOL0     H 2122   0.226  10.707   3.873 -2.4893 -2.9528 -1.5134
  774MOL0     H 2123   0.342  10.687   3.998 -2.4013 -0.9907  4.2816
  774MOL0     H 2124   0.214  10.526   4.112  0.7377  1.7083  0.3126
  774MOL0     H 2125   0.111  10.494   3.968  2.6417 -2.8933  1.1592
  774MOL0     H 2126   0.129  10.724   4.161  1.2908 -0.0253 -0.2097
  774MOL0     H 2127   0.037  10.734   4.004  0.3793 -0.2705  0.6019
  774MOL0     H 2128  -0.112  10.677   4.199  0.7243  0.5052  1.1485
  774MOL0     H 2129  -0.015  10.528   4.236 -0.0123  1.3017  1.2551
  774MOL0     H 2130  -0.261  10.559   4.293  1.3417 -1.4207  0.1529
  774MOL0     H 2131  -0.487  10.465   4.342 -1.1222 -0.1161 -0.2970
  774MOL0     H 2132  -0.693  10.302   4.532  0.1948  0.9404  0.9016
  774MOL0     H 2133  -0.905  10.210   4.659 -0.9493 -3.6031 -0.1446
  774MOL0     H 2134  -1.230  10.263   4.458 -6.8244  0.0662 -0.0677
  774MOL0     H 2135  -1.211  10.281   4.636 -2.7103 -0.7996 -0.2491
  774MOL0     H 2136  -1.329  10.032   4.532 -2.6343 -0.5096 -0.4575
  774MOL0     H 2137  -1.417  10.189   4.519  0.1319  1.7348  1.4489
  774MOL0     H 2138  -1.416  10.226   4.756 -1.0162  0.7152 -1.9457
  774MOL0     H 2139  -1.322  10.070   4.771 -0.9344 -2.1859 -2.1494
  774MOL0     H 2140  -1.591  10.097   4.641 -0.9841 -2.0925 -0.3319
  774MOL0     H 2141  -1.515   9.948   4.682  0.2034  0.3864 -1.1123
  774MOL0     H 2142  -1.701  10.011   4.835 -0.4617 -1.8124  1.2945
  774MOL0     H 2143  -1.607  10.139   4.906  1.3945 -0.7876  0.5076
  774MOL0     H 2144  -1.426   9.994   4.970 -1.5023  3.6203 -0.2441
  774MOL0     H 2145  -1.496   9.859   4.875  1.4875 -0.2043  0.2343
  774MOL0     H 2146  -1.627  10.000   5.111  1.1558 -0.4212  0.7077
  774MOL0     H 2147  -1.696   9.857   5.029 -0.2771 -0.1868 -0.6749
  774MOL0     H 2148  -1.577   9.807   5.252 -2.1589 -0.5560 -1.4328
  774MOL0     H 2149  -1.433   9.869   5.166  0.0333  0.3545 -1.9236
  774MOL0     H 2150  -1.088  10.125   4.282 -0.5460  1.0327  1.9923
  774MOL0     H 2151  -0.900  10.217   4.160 -4.0442 -2.4778  0.0321
  774MOL0     H 2152  -0.476  10.291   3.940 -1.9740  0.9675 -0.1725
  774MOL0     H 2153  -0.260  10.383   3.902  2.5606  0.0222  0.7695
  774MOL0     H 2154   1.449  10.269   3.520 -0.7552  2.1944  1.4997
  774MOL0     H 2155   1.682  10.183   3.538  2.1828 -0.1529 -0.2340
  774MOL0     H 2156   2.032  10.015   3.465  0.0371 -2.5558 -0.9641
  774MOL0     H 2157   2.224   9.899   3.475 -0.6914 -0.6314 -2.5173
  774MOL0     H 2158   2.614  10.084   3.334 -0.4293  1.4187  0.5158
  774MOL0     H 2159   2.675   9.958   3.445 -3.9820 -3.0148  1.4300
  774MOL0     H 2160   2.590  10.248   3.492 -1.1107 -1.2684 -3.3172
  774MOL0     H 2161   2.605  10.142   3.629  2.4605 -2.3472  0.4860
  774MOL0     H 2162   2.830  10.095   3.550 -1.9099 -1.4770 -2.7373
  774MOL0     H 2163   2.807  10.253   3.610  0.1836  0.8862  0.2384
  774MOL0     H 2164   2.944  10.239   3.412  0.3249  1.7197 -0.9623
  774MOL0     H 2165   2.806  10.179   3.316  0.1146  0.3112  0.0597
  774MOL0     H 2166   2.769  10.605   3.326 -2.1359  0.0176 -0.5968
  774MOL0     H 2167   2.453  10.216   3.269 -1.3794  0.1590 -2.7291
  774MOL0     H 2168   2.243  10.323   3.219  1.3797  1.9354  1.1723
  775MOL0     O 2169  10.467   1.380   5.878 -0.4258 -0.0203 -0.1353
  775MOL0     C 2170  10.426   1.476   5.940 -0.4915 -0.7072 -0.5834
  775MOL0     O 2171  10.507   1.566   6.007 -0.5882  0.1672  0.0971
  775MOL0     C 2172  10.644   1.564   5.981 -0.4809 -1.1703  0.1215
  775MOL0     C 2173  10.726   1.468   6.035 -0.2661  0.1803  0.0412
  775MOL0     C 2174  10.865   1.483   6.043  0.5490  0.0576  0.0082
  775MOL0     C 2175  10.922   1.601   5.988 -0.0466 -0.1180  0.2561
  775MOL0     O 2176  11.059   1.613   6.008  0.1636  0.2800 -0.4435
  775MOL0     C 2177  11.135   1.697   5.923 -0.7623  0.2587 -0.6948
  775MOL0     C 2178  11.287   1.694   5.965  0.5198  0.6862 -0.3258
  775MOL0     C 2179  11.377   1.741   5.847 -0.0596  0.7825  0.4999
  775MOL0     C 2180  11.529   1.742   5.874 -0.0867  0.1002 -1.0611
  775MOL0     C 2181  11.611   1.821   5.771  0.1244 -0.3960 -0.2364
  775MOL0     C 2182  11.592   1.973   5.793  0.3131 -0.1562  0.9024
  775MOL0     C 2183  11.687   2.057   5.710  0.2842 -1.1853  0.7022
  775MOL0     C 2184  11.614   2.125   5.582 -0.0929 -0.0488  0.1227
  775MOL0     N 2185  11.570   2.028   5.487 -0.9544 -0.5812  0.1450
  775MOL0     C 2186  11.649   1.928   5.432  0.1048  0.7082  0.6059
  775MOL0     C 2187  11.575   1.851   5.352 -0.2665  0.1109 -0.3428
  775MOL0     C 2188  11.622   1.720   5.291  0.1946 -0.9298  0.7303
  775MOL0     C 2189  11.612   1.610   5.388 -1.2324  0.1450 -0.5904
  775MOL0     C 2190  11.469   1.562   5.420 -0.2300 -0.5856 -0.0882
  775MOL0     C 2191  11.360   1.562   5.309 -0.1581 -0.1918 -0.1429
  775MOL0     O 2192  11.234   1.513   5.348  0.3398  0.1580 -0.3352
  775MOL0     C 2193  11.145   1.593   5.413 -0.2849 -0.5863  0.4085
  775MOL0     C 2194  11.185   1.717   5.468  0.3650 -0.1706  0.0326
  775MOL0     C 2195  11.088   1.800   5.523  0.2593  0.0326  0.3576
  775MOL0     C 2196  10.952   1.766   5.531 -0.3321  0.2438 -0.8846
  775MOL0     C 2197  10.856   1.856   5.594  0.0109 -0.1371 -0.1834
  775MOL0     O 2198  10.880   1.988   5.597  0.3123  0.6282 -0.3396
  775MOL0     C 2199  10.772   2.067   5.576 -0.6126 -0.7244 -0.6402
  775MOL0     C 2200  10.781   2.202   5.619 -0.0388 -0.4971 -0.0037
  775MOL0     C 2201  10.697   2.298   5.569 -0.3496 -0.7239 -0.8921
  775MOL0     C 2202  10.585   2.273   5.480  0.0448  1.0815 -0.0638
  775MOL0     O 2203  10.493   2.376   5.442 -0.6249  0.3837 -0.0202
  775MOL0     C 2204  10.425   2.362   5.313 -0.3445  0.8523  0.5587
  775MOL0     C 2205  10.353   2.492   5.277  0.0422 -0.0255  0.1275
  775MOL0     C 2206  10.336   2.498   5.125  0.1548 -1.0089 -0.6635
  775MOL0     C 2207  10.273   2.373   5.057  1.1945 -0.2655 -0.5378
  775MOL0     C 2208  10.246   2.397   4.910 -0.4478 -0.3719 -0.5002
  775MOL0     C 2209  10.122   2.494   4.888  0.4921  0.2644  0.4424
  775MOL0     C 2210  10.057   2.455   4.751 -0.5271  0.3704 -0.3336
  775MOL0     C 2211   9.944   2.545   4.705 -0.1912  0.2154  0.3109
  775MOL0    Cl 2212   9.834   2.601   4.837  0.1472 -0.2121 -0.1387
  775MOL0     C 2213  10.569   2.135   5.445 -0.0191  0.4144  1.0412
  775MOL0     C 2214  10.665   2.042   5.487 -0.3513 -0.7558 -0.2408
  775MOL0     O 2215  10.754   1.803   5.646 -0.2750 -0.2505  1.5337
  775MOL0     C 2216  10.922   1.638   5.480  0.0549  0.4533  0.5542
  775MOL0     C 2217  11.020   1.553   5.431 -0.7605 -0.4181  1.0440
  775MOL0     N 2218  11.445   1.898   5.361  0.9093 -0.4649 -0.1750
  775MOL0     N 2219  11.445   2.002   5.447 -0.2229  0.1174  0.2474
  775MOL0     C 2220  10.844   1.697   5.923  0.3023 -0.2402 -0.0161
  775MOL0     C 2221  10.704   1.674   5.917  0.4053  0.3886  0.5214
  775MOL0     C 2222  10.279   1.507   5.944  0.3594 -1.0398 -0.9963
  775MOL0     C 2223  10.225   1.628   5.989 -0.0652 -0.6551  0.3868
  775MOL0     C 2224  10.087   1.659   5.990 -0.0192 -0.4052  0.6072
  775MOL0     C 2225   9.999   1.561   5.961 -0.0753  0.8728  0.1686
  775MOL0     O 2226   9.868   1.597   5.983 -0.8542  0.0213  0.1889
  775MOL0     C 2227   9.777   1.489   5.996 -0.5082  0.1313 -0.3948
  775MOL0     C 2228   9.643   1.542   6.054  0.1510 -0.0100 -0.2337
  775MOL0     C 2229   9.550   1.588   5.939  0.2304 -0.2032 -0.9302
  775MOL0     C 2230   9.444   1.672   6.006  0.5614 -1.7206 -1.2223
  775MOL0     C 2231   9.348   1.712   5.900  0.3774 -0.9419  0.9398
  775MOL0     C 2232   9.257   1.732   5.819 -0.3179  0.4924 -0.3429
  775MOL0     C 2233  10.045   1.439   5.911  0.0856  0.1738 -0.1957
  775MOL0     C 2234  10.186   1.413   5.909 -0.1918 -0.1018  0.1779
  775MOL0     H 2235  10.695   1.378   6.086  1.0683 -0.3952 -0.1076
  775MOL0     H 2236  10.926   1.420   6.106 -1.3511 -0.0430  1.8414
  775MOL0     H 2237  11.107   1.802   5.936  0.6877  0.3703  2.4010
  775MOL0     H 2238  11.110   1.657   5.824 -1.0573  0.1479 -0.5764
  775MOL0     H 2239  11.315   1.595   6.003  2.5509  1.0685 -0.6810
  775MOL0     H 2240  11.300   1.761   6.051  0.6322  3.3679 -2.2929
  775MOL0     H 2241  11.335   1.836   5.814 -0.5449  1.2148  2.2559
  775MOL0     H 2242  11.363   1.672   5.763  0.0203  0.1363  1.0083
  775MOL0     H 2243  11.546   1.799   5.966  2.0589  0.2531 -1.5035
  775MOL0     H 2244  11.565   1.640   5.895 -1.8073 -0.0846  1.3152
  775MOL0     H 2245  11.575   1.803   5.669  1.0157 -1.0566 -0.4419
  775MOL0     H 2246  11.714   1.784   5.768  0.7265  1.2590 -1.5362
  775MOL0     H 2247  11.615   1.998   5.897  0.7272  1.7366  0.3838
  775MOL0     H 2248  11.487   2.003   5.787  0.1410 -0.9984 -1.0927
  775MOL0     H 2249  11.722   2.135   5.779  0.2069 -0.9186  0.4457
  775MOL0     H 2250  11.768   1.995   5.670  0.1308 -1.3402  0.6318
  775MOL0     H 2251  11.676   2.199   5.530 -1.6820  1.5948  0.4696
  775MOL0     H 2252  11.525   2.170   5.626 -0.3657 -0.6736  0.2222
  775MOL0     H 2253  11.755   1.917   5.450  0.6059  0.2071 -2.2225
  775MOL0     H 2254  11.723   1.752   5.263 -0.7129  2.1839  0.6047
  775MOL0     H 2255  11.568   1.700   5.198 -0.4677  2.4406  0.2629
  775MOL0     H 2256  11.655   1.642   5.484  0.7614 -0.9769 -1.0625
  775MOL0     H 2257  11.679   1.530   5.357 -1.6387 -1.9495  3.2899
  775MOL0     H 2258  11.487   1.463   5.463  0.8348  0.4415  1.9761
  775MOL0     H 2259  11.437   1.618   5.508 -0.7013  1.1869 -1.3509
  775MOL0     H 2260  11.389   1.493   5.229 -0.4496 -1.2240  0.6299
  775MOL0     H 2261  11.347   1.663   5.267 -1.2648  0.4334  1.6200
  775MOL0     H 2262  11.288   1.754   5.464  0.4957 -0.6376 -2.0996
  775MOL0     H 2263  11.116   1.893   5.572 -0.1935  0.0037  0.6706
  775MOL0     H 2264  10.871   2.229   5.674 -0.8490 -0.2254  1.2425
  775MOL0     H 2265  10.715   2.401   5.597  1.9633 -1.7760  2.0796
  775MOL0     H 2266  10.350   2.283   5.327  0.0267  0.7598  2.2368
  775MOL0     H 2267  10.496   2.333   5.235  0.6096  3.0092  0.5472
  775MOL0     H 2268  10.398   2.589   5.299 -0.0537  0.5043 -1.7828
  775MOL0     H 2269  10.264   2.493   5.339  2.2563  0.7590  3.5691
  775MOL0     H 2270  10.425   2.526   5.068 -1.0613  0.1359 -2.1069
  775MOL0     H 2271  10.264   2.579   5.105  0.0183 -1.1979 -0.9448
  775MOL0     H 2272  10.349   2.295   5.059  0.2134 -1.2198  0.3841
  775MOL0     H 2273  10.185   2.338   5.111  2.0322  2.4757  2.9921
  775MOL0     H 2274  10.237   2.299   4.863  1.1056 -0.8414  0.1456
  775MOL0     H 2275  10.332   2.445   4.864 -2.1156  2.5106 -0.9081
  775MOL0     H 2276  10.147   2.600   4.880  0.2093  0.3006 -0.0401
  775MOL0     H 2277  10.043   2.484   4.963 -2.4451  1.3394 -2.2674
  775MOL0     H 2278  10.140   2.459   4.681 -2.7279 -0.3374 -3.1555
  775MOL0     H 2279  10.023   2.352   4.737  1.3471  0.0143 -2.8073
  775MOL0     H 2280   9.891   2.486   4.630  0.5367  0.5976 -0.5314
  775MOL0     H 2281   9.969   2.636   4.650 -6.6930  0.9770 -2.2234
  775MOL0     H 2282  10.483   2.100   5.389  0.3081 -1.3118  1.5490
  775MOL0     H 2283  10.647   1.940   5.454 -2.9981  0.0475 -1.5046
  775MOL0     H 2284  10.821   1.598   5.480  0.5781 -0.9350 -0.1482
  775MOL0     H 2285  10.995   1.460   5.381 -0.2569  0.6977 -1.4560
  775MOL0     H 2286  10.881   1.787   5.874 -1.6991 -0.8604 -2.9321
  775MOL0     H 2287  10.641   1.748   5.868 -1.5538  0.3509  2.8271
  775MOL0     H 2288  10.296   1.706   6.015 -2.8239  2.1072  0.1956
  775MOL0     H 2289  10.049   1.757   6.019 -2.3942 -0.7759 -0.9110
  775MOL0     H 2290   9.820   1.418   6.067 -5.2564 -1.7137  1.0430
  775MOL0     H 2291   9.761   1.450   5.895 -1.0606  0.1832 -0.3317
  775MOL0     H 2292   9.596   1.460   6.108 -1.2562  0.4244 -0.7647
  775MOL0     H 2293   9.663   1.622   6.126 -0.2689 -0.2992  0.2023
  775MOL0     H 2294   9.490   1.501   5.912 -1.2893 -0.1449  1.9625
  775MOL0     H 2295   9.599   1.643   5.858 -1.5312  0.5440 -1.5281
  775MOL0     H 2296   9.401   1.620   6.092 -1.9286  2.4128  0.3320
  775MOL0     H 2297   9.486   1.764   6.047 -1.8035 -1.5684  1.1105
  775MOL0     H 2298   9.169   1.764   5.766  0.3498  0.7152 -1.3317
  775MOL0     H 2299   9.983   1.352   5.892  0.7393 -0.5042  0.6653
  775MOL0     H 2300  10.227   1.327   5.857  1.8430 -0.5245  2.3192
  776MOL0     O 2301   0.038   2.650   1.170 -0.4052  0.2306  0.1306
  776MOL0     C 2302   0.074   2.581   1.074  0.0753  0.0626  0.0842
  776MOL0     O 2303  -0.007   2.510   0.990 -0.2208  0.1353  0.1272
  776MOL0     C 2304  -0.135   2.545   0.970 -0.4451 -0.7887  0.2198
  776MOL0     C 2305  -0.212   2.437   0.927 -0.2719 -0.5887 -0.4638
  776MOL0     C 2306  -0.346   2.464   0.887 -0.4314 -0.2562 -0.3556
  776MOL0     C 2307  -0.411   2.588   0.902  0.0578  0.4677 -0.3662
  776MOL0     O 2308  -0.540   2.603   0.856  0.0633  0.4196  0.6094
  776MOL0     C 2309  -0.593   2.739   0.843  0.0466 -0.2466 -0.0252
  776MOL0     C 2310  -0.728   2.758   0.774 -0.1324 -0.9497  0.7383
  776MOL0     C 2311  -0.849   2.680   0.831  0.1336  0.1516  0.6261
  776MOL0     C 2312  -0.935   2.658   0.707  0.4351 -0.0371  0.7369
  776MOL0     C 2313  -1.068   2.592   0.734  0.1616 -0.0850  0.5546
  776MOL0     C 2314  -1.124   2.514   0.605 -0.5802 -0.3282 -0.5645
  776MOL0     C 2315  -1.263   2.446   0.627 -0.1644  0.1642 -0.7294
  776MOL0     C 2316  -1.283   2.364   0.751 -0.3861  0.5059 -0.3383
  776MOL0     N 2317  -1.423   2.324   0.759  0.2399 -0.0013 -0.1100
  776MOL0     C 2318  -1.526   2.386   0.820 -0.5913  0.2257 -0.2922
  776MOL0     C 2319  -1.642   2.334   0.780  0.2150 -0.2173  0.8026
  776MOL0     C 2320  -1.776   2.353   0.844 -0.2790  0.1510  0.2850
  776MOL0     C 2321  -1.884   2.260   0.786 -0.0274 -0.5646  0.3614
  776MOL0     C 2322  -1.895   2.131   0.848 -0.9622 -0.0171  0.0846
  776MOL0     C 2323  -1.992   2.045   0.782  0.2602  0.6330 -0.3292
  776MOL0     O 2324  -2.127   2.111   0.779 -0.5853  0.3071  0.1236
  776MOL0     C 2325  -2.246   2.037   0.787  0.4682  0.1518 -0.1320
  776MOL0     C 2326  -2.361   2.104   0.794  0.4553  0.0168 -0.9622
  776MOL0     C 2327  -2.486   2.032   0.791  0.8471 -0.2439 -0.0400
  776MOL0     C 2328  -2.492   1.892   0.785  0.1260 -0.7357 -0.1127
  776MOL0     C 2329  -2.624   1.823   0.770  0.2414  0.4433  0.4030
  776MOL0     O 2330  -2.630   1.695   0.724  0.6682 -0.5135 -0.5431
  776MOL0     C 2331  -2.762   1.643   0.713 -0.1513  0.1758  0.1828
  776MOL0     C 2332  -2.811   1.569   0.819  0.5453 -0.0053  0.3783
  776MOL0     C 2333  -2.931   1.503   0.820 -0.7223 -0.0694  0.3482
  776MOL0     C 2334  -3.013   1.506   0.708  0.0508 -0.7330  0.6109
  776MOL0     O 2335  -3.132   1.435   0.707  0.3949 -0.0787  0.4075
  776MOL0     C 2336  -3.213   1.471   0.827 -0.8452 -0.8646  0.2332
  776MOL0     C 2337  -3.358   1.488   0.784 -0.3195  0.1722  0.0391
  776MOL0     C 2338  -3.428   1.357   0.730 -0.0133 -0.1895  0.2399
  776MOL0     C 2339  -3.579   1.362   0.713  0.4009  0.0980 -0.7725
  776MOL0     C 2340  -3.660   1.366   0.849  0.0727 -0.3243 -0.5114
  776MOL0     C 2341  -3.815   1.382   0.824 -0.4884  0.5464 -0.4299
  776MOL0     C 2342  -3.888   1.397   0.962 -0.4202 -0.0463  0.7901
  776MOL0     C 2343  -4.044   1.404   0.940  0.3307 -0.4222 -0.2409
  776MOL0    Cl 2344  -4.112   1.429   1.106 -0.2021 -0.2937 -0.3959
  776MOL0     C 2345  -2.957   1.562   0.592  0.3339 -0.4163  0.4898
  776MOL0     C 2346  -2.836   1.628   0.594  1.0544 -0.2464  0.7943
  776MOL0     O 2347  -2.727   1.881   0.813 -0.3884  0.8056  0.3742
  776MOL0     C 2348  -2.372   1.823   0.774  0.1630 -0.6205 -0.1394
  776MOL0     C 2349  -2.249   1.895   0.771 -0.3149 -1.0907  0.3963
  776MOL0     N 2350  -1.613   2.227   0.706 -0.7085  0.4756 -0.1139
  776MOL0     N 2351  -1.484   2.220   0.693 -0.4447 -0.3026 -0.1731
  776MOL0     C 2352  -0.334   2.693   0.961  0.5230 -0.1512 -0.3995
  776MOL0     C 2353  -0.194   2.673   0.991  0.6077  0.6434  0.3954
  776MOL0     C 2354   0.218   2.552   1.068 -0.3373 -1.5949  0.9620
  776MOL0     C 2355   0.276   2.472   0.969 -1.0972 -0.7629  0.1056
  776MOL0     C 2356   0.412   2.432   0.969  0.6237 -0.5213 -0.1467
  776MOL0     C 2357   0.494   2.488   1.073  0.2038  0.3167  0.0736
  776MOL0     O 2358   0.628   2.470   1.091  0.5408  0.0266  0.3700
  776MOL0     C 2359   0.700   2.379   1.012  0.2628 -0.0445 -0.2979
  776MOL0     C 2360   0.855   2.390   1.028  0.4133  0.0159  0.5632
  776MOL0     C 2361   0.902   2.427   1.174  0.0525  0.2156 -0.7695
  776MOL0     C 2362   0.869   2.308   1.278  0.3073  0.3448  0.1509
  776MOL0     C 2363   0.923   2.176   1.233  0.6679 -0.5154 -0.5621
  776MOL0     C 2364   0.971   2.069   1.200  0.2390  0.2974 -0.3706
  776MOL0     C 2365   0.433   2.576   1.165  0.1349 -0.3200  0.2685
  776MOL0     C 2366   0.298   2.603   1.166 -0.6033 -1.3617  0.6380
  776MOL0     H 2367  -0.169   2.341   0.899 -0.2337  0.2780 -3.6926
  776MOL0     H 2368  -0.409   2.388   0.842  1.8600 -1.8020 -1.0942
  776MOL0     H 2369  -0.525   2.807   0.792 -0.1112 -1.3933 -1.8599
  776MOL0     H 2370  -0.597   2.781   0.944  1.2412  0.9183 -0.4386
  776MOL0     H 2371  -0.720   2.727   0.669 -4.5344 -2.1275  0.5553
  776MOL0     H 2372  -0.744   2.866   0.771  0.3608 -0.8867 -1.0301
  776MOL0     H 2373  -0.890   2.747   0.907 -0.4565  2.2145 -1.4008
  776MOL0     H 2374  -0.815   2.586   0.876  1.8427 -0.0428 -0.9738
  776MOL0     H 2375  -0.945   2.746   0.642  1.5302  1.1539  2.1200
  776MOL0     H 2376  -0.878   2.586   0.647 -0.3877 -2.0196  2.1974
  776MOL0     H 2377  -1.139   2.663   0.777 -0.7650 -1.8610  2.1186
  776MOL0     H 2378  -1.049   2.512   0.807  2.7741  0.6323  0.7815
  776MOL0     H 2379  -1.062   2.432   0.568 -1.8154 -1.6324  0.1560
  776MOL0     H 2380  -1.137   2.584   0.522  1.7758 -0.9203 -1.4887
  776MOL0     H 2381  -1.334   2.530   0.636 -1.0833 -0.7064  0.5503
  776MOL0     H 2382  -1.292   2.380   0.546 -2.3631  0.4161 -0.2065
  776MOL0     H 2383  -1.249   2.414   0.843  3.1710 -3.1943  0.6458
  776MOL0     H 2384  -1.216   2.278   0.739 -1.2978 -0.2619 -0.0516
  776MOL0     H 2385  -1.519   2.466   0.893 -0.7997 -1.4053  1.6013
  776MOL0     H 2386  -1.802   2.459   0.835  1.0861  0.4290 -0.5079
  776MOL0     H 2387  -1.768   2.335   0.952 -1.1353  0.3131  0.3830
  776MOL0     H 2388  -1.868   2.250   0.678  0.4711  1.9570  0.1300
  776MOL0     H 2389  -1.977   2.315   0.805  0.9248  1.5447 -0.6591
  776MOL0     H 2390  -1.795   2.090   0.832 -0.2251  0.6592  2.4676
  776MOL0     H 2391  -1.914   2.137   0.956  1.7839 -1.9451  0.7695
  776MOL0     H 2392  -1.999   1.953   0.840  1.2922  0.7590  0.0062
  776MOL0     H 2393  -1.960   2.013   0.683  2.1227 -1.1620  0.7806
  776MOL0     H 2394  -2.357   2.212   0.805  1.1109 -0.1378  0.5338
  776MOL0     H 2395  -2.578   2.090   0.801 -0.8023 -2.4874 -1.1573
  776MOL0     H 2396  -2.739   1.548   0.897  0.5314  3.6309  1.5716
  776MOL0     H 2397  -2.958   1.450   0.911  4.3120 -1.3691  1.3476
  776MOL0     H 2398  -3.168   1.558   0.876 -0.3704 -0.5030 -0.7998
  776MOL0     H 2399  -3.195   1.388   0.896  0.2778 -0.4552  0.4646
  776MOL0     H 2400  -3.353   1.572   0.713 -0.5555 -0.1112 -0.3167
  776MOL0     H 2401  -3.421   1.530   0.863 -2.0355 -1.3242 -0.4623
  776MOL0     H 2402  -3.400   1.270   0.790  0.2052  0.3889  0.9964
  776MOL0     H 2403  -3.373   1.344   0.636  2.3033 -0.8775  1.6149
  776MOL0     H 2404  -3.609   1.453   0.660 -0.3805  1.3724  1.6992
  776MOL0     H 2405  -3.614   1.282   0.648 -2.1477  1.7525 -1.5738
  776MOL0     H 2406  -3.618   1.449   0.908 -0.2186 -0.0445 -0.6925
  776MOL0     H 2407  -3.643   1.281   0.915  1.1406  3.5609  4.9680
  776MOL0     H 2408  -3.844   1.292   0.769 -0.5522  1.0589 -1.2536
  776MOL0     H 2409  -3.835   1.470   0.762 -0.5768  0.5169 -0.4445
  776MOL0     H 2410  -3.853   1.312   1.021  1.4692  0.7731  0.9382
  776MOL0     H 2411  -3.855   1.484   1.020 -2.7920  0.7587  1.0249
  776MOL0     H 2412  -4.073   1.305   0.904 -2.0513  0.5298 -1.1227
  776MOL0     H 2413  -4.070   1.482   0.869  1.4058 -2.0518 -2.5763
  776MOL0     H 2414  -3.008   1.562   0.496 -0.9477  1.2992  1.1344
  776MOL0     H 2415  -2.807   1.681   0.504 -2.0002  1.7881  0.8682
  776MOL0     H 2416  -2.379   1.715   0.765  2.9369 -1.1810  2.5618
  776MOL0     H 2417  -2.156   1.840   0.766  1.2053  1.2490  1.5395
  776MOL0     H 2418  -0.388   2.786   0.977 -0.2754 -0.2360 -2.3635
  776MOL0     H 2419  -0.138   2.755   1.036  1.4919  0.8816 -1.0759
  776MOL0     H 2420   0.220   2.433   0.885 -0.1451 -0.1076 -0.8747
  776MOL0     H 2421   0.459   2.355   0.908 -1.0060 -1.6076 -0.0951
  776MOL0     H 2422   0.675   2.395   0.907  2.7954 -0.3103 -1.0203
  776MOL0     H 2423   0.674   2.275   1.035 -0.2328  0.1748  0.1572
  776MOL0     H 2424   0.896   2.300   0.982 -2.1382 -1.3096  0.7553
  776MOL0     H 2425   0.875   2.480   0.969 -2.6943 -1.4135 -3.1186
  776MOL0     H 2426   0.868   2.530   1.185  0.0830  0.3605 -1.9127
  776MOL0     H 2427   1.011   2.429   1.176  0.3537 -4.0098 -2.0436
  776MOL0     H 2428   0.916   2.342   1.371 -1.2879  2.8875  0.1262
  776MOL0     H 2429   0.761   2.304   1.297  0.3867 -0.0638  0.5248
  776MOL0     H 2430   1.019   1.975   1.179 -1.6684 -0.9234  0.4360
  776MOL0     H 2431   0.499   2.612   1.243 -1.6948  0.7859  1.3767
  776MOL0     H 2432   0.277   2.678   1.242  1.1809  0.0890 -0.2157
  777MOL0     O 2433   4.816   2.745   8.940 -0.2656  0.0420 -0.5883
  777MOL0     C 2434   4.868   2.630   8.968  0.7786  0.3165 -0.2678
  777MOL0     O 2435   4.801   2.511   8.973  1.0537  0.3927  0.4367
  777MOL0     C 2436   4.660   2.502   8.957 -0.0557 -1.4032 -0.6339
  777MOL0     C 2437   4.573   2.576   8.877  0.1228  0.6938  0.0885
  777MOL0     C 2438   4.438   2.546   8.874  0.2822 -0.8727  0.1854
  777MOL0     C 2439   4.386   2.441   8.947  1.0256  0.4907 -0.2019
  777MOL0     O 2440   4.253   2.413   8.944 -0.3471 -0.6495  0.4130
  777MOL0     C 2441   4.162   2.483   9.032 -0.5321  0.4611 -0.5931
  777MOL0     C 2442   4.016   2.478   8.991 -0.0473  0.8394 -0.3875
  777MOL0     C 2443   3.949   2.349   9.058 -0.3458 -0.6606  1.8020
  777MOL0     C 2444   3.815   2.331   8.987  0.5784  0.2339  0.5623
  777MOL0     C 2445   3.702   2.406   9.057 -0.3253 -0.0400 -0.8123
  777MOL0     C 2446   3.649   2.335   9.181  0.2723  0.1170  0.1741
  777MOL0     C 2447   3.533   2.424   9.232 -0.3600  0.0936  0.3381
  777MOL0     C 2448   3.481   2.387   9.365 -0.3423 -0.8546 -0.5532
  777MOL0     N 2449   3.359   2.469   9.399 -0.1164  0.0015 -0.2496
  777MOL0     C 2450   3.361   2.601   9.408  0.4482 -0.4815 -0.7660
  777MOL0     C 2451   3.238   2.619   9.464 -1.1540  0.3899 -0.5297
  777MOL0     C 2452   3.190   2.748   9.499 -0.5739 -0.1754 -0.0912
  777MOL0     C 2453   3.116   2.821   9.386 -0.1222 -0.2902  0.0380
  777MOL0     C 2454   2.965   2.803   9.410 -0.2637  0.2788  0.2331
  777MOL0     C 2455   2.882   2.898   9.495 -1.1291  0.0282 -0.1203
  777MOL0     O 2456   2.874   3.024   9.429  0.1255  0.0674  0.3792
  777MOL0     C 2457   2.751   3.091   9.419 -0.4079  0.5378 -0.2868
  777MOL0     C 2458   2.687   3.098   9.296  0.1619  0.3289  0.1149
  777MOL0     C 2459   2.564   3.162   9.289  0.1567  0.2629  0.5161
  777MOL0     C 2460   2.511   3.234   9.395  0.1192 -0.4106 -0.4812
  777MOL0     C 2461   2.390   3.317   9.371 -0.2380  0.1937 -0.6986
  777MOL0     O 2462   2.310   3.289   9.266  0.4146 -0.0494 -0.0788
  777MOL0     C 2463   2.193   3.351   9.261  0.9513 -0.7655  0.3822
  777MOL0     C 2464   2.079   3.302   9.322 -0.2896 -0.3133  0.3294
  777MOL0     C 2465   1.963   3.379   9.328 -0.8561  0.4721  0.0656
  777MOL0     C 2466   1.959   3.501   9.262 -1.5209 -0.3356 -0.9862
  777MOL0     O 2467   1.841   3.566   9.255 -0.0843  0.4304 -0.0519
  777MOL0     C 2468   1.840   3.710   9.261 -0.4045  0.8813  0.0588
  777MOL0     C 2469   1.693   3.749   9.269  0.6652  0.5209  0.4318
  777MOL0     C 2470   1.676   3.890   9.201 -0.8141  0.5199 -0.8158
  777MOL0     C 2471   1.521   3.923   9.200  1.0714  0.5429 -0.5059
  777MOL0     C 2472   1.488   3.986   9.067 -1.0821  0.0098  0.3605
  777MOL0     C 2473   1.345   4.020   9.053  0.2324 -0.1187 -0.2803
  777MOL0     C 2474   1.325   4.112   8.930  0.5524 -0.3377  0.1361
  777MOL0     C 2475   1.173   4.141   8.908 -0.0616  0.8975 -1.0759
  777MOL0    Cl 2476   1.169   4.246   8.772  0.6218 -0.5216  0.2606
  777MOL0     C 2477   2.078   3.556   9.199  0.9154  0.1349 -0.6825
  777MOL0     C 2478   2.193   3.479   9.201  0.3662  0.9311  1.2022
  777MOL0     O 2479   2.366   3.401   9.457 -0.2591 -0.0069  0.1228
  777MOL0     C 2480   2.571   3.226   9.515  0.3057 -0.3000  1.0203
  777MOL0     C 2481   2.687   3.142   9.532  0.0913 -1.0081  0.6970
  777MOL0     N 2482   3.168   2.506   9.486 -0.8901 -0.4432  1.0999
  777MOL0     N 2483   3.237   2.417   9.433  0.0751 -0.9080  0.8000
  777MOL0     C 2484   4.475   2.359   9.022 -0.8878  0.2886 -0.0047
  777MOL0     C 2485   4.610   2.397   9.031  0.8453 -0.5140  0.1226
  777MOL0     C 2486   5.008   2.622   9.007 -0.4317  0.1105 -0.4846
  777MOL0     C 2487   5.066   2.499   9.064 -0.1193 -0.3862  0.4496
  777MOL0     C 2488   5.205   2.498   9.082 -0.3998 -0.4002 -0.1402
  777MOL0     C 2489   5.284   2.614   9.075 -0.1808 -0.7429  0.7364
  777MOL0     O 2490   5.421   2.595   9.101  0.8952  0.6364 -0.3727
  777MOL0     C 2491   5.489   2.713   9.142 -0.2940 -0.4855 -0.3433
  777MOL0     C 2492   5.630   2.676   9.168  1.1985  0.9976 -0.4347
  777MOL0     C 2493   5.706   2.766   9.263 -0.2376  0.6258  0.0876
  777MOL0     C 2494   5.850   2.742   9.266  0.3700  0.4546 -0.7776
  777MOL0     C 2495   5.872   2.612   9.345  0.5136  0.5322  0.6916
  777MOL0     C 2496   5.889   2.505   9.390 -0.9325  0.0159 -1.2158
  777MOL0     C 2497   5.227   2.732   9.017 -0.0299  0.7727 -0.3522
  777MOL0     C 2498   5.092   2.728   8.981 -0.0297  0.2869  0.0497
  777MOL0     H 2499   4.603   2.663   8.821 -1.3137  0.9155 -0.3801
  777MOL0     H 2500   4.374   2.591   8.799  3.0898  1.5071 -0.9706
  777MOL0     H 2501   4.193   2.585   9.057  0.9262 -0.4984  2.0169
  777MOL0     H 2502   4.176   2.429   9.126 -0.3613  0.4086 -0.6474
  777MOL0     H 2503   4.009   2.475   8.881 -2.0436 -1.1992 -0.2669
  777MOL0     H 2504   3.971   2.571   9.025  3.0259  1.8131  1.4602
  777MOL0     H 2505   3.933   2.366   9.165 -2.7735  2.8910  1.0733
  777MOL0     H 2506   4.009   2.262   9.031  1.6939  1.0103  0.7083
  777MOL0     H 2507   3.816   2.369   8.884  1.1050  3.4648  1.6389
  777MOL0     H 2508   3.794   2.226   8.964  0.4363  0.1226  1.1897
  777MOL0     H 2509   3.613   2.421   8.995 -1.2522  0.0477  0.4837
  777MOL0     H 2510   3.740   2.502   9.092 -2.9649  0.5381  0.7920
  777MOL0     H 2511   3.724   2.323   9.259  1.6219 -1.4375 -1.3027
  777MOL0     H 2512   3.604   2.240   9.153  3.0335 -0.5634 -2.3620
  777MOL0     H 2513   3.568   2.528   9.225  2.3904 -0.6973  1.3535
  777MOL0     H 2514   3.453   2.416   9.158  1.2545  2.2635 -1.7986
  777MOL0     H 2515   3.557   2.396   9.443  1.4202  1.2118 -2.3862
  777MOL0     H 2516   3.449   2.282   9.373  0.9320 -1.0869  4.2986
  777MOL0     H 2517   3.440   2.669   9.377 -0.4154  0.2699 -1.3810
  777MOL0     H 2518   3.273   2.813   9.529 -1.4164  1.5976 -1.4212
  777MOL0     H 2519   3.131   2.740   9.591  1.8376 -0.1774  1.5465
  777MOL0     H 2520   3.142   2.776   9.290 -1.9196  2.4390 -1.8652
  777MOL0     H 2521   3.130   2.929   9.381 -1.4853 -0.1336 -1.1091
  777MOL0     H 2522   2.911   2.797   9.315  0.8705  1.6700 -0.5395
  777MOL0     H 2523   2.964   2.702   9.451  0.7903  0.4503  0.7038
  777MOL0     H 2524   2.925   2.916   9.594 -1.6568  1.8244 -0.1743
  777MOL0     H 2525   2.786   2.853   9.523 -1.8915  2.8914  2.4788
  777MOL0     H 2526   2.746   3.044   9.223 -1.4498 -2.8991  1.0058
  777MOL0     H 2527   2.515   3.161   9.193  1.0578  0.4963  0.0373
  777MOL0     H 2528   2.085   3.204   9.368 -2.2451 -0.1988  0.9415
  777MOL0     H 2529   1.866   3.347   9.366 -1.8012  0.5674 -2.1057
  777MOL0     H 2530   1.889   3.748   9.170 -0.0638 -0.5271 -0.3748
  777MOL0     H 2531   1.896   3.755   9.343  1.2514  2.2755 -1.7223
  777MOL0     H 2532   1.653   3.763   9.370 -0.4696 -0.8351  0.2115
  777MOL0     H 2533   1.641   3.665   9.221  0.9254  1.0251 -0.7829
  777MOL0     H 2534   1.716   3.887   9.099 -3.8758  3.4879 -2.2947
  777MOL0     H 2535   1.730   3.965   9.259 -1.6826 -1.8710  3.5270
  777MOL0     H 2536   1.460   3.832   9.204  3.5896 -1.2110  0.3659
  777MOL0     H 2537   1.498   3.979   9.291 -0.6245  0.5195 -0.8833
  777MOL0     H 2538   1.516   3.925   8.980 -0.2687  0.8881 -0.0166
  777MOL0     H 2539   1.545   4.079   9.061  2.4911 -1.8534  2.2293
  777MOL0     H 2540   1.298   4.071   9.138  0.9380  2.2202 -1.2085
  777MOL0     H 2541   1.287   3.927   9.047  2.3456 -1.5063 -0.0454
  777MOL0     H 2542   1.371   4.206   8.961  1.1165 -0.7634  0.6178
  777MOL0     H 2543   1.381   4.080   8.841 -2.0588  1.6314 -2.4390
  777MOL0     H 2544   1.143   4.197   8.997 -0.9309 -2.6977  1.0983
  777MOL0     H 2545   1.106   4.055   8.901  2.5625 -2.1136  4.3563
  777MOL0     H 2546   2.065   3.651   9.149  0.9045  2.0386  2.6637
  777MOL0     H 2547   2.279   3.519   9.148  1.1090 -1.9454  0.0378
  777MOL0     H 2548   2.524   3.270   9.602 -1.0326  1.0792 -0.3580
  777MOL0     H 2549   2.724   3.131   9.633 -1.5185 -1.0764  1.3056
  777MOL0     H 2550   4.435   2.271   9.072 -1.7766  0.4689 -0.3786
  777MOL0     H 2551   4.671   2.327   9.086 -0.8756 -0.9166  1.6290
  777MOL0     H 2552   5.001   2.415   9.087 -3.8638  2.0938 -0.1128
  777MOL0     H 2553   5.266   2.417   9.120  2.6571  0.5205 -2.6681
  777MOL0     H 2554   5.450   2.765   9.230  0.9196  2.5233 -1.4632
  777MOL0     H 2555   5.489   2.786   9.060  2.9848  1.8457  1.5026
  777MOL0     H 2556   5.637   2.573   9.205  2.0154  1.0270 -0.4740
  777MOL0     H 2557   5.685   2.669   9.074  1.4999 -5.4443 -0.2309
  777MOL0     H 2558   5.667   2.768   9.365  2.2320  3.7082  1.1117
  777MOL0     H 2559   5.696   2.860   9.209 -1.0613  0.3823 -0.2023
  777MOL0     H 2560   5.890   2.737   9.165  1.1312  0.8383 -0.5047
  777MOL0     H 2561   5.888   2.822   9.331 -1.2370  1.0851 -0.5594
  777MOL0     H 2562   5.896   2.402   9.420 -0.2728  0.5868  0.7582
  777MOL0     H 2563   5.271   2.831   9.014 -0.5809  1.0241 -0.2446
  777MOL0     H 2564   5.044   2.820   8.947  0.3188  0.6585  0.5458
  778MOL0     O 2565   8.050   1.710  11.242 -0.3509  0.4621  0.2133
  778MOL0     C 2566   8.091   1.793  11.323  0.2658  0.8697  0.4523
  778MOL0     O 2567   8.028   1.825  11.437 -0.0878 -0.1058 -0.2842
  778MOL0     C 2568   7.913   1.751  11.477  0.2322 -0.9688  0.1367
  778MOL0     C 2569   7.796   1.765  11.405 -0.3245  0.1040 -0.2997
  778MOL0     C 2570   7.678   1.717  11.452 -0.2114  0.7644  0.5281
  778MOL0     C 2571   7.665   1.657  11.575  0.2444  0.2721 -0.0181
  778MOL0     O 2572   7.561   1.597  11.620 -0.0291 -0.0586  0.5432
  778MOL0     C 2573   7.440   1.597  11.542 -0.4754  0.5656 -0.0612
  778MOL0     C 2574   7.324   1.530  11.611  0.0048  0.1164  0.7130
  778MOL0     C 2575   7.197   1.504  11.518  0.4139 -0.0383  0.0432
  778MOL0     C 2576   7.093   1.431  11.603 -0.1815 -0.1961  0.2158
  778MOL0     C 2577   6.952   1.461  11.546  0.1596  1.2922  0.6526
  778MOL0     C 2578   6.838   1.364  11.586  1.0941  0.4066  0.1084
  778MOL0     C 2579   6.699   1.394  11.505  0.2765 -0.0175 -0.1824
  778MOL0     C 2580   6.577   1.308  11.549  0.0761 -0.0714  0.2628
  778MOL0     N 2581   6.457   1.341  11.461  0.2177  0.2717 -0.7535
  778MOL0     C 2582   6.440   1.361  11.323 -0.5243 -0.4512 -0.1039
  778MOL0     C 2583   6.321   1.431  11.319 -0.8021  0.8113 -0.2359
  778MOL0     C 2584   6.248   1.468  11.188 -0.0673  0.1712 -0.0343
  778MOL0     C 2585   6.131   1.382  11.157 -0.5352  0.0186  0.1808
  778MOL0     C 2586   6.001   1.400  11.241  0.5320  0.8212 -0.3378
  778MOL0     C 2587   5.870   1.342  11.181 -0.1403 -0.0467  0.3710
  778MOL0     O 2588   5.830   1.419  11.068 -0.0651 -0.2801 -0.1050
  778MOL0     C 2589   5.710   1.383  11.019  0.1854  1.2434  0.8899
  778MOL0     C 2590   5.659   1.473  10.930  0.1006 -0.2102 -0.0908
  778MOL0     C 2591   5.528   1.456  10.872  0.0266  0.4370 -0.0147
  778MOL0     C 2592   5.453   1.351  10.913  0.4043 -0.5319  0.0858
  778MOL0     C 2593   5.316   1.340  10.865 -0.0570  1.2492 -0.1798
  778MOL0     O 2594   5.233   1.249  10.926 -0.5741 -0.4744  0.0145
  778MOL0     C 2595   5.107   1.232  10.882  0.3843 -0.9535  0.8424
  778MOL0     C 2596   4.986   1.304  10.926 -0.9510  0.7997  0.6112
  778MOL0     C 2597   4.864   1.282  10.860 -0.2121 -0.5292 -0.4240
  778MOL0     C 2598   4.856   1.201  10.742 -0.1168  0.3094 -0.2739
  778MOL0     O 2599   4.740   1.180  10.676  0.5578 -1.0959  0.3245
  778MOL0     C 2600   4.620   1.164  10.750  0.2678  0.9956 -0.2906
  778MOL0     C 2601   4.512   1.095  10.667 -0.3083 -0.7100 -0.5173
  778MOL0     C 2602   4.379   1.085  10.726 -0.1586  0.1917 -0.6379
  778MOL0     C 2603   4.283   1.051  10.615 -0.2593 -0.6909  0.7873
  778MOL0     C 2604   4.147   1.039  10.676 -0.7927 -0.2724  0.4158
  778MOL0     C 2605   4.058   0.951  10.593 -0.4611  0.3104  0.7220
  778MOL0     C 2606   3.929   0.944  10.666  0.0783  1.3493 -0.0410
  778MOL0     C 2607   3.836   0.840  10.599  0.3972  0.7088 -0.3228
  778MOL0    Cl 2608   3.673   0.844  10.673  0.1649  0.2928  0.0428
  778MOL0     C 2609   4.972   1.148  10.690  0.7511 -0.2282 -0.4652
  778MOL0     C 2610   5.094   1.157  10.762  0.2534  0.0815  0.3658
  778MOL0     O 2611   5.289   1.413  10.772 -0.5983 -0.4545 -0.0891
  778MOL0     C 2612   5.508   1.256  10.992 -0.2699  0.3075  0.3074
  778MOL0     C 2613   5.642   1.263  11.045 -0.3650 -0.9846 -0.4509
  778MOL0     N 2614   6.278   1.466  11.447  0.1779 -0.0072 -0.0971
  778MOL0     N 2615   6.359   1.413  11.526  0.0283 -0.4176 -0.2146
  778MOL0     C 2616   7.780   1.649  11.650 -0.4247  0.7525 -0.1256
  778MOL0     C 2617   7.909   1.694  11.600 -0.0574  0.4043  0.5547
  778MOL0     C 2618   8.211   1.862  11.298 -0.3812 -1.0116 -0.0229
  778MOL0     C 2619   8.269   1.872  11.173  0.3331  0.0763  0.1951
  778MOL0     C 2620   8.399   1.909  11.150  0.4667  0.4656  0.4385
  778MOL0     C 2621   8.478   1.951  11.256  0.3486 -0.0788  0.0947
  778MOL0     O 2622   8.607   1.995  11.251 -0.0740 -0.1743 -0.1756
  778MOL0     C 2623   8.654   2.002  11.117 -1.1449 -0.4606  0.4134
  778MOL0     C 2624   8.798   2.050  11.113 -0.8747  0.0796  0.6958
  778MOL0     C 2625   8.897   1.948  11.183  0.0481  0.1948 -0.0189
  778MOL0     C 2626   9.032   2.016  11.192 -0.3819  0.1450  0.0053
  778MOL0     C 2627   9.124   1.926  11.257 -0.1976 -0.0344 -0.1468
  778MOL0     C 2628   9.183   1.832  11.312  0.0443 -1.9812 -0.0205
  778MOL0     C 2629   8.424   1.948  11.382 -0.1247  0.9193  0.0712
  778MOL0     C 2630   8.283   1.911  11.401 -0.7019 -0.3892  1.0401
  778MOL0     H 2631   7.807   1.819  11.311  1.7970  1.1785  0.4933
  778MOL0     H 2632   7.587   1.720  11.392 -1.4339 -3.2719  1.8909
  778MOL0     H 2633   7.453   1.558  11.441  1.2173  0.0893  0.3091
  778MOL0     H 2634   7.407   1.699  11.519  1.5520  0.2885 -5.6072
  778MOL0     H 2635   7.286   1.580  11.701 -1.3886  2.3795 -1.0326
  778MOL0     H 2636   7.361   1.431  11.642  2.8479  1.1590  0.9092
  778MOL0     H 2637   7.223   1.448  11.428 -1.8261  2.3932 -2.2765
  778MOL0     H 2638   7.160   1.598  11.476  0.5167 -0.4088 -0.9082
  778MOL0     H 2639   7.120   1.326  11.619  1.1295  0.1432  0.3853
  778MOL0     H 2640   7.086   1.468  11.706 -2.1267  0.9633 -0.2757
  778MOL0     H 2641   6.960   1.456  11.437 -1.2437  1.9429  0.4921
  778MOL0     H 2642   6.925   1.565  11.563  0.3791  1.5107 -0.2689
  778MOL0     H 2643   6.825   1.373  11.694 -2.9588  1.8580 -0.3001
  778MOL0     H 2644   6.861   1.259  11.568  2.0332 -0.0038  3.1276
  778MOL0     H 2645   6.668   1.498  11.518 -0.2679 -0.0329 -1.2197
  778MOL0     H 2646   6.726   1.379  11.400  3.1783  0.0947  0.4699
  778MOL0     H 2647   6.564   1.342  11.652 -1.7220  1.8048 -0.5164
  778MOL0     H 2648   6.594   1.200  11.554 -2.7535 -0.8111 -2.7173
  778MOL0     H 2649   6.507   1.322  11.247 -0.2756 -1.7502  0.7509
  778MOL0     H 2650   6.317   1.455  11.103  2.3322  1.3909  1.5944
  778MOL0     H 2651   6.208   1.569  11.183  1.1200  0.8341  2.2825
  778MOL0     H 2652   6.155   1.275  11.163  0.0226  0.1830  1.0101
  778MOL0     H 2653   6.121   1.411  11.052 -0.3981  1.6106  0.5876
  778MOL0     H 2654   6.013   1.343  11.334 -3.5141 -2.4039 -1.4984
  778MOL0     H 2655   5.978   1.503  11.268 -1.2992  0.8312 -1.7747
  778MOL0     H 2656   5.788   1.356  11.253 -0.1596  1.8724  0.0307
  778MOL0     H 2657   5.901   1.243  11.149  0.7482  0.1873  0.4845
  778MOL0     H 2658   5.716   1.558  10.892 -0.7031  1.1278  1.5625
  778MOL0     H 2659   5.502   1.532  10.799  1.2521  1.6482  0.7607
  778MOL0     H 2660   4.995   1.360  11.018  2.1627 -1.3799  1.8097
  778MOL0     H 2661   4.774   1.318  10.907  1.4195  0.7130  1.9306
  778MOL0     H 2662   4.574   1.253  10.794 -1.7022 -0.5388  0.9174
  778MOL0     H 2663   4.636   1.095  10.833  3.4755 -0.6803 -2.1144
  778MOL0     H 2664   4.547   1.000  10.626  0.3450  1.0249 -4.3410
  778MOL0     H 2665   4.504   1.160  10.580  0.3819  2.1808  1.4295
  778MOL0     H 2666   4.340   1.178  10.768 -1.1574 -0.0910 -0.9168
  778MOL0     H 2667   4.369   1.006  10.801 -3.5287  1.6252  0.6483
  778MOL0     H 2668   4.285   1.140  10.551  1.4596 -1.7477 -0.7346
  778MOL0     H 2669   4.316   0.961  10.562  1.1215  1.0192 -1.4694
  778MOL0     H 2670   4.106   1.141  10.678  0.8450  0.4697 -1.2016
  778MOL0     H 2671   4.153   0.991  10.774  1.7254 -1.6564 -0.3251
  778MOL0     H 2672   4.107   0.853  10.600 -0.2957  0.4312  1.3720
  778MOL0     H 2673   4.055   0.996  10.494  0.3528  1.0847  1.0347
  778MOL0     H 2674   3.948   0.907  10.767 -0.0418 -0.4266 -0.6399
  778MOL0     H 2675   3.869   1.035  10.679 -0.6772  0.5231  3.1403
  778MOL0     H 2676   3.873   0.737  10.592 -1.8868 -0.0678 -2.6844
  778MOL0     H 2677   3.832   0.873  10.494  0.6554  0.0387 -0.5491
  778MOL0     H 2678   4.961   1.080  10.606 -1.1756  0.7311 -1.0678
  778MOL0     H 2679   5.172   1.093  10.721 -0.2779 -0.4155  0.1149
  778MOL0     H 2680   5.460   1.166  11.029  1.0835 -0.1580  1.0154
  778MOL0     H 2681   5.695   1.190  11.106  0.7715 -0.2648 -0.5314
  778MOL0     H 2682   7.785   1.605  11.749  0.0433 -0.8710 -0.8430
  778MOL0     H 2683   7.995   1.691  11.668 -1.4291  2.9446  2.5949
  778MOL0     H 2684   8.210   1.843  11.086 -1.5746 -0.7789  1.6851
  778MOL0     H 2685   8.443   1.899  11.051  0.6462  2.6968  0.2414
  778MOL0     H 2686   8.599   2.076  11.059  0.0957 -0.3705 -0.6932
  778MOL0     H 2687   8.646   1.901  11.075 -1.7718 -0.1144 -0.3330
  778MOL0     H 2688   8.827   2.067  11.009  0.7311  2.2092  1.4231
  778MOL0     H 2689   8.801   2.152  11.152  0.3659 -0.3727  1.8679
  778MOL0     H 2690   8.905   1.852  11.131  0.7387  0.1302  0.2026
  778MOL0     H 2691   8.855   1.926  11.282 -2.0148  0.0083 -0.8841
  778MOL0     H 2692   9.069   2.042  11.092 -0.7225  0.0815 -0.1369
  778MOL0     H 2693   9.030   2.102  11.258 -0.6366 -0.1586  0.3967
  778MOL0     H 2694   9.236   1.751  11.358  0.6172 -0.3412  2.4012
  778MOL0     H 2695   8.478   1.986  11.469  0.1626  0.3198  0.1611
  778MOL0     H 2696   8.244   1.917  11.502  2.7147  1.2497  2.4168
  779MOL0     O 2697   1.415   3.632   7.189  0.2967  0.0331  0.3794
  779MOL0     C 2698   1.413   3.745   7.138 -0.1200 -1.2012  0.1287
  779MOL0     O 2699   1.303   3.819   7.127 -0.3204 -0.1771  0.1780
  779MOL0     C 2700   1.186   3.778   7.183  0.7710  0.3288 -0.8475
  779MOL0     C 2701   1.071   3.795   7.111 -1.1041 -0.3315  0.3755
  779MOL0     C 2702   0.948   3.762   7.166  0.0750  0.6479  0.2394
  779MOL0     C 2703   0.940   3.715   7.305  0.8318 -0.4496  0.3523
  779MOL0     O 2704   0.814   3.689   7.365 -0.0573 -0.7580  0.0136
  779MOL0     C 2705   0.793   3.555   7.404  0.0112 -0.3818  0.3284
  779MOL0     C 2706   0.657   3.525   7.473 -0.1860 -0.9043  0.2530
  779MOL0     C 2707   0.527   3.582   7.405  0.1949  0.5026 -0.6469
  779MOL0     C 2708   0.508   3.531   7.262  0.2174 -0.0764  0.3650
  779MOL0     C 2709   0.406   3.612   7.173 -0.3347 -0.8088 -0.9592
  779MOL0     C 2710   0.422   3.770   7.156 -0.1421  1.1825 -0.1081
  779MOL0     C 2711   0.374   3.814   7.020  0.1077 -0.3143 -0.2046
  779MOL0     C 2712   0.234   3.754   6.991 -0.5979  0.0234  0.2846
  779MOL0     N 2713   0.171   3.842   6.894  0.3210  0.1780 -0.2935
  779MOL0     C 2714   0.096   3.951   6.923 -0.3103  0.2091 -0.8677
  779MOL0     C 2715   0.061   3.996   6.803 -0.3230  1.2753  0.8200
  779MOL0     C 2716  -0.044   4.101   6.768  0.6244 -0.7425  0.0006
  779MOL0     C 2717  -0.143   4.123   6.883  0.3917  0.5983  0.4882
  779MOL0     C 2718  -0.242   4.002   6.905  0.0758 -0.1615  0.6739
  779MOL0     C 2719  -0.366   4.041   6.990 -0.3942  0.4532 -0.5822
  779MOL0     O 2720  -0.457   4.103   6.900  0.0614 -0.6143 -0.3389
  779MOL0     C 2721  -0.588   4.113   6.933 -0.6755  0.4153  1.0480
  779MOL0     C 2722  -0.632   4.091   7.063  0.0391 -0.0463 -0.4359
  779MOL0     C 2723  -0.765   4.112   7.097 -0.4566  0.4448  0.4726
  779MOL0     C 2724  -0.856   4.138   7.002  0.4480 -0.5922  0.9344
  779MOL0     C 2725  -1.004   4.149   7.032  0.0704 -0.6009  0.1757
  779MOL0     O 2726  -1.080   4.236   6.957 -0.3629  1.0198 -0.2766
  779MOL0     C 2727  -1.209   4.267   6.982  0.6448 -0.2971 -0.2299
  779MOL0     C 2728  -1.304   4.201   7.060  0.1115  0.4478 -0.4850
  779MOL0     C 2729  -1.427   4.262   7.088  0.4396 -0.1745 -1.3635
  779MOL0     C 2730  -1.468   4.383   7.022 -0.3874  0.1658 -0.4253
  779MOL0     O 2731  -1.605   4.424   7.037  0.2418  0.0582 -1.2761
  779MOL0     C 2732  -1.641   4.556   6.991 -0.9370  0.0713 -0.6876
  779MOL0     C 2733  -1.717   4.558   6.855 -0.7693  0.3300 -0.3758
  779MOL0     C 2734  -1.816   4.440   6.838 -0.6581 -0.4353 -0.7876
  779MOL0     C 2735  -1.936   4.470   6.923 -0.0107  0.7219 -1.0201
  779MOL0     C 2736  -2.027   4.353   6.929  0.0456 -0.1530 -0.1534
  779MOL0     C 2737  -2.051   4.282   6.792  0.6211 -0.2565  0.2994
  779MOL0     C 2738  -2.115   4.147   6.820 -0.0259 -0.2677 -0.5019
  779MOL0     C 2739  -2.153   4.070   6.687 -0.0790 -0.0050  0.5249
  779MOL0    Cl 2740  -2.186   3.892   6.694 -0.0075 -0.3363  0.6619
  779MOL0     C 2741  -1.376   4.436   6.931 -0.4740 -0.7061 -0.0680
  779MOL0     C 2742  -1.251   4.382   6.916  0.7358  0.7670 -0.3243
  779MOL0     O 2743  -1.043   4.082   7.132 -0.4973 -0.0308  0.0422
  779MOL0     C 2744  -0.812   4.155   6.869 -0.6611  0.2448 -0.5882
  779MOL0     C 2745  -0.679   4.142   6.832 -0.5609 -0.8671 -0.3237
  779MOL0     N 2746   0.108   3.907   6.697 -0.0690 -0.3263 -0.1776
  779MOL0     N 2747   0.177   3.818   6.760 -0.1388 -0.0729 -1.2615
  779MOL0     C 2748   1.057   3.696   7.376  0.3173  0.3674 -0.2577
  779MOL0     C 2749   1.177   3.728   7.322  0.2016 -1.6540  0.2693
  779MOL0     C 2750   1.538   3.819   7.081  0.1538  0.2672 -0.1293
  779MOL0     C 2751   1.663   3.756   7.088  0.1308 -0.2673  0.2821
  779MOL0     C 2752   1.777   3.816   7.029  0.3413 -0.3687 -0.8111
  779MOL0     C 2753   1.767   3.940   6.966 -0.8398  0.5531  0.1597
  779MOL0     O 2754   1.891   3.982   6.927 -0.0856  0.7294  0.7154
  779MOL0     C 2755   1.913   4.118   6.886  0.5324  0.7444  0.2673
  779MOL0     C 2756   2.036   4.174   6.961  0.8044 -0.1808 -0.1275
  779MOL0     C 2757   2.160   4.080   6.947 -0.1308 -0.6547  0.3269
  779MOL0     C 2758   2.204   4.073   6.805 -0.2126  0.1477  0.1745
  779MOL0     C 2759   2.349   4.034   6.785  0.3132 -0.5563 -0.0936
  779MOL0     C 2760   2.452   3.987   6.749 -0.7597  0.6960 -0.0442
  779MOL0     C 2761   1.643   4.002   6.956  0.1170  0.3493 -0.2839
  779MOL0     C 2762   1.533   3.946   7.020 -0.0017  0.6858 -0.8244
  779MOL0     H 2763   1.080   3.832   7.009  0.1072  2.1511  1.2920
  779MOL0     H 2764   0.868   3.779   7.095 -0.4061 -2.1938  0.0030
  779MOL0     H 2765   0.877   3.507   7.453  0.6210 -1.5599 -1.7444
  779MOL0     H 2766   0.790   3.489   7.316 -1.3024  0.2144 -0.1027
  779MOL0     H 2767   0.667   3.565   7.574 -0.5851  2.1942 -0.8123
  779MOL0     H 2768   0.646   3.416   7.477  3.3590 -1.4781 -1.6135
  779MOL0     H 2769   0.534   3.691   7.416 -2.1443  0.4815  3.0274
  779MOL0     H 2770   0.438   3.550   7.460  1.1306 -1.8428 -0.4105
  779MOL0     H 2771   0.604   3.535   7.209 -0.3686 -0.2977 -0.7582
  779MOL0     H 2772   0.474   3.427   7.261  2.3728 -0.8735  2.4609
  779MOL0     H 2773   0.303   3.593   7.206 -0.6772 -1.8878 -2.5345
  779MOL0     H 2774   0.416   3.581   7.069  0.3569  2.0025 -1.7894
  779MOL0     H 2775   0.527   3.799   7.158  0.3399 -0.5018  0.5289
  779MOL0     H 2776   0.367   3.825   7.234  2.4107  0.9579  1.9629
  779MOL0     H 2777   0.374   3.923   7.010  1.0255 -0.4195 -1.9400
  779MOL0     H 2778   0.450   3.769   6.955  2.2672  0.7344  1.4759
  779MOL0     H 2779   0.166   3.744   7.076 -0.8555  2.3312  0.4220
  779MOL0     H 2780   0.245   3.653   6.949  0.0518 -0.8871  2.5166
  779MOL0     H 2781   0.060   4.004   7.010 -2.2298  0.6637 -1.8617
  779MOL0     H 2782  -0.097   4.075   6.675 -0.3303 -1.6734  0.7855
  779MOL0     H 2783   0.011   4.193   6.746  0.1901 -0.8776 -1.8797
  779MOL0     H 2784  -0.202   4.212   6.861 -0.3770  0.2638  1.1320
  779MOL0     H 2785  -0.095   4.157   6.975  1.3554  2.3234 -0.5973
  779MOL0     H 2786  -0.268   3.949   6.813  1.6555 -2.4660  1.4638
  779MOL0     H 2787  -0.184   3.922   6.950 -0.8200 -3.1353 -2.9610
  779MOL0     H 2788  -0.341   4.116   7.067 -1.1164  0.4921 -0.3781
  779MOL0     H 2789  -0.407   3.948   7.029 -0.0190 -0.3216 -1.9938
  779MOL0     H 2790  -0.556   4.065   7.136 -0.0098 -0.8752 -0.6772
  779MOL0     H 2791  -0.802   4.100   7.199 -0.5656  3.2478  0.8189
  779MOL0     H 2792  -1.274   4.116   7.120  0.3133 -0.5391 -1.9413
  779MOL0     H 2793  -1.496   4.224   7.162  2.3890 -0.6319  0.3064
  779MOL0     H 2794  -1.564   4.631   6.971 -2.6371  1.5606 -1.9527
  779MOL0     H 2795  -1.720   4.593   7.056 -0.7399 -0.1470 -0.3210
  779MOL0     H 2796  -1.653   4.556   6.766 -0.4265  0.8839 -0.1466
  779MOL0     H 2797  -1.773   4.652   6.858 -0.6517  0.4380 -1.2457
  779MOL0     H 2798  -1.764   4.350   6.873  0.1812  1.6918  4.3471
  779MOL0     H 2799  -1.844   4.453   6.733  1.2160 -0.1627 -1.2920
  779MOL0     H 2800  -1.912   4.491   7.028 -0.9733  0.1918 -0.6781
  779MOL0     H 2801  -1.985   4.559   6.882 -1.7775 -0.5553 -1.8165
  779MOL0     H 2802  -2.124   4.391   6.965  0.6179 -1.4490  3.1634
  779MOL0     H 2803  -1.994   4.279   7.003  2.2372  0.6152 -0.2888
  779MOL0     H 2804  -1.954   4.260   6.746  3.2205  3.6374  3.1990
  779MOL0     H 2805  -2.117   4.339   6.726  1.4525 -0.1172 -0.4203
  779MOL0     H 2806  -2.054   4.090   6.890 -0.2669  1.0630  0.8369
  779MOL0     H 2807  -2.207   4.172   6.874  2.1403  2.4248  2.3240
  779MOL0     H 2808  -2.069   4.079   6.617  1.0312 -0.0968  1.8021
  779MOL0     H 2809  -2.234   4.133   6.650  1.3149  2.0799  0.8260
  779MOL0     H 2810  -1.399   4.523   6.870  0.2492  0.8699  1.8032
  779MOL0     H 2811  -1.189   4.432   6.842  1.4933 -1.1899 -1.0771
  779MOL0     H 2812  -0.881   4.185   6.790 -0.5328  1.9669 -0.0799
  779MOL0     H 2813  -0.656   4.164   6.728  0.9061 -4.5242 -0.9264
  779MOL0     H 2814   1.048   3.670   7.481  2.0361 -3.8375 -0.9319
  779MOL0     H 2815   1.265   3.731   7.384 -0.3309  0.6818  1.0068
  779MOL0     H 2816   1.677   3.656   7.129 -0.3348 -1.1902 -1.6731
  779MOL0     H 2817   1.871   3.761   7.025 -0.2115 -1.2904 -1.7916
  779MOL0     H 2818   1.812   4.161   6.889 -1.4632 -3.0552 -2.8598
  779MOL0     H 2819   1.932   4.122   6.779 -0.1975  0.7320  0.1303
  779MOL0     H 2820   2.069   4.268   6.917  0.2164 -0.5089 -1.3013
  779MOL0     H 2821   2.000   4.189   7.063  1.1734 -0.9107  0.1153
  779MOL0     H 2822   2.132   3.989   6.999 -0.9368 -1.0567 -0.7750
  779MOL0     H 2823   2.238   4.132   7.004 -1.2043 -0.4733  1.6645
  779MOL0     H 2824   2.136   4.005   6.753  0.6953  0.1319 -1.0219
  779MOL0     H 2825   2.191   4.172   6.759  0.0868 -0.6024 -1.5872
  779MOL0     H 2826   2.554   3.968   6.721 -1.1302 -2.2275  0.2902
  779MOL0     H 2827   1.623   4.101   6.915  0.3010  0.2554 -0.6013
  779MOL0     H 2828   1.445   4.009   7.018  0.5717  1.5406 -0.3137
  780MOL0     O 2829   8.135   4.550   6.290 -0.3058 -0.5416  0.2384
  780MOL0     C 2830   8.180   4.623   6.376 -0.8329  0.5710  0.1999
  780MOL0     O 2831   8.107   4.728   6.441 -0.8009 -0.0144 -0.2446
  780MOL0     C 2832   7.976   4.724   6.437  0.0501  0.3803  0.6012
  780MOL0     C 2833   7.899   4.642   6.513  0.0990  0.3690 -0.0380
  780MOL0     C 2834   7.760   4.656   6.504  0.5141 -0.4822 -0.0778
  780MOL0     C 2835   7.703   4.739   6.405 -1.2739  0.1522 -0.1561
  780MOL0     O 2836   7.562   4.739   6.405 -0.4565 -0.3055 -0.0311
  780MOL0     C 2837   7.496   4.844   6.335  0.7738 -0.3601  0.0110
  780MOL0     C 2838   7.347   4.832   6.335 -0.1139 -0.3464  0.2826
  780MOL0     C 2839   7.284   4.914   6.225  0.3489  0.3592  0.2151
  780MOL0     C 2840   7.130   4.899   6.253  0.5433  0.1426  0.2116
  780MOL0     C 2841   7.038   4.952   6.147 -1.4015  0.2080 -0.2528
  780MOL0     C 2842   6.904   4.878   6.159  0.1728 -0.4553  0.5480
  780MOL0     C 2843   6.792   4.955   6.088 -0.0872  0.0197 -0.2708
  780MOL0     C 2844   6.657   4.882   6.114  0.4192 -0.0022  0.0907
  780MOL0     N 2845   6.623   4.767   6.022  0.4347  0.0406 -0.5565
  780MOL0     C 2846   6.494   4.735   5.983  0.1155  0.7552  0.4632
  780MOL0     C 2847   6.509   4.657   5.872  0.3803  0.3384  0.5015
  780MOL0     C 2848   6.396   4.575   5.808  0.6965  0.1865  0.7489
  780MOL0     C 2849   6.402   4.571   5.655  0.5594  0.2891 -0.1127
  780MOL0     C 2850   6.405   4.426   5.592  0.0797  0.1436  0.9868
  780MOL0     C 2851   6.404   4.410   5.437 -0.4484  0.6835 -0.3721
  780MOL0     O 2852   6.293   4.480   5.381  0.2989  0.1574 -1.4448
  780MOL0     C 2853   6.178   4.413   5.336 -0.2992  0.5401 -1.0526
  780MOL0     C 2854   6.155   4.274   5.350 -0.2961 -0.0425  0.4327
  780MOL0     C 2855   6.039   4.215   5.285  0.1101 -0.9013 -0.9723
  780MOL0     C 2856   5.950   4.303   5.222  0.6842 -0.0825 -0.3490
  780MOL0     C 2857   5.822   4.260   5.159  0.2797 -1.1265  0.0236
  780MOL0     O 2858   5.747   4.363   5.107  0.5182  0.4462  0.5920
  780MOL0     C 2859   5.623   4.331   5.061 -0.1296 -0.5133 -0.6364
  780MOL0     C 2860   5.524   4.266   5.125 -0.0438  0.1327  0.7276
  780MOL0     C 2861   5.407   4.220   5.058 -0.1621 -0.6261  0.1280
  780MOL0     C 2862   5.380   4.271   4.928 -0.0686  0.0433 -0.0170
  780MOL0     O 2863   5.258   4.233   4.869  0.0352 -0.2368 -0.3802
  780MOL0     C 2864   5.212   4.289   4.754 -0.6482  0.0039  0.3308
  780MOL0     C 2865   5.088   4.209   4.697  0.1137  0.0115  0.0625
  780MOL0     C 2866   5.143   4.071   4.640 -0.3391 -0.5163 -0.2420
  780MOL0     C 2867   5.036   3.965   4.610 -0.3889  0.4800  0.5511
  780MOL0     C 2868   4.957   4.002   4.487  0.5120 -0.3387 -0.4678
  780MOL0     C 2869   4.856   3.895   4.456 -0.4031  0.0545 -0.4796
  780MOL0     C 2870   4.778   3.937   4.325  0.4866  0.0658 -0.2672
  780MOL0     C 2871   4.668   3.844   4.280  0.1391 -0.1726 -0.0546
  780MOL0    Cl 2872   4.538   3.834   4.396 -0.6045 -0.1977  0.0785
  780MOL0     C 2873   5.487   4.341   4.863 -0.4425 -0.7440  0.5219
  780MOL0     C 2874   5.601   4.383   4.933  1.1541  0.6425 -0.2861
  780MOL0     O 2875   5.794   4.141   5.151  0.1269  0.9460 -0.6105
  780MOL0     C 2876   5.973   4.446   5.225 -0.2520  0.2280  0.2472
  780MOL0     C 2877   6.083   4.502   5.285 -0.7398  1.5628 -0.2376
  780MOL0     N 2878   6.647   4.645   5.841 -0.2420 -0.4003 -0.6773
  780MOL0     N 2879   6.713   4.708   5.932  0.3244 -0.0126  0.3580
  780MOL0     C 2880   7.786   4.815   6.320  0.8054  0.0142 -0.7447
  780MOL0     C 2881   7.922   4.808   6.335 -0.8023  0.3334  0.3234
  780MOL0     C 2882   8.327   4.618   6.401  0.7062 -0.4127 -1.0945
  780MOL0     C 2883   8.371   4.683   6.515 -0.5449  0.3526 -0.5010
  780MOL0     C 2884   8.509   4.700   6.538  0.4386 -0.1761 -0.5882
  780MOL0     C 2885   8.600   4.637   6.456  0.1279  0.1323 -0.3530
  780MOL0     O 2886   8.742   4.630   6.465  0.2157  0.1344 -0.1327
  780MOL0     C 2887   8.792   4.672   6.592  0.0034  0.6404  0.2254
  780MOL0     C 2888   8.756   4.581   6.699  0.1577  0.0834  0.1321
  780MOL0     C 2889   8.805   4.440   6.681  0.4196  0.5445  0.6593
  780MOL0     C 2890   8.788   4.377   6.818  0.8732  1.8820  0.2171
  780MOL0     C 2891   8.784   4.229   6.812 -0.0678 -0.4881  0.4920
  780MOL0     C 2892   8.768   4.112   6.792 -0.1190 -0.2969 -0.2829
  780MOL0     C 2893   8.553   4.558   6.354 -0.1899  0.0975  0.0820
  780MOL0     C 2894   8.422   4.555   6.318  0.3000 -0.4208 -0.3021
  780MOL0     H 2895   7.939   4.575   6.588  1.9160 -0.9631 -2.0726
  780MOL0     H 2896   7.690   4.613   6.574  2.6512 -1.7075  1.4353
  780MOL0     H 2897   7.520   4.838   6.228  1.0677  1.1867 -0.0458
  780MOL0     H 2898   7.529   4.945   6.361 -2.2569  1.1100 -1.3339
  780MOL0     H 2899   7.310   4.868   6.432 -0.6408 -0.7076  0.2188
  780MOL0     H 2900   7.330   4.726   6.318  0.3186 -0.4727  0.6065
  780MOL0     H 2901   7.309   4.875   6.125  0.0647  2.5603 -0.7782
  780MOL0     H 2902   7.314   5.018   6.238 -0.0565  0.1497  3.6020
  780MOL0     H 2903   7.122   4.790   6.247  1.5377  0.0603  0.2414
  780MOL0     H 2904   7.096   4.930   6.352 -1.7436 -1.4669  0.0144
  780MOL0     H 2905   7.076   4.928   6.047  0.1446 -1.3296  0.6509
  780MOL0     H 2906   7.019   5.059   6.162 -0.7773  0.4926 -1.3801
  780MOL0     H 2907   6.878   4.865   6.264  3.3526 -0.3411  1.4624
  780MOL0     H 2908   6.916   4.778   6.115 -0.8833 -0.0748 -0.6916
  780MOL0     H 2909   6.788   5.059   6.122 -0.4899  0.3015 -1.1581
  780MOL0     H 2910   6.815   4.947   5.981 -0.6256  0.9520 -0.4673
  780MOL0     H 2911   6.582   4.958   6.092  1.0111  0.5942  0.1123
  780MOL0     H 2912   6.647   4.860   6.220 -1.3230 -0.5014 -0.1523
  780MOL0     H 2913   6.395   4.755   6.021  0.2398 -1.6401  2.2533
  780MOL0     H 2914   6.297   4.607   5.841  0.0051 -0.4890 -0.5902
  780MOL0     H 2915   6.407   4.475   5.852  0.0795  0.6624  2.0246
  780MOL0     H 2916   6.490   4.626   5.621 -1.9680  3.8952 -1.4054
  780MOL0     H 2917   6.316   4.627   5.619 -0.3781 -1.3986 -0.6301
  780MOL0     H 2918   6.499   4.379   5.623 -0.0728 -0.2490  0.8602
  780MOL0     H 2919   6.325   4.369   5.640  0.1164 -3.0909 -2.3687
  780MOL0     H 2920   6.419   4.305   5.410  0.6733  0.7755 -0.1573
  780MOL0     H 2921   6.496   4.462   5.408  2.0254 -2.6608  0.8397
  780MOL0     H 2922   6.234   4.205   5.377 -0.3775 -1.6654 -2.9542
  780MOL0     H 2923   6.020   4.108   5.279 -1.1147 -0.6782 -1.2793
  780MOL0     H 2924   5.536   4.233   5.228  3.3561  0.0234  0.3956
  780MOL0     H 2925   5.328   4.156   5.098 -0.2933 -1.0602 -0.7841
  780MOL0     H 2926   5.296   4.292   4.684 -0.2965  0.2178  0.7546
  780MOL0     H 2927   5.194   4.395   4.775  1.5055  0.5173 -0.1316
  780MOL0     H 2928   5.041   4.275   4.623 -0.2404  0.0246  0.2962
  780MOL0     H 2929   5.020   4.190   4.780  1.1688 -2.1666  0.4921
  780MOL0     H 2930   5.219   4.037   4.711 -0.3614 -1.1389 -0.5123
  780MOL0     H 2931   5.199   4.088   4.547  1.9607  0.3984  1.2158
  780MOL0     H 2932   5.094   3.877   4.581  1.1127 -0.2357  4.9815
  780MOL0     H 2933   4.972   3.937   4.694 -0.1771  2.3196  1.3821
  780MOL0     H 2934   5.022   4.006   4.400  0.5913  1.1331 -0.3588
  780MOL0     H 2935   4.907   4.097   4.506 -0.0020 -0.1133 -2.7206
  780MOL0     H 2936   4.780   3.879   4.532 -0.0859 -2.4820 -0.6359
  780MOL0     H 2937   4.913   3.802   4.456 -1.0069 -0.3148  0.0677
  780MOL0     H 2938   4.735   4.037   4.338 -0.7852 -0.8634  4.0578
  780MOL0     H 2939   4.846   3.929   4.239  0.0665 -1.1237 -0.5071
  780MOL0     H 2940   4.710   3.742   4.283  1.1494  0.2288 -0.0540
  780MOL0     H 2941   4.627   3.864   4.180 -0.3314  0.1500  0.2026
  780MOL0     H 2942   5.484   4.368   4.758  1.1213 -0.9149  0.4042
  780MOL0     H 2943   5.682   4.435   4.884  0.2520  1.1804 -1.2597
  780MOL0     H 2944   5.911   4.517   5.171 -2.9003 -1.3256  1.0544
  780MOL0     H 2945   6.095   4.610   5.285  1.3673  1.3782  0.8650
  780MOL0     H 2946   7.753   4.872   6.233  1.4452 -0.8387 -1.5753
  780MOL0     H 2947   7.983   4.855   6.260 -1.0059  1.4451  0.8364
  780MOL0     H 2948   8.304   4.734   6.583 -0.2655 -1.5740  1.3139
  780MOL0     H 2949   8.538   4.760   6.624  0.3081  0.3819 -0.9323
  780MOL0     H 2950   8.762   4.770   6.630  1.8642  0.0759  3.5884
  780MOL0     H 2951   8.899   4.647   6.595  0.3614  1.9763 -0.6547
  780MOL0     H 2952   8.805   4.616   6.791  0.3241 -1.4839  0.6710
  780MOL0     H 2953   8.649   4.582   6.719  0.3142 -0.8273  1.0858
  780MOL0     H 2954   8.910   4.422   6.653  0.2032 -0.5279  0.4741
  780MOL0     H 2955   8.747   4.381   6.609  0.2450  1.2090  0.2461
  780MOL0     H 2956   8.874   4.404   6.881  1.6560 -1.2310  0.6648
  780MOL0     H 2957   8.698   4.401   6.876 -0.0142  2.0533 -1.2007
  780MOL0     H 2958   8.753   4.010   6.763  1.8533 -0.2978 -1.4704
  780MOL0     H 2959   8.619   4.493   6.298 -1.2139 -0.0089 -1.0542
  780MOL0     H 2960   8.388   4.496   6.233 -1.3831 -1.4301  1.0069
  781MOL0     O 2961   0.080   6.784   7.806  0.5124  1.2284  0.5107
  781MOL0     C 2962   0.152   6.880   7.812 -0.0144 -1.0318 -0.3677
  781MOL0     O 2963   0.112   7.014   7.804 -0.1892  1.1636  0.0157
  781MOL0     C 2964  -0.005   7.027   7.735  0.4024  0.1354 -0.7196
  781MOL0     C 2965  -0.122   7.053   7.811  0.1381 -0.0831  0.8027
  781MOL0     C 2966  -0.248   7.070   7.749 -0.0101 -0.3304  0.3846
  781MOL0     C 2967  -0.255   7.055   7.605 -0.4052 -0.3922 -0.4402
  781MOL0     O 2968  -0.375   7.062   7.530  0.8424  0.1119 -0.5864
  781MOL0     C 2969  -0.500   7.061   7.607 -0.1448  0.7680 -0.0851
  781MOL0     C 2970  -0.602   7.050   7.497 -0.0880  0.2281  0.1345
  781MOL0     C 2971  -0.746   7.028   7.563 -0.6429 -0.1131 -0.3758
  781MOL0     C 2972  -0.865   7.032   7.461 -0.7848 -0.3212 -0.7218
  781MOL0     C 2973  -0.991   7.030   7.543  0.9193  0.2368 -1.0399
  781MOL0     C 2974  -1.109   7.064   7.448 -0.4332  0.3881 -0.4605
  781MOL0     C 2975  -1.240   7.053   7.518  0.0998  0.5145 -0.2301
  781MOL0     C 2976  -1.350   7.102   7.423  0.4564 -0.2041 -0.1254
  781MOL0     N 2977  -1.483   7.076   7.475  1.5135 -0.2370 -0.5444
  781MOL0     C 2978  -1.535   7.144   7.586 -0.5796  0.4529 -0.1229
  781MOL0     C 2979  -1.647   7.067   7.613 -0.8109 -0.5464  0.1302
  781MOL0     C 2980  -1.744   7.107   7.715  0.0499 -0.2143  0.0844
  781MOL0     C 2981  -1.883   7.157   7.664  0.6401 -0.5261  0.1732
  781MOL0     C 2982  -1.986   7.217   7.766 -0.3375  0.6165 -1.1274
  781MOL0     C 2983  -2.114   7.275   7.716 -0.1088 -0.6111  0.0103
  781MOL0     O 2984  -2.222   7.176   7.713  0.0757 -0.6580  0.3467
  781MOL0     C 2985  -2.340   7.229   7.665  0.1623  1.0926 -0.7266
  781MOL0     C 2986  -2.449   7.145   7.656 -0.0654  0.3399  0.0816
  781MOL0     C 2987  -2.576   7.191   7.630  0.0248 -0.6317 -0.8868
  781MOL0     C 2988  -2.597   7.327   7.611  0.7837  0.2713  0.9208
  781MOL0     C 2989  -2.735   7.377   7.581  0.8929 -0.7165  0.6523
  781MOL0     O 2990  -2.850   7.294   7.581  0.3498  0.5524  0.0460
  781MOL0     C 2991  -2.982   7.341   7.549 -0.2337 -0.5081 -0.2379
  781MOL0     C 2992  -3.078   7.246   7.508 -0.7325 -0.4102 -1.2394
  781MOL0     C 2993  -3.211   7.292   7.488 -0.3075 -0.0977 -0.2706
  781MOL0     C 2994  -3.253   7.424   7.504 -0.0681  0.2004 -0.4634
  781MOL0     O 2995  -3.378   7.480   7.477 -0.2241  0.5955 -0.0684
  781MOL0     C 2996  -3.491   7.386   7.442  0.3938  0.6169  0.3269
  781MOL0     C 2997  -3.606   7.489   7.409 -0.1841 -0.4376 -0.1510
  781MOL0     C 2998  -3.739   7.421   7.438  0.0251  0.3750  0.4274
  781MOL0     C 2999  -3.869   7.461   7.373  0.0072 -0.0431 -0.0601
  781MOL0     C 3000  -3.997   7.393   7.416 -0.2761  0.2302 -0.4695
  781MOL0     C 3001  -4.119   7.447   7.339  0.0756 -0.1631  0.2191
  781MOL0     C 3002  -4.256   7.420   7.405 -0.2547  0.6838 -0.1489
  781MOL0     C 3003  -4.365   7.440   7.303 -0.0880 -0.4508  0.2902
  781MOL0    Cl 3004  -4.525   7.472   7.394  0.5785 -0.1300 -0.3811
  781MOL0     C 3005  -3.153   7.515   7.556  0.3198  0.1542  0.7644
  781MOL0     C 3006  -3.024   7.475   7.579  0.0349  0.0716 -0.5411
  781MOL0     O 3007  -2.741   7.498   7.551  0.1717  0.4216 -0.3352
  781MOL0     C 3008  -2.493   7.416   7.608 -1.4664  0.1455  0.4599
  781MOL0     C 3009  -2.360   7.366   7.636  0.6514 -0.0691  0.1604
  781MOL0     N 3010  -1.660   6.965   7.523  0.3741  0.8604  0.6736
  781MOL0     N 3011  -1.561   6.966   7.439  0.2467 -0.0346  0.4043
  781MOL0     C 3012  -0.138   7.049   7.535 -0.3231  0.6972 -0.0095
  781MOL0     C 3013  -0.015   7.022   7.595 -0.4333 -0.1967  0.8493
  781MOL0     C 3014   0.274   6.861   7.880  0.3165  0.0350  0.2830
  781MOL0     C 3015   0.322   6.735   7.918 -0.4168  1.4694  0.3282
  781MOL0     C 3016   0.436   6.732   7.993 -0.3403 -0.1028 -0.0437
  781MOL0     C 3017   0.510   6.842   8.035  1.3019  0.1096  0.2090
  781MOL0     O 3018   0.620   6.827   8.114  0.1863 -0.0474  0.5327
  781MOL0     C 3019   0.615   6.726   8.212 -0.3653  0.5837  0.6341
  781MOL0     C 3020   0.636   6.775   8.361  0.0263  0.5828  0.3447
  781MOL0     C 3021   0.629   6.656   8.459 -0.5908  0.0593 -0.5375
  781MOL0     C 3022   0.721   6.686   8.588  0.7372  0.2395 -0.0840
  781MOL0     C 3023   0.740   6.571   8.676 -0.1698  0.3182 -0.1658
  781MOL0     C 3024   0.771   6.465   8.726  0.1676  0.8098  0.8613
  781MOL0     C 3025   0.468   6.963   7.982  0.4623  0.4804  0.1420
  781MOL0     C 3026   0.346   6.977   7.907  0.1330 -0.0344  0.0637
  781MOL0     H 3027  -0.115   7.067   7.919 -0.5736 -2.0921  1.1422
  781MOL0     H 3028  -0.341   7.085   7.804  1.0643 -1.2540  2.5565
  781MOL0     H 3029  -0.518   7.158   7.655  1.4714  1.6754 -1.2402
  781MOL0     H 3030  -0.514   6.983   7.683 -4.1390  1.7275  0.4170
  781MOL0     H 3031  -0.591   6.960   7.435 -0.1751  0.0967  0.3071
  781MOL0     H 3032  -0.600   7.140   7.435  2.3465  1.3503  1.7012
  781MOL0     H 3033  -0.749   7.113   7.632  3.6266  0.8290 -1.0687
  781MOL0     H 3034  -0.761   6.936   7.621  2.4469  0.7390  2.0608
  781MOL0     H 3035  -0.853   7.120   7.397  2.1380 -1.4736 -1.9637
  781MOL0     H 3036  -0.849   6.946   7.394  3.3381 -1.1599  1.0111
  781MOL0     H 3037  -0.985   7.102   7.625 -2.1812 -0.0658 -0.4277
  781MOL0     H 3038  -1.008   6.931   7.587  0.5043  1.3796  1.5316
  781MOL0     H 3039  -1.106   6.981   7.378  0.1686 -0.2244  0.2743
  781MOL0     H 3040  -1.094   7.159   7.395  1.6381 -0.1822 -0.9491
  781MOL0     H 3041  -1.250   6.946   7.538 -1.0700  0.2463 -2.0205
  781MOL0     H 3042  -1.235   7.121   7.604  1.8805  3.2831 -2.3423
  781MOL0     H 3043  -1.353   7.058   7.323 -2.8123  3.2676 -1.7958
  781MOL0     H 3044  -1.342   7.209   7.405  0.2010 -0.2965 -0.7913
  781MOL0     H 3045  -1.485   7.217   7.648 -1.0952 -0.6570  1.6962
  781MOL0     H 3046  -1.708   7.166   7.799  0.7784 -0.7489  0.1531
  781MOL0     H 3047  -1.769   7.013   7.765  2.0164 -1.7862 -1.7088
  781MOL0     H 3048  -1.934   7.072   7.616  0.8153 -0.4590 -0.1326
  781MOL0     H 3049  -1.859   7.227   7.584 -0.2240 -0.4349 -0.0209
  781MOL0     H 3050  -2.010   7.139   7.838  0.2646  0.4892 -1.0561
  781MOL0     H 3051  -1.924   7.290   7.820 -0.2172 -0.6586  0.5312
  781MOL0     H 3052  -2.098   7.316   7.615 -1.5092 -3.0940 -1.3308
  781MOL0     H 3053  -2.137   7.357   7.783 -0.8011 -0.5501 -0.2956
  781MOL0     H 3054  -2.425   7.041   7.677  2.3474  0.8990  0.3400
  781MOL0     H 3055  -2.663   7.126   7.633 -0.9844  0.5318 -2.8274
  781MOL0     H 3056  -3.047   7.142   7.500 -0.6330 -0.3458 -1.7112
  781MOL0     H 3057  -3.294   7.226   7.465 -2.4322  2.0751  0.7319
  781MOL0     H 3058  -3.515   7.310   7.517  1.1654 -0.4749 -0.4869
  781MOL0     H 3059  -3.475   7.324   7.353  0.3708  0.7768  0.2116
  781MOL0     H 3060  -3.599   7.508   7.302 -2.6023 -3.6248 -1.0451
  781MOL0     H 3061  -3.600   7.585   7.460 -1.6141 -1.6911  2.6323
  781MOL0     H 3062  -3.756   7.406   7.545 -2.1767 -0.4645  0.0014
  781MOL0     H 3063  -3.739   7.317   7.403 -2.3777 -0.2653  2.0756
  781MOL0     H 3064  -3.885   7.568   7.388 -1.2982 -0.1947 -0.2635
  781MOL0     H 3065  -3.864   7.446   7.265 -0.0903  1.6151 -0.3204
  781MOL0     H 3066  -3.996   7.417   7.523 -0.3328 -0.9843 -0.1816
  781MOL0     H 3067  -3.996   7.286   7.396 -0.1026  0.1463 -0.0339
  781MOL0     H 3068  -4.124   7.413   7.235  1.6711  1.0888 -0.3213
  781MOL0     H 3069  -4.110   7.556   7.338  0.5272 -0.2010  0.0134
  781MOL0     H 3070  -4.271   7.320   7.446  1.3503  0.6528  0.4393
  781MOL0     H 3071  -4.278   7.487   7.488 -0.6966  1.0699 -0.5737
  781MOL0     H 3072  -4.375   7.354   7.236  2.8377  1.0077 -2.2545
  781MOL0     H 3073  -4.334   7.525   7.243  0.8408 -1.5364 -0.8316
  781MOL0     H 3074  -3.175   7.619   7.579  1.5065  1.4519 -3.1871
  781MOL0     H 3075  -2.961   7.539   7.639 -0.4929 -0.5088  0.6677
  781MOL0     H 3076  -2.519   7.522   7.606  0.0597  0.5545 -1.3015
  781MOL0     H 3077  -2.288   7.447   7.638  0.9503 -0.3415  0.7786
  781MOL0     H 3078  -0.142   7.039   7.427 -0.8375 -2.9373  0.2397
  781MOL0     H 3079   0.073   7.002   7.534 -1.1830  0.1684 -0.3871
  781MOL0     H 3080   0.265   6.645   7.893  1.1412  0.6714 -0.4927
  781MOL0     H 3081   0.469   6.633   8.021  0.0412  0.0961  0.2294
  781MOL0     H 3082   0.700   6.661   8.193 -1.1678 -0.7417  1.4270
  781MOL0     H 3083   0.523   6.667   8.218 -0.5990  0.5827 -2.0002
  781MOL0     H 3084   0.740   6.806   8.359  0.5739 -1.1539 -1.3351
  781MOL0     H 3085   0.555   6.846   8.380 -0.6070  0.6155 -2.1424
  781MOL0     H 3086   0.663   6.571   8.399  0.8109 -1.4165  2.1548
  781MOL0     H 3087   0.525   6.634   8.486 -0.3245 -0.6774 -0.0798
  781MOL0     H 3088   0.819   6.719   8.553  1.7654 -0.5196  1.9015
  781MOL0     H 3089   0.679   6.768   8.646  1.1002  1.0371 -0.9254
  781MOL0     H 3090   0.801   6.379   8.782  1.9586  0.3244 -0.7423
  781MOL0     H 3091   0.533   7.049   7.988  0.8395  0.2043  0.0513
  781MOL0     H 3092   0.317   7.074   7.868 -1.4073 -1.2780 -2.1596
  782MOL0     O 3093   2.633   7.968   1.497  0.2187 -0.0708 -0.8636
  782MOL0     C 3094   2.656   8.007   1.614 -0.4143 -0.1642  0.1543
  782MOL0     O 3095   2.714   8.125   1.651 -0.6023 -0.1180  0.0391
  782MOL0     C 3096   2.808   8.181   1.560  0.1676  0.2154  0.2698
  782MOL0     C 3097   2.891   8.098   1.477 -1.1622  0.0854  0.1474
  782MOL0     C 3098   2.964   8.155   1.373 -0.5485 -0.2535 -0.0841
  782MOL0     C 3099   2.975   8.293   1.349  0.3483 -0.8719 -0.3280
  782MOL0     O 3100   3.038   8.363   1.256  0.0014  0.2238  0.7463
  782MOL0     C 3101   3.151   8.301   1.200  0.9121 -0.3509 -0.4038
  782MOL0     C 3102   3.227   8.414   1.122  0.3565  0.3246 -1.0571
  782MOL0     C 3103   3.330   8.336   1.038  0.5558  0.3582  0.2876
  782MOL0     C 3104   3.394   8.433   0.938 -0.1397 -0.1328 -0.8764
  782MOL0     C 3105   3.521   8.383   0.871 -0.3440  0.0584 -0.7970
  782MOL0     C 3106   3.501   8.260   0.780  0.4825  0.4188  0.0599
  782MOL0     C 3107   3.481   8.291   0.627 -0.2082  0.7023  0.4959
  782MOL0     C 3108   3.615   8.299   0.545  0.7280 -0.3588 -0.7008
  782MOL0     N 3109   3.596   8.328   0.402  0.3639 -0.6784  0.0075
  782MOL0     C 3110   3.573   8.240   0.300  1.0674  0.5875  0.2304
  782MOL0     C 3111   3.579   8.319   0.192  0.5202  0.3618 -0.1774
  782MOL0     C 3112   3.570   8.281   0.045 -0.2272  0.1857 -0.2403
  782MOL0     C 3113   3.418   8.257   0.000  0.3874  0.5977 -0.4106
  782MOL0     C 3114   3.396   8.257  -0.151 -1.0013  0.2760 -0.1827
  782MOL0     C 3115   3.254   8.244  -0.200 -0.3216 -0.1875  0.4728
  782MOL0     O 3116   3.230   8.105  -0.224  0.4761  0.3143 -0.1771
  782MOL0     C 3117   3.112   8.064  -0.275  0.2047 -0.3641 -0.7838
  782MOL0     C 3118   3.081   7.926  -0.294 -0.5024 -0.8065  0.6645
  782MOL0     C 3119   2.962   7.881  -0.342 -0.0426  0.5791 -0.7597
  782MOL0     C 3120   2.863   7.969  -0.370  0.1531 -0.8274  0.8500
  782MOL0     C 3121   2.730   7.923  -0.416 -0.0699  0.2251 -0.5851
  782MOL0     O 3122   2.622   7.973  -0.340  1.0375 -0.2555  0.7255
  782MOL0     C 3123   2.496   7.963  -0.393  0.4747  0.4825  0.3093
  782MOL0     C 3124   2.431   8.046  -0.492  0.5948 -0.5157 -0.3980
  782MOL0     C 3125   2.305   8.016  -0.550  0.2413  0.3418 -0.5559
  782MOL0     C 3126   2.240   7.904  -0.520  0.2098 -0.5300 -0.4615
  782MOL0     O 3127   2.121   7.870  -0.573  0.2713 -0.0534  0.4982
  782MOL0     C 3128   2.035   7.978  -0.618  0.1100 -0.3800  0.7187
  782MOL0     C 3129   1.905   7.922  -0.664 -0.3496 -0.2786 -0.2945
  782MOL0     C 3130   1.812   8.018  -0.732  0.3860 -0.6016  0.1660
  782MOL0     C 3131   1.692   7.947  -0.791 -0.0795 -0.7314 -1.0857
  782MOL0     C 3132   1.563   8.030  -0.813  0.7032  0.1226  1.1985
  782MOL0     C 3133   1.457   7.954  -0.901 -0.4554  0.2890  0.4934
  782MOL0     C 3134   1.389   7.850  -0.814 -0.3087  0.1172  0.2408
  782MOL0     C 3135   1.325   7.737  -0.892 -0.0086 -0.5186 -0.0310
  782MOL0    Cl 3136   1.453   7.634  -0.987 -0.3149  0.5041 -0.1913
  782MOL0     C 3137   2.300   7.826  -0.425  0.1953  0.2718 -1.2864
  782MOL0     C 3138   2.420   7.853  -0.353 -0.0157 -0.6662 -0.0419
  782MOL0     O 3139   2.722   7.851  -0.515 -0.8243 -0.4740 -0.2251
  782MOL0     C 3140   2.882   8.102  -0.341 -0.8156  0.4577  1.1643
  782MOL0     C 3141   3.002   8.152  -0.287  0.0373  0.2077 -0.4276
  782MOL0     N 3142   3.616   8.450   0.230 -0.5107  0.5500  0.1194
  782MOL0     N 3143   3.624   8.450   0.358  0.5527 -0.6162 -0.2634
  782MOL0     C 3144   2.894   8.374   1.435  0.3226  0.5082 -0.1212
  782MOL0     C 3145   2.811   8.320   1.547 -0.0821 -0.0549  0.0905
  782MOL0     C 3146   2.600   7.923   1.718  0.6942 -0.3355  0.0121
  782MOL0     C 3147   2.610   7.958   1.856 -0.2702 -0.3042 -0.8144
  782MOL0     C 3148   2.536   7.882   1.948 -1.1398 -0.0748  0.0723
  782MOL0     C 3149   2.446   7.783   1.912 -0.5994 -0.4538  1.1352
  782MOL0     O 3150   2.364   7.719   1.991 -0.2453  0.5458 -0.1160
  782MOL0     C 3151   2.371   7.746   2.133 -0.4592  0.3521 -0.3061
  782MOL0     C 3152   2.258   7.669   2.205 -0.1028 -1.3990  0.4669
  782MOL0     C 3153   2.129   7.743   2.176  0.0990  0.7442  0.0892
  782MOL0     C 3154   2.024   7.662   2.251 -0.3528  0.0843  0.2009
  782MOL0     C 3155   1.883   7.704   2.226  0.2014 -0.2196 -0.5260
  782MOL0     C 3156   1.772   7.733   2.185  0.1901  0.3387  0.5074
  782MOL0     C 3157   2.452   7.735   1.785 -0.3277  0.3542 -0.0422
  782MOL0     C 3158   2.531   7.802   1.689  0.5611 -0.8618  0.6003
  782MOL0     H 3159   2.893   7.990   1.485  1.0216 -0.0070 -0.9155
  782MOL0     H 3160   3.037   8.085   1.334  1.3581  1.7763 -0.4229
  782MOL0     H 3161   3.119   8.223   1.130 -3.0291 -0.1772  0.9583
  782MOL0     H 3162   3.221   8.262   1.274 -0.7729  1.6411  2.4382
  782MOL0     H 3163   3.281   8.483   1.188 -0.6633  1.7316 -1.6300
  782MOL0     H 3164   3.157   8.477   1.065  1.9549  3.2822 -0.0008
  782MOL0     H 3165   3.292   8.251   0.981  0.8949  1.0552 -1.0317
  782MOL0     H 3166   3.404   8.280   1.095 -0.5343 -3.6560 -1.8473
  782MOL0     H 3167   3.327   8.462   0.856  2.0685  2.7851 -1.8514
  782MOL0     H 3168   3.408   8.535   0.975 -2.0471 -0.6721  1.5674
  782MOL0     H 3169   3.599   8.370   0.946  0.0119  1.9269 -0.7788
  782MOL0     H 3170   3.568   8.461   0.810 -0.5338 -1.0537 -2.4261
  782MOL0     H 3171   3.417   8.200   0.816  0.2636 -0.5869 -2.0142
  782MOL0     H 3172   3.594   8.202   0.779  0.4908  0.3811 -2.1457
  782MOL0     H 3173   3.421   8.206   0.591 -0.6179  1.5363 -0.8588
  782MOL0     H 3174   3.429   8.386   0.612  1.3679  1.2295 -2.2646
  782MOL0     H 3175   3.672   8.206   0.548 -0.4119 -1.0915 -0.9541
  782MOL0     H 3176   3.670   8.388   0.576  0.1108  0.3297 -1.5575
  782MOL0     H 3177   3.568   8.132   0.298 -2.7509  0.6222 -0.8738
  782MOL0     H 3178   3.629   8.193   0.018 -0.4370 -0.0037 -0.0882
  782MOL0     H 3179   3.611   8.363  -0.014  0.0645  0.1643 -0.0675
  782MOL0     H 3180   3.363   8.345   0.034 -2.1302 -0.9593 -0.2346
  782MOL0     H 3181   3.386   8.160   0.041  4.5046 -0.6708  0.2701
  782MOL0     H 3182   3.442   8.349  -0.187  0.5624 -0.5020 -0.2622
  782MOL0     H 3183   3.450   8.172  -0.195  0.4594  0.3679  1.3091
  782MOL0     H 3184   3.260   8.296  -0.296  1.5977 -0.1066  0.5964
  782MOL0     H 3185   3.175   8.288  -0.139 -1.2461  1.5217 -1.7967
  782MOL0     H 3186   3.163   7.857  -0.272  0.2883  0.0516  0.4601
  782MOL0     H 3187   2.939   7.776  -0.359  0.6423  0.1097  0.9867
  782MOL0     H 3188   2.498   8.125  -0.524 -1.2996  1.3781  0.0973
  782MOL0     H 3189   2.276   8.090  -0.623  2.4259  1.3596 -0.4880
  782MOL0     H 3190   2.080   8.046  -0.691  0.1172 -0.8812  0.2496
  782MOL0     H 3191   2.016   8.046  -0.534 -0.8118 -0.3817  0.5245
  782MOL0     H 3192   1.866   7.888  -0.568  2.0832 -0.7097  0.6269
  782MOL0     H 3193   1.931   7.839  -0.730 -0.4707 -1.6080  1.2656
  782MOL0     H 3194   1.864   8.081  -0.805  0.3754 -1.7735 -0.9085
  782MOL0     H 3195   1.768   8.084  -0.657 -2.3717 -1.0043 -0.9989
  782MOL0     H 3196   1.708   7.899  -0.888 -1.1521 -0.9590 -1.1702
  782MOL0     H 3197   1.671   7.871  -0.715  1.5437  0.7687  1.0072
  782MOL0     H 3198   1.590   8.118  -0.873 -0.7289  0.2172  0.6517
  782MOL0     H 3199   1.529   8.075  -0.719  2.4934  1.4692  1.2638
  782MOL0     H 3200   1.501   7.907  -0.989 -1.4485  0.0447  0.1129
  782MOL0     H 3201   1.396   8.031  -0.948  2.1274  0.8836 -2.2194
  782MOL0     H 3202   1.460   7.803  -0.746 -2.0154 -1.6828  0.8676
  782MOL0     H 3203   1.315   7.896  -0.749 -0.9522 -2.1431  1.1879
  782MOL0     H 3204   1.256   7.777  -0.966 -2.8518  2.7553  3.9476
  782MOL0     H 3205   1.267   7.675  -0.823  0.2374  1.8827  2.5256
  782MOL0     H 3206   2.247   7.734  -0.403  1.8900 -0.9039 -1.9178
  782MOL0     H 3207   2.449   7.777  -0.281  2.3299  1.7344  1.7456
  782MOL0     H 3208   2.792   8.162  -0.348 -1.6623 -0.5184  3.0946
  782MOL0     H 3209   3.007   8.258  -0.263 -1.9081  0.4954 -1.0821
  782MOL0     H 3210   2.888   8.482   1.423 -0.0168  0.3664 -1.3303
  782MOL0     H 3211   2.748   8.385   1.606 -2.2381 -2.6493  0.8309
  782MOL0     H 3212   2.662   8.050   1.882 -0.6017 -0.4728  0.4706
  782MOL0     H 3213   2.538   7.914   2.051 -1.6988  0.5803 -0.1155
  782MOL0     H 3214   2.369   7.854   2.145  3.3887  0.8052 -2.1602
  782MOL0     H 3215   2.470   7.709   2.163  0.6165  1.9802 -1.7057
  782MOL0     H 3216   2.259   7.569   2.161 -1.4553  0.6704 -5.1380
  782MOL0     H 3217   2.269   7.688   2.313  0.3726  1.7267 -0.0386
  782MOL0     H 3218   2.109   7.736   2.069  4.0882 -1.2236 -0.6948
  782MOL0     H 3219   2.137   7.845   2.214  1.0410 -0.0133  2.0438
  782MOL0     H 3220   2.038   7.554   2.244 -2.3694 -0.2539  0.9036
  782MOL0     H 3221   2.046   7.669   2.358 -1.7997 -0.2639  0.5410
  782MOL0     H 3222   1.673   7.745   2.145 -0.8624 -2.1431  2.0951
  782MOL0     H 3223   2.391   7.651   1.752 -3.6480  1.8655  1.7823
  782MOL0     H 3224   2.525   7.768   1.586 -1.3710  1.8463 -0.3063
  783MOL0     O 3225   3.414   5.605   1.697 -0.0942  0.7316  0.4941
  783MOL0     C 3226   3.465   5.625   1.809  0.2343 -0.1483  0.6907
  783MOL0     O 3227   3.395   5.672   1.918  0.0664 -0.2322 -1.0645
  783MOL0     C 3228   3.259   5.641   1.912 -0.2327 -0.4747 -0.1017
  783MOL0     C 3229   3.207   5.522   1.974  0.4467 -0.3806  0.5220
  783MOL0     C 3230   3.065   5.497   1.976 -0.1631 -0.0687 -0.3487
  783MOL0     C 3231   2.978   5.594   1.940  0.1826  0.6265  0.5619
  783MOL0     O 3232   2.848   5.578   1.938  0.9169 -0.5130  0.3901
  783MOL0     C 3233   2.782   5.448   1.943 -0.5242 -1.4240  0.0792
  783MOL0     C 3234   2.653   5.457   1.862  0.4542 -0.7902  0.2239
  783MOL0     C 3235   2.532   5.524   1.924  0.0637  0.1974 -0.6411
  783MOL0     C 3236   2.409   5.525   1.834 -0.6807 -0.4980 -0.2617
  783MOL0     C 3237   2.296   5.610   1.880  0.2774 -0.4383 -0.2155
  783MOL0     C 3238   2.211   5.531   1.975 -0.0605  0.8264 -0.3431
  783MOL0     C 3239   2.103   5.616   2.040 -0.1471  0.6536 -0.2180
  783MOL0     C 3240   1.989   5.650   1.943  0.3868  0.0788 -0.0958
  783MOL0     N 3241   1.877   5.715   2.004  0.0377 -0.1228  0.8144
  783MOL0     C 3242   1.875   5.849   2.018  0.1014  0.3031  0.7001
  783MOL0     C 3243   1.752   5.863   2.088 -0.1775  0.1975  0.7672
  783MOL0     C 3244   1.716   6.001   2.149  0.1609 -0.2585 -0.1928
  783MOL0     C 3245   1.753   6.118   2.064  1.0443 -0.3135  0.6640
  783MOL0     C 3246   1.678   6.242   2.103  0.1218  0.4465  0.3066
  783MOL0     C 3247   1.528   6.223   2.114  0.8578  0.2834 -0.0196
  783MOL0     O 3248   1.472   6.361   2.099 -0.8024  0.7330 -0.0583
  783MOL0     C 3249   1.349   6.389   2.055 -0.0792 -0.2074  0.5022
  783MOL0     C 3250   1.255   6.290   2.018 -0.0820  0.5378 -0.8412
  783MOL0     C 3251   1.134   6.321   1.963 -0.2397  0.1012  0.2772
  783MOL0     C 3252   1.104   6.458   1.936  0.5784  0.5553  0.2274
  783MOL0     C 3253   0.979   6.493   1.864  0.2605 -0.2186 -0.7161
  783MOL0     O 3254   0.897   6.397   1.811 -0.0503 -0.6189 -0.7069
  783MOL0     C 3255   0.772   6.446   1.764 -0.0593 -0.0476 -1.2589
  783MOL0     C 3256   0.735   6.418   1.632 -0.6306 -0.1401 -0.4385
  783MOL0     C 3257   0.621   6.463   1.576  0.7334  0.2615  0.3708
  783MOL0     C 3258   0.523   6.535   1.652 -0.4770 -0.3088 -1.0611
  783MOL0     O 3259   0.407   6.579   1.602 -0.0352 -0.4910  0.0490
  783MOL0     C 3260   0.338   6.674   1.682 -0.3102 -0.2096 -0.5240
  783MOL0     C 3261   0.268   6.597   1.794 -0.3243  0.1170 -0.3590
  783MOL0     C 3262   0.114   6.596   1.770 -0.2029 -0.1671  0.2799
  783MOL0     C 3263   0.030   6.501   1.861 -0.0054 -0.2099 -0.0386
  783MOL0     C 3264  -0.118   6.496   1.825 -0.1929  0.8659 -0.7803
  783MOL0     C 3265  -0.143   6.413   1.692 -0.4052 -0.6342 -0.7146
  783MOL0     C 3266  -0.287   6.389   1.660 -0.4969 -0.2223  0.4209
  783MOL0     C 3267  -0.303   6.304   1.537 -0.3477 -0.2700  0.5817
  783MOL0    Cl 3268  -0.282   6.128   1.564 -0.4262 -0.4436 -0.3892
  783MOL0     C 3269   0.566   6.558   1.789 -0.2828 -0.2432 -1.0016
  783MOL0     C 3270   0.682   6.508   1.844  0.8715  0.6495 -0.1697
  783MOL0     O 3271   0.953   6.616   1.872  0.4505  1.0530  0.5653
  783MOL0     C 3272   1.187   6.558   1.988  0.0209 -0.5309 -0.5671
  783MOL0     C 3273   1.312   6.522   2.051 -0.1638  0.2762  0.2286
  783MOL0     N 3274   1.682   5.746   2.093 -0.0462  0.3317 -0.2504
  783MOL0     N 3275   1.756   5.657   2.041 -0.2681 -0.1725  0.1619
  783MOL0     C 3276   3.028   5.711   1.882  0.3610  0.3781  0.0392
  783MOL0     C 3277   3.168   5.736   1.874 -0.0829 -0.0582 -0.4434
  783MOL0     C 3278   3.612   5.607   1.823  0.0315  0.1078 -0.1064
  783MOL0     C 3279   3.677   5.617   1.944 -0.4628 -0.4598 -0.6040
  783MOL0     C 3280   3.813   5.608   1.949 -0.2035 -0.0153 -0.1986
  783MOL0     C 3281   3.888   5.580   1.831 -0.1463 -0.2354 -0.4581
  783MOL0     O 3282   4.020   5.573   1.852  0.0393  0.6267  0.6904
  783MOL0     C 3283   4.091   5.700   1.869  0.6471  0.0257 -0.2058
  783MOL0     C 3284   4.239   5.675   1.833 -0.3354  1.0467 -0.8453
  783MOL0     C 3285   4.325   5.789   1.883  0.3061 -0.8202 -0.3450
  783MOL0     C 3286   4.466   5.773   1.852 -0.4570  0.3464  0.0212
  783MOL0     C 3287   4.537   5.900   1.869  1.0287  0.1955 -0.8530
  783MOL0     C 3288   4.568   6.014   1.870  0.2935 -1.0867 -0.2956
  783MOL0     C 3289   3.824   5.585   1.705 -0.0224  0.6542  0.1653
  783MOL0     C 3290   3.686   5.588   1.696  0.1745 -0.0336 -0.5008
  783MOL0     H 3291   3.275   5.450   2.019  1.2072  0.3921  0.6487
  783MOL0     H 3292   3.024   5.400   2.002  0.4536 -0.5865 -1.2364
  783MOL0     H 3293   2.762   5.407   2.043  2.2858 -1.8580  0.5546
  783MOL0     H 3294   2.842   5.372   1.893  0.5334 -2.7812  3.1366
  783MOL0     H 3295   2.640   5.356   1.823 -1.2403 -0.0408 -1.2332
  783MOL0     H 3296   2.678   5.520   1.777 -2.1922  0.2632  0.1423
  783MOL0     H 3297   2.551   5.627   1.955  1.4453 -0.6303  1.4553
  783MOL0     H 3298   2.500   5.465   2.010 -1.6601  1.3001 -0.4751
  783MOL0     H 3299   2.438   5.552   1.732 -0.5163  0.8065  0.1208
  783MOL0     H 3300   2.383   5.422   1.808 -0.3488 -0.5377 -0.4378
  783MOL0     H 3301   2.248   5.621   1.782 -2.2841 -0.9317  0.9088
  783MOL0     H 3302   2.326   5.709   1.914  0.6970 -0.0559 -1.6386
  783MOL0     H 3303   2.265   5.490   2.061  1.1065  2.1212 -0.4337
  783MOL0     H 3304   2.162   5.444   1.930 -0.8375  0.9326  0.2891
  783MOL0     H 3305   2.061   5.546   2.113  3.4743 -0.7675  0.7347
  783MOL0     H 3306   2.140   5.706   2.090  2.2845  0.9475 -2.2967
  783MOL0     H 3307   1.958   5.557   1.895 -1.5671  0.7029 -0.1382
  783MOL0     H 3308   2.033   5.714   1.866  1.1555 -0.6939 -0.3167
  783MOL0     H 3309   1.956   5.916   1.993  1.1340 -0.8069  0.9999
  783MOL0     H 3310   1.763   6.025   2.245 -1.8294  1.9320  0.3371
  783MOL0     H 3311   1.613   5.978   2.180  0.2993 -2.3818 -1.1037
  783MOL0     H 3312   1.707   6.089   1.969  1.4307  2.7730 -0.5753
  783MOL0     H 3313   1.861   6.125   2.053  1.1024 -1.9262 -0.2112
  783MOL0     H 3314   1.723   6.281   2.195 -2.9885 -0.3869  2.3407
  783MOL0     H 3315   1.682   6.312   2.019 -2.0805  0.1515 -0.1176
  783MOL0     H 3316   1.514   6.182   2.215  0.5327 -1.5020 -0.7657
  783MOL0     H 3317   1.491   6.149   2.043  0.6104  0.9863 -0.6349
  783MOL0     H 3318   1.283   6.190   2.050  2.1233  1.2976 -0.2443
  783MOL0     H 3319   1.079   6.229   1.945  3.6464 -2.7375  1.2401
  783MOL0     H 3320   0.801   6.347   1.582  2.6304 -0.4859  3.8096
  783MOL0     H 3321   0.597   6.450   1.471  1.0143  1.3429  0.1547
  783MOL0     H 3322   0.264   6.720   1.617  0.4061  2.3016  0.3073
  783MOL0     H 3323   0.410   6.747   1.721  2.0291 -2.0699 -1.1245
  783MOL0     H 3324   0.280   6.642   1.894 -2.8874 -0.2694  0.1815
  783MOL0     H 3325   0.302   6.493   1.789 -2.2705 -0.4859 -2.4878
  783MOL0     H 3326   0.105   6.566   1.665  1.0070  3.0595 -0.8961
  783MOL0     H 3327   0.075   6.697   1.783 -2.6944 -1.0011 -0.1856
  783MOL0     H 3328   0.077   6.402   1.864  1.0068  0.2802  2.4440
  783MOL0     H 3329   0.031   6.529   1.967 -1.3725  2.0715 -0.5654
  783MOL0     H 3330  -0.141   6.603   1.835 -0.4440  0.6996  0.5184
  783MOL0     H 3331  -0.172   6.436   1.898  0.8960 -0.4291 -1.0084
  783MOL0     H 3332  -0.093   6.317   1.701  0.7055  0.1040  4.6051
  783MOL0     H 3333  -0.099   6.472   1.611 -1.9335  0.7888 -0.5725
  783MOL0     H 3334  -0.350   6.340   1.735 -1.2985 -0.1565 -0.1965
  783MOL0     H 3335  -0.329   6.489   1.651 -1.4366 -0.4858  1.7042
  783MOL0     H 3336  -0.237   6.324   1.452  0.2439  1.1522  1.3451
  783MOL0     H 3337  -0.405   6.305   1.497 -0.0107 -0.0619 -0.2908
  783MOL0     H 3338   0.519   6.629   1.856  1.0904 -0.7293  0.5165
  783MOL0     H 3339   0.706   6.526   1.948  1.1119  0.1218 -0.1318
  783MOL0     H 3340   1.161   6.663   1.985 -1.9653 -0.8880  1.4426
  783MOL0     H 3341   1.393   6.593   2.069  1.1022 -0.5344 -1.8995
  783MOL0     H 3342   2.957   5.789   1.857 -0.5554 -1.0128 -1.9821
  783MOL0     H 3343   3.210   5.834   1.852 -0.0701 -0.2440 -1.3103
  783MOL0     H 3344   3.618   5.643   2.032  1.2655  0.7873  0.2298
  783MOL0     H 3345   3.866   5.602   2.043 -2.2134  0.5940  1.0533
  783MOL0     H 3346   4.083   5.730   1.974 -2.9897 -0.8081 -0.1011
  783MOL0     H 3347   4.038   5.779   1.815  0.1809 -2.6207 -4.0732
  783MOL0     H 3348   4.271   5.587   1.889  2.3012  1.5976 -1.3554
  783MOL0     H 3349   4.246   5.649   1.727 -1.5620 -1.4810 -0.3930
  783MOL0     H 3350   4.319   5.789   1.992  0.1879 -1.5132 -0.3496
  783MOL0     H 3351   4.287   5.883   1.841 -1.6494 -0.9573  0.9994
  783MOL0     H 3352   4.514   5.694   1.911  0.5326  0.6579 -0.3414
  783MOL0     H 3353   4.491   5.743   1.750  1.2249  2.4668 -0.2668
  783MOL0     H 3354   4.586   6.119   1.865  1.4807 -1.2269  0.5024
  783MOL0     H 3355   3.885   5.569   1.617 -0.5229  0.6625 -0.1817
  783MOL0     H 3356   3.631   5.582   1.603  0.6992  1.6645 -0.9553
  784MOL0     O 3357   7.086   7.303   4.047 -0.7893 -0.1292  0.0998
  784MOL0     C 3358   7.048   7.385   3.966  0.6897  0.1950  1.1303
  784MOL0     O 3359   7.129   7.450   3.877  0.1650 -0.9053  0.0831
  784MOL0     C 3360   7.258   7.432   3.891 -0.5282 -0.2914  0.2932
  784MOL0     C 3361   7.328   7.539   3.936 -0.4318  0.1886  0.0241
  784MOL0     C 3362   7.472   7.535   3.915  0.9432 -0.2800 -0.3968
  784MOL0     C 3363   7.534   7.436   3.848  0.2062  0.9983 -0.4671
  784MOL0     O 3364   7.668   7.425   3.834 -0.5325 -1.6063  0.2247
  784MOL0     C 3365   7.767   7.517   3.886 -0.0848 -1.3624  0.5210
  784MOL0     C 3366   7.810   7.494   4.031 -0.5926  0.1161  0.1594
  784MOL0     C 3367   7.830   7.351   4.062 -0.0035 -0.1455  0.0297
  784MOL0     C 3368   7.849   7.331   4.212 -0.0949  0.6577 -0.2373
  784MOL0     C 3369   7.871   7.189   4.243 -0.5272 -0.6185 -0.5324
  784MOL0     C 3370   7.939   7.157   4.372  0.5217 -0.3021  0.0155
  784MOL0     C 3371   8.003   7.017   4.379  0.5592 -0.8633 -0.3136
  784MOL0     C 3372   7.897   6.907   4.385  0.0954 -0.6124  0.6871
  784MOL0     N 3373   7.833   6.913   4.520 -0.3446  0.0178  0.6266
  784MOL0     C 3374   7.713   6.972   4.549 -0.3428  0.6103  0.8568
  784MOL0     C 3375   7.685   6.948   4.681  0.3857 -0.6539 -0.3057
  784MOL0     C 3376   7.566   6.995   4.762 -0.1675 -0.4266  0.1122
  784MOL0     C 3377   7.429   6.984   4.678 -0.4322  0.4044 -0.4654
  784MOL0     C 3378   7.388   6.840   4.653  0.3204  0.1544 -0.3207
  784MOL0     C 3379   7.243   6.831   4.607 -0.6324  0.2120 -0.4655
  784MOL0     O 3380   7.216   6.697   4.591 -0.1150 -0.0781  0.1073
  784MOL0     C 3381   7.085   6.663   4.553 -0.0720 -0.2495 -0.1498
  784MOL0     C 3382   6.976   6.751   4.566 -0.2030 -0.8624 -1.1299
  784MOL0     C 3383   6.847   6.700   4.551 -0.0614 -0.6981 -0.1578
  784MOL0     C 3384   6.836   6.581   4.478  0.1423 -0.2068  0.2863
  784MOL0     C 3385   6.706   6.542   4.425 -0.2995  0.3788 -0.1384
  784MOL0     O 3386   6.601   6.624   4.442 -0.8779  0.0095  0.2059
  784MOL0     C 3387   6.480   6.579   4.401 -0.0517 -0.8981 -0.5245
  784MOL0     C 3388   6.449   6.553   4.268 -0.5013  0.0226  1.0558
  784MOL0     C 3389   6.319   6.517   4.227 -0.2120 -0.3413 -0.9448
  784MOL0     C 3390   6.219   6.498   4.322 -0.7118 -0.2950  0.3466
  784MOL0     O 3391   6.086   6.478   4.286  0.8245  0.2132 -0.2123
  784MOL0     C 3392   6.070   6.355   4.219  0.1995 -0.0201 -0.8343
  784MOL0     C 3393   6.000   6.254   4.314  0.3170  0.2536  0.2236
  784MOL0     C 3394   5.850   6.280   4.319  0.1543 -0.1504 -0.1877
  784MOL0     C 3395   5.787   6.200   4.205 -0.4951  0.4484  0.4009
  784MOL0     C 3396   5.638   6.249   4.188 -0.1976  0.2656 -0.5544
  784MOL0     C 3397   5.572   6.155   4.083 -0.1004 -0.3787  0.3699
  784MOL0     C 3398   5.416   6.181   4.092 -1.0676 -0.1332 -0.3183
  784MOL0     C 3399   5.350   6.099   3.982  0.3061 -0.2276 -0.4962
  784MOL0    Cl 3400   5.187   6.045   4.028 -0.3752 -0.2795  0.1879
  784MOL0     C 3401   6.251   6.518   4.458  0.4509  0.2435 -0.3351
  784MOL0     C 3402   6.382   6.560   4.497  0.5374  0.1026 -0.0686
  784MOL0     O 3403   6.694   6.432   4.362  0.9191  0.0199 -0.5400
  784MOL0     C 3404   6.946   6.505   4.452  0.6652  0.1439  0.3420
  784MOL0     C 3405   7.076   6.543   4.493  0.5716  0.4046  0.5937
  784MOL0     N 3406   7.799   6.878   4.730 -0.4042  0.5868 -0.0820
  784MOL0     N 3407   7.886   6.869   4.634 -0.3199 -0.6333  0.8564
  784MOL0     C 3408   7.455   7.329   3.808  0.5718 -1.0434 -0.2524
  784MOL0     C 3409   7.318   7.323   3.827  0.8887 -0.0772  0.4361
  784MOL0     C 3410   6.901   7.430   3.967 -0.0265 -0.3597 -0.8870
  784MOL0     C 3411   6.853   7.554   3.920  0.9740 -0.2291  0.8022
  784MOL0     C 3412   6.714   7.585   3.915  0.2813 -0.4950  0.2307
  784MOL0     C 3413   6.617   7.494   3.955 -0.8090 -0.8872  0.1249
  784MOL0     O 3414   6.480   7.491   3.957  0.0140  0.0361  0.7331
  784MOL0     C 3415   6.406   7.598   3.899 -0.3507 -0.2122  0.7013
  784MOL0     C 3416   6.257   7.583   3.926 -0.8821 -0.8295  0.2678
  784MOL0     C 3417   6.189   7.447   3.867  0.3771  0.5704  0.1208
  784MOL0     C 3418   6.121   7.463   3.727 -0.2178  0.5848 -0.0653
  784MOL0     C 3419   5.998   7.540   3.743  1.0360 -0.2133 -1.0716
  784MOL0     C 3420   5.901   7.615   3.748  0.2076 -0.1433 -0.3453
  784MOL0     C 3421   6.669   7.373   4.008  0.1352 -0.1283  0.0970
  784MOL0     C 3422   6.806   7.339   4.017 -0.6285  0.1780  0.3666
  784MOL0     H 3423   7.289   7.621   3.995  2.5623  1.1459  0.8768
  784MOL0     H 3424   7.529   7.616   3.961  2.7411  1.8156 -5.4646
  784MOL0     H 3425   7.738   7.622   3.873 -1.1074 -1.9642 -2.7106
  784MOL0     H 3426   7.847   7.517   3.812 -1.6905 -3.0943 -1.3167
  784MOL0     H 3427   7.721   7.515   4.093 -0.5220 -1.4817  0.8422
  784MOL0     H 3428   7.886   7.566   4.063  0.6969 -0.5224 -1.3616
  784MOL0     H 3429   7.908   7.294   4.010 -1.9030 -1.0414 -1.9633
  784MOL0     H 3430   7.740   7.293   4.040  0.9256 -1.8545  0.5491
  784MOL0     H 3431   7.935   7.389   4.247 -1.1812  3.7439 -2.2545
  784MOL0     H 3432   7.765   7.362   4.275  0.2661  1.1933 -0.0092
  784MOL0     H 3433   7.944   7.143   4.177  3.4872 -2.6641  4.6061
  784MOL0     H 3434   7.776   7.137   4.230 -0.7424 -0.9994  2.0017
  784MOL0     H 3435   7.874   7.178   4.457 -0.4711  0.1383 -0.8212
  784MOL0     H 3436   8.026   7.222   4.377  1.5854 -1.6981  0.3120
  784MOL0     H 3437   8.073   7.010   4.295 -1.0196 -0.5369 -1.7284
  784MOL0     H 3438   8.061   7.008   4.471  1.9543  2.1599 -0.7846
  784MOL0     H 3439   7.943   6.808   4.384 -0.9669 -1.1175  0.2976
  784MOL0     H 3440   7.825   6.929   4.305  0.9476  1.0206  0.3134
  784MOL0     H 3441   7.649   7.021   4.476 -1.4061 -1.6495  0.1811
  784MOL0     H 3442   7.586   7.101   4.779  2.4963 -0.8444  0.0883
  784MOL0     H 3443   7.569   6.941   4.857  2.6027 -3.1805 -1.3678
  784MOL0     H 3444   7.446   7.030   4.581  3.5046 -1.0174 -0.6248
  784MOL0     H 3445   7.347   7.028   4.735 -1.2272 -2.5770  0.9197
  784MOL0     H 3446   7.442   6.793   4.570  3.1196  1.5451  0.5878
  784MOL0     H 3447   7.399   6.781   4.744  0.3085  2.2686  1.1181
  784MOL0     H 3448   7.222   6.887   4.516 -5.6916 -0.9750 -0.3706
  784MOL0     H 3449   7.182   6.877   4.686  1.9727  0.6250  1.4228
  784MOL0     H 3450   6.985   6.852   4.607 -3.8009 -0.4310 -1.0486
  784MOL0     H 3451   6.768   6.769   4.578 -0.4198 -1.2802  0.3131
  784MOL0     H 3452   6.521   6.566   4.188  0.3547 -0.8615  1.6620
  784MOL0     H 3453   6.287   6.499   4.125 -0.7021 -1.3655 -0.6200
  784MOL0     H 3454   6.173   6.326   4.197  1.1406  3.1055 -1.0260
  784MOL0     H 3455   6.008   6.372   4.131 -0.8170 -0.5688 -0.2470
  784MOL0     H 3456   6.044   6.271   4.414 -0.9685  1.2988  0.6412
  784MOL0     H 3457   6.017   6.149   4.288 -0.5158 -0.2395  1.5664
  784MOL0     H 3458   5.818   6.385   4.321 -1.3830 -0.6015  0.2934
  784MOL0     H 3459   5.807   6.227   4.404  0.3955  0.5726  0.3958
  784MOL0     H 3460   5.849   6.212   4.116  1.2395 -2.0002  1.1678
  784MOL0     H 3461   5.783   6.092   4.222  4.1075 -0.5783 -2.9937
  784MOL0     H 3462   5.629   6.354   4.158  1.4395  0.0106 -2.1511
  784MOL0     H 3463   5.582   6.226   4.279  0.8698  0.0886  0.0855
  784MOL0     H 3464   5.603   6.050   4.092  0.5287 -0.3772 -1.3326
  784MOL0     H 3465   5.600   6.192   3.984 -1.6200 -2.1688 -0.7953
  784MOL0     H 3466   5.379   6.160   4.193  1.1532  1.8586  1.0239
  784MOL0     H 3467   5.403   6.289   4.079  4.8149  0.8947 -0.5179
  784MOL0     H 3468   5.406   6.007   3.965 -0.4209 -0.9431  0.8105
  784MOL0     H 3469   5.340   6.153   3.888 -0.6152 -2.5047 -1.7832
  784MOL0     H 3470   6.167   6.518   4.527 -0.2604 -0.9233 -1.1497
  784MOL0     H 3471   6.401   6.576   4.602  4.0123  1.5891 -0.7900
  784MOL0     H 3472   6.937   6.408   4.403 -1.7336  1.1985 -1.5383
  784MOL0     H 3473   7.154   6.468   4.482 -0.7055 -0.9332  0.3094
  784MOL0     H 3474   7.507   7.248   3.758  2.2884 -0.5157  0.5945
  784MOL0     H 3475   7.256   7.238   3.801 -0.1100  0.1938  1.8203
  784MOL0     H 3476   6.915   7.628   3.870 -1.2118  0.9814 -0.2397
  784MOL0     H 3477   6.695   7.676   3.859  0.2022  0.0776  1.1612
  784MOL0     H 3478   6.433   7.602   3.793 -0.6636  0.7773  0.6498
  784MOL0     H 3479   6.440   7.691   3.947 -3.3184 -0.0118  2.6844
  784MOL0     H 3480   6.248   7.586   4.035  1.6382 -3.2830  0.6677
  784MOL0     H 3481   6.217   7.679   3.893  2.1528  0.6172  0.4508
  784MOL0     H 3482   6.127   7.395   3.941  1.9416  0.5700  1.4794
  784MOL0     H 3483   6.272   7.377   3.854  0.2735  0.3772  0.4598
  784MOL0     H 3484   6.171   7.522   3.649 -1.4690  2.6244  0.5813
  784MOL0     H 3485   6.102   7.361   3.693 -2.0749  0.1125  2.1775
  784MOL0     H 3486   5.827   7.685   3.783 -0.7201 -2.7020  3.4325
  784MOL0     H 3487   6.596   7.295   4.023  0.7151 -0.8604 -0.7846
  784MOL0     H 3488   6.830   7.238   4.050  2.4468  1.0926  1.2977
  785MOL0     O 3489   2.038   7.120   0.177  0.3647 -0.0996 -0.4642
  785MOL0     C 3490   2.106   7.022   0.174 -0.8298  0.0718  0.1480
  785MOL0     O 3491   2.241   7.009   0.204 -0.1805 -0.9412  0.3128
  785MOL0     C 3492   2.306   7.121   0.254  0.3001 -0.1777 -1.4579
  785MOL0     C 3493   2.251   7.203   0.355  0.1876 -0.1561  0.1084
  785MOL0     C 3494   2.335   7.305   0.412  0.4656  0.2709 -1.2435
  785MOL0     C 3495   2.469   7.322   0.374 -0.2858  0.3201  0.0663
  785MOL0     O 3496   2.531   7.431   0.436 -0.8835  0.1738  0.2943
  785MOL0     C 3497   2.633   7.499   0.366 -0.5132 -0.5720  0.4590
  785MOL0     C 3498   2.663   7.641   0.419  0.6766  0.0924 -0.1877
  785MOL0     C 3499   2.699   7.631   0.572 -0.4291  0.2114  0.6075
  785MOL0     C 3500   2.769   7.762   0.615 -1.0555  0.3796 -0.6376
  785MOL0     C 3501   2.824   7.739   0.759  0.1153 -0.1470 -0.6495
  785MOL0     C 3502   2.800   7.868   0.846  0.2267 -1.3010  0.9225
  785MOL0     C 3503   2.852   7.864   0.985 -0.0866 -0.0735  0.8274
  785MOL0     C 3504   2.749   7.824   1.091 -0.0273  0.0317  0.4497
  785MOL0     N 3505   2.815   7.745   1.200  0.1752  0.1018  0.2326
  785MOL0     C 3506   2.838   7.610   1.194  0.1875  0.6726 -0.4929
  785MOL0     C 3507   2.929   7.581   1.289  0.1239  0.8598  0.2394
  785MOL0     C 3508   2.990   7.444   1.302  0.4503 -0.6572 -0.2112
  785MOL0     C 3509   2.929   7.329   1.221  0.3139  0.5087  0.2335
  785MOL0     C 3510   2.965   7.185   1.269 -0.4203 -0.0101  0.0364
  785MOL0     C 3511   3.109   7.125   1.237 -0.0128 -0.5800  0.1253
  785MOL0     O 3512   3.117   7.105   1.101 -0.1366 -0.7031  0.7911
  785MOL0     C 3513   3.051   6.996   1.058  0.6061  0.2544  1.2578
  785MOL0     C 3514   3.068   6.868   1.102 -0.2899  0.5246  1.2408
  785MOL0     C 3515   2.989   6.761   1.042  0.0887 -0.6825 -0.3181
  785MOL0     C 3516   2.904   6.786   0.936 -0.1646 -0.4891  0.4969
  785MOL0     C 3517   2.821   6.678   0.868 -0.4574  1.0798  1.1432
  785MOL0     O 3518   2.761   6.704   0.750  0.1594  0.0109  0.0949
  785MOL0     C 3519   2.693   6.607   0.684 -0.4933 -0.9706  0.6363
  785MOL0     C 3520   2.766   6.511   0.616  0.3598 -0.2688 -0.3300
  785MOL0     C 3521   2.698   6.399   0.570  0.2045  0.9424  0.6131
  785MOL0     C 3522   2.559   6.391   0.571 -0.5940 -0.0540 -0.1149
  785MOL0     O 3523   2.491   6.286   0.509 -0.6739 -0.1689  0.5491
  785MOL0     C 3524   2.346   6.284   0.503  0.5022  0.2892 -0.3651
  785MOL0     C 3525   2.310   6.156   0.431  0.4629  0.4371 -0.1928
  785MOL0     C 3526   2.296   6.182   0.286 -0.1234  0.2073 -0.4842
  785MOL0     C 3527   2.241   6.059   0.222 -0.1417 -0.5583  0.4493
  785MOL0     C 3528   2.189   6.096   0.078 -0.3684  0.0567 -0.1824
  785MOL0     C 3529   2.322   6.106  -0.007 -0.5389 -0.2023 -0.4743
  785MOL0     C 3530   2.290   6.180  -0.136 -0.7499  0.1434 -0.6530
  785MOL0     C 3531   2.191   6.110  -0.227  0.2915 -0.2357  0.1977
  785MOL0    Cl 3532   2.296   5.993  -0.324 -0.5894  0.2870 -0.1925
  785MOL0     C 3533   2.487   6.494   0.624  0.8280  0.1436  0.3274
  785MOL0     C 3534   2.553   6.602   0.682  0.2824  0.1681  0.2246
  785MOL0     O 3535   2.816   6.568   0.926  0.8547 -0.6998 -0.4502
  785MOL0     C 3536   2.887   6.916   0.891 -0.5718 -0.0464  0.5098
  785MOL0     C 3537   2.957   7.016   0.957  0.7904  0.3412 -1.4863
  785MOL0     N 3538   2.963   7.696   1.355 -0.3128 -0.5151  0.4096
  785MOL0     N 3539   2.893   7.793   1.301  0.2068 -0.6417  0.8214
  785MOL0     C 3540   2.523   7.235   0.273  0.7270 -0.9386 -0.5369
  785MOL0     C 3541   2.444   7.138   0.213  0.5585  0.0178 -1.1565
  785MOL0     C 3542   2.048   6.906   0.116  0.3166 -0.2266 -0.6596
  785MOL0     C 3543   1.915   6.868   0.137  0.7034 -0.4119  0.7355
  785MOL0     C 3544   1.866   6.745   0.083 -0.6764 -0.2713 -0.3917
  785MOL0     C 3545   1.931   6.658   0.003 -0.4241  0.5124  0.5453
  785MOL0     O 3546   1.864   6.548  -0.035 -0.4277  0.4152  0.4896
  785MOL0     C 3547   1.918   6.472  -0.146  0.6125 -0.2006  0.3548
  785MOL0     C 3548   1.835   6.345  -0.150 -0.6630  0.3635 -0.7186
  785MOL0     C 3549   1.688   6.368  -0.185 -0.1039  0.1600  0.3028
  785MOL0     C 3550   1.614   6.235  -0.228  0.3394 -1.4126  0.0763
  785MOL0     C 3551   1.480   6.261  -0.269 -0.0155  0.0082 -0.3704
  785MOL0     C 3552   1.364   6.282  -0.302  0.2584  0.6818 -0.1711
  785MOL0     C 3553   2.069   6.697  -0.015 -0.3830  0.6847 -0.5688
  785MOL0     C 3554   2.128   6.812   0.039  0.7637 -0.9320  0.2086
  785MOL0     H 3555   2.152   7.196   0.398  0.4499  1.3163  1.0099
  785MOL0     H 3556   2.286   7.369   0.485  2.6089  1.4401 -0.7578
  785MOL0     H 3557   2.596   7.516   0.265  0.5756 -2.5984 -0.3295
  785MOL0     H 3558   2.724   7.440   0.360 -0.6937 -0.7004 -2.0436
  785MOL0     H 3559   2.579   7.709   0.403 -0.1581 -1.4576 -3.0364
  785MOL0     H 3560   2.746   7.693   0.371 -0.5323  2.9865  0.6602
  785MOL0     H 3561   2.770   7.549   0.585  1.1125  1.4511  0.3492
  785MOL0     H 3562   2.603   7.624   0.625 -1.0787 -1.4929 -0.7054
  785MOL0     H 3563   2.852   7.783   0.547 -0.3925  0.7747  0.2767
  785MOL0     H 3564   2.690   7.837   0.601 -2.3682 -1.0265 -1.0637
  785MOL0     H 3565   2.929   7.707   0.752  0.3556  0.1379  1.1921
  785MOL0     H 3566   2.768   7.656   0.803  0.0946  1.3330  2.3856
  785MOL0     H 3567   2.695   7.897   0.845  1.5854  4.9722  1.0624
  785MOL0     H 3568   2.846   7.943   0.781 -2.6099 -2.6484 -3.0292
  785MOL0     H 3569   2.936   7.794   0.990 -1.2721 -1.6419 -0.2809
  785MOL0     H 3570   2.889   7.966   1.002 -0.1073 -0.0775  0.8935
  785MOL0     H 3571   2.677   7.762   1.037 -1.1385  0.9990  0.7946
  785MOL0     H 3572   2.709   7.917   1.132  1.5707  0.9350  0.0679
  785MOL0     H 3573   2.800   7.533   1.127  2.5249 -0.8339 -0.2172
  785MOL0     H 3574   2.977   7.400   1.401  3.4494 -2.1273 -0.3616
  785MOL0     H 3575   3.095   7.455   1.274  0.9226  1.4185  2.0745
  785MOL0     H 3576   2.946   7.337   1.113  0.9009 -1.8873  0.1116
  785MOL0     H 3577   2.820   7.337   1.221  0.3324  2.9332 -3.3243
  785MOL0     H 3578   2.949   7.179   1.378  0.4634 -0.5448  0.1448
  785MOL0     H 3579   2.903   7.112   1.217  0.9280 -1.1602 -0.0059
  785MOL0     H 3580   3.141   7.039   1.296  1.1612  1.4121  2.6001
  785MOL0     H 3581   3.186   7.195   1.269  0.1262 -1.9809  3.1660
  785MOL0     H 3582   3.130   6.843   1.188 -2.2108 -3.4085  1.7054
  785MOL0     H 3583   3.001   6.660   1.078  1.2755 -0.4275  0.0326
  785MOL0     H 3584   2.874   6.514   0.625  0.2120  1.6259  1.4993
  785MOL0     H 3585   2.755   6.314   0.533  0.2143  1.0730  0.3238
  785MOL0     H 3586   2.295   6.371   0.459 -2.3754 -0.2783  1.5926
  785MOL0     H 3587   2.306   6.273   0.604 -1.0814 -1.3152 -1.1049
  785MOL0     H 3588   2.215   6.121   0.473  1.3261 -2.4037 -0.4146
  785MOL0     H 3589   2.381   6.076   0.455  1.0702  0.8162 -0.7039
  785MOL0     H 3590   2.395   6.203   0.242  1.5338 -3.3690  1.1283
  785MOL0     H 3591   2.250   6.280   0.270 -0.8747 -0.1148 -0.2892
  785MOL0     H 3592   2.327   5.991   0.220  2.7621  2.7400  2.0472
  785MOL0     H 3593   2.164   6.020   0.290  0.1157  1.6118  2.0759
  785MOL0     H 3594   2.137   6.192   0.087  1.1768  0.8100  1.3177
  785MOL0     H 3595   2.114   6.027   0.040 -1.6609  2.2555 -1.8703
  785MOL0     H 3596   2.366   6.008  -0.032  2.6132  1.3596 -1.5764
  785MOL0     H 3597   2.400   6.157   0.050 -2.2118  0.7322  1.0723
  785MOL0     H 3598   2.240   6.276  -0.119 -0.9001  0.4811 -2.7189
  785MOL0     H 3599   2.380   6.204  -0.194 -0.6506  2.1972  0.2305
  785MOL0     H 3600   2.136   6.177  -0.293  0.8927  1.7895  1.6410
  785MOL0     H 3601   2.110   6.065  -0.170  0.0631 -0.7512 -0.5196
  785MOL0     H 3602   2.381   6.481   0.646  0.3214 -0.0520 -1.9630
  785MOL0     H 3603   2.495   6.678   0.733 -1.6645 -1.4851  0.5924
  785MOL0     H 3604   2.833   6.952   0.804 -0.9908 -1.9610 -0.0565
  785MOL0     H 3605   2.920   7.115   0.934  0.5903  0.7448  0.3937
  785MOL0     H 3606   2.627   7.246   0.245  1.1793  0.8558  1.5877
  785MOL0     H 3607   2.501   7.072   0.147  1.4702 -0.2935 -0.0951
  785MOL0     H 3608   1.850   6.925   0.203 -2.5579 -1.2177 -1.5535
  785MOL0     H 3609   1.765   6.731   0.120  0.5822 -0.5235  3.4050
  785MOL0     H 3610   2.024   6.451  -0.133  0.8499  1.5545  1.5606
  785MOL0     H 3611   1.913   6.530  -0.239  3.7372 -0.1433  0.1248
  785MOL0     H 3612   1.876   6.267  -0.216 -1.6203 -0.0987 -0.7778
  785MOL0     H 3613   1.828   6.314  -0.045  1.9537  3.5309  0.5625
  785MOL0     H 3614   1.692   6.424  -0.279  0.7663 -0.1324  0.1536
  785MOL0     H 3615   1.633   6.428  -0.112 -2.7739  0.6263 -1.9043
  785MOL0     H 3616   1.675   6.200  -0.312 -2.2452  0.3644 -2.7916
  785MOL0     H 3617   1.609   6.164  -0.145  0.8871  0.6216  1.8974
  785MOL0     H 3618   1.259   6.297  -0.321  0.1664 -0.4637 -0.6380
  785MOL0     H 3619   2.135   6.634  -0.073  1.1059  2.0782 -0.4366
  785MOL0     H 3620   2.232   6.829   0.012 -0.1925  1.6391 -2.2600
  786MOL0     O 3621   7.569   7.667   0.491 -0.4603  0.4469 -0.1657
  786MOL0     C 3622   7.651   7.626   0.575 -0.2541  0.2648  0.4550
  786MOL0     O 3623   7.628   7.616   0.712 -0.0424 -0.2712 -0.8057
  786MOL0     C 3624   7.507   7.664   0.754 -0.0216  0.0143 -1.5337
  786MOL0     C 3625   7.483   7.795   0.791  0.1248 -0.3755  1.2799
  786MOL0     C 3626   7.361   7.836   0.836  0.1741 -0.6437  0.5712
  786MOL0     C 3627   7.248   7.751   0.831 -0.4877  0.7366 -0.3677
  786MOL0     O 3628   7.123   7.784   0.879 -0.5631 -0.2548  0.4444
  786MOL0     C 3629   7.104   7.918   0.919  0.4043 -0.6287  0.2563
  786MOL0     C 3630   6.949   7.933   0.922  0.0683 -0.5935 -0.1304
  786MOL0     C 3631   6.918   8.066   0.995 -0.5178  0.7158 -0.4167
  786MOL0     C 3632   6.976   8.194   0.929  0.3967  0.0620  0.2083
  786MOL0     C 3633   6.897   8.322   0.963  0.3487 -0.2908 -0.1868
  786MOL0     C 3634   6.976   8.447   0.917  1.3463 -0.7374 -0.0642
  786MOL0     C 3635   7.096   8.481   1.002 -0.2487 -0.8095 -0.3648
  786MOL0     C 3636   7.119   8.630   1.033  0.4881  0.0417  0.1085
  786MOL0     N 3637   7.208   8.645   1.152 -0.2308  0.4298  0.3291
  786MOL0     C 3638   7.340   8.630   1.149 -0.0509  0.5182  0.3329
  786MOL0     C 3639   7.392   8.634   1.273  0.1711 -0.3522  0.2654
  786MOL0     C 3640   7.537   8.617   1.301 -0.9043 -0.5359 -0.6937
  786MOL0     C 3641   7.608   8.539   1.191  0.5358 -0.1592  0.0027
  786MOL0     C 3642   7.755   8.499   1.232  0.2190 -1.0768 -0.2660
  786MOL0     C 3643   7.848   8.614   1.266 -1.0422 -0.0381  0.1887
  786MOL0     O 3644   7.880   8.677   1.145  0.2051 -0.6103 -0.0679
  786MOL0     C 3645   7.972   8.605   1.078 -0.5830 -0.2497  0.3451
  786MOL0     C 3646   7.929   8.535   0.963 -0.5876  0.5043  0.8753
  786MOL0     C 3647   8.030   8.479   0.870 -0.1177 -0.3640 -0.8434
  786MOL0     C 3648   8.164   8.490   0.899 -0.4036  0.0760 -0.5906
  786MOL0     C 3649   8.257   8.415   0.820  1.1522 -0.1942 -0.0051
  786MOL0     O 3650   8.389   8.428   0.854 -0.1193 -0.5197 -0.1866
  786MOL0     C 3651   8.493   8.373   0.784 -0.5858  0.1561  0.5745
  786MOL0     C 3652   8.615   8.393   0.845  0.2238  0.1114  0.1710
  786MOL0     C 3653   8.737   8.358   0.780  0.7034  0.1515 -0.6424
  786MOL0     C 3654   8.742   8.287   0.666 -0.2014  0.1232  0.6489
  786MOL0     O 3655   8.868   8.247   0.625 -0.2775 -0.0398 -0.2142
  786MOL0     C 3656   8.882   8.140   0.528  0.1281 -0.4218 -0.0213
  786MOL0     C 3657   9.030   8.118   0.505 -0.3224 -0.0740  0.7433
  786MOL0     C 3658   9.099   8.026   0.607 -0.4248 -0.1014 -0.7451
  786MOL0     C 3659   9.251   8.021   0.592  0.3858  0.6756  0.6271
  786MOL0     C 3660   9.308   7.949   0.713 -0.3822  0.1497 -0.5882
  786MOL0     C 3661   9.456   7.922   0.704 -0.4168 -0.3047  0.3674
  786MOL0     C 3662   9.495   7.822   0.591  0.2859  0.5583 -0.8382
  786MOL0     C 3663   9.649   7.820   0.583 -1.0696  0.8721  0.1625
  786MOL0    Cl 3664   9.721   7.979   0.511  0.1045  0.0932 -0.3942
  786MOL0     C 3665   8.621   8.268   0.598 -0.6303  0.2687 -0.6105
  786MOL0     C 3666   8.492   8.308   0.652 -0.3694 -0.2528 -0.3500
  786MOL0     O 3667   8.218   8.345   0.725  0.2354 -0.5666 -0.1733
  786MOL0     C 3668   8.204   8.564   1.011  0.5380  0.5287 -0.6105
  786MOL0     C 3669   8.111   8.627   1.098 -0.3022 -0.0520  0.0883
  786MOL0     N 3670   7.287   8.663   1.360  0.2868  0.2128 -0.2329
  786MOL0     N 3671   7.179   8.654   1.286 -0.5330 -0.0935 -0.3138
  786MOL0     C 3672   7.262   7.618   0.781 -0.3758 -0.2466 -0.1705
  786MOL0     C 3673   7.392   7.577   0.729 -0.4397  0.2140  0.0294
  786MOL0     C 3674   7.782   7.574   0.522  0.2128  0.3131  1.0060
  786MOL0     C 3675   7.900   7.620   0.582 -0.2949 -0.6341  0.1264
  786MOL0     C 3676   8.017   7.591   0.515  0.3747  0.7757  0.8037
  786MOL0     C 3677   8.021   7.498   0.409  0.3418  0.8902 -0.2769
  786MOL0     O 3678   8.127   7.438   0.346 -0.1729 -0.2587  0.1366
  786MOL0     C 3679   8.257   7.495   0.366  1.0513  0.6068  0.1435
  786MOL0     C 3680   8.362   7.412   0.288 -0.9362  0.4342  0.5144
  786MOL0     C 3681   8.498   7.461   0.315  0.2200  0.4047 -0.1981
  786MOL0     C 3682   8.604   7.356   0.269 -0.1223  0.0057  0.0205
  786MOL0     C 3683   8.737   7.401   0.303 -0.2169  0.1325 -0.5562
  786MOL0     C 3684   8.843   7.443   0.344  0.1424  0.0779  0.0213
  786MOL0     C 3685   7.900   7.450   0.355 -0.5531 -0.0811 -0.2365
  786MOL0     C 3686   7.787   7.498   0.406  0.6357  0.0499  0.2934
  786MOL0     H 3687   7.571   7.858   0.795 -1.0773  1.4679 -0.0155
  786MOL0     H 3688   7.344   7.941   0.859  2.2480 -0.0947 -0.2112
  786MOL0     H 3689   7.144   7.976   0.836  0.3684  1.3721  1.5564
  786MOL0     H 3690   7.153   7.949   1.012  1.8874  0.8485 -0.9732
  786MOL0     H 3691   6.904   7.851   0.979 -0.7362 -0.3890 -0.4590
  786MOL0     H 3692   6.911   7.926   0.820  0.7995 -1.2302 -0.3697
  786MOL0     H 3693   6.945   8.069   1.101 -0.7378  1.6523 -0.3758
  786MOL0     H 3694   6.808   8.070   0.993 -0.5302  1.1174 -3.1098
  786MOL0     H 3695   7.082   8.201   0.957  0.2070 -1.8070  1.5330
  786MOL0     H 3696   6.966   8.198   0.820  0.5209  0.9941  0.2272
  786MOL0     H 3697   6.884   8.324   1.072 -0.7232 -2.1686 -0.2370
  786MOL0     H 3698   6.797   8.323   0.917  0.3855  0.6576 -0.2680
  786MOL0     H 3699   6.906   8.531   0.917 -0.8179 -2.4540 -1.2520
  786MOL0     H 3700   7.009   8.450   0.813  0.9110  2.9492 -0.2250
  786MOL0     H 3701   7.067   8.433   1.096  0.7568  2.3967  1.7179
  786MOL0     H 3702   7.187   8.434   0.965  1.5386 -1.0777  3.8594
  786MOL0     H 3703   7.026   8.685   1.054  2.0272  2.5437  0.7560
  786MOL0     H 3704   7.167   8.674   0.946  0.4202 -1.1276 -0.5443
  786MOL0     H 3705   7.399   8.609   1.060  0.3903  2.0131  0.2323
  786MOL0     H 3706   7.541   8.569   1.399 -0.9779 -0.0269 -0.4351
  786MOL0     H 3707   7.583   8.717   1.301  1.9187 -1.7154 -2.1141
  786MOL0     H 3708   7.626   8.605   1.106 -0.3341 -2.1167 -1.7991
  786MOL0     H 3709   7.551   8.456   1.148  0.8703  1.9499 -5.2474
  786MOL0     H 3710   7.747   8.445   1.327 -2.0835  1.6806  1.2720
  786MOL0     H 3711   7.799   8.429   1.161  2.8175 -1.8962  1.9781
  786MOL0     H 3712   7.945   8.580   1.302  0.1097 -0.0546 -2.6542
  786MOL0     H 3713   7.813   8.687   1.340 -1.3001 -0.8059  0.8329
  786MOL0     H 3714   7.823   8.532   0.943 -0.3688 -0.2519 -0.2530
  786MOL0     H 3715   7.997   8.436   0.776  0.7084 -0.6987 -0.9936
  786MOL0     H 3716   8.620   8.440   0.942  1.3787 -0.9627  0.6478
  786MOL0     H 3717   8.832   8.373   0.830  0.9903 -1.4556 -0.6538
  786MOL0     H 3718   8.845   8.170   0.430 -0.1904 -0.6226  0.0386
  786MOL0     H 3719   8.824   8.052   0.559  0.5568 -0.5073  0.5728
  786MOL0     H 3720   9.082   8.215   0.496 -1.0172  0.2860  0.5617
  786MOL0     H 3721   9.043   8.063   0.411 -1.7877 -0.1883  0.5813
  786MOL0     H 3722   9.062   7.924   0.608 -0.3436 -0.2366  3.2599
  786MOL0     H 3723   9.080   8.068   0.706  1.0616 -0.8402 -0.1169
  786MOL0     H 3724   9.274   7.966   0.500  0.6357  0.3205  0.8977
  786MOL0     H 3725   9.297   8.120   0.586 -0.0801  1.1175  3.0843
  786MOL0     H 3726   9.273   7.846   0.720  0.4520 -0.0200  2.2147
  786MOL0     H 3727   9.286   8.011   0.800  0.8480  0.3950 -0.4403
  786MOL0     H 3728   9.496   7.867   0.790 -0.0422 -1.5409 -0.5710
  786MOL0     H 3729   9.508   8.019   0.697  1.8479 -1.3874  1.1017
  786MOL0     H 3730   9.461   7.721   0.614 -3.6780  2.3455  2.4056
  786MOL0     H 3731   9.452   7.851   0.494 -0.8378  2.2089  0.1089
  786MOL0     H 3732   9.681   7.743   0.512  1.4551  1.6654  0.3423
  786MOL0     H 3733   9.698   7.791   0.676  0.6272 -1.5443 -1.3420
  786MOL0     H 3734   8.624   8.200   0.513 -0.6619 -1.4696  0.7088
  786MOL0     H 3735   8.402   8.286   0.594  0.3740  0.3897 -1.8010
  786MOL0     H 3736   8.309   8.583   1.029  1.1960 -1.8177 -1.5792
  786MOL0     H 3737   8.149   8.693   1.176  0.8973 -1.1767  0.4824
  786MOL0     H 3738   7.179   7.548   0.785  0.4894 -1.2970  2.3246
  786MOL0     H 3739   7.404   7.476   0.690  2.7337  1.0020 -1.3507
  786MOL0     H 3740   7.899   7.696   0.659 -1.1414  1.7511 -2.0652
  786MOL0     H 3741   8.113   7.626   0.552  1.3311 -1.7172  0.8623
  786MOL0     H 3742   8.283   7.487   0.471 -2.5905 -0.1483  1.1129
  786MOL0     H 3743   8.261   7.600   0.335  4.6752  0.4324 -0.3943
  786MOL0     H 3744   8.350   7.304   0.299  0.1031  0.3474  0.9197
  786MOL0     H 3745   8.336   7.433   0.184  1.8545  1.2523 -0.1069
  786MOL0     H 3746   8.519   7.468   0.422  0.5008  0.6382 -0.2658
  786MOL0     H 3747   8.504   7.563   0.276 -1.5329  2.4270  4.2074
  786MOL0     H 3748   8.592   7.262   0.324 -0.7252  0.9783  1.5993
  786MOL0     H 3749   8.605   7.338   0.161  0.8077 -1.4030  0.2330
  786MOL0     H 3750   8.934   7.485   0.381  0.5319  0.1934 -1.0448
  786MOL0     H 3751   7.890   7.382   0.271  0.0395 -0.4391 -0.0189
  786MOL0     H 3752   7.695   7.464   0.361  0.0533  3.2457 -1.2151
  787MOL0     O 3753   9.073   2.269  10.904  0.0230  0.1092  0.0273
  787MOL0     C 3754   9.020   2.385  10.897  0.1858  0.4983  0.2381
  787MOL0     O 3755   8.889   2.414  10.885 -0.0875  0.8091  0.3946
  787MOL0     C 3756   8.796   2.315  10.860 -1.0646 -0.2148 -0.9077
  787MOL0     C 3757   8.681   2.348  10.925  0.0111 -1.4059  0.9796
  787MOL0     C 3758   8.565   2.269  10.909  0.7582 -0.2936  0.2362
  787MOL0     C 3759   8.567   2.156  10.822  1.1443 -1.4094 -0.5081
  787MOL0     O 3760   8.455   2.077  10.805 -0.2557  0.2207 -0.3031
  787MOL0     C 3761   8.324   2.138  10.830 -0.1320 -0.1201  0.7453
  787MOL0     C 3762   8.226   2.023  10.821  0.5776 -0.1907 -0.1450
  787MOL0     C 3763   8.092   2.039  10.903 -0.1342 -0.3216  0.1062
  787MOL0     C 3764   7.988   1.935  10.868  0.2310 -0.2828  0.2797
  787MOL0     C 3765   7.892   1.929  10.991  0.6163 -0.3845 -0.3704
  787MOL0     C 3766   7.757   1.854  10.978 -0.4453  0.0311  0.1448
  787MOL0     C 3767   7.630   1.911  11.057 -1.0001 -0.3086 -1.1581
  787MOL0     C 3768   7.499   1.843  11.016  0.4492 -0.1693  0.1026
  787MOL0     N 3769   7.483   1.703  11.058  0.9474  0.3015 -0.2207
  787MOL0     C 3770   7.461   1.609  10.965 -0.2099 -0.4992 -0.2455
  787MOL0     C 3771   7.386   1.518  11.035 -0.1644  0.6087 -0.2900
  787MOL0     C 3772   7.352   1.382  10.977  0.9556  0.2371  0.0310
  787MOL0     C 3773   7.205   1.357  10.929 -1.1667  0.4373 -0.5747
  787MOL0     C 3774   7.181   1.222  10.868 -0.6801  0.6486  0.8747
  787MOL0     C 3775   7.074   1.242  10.762 -0.4033  0.4460  0.0616
  787MOL0     O 3776   6.962   1.309  10.820 -0.0107 -0.0773  0.4027
  787MOL0     C 3777   6.863   1.343  10.732 -0.6121  0.0985  0.3701
  787MOL0     C 3778   6.779   1.443  10.768  0.6676 -0.9326  0.7621
  787MOL0     C 3779   6.678   1.484  10.681  0.3018  0.1398 -1.1831
  787MOL0     C 3780   6.665   1.421  10.555  1.0531 -0.9351  0.5108
  787MOL0     C 3781   6.561   1.471  10.461 -0.7444 -0.2370 -0.1201
  787MOL0     O 3782   6.473   1.566  10.500 -0.2410  0.3648  0.2942
  787MOL0     C 3783   6.369   1.585  10.410 -0.2391  0.1165 -0.5652
  787MOL0     C 3784   6.289   1.478  10.369  0.3004 -0.0909  0.7643
  787MOL0     C 3785   6.178   1.506  10.294  0.4848  0.0170  0.5271
  787MOL0     C 3786   6.141   1.638  10.270 -0.4547 -0.4948  0.0942
  787MOL0     O 3787   6.025   1.646  10.193 -0.0894  0.8307  0.0103
  787MOL0     C 3788   5.973   1.772  10.149  0.0707  0.4005 -0.3939
  787MOL0     C 3789   5.841   1.750  10.087  0.3744 -0.0074  0.3554
  787MOL0     C 3790   5.743   1.871  10.118  0.3418  0.1828 -0.2032
  787MOL0     C 3791   5.607   1.839  10.051  0.4435 -0.2106 -0.5072
  787MOL0     C 3792   5.510   1.952  10.090  0.3029 -0.1364 -0.0694
  787MOL0     C 3793   5.456   1.940  10.232  1.0340  0.0149  0.1838
  787MOL0     C 3794   5.331   2.019  10.267  1.1946 -0.1657  0.8428
  787MOL0     C 3795   5.344   2.167  10.236  0.0503  0.0680 -0.5538
  787MOL0    Cl 3796   5.217   2.273  10.308  0.1616 -0.6232 -0.4238
  787MOL0     C 3797   6.223   1.746  10.311  0.3195 -0.1824  1.2628
  787MOL0     C 3798   6.337   1.716  10.380 -0.0345  0.1772 -0.1576
  787MOL0     O 3799   6.554   1.416  10.354 -0.4447  0.3171 -0.4663
  787MOL0     C 3800   6.748   1.307  10.514 -0.4364  0.2071 -0.3237
  787MOL0     C 3801   6.849   1.283  10.604  0.7466  0.4459 -0.1059
  787MOL0     N 3802   7.377   1.559  11.166  0.4517 -0.3532  0.9891
  787MOL0     N 3803   7.436   1.670  11.183 -0.0214 -0.9458 -0.3194
  787MOL0     C 3804   8.685   2.124  10.759 -0.5904  0.1704  0.6283
  787MOL0     C 3805   8.803   2.201  10.784 -0.2801  0.2238 -0.0274
  787MOL0     C 3806   9.112   2.496  10.902 -0.0867 -0.0322 -0.0781
  787MOL0     C 3807   9.252   2.472  10.886  1.3884 -0.6631 -0.7971
  787MOL0     C 3808   9.343   2.576  10.890 -0.3367 -0.4163  0.3965
  787MOL0     C 3809   9.304   2.709  10.904  0.1196  0.2014 -0.0469
  787MOL0     O 3810   9.398   2.813  10.921  0.0452 -0.1381  0.0919
  787MOL0     C 3811   9.350   2.948  10.910  0.4220 -0.2320 -0.0082
  787MOL0     C 3812   9.469   3.037  10.935 -0.0270 -0.3421 -0.4264
  787MOL0     C 3813   9.563   3.031  10.819 -0.3400  0.1411  0.0903
  787MOL0     C 3814   9.505   3.096  10.695 -0.9375 -0.4402  0.8687
  787MOL0     C 3815   9.439   3.231  10.714 -0.8979  0.2132 -0.6387
  787MOL0     C 3816   9.384   3.336  10.731  0.1680 -0.9683 -0.1789
  787MOL0     C 3817   9.160   2.731  10.906 -0.1969  0.3618  0.0114
  787MOL0     C 3818   9.070   2.626  10.903 -0.1034 -0.0558  0.9330
  787MOL0     H 3819   8.678   2.432  10.993 -0.4672 -2.0051  1.7294
  787MOL0     H 3820   8.481   2.280  10.978  0.8011  2.8639 -0.0432
  787MOL0     H 3821   8.303   2.215  10.756  0.4969  0.7332  1.4301
  787MOL0     H 3822   8.316   2.174  10.933 -1.4414 -0.2934  0.7252
  787MOL0     H 3823   8.281   1.929  10.830  0.0890 -0.6255 -1.4492
  787MOL0     H 3824   8.185   2.020  10.720 -1.9842 -1.0437  0.8358
  787MOL0     H 3825   8.046   2.132  10.869  1.5688  1.0749  1.4241
  787MOL0     H 3826   8.114   2.049  11.009 -2.3002  1.8724  0.4289
  787MOL0     H 3827   7.935   1.965  10.778  2.3794  4.2165  0.2394
  787MOL0     H 3828   8.032   1.836  10.852  0.3997 -0.3590  1.1402
  787MOL0     H 3829   7.872   2.033  11.019  0.2463  0.2128 -2.7091
  787MOL0     H 3830   7.950   1.886  11.074  0.6626 -0.5120 -0.4685
  787MOL0     H 3831   7.781   1.756  11.020  0.4288  0.1715 -0.0256
  787MOL0     H 3832   7.732   1.848  10.871 -0.5381 -0.2231  0.1786
  787MOL0     H 3833   7.649   1.893  11.163  1.3113 -0.2216 -1.5174
  787MOL0     H 3834   7.615   2.019  11.048 -0.1978 -0.2130 -1.3809
  787MOL0     H 3835   7.493   1.851  10.907 -4.1469 -1.5907  0.0086
  787MOL0     H 3836   7.419   1.905  11.059  1.9429  0.8689  1.4799
  787MOL0     H 3837   7.490   1.604  10.860 -0.4307 -1.1878 -0.2830
  787MOL0     H 3838   7.372   1.302  11.050  4.7298  0.6247 -0.3931
  787MOL0     H 3839   7.423   1.364  10.896 -2.5236 -1.4604 -2.9190
  787MOL0     H 3840   7.175   1.446  10.873  2.1004  1.9462 -0.1659
  787MOL0     H 3841   7.150   1.347  11.023  1.8002 -0.3416  1.2422
  787MOL0     H 3842   7.279   1.190  10.833 -0.9930 -1.5675  1.8505
  787MOL0     H 3843   7.143   1.146  10.937  1.3603 -2.0979 -0.8429
  787MOL0     H 3844   7.052   1.140  10.728  0.1650  0.0642  0.8141
  787MOL0     H 3845   7.111   1.302  10.678 -1.6368  0.9401 -0.1587
  787MOL0     H 3846   6.800   1.508  10.852 -2.2930  1.6012 -0.2754
  787MOL0     H 3847   6.608   1.561  10.712 -0.8645 -1.8463  1.5198
  787MOL0     H 3848   6.305   1.378  10.408  0.5628  0.6505  2.6572
  787MOL0     H 3849   6.113   1.426  10.262  1.6726 -0.2819 -1.3010
  787MOL0     H 3850   6.046   1.815  10.080  1.0691 -0.0805  0.3229
  787MOL0     H 3851   5.966   1.833  10.240 -2.9180  0.9823 -0.9364
  787MOL0     H 3852   5.805   1.653  10.122 -0.9272  0.0281 -0.8008
  787MOL0     H 3853   5.857   1.741   9.979  0.2174 -3.7317  0.5389
  787MOL0     H 3854   5.782   1.970  10.095 -0.1881  0.3601 -0.3428
  787MOL0     H 3855   5.723   1.883  10.225  0.6315 -2.1993  0.1765
  787MOL0     H 3856   5.620   1.853   9.943 -1.4326  0.8020 -0.6405
  787MOL0     H 3857   5.564   1.739  10.064 -2.1532  0.8404 -0.3947
  787MOL0     H 3858   5.429   1.946  10.016  1.6657 -1.8354 -1.5260
  787MOL0     H 3859   5.561   2.046  10.068 -4.3472  2.4706 -1.0600
  787MOL0     H 3860   5.535   1.962  10.303  0.0217  1.3792  0.9246
  787MOL0     H 3861   5.423   1.836  10.242 -0.3330  0.4891  0.8782
  787MOL0     H 3862   5.249   1.963  10.220  0.7871  0.6077  0.6235
  787MOL0     H 3863   5.326   1.998  10.374  3.2810  1.3540  1.2861
  787MOL0     H 3864   5.348   2.185  10.128  0.5312 -0.0805 -0.5629
  787MOL0     H 3865   5.444   2.197  10.269 -0.6328  0.3511  1.3792
  787MOL0     H 3866   6.194   1.849  10.295 -3.2759 -1.2943 -0.3429
  787MOL0     H 3867   6.395   1.796  10.425  1.8655 -1.3502  0.2137
  787MOL0     H 3868   6.765   1.271  10.413  1.2378 -0.1761  0.0669
  787MOL0     H 3869   6.924   1.212  10.569  0.0335 -0.3430 -0.0738
  787MOL0     H 3870   8.701   2.028  10.710 -1.7571  0.4332 -0.3078
  787MOL0     H 3871   8.896   2.163  10.742  0.0646 -0.3105  1.1688
  787MOL0     H 3872   9.291   2.371  10.881  0.4011 -1.1544  0.7664
  787MOL0     H 3873   9.450   2.563  10.877 -0.1631  1.3934 -0.3608
  787MOL0     H 3874   9.276   2.974  10.987  0.9130  1.5585 -0.0999
  787MOL0     H 3875   9.295   2.979  10.821 -0.2776 -0.8981  0.1786
  787MOL0     H 3876   9.445   3.136  10.974 -1.7426 -0.1704 -1.8065
  787MOL0     H 3877   9.520   2.988  11.019  0.6565  0.6413 -0.2561
  787MOL0     H 3878   9.600   2.932  10.791 -3.5093 -0.7780 -1.3320
  787MOL0     H 3879   9.649   3.091  10.852 -1.3745  2.2642 -0.8417
  787MOL0     H 3880   9.584   3.124  10.624 -2.3078  4.3260  0.9014
  787MOL0     H 3881   9.436   3.029  10.643 -0.8731 -0.7867  1.2233
  787MOL0     H 3882   9.342   3.433  10.750  1.2936 -0.3272 -0.8683
  787MOL0     H 3883   9.107   2.825  10.913 -1.7311 -0.5629  1.7710
  787MOL0     H 3884   8.964   2.645  10.912 -0.1462  1.0781 -1.2886
  788MOL0     O 3885   5.581   4.791   9.252  0.2017 -0.4332 -0.5233
  788MOL0     C 3886   5.524   4.681   9.256  0.5483 -0.3176 -0.3548
  788MOL0     O 3887   5.413   4.657   9.330 -0.1628 -0.1813 -0.1980
  788MOL0     C 3888   5.342   4.744   9.416  0.3609 -0.2661  0.6633
  788MOL0     C 3889   5.283   4.702   9.536 -0.3501  0.1305 -0.2754
  788MOL0     C 3890   5.228   4.798   9.618  0.4579  0.3235 -0.2389
  788MOL0     C 3891   5.216   4.932   9.577 -0.5802 -0.7375 -0.8578
  788MOL0     O 3892   5.155   5.026   9.662  0.2090  0.0020  1.0082
  788MOL0     C 3893   5.087   5.139   9.599 -0.7803 -0.2910 -0.1883
  788MOL0     C 3894   4.998   5.209   9.707 -0.2910 -0.4551 -1.0282
  788MOL0     C 3895   4.937   5.344   9.658  0.3997 -0.1007 -0.7134
  788MOL0     C 3896   4.850   5.412   9.754 -0.6892 -0.9224 -0.8625
  788MOL0     C 3897   4.730   5.337   9.787  0.0563 -0.5769  0.1549
  788MOL0     C 3898   4.627   5.422   9.872 -0.3052 -0.2617 -0.6601
  788MOL0     C 3899   4.516   5.324   9.917  0.2333 -0.4004  0.4109
  788MOL0     C 3900   4.399   5.399  10.000  0.6850 -0.4530 -0.6987
  788MOL0     N 3901   4.322   5.296  10.065 -0.3944  0.0401  0.0594
  788MOL0     C 3902   4.240   5.202  10.003 -0.1050 -0.7672  0.3092
  788MOL0     C 3903   4.234   5.094  10.088  0.0291 -0.6065 -0.0869
  788MOL0     C 3904   4.137   4.975  10.082 -0.7583  0.4373  0.2405
  788MOL0     C 3905   4.169   4.872   9.974 -1.0717  0.5976  0.9432
  788MOL0     C 3906   4.313   4.815   9.996  0.1431 -0.6465  0.3826
  788MOL0     C 3907   4.435   4.902   9.956 -0.4798 -0.3096 -0.3093
  788MOL0     O 3908   4.429   4.968   9.820  0.1882 -0.4763  0.4767
  788MOL0     C 3909   4.512   4.926   9.728 -0.6620 -0.9843 -0.5251
  788MOL0     C 3910   4.528   4.791   9.685  0.0080 -0.7002  1.3044
  788MOL0     C 3911   4.603   4.758   9.560  0.8969 -1.0618  0.0993
  788MOL0     C 3912   4.668   4.869   9.494  0.2807  0.4123 -0.2888
  788MOL0     C 3913   4.767   4.831   9.392  0.8523 -0.3890 -0.4782
  788MOL0     O 3914   4.810   4.705   9.386  0.2265  0.6993  0.2899
  788MOL0     C 3915   4.899   4.659   9.294 -0.1338 -0.6302 -0.3513
  788MOL0     C 3916   5.004   4.566   9.337  0.2576  0.3682 -0.3600
  788MOL0     C 3917   5.081   4.502   9.242  0.0880  0.0515 -0.0715
  788MOL0     C 3918   5.072   4.526   9.106  0.0857 -0.4721  0.5035
  788MOL0     O 3919   5.140   4.444   9.018 -0.0237 -0.4284 -0.2211
  788MOL0     C 3920   5.068   4.419   8.902 -0.1921 -0.6469  0.9055
  788MOL0     C 3921   5.091   4.292   8.823 -0.7749  0.3001 -0.1556
  788MOL0     C 3922   5.221   4.300   8.749  0.2541  0.6191 -0.0058
  788MOL0     C 3923   5.245   4.175   8.661 -0.2439 -0.8386  0.0269
  788MOL0     C 3924   5.254   4.050   8.744  0.2247  0.8927  0.2287
  788MOL0     C 3925   5.301   3.947   8.646 -0.0151 -0.5126  0.0038
  788MOL0     C 3926   5.309   3.808   8.705 -0.7903  0.0376 -0.3355
  788MOL0     C 3927   5.180   3.747   8.753 -0.8482 -0.2203 -0.4748
  788MOL0    Cl 3928   5.047   3.753   8.630  0.2275  0.0726 -0.0527
  788MOL0     C 3929   4.995   4.634   9.069 -0.5994 -0.4812 -0.3477
  788MOL0     C 3930   4.904   4.695   9.154  0.1350  0.1210  0.5510
  788MOL0     O 3931   4.820   4.925   9.332  0.7428 -0.9526  0.3884
  788MOL0     C 3932   4.656   5.003   9.544  0.2389  0.1701  0.3361
  788MOL0     C 3933   4.584   5.033   9.661  0.1768  0.0187  0.9805
  788MOL0     N 3934   4.309   5.125  10.200  0.1910  0.1465 -0.2610
  788MOL0     N 3935   4.367   5.236  10.175  0.0307 -0.4982 -0.2551
  788MOL0     C 3936   5.263   4.974   9.453  0.1191  0.2418  0.1227
  788MOL0     C 3937   5.331   4.883   9.382 -0.3282 -0.5757  0.6002
  788MOL0     C 3938   5.562   4.579   9.161 -0.6579 -0.2962 -0.2416
  788MOL0     C 3939   5.501   4.452   9.155  0.3896 -0.3185 -0.4778
  788MOL0     C 3940   5.519   4.370   9.050 -0.6524 -0.1679 -0.5493
  788MOL0     C 3941   5.607   4.394   8.944 -0.3517 -0.5769 -0.3133
  788MOL0     O 3942   5.612   4.303   8.839  0.7426  0.1143 -0.2457
  788MOL0     C 3943   5.723   4.298   8.744 -0.0240  0.1311  0.4599
  788MOL0     C 3944   5.785   4.161   8.732 -0.4353 -0.6617 -0.0916
  788MOL0     C 3945   5.688   4.049   8.684 -0.0949 -1.1212 -0.6482
  788MOL0     C 3946   5.626   4.077   8.541  1.2019 -0.5330 -0.0733
  788MOL0     C 3947   5.709   4.152   8.450 -0.5777  0.1546 -0.2751
  788MOL0     C 3948   5.787   4.204   8.380 -0.0161  0.2518 -0.2173
  788MOL0     C 3949   5.673   4.516   8.946 -0.3787 -0.3919 -0.0995
  788MOL0     C 3950   5.651   4.608   9.053  0.0831 -0.1445  0.6140
  788MOL0     H 3951   5.292   4.600   9.573  2.3204 -0.1120 -1.3871
  788MOL0     H 3952   5.194   4.763   9.715 -3.1622 -1.7636 -2.0721
  788MOL0     H 3953   5.019   5.094   9.526  0.2841 -1.7557 -0.3403
  788MOL0     H 3954   5.153   5.209   9.549 -2.7737  0.7421 -1.4990
  788MOL0     H 3955   5.062   5.236   9.792 -1.0175 -0.9090 -0.3194
  788MOL0     H 3956   4.923   5.135   9.737  0.9917 -0.9660  1.1609
  788MOL0     H 3957   4.872   5.329   9.571 -1.9579  4.9133 -0.1190
  788MOL0     H 3958   5.019   5.406   9.622  1.9453 -1.9978 -0.6357
  788MOL0     H 3959   4.896   5.445   9.847  1.3490 -0.3635 -2.0122
  788MOL0     H 3960   4.815   5.501   9.701  0.9116 -1.2510 -2.5569
  788MOL0     H 3961   4.746   5.256   9.859 -1.0838 -0.1466  0.9273
  788MOL0     H 3962   4.685   5.301   9.693  2.5851 -0.3127 -1.2391
  788MOL0     H 3963   4.590   5.504   9.809  2.1712  1.2869 -0.2133
  788MOL0     H 3964   4.667   5.456   9.967 -0.1368 -4.0858  0.8202
  788MOL0     H 3965   4.461   5.278   9.835 -0.5820  0.5024  0.4325
  788MOL0     H 3966   4.566   5.256   9.987  2.1883 -0.9529 -1.4340
  788MOL0     H 3967   4.336   5.466   9.941 -1.7149  0.0984  2.2140
  788MOL0     H 3968   4.445   5.460  10.078 -0.8898  1.0366 -0.8744
  788MOL0     H 3969   4.196   5.209   9.904 -0.6133 -0.8588  0.5261
  788MOL0     H 3970   4.039   5.013  10.051 -1.1100  0.2116  1.0596
  788MOL0     H 3971   4.134   4.925  10.179 -0.3094  2.3986  1.3284
  788MOL0     H 3972   4.166   4.904   9.870  1.3039 -2.2742 -0.1373
  788MOL0     H 3973   4.093   4.796   9.993 -1.1347  0.4942  0.2832
  788MOL0     H 3974   4.317   4.776  10.099 -0.0484 -2.5101 -0.2876
  788MOL0     H 3975   4.319   4.727   9.932 -2.8683 -2.2824  2.1266
  788MOL0     H 3976   4.531   4.849   9.959  0.2366  0.9374 -0.1446
  788MOL0     H 3977   4.453   4.975  10.036  2.2178  1.8941 -2.6812
  788MOL0     H 3978   4.468   4.716   9.734 -3.0718  1.1471  0.6149
  788MOL0     H 3979   4.605   4.653   9.534  0.4660 -1.1601  0.4369
  788MOL0     H 3980   5.013   4.534   9.440  0.5825  2.7706  0.4232
  788MOL0     H 3981   5.162   4.434   9.269 -1.2485 -1.1401  1.1055
  788MOL0     H 3982   5.090   4.506   8.840  1.2734 -0.8303  1.1491
  788MOL0     H 3983   4.962   4.419   8.930  0.3123 -0.1817  3.0050
  788MOL0     H 3984   5.011   4.286   8.749 -2.4145 -0.9021  1.5924
  788MOL0     H 3985   5.080   4.210   8.895 -3.2837  1.2305  0.6313
  788MOL0     H 3986   5.301   4.316   8.822  0.1795 -0.3315  0.3008
  788MOL0     H 3987   5.212   4.383   8.678  0.5928  1.7615  1.2543
  788MOL0     H 3988   5.161   4.181   8.591  0.3816  1.5328 -0.6078
  788MOL0     H 3989   5.340   4.200   8.615  0.3809 -1.2451  1.0506
  788MOL0     H 3990   5.159   4.015   8.787  1.1525 -0.4827  1.2601
  788MOL0     H 3991   5.330   4.052   8.822  2.0389  1.3030 -1.4811
  788MOL0     H 3992   5.393   3.974   8.594 -0.4253 -1.8571 -1.5044
  788MOL0     H 3993   5.230   3.957   8.563  2.9877  3.5185 -2.4122
  788MOL0     H 3994   5.338   3.738   8.626  0.2763  1.6970 -1.5064
  788MOL0     H 3995   5.388   3.808   8.781 -0.3602 -0.4917 -0.7746
  788MOL0     H 3996   5.156   3.792   8.850  1.3137 -1.6634  0.8002
  788MOL0     H 3997   5.194   3.640   8.769  0.8967  0.1548  0.7871
  788MOL0     H 3998   4.997   4.680   8.970 -2.8973 -1.6253 -0.9966
  788MOL0     H 3999   4.841   4.773   9.114 -4.1771 -1.4377  3.5514
  788MOL0     H 4000   4.716   5.084   9.505  2.7644 -2.2333 -1.0878
  788MOL0     H 4001   4.579   5.138   9.687  5.0505  1.2918 -1.8584
  788MOL0     H 4002   5.259   5.072   9.408  0.4921 -0.1803 -0.8537
  788MOL0     H 4003   5.372   4.921   9.289 -2.2606 -0.4716 -0.2495
  788MOL0     H 4004   5.444   4.410   9.237  1.4383  0.4042  0.6780
  788MOL0     H 4005   5.483   4.268   9.039  0.0934 -0.4395 -0.5330
  788MOL0     H 4006   5.802   4.370   8.768 -0.6703  0.8481  0.4848
  788MOL0     H 4007   5.683   4.320   8.645 -1.1287 -3.1044  0.0450
  788MOL0     H 4008   5.873   4.168   8.668 -0.9529  1.3815 -0.6356
  788MOL0     H 4009   5.817   4.137   8.834  0.5638  0.1894 -0.1937
  788MOL0     H 4010   5.609   4.024   8.756  1.0382 -3.2392 -0.0481
  788MOL0     H 4011   5.756   3.963   8.679  0.5234 -0.9941  2.9094
  788MOL0     H 4012   5.591   3.981   8.503 -0.6652 -1.1980  2.9486
  788MOL0     H 4013   5.534   4.134   8.560  1.6557 -0.8299  3.8393
  788MOL0     H 4014   5.849   4.248   8.305  1.0638 -3.4212 -1.6928
  788MOL0     H 4015   5.755   4.541   8.879  0.4425 -1.3591  0.5191
  788MOL0     H 4016   5.705   4.702   9.043  0.1401 -0.2202  0.1846
  789MOL0     O 4017   3.079  10.305   7.738  0.4800 -0.5889  0.4699
  789MOL0     C 4018   3.110  10.205   7.795 -0.5022 -0.5145  0.3225
  789MOL0     O 4019   3.232  10.161   7.814 -0.4220  0.6519 -0.7804
  789MOL0     C 4020   3.338  10.236   7.782  0.1261 -0.0738  0.1548
  789MOL0     C 4021   3.448  10.177   7.723  0.0095 -0.5829 -0.9124
  789MOL0     C 4022   3.564  10.256   7.690  0.2646  0.2695 -0.1921
  789MOL0     C 4023   3.577  10.393   7.736 -0.0019 -0.0094  0.2135
  789MOL0     O 4024   3.692  10.468   7.726 -0.4185 -0.5171 -0.8020
  789MOL0     C 4025   3.813  10.413   7.665  0.3977 -0.3851 -0.1682
  789MOL0     C 4026   3.921  10.521   7.660 -0.0817 -0.1859  0.4425
  789MOL0     C 4027   3.857  10.647   7.587 -1.8738 -0.2592 -0.2365
  789MOL0     C 4028   3.781  10.627   7.454  0.7592  0.2896  0.0528
  789MOL0     C 4029   3.715  10.761   7.420  0.1589  0.3860 -0.6248
  789MOL0     C 4030   3.662  10.777   7.283  0.8650  0.5871 -0.4123
  789MOL0     C 4031   3.527  10.708   7.249 -0.1014 -0.5770 -0.3307
  789MOL0     C 4032   3.475  10.745   7.103  0.6644  0.5208 -0.4437
  789MOL0     N 4033   3.336  10.816   7.098  0.2163  0.3105  0.1178
  789MOL0     C 4034   3.307  10.936   7.156 -0.6992  0.0352 -0.0201
  789MOL0     C 4035   3.173  10.960   7.129 -0.1729 -0.1017  0.1289
  789MOL0     C 4036   3.089  11.084   7.157 -0.3177 -0.0676  0.3922
  789MOL0     C 4037   3.001  11.057   7.278  0.5053 -0.7353  0.1228
  789MOL0     C 4038   2.933  11.195   7.318  0.3768 -0.1008  0.2696
  789MOL0     C 4039   2.783  11.182   7.312  0.0480 -0.1789  0.3435
  789MOL0     O 4040   2.743  11.153   7.183 -0.1140 -0.4093 -0.3124
  789MOL0     C 4041   2.608  11.140   7.167 -0.0961  1.1206 -0.2544
  789MOL0     C 4042   2.522  11.246   7.181  0.4921 -0.3812  0.4765
  789MOL0     C 4043   2.378  11.220   7.177  0.4076 -0.2691 -0.1530
  789MOL0     C 4044   2.324  11.091   7.170  0.3004 -0.0752 -0.4941
  789MOL0     C 4045   2.178  11.065   7.185  0.3164  0.5108 -0.2738
  789MOL0     O 4046   2.105  11.153   7.261  0.1156 -0.0819 -0.0873
  789MOL0     C 4047   1.988  11.120   7.329 -0.5931  0.0110  0.4178
  789MOL0     C 4048   1.925  10.997   7.335 -0.9967 -0.2673 -0.9795
  789MOL0     C 4049   1.804  10.988   7.398  0.3119 -0.1822 -0.3748
  789MOL0     C 4050   1.732  11.101   7.440  0.5235 -0.0384  0.6568
  789MOL0     O 4051   1.610  11.105   7.496  0.2841 -0.3626 -0.7089
  789MOL0     C 4052   1.535  10.982   7.504  0.1422 -0.1869 -0.2667
  789MOL0     C 4053   1.386  11.005   7.543  0.0323  0.0796 -0.4693
  789MOL0     C 4054   1.297  11.070   7.432  0.6691  0.5393 -0.1022
  789MOL0     C 4055   1.168  11.119   7.489  0.5528 -0.6272  0.1249
  789MOL0     C 4056   1.072  11.000   7.527 -0.4611 -0.4335  1.4201
  789MOL0     C 4057   0.937  11.050   7.580 -0.0347 -0.3745 -0.7485
  789MOL0     C 4058   0.871  10.918   7.653  0.0194 -0.5923  0.6748
  789MOL0     C 4059   0.773  10.957   7.760  0.1279 -0.3216 -0.3146
  789MOL0    Cl 4060   0.857  11.012   7.907 -0.1289  0.2323  0.0721
  789MOL0     C 4061   1.793  11.227   7.436  0.2432  0.4021 -0.1213
  789MOL0     C 4062   1.922  11.231   7.384 -0.9724  0.4731 -0.5718
  789MOL0     O 4063   2.139  10.958   7.143  0.0642 -0.4737  0.6214
  789MOL0     C 4064   2.415  10.989   7.149  0.2643  0.6839 -0.6252
  789MOL0     C 4065   2.553  11.013   7.144  1.6513  0.2664 -0.7894
  789MOL0     N 4066   3.123  10.845   7.067  0.2871  0.9024 -0.3225
  789MOL0     N 4067   3.227  10.769   7.035  0.4214  0.1380  0.0109
  789MOL0     C 4068   3.465  10.448   7.787  0.5895 -0.8535 -0.7528
  789MOL0     C 4069   3.346  10.377   7.819  0.0598 -0.0351 -0.0221
  789MOL0     C 4070   3.001  10.134   7.862  0.4548 -1.0158  0.7615
  789MOL0     C 4071   3.032  10.014   7.932 -0.2216  0.2776  0.3496
  789MOL0     C 4072   2.926   9.940   7.977  0.4129  0.3456 -0.1802
  789MOL0     C 4073   2.791   9.985   7.960 -0.2995 -0.3272 -0.0085
  789MOL0     O 4074   2.694   9.902   8.012 -0.2561 -0.0874 -0.2732
  789MOL0     C 4075   2.560   9.933   8.006  0.8622  0.5368  0.8729
  789MOL0     C 4076   2.502   9.928   7.864 -0.5518  0.1926 -0.2235
  789MOL0     C 4077   2.559   9.814   7.779  0.0925  0.0411 -0.3622
  789MOL0     C 4078   2.526   9.681   7.850 -1.1685 -0.7698  0.5870
  789MOL0     C 4079   2.382   9.650   7.841  0.3526  0.2559  0.3999
  789MOL0     C 4080   2.261   9.630   7.833  1.2254  0.0786 -0.6169
  789MOL0     C 4081   2.764  10.102   7.896 -0.7768 -0.8433  0.5386
  789MOL0     C 4082   2.868  10.179   7.848 -0.9200 -0.2000  0.5797
  789MOL0     H 4083   3.445  10.071   7.701  1.4353 -0.3348 -2.4792
  789MOL0     H 4084   3.650  10.207   7.646 -0.1349 -0.7477  0.1370
  789MOL0     H 4085   3.797  10.389   7.560  0.0964  3.0817 -1.0522
  789MOL0     H 4086   3.846  10.327   7.724 -1.1982 -2.5564 -2.2480
  789MOL0     H 4087   4.005  10.489   7.598 -1.8477 -2.6554 -0.8362
  789MOL0     H 4088   3.951  10.551   7.761 -2.7476 -1.9641  1.8821
  789MOL0     H 4089   3.941  10.710   7.556 -0.9657 -1.5886 -0.5655
  789MOL0     H 4090   3.795  10.700   7.660  0.2087  1.4088  0.4365
  789MOL0     H 4091   3.852  10.592   7.379  1.0423  0.0712  0.4163
  789MOL0     H 4092   3.707  10.549   7.474  1.2477 -0.8861 -2.4417
  789MOL0     H 4093   3.801  10.827   7.429  2.2696 -2.2057 -0.3194
  789MOL0     H 4094   3.639  10.780   7.496 -0.3180  2.6663 -1.6097
  789MOL0     H 4095   3.745  10.756   7.216  0.6950  2.1389 -1.1607
  789MOL0     H 4096   3.638  10.884   7.286 -0.9590  0.2034  0.9301
  789MOL0     H 4097   3.546  10.601   7.265 -0.1743 -0.5511 -0.0784
  789MOL0     H 4098   3.450  10.732   7.323  0.4683 -2.7608  1.0682
  789MOL0     H 4099   3.479  10.654   7.042 -0.4131  2.0160 -2.9075
  789MOL0     H 4100   3.554  10.806   7.058  0.0811  2.4020  0.9711
  789MOL0     H 4101   3.384  11.000   7.196  1.4437 -1.0580 -2.1711
  789MOL0     H 4102   3.028  11.118   7.074  1.1731  1.2634 -0.2068
  789MOL0     H 4103   3.153  11.172   7.170 -0.3805 -0.2735  2.3938
  789MOL0     H 4104   3.071  11.025   7.356 -0.3744 -0.7152  0.9478
  789MOL0     H 4105   2.934  10.971   7.266 -2.0000  1.2605 -1.1372
  789MOL0     H 4106   2.956  11.229   7.419 -1.5915 -2.1690  1.4864
  789MOL0     H 4107   2.959  11.270   7.242 -2.7240  1.5466  0.6582
  789MOL0     H 4108   2.735  11.276   7.344  4.6114  1.9084  1.8750
  789MOL0     H 4109   2.757  11.094   7.372  3.5273 -2.0904 -0.7166
  789MOL0     H 4110   2.562  11.346   7.196  0.2463  0.0688 -1.5842
  789MOL0     H 4111   2.314  11.306   7.192  1.1630  0.2194  0.3280
  789MOL0     H 4112   1.979  10.909   7.303  0.2192  1.4364 -4.1273
  789MOL0     H 4113   1.754  10.891   7.397  2.3147 -1.2922 -1.3142
  789MOL0     H 4114   1.592  10.909   7.561  1.7232 -0.6133 -2.2799
  789MOL0     H 4115   1.534  10.936   7.405 -2.1098 -0.5099 -0.1445
  789MOL0     H 4116   1.387  11.063   7.635  2.4685 -1.1606  0.3842
  789MOL0     H 4117   1.333  10.912   7.568 -2.7201  1.7828  0.4677
  789MOL0     H 4118   1.281  11.009   7.343 -0.7825  0.3605  0.2534
  789MOL0     H 4119   1.349  11.158   7.393 -0.2956  2.1280  2.0116
  789MOL0     H 4120   1.194  11.184   7.573  0.2705  0.0922 -0.3346
  789MOL0     H 4121   1.119  11.176   7.410  2.6862 -0.5397 -1.2209
  789MOL0     H 4122   1.121  10.945   7.607  3.2272  2.7709  1.5868
  789MOL0     H 4123   1.053  10.938   7.438  1.0160  0.4669  0.4417
  789MOL0     H 4124   0.879  11.080   7.493  1.6622  0.7331 -1.5271
  789MOL0     H 4125   0.947  11.130   7.654 -0.0916  3.1929 -4.2734
  789MOL0     H 4126   0.807  10.864   7.582 -1.9106  1.7487  0.4944
  789MOL0     H 4127   0.946  10.854   7.700  0.5138 -1.6570 -1.4337
  789MOL0     H 4128   0.705  10.874   7.784 -1.0033  0.5156 -0.5212
  789MOL0     H 4129   0.715  11.042   7.723 -0.7386 -0.9961 -0.5553
  789MOL0     H 4130   1.749  11.319   7.472  2.1601  0.5396  2.0484
  789MOL0     H 4131   1.965  11.330   7.373  1.8965 -0.9209 -3.8164
  789MOL0     H 4132   2.386  10.885   7.144  0.0120  0.7453 -0.4920
  789MOL0     H 4133   2.616  10.926   7.124  2.1863  0.4062  0.2522
  789MOL0     H 4134   3.469  10.548   7.829 -2.3716 -0.9665  0.0758
  789MOL0     H 4135   3.257  10.422   7.861  0.3249  1.4766 -0.9918
  789MOL0     H 4136   3.133   9.977   7.948 -0.6920 -1.2978 -0.1279
  789MOL0     H 4137   2.953   9.846   8.025  0.2094  1.6132  2.5721
  789MOL0     H 4138   2.551  10.028   8.059  0.1844  0.9352  0.0747
  789MOL0     H 4139   2.506   9.861   8.068 -0.4047  1.1482  0.5260
  789MOL0     H 4140   2.393   9.927   7.872 -0.5169 -0.2610  0.2139
  789MOL0     H 4141   2.523  10.017   7.803 -0.5186  1.2602  1.2927
  789MOL0     H 4142   2.664   9.836   7.758 -0.7794  4.0053 -1.3956
  789MOL0     H 4143   2.519   9.818   7.677 -2.8017  0.5199  0.6917
  789MOL0     H 4144   2.569   9.598   7.792  0.7081  1.4207 -1.3611
  789MOL0     H 4145   2.568   9.665   7.949  0.2353 -1.7048 -0.1203
  789MOL0     H 4146   2.157   9.613   7.847  1.4159  0.0395  0.9668
  789MOL0     H 4147   2.666  10.148   7.889 -0.2890  0.1226 -0.2389
  789MOL0     H 4148   2.853  10.269   7.789 -0.2904 -2.3298 -3.2049
  790MOL0     O 4149  10.302   0.654   7.940 -0.5631  0.3238  0.4800
  790MOL0     C 4150  10.372   0.746   7.891  0.4009 -0.9388  0.0520
  790MOL0     O 4151  10.333   0.872   7.894  0.1055 -0.2283 -0.6357
  790MOL0     C 4152  10.208   0.904   7.959 -0.3204 -0.4750  0.6468
  790MOL0     C 4153  10.204   0.911   8.100  0.1974  0.0128 -0.7330
  790MOL0     C 4154  10.077   0.923   8.166  0.6706 -0.7416  0.2574
  790MOL0     C 4155   9.960   0.930   8.093 -0.6605 -0.0281 -0.3306
  790MOL0     O 4156   9.830   0.933   8.139  0.3171 -0.5563  0.3724
  790MOL0     C 4157   9.792   0.845   8.245  0.0222  0.0588 -0.0981
  790MOL0     C 4158   9.698   0.909   8.344 -0.2562  0.8457 -0.8512
  790MOL0     C 4159   9.653   0.813   8.459 -0.1933  0.1476  0.1192
  790MOL0     C 4160   9.597   0.884   8.578 -0.2705  0.8654 -0.5890
  790MOL0     C 4161   9.478   0.965   8.536 -0.4200  1.2227 -0.8483
  790MOL0     C 4162   9.395   1.012   8.658 -0.4130 -0.2841  0.6096
  790MOL0     C 4163   9.248   1.054   8.625  0.2103  0.6353  0.3208
  790MOL0     C 4164   9.231   1.155   8.515  0.5088  1.1725  0.2413
  790MOL0     N 4165   9.089   1.183   8.497 -0.2107 -0.5086  1.0813
  790MOL0     C 4166   9.045   1.307   8.458 -0.2121  0.6707 -0.0512
  790MOL0     C 4167   8.913   1.293   8.444 -0.5357 -0.8078  0.1423
  790MOL0     C 4168   8.813   1.405   8.419  0.8729  1.1257 -0.3069
  790MOL0     C 4169   8.689   1.339   8.342  0.1967 -0.1084 -0.6276
  790MOL0     C 4170   8.586   1.434   8.289 -0.7726  0.4831  0.0760
  790MOL0     C 4171   8.505   1.365   8.174  0.4699 -0.0192 -0.2593
  790MOL0     O 4172   8.400   1.454   8.141 -0.5131  0.0535 -0.6218
  790MOL0     C 4173   8.284   1.442   8.206 -0.0911 -0.3284 -0.0773
  790MOL0     C 4174   8.253   1.345   8.305 -0.1563 -0.0657  0.6818
  790MOL0     C 4175   8.128   1.331   8.354 -0.6249 -0.6668 -0.9731
  790MOL0     C 4176   8.028   1.425   8.333 -1.1497 -0.6076 -0.5711
  790MOL0     C 4177   7.896   1.415   8.396 -0.2059  0.1631  0.4261
  790MOL0     O 4178   7.795   1.482   8.327 -0.4517 -0.3320 -0.4108
  790MOL0     C 4179   7.661   1.473   8.348 -0.7603  0.8420 -0.4340
  790MOL0     C 4180   7.591   1.375   8.429 -0.0052  0.0009 -0.5433
  790MOL0     C 4181   7.453   1.377   8.434 -0.5871 -0.0295  0.0532
  790MOL0     C 4182   7.384   1.472   8.367  0.3702  0.2915 -0.7894
  790MOL0     O 4183   7.247   1.470   8.366 -0.1323 -0.5865 -0.1957
  790MOL0     C 4184   7.172   1.550   8.459 -0.2242  0.1596  0.3628
  790MOL0     C 4185   7.103   1.479   8.570  0.3182  0.0771  0.1176
  790MOL0     C 4186   7.025   1.359   8.521  0.0045  0.9717 -0.4506
  790MOL0     C 4187   6.887   1.385   8.481  0.8889 -0.0083 -0.0525
  790MOL0     C 4188   6.821   1.257   8.416 -0.8103  0.3594 -0.0286
  790MOL0     C 4189   6.673   1.277   8.372 -0.5015 -0.2006  0.1987
  790MOL0     C 4190   6.581   1.319   8.494 -0.6030  0.0291 -0.4787
  790MOL0     C 4191   6.447   1.282   8.454  0.4117  0.5010 -0.0853
  790MOL0    Cl 4192   6.314   1.351   8.572  0.0504 -0.2091 -0.1201
  790MOL0     C 4193   7.448   1.567   8.297 -0.3982 -0.0029 -0.7075
  790MOL0     C 4194   7.587   1.575   8.290 -0.4079 -0.3933 -0.1188
  790MOL0     O 4195   7.880   1.346   8.497 -0.9226 -0.1734 -0.0362
  790MOL0     C 4196   8.059   1.525   8.244 -0.1550 -0.5365  0.0744
  790MOL0     C 4197   8.187   1.537   8.189  0.1706  0.5238  0.5058
  790MOL0     N 4198   8.883   1.161   8.460  0.0520  0.4633 -0.6257
  790MOL0     N 4199   8.983   1.099   8.504  0.2738  0.0102 -0.5652
  790MOL0     C 4200   9.974   0.921   7.953 -0.2423  0.0237  0.3307
  790MOL0     C 4201  10.100   0.911   7.879  0.4502 -0.1399  0.2716
  790MOL0     C 4202  10.478   0.707   7.798  0.2910  0.2452  0.4194
  790MOL0     C 4203  10.577   0.792   7.749 -0.1394  0.2727 -0.7115
  790MOL0     C 4204  10.673   0.753   7.659  0.1612  0.1096  0.7267
  790MOL0     C 4205  10.667   0.618   7.614 -0.8756  0.4438  0.1629
  790MOL0     O 4206  10.770   0.588   7.521  0.1023  0.0568 -0.0615
  790MOL0     C 4207  10.751   0.462   7.452 -0.6094  0.0409 -0.4763
  790MOL0     C 4208  10.862   0.460   7.341  1.0977 -0.2393 -0.8788
  790MOL0     C 4209  10.984   0.407   7.396  0.6465  0.6527  0.3705
  790MOL0     C 4210  11.113   0.458   7.333 -0.4631  0.0982  0.2810
  790MOL0     C 4211  11.117   0.462   7.184  0.0958 -0.9336 -0.7884
  790MOL0     C 4212  11.130   0.492   7.071 -0.1841 -0.0804 -0.0910
  790MOL0     C 4213  10.572   0.520   7.656  0.3960 -0.4336  0.3166
  790MOL0     C 4214  10.481   0.573   7.747 -0.3966  0.2294 -0.1147
  790MOL0     H 4215  10.296   0.900   8.156  0.1114  0.9983 -0.3650
  790MOL0     H 4216  10.092   0.921   8.274  1.3582 -0.7297  0.1670
  790MOL0     H 4217   9.880   0.796   8.290 -1.4334 -0.0723  2.8306
  790MOL0     H 4218   9.740   0.759   8.202  3.3699 -0.5407 -3.6115
  790MOL0     H 4219   9.610   0.955   8.297 -0.8339  1.0183  0.3582
  790MOL0     H 4220   9.749   0.997   8.383  0.2923 -0.0825  0.6292
  790MOL0     H 4221   9.739   0.755   8.493 -1.2897  0.1701  3.2753
  790MOL0     H 4222   9.575   0.746   8.422 -1.1398  0.2990  1.7465
  790MOL0     H 4223   9.565   0.804   8.646  1.5055 -0.3149 -1.0663
  790MOL0     H 4224   9.665   0.955   8.625  0.0463 -0.8601  1.7107
  790MOL0     H 4225   9.412   0.901   8.477 -0.6451  1.1676 -0.5366
  790MOL0     H 4226   9.506   1.041   8.462 -3.8840  2.7695 -0.7472
  790MOL0     H 4227   9.443   1.095   8.709  0.2934 -0.1695 -0.2042
  790MOL0     H 4228   9.396   0.932   8.732  0.5652  0.6955  1.6898
  790MOL0     H 4229   9.183   0.971   8.595 -0.4010  1.7215 -1.5111
  790MOL0     H 4230   9.210   1.085   8.723  1.0460  1.1081  0.5076
  790MOL0     H 4231   9.267   1.115   8.419 -1.0362 -3.2602  1.2538
  790MOL0     H 4232   9.285   1.244   8.548  4.1178 -0.7840  0.1085
  790MOL0     H 4233   9.101   1.400   8.450 -1.6981  1.8628  2.0509
  790MOL0     H 4234   8.857   1.475   8.348  1.0698 -0.8753 -2.2616
  790MOL0     H 4235   8.772   1.440   8.515 -0.5093 -3.7187  1.1668
  790MOL0     H 4236   8.631   1.276   8.410 -0.7711 -0.3702 -1.6567
  790MOL0     H 4237   8.728   1.280   8.259  0.5962 -0.3899 -0.2403
  790MOL0     H 4238   8.517   1.462   8.369  0.5821  1.4987  0.9278
  790MOL0     H 4239   8.645   1.519   8.253 -0.9815  0.8838  0.6617
  790MOL0     H 4240   8.465   1.268   8.204 -2.4285  0.7962 -1.0846
  790MOL0     H 4241   8.570   1.356   8.087  0.1329 -1.6564 -0.3598
  790MOL0     H 4242   8.329   1.273   8.336 -1.0892 -1.0791  0.6484
  790MOL0     H 4243   8.112   1.251   8.426  3.4742 -0.5191  0.3983
  790MOL0     H 4244   7.639   1.302   8.493  1.6010 -2.7515 -4.4725
  790MOL0     H 4245   7.400   1.313   8.503  1.5542 -0.8713  1.0039
  790MOL0     H 4246   7.103   1.620   8.412 -1.1541 -0.8359  0.2291
  790MOL0     H 4247   7.244   1.618   8.507  0.6592  0.9205 -1.9185
  790MOL0     H 4248   7.036   1.542   8.628  0.4893  2.0624 -1.7145
  790MOL0     H 4249   7.174   1.444   8.645  1.2625 -1.8931 -1.5666
  790MOL0     H 4250   7.023   1.290   8.606  3.8389  2.4266  1.0613
  790MOL0     H 4251   7.084   1.313   8.441  0.0721  0.1018  0.0819
  790MOL0     H 4252   6.832   1.405   8.573  0.5314  0.6485 -0.3994
  790MOL0     H 4253   6.881   1.478   8.424  2.3955  0.0986 -0.0812
  790MOL0     H 4254   6.825   1.167   8.478 -0.6856 -0.5391 -1.2996
  790MOL0     H 4255   6.868   1.235   8.320 -0.6115  0.7592 -0.0272
  790MOL0     H 4256   6.633   1.185   8.327 -0.0791 -0.2372 -0.1066
  790MOL0     H 4257   6.656   1.354   8.297  0.0464  0.0862  0.3619
  790MOL0     H 4258   6.609   1.270   8.588 -1.9704 -0.4539 -0.3123
  790MOL0     H 4259   6.596   1.426   8.511  0.3245  0.1687 -1.9001
  790MOL0     H 4260   6.446   1.174   8.466 -2.2956  0.7458  3.2728
  790MOL0     H 4261   6.416   1.313   8.353  1.0933 -0.1238 -0.4891
  790MOL0     H 4262   7.391   1.655   8.267 -1.0975  0.5457  1.9896
  790MOL0     H 4263   7.629   1.668   8.251 -4.4646  2.0528  0.7386
  790MOL0     H 4264   7.983   1.600   8.223 -1.3581 -1.1905  1.7773
  790MOL0     H 4265   8.206   1.607   8.108 -1.8316  0.1368 -0.3526
  790MOL0     H 4266   9.885   0.921   7.891 -0.1306  2.1642  0.1214
  790MOL0     H 4267  10.106   0.897   7.771  0.5834 -2.1759  0.5108
  790MOL0     H 4268  10.582   0.890   7.795 -0.5249 -0.0200 -0.0362
  790MOL0     H 4269  10.753   0.820   7.627 -0.1490  1.2074  2.1482
  790MOL0     H 4270  10.656   0.472   7.399 -1.0766  1.8835  0.6057
  790MOL0     H 4271  10.760   0.378   7.521 -0.5089  0.1652 -0.3369
  790MOL0     H 4272  10.826   0.423   7.245 -0.4887  2.1982 -1.3059
  790MOL0     H 4273  10.871   0.568   7.322  1.5798  0.5626  3.0167
  790MOL0     H 4274  10.969   0.299   7.387 -0.9592  0.8688  0.2471
  790MOL0     H 4275  10.997   0.420   7.504  0.7553  4.9243  0.0117
  790MOL0     H 4276  11.126   0.563   7.361  0.3947  0.2391 -0.5789
  790MOL0     H 4277  11.194   0.397   7.373  0.1591  0.3274 -0.5945
  790MOL0     H 4278  11.125   0.524   6.969 -0.5942 -2.6297 -0.9458
  790MOL0     H 4279  10.563   0.421   7.612 -1.7854  0.4499 -1.4492
  790MOL0     H 4280  10.410   0.506   7.795  0.5555 -0.9664 -0.3309
  791MOL0     O 4281  10.581   8.229   3.234 -0.5989  0.7338 -0.4694
  791MOL0     C 4282  10.621   8.276   3.338 -0.3168 -0.4027 -0.0712
  791MOL0     O 4283  10.556   8.289   3.456  0.5790  0.0940  0.1465
  791MOL0     C 4284  10.419   8.303   3.472  0.1183  0.3993  0.2027
  791MOL0     C 4285  10.321   8.233   3.396  0.1025  0.2395 -0.3753
  791MOL0     C 4286  10.188   8.219   3.442 -0.8238 -0.7292 -0.0832
  791MOL0     C 4287  10.149   8.300   3.559  0.3361  1.3218  0.3483
  791MOL0     O 4288  10.015   8.307   3.603 -0.1004  0.2245 -0.7098
  791MOL0     C 4289   9.909   8.280   3.511  0.1720  0.9304 -1.0185
  791MOL0     C 4290   9.770   8.337   3.561  0.3307 -0.0771  0.0756
  791MOL0     C 4291   9.658   8.226   3.555 -0.4210 -0.1377  1.2579
  791MOL0     C 4292   9.514   8.283   3.593  0.0161  0.4515  0.8424
  791MOL0     C 4293   9.393   8.205   3.547  0.2703  0.1942 -0.3319
  791MOL0     C 4294   9.278   8.238   3.641 -0.7280  0.1075  0.5083
  791MOL0     C 4295   9.136   8.201   3.596 -0.4665  0.2318 -0.2168
  791MOL0     C 4296   9.043   8.283   3.687 -0.1821  0.0725  0.7290
  791MOL0     N 4297   8.899   8.250   3.656 -0.0166  0.4158  0.3124
  791MOL0     C 4298   8.819   8.318   3.572  0.9043  0.1308 -0.0522
  791MOL0     C 4299   8.702   8.253   3.581 -0.5561  1.1867 -0.1351
  791MOL0     C 4300   8.591   8.303   3.496  0.9580  0.1251  1.0362
  791MOL0     C 4301   8.460   8.235   3.520  0.0338 -0.0846 -0.1852
  791MOL0     C 4302   8.408   8.291   3.648 -0.1866  0.2184  0.3639
  791MOL0     C 4303   8.276   8.242   3.697 -0.3570 -0.2714  1.2845
  791MOL0     O 4304   8.170   8.296   3.613 -0.2614  0.4368 -0.2403
  791MOL0     C 4305   8.051   8.316   3.677 -0.0265 -0.1255  0.4990
  791MOL0     C 4306   7.964   8.418   3.623 -0.1810  0.7883 -0.4524
  791MOL0     C 4307   7.839   8.447   3.678 -0.1305  0.0857  0.4387
  791MOL0     C 4308   7.786   8.365   3.777  1.0431 -1.0030 -0.5667
  791MOL0     C 4309   7.651   8.382   3.843 -0.2866  0.2048  0.2544
  791MOL0     O 4310   7.553   8.438   3.764 -0.0714 -0.4611  0.6308
  791MOL0     C 4311   7.426   8.467   3.801  0.5865  1.2569 -0.3195
  791MOL0     C 4312   7.316   8.428   3.720 -0.0349 -0.7583 -0.1131
  791MOL0     C 4313   7.188   8.465   3.762  0.8059 -0.1042 -0.4226
  791MOL0     C 4314   7.157   8.547   3.873  0.5739 -0.4924  0.7489
  791MOL0     O 4315   7.029   8.600   3.885  0.3304  0.4687 -0.4422
  791MOL0     C 4316   6.964   8.568   4.013 -1.0809  0.3933  0.0020
  791MOL0     C 4317   6.816   8.595   4.006  0.6464 -1.0919 -0.2972
  791MOL0     C 4318   6.785   8.737   3.956  0.3120 -0.4165  0.1177
  791MOL0     C 4319   6.629   8.756   3.948  0.1417  0.0300  0.1036
  791MOL0     C 4320   6.584   8.898   3.926  0.5851  0.4747 -1.3524
  791MOL0     C 4321   6.569   8.970   4.058  0.3098  0.5851  0.0797
  791MOL0     C 4322   6.455   8.900   4.140 -0.0832  0.6347 -0.1450
  791MOL0     C 4323   6.494   8.862   4.281  0.4503 -0.4957  0.1193
  791MOL0    Cl 4324   6.521   9.021   4.364 -0.3921  0.3246 -0.0799
  791MOL0     C 4325   7.263   8.587   3.951  0.4989  0.0224 -0.2577
  791MOL0     C 4326   7.396   8.548   3.914  0.8105 -0.0219 -0.2354
  791MOL0     O 4327   7.627   8.324   3.945 -0.3315 -0.5931  0.2402
  791MOL0     C 4328   7.870   8.265   3.834 -0.0207 -0.9326  0.5477
  791MOL0     C 4329   8.001   8.246   3.789  0.0993 -0.1773  0.3180
  791MOL0     N 4330   8.708   8.161   3.688 -0.2646  0.3642 -0.1988
  791MOL0     N 4331   8.825   8.174   3.741  0.2451  0.1320  0.0937
  791MOL0     C 4332  10.241   8.378   3.633  0.7310  0.8224 -0.0050
  791MOL0     C 4333  10.370   8.376   3.583 -0.0239  0.3161  0.1109
  791MOL0     C 4334  10.758   8.328   3.338  0.2245  0.5172 -1.7236
  791MOL0     C 4335  10.825   8.381   3.455 -0.4645  0.6750  0.4850
  791MOL0     C 4336  10.956   8.429   3.458  0.4187  0.2853 -0.3688
  791MOL0     C 4337  11.029   8.417   3.339 -0.1185  1.4722  0.1302
  791MOL0     O 4338  11.159   8.458   3.330  0.7736 -0.0056  0.1704
  791MOL0     C 4339  11.230   8.443   3.442 -0.3234  0.0285 -0.0441
  791MOL0     C 4340  11.261   8.292   3.465  0.7549 -0.2228  0.2797
  791MOL0     C 4341  11.357   8.238   3.361  0.4587 -0.4130 -0.3669
  791MOL0     C 4342  11.501   8.297   3.364  0.2247  0.1018  0.0828
  791MOL0     C 4343  11.593   8.227   3.277 -0.2864 -0.6401  0.5455
  791MOL0     C 4344  11.657   8.158   3.203  0.3955  0.4949 -0.1763
  791MOL0     C 4345  10.964   8.366   3.225 -0.1782  0.8224 -0.2133
  791MOL0     C 4346  10.834   8.327   3.225  0.2094  0.2310  0.6689
  791MOL0     H 4347  10.348   8.156   3.324 -2.7343 -1.1712 -0.0575
  791MOL0     H 4348  10.104   8.165   3.400 -1.7179  1.3533 -1.1201
  791MOL0     H 4349   9.903   8.174   3.483  1.9431  0.8700 -1.2678
  791MOL0     H 4350   9.938   8.337   3.423 -0.9097  1.0122 -1.3374
  791MOL0     H 4351   9.744   8.418   3.492 -1.0294 -0.9776 -0.5277
  791MOL0     H 4352   9.761   8.372   3.664 -1.0276  4.7199 -1.4124
  791MOL0     H 4353   9.690   8.144   3.621  2.8377  0.4668  0.6305
  791MOL0     H 4354   9.653   8.186   3.454 -2.3877  2.0993  0.3621
  791MOL0     H 4355   9.513   8.296   3.702 -1.6451  3.0009  0.5940
  791MOL0     H 4356   9.499   8.383   3.551  2.6116  0.7728  0.5520
  791MOL0     H 4357   9.393   8.096   3.542  0.3327  0.1691  0.1276
  791MOL0     H 4358   9.370   8.242   3.447  1.7890 -1.1170 -1.2150
  791MOL0     H 4359   9.277   8.338   3.685 -3.4093 -0.1422  1.1551
  791MOL0     H 4360   9.301   8.170   3.723  0.3695  1.2176  1.1682
  791MOL0     H 4361   9.124   8.241   3.495 -1.1639  4.2181  1.2763
  791MOL0     H 4362   9.103   8.097   3.606 -1.0357  0.4841  0.5925
  791MOL0     H 4363   9.052   8.390   3.665  1.6847  0.4051  2.7751
  791MOL0     H 4364   9.057   8.252   3.791 -0.5180 -0.0207  0.7481
  791MOL0     H 4365   8.838   8.400   3.504 -1.3268  0.5996 -0.1719
  791MOL0     H 4366   8.630   8.289   3.395  2.5146  0.4242  1.5679
  791MOL0     H 4367   8.581   8.412   3.507  3.0070  0.5843 -0.9605
  791MOL0     H 4368   8.475   8.127   3.515  1.2278  0.1148 -1.9048
  791MOL0     H 4369   8.389   8.271   3.445  0.8276  3.5334  0.5710
  791MOL0     H 4370   8.475   8.279   3.733 -0.7295  1.3406  0.9678
  791MOL0     H 4371   8.390   8.399   3.642  0.1437  0.2249 -0.6394
  791MOL0     H 4372   8.269   8.271   3.802 -0.7667  5.8083 -0.0870
  791MOL0     H 4373   8.276   8.134   3.682 -0.5843 -0.1735  0.5575
  791MOL0     H 4374   8.007   8.475   3.541  2.5457 -2.3825 -1.4782
  791MOL0     H 4375   7.774   8.528   3.645 -0.4498 -0.8514 -1.3950
  791MOL0     H 4376   7.328   8.387   3.620 -0.3651 -0.7386 -0.1629
  791MOL0     H 4377   7.100   8.442   3.702  1.3191  1.5072 -1.8792
  791MOL0     H 4378   6.998   8.636   4.091 -3.3525 -0.6952  2.0971
  791MOL0     H 4379   6.983   8.464   4.041 -0.7426  0.2092 -0.8794
  791MOL0     H 4380   6.768   8.582   4.104  0.6906 -0.7705 -0.2334
  791MOL0     H 4381   6.775   8.521   3.936 -1.9805 -1.8216  1.8374
  791MOL0     H 4382   6.826   8.759   3.857  0.4744 -0.6257  0.1388
  791MOL0     H 4383   6.826   8.804   4.032  1.2037 -0.8161 -0.0026
  791MOL0     H 4384   6.578   8.695   3.873 -0.3806  0.9177 -0.2769
  791MOL0     H 4385   6.592   8.715   4.043 -1.8332  0.9406 -0.2383
  791MOL0     H 4386   6.491   8.892   3.868  0.0094 -0.4836 -0.3682
  791MOL0     H 4387   6.667   8.945   3.873  1.7088 -0.5766 -0.5573
  791MOL0     H 4388   6.544   9.073   4.030  0.9763  0.9295  0.6895
  791MOL0     H 4389   6.659   8.984   4.119  0.2973  0.5285  0.1112
  791MOL0     H 4390   6.377   8.975   4.154 -1.3693 -0.4515 -1.1919
  791MOL0     H 4391   6.404   8.818   4.087  2.1449 -1.8377  1.3214
  791MOL0     H 4392   6.583   8.800   4.263 -1.1881 -2.0398 -3.9511
  791MOL0     H 4393   6.415   8.808   4.333  0.2420 -2.9778 -2.4970
  791MOL0     H 4394   7.241   8.650   4.035 -1.1592 -0.4527 -0.3103
  791MOL0     H 4395   7.473   8.606   3.965  1.5292  0.5253 -1.9013
  791MOL0     H 4396   7.841   8.197   3.914  2.0771 -1.4988  0.8820
  791MOL0     H 4397   8.060   8.168   3.834  1.9902  1.9912  1.8529
  791MOL0     H 4398  10.218   8.418   3.731 -0.5578  1.5109 -0.5670
  791MOL0     H 4399  10.451   8.413   3.646  1.2713  2.6467 -2.7078
  791MOL0     H 4400  10.765   8.387   3.545 -2.1480  1.0608 -0.6290
  791MOL0     H 4401  10.992   8.467   3.553  2.0896 -1.3679 -0.2610
  791MOL0     H 4402  11.188   8.490   3.531  0.1422  2.8511 -1.1955
  791MOL0     H 4403  11.321   8.500   3.422 -0.4271  1.7351  3.5655
  791MOL0     H 4404  11.306   8.288   3.564 -2.2997  3.6361  2.1006
  791MOL0     H 4405  11.167   8.236   3.461  0.9968 -0.5722 -1.1123
  791MOL0     H 4406  11.306   8.264   3.268 -2.1752  1.1035  1.3717
  791MOL0     H 4407  11.357   8.129   3.368 -0.0658 -0.3535  0.8217
  791MOL0     H 4408  11.499   8.402   3.332 -2.8530  0.2545  0.5013
  791MOL0     H 4409  11.537   8.308   3.466 -0.0594  1.1380  0.0783
  791MOL0     H 4410  11.724   8.095   3.148  1.2617  0.3387  1.0201
  791MOL0     H 4411  11.020   8.367   3.132  0.6181 -1.0617  0.1977
  791MOL0     H 4412  10.791   8.294   3.131 -0.7393 -2.4685  1.9539
  792MOL0     O 4413   3.978   8.220   2.045  0.3371  0.5253  0.0006
  792MOL0     C 4414   3.968   8.102   2.021 -0.0174  0.3870 -0.6826
  792MOL0     O 4415   4.072   8.016   2.019  0.2471 -0.2174  0.0012
  792MOL0     C 4416   4.207   8.042   2.046 -0.7213 -0.0750 -0.2137
  792MOL0     C 4417   4.292   7.935   2.041  0.5524 -0.8715  0.3693
  792MOL0     C 4418   4.428   7.945   2.083  0.7487 -0.1041 -0.3311
  792MOL0     C 4419   4.479   8.070   2.116  0.2714  0.3779  0.2193
  792MOL0     O 4420   4.609   8.085   2.161  0.1006 -0.5692 -0.3858
  792MOL0     C 4421   4.715   7.994   2.117  0.2925 -1.1321 -0.0483
  792MOL0     C 4422   4.852   8.062   2.107  0.0736 -0.4903 -0.1285
  792MOL0     C 4423   4.870   8.143   2.243 -0.5336  0.9861  0.4976
  792MOL0     C 4424   4.995   8.221   2.247  0.7935  0.2402 -0.0310
  792MOL0     C 4425   4.972   8.375   2.284 -0.5778  0.2840 -0.0510
  792MOL0     C 4426   4.884   8.435   2.173 -0.6378  0.1322  0.3425
  792MOL0     C 4427   4.915   8.582   2.150 -0.1574 -0.1490 -0.0313
  792MOL0     C 4428   4.879   8.672   2.276  0.3664 -0.3394  0.6649
  792MOL0     N 4429   5.004   8.716   2.345  0.5957  0.7504 -0.5284
  792MOL0     C 4430   5.033   8.689   2.472  0.1196 -0.7196 -0.4242
  792MOL0     C 4431   5.158   8.739   2.498 -0.8190  0.7565  0.7362
  792MOL0     C 4432   5.247   8.717   2.616  0.2525 -0.3690 -0.2194
  792MOL0     C 4433   5.197   8.805   2.728 -0.2834 -0.9641 -0.0694
  792MOL0     C 4434   5.245   8.757   2.868  1.2944 -0.9931  0.6464
  792MOL0     C 4435   5.205   8.615   2.913 -0.5303  0.0742 -0.1954
  792MOL0     O 4436   5.065   8.589   2.896  0.8164 -0.0539  0.5194
  792MOL0     C 4437   5.021   8.461   2.883  0.3571 -0.0959 -0.6902
  792MOL0     C 4438   4.899   8.444   2.828  0.0242  0.3592 -0.5792
  792MOL0     C 4439   4.863   8.315   2.804  0.5585 -0.1525  0.4406
  792MOL0     C 4440   4.941   8.201   2.823 -0.3181 -0.9914  0.8644
  792MOL0     C 4441   4.911   8.068   2.758 -0.2223 -0.3805  0.1039
  792MOL0     O 4442   4.780   8.063   2.709 -0.6883  0.3955 -1.1838
  792MOL0     C 4443   4.741   7.944   2.649 -0.0364 -0.4590 -0.0888
  792MOL0     C 4444   4.674   7.940   2.532 -0.0856 -0.0472  0.1349
  792MOL0     C 4445   4.610   7.829   2.482 -1.3598 -0.3834 -0.3757
  792MOL0     C 4446   4.610   7.714   2.546 -0.5487  0.5447  0.0572
  792MOL0     O 4447   4.547   7.604   2.500 -0.2511  0.8567 -0.5501
  792MOL0     C 4448   4.458   7.613   2.382 -0.5780  0.0604 -0.6233
  792MOL0     C 4449   4.313   7.644   2.428 -0.4029  0.8660  0.2924
  792MOL0     C 4450   4.228   7.659   2.297 -0.4524  0.6103  0.3841
  792MOL0     C 4451   4.071   7.639   2.322 -1.0993  0.3335  0.6707
  792MOL0     C 4452   3.981   7.644   2.199  0.5677  0.4489 -0.1347
  792MOL0     C 4453   4.015   7.562   2.067  0.4278  0.4371 -0.4235
  792MOL0     C 4454   4.003   7.412   2.091  0.2375  0.0588  0.9274
  792MOL0     C 4455   3.859   7.369   2.126  0.6012 -0.4786  0.3565
  792MOL0    Cl 4456   3.736   7.415   1.999 -0.0478  0.0633  0.2173
  792MOL0     C 4457   4.686   7.702   2.670 -0.0936  0.4977  0.2802
  792MOL0     C 4458   4.754   7.819   2.715  0.0364  0.2086 -0.3498
  792MOL0     O 4459   4.995   7.978   2.756 -1.0894 -0.6542  0.4036
  792MOL0     C 4460   5.057   8.225   2.895  0.5505 -0.8259  0.1479
  792MOL0     C 4461   5.100   8.356   2.919  0.1592 -0.3412  0.4590
  792MOL0     N 4462   5.195   8.806   2.386 -0.6019  0.2136  0.4718
  792MOL0     N 4463   5.110   8.784   2.289  0.1589 -0.1679 -0.6955
  792MOL0     C 4464   4.397   8.173   2.094  0.2219  0.4864  0.1897
  792MOL0     C 4465   4.266   8.168   2.061 -0.1250  0.6730 -0.3238
  792MOL0     C 4466   3.840   8.041   1.976 -0.2168  0.4505 -0.1442
  792MOL0     C 4467   3.831   7.918   1.907 -0.6601 -0.0882 -0.3074
  792MOL0     C 4468   3.709   7.876   1.860 -0.2659  0.1600 -0.0912
  792MOL0     C 4469   3.593   7.942   1.895  0.4721  0.1887  0.0505
  792MOL0     O 4470   3.475   7.900   1.836 -0.0815  0.4708 -0.2781
  792MOL0     C 4471   3.352   7.966   1.877  0.4094 -0.1153  0.4770
  792MOL0     C 4472   3.243   7.878   1.837 -0.7174  0.2451 -0.2978
  792MOL0     C 4473   3.200   7.919   1.701  0.1189  0.0971  0.5233
  792MOL0     C 4474   3.120   7.820   1.622  0.4930  0.0546 -0.0003
  792MOL0     C 4475   2.996   7.791   1.696  0.3474  0.0176 -0.2365
  792MOL0     C 4476   2.894   7.770   1.758  0.1136 -0.2081  0.0566
  792MOL0     C 4477   3.601   8.054   1.983 -0.6344  0.7226  0.6018
  792MOL0     C 4478   3.723   8.102   2.014  0.4073  0.2290 -0.7499
  792MOL0     H 4479   4.245   7.842   2.010  1.6162 -1.3259  0.0859
  792MOL0     H 4480   4.483   7.852   2.091  1.3504  0.4188  2.4588
  792MOL0     H 4481   4.688   7.944   2.024 -1.4574 -1.3422  0.5344
  792MOL0     H 4482   4.723   7.917   2.194  1.6870  1.1832  2.2870
  792MOL0     H 4483   4.854   8.120   2.015  1.0052 -1.4799 -0.7531
  792MOL0     H 4484   4.930   7.987   2.093 -2.3721 -2.9096 -1.9936
  792MOL0     H 4485   4.878   8.073   2.327  0.8886 -1.7650 -1.7509
  792MOL0     H 4486   4.780   8.204   2.258 -0.7758  1.4399 -2.2633
  792MOL0     H 4487   5.067   8.178   2.318  1.4281  2.1920  0.5745
  792MOL0     H 4488   5.044   8.225   2.149 -2.0530 -0.9787 -1.5984
  792MOL0     H 4489   5.075   8.413   2.289  0.0285 -1.4134  1.6803
  792MOL0     H 4490   4.916   8.392   2.376  1.3170 -0.3331  1.2800
  792MOL0     H 4491   4.778   8.415   2.192 -0.6151  1.3664  1.9557
  792MOL0     H 4492   4.910   8.382   2.081  0.9619 -0.9576  1.3673
  792MOL0     H 4493   5.012   8.602   2.105 -0.5699 -0.0655 -0.8980
  792MOL0     H 4494   4.847   8.601   2.067 -0.0578  0.2233 -0.0292
  792MOL0     H 4495   4.813   8.613   2.340 -0.4381 -0.2836 -0.0996
  792MOL0     H 4496   4.814   8.758   2.257 -0.8803 -1.3536  0.1989
  792MOL0     H 4497   4.961   8.642   2.538  0.8552  0.1171  1.0213
  792MOL0     H 4498   5.350   8.740   2.590  0.9932 -0.8536  2.0251
  792MOL0     H 4499   5.232   8.612   2.643 -2.3207 -0.0934 -0.2496
  792MOL0     H 4500   5.088   8.809   2.734 -0.6220 -1.8961 -3.3842
  792MOL0     H 4501   5.234   8.905   2.705 -0.4914 -0.3632  2.0028
  792MOL0     H 4502   5.354   8.758   2.865  1.3319 -3.0053 -2.0292
  792MOL0     H 4503   5.213   8.829   2.943  0.8327  1.6365 -1.8978
  792MOL0     H 4504   5.222   8.610   3.021 -0.2005  1.0521 -0.1921
  792MOL0     H 4505   5.277   8.547   2.866  1.4724 -0.5153  3.3584
  792MOL0     H 4506   4.831   8.524   2.800 -1.7679 -0.3455  1.5286
  792MOL0     H 4507   4.771   8.311   2.747  0.2919 -4.5096  0.7960
  792MOL0     H 4508   4.660   8.031   2.474  0.0497 -0.2587 -0.2297
  792MOL0     H 4509   4.564   7.846   2.385 -3.2130 -0.5664  0.4361
  792MOL0     H 4510   4.481   7.511   2.349  2.0114  0.2444  0.3894
  792MOL0     H 4511   4.488   7.678   2.300  3.5405 -1.6542 -0.6965
  792MOL0     H 4512   4.321   7.733   2.491  4.2914  0.2549  0.9188
  792MOL0     H 4513   4.273   7.557   2.481 -1.7930 -0.6650 -2.9919
  792MOL0     H 4514   4.258   7.581   2.226 -2.2988 -1.1267  1.4011
  792MOL0     H 4515   4.245   7.752   2.242  0.2690 -1.5595 -3.4609
  792MOL0     H 4516   4.060   7.541   2.370 -4.0907  0.0080 -0.4468
  792MOL0     H 4517   4.044   7.717   2.394 -0.0447 -0.3664  1.8749
  792MOL0     H 4518   3.980   7.749   2.167  1.8204  1.2985  2.3423
  792MOL0     H 4519   3.877   7.622   2.224  0.2827 -1.0563 -2.3776
  792MOL0     H 4520   4.106   7.589   2.013  0.7961 -1.0151 -0.5886
  792MOL0     H 4521   3.938   7.587   1.994 -0.8381  0.0733  0.7325
  792MOL0     H 4522   4.020   7.359   1.997 -1.5700  1.0256  0.0122
  792MOL0     H 4523   4.077   7.372   2.161  1.9663 -0.5724 -1.1619
  792MOL0     H 4524   3.824   7.412   2.220  1.2646  0.1393  0.3317
  792MOL0     H 4525   3.857   7.260   2.127  0.2866 -0.6642 -3.8899
  792MOL0     H 4526   4.672   7.607   2.721 -3.2626 -0.8827 -2.8189
  792MOL0     H 4527   4.815   7.805   2.803  0.0564 -2.1884 -0.6583
  792MOL0     H 4528   5.117   8.139   2.924 -1.4958 -2.2521  0.3681
  792MOL0     H 4529   5.187   8.381   2.979 -0.2612  0.3716  0.7840
  792MOL0     H 4530   4.442   8.272   2.107  1.4123  0.0422 -0.3502
  792MOL0     H 4531   4.201   8.254   2.046 -0.3148  0.5550 -0.1929
  792MOL0     H 4532   3.922   7.865   1.881  0.6952  1.6117  0.7589
  792MOL0     H 4533   3.700   7.786   1.801 -1.1471 -0.0287  0.3225
  792MOL0     H 4534   3.346   8.069   1.838 -0.4394  0.6624  2.4893
  792MOL0     H 4535   3.346   7.976   1.986 -1.0098 -1.7766  0.5871
  792MOL0     H 4536   3.283   7.776   1.842  1.5071  0.9572 -1.8959
  792MOL0     H 4537   3.161   7.888   1.910 -0.7877 -0.8294 -0.2033
  792MOL0     H 4538   3.293   7.936   1.646  0.5842 -0.3803  1.1364
  792MOL0     H 4539   3.151   8.016   1.713 -0.3136  0.2395 -1.9685
  792MOL0     H 4540   3.090   7.873   1.531 -1.1283 -1.9089 -0.6766
  792MOL0     H 4541   3.175   7.729   1.598  0.1375  0.0341 -0.7527
  792MOL0     H 4542   2.805   7.752   1.815  0.8464  0.9691  1.6478
  792MOL0     H 4543   3.513   8.109   2.015 -0.5644  0.4593  1.2496
  792MOL0     H 4544   3.736   8.194   2.069  1.5246  1.1460 -2.4391
  793MOL0     O 4545   2.072   2.333   8.274 -1.2000 -0.1691 -0.4932
  793MOL0     C 4546   2.076   2.447   8.313 -0.2326  0.3194  0.6739
  793MOL0     O 4547   1.993   2.503   8.406  0.6085 -0.3909 -0.2802
  793MOL0     C 4548   1.878   2.445   8.442 -0.8342  0.5117 -0.6613
  793MOL0     C 4549   1.782   2.529   8.507 -0.2254 -0.1536 -0.5968
  793MOL0     C 4550   1.656   2.482   8.558 -0.3599 -0.4818 -0.5163
  793MOL0     C 4551   1.625   2.346   8.538  0.2424 -0.3266  0.3319
  793MOL0     O 4552   1.512   2.285   8.596  0.2134  0.1432  0.8025
  793MOL0     C 4553   1.381   2.347   8.566 -0.5466  0.1865  0.1105
  793MOL0     C 4554   1.273   2.246   8.530 -0.5474  0.1085 -0.1534
  793MOL0     C 4555   1.229   2.145   8.635 -0.7666  0.2139  1.2963
  793MOL0     C 4556   1.100   2.078   8.591  0.8474  0.1661  0.1733
  793MOL0     C 4557   1.074   1.946   8.661  0.3165 -0.1625 -0.4678
  793MOL0     C 4558   1.057   1.961   8.816  0.3553  0.1657 -0.5024
  793MOL0     C 4559   0.946   1.874   8.885 -0.8984 -0.1365  0.5632
  793MOL0     C 4560   0.799   1.901   8.844  0.4124 -1.1962 -0.1395
  793MOL0     N 4561   0.695   1.861   8.942  0.0281 -0.7339  0.6526
  793MOL0     C 4562   0.663   1.740   8.983  0.3409  0.2105  0.2912
  793MOL0     C 4563   0.571   1.750   9.082  1.0158 -0.4853 -0.7384
  793MOL0     C 4564   0.507   1.638   9.158  0.0557  0.2388 -0.5282
  793MOL0     C 4565   0.366   1.685   9.208  0.8564  0.3149 -0.2902
  793MOL0     C 4566   0.286   1.559   9.256  0.7946 -0.1435 -0.1095
  793MOL0     C 4567   0.347   1.504   9.385 -1.6483 -0.3799  0.2872
  793MOL0     O 4568   0.280   1.385   9.420 -0.0150  0.4054  0.4676
  793MOL0     C 4569   0.165   1.403   9.486  0.8463 -0.4597 -0.7053
  793MOL0     C 4570   0.107   1.528   9.513  0.1681 -0.0262 -0.7555
  793MOL0     C 4571  -0.019   1.538   9.584  0.0152  0.9925  0.6081
  793MOL0     C 4572  -0.087   1.425   9.631  0.3522 -0.1036  0.0274
  793MOL0     C 4573  -0.206   1.440   9.707  0.1816 -0.4242 -0.4922
  793MOL0     O 4574  -0.242   1.563   9.754  0.3392 -0.5174 -0.0154
  793MOL0     C 4575  -0.369   1.592   9.802  0.2693  0.3590  0.3228
  793MOL0     C 4576  -0.424   1.528   9.913 -0.0958  0.0722 -0.4039
  793MOL0     C 4577  -0.554   1.567   9.949  0.0024 -0.4568 -0.4058
  793MOL0     C 4578  -0.624   1.665   9.879  0.0403 -0.1774 -0.4549
  793MOL0     O 4579  -0.754   1.703   9.907 -0.2687  0.1350 -0.1355
  793MOL0     C 4580  -0.827   1.640  10.005  0.1825  0.3483  0.4817
  793MOL0     C 4581  -0.956   1.712  10.027  0.3930 -0.2188  0.9546
  793MOL0     C 4582  -1.040   1.654  10.138 -0.6620  0.2163 -0.4727
  793MOL0     C 4583  -1.172   1.736  10.136 -0.2939  0.3245 -0.1220
  793MOL0     C 4584  -1.219   1.786  10.268  0.3487  0.3923  0.1904
  793MOL0     C 4585  -1.359   1.834  10.266 -0.0099 -0.4221 -0.2923
  793MOL0     C 4586  -1.404   1.865  10.408  0.5067  0.1885 -0.3684
  793MOL0     C 4587  -1.561   1.874  10.423 -0.6023  0.1991  0.3370
  793MOL0    Cl 4588  -1.585   1.824  10.592  0.0346  0.3426 -0.1875
  793MOL0     C 4589  -0.565   1.731   9.772  0.4096 -0.1614 -1.0605
  793MOL0     C 4590  -0.432   1.700   9.733 -0.8166  0.3252 -0.3347
  793MOL0     O 4591  -0.271   1.341   9.716 -0.1958  0.1007 -0.2272
  793MOL0     C 4592  -0.023   1.305   9.602 -1.2184 -0.1975 -0.3012
  793MOL0     C 4593   0.094   1.290   9.528  0.1973  0.0281 -0.9531
  793MOL0     N 4594   0.551   1.890   9.094  0.7909  0.2919  0.7714
  793MOL0     N 4595   0.621   1.952   9.013  0.1401 -0.0569 -0.4456
  793MOL0     C 4596   1.733   2.264   8.494 -0.4379 -0.2042 -0.0853
  793MOL0     C 4597   1.853   2.308   8.446  0.5810  0.3572  0.0064
  793MOL0     C 4598   2.187   2.540   8.268 -0.9771 -0.4604  0.7967
  793MOL0     C 4599   2.161   2.680   8.273  0.4560 -0.0831  0.4392
  793MOL0     C 4600   2.252   2.771   8.223 -0.3528  0.4231 -0.3186
  793MOL0     C 4601   2.375   2.726   8.160  0.2335 -0.8160 -0.1028
  793MOL0     O 4602   2.451   2.821   8.111 -0.8306  0.0767  0.6219
  793MOL0     C 4603   2.553   2.800   8.011  0.1829  0.5519 -1.0888
  793MOL0     C 4604   2.687   2.805   8.083  0.4251 -0.2191 -0.1747
  793MOL0     C 4605   2.706   2.929   8.172  0.5378  0.1443  0.3333
  793MOL0     C 4606   2.816   2.931   8.277 -0.5774  0.4746  0.3660
  793MOL0     C 4607   2.952   2.907   8.222  0.2056 -0.0153 -0.0882
  793MOL0     C 4608   3.063   2.881   8.175  0.1244 -0.5032 -0.0167
  793MOL0     C 4609   2.396   2.588   8.151 -0.1447 -0.0405 -0.5195
  793MOL0     C 4610   2.307   2.496   8.215  0.1167  0.0862 -0.0122
  793MOL0     H 4611   1.814   2.630   8.532 -2.3122  0.3589  0.2546
  793MOL0     H 4612   1.588   2.545   8.614  0.7413 -0.4471  0.8410
  793MOL0     H 4613   1.391   2.419   8.485 -1.1741  1.6918  1.3279
  793MOL0     H 4614   1.358   2.396   8.661  1.7029  1.3551  0.1107
  793MOL0     H 4615   1.313   2.196   8.441  1.2473  3.0772 -1.1536
  793MOL0     H 4616   1.186   2.305   8.500  0.5144  2.3334  0.9102
  793MOL0     H 4617   1.224   2.180   8.738  1.1520  0.9908  1.1704
  793MOL0     H 4618   1.309   2.070   8.649 -0.3633  0.4968  0.6126
  793MOL0     H 4619   1.020   2.151   8.607  0.9446  0.2030  0.5082
  793MOL0     H 4620   1.098   2.046   8.487 -3.9204 -0.2756  0.1985
  793MOL0     H 4621   1.159   1.883   8.634  1.7874  0.7486  1.7782
  793MOL0     H 4622   0.988   1.896   8.617 -0.7670  0.7186  0.5602
  793MOL0     H 4623   1.037   2.066   8.840 -1.3109 -0.4444  1.0015
  793MOL0     H 4624   1.152   1.939   8.865  0.6253  0.4482 -0.8991
  793MOL0     H 4625   0.977   1.770   8.872 -1.3869 -0.0461 -1.8400
  793MOL0     H 4626   0.950   1.896   8.992  0.1754  2.1079  0.1240
  793MOL0     H 4627   0.786   1.855   8.746 -0.0740 -0.5818 -0.3631
  793MOL0     H 4628   0.801   2.010   8.845 -0.6286 -1.1452 -1.3609
  793MOL0     H 4629   0.705   1.645   8.951  0.8890  0.4375  0.3163
  793MOL0     H 4630   0.553   1.599   9.249 -0.6735 -0.4793 -0.4486
  793MOL0     H 4631   0.485   1.548   9.100 -1.6766  0.3667 -0.1522
  793MOL0     H 4632   0.307   1.741   9.134 -0.0878  0.7566  0.7550
  793MOL0     H 4633   0.383   1.752   9.293  2.1385  1.3242 -1.2963
  793MOL0     H 4634   0.179   1.574   9.273  0.5182 -1.3790 -0.6836
  793MOL0     H 4635   0.288   1.486   9.175  0.7868 -0.2795  0.0136
  793MOL0     H 4636   0.352   1.586   9.457 -1.3289  0.0935 -0.2613
  793MOL0     H 4637   0.452   1.475   9.374 -2.0725 -2.6782  1.5741
  793MOL0     H 4638   0.149   1.623   9.481  0.4440 -0.1170 -0.6663
  793MOL0     H 4639  -0.074   1.627   9.610  2.8447  2.0980  3.4511
  793MOL0     H 4640  -0.369   1.450   9.965 -2.0063  0.8011  3.0355
  793MOL0     H 4641  -0.601   1.503  10.023  2.4599 -2.4020 -0.3802
  793MOL0     H 4642  -0.767   1.641  10.097  1.6510  2.1505 -0.4442
  793MOL0     H 4643  -0.848   1.534   9.988  1.1423 -0.1986  2.4154
  793MOL0     H 4644  -1.009   1.692   9.934  2.0274 -0.9363  0.1451
  793MOL0     H 4645  -0.938   1.819  10.040  0.7972 -0.3446  1.4872
  793MOL0     H 4646  -0.991   1.669  10.235 -0.1949  2.5340 -0.9977
  793MOL0     H 4647  -1.045   1.547  10.115  1.3182  0.3446 -1.7418
  793MOL0     H 4648  -1.176   1.816  10.060 -1.0492 -1.9392 -2.6353
  793MOL0     H 4649  -1.252   1.670  10.099 -0.4998  0.2569  0.4283
  793MOL0     H 4650  -1.152   1.870  10.291  0.1853  0.6593 -0.2880
  793MOL0     H 4651  -1.212   1.711  10.347 -1.9542  1.2823  1.3662
  793MOL0     H 4652  -1.423   1.755  10.226  0.3664 -0.8105 -0.1385
  793MOL0     H 4653  -1.369   1.927  10.210 -1.8768  0.5961  1.5947
  793MOL0     H 4654  -1.374   1.780  10.470  1.9475 -0.2188 -1.5863
  793MOL0     H 4655  -1.352   1.943  10.465  0.0876 -0.4099  0.8796
  793MOL0     H 4656  -1.608   1.802  10.356  1.3596  0.8186 -1.8638
  793MOL0     H 4657  -1.599   1.974  10.404  2.6117  1.7293  1.1829
  793MOL0     H 4658  -0.622   1.814   9.731  1.0015  1.0434  0.4689
  793MOL0     H 4659  -0.382   1.759   9.657  1.1557  1.1314  1.4809
  793MOL0     H 4660  -0.066   1.212   9.638 -3.5286  0.6821 -0.6395
  793MOL0     H 4661   0.141   1.196   9.503 -0.0611 -1.6317  3.7998
  793MOL0     H 4662   1.712   2.159   8.482 -2.3898  0.3942 -2.5813
  793MOL0     H 4663   1.921   2.226   8.424 -2.2478 -1.3045 -3.6539
  793MOL0     H 4664   2.081   2.706   8.341 -0.0602  1.9346 -0.8295
  793MOL0     H 4665   2.250   2.879   8.232  1.3182  0.4195  0.5109
  793MOL0     H 4666   2.532   2.887   7.948 -1.4975  0.5502 -0.5896
  793MOL0     H 4667   2.537   2.714   7.946  2.0256 -1.0922  0.5137
  793MOL0     H 4668   2.704   2.726   8.157 -0.3054  0.7018  1.0076
  793MOL0     H 4669   2.759   2.799   8.001  0.6723  0.8928 -0.0543
  793MOL0     H 4670   2.613   2.946   8.227  0.9601 -0.3021  1.2119
  793MOL0     H 4671   2.726   3.019   8.114  3.4640 -0.6701 -0.0785
  793MOL0     H 4672   2.804   3.031   8.321 -1.3907  1.0147 -1.0112
  793MOL0     H 4673   2.791   2.844   8.339  1.6364 -1.5427 -1.4219
  793MOL0     H 4674   3.155   2.842   8.135  0.9171  2.8557 -1.8525
  793MOL0     H 4675   2.485   2.557   8.098 -0.5978 -0.0941 -1.2643
  793MOL0     H 4676   2.319   2.388   8.206 -0.9194 -0.2315  1.8248
  794MOL0     O 4677  10.644   8.000   2.206 -0.1938 -0.1175 -0.0692
  794MOL0     C 4678  10.549   7.939   2.155  0.1700 -0.9664 -0.2140
  794MOL0     O 4679  10.420   7.986   2.128 -0.7257 -0.7876 -0.8732
  794MOL0     C 4680  10.389   8.118   2.142 -0.2391 -0.7097 -0.3197
  794MOL0     C 4681  10.474   8.233   2.143  0.0982  0.0119  0.0634
  794MOL0     C 4682  10.423   8.360   2.168  0.2030  0.1606  0.6567
  794MOL0     C 4683  10.291   8.378   2.209  0.2889 -0.1349 -0.6017
  794MOL0     O 4684  10.249   8.499   2.262  0.0817  0.2716 -0.1366
  794MOL0     C 4685  10.114   8.557   2.268  0.5489 -0.2312 -0.8744
  794MOL0     C 4686  10.083   8.618   2.128 -0.0388  0.5070 -0.6995
  794MOL0     C 4687   9.997   8.525   2.046  0.4377  0.1140  0.4932
  794MOL0     C 4688   9.930   8.603   1.926 -0.8488 -0.3704  0.0137
  794MOL0     C 4689   9.847   8.520   1.821 -0.1916 -0.5903 -0.8797
  794MOL0     C 4690   9.705   8.457   1.874 -0.7987  0.1157 -0.3215
  794MOL0     C 4691   9.609   8.570   1.918  0.7693  0.4148  0.0897
  794MOL0     C 4692   9.460   8.526   1.908  0.0639 -0.0852  0.6778
  794MOL0     N 4693   9.442   8.424   2.003  0.0188  0.0685 -0.7382
  794MOL0     C 4694   9.436   8.447   2.140  1.3821  0.7447 -0.4137
  794MOL0     C 4695   9.414   8.322   2.190  0.1085 -1.0374 -0.6567
  794MOL0     C 4696   9.396   8.277   2.329  0.5294  0.0653 -0.2099
  794MOL0     C 4697   9.245   8.270   2.372 -0.4201  0.6014  0.0760
  794MOL0     C 4698   9.180   8.413   2.369  0.1726 -0.4945  0.1735
  794MOL0     C 4699   9.042   8.416   2.446 -1.1414 -0.4572 -0.5415
  794MOL0     O 4700   8.969   8.312   2.383 -0.0593  0.0447  0.6364
  794MOL0     C 4701   8.830   8.318   2.396 -0.3086 -0.0055  0.1410
  794MOL0     C 4702   8.753   8.329   2.280  0.0776  0.3723 -0.1052
  794MOL0     C 4703   8.614   8.327   2.282 -0.7355  0.5763 -0.3950
  794MOL0     C 4704   8.554   8.316   2.407 -0.2037  0.2524  0.3067
  794MOL0     C 4705   8.405   8.311   2.423 -0.0383  0.5112 -0.2772
  794MOL0     O 4706   8.360   8.296   2.545 -0.3407 -0.0363  0.0914
  794MOL0     C 4707   8.230   8.299   2.584 -0.0723  0.0639  0.3975
  794MOL0     C 4708   8.195   8.197   2.685 -0.1231 -0.8063 -0.0875
  794MOL0     C 4709   8.068   8.203   2.732  0.5638  0.3942  0.3872
  794MOL0     C 4710   7.964   8.285   2.684  0.1844 -0.0593 -0.4416
  794MOL0     O 4711   7.834   8.272   2.719 -0.7360 -0.0296  0.2501
  794MOL0     C 4712   7.783   8.401   2.762 -0.0213 -0.1656  0.4027
  794MOL0     C 4713   7.643   8.375   2.821 -0.4245  0.4569 -0.2082
  794MOL0     C 4714   7.557   8.503   2.858  0.9537  0.0484  0.4520
  794MOL0     C 4715   7.411   8.462   2.874  0.5483  0.6482  0.0967
  794MOL0     C 4716   7.324   8.460   2.746  0.1503 -0.0452 -0.2706
  794MOL0     C 4717   7.304   8.601   2.685 -0.0671  0.3057  0.1714
  794MOL0     C 4718   7.193   8.606   2.578  0.5439  0.9531 -0.4338
  794MOL0     C 4719   7.196   8.740   2.514 -0.4607  0.2401 -0.7274
  794MOL0    Cl 4720   7.185   8.876   2.632 -0.0204 -0.4626  0.1828
  794MOL0     C 4721   8.000   8.372   2.583 -0.2250  0.0158 -0.3035
  794MOL0     C 4722   8.132   8.384   2.536  1.2568 -0.3694 -0.8252
  794MOL0     O 4723   8.336   8.311   2.321  0.4490  0.0486 -1.0087
  794MOL0     C 4724   8.633   8.295   2.526  0.1932  0.2255  0.1813
  794MOL0     C 4725   8.769   8.287   2.516 -0.5942 -0.9206 -0.4717
  794MOL0     N 4726   9.408   8.238   2.086 -0.6618  0.4163 -0.0889
  794MOL0     N 4727   9.418   8.295   1.974  0.3174  0.1044 -0.4608
  794MOL0     C 4728  10.204   8.274   2.215 -0.5701 -0.2835 -0.5937
  794MOL0     C 4729  10.254   8.145   2.183 -0.3471 -0.2517 -0.0475
  794MOL0     C 4730  10.574   7.797   2.133 -0.4551 -0.0692  0.0656
  794MOL0     C 4731  10.705   7.742   2.138 -0.0425 -0.3869  1.0722
  794MOL0     C 4732  10.715   7.607   2.108 -0.2557  0.2454  0.1384
  794MOL0     C 4733  10.607   7.526   2.081 -0.0784 -0.2267  1.0154
  794MOL0     O 4734  10.637   7.400   2.042  0.3551 -0.4812  0.6562
  794MOL0     C 4735  10.640   7.372   1.898  0.1375  0.0866 -1.2307
  794MOL0     C 4736  10.534   7.263   1.863  0.1501 -0.4243 -0.5411
  794MOL0     C 4737  10.544   7.215   1.724 -0.0846  0.6774 -0.0459
  794MOL0     C 4738  10.684   7.152   1.683  0.0920  0.3226 -0.5704
  794MOL0     C 4739  10.703   7.010   1.732 -1.2047 -0.1597  0.5288
  794MOL0     C 4740  10.726   6.893   1.756 -0.0727  0.4566 -0.5638
  794MOL0     C 4741  10.486   7.577   2.083  1.1781  0.6841  1.3115
  794MOL0     C 4742  10.463   7.708   2.112  0.1350  0.4820  0.5040
  794MOL0     H 4743  10.579   8.238   2.115 -0.0801  3.1672 -0.3250
  794MOL0     H 4744  10.487   8.447   2.165 -0.6435  0.7673 -0.7412
  794MOL0     H 4745  10.121   8.644   2.334  0.6382 -1.6597  1.0726
  794MOL0     H 4746  10.033   8.495   2.309 -1.2332  1.1151 -2.1916
  794MOL0     H 4747  10.178   8.649   2.082  1.2240 -1.0293  0.7513
  794MOL0     H 4748  10.020   8.706   2.144  0.4476  0.7374  0.0075
  794MOL0     H 4749   9.913   8.487   2.104 -0.2305  0.6768 -0.0781
  794MOL0     H 4750  10.057   8.439   2.012  0.1507 -0.3206  1.0780
  794MOL0     H 4751   9.872   8.685   1.970 -0.8223 -0.7292  0.7330
  794MOL0     H 4752  10.010   8.650   1.869  0.8848 -2.1961  0.8333
  794MOL0     H 4753   9.904   8.434   1.787  1.0830 -0.6813  1.3382
  794MOL0     H 4754   9.830   8.580   1.730  0.7423 -0.5340 -1.0259
  794MOL0     H 4755   9.722   8.389   1.958 -3.4304 -1.3688 -0.8962
  794MOL0     H 4756   9.660   8.393   1.798  1.9674 -1.5267 -0.7225
  794MOL0     H 4757   9.636   8.626   2.008  3.5759 -0.9074  0.1536
  794MOL0     H 4758   9.616   8.641   1.835  0.7489  0.0798 -0.2000
  794MOL0     H 4759   9.420   8.501   1.809  3.1303 -0.9354 -0.4641
  794MOL0     H 4760   9.404   8.606   1.956  1.2418 -0.3261  2.5279
  794MOL0     H 4761   9.430   8.535   2.202  0.1714  0.6208 -0.3272
  794MOL0     H 4762   9.446   8.341   2.402 -1.7824 -0.0245  1.5846
  794MOL0     H 4763   9.439   8.177   2.341 -1.4679 -0.6448  1.8980
  794MOL0     H 4764   9.244   8.217   2.468  1.2043 -1.8316 -1.1317
  794MOL0     H 4765   9.189   8.212   2.298  0.6856 -0.2807 -0.0952
  794MOL0     H 4766   9.241   8.479   2.431  0.1979  0.4371 -0.7995
  794MOL0     H 4767   9.165   8.449   2.267  1.6607  2.5330  0.9211
  794MOL0     H 4768   8.999   8.514   2.426  0.2556  0.1682 -0.6198
  794MOL0     H 4769   9.055   8.409   2.554 -0.8176 -0.0866 -0.5518
  794MOL0     H 4770   8.815   8.340   2.191 -1.0917  0.7331 -0.9088
  794MOL0     H 4771   8.554   8.346   2.194 -0.6555  0.2688 -0.5186
  794MOL0     H 4772   8.266   8.123   2.721  0.7511  0.5686  1.1169
  794MOL0     H 4773   8.042   8.142   2.818  1.4951 -0.0241  0.3858
  794MOL0     H 4774   7.775   8.478   2.685  0.3010  2.7321  3.0315
  794MOL0     H 4775   7.848   8.446   2.838  0.8876 -1.5293  0.4727
  794MOL0     H 4776   7.656   8.321   2.915 -0.0506  2.1573  0.7515
  794MOL0     H 4777   7.581   8.322   2.748 -0.4011 -0.9922  0.7835
  794MOL0     H 4778   7.564   8.584   2.784 -0.4829  0.5720  0.8608
  794MOL0     H 4779   7.599   8.537   2.953  0.8869 -0.9665  0.8546
  794MOL0     H 4780   7.403   8.362   2.916 -0.8938  0.4041 -0.7157
  794MOL0     H 4781   7.372   8.530   2.950 -3.2821 -0.1354 -0.9716
  794MOL0     H 4782   7.226   8.416   2.764  0.2187 -0.7379 -1.4966
  794MOL0     H 4783   7.372   8.402   2.667 -1.5830 -0.8910 -0.7558
  794MOL0     H 4784   7.392   8.644   2.637 -0.3724  0.9558  0.1798
  794MOL0     H 4785   7.273   8.661   2.771 -2.2192  0.5367 -0.6988
  794MOL0     H 4786   7.204   8.523   2.508 -3.1403  0.2319 -0.3314
  794MOL0     H 4787   7.096   8.587   2.622  0.7644  0.1158 -0.3077
  794MOL0     H 4788   7.109   8.752   2.449 -2.3019  0.5156  1.6251
  794MOL0     H 4789   7.288   8.751   2.456  0.1774 -0.0011  0.2123
  794MOL0     H 4790   7.921   8.419   2.527 -0.7922  0.6880  1.0034
  794MOL0     H 4791   8.151   8.449   2.452 -0.1027  1.6442  0.3183
  794MOL0     H 4792   8.590   8.256   2.617  4.0734 -2.9786  0.9152
  794MOL0     H 4793   8.833   8.275   2.604  1.1189 -0.1458 -1.5528
  794MOL0     H 4794  10.105   8.286   2.259  0.7127 -2.3521  3.3462
  794MOL0     H 4795  10.183   8.063   2.185  0.8839 -1.3397 -0.3753
  794MOL0     H 4796  10.791   7.807   2.155 -1.1393  1.6257 -0.6687
  794MOL0     H 4797  10.812   7.559   2.106 -0.5378 -0.3086 -1.3126
  794MOL0     H 4798  10.739   7.339   1.867  0.8563 -0.5525  1.4811
  794MOL0     H 4799  10.615   7.459   1.838 -0.3869 -0.2178 -1.4629
  794MOL0     H 4800  10.542   7.180   1.934 -1.7381 -0.0351  0.1871
  794MOL0     H 4801  10.439   7.313   1.883 -0.3665 -1.7329  0.3984
  794MOL0     H 4802  10.528   7.302   1.659  0.4918 -0.1915 -1.3729
  794MOL0     H 4803  10.458   7.149   1.713 -0.1004  0.5447  0.8233
  794MOL0     H 4804  10.691   7.143   1.574  1.2389 -1.3086 -0.3986
  794MOL0     H 4805  10.766   7.215   1.716 -1.0323  1.9095 -0.6833
  794MOL0     H 4806  10.735   6.787   1.770  0.8063  0.5921 -0.0117
  794MOL0     H 4807  10.411   7.504   2.054 -0.3565  2.9693 -0.8878
  794MOL0     H 4808  10.367   7.759   2.107  0.4716  1.3454  2.1889
  795MOL0     O 4809   3.762   7.069   7.236 -0.7318  0.6146  0.3548
  795MOL0     C 4810   3.770   6.960   7.303  0.7877 -1.3072  0.6661
  795MOL0     O 4811   3.687   6.858   7.299  0.0027  0.2581 -0.3034
  795MOL0     C 4812   3.558   6.881   7.268  0.0222 -0.1300  0.1904
  795MOL0     C 4813   3.500   6.784   7.179 -0.5478  0.5157  0.1372
  795MOL0     C 4814   3.376   6.807   7.140  0.5728  0.1679  0.4583
  795MOL0     C 4815   3.297   6.912   7.186 -0.2022  0.8121 -0.5515
  795MOL0     O 4816   3.172   6.922   7.132  0.0721  1.0246  0.0261
  795MOL0     C 4817   3.087   7.040   7.155  0.0248  0.5070 -0.6688
  795MOL0     C 4818   2.939   6.999   7.142  0.0467  1.3052 -0.7446
  795MOL0     C 4819   2.892   6.949   7.006  0.3167 -0.0755 -0.0745
  795MOL0     C 4820   2.846   7.068   6.919  0.2719  0.1495  0.0307
  795MOL0     C 4821   2.776   7.023   6.794  0.5307 -0.1934 -0.2862
  795MOL0     C 4822   2.719   7.151   6.727  0.4038  0.5584  0.0638
  795MOL0     C 4823   2.645   7.119   6.595  0.2277 -0.4417 -1.0468
  795MOL0     C 4824   2.529   7.028   6.625 -0.7341  0.2136 -0.6484
  795MOL0     N 4825   2.440   7.016   6.513  0.3510 -0.4272 -0.3237
  795MOL0     C 4826   2.341   7.111   6.486 -0.3039  0.2079 -0.0189
  795MOL0     C 4827   2.282   7.074   6.372  0.2632  0.3374 -0.1706
  795MOL0     C 4828   2.178   7.148   6.292  0.3360  0.8600 -0.2221
  795MOL0     C 4829   2.180   7.299   6.315 -0.1709  0.7459  0.4038
  795MOL0     C 4830   2.073   7.365   6.226 -0.1575 -0.0579  0.5026
  795MOL0     C 4831   1.976   7.448   6.318 -0.4965 -0.2561  0.6292
  795MOL0     O 4832   1.888   7.522   6.234  0.1820 -0.2215 -0.1462
  795MOL0     C 4833   1.789   7.451   6.170  0.8688  0.1615 -0.7739
  795MOL0     C 4834   1.744   7.319   6.166 -0.6793  0.5901  0.3376
  795MOL0     C 4835   1.637   7.270   6.093 -0.4952  0.6440 -0.0894
  795MOL0     C 4836   1.550   7.355   6.021  0.4739 -0.3022  0.2942
  795MOL0     C 4837   1.435   7.293   5.945 -0.0287 -0.0167  0.2102
  795MOL0     O 4838   1.385   7.374   5.844  0.3853 -0.0901 -0.5287
  795MOL0     C 4839   1.279   7.338   5.766  0.0329  0.3525  0.7280
  795MOL0     C 4840   1.291   7.375   5.631 -0.4631 -0.2793 -0.8426
  795MOL0     C 4841   1.185   7.362   5.543 -0.0984 -0.3317  0.0904
  795MOL0     C 4842   1.068   7.303   5.591 -0.3410  0.1230  0.2534
  795MOL0     O 4843   0.955   7.279   5.520 -0.2227 -0.3733 -0.5707
  795MOL0     C 4844   0.936   7.344   5.390  0.8510 -0.4802 -0.5811
  795MOL0     C 4845   0.798   7.308   5.341 -0.5599  0.1296 -0.2119
  795MOL0     C 4846   0.694   7.382   5.421  0.3415 -0.2780 -0.2122
  795MOL0     C 4847   0.552   7.334   5.367 -0.4064 -0.2051  0.1847
  795MOL0     C 4848   0.447   7.386   5.467 -0.9076 -0.0603  0.6100
  795MOL0     C 4849   0.298   7.353   5.435  0.5325  0.8631 -0.0825
  795MOL0     C 4850   0.271   7.425   5.303  0.0471 -0.3746  0.6563
  795MOL0     C 4851   0.130   7.422   5.252  0.5791 -0.1733  0.1860
  795MOL0    Cl 4852   0.013   7.483   5.365  0.4429  0.2270  0.4948
  795MOL0     C 4853   1.054   7.261   5.720 -0.8931 -0.0594 -0.5492
  795MOL0     C 4854   1.159   7.284   5.807 -0.4132  0.3772 -0.8840
  795MOL0     O 4855   1.384   7.188   5.976 -0.8766 -0.1468  0.2456
  795MOL0     C 4856   1.592   7.495   6.023 -0.0128 -0.0419 -0.6580
  795MOL0     C 4857   1.710   7.539   6.097  0.6660  0.0901  0.7474
  795MOL0     N 4858   2.346   6.952   6.337  0.0252  0.8542  0.3091
  795MOL0     N 4859   2.431   6.920   6.421 -0.8716 -0.4737  0.5920
  795MOL0     C 4860   3.354   7.008   7.270  0.2879  0.2019  0.4591
  795MOL0     C 4861   3.480   6.993   7.318  0.2159 -0.0808 -0.1874
  795MOL0     C 4862   3.877   6.942   7.402 -0.6497  0.2553  0.8426
  795MOL0     C 4863   3.952   7.052   7.450  0.4014 -0.3076  0.7426
  795MOL0     C 4864   4.069   7.038   7.525 -0.1738 -0.3892 -0.5777
  795MOL0     C 4865   4.115   6.904   7.557  0.7990  0.4072  0.1054
  795MOL0     O 4866   4.231   6.868   7.632  0.2784 -0.3774  0.6844
  795MOL0     C 4867   4.354   6.925   7.594 -0.7173 -0.1364  1.6190
  795MOL0     C 4868   4.405   6.865   7.460 -0.0476 -0.6220 -0.4274
  795MOL0     C 4869   4.415   6.713   7.458  0.3425  0.2777 -0.1616
  795MOL0     C 4870   4.511   6.661   7.352 -0.6164 -0.4879  0.2271
  795MOL0     C 4871   4.523   6.514   7.380  0.0609  0.1634  0.1307
  795MOL0     C 4872   4.525   6.393   7.405 -0.3716  0.1663 -0.4609
  795MOL0     C 4873   4.038   6.798   7.517  0.6890  0.6618 -0.6809
  795MOL0     C 4874   3.918   6.808   7.449  1.0216 -0.9871  0.2159
  795MOL0     H 4875   3.547   6.704   7.123 -2.9717 -1.3169  0.5332
  795MOL0     H 4876   3.332   6.746   7.061  1.7302  1.4372 -1.2444
  795MOL0     H 4877   3.104   7.116   7.078  0.1968  1.3309  0.1720
  795MOL0     H 4878   3.095   7.080   7.256  0.3844  0.3891 -0.6495
  795MOL0     H 4879   2.879   7.086   7.170 -0.9043  0.8648 -1.3830
  795MOL0     H 4880   2.922   6.921   7.217 -0.2533  4.1762  2.4699
  795MOL0     H 4881   2.805   6.885   7.022  0.3163  0.4076  2.1887
  795MOL0     H 4882   2.968   6.879   6.970 -1.1261 -1.7084 -0.0533
  795MOL0     H 4883   2.778   7.126   6.982  0.0083  0.1249 -0.2301
  795MOL0     H 4884   2.923   7.143   6.897  0.9763  0.6879  3.6637
  795MOL0     H 4885   2.697   6.949   6.811  0.0824 -0.0437 -1.6295
  795MOL0     H 4886   2.845   6.977   6.723 -0.6075  1.5364 -2.6467
  795MOL0     H 4887   2.797   7.224   6.705 -0.1359  0.7717 -1.2345
  795MOL0     H 4888   2.646   7.197   6.794 -0.8577 -1.0288 -0.1569
  795MOL0     H 4889   2.604   7.214   6.558 -2.2318 -0.1401  2.0272
  795MOL0     H 4890   2.721   7.076   6.529  1.7817 -0.6648  0.7850
  795MOL0     H 4891   2.470   7.067   6.708 -0.5046 -1.1934  0.1973
  795MOL0     H 4892   2.566   6.927   6.645  1.6261  0.2826 -3.8505
  795MOL0     H 4893   2.302   7.196   6.541 -3.1569 -0.8342 -0.2705
  795MOL0     H 4894   2.082   7.113   6.332  1.2057  1.9005  3.0955
  795MOL0     H 4895   2.182   7.119   6.187  1.0668  0.0310  0.0162
  795MOL0     H 4896   2.278   7.344   6.302  0.1499  0.3610  1.4380
  795MOL0     H 4897   2.160   7.313   6.422  1.7514  0.6644  0.8041
  795MOL0     H 4898   2.121   7.427   6.150 -3.1373 -0.1319 -1.5939
  795MOL0     H 4899   2.019   7.291   6.166 -0.4142  0.3564  0.2198
  795MOL0     H 4900   2.037   7.515   6.380  0.8808 -1.3498  0.5061
  795MOL0     H 4901   1.912   7.391   6.386  1.3518 -1.2699  1.5893
  795MOL0     H 4902   1.789   7.246   6.232 -4.0271 -1.4311  0.5791
  795MOL0     H 4903   1.606   7.167   6.102  1.3719 -0.2721 -2.7519
  795MOL0     H 4904   1.380   7.428   5.598  2.1733 -1.9909  2.9059
  795MOL0     H 4905   1.189   7.405   5.443  0.3800 -0.2359  0.1515
  795MOL0     H 4906   1.013   7.314   5.318  2.2901  3.1101 -0.7625
  795MOL0     H 4907   0.947   7.452   5.402  1.7227 -0.5128 -1.0111
  795MOL0     H 4908   0.777   7.201   5.340 -0.3116  0.0807 -1.4285
  795MOL0     H 4909   0.781   7.344   5.239 -1.6270 -1.6229 -0.6943
  795MOL0     H 4910   0.706   7.491   5.426 -0.6062 -0.2306  2.2514
  795MOL0     H 4911   0.716   7.352   5.524  0.9444  1.4715  0.2060
  795MOL0     H 4912   0.543   7.383   5.269  2.4580  0.0405 -0.0305
  795MOL0     H 4913   0.559   7.226   5.349  4.3500 -0.0910  0.0275
  795MOL0     H 4914   0.466   7.494   5.471 -2.5395  0.2130  2.5336
  795MOL0     H 4915   0.462   7.350   5.569 -2.6019 -0.3894  0.7665
  795MOL0     H 4916   0.219   7.380   5.506 -3.2452 -1.4961 -3.0002
  795MOL0     H 4917   0.294   7.246   5.416  1.7500  0.7366  0.2659
  795MOL0     H 4918   0.295   7.529   5.328  1.3751 -0.9495  1.9240
  795MOL0     H 4919   0.332   7.390   5.219 -1.7653 -4.5877  0.8674
  795MOL0     H 4920   0.099   7.319   5.231 -0.8930  0.2916 -0.0354
  795MOL0     H 4921   0.114   7.471   5.155  3.4864 -0.7577 -0.6777
  795MOL0     H 4922   0.965   7.214   5.760 -0.1346 -0.7163  0.4064
  795MOL0     H 4923   1.150   7.256   5.911 -2.6107  0.7334 -0.9290
  795MOL0     H 4924   1.547   7.564   5.953  0.8512  0.4951 -0.7059
  795MOL0     H 4925   1.736   7.641   6.071  0.0537 -0.1155 -0.7698
  795MOL0     H 4926   3.293   7.093   7.299  0.4304  0.2449  0.6379
  795MOL0     H 4927   3.523   7.073   7.377 -1.6176  2.0616 -1.5946
  795MOL0     H 4928   3.939   7.152   7.410  1.4438 -0.6729 -0.6171
  795MOL0     H 4929   4.122   7.128   7.554  2.2822 -1.9593  0.1646
  795MOL0     H 4930   4.424   6.917   7.677 -0.1201 -1.1704  1.0359
  795MOL0     H 4931   4.351   7.033   7.579  0.5591  0.2063  3.5186
  795MOL0     H 4932   4.347   6.883   7.369 -1.4455 -1.0251  0.3456
  795MOL0     H 4933   4.507   6.902   7.451  0.0682 -0.4592  1.2093
  795MOL0     H 4934   4.318   6.669   7.436  0.6567  0.2264 -1.5194
  795MOL0     H 4935   4.446   6.681   7.558  0.1804  0.6478  0.0087
  795MOL0     H 4936   4.478   6.669   7.248 -1.1794 -2.7078  0.1788
  795MOL0     H 4937   4.610   6.704   7.369  0.4009 -2.4535 -0.3849
  795MOL0     H 4938   4.527   6.288   7.426  2.4040  0.3475  0.5737
  795MOL0     H 4939   4.083   6.702   7.540  0.6522  0.8214  0.0669
  795MOL0     H 4940   3.861   6.723   7.414  0.0333 -0.2393 -0.0528
  796MOL0     O 4941   1.993   4.308   0.308  0.4366 -0.3232 -0.0181
  796MOL0     C 4942   1.974   4.392   0.219  0.2910 -0.0700  0.1741
  796MOL0     O 4943   1.863   4.421   0.158 -0.2372 -0.0503  0.1880
  796MOL0     C 4944   1.742   4.412   0.218 -0.1378  0.5478  0.6945
  796MOL0     C 4945   1.707   4.380   0.350  0.3317 -0.3157 -0.0205
  796MOL0     C 4946   1.570   4.371   0.383 -0.2127  0.5166  0.0164
  796MOL0     C 4947   1.467   4.394   0.287  0.1982 -0.1381 -0.2863
  796MOL0     O 4948   1.328   4.376   0.308 -0.0387 -0.0863 -0.1096
  796MOL0     C 4949   1.297   4.266   0.390 -0.2463 -0.1662 -0.6937
  796MOL0     C 4950   1.150   4.264   0.408 -0.5623  1.0983  0.2640
  796MOL0     C 4951   1.082   4.386   0.470  0.6046  0.8508  0.1990
  796MOL0     C 4952   0.942   4.336   0.515  0.9682 -0.0488  0.1889
  796MOL0     C 4953   0.887   4.442   0.610 -0.5705  0.2157  0.3922
  796MOL0     C 4954   0.861   4.586   0.549 -0.5631 -0.7331 -0.1392
  796MOL0     C 4955   0.732   4.649   0.608  0.0116  0.8965  0.5034
  796MOL0     C 4956   0.718   4.626   0.758 -0.2891  0.7013 -0.7256
  796MOL0     N 4957   0.665   4.742   0.818 -0.0876 -1.0423  0.0835
  796MOL0     C 4958   0.723   4.866   0.838 -0.3804  1.0899 -0.2882
  796MOL0     C 4959   0.663   4.935   0.940 -0.1083  0.0275  0.1628
  796MOL0     C 4960   0.681   5.061   1.006 -0.1334 -1.3035 -0.1612
  796MOL0     C 4961   0.561   5.152   0.980  0.0994 -0.2557  0.1388
  796MOL0     C 4962   0.599   5.301   1.002 -0.1645 -0.7717  0.0369
  796MOL0     C 4963   0.654   5.341   1.140  0.0692  0.2383  0.1483
  796MOL0     O 4964   0.594   5.278   1.250 -0.2885 -0.2982 -0.1053
  796MOL0     C 4965   0.471   5.310   1.296 -0.0486 -0.2735 -0.8120
  796MOL0     C 4966   0.411   5.228   1.388 -0.3154 -0.5022 -0.1110
  796MOL0     C 4967   0.275   5.252   1.428 -0.6036  0.5694 -0.0227
  796MOL0     C 4968   0.197   5.346   1.369 -0.5426  0.2125 -0.5165
  796MOL0     C 4969   0.064   5.380   1.426 -0.6049 -0.2372  0.3702
  796MOL0     O 4970  -0.004   5.478   1.359 -0.1696 -0.2191 -0.1839
  796MOL0     C 4971  -0.133   5.503   1.387  0.8435 -0.1800 -0.3560
  796MOL0     C 4972  -0.238   5.412   1.402  0.8583  0.0227  0.2820
  796MOL0     C 4973  -0.376   5.444   1.412 -0.9150 -0.6978 -0.4161
  796MOL0     C 4974  -0.406   5.582   1.427 -0.0285  0.1292  0.8135
  796MOL0     O 4975  -0.536   5.616   1.426  0.6539  1.0694 -0.3345
  796MOL0     C 4976  -0.581   5.749   1.448 -0.0988 -0.2994 -0.0450
  796MOL0     C 4977  -0.736   5.752   1.450 -0.3034  0.4644 -0.5930
  796MOL0     C 4978  -0.788   5.896   1.439  0.6970 -0.2333  0.3679
  796MOL0     C 4979  -0.940   5.907   1.443  1.4966 -0.4110  0.8837
  796MOL0     C 4980  -0.980   6.054   1.422 -0.2209 -0.2597  0.6676
  796MOL0     C 4981  -1.126   6.054   1.409 -0.0741  0.8853 -0.6349
  796MOL0     C 4982  -1.180   6.194   1.399  0.0993  0.5217  0.3309
  796MOL0     C 4983  -1.334   6.198   1.373 -0.0027  0.2921 -0.8920
  796MOL0    Cl 4984  -1.386   6.362   1.329  0.2694  0.0882  0.6030
  796MOL0     C 4985  -0.302   5.677   1.420 -1.1970 -0.1057  0.7869
  796MOL0     C 4986  -0.163   5.638   1.402  0.5311  0.5297 -0.4871
  796MOL0     O 4987   0.031   5.318   1.524 -0.1695 -0.1446  0.5671
  796MOL0     C 4988   0.260   5.423   1.271 -0.2630  0.5875 -1.0760
  796MOL0     C 4989   0.394   5.414   1.242  0.7267  0.2413 -0.3571
  796MOL0     N 4990   0.556   4.848   0.978 -1.7170  0.1450 -0.5054
  796MOL0     N 4991   0.557   4.745   0.903 -0.1117 -0.1424  0.5204
  796MOL0     C 4992   1.499   4.431   0.159 -0.0139  0.5528 -1.0442
  796MOL0     C 4993   1.638   4.445   0.126  0.1707  0.4509 -0.4552
  796MOL0     C 4994   2.094   4.473   0.173 -0.0850  0.3517  0.3136
  796MOL0     C 4995   2.093   4.547   0.054  0.1275 -0.1151 -0.0696
  796MOL0     C 4996   2.208   4.602  -0.001 -0.7220  0.5821 -0.8767
  796MOL0     C 4997   2.335   4.585   0.059  0.0625 -0.0314 -0.4146
  796MOL0     O 4998   2.442   4.642   0.005  0.0861  0.2552 -0.5400
  796MOL0     C 4999   2.577   4.610   0.051  0.3060  0.6190  0.2695
  796MOL0     C 5000   2.663   4.684  -0.047 -0.0790 -1.1846  0.1744
  796MOL0     C 5001   2.678   4.837  -0.014  0.2149  0.0323  0.0605
  796MOL0     C 5002   2.786   4.906  -0.100  0.6600 -0.6136  0.4743
  796MOL0     C 5003   2.739   4.927  -0.236 -0.6141  0.0301 -0.5239
  796MOL0     C 5004   2.685   4.941  -0.339 -0.7352 -0.5438  0.1188
  796MOL0     C 5005   2.333   4.524   0.178  0.0363 -0.0147  0.5415
  796MOL0     C 5006   2.220   4.463   0.241  0.1936 -0.0856  0.1014
  796MOL0     H 5007   1.784   4.362   0.425  1.3531  0.4042 -0.8563
  796MOL0     H 5008   1.560   4.346   0.488  1.9033  0.9421  0.3715
  796MOL0     H 5009   1.349   4.274   0.486  2.0216  0.7012 -1.9313
  796MOL0     H 5010   1.332   4.175   0.341  2.5773  0.3541  0.1440
  796MOL0     H 5011   1.135   4.165   0.450  2.8504 -0.6133 -2.0487
  796MOL0     H 5012   1.105   4.244   0.310 -1.0182 -0.9831  0.8636
  796MOL0     H 5013   1.072   4.461   0.392 -1.1721  0.7625  0.3069
  796MOL0     H 5014   1.138   4.429   0.554  0.3170  3.7376 -0.9697
  796MOL0     H 5015   0.866   4.325   0.437  1.4255 -0.1278 -0.2476
  796MOL0     H 5016   0.960   4.237   0.559 -0.8841 -0.6759 -0.3648
  796MOL0     H 5017   0.956   4.445   0.695  0.2934 -1.6582 -0.1827
  796MOL0     H 5018   0.792   4.400   0.645 -2.1527  0.8038 -2.8350
  796MOL0     H 5019   0.850   4.588   0.440  2.0422  1.3675 -0.4645
  796MOL0     H 5020   0.945   4.655   0.563 -0.9973 -0.1949 -0.1740
  796MOL0     H 5021   0.737   4.758   0.601 -0.7517  0.9789  1.0780
  796MOL0     H 5022   0.644   4.602   0.565  0.6644 -0.4833  0.6139
  796MOL0     H 5023   0.805   4.598   0.817 -0.2141  1.8651 -0.2577
  796MOL0     H 5024   0.656   4.540   0.785  2.1497 -0.0714  3.2238
  796MOL0     H 5025   0.802   4.908   0.777  0.2815  3.7065  2.2028
  796MOL0     H 5026   0.765   5.108   0.955 -0.7669 -0.0074 -0.0259
  796MOL0     H 5027   0.707   5.040   1.110  0.8730 -1.0120 -0.3414
  796MOL0     H 5028   0.480   5.122   1.046 -0.8137 -0.4138 -1.0127
  796MOL0     H 5029   0.526   5.134   0.878  1.0190 -1.0994 -0.0501
  796MOL0     H 5030   0.677   5.334   0.932  0.5221  0.5035  1.3459
  796MOL0     H 5031   0.505   5.353   0.982 -0.9687 -2.5681 -1.1432
  796MOL0     H 5032   0.649   5.449   1.153  1.8594  0.3159  0.3312
  796MOL0     H 5033   0.758   5.312   1.156  0.4822  2.0849  0.9978
  796MOL0     H 5034   0.458   5.145   1.440 -0.6570 -1.0821 -0.7106
  796MOL0     H 5035   0.239   5.187   1.506 -0.5216  2.2144  1.4515
  796MOL0     H 5036  -0.207   5.308   1.400  1.7927  0.2303  2.0325
  796MOL0     H 5037  -0.449   5.364   1.418 -1.3223 -0.3044 -0.0552
  796MOL0     H 5038  -0.557   5.803   1.357 -2.1645 -2.1792 -1.8168
  796MOL0     H 5039  -0.535   5.797   1.535 -0.7376 -0.2389  0.2629
  796MOL0     H 5040  -0.762   5.704   1.544  0.0930  3.6537  1.2727
  796MOL0     H 5041  -0.788   5.683   1.383  1.0883 -1.6852  0.4558
  796MOL0     H 5042  -0.747   5.929   1.343 -0.0298 -2.4967 -0.7949
  796MOL0     H 5043  -0.744   5.961   1.515  1.4997 -1.9601  1.4507
  796MOL0     H 5044  -0.980   5.855   1.355 -0.6799 -1.5972  2.4607
  796MOL0     H 5045  -0.998   5.878   1.531 -2.4991  1.7717 -0.7261
  796MOL0     H 5046  -0.929   6.094   1.335 -2.7014  1.6413 -0.0014
  796MOL0     H 5047  -0.946   6.108   1.511  1.9351  0.7304 -0.6856
  796MOL0     H 5048  -1.167   6.013   1.502  2.0082  1.7635  0.7572
  796MOL0     H 5049  -1.161   5.997   1.323 -0.5933  1.1920 -0.6279
  796MOL0     H 5050  -1.161   6.258   1.485 -1.0297  1.9434 -0.4230
  796MOL0     H 5051  -1.133   6.244   1.313  0.4649  0.4185  0.4692
  796MOL0     H 5052  -1.369   6.182   1.476 -0.1213 -1.1993 -1.1335
  796MOL0     H 5053  -1.369   6.118   1.307  1.3082 -1.6420  0.6168
  796MOL0     H 5054  -0.324   5.782   1.439  1.3205  0.7910 -0.6438
  796MOL0     H 5055  -0.080   5.708   1.394  1.2445 -0.4347 -2.2894
  796MOL0     H 5056   0.205   5.507   1.230 -2.2724  0.5107  1.1872
  796MOL0     H 5057   0.432   5.494   1.180 -0.4937  2.4079  1.5401
  796MOL0     H 5058   1.415   4.432   0.090 -0.9080  0.9845  0.0128
  796MOL0     H 5059   1.661   4.477   0.025 -0.5511  2.0512 -0.1376
  796MOL0     H 5060   1.996   4.552   0.005  0.7110 -0.4503 -1.2833
  796MOL0     H 5061   2.212   4.657  -0.095  3.5889 -2.0370 -2.5320
  796MOL0     H 5062   2.593   4.502   0.041 -0.8081  0.4159  0.5384
  796MOL0     H 5063   2.600   4.637   0.155  1.4213 -0.6725  0.3819
  796MOL0     H 5064   2.760   4.635  -0.038 -0.3474 -1.4892  1.6643
  796MOL0     H 5065   2.618   4.677  -0.147 -0.7166 -0.4264  0.4000
  796MOL0     H 5066   2.702   4.848   0.092  1.8430  1.3526 -0.3911
  796MOL0     H 5067   2.582   4.888  -0.025  0.7670  1.0338 -0.3148
  796MOL0     H 5068   2.803   5.007  -0.060 -0.5755 -0.3419  0.3386
  796MOL0     H 5069   2.880   4.849  -0.101 -0.4832 -2.5755  0.1479
  796MOL0     H 5070   2.638   4.982  -0.426 -0.7925  1.7521  1.1324
  796MOL0     H 5071   2.430   4.509   0.224  0.2839  0.0411  0.0354
  796MOL0     H 5072   2.229   4.407   0.333  0.9773  1.1419  0.8048
  797MOL0     O 5073   6.513   8.733   6.822 -0.5811  0.0137  0.3353
  797MOL0     C 5074   6.558   8.675   6.923 -0.2199  0.6201 -0.3572
  797MOL0     O 5075   6.493   8.574   6.993  0.1396  0.0621 -1.0284
  797MOL0     C 5076   6.367   8.548   6.971  0.0432  0.0127 -1.2788
  797MOL0     C 5077   6.319   8.510   6.843 -0.0985  0.5000 -0.5999
  797MOL0     C 5078   6.183   8.474   6.832 -0.6038  0.4843 -0.4311
  797MOL0     C 5079   6.090   8.483   6.940  0.1093 -1.2598 -0.1423
  797MOL0     O 5080   5.961   8.446   6.933 -0.2694  0.1388  0.0893
  797MOL0     C 5081   5.881   8.504   6.836 -0.6744 -0.2195 -0.8420
  797MOL0     C 5082   5.769   8.412   6.801 -0.0485 -0.1222  0.2826
  797MOL0     C 5083   5.657   8.416   6.901 -0.2747 -0.1940  0.2395
  797MOL0     C 5084   5.548   8.324   6.845 -0.3401  0.2125 -0.0471
  797MOL0     C 5085   5.425   8.353   6.922  0.5079 -0.0744 -0.0481
  797MOL0     C 5086   5.308   8.257   6.881  0.0606 -0.5660 -0.6377
  797MOL0     C 5087   5.170   8.274   6.940  0.4937 -0.5696 -0.2787
  797MOL0     C 5088   5.110   8.421   6.915 -0.2846  0.7185 -0.1648
  797MOL0     N 5089   4.963   8.426   6.908 -0.5801 -0.3778 -0.2405
  797MOL0     C 5090   4.891   8.463   6.797 -0.2609 -0.6985  0.5449
  797MOL0     C 5091   4.767   8.407   6.822  0.8444 -0.7931 -0.2284
  797MOL0     C 5092   4.654   8.388   6.728 -0.2366 -0.4248  0.9579
  797MOL0     C 5093   4.523   8.478   6.758 -0.0909  0.7273  0.5701
  797MOL0     C 5094   4.405   8.422   6.668  0.5658 -0.3830  0.5258
  797MOL0     C 5095   4.272   8.478   6.719 -0.6444 -0.2546 -0.3652
  797MOL0     O 5096   4.170   8.432   6.636  0.5477 -0.3631 -0.9217
  797MOL0     C 5097   4.041   8.486   6.655  0.0749  0.5236  0.1915
  797MOL0     C 5098   4.009   8.597   6.735  0.5106  1.0614  0.3986
  797MOL0     C 5099   3.882   8.646   6.724  0.0721 -0.3640 -0.1846
  797MOL0     C 5100   3.780   8.596   6.638  0.0954  0.9109  0.6675
  797MOL0     C 5101   3.656   8.671   6.616  0.1293 -0.0194 -0.1085
  797MOL0     O 5102   3.659   8.806   6.642 -1.0598 -0.4686 -0.3405
  797MOL0     C 5103   3.545   8.880   6.614  0.0798  0.0490 -0.4762
  797MOL0     C 5104   3.548   9.007   6.550  0.7067  0.8542 -0.4809
  797MOL0     C 5105   3.431   9.082   6.532 -0.0295 -0.0960 -0.4693
  797MOL0     C 5106   3.304   9.036   6.573 -0.0631  0.3841  0.9530
  797MOL0     O 5107   3.199   9.122   6.573  0.1834 -0.4968 -0.0870
  797MOL0     C 5108   3.076   9.091   6.654 -0.5965 -0.3879  0.4224
  797MOL0     C 5109   3.102   9.116   6.799  0.4410  0.0754  0.4194
  797MOL0     C 5110   3.151   9.264   6.825 -0.4447  0.1188 -0.2102
  797MOL0     C 5111   3.112   9.314   6.965  0.1906  0.0665  0.2350
  797MOL0     C 5112   3.210   9.297   7.078  0.0524  0.3609  0.0708
  797MOL0     C 5113   3.335   9.374   7.061  0.3527 -0.1799  0.6498
  797MOL0     C 5114   3.412   9.355   7.190 -0.4940 -0.0395  0.2869
  797MOL0     C 5115   3.540   9.422   7.171  0.4254  0.4348  0.5493
  797MOL0    Cl 5116   3.646   9.384   7.308 -0.3260 -0.2153 -0.0604
  797MOL0     C 5117   3.301   8.904   6.629 -0.3279  0.1462 -0.7715
  797MOL0     C 5118   3.418   8.830   6.644 -0.8011 -0.3212 -1.1480
  797MOL0     O 5119   3.559   8.610   6.557 -0.1015 -0.8388  0.0800
  797MOL0     C 5120   3.817   8.487   6.557  0.1404 -0.3355 -0.2491
  797MOL0     C 5121   3.945   8.433   6.566 -0.1699 -0.2257  0.4560
  797MOL0     N 5122   4.773   8.343   6.949 -0.7961  0.2164 -0.1095
  797MOL0     N 5123   4.889   8.363   6.998  0.0787  0.2426 -0.8261
  797MOL0     C 5124   6.140   8.521   7.066  0.4728  0.1720  1.3243
  797MOL0     C 5125   6.275   8.553   7.072  0.5289  0.7917 -0.3651
  797MOL0     C 5126   6.702   8.690   6.948  0.4604 -0.5806  0.0936
  797MOL0     C 5127   6.768   8.614   7.040  1.0926  0.3390 -0.6012
  797MOL0     C 5128   6.903   8.629   7.057  1.0272 -0.5903 -0.6032
  797MOL0     C 5129   6.972   8.721   6.986 -1.2395  0.2062 -0.0280
  797MOL0     O 5130   7.104   8.742   7.011  0.5912  0.7305 -0.1357
  797MOL0     C 5131   7.119   8.865   7.081  0.7671  0.2541  0.4215
  797MOL0     C 5132   7.268   8.877   7.094 -0.0531 -0.8672  0.0605
  797MOL0     C 5133   7.309   9.035   7.120 -0.2362  0.3014  0.4755
  797MOL0     C 5134   7.463   9.046   7.118  0.4259  0.4247 -0.0588
  797MOL0     C 5135   7.533   9.000   7.245  0.2137  0.3077 -0.0147
  797MOL0     C 5136   7.587   8.957   7.346 -0.3282  0.6892  0.3073
  797MOL0     C 5137   6.912   8.790   6.880  0.7785  0.3755 -0.0694
  797MOL0     C 5138   6.771   8.783   6.867  0.6721 -0.5241 -0.2900
  797MOL0     H 5139   6.393   8.509   6.763  0.5831  4.1501 -0.1701
  797MOL0     H 5140   6.157   8.426   6.738  0.8559 -1.0784 -0.0956
  797MOL0     H 5141   5.941   8.515   6.745  1.2296  0.7663  0.4873
  797MOL0     H 5142   5.851   8.603   6.872  2.8704  2.1062 -3.6095
  797MOL0     H 5143   5.815   8.313   6.809  1.2065  0.5178  1.3971
  797MOL0     H 5144   5.735   8.430   6.699  2.3642  4.8964  0.0663
  797MOL0     H 5145   5.608   8.513   6.907 -1.8021 -0.7301 -2.0123
  797MOL0     H 5146   5.694   8.381   6.998 -0.1489  1.7765  0.9459
  797MOL0     H 5147   5.527   8.342   6.740 -1.1979 -2.0399 -0.3127
  797MOL0     H 5148   5.572   8.219   6.867 -1.2070  0.0365  0.0962
  797MOL0     H 5149   5.391   8.455   6.901  2.1584 -0.0848 -3.2691
  797MOL0     H 5150   5.452   8.343   7.028  4.2662  1.0967 -0.7565
  797MOL0     H 5151   5.330   8.150   6.896  1.2243 -0.0627  1.6792
  797MOL0     H 5152   5.302   8.263   6.772  2.8949 -0.9004 -0.8872
  797MOL0     H 5153   5.114   8.191   6.895 -1.7347 -0.1857  1.5903
  797MOL0     H 5154   5.153   8.245   7.044 -0.7968  2.1019  0.3165
  797MOL0     H 5155   5.142   8.458   6.817 -0.1655  0.4937 -0.2110
  797MOL0     H 5156   5.145   8.489   6.993  2.6201 -2.8297  1.9579
  797MOL0     H 5157   4.926   8.507   6.704  0.6749  1.1671  1.7042
  797MOL0     H 5158   4.629   8.282   6.714  0.9188 -0.5333 -0.4927
  797MOL0     H 5159   4.685   8.430   6.632 -0.9735  2.5113  1.8945
  797MOL0     H 5160   4.531   8.583   6.727 -1.0550  0.6803  0.1214
  797MOL0     H 5161   4.495   8.467   6.863 -1.3297  2.0434  0.4283
  797MOL0     H 5162   4.410   8.454   6.563  1.1120  1.2098  1.0164
  797MOL0     H 5163   4.402   8.313   6.674 -0.0155 -0.4600 -0.6506
  797MOL0     H 5164   4.279   8.587   6.711  1.5603 -0.3721 -0.6684
  797MOL0     H 5165   4.267   8.451   6.825 -1.3261  2.6045  0.4001
  797MOL0     H 5166   4.072   8.652   6.804  1.2794 -1.2243  1.6489
  797MOL0     H 5167   3.855   8.729   6.790 -1.3548 -3.0746  2.9353
  797MOL0     H 5168   3.640   9.055   6.519  1.4907  1.1835  2.1438
  797MOL0     H 5169   3.425   9.179   6.484 -1.3942  0.5750  0.9700
  797MOL0     H 5170   3.039   8.991   6.625  0.0807 -0.8842  1.2374
  797MOL0     H 5171   2.995   9.159   6.626 -0.7081 -0.2730  1.0161
  797MOL0     H 5172   3.178   9.052   6.845  0.6161 -0.7214 -0.9474
  797MOL0     H 5173   3.004   9.107   6.846  0.0356  2.3796  0.1487
  797MOL0     H 5174   3.101   9.327   6.751 -1.1381 -1.8652 -1.5323
  797MOL0     H 5175   3.259   9.277   6.810 -0.6335  2.8138  0.3145
  797MOL0     H 5176   3.098   9.422   6.956  5.3488  1.2016  2.0356
  797MOL0     H 5177   3.016   9.267   6.986 -1.1481  2.4724 -0.1483
  797MOL0     H 5178   3.228   9.189   7.083  0.5374  0.4940  1.6648
  797MOL0     H 5179   3.159   9.316   7.173 -1.1386 -1.3174 -0.1831
  797MOL0     H 5180   3.319   9.476   7.025 -1.0611 -0.8608 -0.7841
  797MOL0     H 5181   3.398   9.329   6.984 -1.3534 -1.8921  0.1747
  797MOL0     H 5182   3.371   9.401   7.281  0.4099 -1.5512  1.5131
  797MOL0     H 5183   3.426   9.249   7.213 -1.2699  0.0905  1.4573
  797MOL0     H 5184   3.531   9.531   7.166 -3.2955  0.2178 -1.2612
  797MOL0     H 5185   3.590   9.387   7.080 -1.2231  0.1431 -0.2882
  797MOL0     H 5186   3.218   8.849   6.672 -1.0864  0.2057 -2.1099
  797MOL0     H 5187   3.417   8.742   6.707  2.5938 -0.8328 -1.6055
  797MOL0     H 5188   3.757   8.446   6.476 -0.6155 -0.5610  0.4162
  797MOL0     H 5189   3.964   8.362   6.486 -1.2600  1.7634 -1.6776
  797MOL0     H 5190   6.077   8.526   7.154 -0.9558 -3.9942  0.7450
  797MOL0     H 5191   6.306   8.583   7.172 -0.6811 -0.0003  0.2739
  797MOL0     H 5192   6.718   8.546   7.109  0.4795  1.6102  0.2498
  797MOL0     H 5193   6.958   8.579   7.136  1.1594  1.0330  0.3740
  797MOL0     H 5194   7.065   8.861   7.176 -0.4528  0.2602 -0.2608
  797MOL0     H 5195   7.083   8.943   7.014  1.4440 -0.7835 -1.2286
  797MOL0     H 5196   7.301   8.822   7.182 -0.5436 -3.0860 -1.0747
  797MOL0     H 5197   7.312   8.831   7.004 -0.8039 -1.4166 -0.0335
  797MOL0     H 5198   7.273   9.065   7.219 -2.5561  0.4890 -0.3814
  797MOL0     H 5199   7.259   9.095   7.044  0.4608  0.9780  0.5377
  797MOL0     H 5200   7.506   8.984   7.039 -0.6098 -2.0857  1.2420
  797MOL0     H 5201   7.483   9.153   7.104  1.6907  0.1398 -0.5411
  797MOL0     H 5202   7.647   8.918   7.425  0.0639  1.4521  0.3946
  797MOL0     H 5203   6.957   8.856   6.808 -1.0491 -2.2882 -4.0382
  797MOL0     H 5204   6.730   8.845   6.787 -1.9028 -0.5678  0.8779
  798MOL0     O 5205   8.069   9.343   6.412  0.2807  0.9101 -0.4993
  798MOL0     C 5206   8.116   9.424   6.332 -0.2527 -1.2888  0.6230
  798MOL0     O 5207   8.059   9.547   6.293 -0.0680  0.5544 -0.4519
  798MOL0     C 5208   7.939   9.584   6.348  0.0896  0.0046 -0.3205
  798MOL0     C 5209   7.890   9.561   6.476  0.5036 -0.2048 -0.3003
  798MOL0     C 5210   7.766   9.621   6.521 -0.3000  1.1143  0.2499
  798MOL0     C 5211   7.692   9.693   6.424 -0.5765  0.6076 -0.4372
  798MOL0     O 5212   7.567   9.752   6.453  0.2756  0.3427 -0.4157
  798MOL0     C 5213   7.546   9.829   6.568 -0.3352  0.4782  0.6451
  798MOL0     C 5214   7.416   9.900   6.567  0.0381  0.0357  0.3954
  798MOL0     C 5215   7.296   9.804   6.583  0.3390  0.5448  0.1832
  798MOL0     C 5216   7.170   9.889   6.549 -1.3309  0.6186 -0.0422
  798MOL0     C 5217   7.039   9.850   6.632 -0.2674 -0.0905  0.7488
  798MOL0     C 5218   6.942   9.967   6.604 -0.1321 -0.4605 -0.1613
  798MOL0     C 5219   6.798   9.925   6.631  0.5992  0.4626 -0.7112
  798MOL0     C 5220   6.701  10.037   6.610 -0.4953  0.3128 -0.0767
  798MOL0     N 5221   6.562   9.997   6.594 -0.2629 -0.5340 -0.5111
  798MOL0     C 5222   6.463  10.073   6.551  0.0300 -0.4635  0.1099
  798MOL0     C 5223   6.345   9.995   6.558 -0.1260 -0.9185  0.1909
  798MOL0     C 5224   6.204  10.032   6.504  0.6510  0.1654  0.4650
  798MOL0     C 5225   6.145   9.915   6.417  0.8132 -0.1562  0.3669
  798MOL0     C 5226   5.998   9.933   6.380 -0.2291 -0.0004  0.0183
  798MOL0     C 5227   5.901   9.889   6.489  0.0378  0.1048  1.0608
  798MOL0     O 5228   5.903   9.752   6.502 -0.0884  1.1195 -0.2065
  798MOL0     C 5229   5.794   9.686   6.557  0.7755 -0.2426 -0.9851
  798MOL0     C 5230   5.764   9.559   6.508 -0.6977  1.0016 -0.5142
  798MOL0     C 5231   5.662   9.475   6.559  0.3459 -0.2115 -0.4625
  798MOL0     C 5232   5.583   9.527   6.660  0.3468  0.8829 -0.0253
  798MOL0     C 5233   5.453   9.463   6.702 -0.1424 -0.0348 -0.5299
  798MOL0     O 5234   5.389   9.513   6.811 -0.6098 -0.0643  0.2352
  798MOL0     C 5235   5.270   9.461   6.843 -0.1575 -1.0330  0.4742
  798MOL0     C 5236   5.249   9.440   6.978 -0.1350  0.7132 -0.2174
  798MOL0     C 5237   5.123   9.412   7.031 -0.5400  0.1917  0.0222
  798MOL0     C 5238   5.017   9.388   6.946 -0.4294 -0.3557 -0.4686
  798MOL0     O 5239   4.906   9.334   7.009 -0.3283  0.7083 -0.0710
  798MOL0     C 5240   4.795   9.309   6.918  0.3976 -0.0031 -0.7484
  798MOL0     C 5241   4.679   9.237   6.998  0.1950 -0.7586 -0.2156
  798MOL0     C 5242   4.597   9.307   7.109  0.9358 -0.7412 -0.3212
  798MOL0     C 5243   4.658   9.289   7.247 -0.2446 -0.2971  0.2503
  798MOL0     C 5244   4.559   9.326   7.363 -0.2855 -0.6774  0.2434
  798MOL0     C 5245   4.436   9.238   7.375  0.6365 -0.4824 -0.5245
  798MOL0     C 5246   4.355   9.246   7.511 -0.6953  0.6474 -0.2947
  798MOL0     C 5247   4.447   9.239   7.639 -0.6029  0.1814  0.6775
  798MOL0    Cl 5248   4.539   9.091   7.644  0.6409  0.1794 -0.2024
  798MOL0     C 5249   5.036   9.413   6.803  0.7285 -0.1059 -0.8847
  798MOL0     C 5250   5.161   9.441   6.755 -0.1470 -0.0187 -0.6441
  798MOL0     O 5251   5.407   9.368   6.641  0.2453  0.1714 -0.6076
  798MOL0     C 5252   5.614   9.649   6.709 -0.2411  0.0301  0.7854
  798MOL0     C 5253   5.706   9.736   6.654 -0.4994  0.3229 -0.3627
  798MOL0     N 5254   6.385   9.872   6.610  0.1311 -0.6559 -0.0703
  798MOL0     N 5255   6.511   9.878   6.626 -0.1734 -0.3783 -0.3383
  798MOL0     C 5256   7.739   9.713   6.291  0.6425 -0.1387 -0.4912
  798MOL0     C 5257   7.853   9.655   6.257 -0.5870 -0.3377 -0.4854
  798MOL0     C 5258   8.252   9.406   6.270 -0.9795 -0.0244 -1.3519
  798MOL0     C 5259   8.317   9.280   6.292  0.1454 -0.3081  0.1405
  798MOL0     C 5260   8.450   9.267   6.248  0.9363  0.1582  0.0316
  798MOL0     C 5261   8.522   9.364   6.174 -0.6455  0.2454 -0.0401
  798MOL0     O 5262   8.656   9.334   6.149 -0.2494  0.1341 -0.1240
  798MOL0     C 5263   8.696   9.370   6.017 -0.0291  0.5546 -0.1931
  798MOL0     C 5264   8.821   9.302   5.963  0.0148 -0.4001  0.3559
  798MOL0     C 5265   8.947   9.305   6.041  0.2451  0.8509  0.0281
  798MOL0     C 5266   9.032   9.175   6.012 -0.0564  0.4894 -0.4402
  798MOL0     C 5267   9.158   9.180   6.084  0.6167  0.4540 -0.4509
  798MOL0     C 5268   9.248   9.190   6.163 -0.2091  0.6648 -0.1916
  798MOL0     C 5269   8.451   9.481   6.144 -0.0446 -1.1411  0.4867
  798MOL0     C 5270   8.319   9.500   6.182  0.6511  0.5966  0.2322
  798MOL0     H 5271   7.936   9.500   6.553 -0.4740  2.1524  2.3220
  798MOL0     H 5272   7.719   9.604   6.617  0.2449  2.9442  0.8890
  798MOL0     H 5273   7.627   9.903   6.579  1.5367 -1.3711 -0.1167
  798MOL0     H 5274   7.550   9.766   6.657  0.8703 -1.7003 -0.8837
  798MOL0     H 5275   7.392   9.950   6.473  3.1627  1.7340  0.3675
  798MOL0     H 5276   7.411   9.974   6.647 -3.4873 -1.4415  1.7203
  798MOL0     H 5277   7.282   9.762   6.683 -2.8879  1.4906  0.2452
  798MOL0     H 5278   7.300   9.726   6.506 -2.2527 -1.2640  1.6910
  798MOL0     H 5279   7.191   9.996   6.547  0.2145  0.3316 -1.4566
  798MOL0     H 5280   7.160   9.864   6.443  1.1112 -2.5542  0.3394
  798MOL0     H 5281   7.049   9.842   6.741  2.9867 -0.6585  0.4909
  798MOL0     H 5282   6.999   9.756   6.593 -0.0466  0.4069 -0.7275
  798MOL0     H 5283   6.967   9.986   6.499  3.2835  1.6448  0.8679
  798MOL0     H 5284   6.966  10.056   6.662 -0.1703  0.9831 -2.2413
  798MOL0     H 5285   6.783   9.840   6.564  0.3489 -0.7995  0.8819
  798MOL0     H 5286   6.784   9.892   6.734 -2.8484  1.2695 -0.7790
  798MOL0     H 5287   6.729  10.091   6.519  1.5062  0.6036  0.6564
  798MOL0     H 5288   6.711  10.113   6.688 -1.8107 -0.2028  0.6299
  798MOL0     H 5289   6.473  10.177   6.522  1.3788 -0.5613  0.1662
  798MOL0     H 5290   6.215  10.115   6.433  1.8112  0.3773  0.8696
  798MOL0     H 5291   6.140  10.076   6.580  0.6316 -0.4377  0.7977
  798MOL0     H 5292   6.163   9.816   6.459 -1.3191 -0.7888 -0.0907
  798MOL0     H 5293   6.199   9.924   6.322 -1.4112  1.1634 -0.8474
  798MOL0     H 5294   5.978  10.038   6.357 -1.1611  0.3719  2.2903
  798MOL0     H 5295   5.979   9.882   6.286  3.1628 -1.2247 -0.1658
  798MOL0     H 5296   5.799   9.916   6.460  0.9002  0.9326 -1.4831
  798MOL0     H 5297   5.917   9.938   6.586 -3.1301 -0.7761  2.1466
  798MOL0     H 5298   5.808   9.519   6.418 -0.2860  0.4038 -0.0587
  798MOL0     H 5299   5.639   9.381   6.509 -0.1036 -1.1899  1.4559
  798MOL0     H 5300   5.318   9.477   7.053  0.1180  0.1135 -0.1540
  798MOL0     H 5301   5.108   9.390   7.136  2.0763 -0.6362  0.2955
  798MOL0     H 5302   4.825   9.246   6.834  3.3708 -0.5916  0.6196
  798MOL0     H 5303   4.759   9.405   6.879  0.2519  0.8190  1.2842
  798MOL0     H 5304   4.716   9.147   7.048  0.5929 -0.0110  0.8980
  798MOL0     H 5305   4.605   9.208   6.924 -0.1228 -2.1770  0.6265
  798MOL0     H 5306   4.492   9.279   7.100  0.7103 -0.2128  0.5544
  798MOL0     H 5307   4.597   9.414   7.087 -0.8939 -0.9243 -1.4417
  798MOL0     H 5308   4.683   9.183   7.258 -0.1159 -0.2650  0.2631
  798MOL0     H 5309   4.752   9.345   7.244 -0.3369 -0.1621 -0.1437
  798MOL0     H 5310   4.535   9.432   7.347  2.2606  0.2234  1.7460
  798MOL0     H 5311   4.612   9.316   7.458  1.0495 -0.3152 -0.4444
  798MOL0     H 5312   4.461   9.134   7.351  0.4191 -0.0806 -2.7034
  798MOL0     H 5313   4.364   9.270   7.299  0.8281  1.9516  0.2465
  798MOL0     H 5314   4.300   9.340   7.523  0.8835  1.3566  2.2179
  798MOL0     H 5315   4.283   9.164   7.525 -0.0600 -0.1718 -1.5881
  798MOL0     H 5316   4.386   9.244   7.730  0.7249  0.9184  1.5733
  798MOL0     H 5317   4.517   9.323   7.647 -1.8125  1.2686  0.3108
  798MOL0     H 5318   4.953   9.395   6.736 -2.2705  0.6036  2.3711
  798MOL0     H 5319   5.171   9.480   6.654  3.6787  5.1327  1.3268
  798MOL0     H 5320   5.562   9.695   6.793 -0.4120  2.2633 -0.4569
  798MOL0     H 5321   5.717   9.834   6.701  1.6375  1.1292 -2.3874
  798MOL0     H 5322   7.678   9.775   6.226  2.6686  1.1306 -1.2754
  798MOL0     H 5323   7.882   9.665   6.153 -0.7657 -0.2142 -0.5255
  798MOL0     H 5324   8.279   9.198   6.351  2.2913 -2.1888 -0.9326
  798MOL0     H 5325   8.501   9.177   6.279 -0.2561 -1.1736 -1.6618
  798MOL0     H 5326   8.718   9.477   6.024 -0.2759  0.6578 -0.8675
  798MOL0     H 5327   8.612   9.348   5.950 -1.0845 -2.6946  1.9240
  798MOL0     H 5328   8.796   9.200   5.930 -1.3559  0.9820 -3.4569
  798MOL0     H 5329   8.843   9.345   5.865 -1.2775  1.1972  0.7362
  798MOL0     H 5330   8.932   9.312   6.149  1.7152 -1.7585  0.5022
  798MOL0     H 5331   8.998   9.396   6.009 -0.6112  0.4761 -2.7249
  798MOL0     H 5332   8.974   9.087   6.042 -0.7550  1.7177  2.0840
  798MOL0     H 5333   9.054   9.157   5.906 -0.9153 -1.1157 -0.3775
  798MOL0     H 5334   9.343   9.201   6.211 -1.1945 -1.4161  2.4723
  798MOL0     H 5335   8.492   9.565   6.089 -1.5292 -0.3631  0.5041
  798MOL0     H 5336   8.264   9.591   6.163  1.3284  1.4666  2.1352
  799MOL0     O 5337   0.063   3.173   5.741  0.2705  0.8228  0.2088
  799MOL0     C 5338  -0.013   3.234   5.815 -0.5063 -0.0990  0.4429
  799MOL0     O 5339   0.027   3.325   5.903 -0.3260 -0.8222 -0.2553
  799MOL0     C 5340   0.157   3.359   5.903 -0.4060 -0.1340 -0.0031
  799MOL0     C 5341   0.207   3.454   5.816  0.3626  0.5290  0.2446
  799MOL0     C 5342   0.341   3.486   5.824 -0.3364  0.1303  0.5379
  799MOL0     C 5343   0.427   3.434   5.919  0.3905  1.0100 -1.0336
  799MOL0     O 5344   0.561   3.466   5.932  0.1850  0.4058  0.1522
  799MOL0     C 5345   0.578   3.606   5.937 -1.0344  0.0078  0.3439
  799MOL0     C 5346   0.694   3.638   5.842 -0.4619  0.2589  0.2590
  799MOL0     C 5347   0.825   3.557   5.882  0.0154 -0.5010  0.5669
  799MOL0     C 5348   0.910   3.555   5.757  0.1242 -0.4730 -0.0930
  799MOL0     C 5349   1.029   3.465   5.780  0.0309  0.6169  0.4331
  799MOL0     C 5350   1.104   3.419   5.652  0.2701 -0.0985  0.4279
  799MOL0     C 5351   1.019   3.350   5.541  0.8075  0.0524  0.1227
  799MOL0     C 5352   1.110   3.268   5.449  0.6381 -0.2231 -0.2767
  799MOL0     N 5353   1.163   3.149   5.519 -0.0354 -0.1261  0.8679
  799MOL0     C 5354   1.108   3.038   5.570 -0.3467 -0.4790 -0.7492
  799MOL0     C 5355   1.212   2.969   5.607 -0.3756 -0.0920  0.0255
  799MOL0     C 5356   1.206   2.850   5.692  0.4537 -1.3607  0.0401
  799MOL0     C 5357   1.087   2.762   5.661 -0.0859 -0.7940  1.0991
  799MOL0     C 5358   1.088   2.691   5.524  0.2635 -0.8274  0.9779
  799MOL0     C 5359   0.946   2.635   5.499  0.0699  0.2505  0.1851
  799MOL0     O 5360   0.859   2.738   5.440  0.8046  1.0510 -0.3509
  799MOL0     C 5361   0.732   2.709   5.421 -0.0413 -0.2173  0.4199
  799MOL0     C 5362   0.643   2.818   5.399  0.1088 -0.1953 -0.3547
  799MOL0     C 5363   0.508   2.796   5.377 -0.3050 -0.1495 -1.1452
  799MOL0     C 5364   0.459   2.665   5.371 -0.3647  0.1411 -0.1583
  799MOL0     C 5365   0.307   2.655   5.363  0.4962  0.2155 -0.5230
  799MOL0     O 5366   0.229   2.771   5.372 -0.2652 -0.4253  0.0313
  799MOL0     C 5367   0.088   2.787   5.361  0.4704  0.9144  0.4678
  799MOL0     C 5368   0.044   2.911   5.396  0.1583  0.1015  0.2552
  799MOL0     C 5369  -0.094   2.941   5.394 -0.4305  0.0794 -0.1597
  799MOL0     C 5370  -0.184   2.841   5.357  0.2321  1.0063 -0.7010
  799MOL0     O 5371  -0.320   2.876   5.352 -0.3803 -0.2062 -0.0091
  799MOL0     C 5372  -0.427   2.788   5.361 -0.6247 -0.0824 -0.0271
  799MOL0     C 5373  -0.551   2.865   5.408  0.7576  1.0062  0.5096
  799MOL0     C 5374  -0.667   2.781   5.443  0.4619  0.1081 -0.0503
  799MOL0     C 5375  -0.771   2.867   5.510 -0.7757  0.0176  0.0645
  799MOL0     C 5376  -0.908   2.806   5.529  0.4146 -0.2979  0.2711
  799MOL0     C 5377  -1.004   2.826   5.413  0.0546  0.3303 -0.4022
  799MOL0     C 5378  -1.145   2.770   5.448  0.1664  0.2343 -0.3852
  799MOL0     C 5379  -1.247   2.769   5.335  0.5140 -0.7144 -0.1324
  799MOL0    Cl 5380  -1.252   2.606   5.249 -0.0782 -0.5103 -0.1534
  799MOL0     C 5381  -0.135   2.708   5.330  0.3759  0.2483  1.1996
  799MOL0     C 5382   0.001   2.683   5.324 -0.0898  0.2727  0.1407
  799MOL0     O 5383   0.261   2.541   5.352 -0.2649  0.8525  0.5827
  799MOL0     C 5384   0.545   2.560   5.395 -0.1131  0.6098 -0.0496
  799MOL0     C 5385   0.679   2.582   5.422 -0.1878  0.1545  0.3798
  799MOL0     N 5386   1.331   3.041   5.588 -0.1695  0.5255  0.6752
  799MOL0     N 5387   1.294   3.148   5.523 -0.1750 -0.1463 -0.0681
  799MOL0     C 5388   0.375   3.337   6.008 -0.0671  0.1342  0.7027
  799MOL0     C 5389   0.236   3.309   5.999  0.4665 -0.1232  0.7627
  799MOL0     C 5390  -0.152   3.213   5.797 -0.3439  0.3649 -0.5431
  799MOL0     C 5391  -0.196   3.097   5.725  0.0665 -0.1924 -0.8070
  799MOL0     C 5392  -0.336   3.076   5.718  0.1639 -0.4645  0.7653
  799MOL0     C 5393  -0.426   3.163   5.774  0.4223 -0.5103 -0.1392
  799MOL0     O 5394  -0.559   3.131   5.764 -0.5936  0.4480  0.0945
  799MOL0     C 5395  -0.665   3.214   5.804  0.4546 -0.8925  0.5936
  799MOL0     C 5396  -0.793   3.145   5.785 -0.2065 -0.2395  0.4465
  799MOL0     C 5397  -0.910   3.238   5.789 -0.3931  0.2579 -0.6199
  799MOL0     C 5398  -0.931   3.298   5.931  0.4516  0.4247 -0.4691
  799MOL0     C 5399  -0.988   3.200   6.029  0.3274 -0.0379  0.9150
  799MOL0     C 5400  -1.033   3.127   6.108  0.5649  1.0521 -0.2958
  799MOL0     C 5401  -0.385   3.285   5.833 -0.7909  0.4951 -0.4883
  799MOL0     C 5402  -0.249   3.304   5.856 -0.4616  0.5897 -1.0654
  799MOL0     H 5403   0.150   3.497   5.734  1.7735 -2.8971 -2.7994
  799MOL0     H 5404   0.388   3.566   5.768  1.9172 -1.3353  0.1710
  799MOL0     H 5405   0.626   3.645   6.027  0.5573  2.5257 -1.4769
  799MOL0     H 5406   0.488   3.665   5.918 -1.3924 -0.7823 -0.4979
  799MOL0     H 5407   0.724   3.743   5.847  0.1941  0.1489 -0.8876
  799MOL0     H 5408   0.675   3.614   5.737 -0.1313  1.5461 -0.1131
  799MOL0     H 5409   0.800   3.453   5.908 -0.1307 -0.8809 -0.9805
  799MOL0     H 5410   0.862   3.620   5.963 -0.3725 -0.3082  0.5986
  799MOL0     H 5411   0.854   3.519   5.670 -2.1822  0.7867  0.7942
  799MOL0     H 5412   0.941   3.655   5.725  2.1615 -1.0030  0.1295
  799MOL0     H 5413   0.985   3.373   5.821 -0.8795  1.7351  2.0626
  799MOL0     H 5414   1.100   3.498   5.857  1.0165 -0.5862  0.0704
  799MOL0     H 5415   1.189   3.357   5.683  1.5210  1.5006  0.3606
  799MOL0     H 5416   1.155   3.510   5.619  1.4226 -0.7504  0.3443
  799MOL0     H 5417   0.948   3.283   5.589  0.7006  1.6976  2.4099
  799MOL0     H 5418   0.974   3.425   5.476 -0.0425 -1.1728 -0.7592
  799MOL0     H 5419   1.196   3.328   5.419  0.1995  0.0059 -1.0865
  799MOL0     H 5420   1.050   3.236   5.363 -1.9725 -0.1034  1.3825
  799MOL0     H 5421   1.006   3.013   5.599 -0.2988  0.0581 -0.0875
  799MOL0     H 5422   1.210   2.889   5.794 -1.9130 -0.3514 -0.2148
  799MOL0     H 5423   1.298   2.796   5.666  0.4091 -0.9909 -0.9002
  799MOL0     H 5424   0.989   2.807   5.678 -1.5374 -3.1008 -0.5692
  799MOL0     H 5425   1.085   2.692   5.745 -2.5687  2.9043  4.5139
  799MOL0     H 5426   1.118   2.764   5.448  0.5987 -1.1807  0.7671
  799MOL0     H 5427   1.172   2.623   5.535  3.6047  2.7318 -0.1137
  799MOL0     H 5428   0.900   2.584   5.584  0.2113 -0.1565  0.0222
  799MOL0     H 5429   0.953   2.550   5.430  2.1957  1.2483 -0.9192
  799MOL0     H 5430   0.676   2.921   5.392 -0.9816  0.0705 -2.3247
  799MOL0     H 5431   0.451   2.886   5.359  0.2211  0.7775  1.3974
  799MOL0     H 5432   0.111   2.986   5.437 -1.2277  1.6216 -0.1210
  799MOL0     H 5433  -0.136   3.036   5.427  2.3413  1.1219  0.6621
  799MOL0     H 5434  -0.401   2.717   5.440  1.2863  2.5334  1.8823
  799MOL0     H 5435  -0.443   2.734   5.267  0.3550  1.0617 -0.8832
  799MOL0     H 5436  -0.583   2.938   5.332  2.0207 -1.0704 -2.1901
  799MOL0     H 5437  -0.523   2.939   5.483 -0.4705  2.1237 -0.0981
  799MOL0     H 5438  -0.655   2.695   5.510 -4.3134  0.0118  0.9811
  799MOL0     H 5439  -0.709   2.736   5.354  2.3527 -0.6810 -0.5921
  799MOL0     H 5440  -0.732   2.889   5.610 -0.8653 -0.3577  0.1810
  799MOL0     H 5441  -0.777   2.959   5.450  1.0547 -0.3975 -0.8239
  799MOL0     H 5442  -0.954   2.853   5.617 -1.4023  2.0088 -1.7672
  799MOL0     H 5443  -0.884   2.703   5.556 -3.7593 -0.9734  2.2286
  799MOL0     H 5444  -0.965   2.786   5.319  1.1568 -2.7788  1.2520
  799MOL0     H 5445  -1.009   2.934   5.396  1.0892  0.4399 -0.0958
  799MOL0     H 5446  -1.127   2.666   5.474 -1.3263 -0.7912 -3.0262
  799MOL0     H 5447  -1.185   2.831   5.529 -1.2275 -1.7193  0.4597
  799MOL0     H 5448  -1.215   2.839   5.258 -2.4544 -1.2640 -2.0113
  799MOL0     H 5449  -1.341   2.806   5.378  0.5024  0.4142 -1.0867
  799MOL0     H 5450  -0.204   2.628   5.304 -0.4292  1.4924 -0.7953
  799MOL0     H 5451   0.033   2.581   5.312 -1.1138 -0.9530  5.1647
  799MOL0     H 5452   0.506   2.458   5.394 -3.4380  1.6878  2.3869
  799MOL0     H 5453   0.745   2.496   5.429  1.9895  1.6362 -0.6546
  799MOL0     H 5454   0.444   3.300   6.082  1.4257  0.1271 -0.6278
  799MOL0     H 5455   0.188   3.248   6.075 -1.2280  2.7566  2.1659
  799MOL0     H 5456  -0.125   3.032   5.674 -1.5722 -3.5680  0.8947
  799MOL0     H 5457  -0.373   2.990   5.662  2.6235 -1.1210  0.0543
  799MOL0     H 5458  -0.662   3.301   5.737  0.8406 -0.1568  1.5512
  799MOL0     H 5459  -0.662   3.247   5.908  0.9614  0.4783  0.1615
  799MOL0     H 5460  -0.801   3.086   5.693 -1.3968 -2.6328  1.9915
  799MOL0     H 5461  -0.816   3.072   5.863 -1.6409 -2.5953 -1.9982
  799MOL0     H 5462  -1.003   3.189   5.760 -0.6154 -0.6876  1.4990
  799MOL0     H 5463  -0.884   3.315   5.715 -2.3416  0.8154 -0.7846
  799MOL0     H 5464  -0.838   3.343   5.965  1.6268 -2.0682 -0.1012
  799MOL0     H 5465  -1.010   3.373   5.925 -0.8740 -0.7544  1.1864
  799MOL0     H 5466  -1.061   3.057   6.185  2.3743  2.3475  1.6461
  799MOL0     H 5467  -0.460   3.351   5.875  0.4866 -0.8691  4.6176
  799MOL0     H 5468  -0.210   3.392   5.907  1.5921 -1.6972  1.6520
  800MOL0     O 5469   7.890  10.909   4.982  0.7358 -0.5520 -0.0006
  800MOL0     C 5470   7.773  10.939   4.951 -0.1763 -0.5918 -0.5659
  800MOL0     O 5471   7.740  11.004   4.836  0.0023 -0.1073 -0.0402
  800MOL0     C 5472   7.846  11.013   4.747 -0.0857 -0.1368  0.1800
  800MOL0     C 5473   7.942  11.109   4.772 -0.4108  0.3236  0.4133
  800MOL0     C 5474   8.041  11.131   4.675 -0.4059  0.1607 -0.3970
  800MOL0     C 5475   8.044  11.048   4.557 -0.3372  0.7433 -0.1477
  800MOL0     O 5476   8.156  11.056   4.475  0.3145  0.6539 -0.0790
  800MOL0     C 5477   8.150  11.001   4.346  0.5941 -0.4441  1.0122
  800MOL0     C 5478   8.295  11.006   4.282 -0.1596  0.0849 -0.1488
  800MOL0     C 5479   8.285  10.957   4.135 -0.4347  0.9533 -0.4597
  800MOL0     C 5480   8.432  10.945   4.082 -0.1412  0.0795 -0.0514
  800MOL0     C 5481   8.423  10.906   3.930  0.2716 -0.6534  1.1485
  800MOL0     C 5482   8.558  10.916   3.862  0.2593 -0.1379 -0.1097
  800MOL0     C 5483   8.602  10.779   3.826  0.3022  0.6455  0.3600
  800MOL0     C 5484   8.729  10.769   3.745 -1.0920 -0.5131 -0.4777
  800MOL0     N 5485   8.838  10.794   3.842  0.4898  0.4865  0.0784
  800MOL0     C 5486   8.891  10.917   3.867  0.2945 -0.5353  0.3049
  800MOL0     C 5487   8.997  10.906   3.951 -0.4545  0.2611  0.4862
  800MOL0     C 5488   9.088  11.015   4.010  0.3674  0.3300 -0.2724
  800MOL0     C 5489   9.164  11.075   3.885 -0.3415 -0.4356 -0.4348
  800MOL0     C 5490   9.299  11.132   3.937  0.3417 -0.1112 -0.1964
  800MOL0     C 5491   9.375  11.221   3.839 -0.0461  0.2329  0.9719
  800MOL0     O 5492   9.383  11.162   3.707  0.2998  0.6402  0.5294
  800MOL0     C 5493   9.480  11.072   3.673 -0.4678 -0.3088  0.5264
  800MOL0     C 5494   9.450  10.973   3.575  0.2334  0.2034  0.0159
  800MOL0     C 5495   9.539  10.874   3.540  0.7243 -0.0561 -0.3660
  800MOL0     C 5496   9.664  10.860   3.606  0.5472 -0.1968 -0.0982
  800MOL0     C 5497   9.769  10.755   3.587  0.0427  0.1377  0.7159
  800MOL0     O 5498   9.892  10.781   3.642 -1.1348 -0.2851 -0.5555
  800MOL0     C 5499  10.003  10.695   3.632  0.0300  0.0866  0.5169
  800MOL0     C 5500  10.084  10.665   3.744 -0.3570 -0.0863  0.1332
  800MOL0     C 5501  10.196  10.577   3.745 -0.7819 -0.9683 -0.1319
  800MOL0     C 5502  10.222  10.518   3.621 -0.2547 -0.0526  0.3741
  800MOL0     O 5503  10.334  10.460   3.580 -0.0499 -0.2877 -0.5073
  800MOL0     C 5504  10.452  10.490   3.655  0.8059  0.0366 -0.0627
  800MOL0     C 5505  10.465  10.397   3.776 -1.2955 -0.3409 -0.5126
  800MOL0     C 5506  10.503  10.257   3.741  0.0898 -0.0158 -0.4932
  800MOL0     C 5507  10.645  10.243   3.691 -0.3404  0.9061  0.5258
  800MOL0     C 5508  10.673  10.088   3.681  0.1150  0.2790 -0.2556
  800MOL0     C 5509  10.794  10.075   3.589 -0.3881  0.3785  0.5061
  800MOL0     C 5510  10.920  10.133   3.646 -0.5322 -0.1559  0.2488
  800MOL0     C 5511  11.041  10.148   3.552 -0.1519 -0.6883  0.4313
  800MOL0    Cl 5512  11.095   9.990   3.510  0.2877  0.2390 -0.2716
  800MOL0     C 5513  10.142  10.542   3.512  0.3821  0.4096  0.3033
  800MOL0     C 5514  10.045  10.636   3.511  0.6666  0.1542  0.2837
  800MOL0     O 5515   9.743  10.660   3.511  0.0045 -0.5410  0.7833
  800MOL0     C 5516   9.689  10.953   3.708  0.2362  0.3972  0.0308
  800MOL0     C 5517   9.599  11.052   3.741 -0.3725 -0.0366 -0.2528
  800MOL0     N 5518   9.000  10.775   3.982 -0.5641 -0.0341 -0.3504
  800MOL0     N 5519   8.894  10.715   3.931  0.5088 -0.0337 -0.4739
  800MOL0     C 5520   7.949  10.943   4.543  0.0939  0.0901  0.2584
  800MOL0     C 5521   7.848  10.926   4.634  0.0611  0.0293 -0.4561
  800MOL0     C 5522   7.676  10.921   5.062  0.0926 -0.1052  0.4853
  800MOL0     C 5523   7.724  10.902   5.187  0.0409  0.7257 -0.7307
  800MOL0     C 5524   7.634  10.889   5.295  0.3590  0.6301 -0.0541
  800MOL0     C 5525   7.491  10.877   5.271 -0.6323 -0.5322 -0.5646
  800MOL0     O 5526   7.405  10.862   5.379 -0.2022 -0.3832  0.0732
  800MOL0     C 5527   7.279  10.801   5.344  0.3653 -0.4086 -0.0154
  800MOL0     C 5528   7.193  10.767   5.466  0.7110 -0.0901  0.1766
  800MOL0     C 5529   7.251  10.646   5.542 -0.2962  0.1320  0.6454
  800MOL0     C 5530   7.140  10.572   5.609  0.4977  0.3410 -0.9133
  800MOL0     C 5531   7.095  10.654   5.720  0.4827 -0.1217 -0.5245
  800MOL0     C 5532   7.052  10.720   5.815 -0.4336 -0.5340 -0.4662
  800MOL0     C 5533   7.449  10.916   5.142 -0.1373  0.5501  0.0715
  800MOL0     C 5534   7.537  10.941   5.041  0.4919 -0.3077 -0.6462
  800MOL0     H 5535   7.945  11.164   4.865  0.5942 -1.4005  1.4576
  800MOL0     H 5536   8.123  11.201   4.687  0.9611 -0.9493 -2.6306
  800MOL0     H 5537   8.085  11.061   4.282  4.2505  2.1748 -0.5822
  800MOL0     H 5538   8.128  10.893   4.342  0.1001 -0.3828  1.8451
  800MOL0     H 5539   8.365  10.955   4.348  0.9824 -0.1924 -1.5331
  800MOL0     H 5540   8.331  11.109   4.276  0.7173 -0.2688 -1.5039
  800MOL0     H 5541   8.238  11.019   4.059  2.2613  1.5569 -1.7752
  800MOL0     H 5542   8.231  10.862   4.132  1.7725 -0.3834 -0.3110
  800MOL0     H 5543   8.476  11.045   4.071 -1.1362  0.3383 -2.2965
  800MOL0     H 5544   8.498  10.876   4.135 -1.9271 -3.0569 -1.6506
  800MOL0     H 5545   8.373  10.998   3.897 -1.2977 -1.4863  1.0637
  800MOL0     H 5546   8.362  10.818   3.908 -2.2379  1.3718 -0.7812
  800MOL0     H 5547   8.631  10.967   3.925  1.3662 -2.1938  0.3756
  800MOL0     H 5548   8.557  10.982   3.774  0.8857  1.3744  0.9784
  800MOL0     H 5549   8.621  10.728   3.920 -3.6769 -2.6333 -0.3452
  800MOL0     H 5550   8.530  10.729   3.760  2.2409  0.5831 -1.8632
  800MOL0     H 5551   8.730  10.823   3.650  1.4049  0.4661  0.0306
  800MOL0     H 5552   8.736  10.662   3.725 -0.1318 -0.5366 -0.0586
  800MOL0     H 5553   8.861  11.009   3.819  0.6460 -0.4312  0.2809
  800MOL0     H 5554   9.166  10.957   4.059  1.8917  1.8495 -0.8131
  800MOL0     H 5555   9.026  11.083   4.070  1.0429  0.0578  0.7553
  800MOL0     H 5556   9.105  11.156   3.842  1.9463  0.9127 -1.1860
  800MOL0     H 5557   9.186  10.995   3.814 -0.1731  0.2688 -1.1940
  800MOL0     H 5558   9.275  11.197   4.022  0.6245  2.5520 -2.0052
  800MOL0     H 5559   9.363  11.048   3.962  0.2845 -0.2197 -0.4085
  800MOL0     H 5560   9.477  11.241   3.872  0.7999  1.0824 -1.8647
  800MOL0     H 5561   9.315  11.312   3.833  0.5170  0.5342 -3.8644
  800MOL0     H 5562   9.347  10.980   3.540 -0.2120 -1.1157  0.9876
  800MOL0     H 5563   9.510  10.802   3.464  0.9250 -1.3585  0.7507
  800MOL0     H 5564  10.058  10.720   3.833 -0.8886  1.0117 -0.6829
  800MOL0     H 5565  10.260  10.567   3.832  0.8775 -1.7168 -1.3923
  800MOL0     H 5566  10.458  10.598   3.675  2.8233 -0.5010  3.0031
  800MOL0     H 5567  10.541  10.469   3.596  1.1286 -2.9654  1.3011
  800MOL0     H 5568  10.371  10.398   3.831 -1.0635  1.0446 -0.0915
  800MOL0     H 5569  10.541  10.427   3.849  2.2186 -5.5992 -1.4348
  800MOL0     H 5570  10.427  10.216   3.673 -0.1485  0.0821 -0.2885
  800MOL0     H 5571  10.501  10.203   3.835  2.0529  0.8174  0.0620
  800MOL0     H 5572  10.662  10.288   3.593  0.9911 -2.2429 -0.8436
  800MOL0     H 5573  10.723  10.288   3.753  0.0703  0.6810  0.1765
  800MOL0     H 5574  10.583  10.036   3.649 -1.2542 -0.8547  4.6234
  800MOL0     H 5575  10.700  10.054   3.781  2.1388 -1.3318 -1.2759
  800MOL0     H 5576  10.783  10.115   3.488  1.5014 -2.3049 -0.8773
  800MOL0     H 5577  10.813   9.969   3.571 -0.4137  0.2690  1.1103
  800MOL0     H 5578  10.898  10.229   3.693 -0.8858  0.0939 -0.4126
  800MOL0     H 5579  10.950  10.066   3.727  1.5826  1.4340  0.8710
  800MOL0     H 5580  11.128  10.200   3.593 -0.9923  1.7789 -0.7753
  800MOL0     H 5581  11.020  10.201   3.459  3.1411 -2.1744 -1.3480
  800MOL0     H 5582  10.167  10.484   3.424  2.9565 -3.2716  3.1758
  800MOL0     H 5583   9.992  10.665   3.421  2.7981  1.5023 -0.6248
  800MOL0     H 5584   9.780  10.958   3.765  0.9652  2.1466 -1.1855
  800MOL0     H 5585   9.625  11.126   3.816 -0.9583  0.6881 -0.7496
  800MOL0     H 5586   7.944  10.876   4.458  2.5234  1.6862 -1.2885
  800MOL0     H 5587   7.769  10.855   4.615  2.7542 -3.0346 -0.9503
  800MOL0     H 5588   7.831  10.901   5.204  0.2214  0.3106 -1.7977
  800MOL0     H 5589   7.671  10.877   5.396  1.9271  0.9531 -0.5619
  800MOL0     H 5590   7.290  10.712   5.282 -0.9642 -1.3781  1.0592
  800MOL0     H 5591   7.215  10.860   5.277 -0.7610 -2.4498 -0.8394
  800MOL0     H 5592   7.193  10.850   5.537 -2.2589  0.6333 -0.5262
  800MOL0     H 5593   7.088  10.745   5.445  0.0100  0.8282  2.4271
  800MOL0     H 5594   7.342  10.653   5.602  0.6931  1.4458 -0.9281
  800MOL0     H 5595   7.293  10.591   5.457  4.2957  2.4082  1.1031
  800MOL0     H 5596   7.051  10.564   5.546 -0.2529 -2.3082  0.3424
  800MOL0     H 5597   7.157  10.469   5.643 -0.0279  1.3803  3.0897
  800MOL0     H 5598   7.009  10.775   5.896 -1.5578 -2.1408  0.0714
  800MOL0     H 5599   7.342  10.925   5.127 -0.0964 -0.3308 -0.7984
  800MOL0     H 5600   7.498  10.966   4.943 -1.9691  1.9958  0.7784
  801MOL0     O 5601   4.145   9.052   6.912  0.6033 -0.3398  0.3313
  801MOL0     C 5602   4.120   8.974   6.818 -0.2278 -0.8371  0.1903
  801MOL0     O 5603   4.006   8.959   6.756 -0.2203 -0.1684 -0.0767
  801MOL0     C 5604   3.919   9.065   6.778 -0.7737  0.3509 -0.0076
  801MOL0     C 5605   3.807   9.061   6.853  0.1668 -0.4265  0.8893
  801MOL0     C 5606   3.713   9.168   6.860 -0.1843  0.2914  0.2907
  801MOL0     C 5607   3.734   9.288   6.783  0.0394  0.4698  0.6466
  801MOL0     O 5608   3.639   9.385   6.790 -0.4816 -0.3268  0.1092
  801MOL0     C 5609   3.671   9.497   6.705  0.7334  0.4061 -0.1937
  801MOL0     C 5610   3.563   9.605   6.739 -0.5252  1.4413  0.8143
  801MOL0     C 5611   3.416   9.577   6.696 -0.4940  0.9033  0.2865
  801MOL0     C 5612   3.406   9.543   6.547  0.0014  0.2348  0.2108
  801MOL0     C 5613   3.264   9.525   6.487  0.2033 -0.1996  0.9102
  801MOL0     C 5614   3.280   9.515   6.333 -0.0831 -0.2429  0.8405
  801MOL0     C 5615   3.144   9.490   6.269 -0.5921  0.2051 -0.8528
  801MOL0     C 5616   3.109   9.348   6.283 -0.7975  0.7275 -0.5744
  801MOL0     N 5617   3.180   9.253   6.199 -0.4274  0.5992  0.3049
  801MOL0     C 5618   3.220   9.120   6.224 -0.2567  0.1503 -0.0109
  801MOL0     C 5619   3.274   9.078   6.105  0.2887 -0.0792  1.2897
  801MOL0     C 5620   3.324   8.933   6.070 -0.0224  0.0722  0.4376
  801MOL0     C 5621   3.237   8.843   5.981 -0.7304 -0.3956  0.0266
  801MOL0     C 5622   3.105   8.812   6.052  0.5943  0.2693  0.4635
  801MOL0     C 5623   3.008   8.767   5.937  0.0269  0.8931  0.3742
  801MOL0     O 5624   2.872   8.761   5.991  0.5776  0.6853  0.3725
  801MOL0     C 5625   2.756   8.818   5.925 -0.9454 -0.2838  0.0266
  801MOL0     C 5626   2.757   8.857   5.781  0.1608 -0.1680 -0.0827
  801MOL0     C 5627   2.644   8.905   5.713  0.1156  0.5720 -0.7028
  801MOL0     C 5628   2.519   8.896   5.782  0.1882  0.5020  0.0677
  801MOL0     C 5629   2.389   8.908   5.700 -0.2887  0.1857 -0.4227
  801MOL0     O 5630   2.272   8.900   5.763  0.1983 -0.5906 -0.5833
  801MOL0     C 5631   2.150   8.939   5.713  0.2366 -0.1951  0.4966
  801MOL0     C 5632   2.030   8.873   5.756  0.0861  0.9409  0.7012
  801MOL0     C 5633   1.903   8.920   5.712  0.4671 -0.1184  0.2134
  801MOL0     C 5634   1.891   9.031   5.626 -0.1221  0.1970  0.0390
  801MOL0     O 5635   1.768   9.078   5.574 -0.3839 -0.5519 -0.1923
  801MOL0     C 5636   1.652   9.004   5.616  0.4872 -1.0160  0.0024
  801MOL0     C 5637   1.529   9.038   5.538 -0.0704 -0.8476 -0.5097
  801MOL0     C 5638   1.402   8.973   5.592  0.0721 -0.4798  0.1238
  801MOL0     C 5639   1.273   9.015   5.511  0.6925 -0.3822 -0.5820
  801MOL0     C 5640   1.289   9.154   5.448 -0.4074 -0.6239  0.2360
  801MOL0     C 5641   1.158   9.206   5.387 -0.3149  0.5946  0.7707
  801MOL0     C 5642   1.051   9.234   5.495 -0.1344 -0.4124  0.1426
  801MOL0     C 5643   0.919   9.273   5.421  0.2736  0.2850 -0.0806
  801MOL0    Cl 5644   0.784   9.241   5.528  0.2720 -0.2983  0.2052
  801MOL0     C 5645   2.012   9.085   5.582  0.4588 -1.0524 -0.2656
  801MOL0     C 5646   2.133   9.048   5.626  0.4443  0.2477 -0.4555
  801MOL0     O 5647   2.408   8.929   5.578  0.3183 -0.3718 -0.1621
  801MOL0     C 5648   2.515   8.865   5.918 -0.2766 -0.1381  0.2850
  801MOL0     C 5649   2.627   8.838   5.986  0.4696 -0.1376  0.7672
  801MOL0     N 5650   3.274   9.186   6.010  0.5565 -0.3844 -0.5449
  801MOL0     N 5651   3.220   9.290   6.074  0.4225 -0.9980  0.5081
  801MOL0     C 5652   3.839   9.282   6.681  0.4024  0.0572  0.3060
  801MOL0     C 5653   3.936   9.176   6.688  0.0757  0.1868 -0.4471
  801MOL0     C 5654   4.238   8.913   6.750  0.1098  0.4212  0.0319
  801MOL0     C 5655   4.222   8.847   6.627  0.5439 -0.4373 -0.2953
  801MOL0     C 5656   4.339   8.800   6.554  0.1311  0.0779 -0.2818
  801MOL0     C 5657   4.474   8.824   6.608 -0.0981  0.2594  1.4917
  801MOL0     O 5658   4.580   8.768   6.538  0.3284  0.1608 -0.7051
  801MOL0     C 5659   4.712   8.797   6.582  0.0598  1.1856 -0.0225
  801MOL0     C 5660   4.805   8.743   6.477  0.2922  0.5317 -0.1140
  801MOL0     C 5661   4.810   8.804   6.339  0.3948 -0.9139  0.5889
  801MOL0     C 5662   4.869   8.944   6.339 -0.7099 -0.3173  0.1704
  801MOL0     C 5663   5.014   8.919   6.363 -0.3303  0.1998 -0.0787
  801MOL0     C 5664   5.129   8.890   6.388  0.7381 -0.2290 -0.5637
  801MOL0     C 5665   4.482   8.901   6.726  0.4602 -0.2955 -0.4861
  801MOL0     C 5666   4.366   8.943   6.792 -0.2312  0.0631  0.6112
  801MOL0     H 5667   3.786   8.969   6.906 -1.9165  1.2212  3.1245
  801MOL0     H 5668   3.622   9.163   6.920 -0.4866  0.6022 -0.1376
  801MOL0     H 5669   3.660   9.469   6.600 -1.2776  1.5777 -0.3497
  801MOL0     H 5670   3.772   9.533   6.730  0.4683  0.4412  0.8718
  801MOL0     H 5671   3.596   9.699   6.694 -3.3186  2.0230 -0.2345
  801MOL0     H 5672   3.565   9.622   6.847  0.0419  1.5298  0.7970
  801MOL0     H 5673   3.359   9.669   6.714 -1.8933  0.2676 -0.7017
  801MOL0     H 5674   3.377   9.495   6.758  0.4243 -0.7388 -1.2185
  801MOL0     H 5675   3.462   9.621   6.496  0.0301 -0.3573 -0.6952
  801MOL0     H 5676   3.462   9.451   6.527 -1.7835 -1.1336  1.1265
  801MOL0     H 5677   3.197   9.603   6.523  2.3491  2.4926 -0.5854
  801MOL0     H 5678   3.216   9.441   6.538 -1.9748  0.0607 -0.6133
  801MOL0     H 5679   3.348   9.434   6.305 -0.6693  0.2629 -2.3923
  801MOL0     H 5680   3.323   9.606   6.290  2.0311 -2.6237 -2.5237
  801MOL0     H 5681   3.082   9.559   6.328  1.5992  1.0821  0.5562
  801MOL0     H 5682   3.149   9.523   6.165  2.0632  3.5471  0.1453
  801MOL0     H 5683   3.004   9.356   6.254 -0.5025  1.4680 -1.5022
  801MOL0     H 5684   3.108   9.316   6.388 -0.6401 -2.3642 -1.4129
  801MOL0     H 5685   3.205   9.060   6.314 -0.9293 -1.9156 -1.4301
  801MOL0     H 5686   3.348   8.879   6.162 -0.7021 -1.5569 -0.3122
  801MOL0     H 5687   3.422   8.952   6.026  0.5138 -1.1317  1.0696
  801MOL0     H 5688   3.286   8.747   5.963 -1.2291 -0.9150  1.2965
  801MOL0     H 5689   3.232   8.905   5.892  2.8614 -1.5065 -1.1338
  801MOL0     H 5690   3.125   8.725   6.116  1.0855 -0.0366 -0.0995
  801MOL0     H 5691   3.066   8.895   6.112  1.8876 -0.2266  2.0966
  801MOL0     H 5692   3.039   8.667   5.905  0.3370  0.7335  1.1575
  801MOL0     H 5693   3.015   8.840   5.856  2.3266  0.9092  0.5161
  801MOL0     H 5694   2.851   8.857   5.726  0.7552  1.9890  0.8258
  801MOL0     H 5695   2.651   8.940   5.611 -1.1509  1.7504 -0.4164
  801MOL0     H 5696   2.027   8.794   5.830 -1.3868  2.0238  1.8679
  801MOL0     H 5697   1.812   8.879   5.754  0.2169  2.1792  2.0856
  801MOL0     H 5698   1.632   9.016   5.723  1.3449  3.6603 -0.1501
  801MOL0     H 5699   1.672   8.897   5.615 -0.2738 -1.1698  0.7332
  801MOL0     H 5700   1.533   9.008   5.433 -0.7291 -0.5162 -0.6368
  801MOL0     H 5701   1.521   9.146   5.551 -2.6977 -1.1657  1.2217
  801MOL0     H 5702   1.396   8.992   5.700  3.8949 -0.9754  0.5839
  801MOL0     H 5703   1.413   8.865   5.579 -0.2912 -0.4188 -0.7329
  801MOL0     H 5704   1.252   8.953   5.424  2.8756 -0.8839 -0.8222
  801MOL0     H 5705   1.184   9.027   5.574 -1.3352  3.1418 -3.7149
  801MOL0     H 5706   1.354   9.145   5.361 -2.1739  0.2164 -1.2556
  801MOL0     H 5707   1.334   9.231   5.511  0.0088  0.8411 -1.7188
  801MOL0     H 5708   1.120   9.127   5.322  4.0841 -0.0404 -1.3854
  801MOL0     H 5709   1.178   9.297   5.329 -0.3281  0.6071  0.7857
  801MOL0     H 5710   1.037   9.143   5.555  1.4717 -0.2655  0.7932
  801MOL0     H 5711   1.072   9.325   5.551 -0.3316  0.0278 -0.4857
  801MOL0     H 5712   0.894   9.214   5.332 -2.5086  1.2090 -0.0196
  801MOL0     H 5713   0.927   9.376   5.386  0.9719 -0.3360 -1.8660
  801MOL0     H 5714   2.009   9.176   5.522  1.3674  1.1536  2.7488
  801MOL0     H 5715   2.227   9.089   5.592  1.1397 -0.6410  0.3518
  801MOL0     H 5716   2.421   8.874   5.971  1.1297  1.0267  2.7050
  801MOL0     H 5717   2.611   8.829   6.093 -1.3025  3.7819  1.0141
  801MOL0     H 5718   3.853   9.353   6.600  1.3930 -0.3892  0.0780
  801MOL0     H 5719   4.021   9.174   6.621  1.3546  1.8746  1.0137
  801MOL0     H 5720   4.126   8.835   6.579  1.1306 -0.4368 -1.5284
  801MOL0     H 5721   4.333   8.734   6.468 -0.4427 -0.9722  0.5416
  801MOL0     H 5722   4.737   8.750   6.678 -2.3472  2.1925  1.2018
  801MOL0     H 5723   4.740   8.902   6.594  0.6377  0.9006  1.3990
  801MOL0     H 5724   4.906   8.748   6.519 -0.8542  2.0990  2.7386
  801MOL0     H 5725   4.784   8.636   6.468  0.2243  0.6326 -1.2749
  801MOL0     H 5726   4.706   8.808   6.306  0.2505  0.0020  1.1044
  801MOL0     H 5727   4.865   8.737   6.272 -0.1739 -1.0365  0.2380
  801MOL0     H 5728   4.852   8.999   6.246 -1.2891 -0.9689 -0.1190
  801MOL0     H 5729   4.825   9.009   6.416  1.1691  2.6975 -1.1079
  801MOL0     H 5730   5.225   8.862   6.426  0.0288 -0.6839  0.9803
  801MOL0     H 5731   4.573   8.918   6.783 -0.5664  1.0675  0.7868
  801MOL0     H 5732   4.379   9.018   6.870 -0.2885 -0.6395  1.3023
  802MOL0     O 5733   7.120   7.277   2.500  0.3851  0.1002 -0.3425
  802MOL0     C 5734   7.141   7.386   2.447 -0.1040  0.2228  0.6266
  802MOL0     O 5735   7.049   7.456   2.377  0.4428  0.9934  0.4773
  802MOL0     C 5736   6.920   7.415   2.376 -0.0934  0.4421 -0.1365
  802MOL0     C 5737   6.816   7.481   2.447  0.1270 -0.2577  0.3120
  802MOL0     C 5738   6.682   7.432   2.441 -0.0217 -0.5214 -0.5469
  802MOL0     C 5739   6.659   7.316   2.369  0.8699 -0.0259  0.6299
  802MOL0     O 5740   6.524   7.274   2.363 -0.1801 -0.1725  0.0035
  802MOL0     C 5741   6.500   7.137   2.325 -0.5333 -0.2753 -0.5428
  802MOL0     C 5742   6.381   7.077   2.411  0.9671 -0.2922 -0.0595
  802MOL0     C 5743   6.334   6.940   2.359 -0.1925  0.7715 -0.6221
  802MOL0     C 5744   6.212   6.893   2.439  0.5864 -0.7013 -0.0250
  802MOL0     C 5745   6.090   6.885   2.345  0.6495 -0.1591  0.6747
  802MOL0     C 5746   6.049   7.015   2.273  0.2763  0.4470 -0.2678
  802MOL0     C 5747   5.909   7.002   2.223  0.1988  0.2149  0.0665
  802MOL0     C 5748   5.890   6.886   2.131 -0.6323  0.7467  0.1945
  802MOL0     N 5749   5.762   6.896   2.065  0.5382  0.1629  0.6115
  802MOL0     C 5750   5.632   6.864   2.109 -0.5204 -0.2683  0.8296
  802MOL0     C 5751   5.559   6.894   1.996  0.8772  0.2813 -0.0283
  802MOL0     C 5752   5.410   6.901   1.987  0.1267  0.4063  0.0139
  802MOL0     C 5753   5.332   6.799   1.904 -0.3499 -0.7431  0.1915
  802MOL0     C 5754   5.267   6.683   1.983  0.2155 -0.8567  1.0119
  802MOL0     C 5755   5.354   6.561   2.028 -0.5838 -0.1750  0.0270
  802MOL0     O 5756   5.474   6.566   1.944  0.3386  0.4124 -0.2443
  802MOL0     C 5757   5.566   6.470   1.978 -0.9697 -0.5199 -0.3111
  802MOL0     C 5758   5.545   6.375   2.079 -0.1230 -0.3781  0.1028
  802MOL0     C 5759   5.642   6.293   2.118  0.8673  0.5082 -0.2698
  802MOL0     C 5760   5.763   6.297   2.062  0.0938  0.5729 -0.3016
  802MOL0     C 5761   5.868   6.200   2.096 -0.6999  0.1650 -0.1893
  802MOL0     O 5762   5.858   6.148   2.226 -0.1621  0.2398 -0.7821
  802MOL0     C 5763   5.938   6.044   2.266  0.6373 -0.2232  0.5558
  802MOL0     C 5764   5.891   5.920   2.299  0.7463  0.5158  0.8097
  802MOL0     C 5765   5.981   5.820   2.341  0.4871  0.3167 -0.5597
  802MOL0     C 5766   6.116   5.845   2.360  0.7450 -0.2794 -1.0241
  802MOL0     O 5767   6.182   5.738   2.408 -0.4200 -0.0041  0.3652
  802MOL0     C 5768   6.318   5.762   2.447 -0.0843 -0.0641 -0.6943
  802MOL0     C 5769   6.372   5.634   2.508  0.5205  0.9200 -0.3107
  802MOL0     C 5770   6.520   5.640   2.536 -0.5355 -0.6965 -0.4292
  802MOL0     C 5771   6.561   5.546   2.646 -1.1301  0.4085  0.4560
  802MOL0     C 5772   6.709   5.500   2.632  0.4367  0.1119  0.2962
  802MOL0     C 5773   6.747   5.439   2.489  0.9741  0.3520 -1.0974
  802MOL0     C 5774   6.831   5.303   2.503 -0.7100 -0.3642 -0.3122
  802MOL0     C 5775   6.961   5.315   2.593 -0.9439  0.3825 -0.2184
  802MOL0    Cl 5776   7.032   5.153   2.592  0.0540  0.1521  0.0930
  802MOL0     C 5777   6.157   5.974   2.326 -0.4434  0.1426  0.3274
  802MOL0     C 5778   6.072   6.078   2.279 -0.1746  0.4836  0.4416
  802MOL0     O 5779   5.966   6.184   2.022 -0.5510  0.6380  0.1247
  802MOL0     C 5780   5.791   6.395   1.969  0.2249 -0.3680  0.2221
  802MOL0     C 5781   5.691   6.482   1.929  0.6340  0.6340  0.3887
  802MOL0     N 5782   5.644   6.932   1.892  0.5044 -1.0338 -0.1528
  802MOL0     N 5783   5.764   6.921   1.928 -0.4948 -1.0463  0.8831
  802MOL0     C 5784   6.763   7.258   2.296  0.5900  0.1732 -0.2767
  802MOL0     C 5785   6.889   7.302   2.308 -0.4381 -0.2251  0.3192
  802MOL0     C 5786   7.270   7.446   2.462 -0.6964  0.0891 -0.7659
  802MOL0     C 5787   7.352   7.408   2.563 -0.3745 -0.2985 -1.1523
  802MOL0     C 5788   7.484   7.466   2.571 -0.3743  0.2453 -1.1574
  802MOL0     C 5789   7.527   7.560   2.478 -2.0243  0.0760  0.1531
  802MOL0     O 5790   7.661   7.608   2.481  0.0201 -0.3884 -0.1805
  802MOL0     C 5791   7.756   7.553   2.570 -0.4127 -0.4989 -0.0238
  802MOL0     C 5792   7.888   7.636   2.542 -0.6241  0.6010 -0.7451
  802MOL0     C 5793   7.960   7.611   2.405 -0.5935 -1.1258 -0.0333
  802MOL0     C 5794   8.097   7.666   2.382  0.3224 -0.1652 -0.0390
  802MOL0     C 5795   8.122   7.803   2.421 -0.0398  0.7536 -1.7085
  802MOL0     C 5796   8.134   7.920   2.454 -0.8607 -0.0510 -0.4050
  802MOL0     C 5797   7.437   7.591   2.374  0.1218  0.1456  0.6812
  802MOL0     C 5798   7.312   7.529   2.365 -0.4625 -0.3714 -0.4534
  802MOL0     H 5799   6.833   7.575   2.498  1.2004 -1.0508  1.4697
  802MOL0     H 5800   6.611   7.500   2.487  0.7707  1.3274 -1.9245
  802MOL0     H 5801   6.590   7.078   2.347 -1.5304 -2.7407 -2.5639
  802MOL0     H 5802   6.477   7.124   2.219 -0.3448  0.0592 -0.6247
  802MOL0     H 5803   6.291   7.139   2.404 -0.5159 -1.9348  2.7636
  802MOL0     H 5804   6.399   7.082   2.519 -0.0509  3.0079  0.0624
  802MOL0     H 5805   6.413   6.866   2.372 -1.9834 -1.2729 -0.6690
  802MOL0     H 5806   6.304   6.955   2.255 -0.3195  2.1086 -0.4100
  802MOL0     H 5807   6.226   6.791   2.477 -1.0107  0.3445  3.8441
  802MOL0     H 5808   6.188   6.951   2.528  1.4163  0.7330 -0.7015
  802MOL0     H 5809   6.010   6.863   2.416  0.2205  1.5350  0.7728
  802MOL0     H 5810   6.102   6.800   2.277 -1.0734  1.5448 -1.9275
  802MOL0     H 5811   6.118   7.031   2.190  3.2825  0.1198  2.0127
  802MOL0     H 5812   6.066   7.100   2.340 -0.3783 -2.2839  3.7585
  802MOL0     H 5813   5.836   7.008   2.305 -1.5775  1.5885 -1.5388
  802MOL0     H 5814   5.883   7.080   2.152  2.3132 -1.7536 -3.1475
  802MOL0     H 5815   5.898   6.791   2.185 -0.9348 -0.2121 -1.4051
  802MOL0     H 5816   5.970   6.885   2.056 -2.7616 -0.8581 -2.2082
  802MOL0     H 5817   5.594   6.845   2.209 -2.5505  1.3464  0.4177
  802MOL0     H 5818   5.401   7.002   1.947  1.3114  0.8275  0.7755
  802MOL0     H 5819   5.363   6.894   2.085  2.8413  1.8805  1.5341
  802MOL0     H 5820   5.396   6.748   1.831 -0.5513 -0.1569 -0.4116
  802MOL0     H 5821   5.264   6.868   1.854  0.8576 -0.9505 -1.8694
  802MOL0     H 5822   5.216   6.721   2.072 -2.6520  1.1863 -1.3434
  802MOL0     H 5823   5.189   6.649   1.915  1.3000  0.2299 -0.8487
  802MOL0     H 5824   5.291   6.474   2.008 -1.1434  0.7914 -3.0459
  802MOL0     H 5825   5.392   6.572   2.130  1.9376  3.6277 -1.0786
  802MOL0     H 5826   5.449   6.358   2.125 -0.1172 -2.3112 -0.5135
  802MOL0     H 5827   5.616   6.211   2.184 -1.3576 -0.8780 -2.6863
  802MOL0     H 5828   5.785   5.904   2.281  0.7073  1.2037  0.4360
  802MOL0     H 5829   5.945   5.720   2.364  2.9174 -0.7261 -1.0053
  802MOL0     H 5830   6.327   5.839   2.525  2.8066 -0.0414 -0.9717
  802MOL0     H 5831   6.381   5.796   2.365  3.3818  0.7749  2.0873
  802MOL0     H 5832   6.364   5.555   2.433  0.3441 -0.6290  1.2675
  802MOL0     H 5833   6.320   5.617   2.603  0.9363  0.1723 -0.2126
  802MOL0     H 5834   6.541   5.742   2.570  1.3001 -1.9432  2.5103
  802MOL0     H 5835   6.575   5.637   2.442 -0.2655  0.0091 -0.3036
  802MOL0     H 5836   6.528   5.587   2.742 -1.7130  0.1373  0.3769
  802MOL0     H 5837   6.494   5.460   2.634 -0.1651 -0.5863  1.8664
  802MOL0     H 5838   6.731   5.423   2.707 -0.7236 -0.4423  0.0911
  802MOL0     H 5839   6.779   5.580   2.657  4.0054 -2.3143 -1.2600
  802MOL0     H 5840   6.795   5.518   2.431  0.3922  0.6308 -1.2063
  802MOL0     H 5841   6.653   5.417   2.437  1.8554 -3.4081 -1.3758
  802MOL0     H 5842   6.761   5.232   2.548 -0.5226 -0.9777 -0.9548
  802MOL0     H 5843   6.861   5.270   2.403 -0.5043 -2.2700  0.3388
  802MOL0     H 5844   6.936   5.353   2.693  0.8902  1.5547 -0.1548
  802MOL0     H 5845   7.026   5.389   2.546  2.5800 -1.8728  0.7955
  802MOL0     H 5846   6.259   6.010   2.340 -1.0544  3.3841 -2.1157
  802MOL0     H 5847   6.130   6.166   2.254  1.9022 -0.8632  0.2362
  802MOL0     H 5848   5.893   6.414   1.937  0.5030 -1.4598  0.4313
  802MOL0     H 5849   5.716   6.563   1.861  1.6648 -0.4442 -0.5557
  802MOL0     H 5850   6.729   7.177   2.232 -2.5283 -0.7501  2.3283
  802MOL0     H 5851   6.962   7.248   2.249 -1.8098 -0.2584 -1.4149
  802MOL0     H 5852   7.329   7.328   2.633 -0.9644  0.8578  0.0048
  802MOL0     H 5853   7.550   7.413   2.639 -0.2468  3.1492  1.2370
  802MOL0     H 5854   7.781   7.448   2.553  3.7624  0.1137  1.1121
  802MOL0     H 5855   7.719   7.559   2.673 -0.4520 -0.0449 -0.0627
  802MOL0     H 5856   7.863   7.743   2.543 -0.3727  0.7103 -2.4139
  802MOL0     H 5857   7.958   7.619   2.624 -1.6510 -3.8725 -0.5850
  802MOL0     H 5858   7.895   7.659   2.330  0.0499 -1.9713 -1.1625
  802MOL0     H 5859   7.965   7.505   2.379  0.6875 -0.9174 -0.7119
  802MOL0     H 5860   8.178   7.607   2.426  0.2253  0.8780  1.6190
  802MOL0     H 5861   8.121   7.653   2.276 -0.6092 -0.3662 -0.2390
  802MOL0     H 5862   8.160   8.023   2.465 -1.6384 -0.0700  2.0354
  802MOL0     H 5863   7.465   7.667   2.302 -0.7151  0.6434  0.8577
  802MOL0     H 5864   7.240   7.562   2.291 -0.8353  1.5998  0.7079
  803MOL0     O 5865   8.461  10.948   8.853 -0.7218  0.0459 -0.2060
  803MOL0     C 5866   8.475  10.849   8.920  0.9451  0.6001 -0.1610
  803MOL0     O 5867   8.376  10.794   8.994 -0.1687  0.0439  0.0500
  803MOL0     C 5868   8.255  10.861   9.019 -0.6002  0.4021  0.0670
  803MOL0     C 5869   8.237  11.001   9.024  0.5618  1.1150 -0.3085
  803MOL0     C 5870   8.113  11.059   9.038  0.2439  0.5490  0.3563
  803MOL0     C 5871   7.997  10.980   9.039 -0.3913  1.0241  0.0142
  803MOL0     O 5872   7.866  11.016   9.036 -0.5563 -0.8355 -0.6960
  803MOL0     C 5873   7.845  11.155   9.071  0.0110  0.5669 -0.0082
  803MOL0     C 5874   7.724  11.154   9.167  0.2623 -0.2369 -0.5401
  803MOL0     C 5875   7.587  11.129   9.102 -1.1817  0.4619 -0.0078
  803MOL0     C 5876   7.465  11.180   9.178 -0.7608  0.1594 -0.1321
  803MOL0     C 5877   7.460  11.332   9.175  0.5228 -0.3548  0.0496
  803MOL0     C 5878   7.327  11.385   9.246 -1.0431  0.3981  0.4382
  803MOL0     C 5879   7.270  11.303   9.364 -0.0338 -0.6453  0.2576
  803MOL0     C 5880   7.167  11.192   9.338 -0.5719  0.5757  0.0829
  803MOL0     N 5881   7.050  11.231   9.261 -0.0249  0.0693 -0.7128
  803MOL0     C 5882   6.945  11.146   9.237 -0.7203  0.1894  0.1239
  803MOL0     C 5883   6.861  11.194   9.139  0.0127 -0.1439 -0.5550
  803MOL0     C 5884   6.728  11.139   9.081  0.0799 -0.4747  0.0398
  803MOL0     C 5885   6.612  11.219   9.134 -0.2377  0.0886 -0.4827
  803MOL0     C 5886   6.595  11.362   9.066 -0.5863 -0.0413  0.1548
  803MOL0     C 5887   6.507  11.454   9.158 -0.4110 -0.2345  0.4908
  803MOL0     O 5888   6.385  11.392   9.181  0.4745 -0.6644 -0.2931
  803MOL0     C 5889   6.289  11.401   9.086 -0.6587  0.1680  0.4854
  803MOL0     C 5890   6.162  11.387   9.133 -0.3764 -0.1742 -0.2238
  803MOL0     C 5891   6.054  11.388   9.051  0.6597 -0.2357  0.3339
  803MOL0     C 5892   6.060  11.389   8.907  0.3057 -0.7958 -0.7554
  803MOL0     C 5893   5.940  11.381   8.822  0.5976 -0.0395 -0.1483
  803MOL0     O 5894   5.960  11.392   8.691  0.2185 -0.3269  0.3917
  803MOL0     C 5895   5.866  11.402   8.599 -0.3502 -0.2601  0.3000
  803MOL0     C 5896   5.794  11.293   8.558  0.1471  0.3057  0.8491
  803MOL0     C 5897   5.705  11.298   8.447 -0.0875 -0.8487 -0.6960
  803MOL0     C 5898   5.687  11.419   8.380 -0.2804  0.2528  0.1200
  803MOL0     O 5899   5.603  11.405   8.277 -0.5799 -0.3686  0.3347
  803MOL0     C 5900   5.549  11.529   8.232  0.2624  0.7023  1.3583
  803MOL0     C 5901   5.455  11.503   8.110 -0.1489 -0.3725  0.2825
  803MOL0     C 5902   5.325  11.437   8.152  0.0546 -0.5527  0.3077
  803MOL0     C 5903   5.246  11.407   8.032  0.0318  0.6034  0.5288
  803MOL0     C 5904   5.135  11.308   8.066 -0.0205 -0.2422  0.2500
  803MOL0     C 5905   5.180  11.163   8.079  0.3817  0.3704  0.1943
  803MOL0     C 5906   5.062  11.068   8.115  0.3466 -0.0555  0.2878
  803MOL0     C 5907   4.980  11.121   8.226  0.3176  0.1351  0.3926
  803MOL0    Cl 5908   4.884  10.995   8.299  0.6315 -0.2470 -0.2494
  803MOL0     C 5909   5.759  11.530   8.417  0.2785 -0.2915 -0.1577
  803MOL0     C 5910   5.840  11.529   8.531  0.2213  0.8202 -0.3528
  803MOL0     O 5911   5.837  11.352   8.882 -0.2856  0.2146 -0.2321
  803MOL0     C 5912   6.189  11.420   8.863  0.7724  0.3480  0.1584
  803MOL0     C 5913   6.294  11.429   8.950 -0.9095 -0.3923  0.4324
  803MOL0     N 5914   6.918  11.319   9.110 -0.2129  0.3305  0.0769
  803MOL0     N 5915   7.025  11.336   9.177 -0.5505  0.3133  0.0614
  803MOL0     C 5916   8.017  10.841   9.044  0.5033  0.1555 -0.0726
  803MOL0     C 5917   8.144  10.781   9.038  0.0031  0.6003  0.4459
  803MOL0     C 5918   8.611  10.800   8.939 -0.2386 -0.4886 -0.2353
  803MOL0     C 5919   8.708  10.852   8.858 -1.0699  0.3271  0.3918
  803MOL0     C 5920   8.838  10.802   8.868 -0.2093  0.0529 -0.0209
  803MOL0     C 5921   8.868  10.690   8.955 -0.3018  1.1458  0.5749
  803MOL0     O 5922   9.001  10.641   8.948  0.6017  0.3873  0.1036
  803MOL0     C 5923   9.037  10.515   9.008  0.2969 -0.1093 -0.1187
  803MOL0     C 5924   9.157  10.463   8.938 -0.3460  1.3885 -0.2212
  803MOL0     C 5925   9.229  10.337   8.992 -0.4643  0.8684 -0.3086
  803MOL0     C 5926   9.361  10.314   8.920  0.1138  0.3273  0.5072
  803MOL0     C 5927   9.364  10.317   8.772  0.0086  0.2686 -0.6403
  803MOL0     C 5928   9.383  10.310   8.655 -0.3415 -1.0215 -0.4198
  803MOL0     C 5929   8.764  10.638   9.021  1.5372  0.4845 -0.5226
  803MOL0     C 5930   8.639  10.686   9.023  0.2608 -0.6257  1.1551
  803MOL0     H 5931   8.328  11.058   9.008  0.7974  0.9489  0.3991
  803MOL0     H 5932   8.104  11.166   9.019 -0.8586  0.2349 -1.1042
  803MOL0     H 5933   7.829  11.209   8.977  2.8173 -0.5645 -1.2719
  803MOL0     H 5934   7.924  11.197   9.135 -0.1148  0.3010  0.3247
  803MOL0     H 5935   7.739  11.244   9.227  2.0976  0.9663 -2.6622
  803MOL0     H 5936   7.734  11.076   9.243  0.9242  1.1272  0.8184
  803MOL0     H 5937   7.577  11.020   9.099  3.3501 -0.2992  2.7184
  803MOL0     H 5938   7.586  11.179   9.005 -4.1197 -0.1563 -0.3876
  803MOL0     H 5939   7.373  11.144   9.131 -1.1382 -0.5516  1.1077
  803MOL0     H 5940   7.477  11.139   9.279 -0.0831  0.7370  0.0327
  803MOL0     H 5941   7.443  11.357   9.069 -0.4835 -0.6705  0.1233
  803MOL0     H 5942   7.554  11.383   9.195 -0.1393  1.4131 -1.1277
  803MOL0     H 5943   7.257  11.403   9.163  0.1131 -0.1284 -0.6854
  803MOL0     H 5944   7.371  11.477   9.285  0.1708  0.1047 -0.1904
  803MOL0     H 5945   7.350  11.264   9.428  1.2169 -0.3794 -1.0821
  803MOL0     H 5946   7.221  11.377   9.428 -1.5595  0.1204 -1.6967
  803MOL0     H 5947   7.130  11.158   9.435  1.4945  0.5284  0.8900
  803MOL0     H 5948   7.216  11.112   9.283 -0.8197  1.2888 -1.2183
  803MOL0     H 5949   6.923  11.047   9.277 -0.3335 -0.2297 -0.6758
  803MOL0     H 5950   6.723  11.031   9.099  3.4490 -0.7667 -0.1852
  803MOL0     H 5951   6.728  11.153   8.973 -1.5076 -2.1107 -0.2253
  803MOL0     H 5952   6.633  11.232   9.240 -0.1838  2.6849 -0.7537
  803MOL0     H 5953   6.523  11.157   9.121  0.1597 -0.6952  0.3560
  803MOL0     H 5954   6.695  11.405   9.050  0.2324 -1.7892  0.3287
  803MOL0     H 5955   6.554  11.343   8.966 -3.2985 -2.1571  1.5463
  803MOL0     H 5956   6.491  11.554   9.117  0.8837 -0.6902 -1.2504
  803MOL0     H 5957   6.559  11.458   9.254  0.0836  0.9747  0.1960
  803MOL0     H 5958   6.152  11.371   9.240  0.4826 -1.8199 -0.3519
  803MOL0     H 5959   5.953  11.391   9.092  0.0222  1.8425 -1.1906
  803MOL0     H 5960   5.814  11.193   8.595 -1.0391 -0.2975 -0.0600
  803MOL0     H 5961   5.645  11.209   8.433  0.3644 -0.7902 -3.3579
  803MOL0     H 5962   5.627  11.602   8.207 -1.9860  2.0517 -2.4486
  803MOL0     H 5963   5.488  11.571   8.313 -0.2945  2.2827  0.1707
  803MOL0     H 5964   5.515  11.450   8.035  0.9443 -0.5590  1.2517
  803MOL0     H 5965   5.428  11.601   8.069  2.1198  0.1680 -0.1031
  803MOL0     H 5966   5.269  11.500   8.223  0.7638  0.0733  0.3235
  803MOL0     H 5967   5.357  11.343   8.198 -0.3724 -0.0702  1.6399
  803MOL0     H 5968   5.196  11.496   7.991  0.2076 -0.2281 -1.6355
  803MOL0     H 5969   5.292  11.362   7.943  2.9640  3.8782  0.1785
  803MOL0     H 5970   5.070  11.303   7.978  0.1638 -1.4094  0.1627
  803MOL0     H 5971   5.079  11.350   8.150 -1.7109  0.3480 -1.1063
  803MOL0     H 5972   5.272  11.150   8.136  1.1388  0.6995 -0.9056
  803MOL0     H 5973   5.208  11.127   7.980  0.1920  1.6602 -0.3563
  803MOL0     H 5974   4.991  11.053   8.033 -1.3616  0.7753  1.5342
  803MOL0     H 5975   5.114  10.973   8.127  0.1859 -0.5630 -2.4794
  803MOL0     H 5976   4.925  11.211   8.198  2.8710  2.3395  2.0123
  803MOL0     H 5977   5.050  11.160   8.299  0.3718  0.8871 -0.0490
  803MOL0     H 5978   5.769  11.621   8.359 -1.2891  0.5722  0.8609
  803MOL0     H 5979   5.905  11.610   8.565  2.0820 -0.7434 -0.0089
  803MOL0     H 5980   6.195  11.425   8.754 -1.5108  1.6042  0.0170
  803MOL0     H 5981   6.393  11.458   8.916 -0.2577  0.4679  2.8413
  803MOL0     H 5982   7.938  10.770   9.063  2.9259 -2.8075 -0.3418
  803MOL0     H 5983   8.143  10.673   9.054 -1.5857  0.6254  0.6912
  803MOL0     H 5984   8.687  10.921   8.777 -0.7587 -1.3969 -1.2284
  803MOL0     H 5985   8.912  10.854   8.808 -2.1707  3.8119  0.5114
  803MOL0     H 5986   8.955  10.444   8.992  1.3136 -1.3365 -0.0536
  803MOL0     H 5987   9.056  10.530   9.114 -0.8278 -2.4072  0.4592
  803MOL0     H 5988   9.127  10.435   8.837 -2.2582 -0.3913  0.7813
  803MOL0     H 5989   9.230  10.544   8.929  2.7226 -1.3173 -1.7648
  803MOL0     H 5990   9.170  10.250   8.963 -0.2545  1.1511 -1.6087
  803MOL0     H 5991   9.238  10.341   9.101 -0.1550  2.0164 -0.3592
  803MOL0     H 5992   9.426  10.398   8.947  0.1930  0.7514 -0.9360
  803MOL0     H 5993   9.396  10.214   8.948 -4.2693 -2.2530 -2.1048
  803MOL0     H 5994   9.400  10.302   8.550 -1.6177  0.0668 -0.7384
  803MOL0     H 5995   8.768  10.553   9.088 -1.1260  1.0402  0.4678
  803MOL0     H 5996   8.565  10.632   9.081 -1.0232  0.8850  1.0137
  804MOL0     O 5997   5.476   4.441   0.755 -0.4585  0.1636 -0.2016
  804MOL0     C 5998   5.475   4.423   0.635  0.9052 -0.3599 -0.0569
  804MOL0     O 5999   5.358   4.403   0.564 -0.5470  0.1507 -0.3868
  804MOL0     C 6000   5.235   4.392   0.630  0.1282  0.5656  0.1869
  804MOL0     C 6001   5.176   4.264   0.656  0.6630 -0.1379  0.1475
  804MOL0     C 6002   5.049   4.252   0.711  0.5788 -0.1785  0.3535
  804MOL0     C 6003   4.984   4.376   0.756 -0.1575 -0.8422 -0.5086
  804MOL0     O 6004   4.865   4.386   0.815 -0.5822  0.3417  0.6100
  804MOL0     C 6005   4.835   4.277   0.902  0.1956  0.0704  0.4375
  804MOL0     C 6006   4.719   4.323   0.981 -0.2056  0.0988  0.2879
  804MOL0     C 6007   4.760   4.444   1.068  1.0065 -0.3684 -0.9187
  804MOL0     C 6008   4.628   4.481   1.144 -0.1815  0.6281 -0.0404
  804MOL0     C 6009   4.662   4.583   1.257  0.4400 -0.4699  0.7660
  804MOL0     C 6010   4.535   4.652   1.293  0.4466 -0.2642  0.7821
  804MOL0     C 6011   4.555   4.733   1.419 -0.2853  0.5896 -0.1016
  804MOL0     C 6012   4.446   4.707   1.522  0.7983 -0.3978 -0.7194
  804MOL0     N 6013   4.319   4.772   1.478 -0.1082  0.2591 -0.0921
  804MOL0     C 6014   4.210   4.709   1.429 -0.0303  0.2317  0.4626
  804MOL0     C 6015   4.106   4.799   1.439  0.5593  0.0065  0.2682
  804MOL0     C 6016   3.959   4.794   1.396 -0.1330 -0.1360 -0.1035
  804MOL0     C 6017   3.854   4.829   1.509  0.1622  0.9382  0.6720
  804MOL0     C 6018   3.717   4.802   1.459 -0.1883  0.1569  0.0682
  804MOL0     C 6019   3.618   4.781   1.571 -0.2557  0.4061  0.1301
  804MOL0     O 6020   3.483   4.774   1.522  0.5172  0.1272  0.3983
  804MOL0     C 6021   3.384   4.769   1.610 -0.7986 -0.5056 -1.2187
  804MOL0     C 6022   3.374   4.707   1.739 -0.6791  0.9360  0.4608
  804MOL0     C 6023   3.256   4.710   1.817 -0.2263  0.6043  0.0456
  804MOL0     C 6024   3.139   4.777   1.771 -0.5501 -0.4391  0.3066
  804MOL0     C 6025   3.020   4.768   1.862 -0.6698 -0.2086  0.6396
  804MOL0     O 6026   3.043   4.770   1.993 -0.6087  0.1155 -0.0422
  804MOL0     C 6027   2.939   4.738   2.073  0.6201  0.2251  0.3118
  804MOL0     C 6028   2.915   4.822   2.177 -0.4307  0.3104 -1.0759
  804MOL0     C 6029   2.813   4.803   2.267 -0.0477 -0.0841  0.3410
  804MOL0     C 6030   2.731   4.681   2.268 -0.1358 -0.4719  0.4800
  804MOL0     O 6031   2.643   4.665   2.364  0.0199 -0.0755 -0.2565
  804MOL0     C 6032   2.538   4.567   2.362 -0.1878  0.3104  0.1093
  804MOL0     C 6033   2.457   4.577   2.492 -0.4044  0.5916 -0.2853
  804MOL0     C 6034   2.343   4.480   2.484  0.2978 -0.2490  0.0209
  804MOL0     C 6035   2.273   4.478   2.618  0.3415 -0.6595 -0.2873
  804MOL0     C 6036   2.199   4.339   2.632  0.0537 -0.2988  0.6590
  804MOL0     C 6037   2.090   4.313   2.526 -0.9105 -0.7618 -0.3000
  804MOL0     C 6038   1.991   4.212   2.572 -0.6440 -0.5681 -0.1844
  804MOL0     C 6039   1.867   4.217   2.489 -0.1124 -0.3713 -0.7131
  804MOL0    Cl 6040   1.876   4.158   2.321 -0.2289 -0.2285 -0.0570
  804MOL0     C 6041   2.760   4.597   2.169  0.0595  0.8644 -0.0776
  804MOL0     C 6042   2.855   4.625   2.072  0.1823  0.0108  0.6732
  804MOL0     O 6043   2.912   4.779   1.804 -0.1751 -0.3875  0.2690
  804MOL0     C 6044   3.143   4.842   1.646 -0.4496  1.0048  0.4964
  804MOL0     C 6045   3.255   4.826   1.568 -0.2251 -0.8243  0.2757
  804MOL0     N 6046   4.162   4.919   1.490 -0.8704  0.1494  0.3440
  804MOL0     N 6047   4.296   4.903   1.503  0.5632 -0.0850 -0.9266
  804MOL0     C 6048   5.057   4.497   0.736  0.2643 -0.0516  0.8513
  804MOL0     C 6049   5.177   4.507   0.666  0.7150 -0.5491  0.9602
  804MOL0     C 6050   5.592   4.444   0.558 -0.5197 -0.7514  0.2723
  804MOL0     C 6051   5.582   4.470   0.424  0.3269 -0.0545 -0.0859
  804MOL0     C 6052   5.704   4.488   0.347 -1.0052 -0.7315  1.0064
  804MOL0     C 6053   5.829   4.478   0.411  0.1433 -0.2077  0.6127
  804MOL0     O 6054   5.955   4.482   0.356  0.1243 -0.4021  0.4118
  804MOL0     C 6055   5.969   4.475   0.217  0.0488 -0.1474  0.1721
  804MOL0     C 6056   6.115   4.504   0.165  0.1445 -0.3570  0.6946
  804MOL0     C 6057   6.224   4.426   0.241 -0.8800  0.1618  0.1053
  804MOL0     C 6058   6.264   4.481   0.379 -0.6420  1.3575  0.4391
  804MOL0     C 6059   6.325   4.611   0.385  0.0464 -0.3116 -0.5752
  804MOL0     C 6060   6.369   4.723   0.380 -0.0271  0.8928 -0.2016
  804MOL0     C 6061   5.835   4.463   0.544  0.4352 -0.3309  0.0925
  804MOL0     C 6062   5.720   4.450   0.624 -0.1701 -0.4140  0.5271
  804MOL0     H 6063   5.229   4.172   0.634 -0.3849 -0.7350  0.0558
  804MOL0     H 6064   5.021   4.150   0.736  0.6091  0.5060  3.7778
  804MOL0     H 6065   4.914   4.263   0.976 -0.8719 -2.0840  1.2451
  804MOL0     H 6066   4.810   4.189   0.842  1.4848  1.9267 -3.1377
  804MOL0     H 6067   4.699   4.240   1.050 -1.2944  0.9617  1.0671
  804MOL0     H 6068   4.632   4.349   0.921  0.4416 -0.1883 -0.8021
  804MOL0     H 6069   4.800   4.529   1.011 -0.5400  1.8706  1.1397
  804MOL0     H 6070   4.838   4.419   1.141  0.5164 -1.0021 -0.6082
  804MOL0     H 6071   4.563   4.522   1.066 -3.5709 -2.7066  0.7241
  804MOL0     H 6072   4.579   4.390   1.180  0.5270 -0.1659 -1.0037
  804MOL0     H 6073   4.740   4.656   1.233  0.9465 -0.6834  1.7320
  804MOL0     H 6074   4.708   4.529   1.340  1.8175  0.2374  0.5043
  804MOL0     H 6075   4.458   4.576   1.306  0.6186 -0.2088  2.2163
  804MOL0     H 6076   4.509   4.715   1.207  1.4957  0.1742  0.7720
  804MOL0     H 6077   4.654   4.714   1.461  0.2837  3.3387 -0.0183
  804MOL0     H 6078   4.553   4.838   1.387 -0.6745  0.0590 -1.9016
  804MOL0     H 6079   4.472   4.747   1.620 -2.7423 -0.3967  0.3509
  804MOL0     H 6080   4.445   4.598   1.534  0.1888 -0.1200  2.5077
  804MOL0     H 6081   4.206   4.610   1.385 -1.1611  1.1778 -1.7237
  804MOL0     H 6082   3.937   4.693   1.360 -1.5930  1.2059 -3.3964
  804MOL0     H 6083   3.944   4.860   1.310  1.1922  1.0502  0.5254
  804MOL0     H 6084   3.867   4.930   1.549 -1.2382  2.2751 -2.0004
  804MOL0     H 6085   3.883   4.765   1.593  0.7175 -0.5894 -0.6432
  804MOL0     H 6086   3.676   4.870   1.384 -3.4906 -0.2740  1.3329
  804MOL0     H 6087   3.715   4.705   1.409 -1.0897  1.0880 -1.8064
  804MOL0     H 6088   3.637   4.855   1.648  2.4813 -0.3853  0.3341
  804MOL0     H 6089   3.640   4.685   1.619 -0.9694 -0.3621 -1.0323
  804MOL0     H 6090   3.459   4.645   1.765 -0.6986  0.1447 -1.2052
  804MOL0     H 6091   3.260   4.644   1.904  2.0289  0.7989  0.1520
  804MOL0     H 6092   2.984   4.905   2.189  0.8054 -0.8153 -0.1711
  804MOL0     H 6093   2.795   4.875   2.347 -0.2433 -2.5646  2.6719
  804MOL0     H 6094   2.577   4.467   2.338 -2.5323 -0.1682 -2.2294
  804MOL0     H 6095   2.475   4.587   2.275  2.3016 -3.1954 -2.8275
  804MOL0     H 6096   2.404   4.672   2.506 -4.9373 -1.6776 -0.0966
  804MOL0     H 6097   2.522   4.557   2.578 -0.1748 -2.1164 -0.9874
  804MOL0     H 6098   2.388   4.382   2.465  4.1725  1.2407  0.7124
  804MOL0     H 6099   2.270   4.512   2.410 -2.4123 -1.3339  2.0199
  804MOL0     H 6100   2.352   4.486   2.693  2.3862  2.5966 -2.5673
  804MOL0     H 6101   2.202   4.561   2.620 -1.5706 -2.1978 -0.0409
  804MOL0     H 6102   2.159   4.332   2.734  1.8830  2.7632  1.7313
  804MOL0     H 6103   2.270   4.256   2.627 -1.9703 -2.3290  3.0452
  804MOL0     H 6104   2.142   4.272   2.439 -0.6431 -1.9842  0.4142
  804MOL0     H 6105   2.045   4.404   2.484 -0.9648 -0.0704  1.2041
  804MOL0     H 6106   2.042   4.116   2.576  0.8495 -0.1015 -4.0770
  804MOL0     H 6107   1.960   4.235   2.675 -1.5463 -2.0830 -0.0939
  804MOL0     H 6108   1.822   4.317   2.484 -2.2593 -1.2509 -0.3509
  804MOL0     H 6109   1.799   4.159   2.553  0.8808  0.7070  1.4458
  804MOL0     H 6110   2.704   4.504   2.160 -1.8917  1.8859  0.9446
  804MOL0     H 6111   2.867   4.547   1.998 -3.0167 -0.2490  0.2766
  804MOL0     H 6112   3.054   4.887   1.604 -0.1593  0.4307 -0.7769
  804MOL0     H 6113   3.245   4.878   1.473  0.2159  0.8755  1.1325
  804MOL0     H 6114   5.005   4.583   0.778  0.2076  1.0221 -1.2691
  804MOL0     H 6115   5.218   4.608   0.665  0.4339 -0.4107  1.8277
  804MOL0     H 6116   5.491   4.472   0.365 -0.1382 -2.2993  0.4586
  804MOL0     H 6117   5.692   4.532   0.249 -1.3877 -0.5407  1.1341
  804MOL0     H 6118   5.899   4.543   0.167 -1.3404  0.0927  2.3006
  804MOL0     H 6119   5.954   4.369   0.193  0.5398 -0.1827  0.0164
  804MOL0     H 6120   6.127   4.474   0.061 -0.1282 -4.0964  1.6051
  804MOL0     H 6121   6.130   4.612   0.174 -1.8421 -0.0945  1.4616
  804MOL0     H 6122   6.320   4.421   0.189  0.4541 -2.3685  2.5744
  804MOL0     H 6123   6.191   4.325   0.266 -1.2593  0.2452 -0.0507
  804MOL0     H 6124   6.176   4.491   0.443  0.0012  1.2554  1.3565
  804MOL0     H 6125   6.321   4.406   0.435 -0.3898  1.2454  0.0407
  804MOL0     H 6126   6.400   4.825   0.386 -2.6008  1.7107  0.8536
  804MOL0     H 6127   5.930   4.448   0.595 -1.0475  1.1694  3.6345
  804MOL0     H 6128   5.719   4.429   0.730  1.6535 -0.2087  0.6241
  805MOL0     O 6129   6.582   7.322   6.538 -0.0189 -0.4808 -0.0091
  805MOL0     C 6130   6.656   7.222   6.516  1.0792  0.2530 -0.6539
  805MOL0     O 6131   6.615   7.087   6.485  0.0935 -0.5521  0.9020
  805MOL0     C 6132   6.482   7.060   6.473  0.3541  0.1444 -0.5548
  805MOL0     C 6133   6.388   7.150   6.409 -0.3879  0.6818  0.3618
  805MOL0     C 6134   6.254   7.122   6.393 -0.1916 -0.0276 -0.6135
  805MOL0     C 6135   6.221   6.989   6.425 -0.0781  0.4359  0.3514
  805MOL0     O 6136   6.099   6.943   6.383  0.4059  0.1639 -0.0173
  805MOL0     C 6137   6.007   6.972   6.488  0.1677  0.0102  0.2551
  805MOL0     C 6138   5.874   6.938   6.429 -0.2825 -0.5619 -0.1419
  805MOL0     C 6139   5.870   6.784   6.423  0.2266  0.7335 -0.1322
  805MOL0     C 6140   5.729   6.749   6.401 -0.4706  0.5044  0.0563
  805MOL0     C 6141   5.699   6.602   6.443 -0.5529  0.4651 -0.2065
  805MOL0     C 6142   5.783   6.493   6.363  0.8469  0.1377  0.2729
  805MOL0     C 6143   5.757   6.352   6.400  0.5990  0.1468 -0.4032
  805MOL0     C 6144   5.815   6.318   6.534 -0.5481 -0.1224 -0.2851
  805MOL0     N 6145   5.811   6.180   6.572  1.1887 -0.1126 -0.4413
  805MOL0     C 6146   5.731   6.135   6.679  0.4115  0.6487  0.8268
  805MOL0     C 6147   5.736   6.007   6.662  0.8104 -1.0315 -0.1221
  805MOL0     C 6148   5.646   5.909   6.737 -0.3378 -0.0075 -1.2603
  805MOL0     C 6149   5.504   5.907   6.684 -0.3793  0.4383 -0.2327
  805MOL0     C 6150   5.437   5.784   6.741  0.5221  0.3017  0.6724
  805MOL0     C 6151   5.289   5.803   6.700  1.0817 -0.2682 -0.1466
  805MOL0     O 6152   5.200   5.724   6.779  0.1483 -0.6969 -0.6424
  805MOL0     C 6153   5.067   5.716   6.740 -0.0640  0.5772 -0.0327
  805MOL0     C 6154   4.989   5.614   6.807 -0.2454 -0.1986 -0.2133
  805MOL0     C 6155   4.858   5.587   6.778  0.2934 -0.5226 -1.2315
  805MOL0     C 6156   4.787   5.673   6.692 -0.1198  0.4716  0.7376
  805MOL0     C 6157   4.640   5.637   6.665  0.4147 -0.1563  0.0953
  805MOL0     O 6158   4.585   5.709   6.564  0.3965 -0.3550  0.3315
  805MOL0     C 6159   4.458   5.672   6.523  0.3453  0.2584  0.6174
  805MOL0     C 6160   4.430   5.651   6.388 -0.1037 -0.3609 -0.1568
  805MOL0     C 6161   4.305   5.655   6.339 -0.7215  0.3098  0.1487
  805MOL0     C 6162   4.197   5.654   6.428  0.3857  0.0170 -0.2404
  805MOL0     O 6163   4.070   5.668   6.375 -0.1032 -0.0329 -0.0974
  805MOL0     C 6164   3.981   5.568   6.430 -0.1420  0.3330 -0.3768
  805MOL0     C 6165   3.870   5.541   6.330  0.4769 -0.0200 -0.1140
  805MOL0     C 6166   3.735   5.509   6.386  0.2025  0.4414 -0.3796
  805MOL0     C 6167   3.649   5.479   6.263 -1.0924  0.1546 -0.3543
  805MOL0     C 6168   3.507   5.428   6.300  0.4680 -0.2955  0.4061
  805MOL0     C 6169   3.420   5.527   6.369  0.0145  0.6207  0.2813
  805MOL0     C 6170   3.285   5.456   6.418 -0.5356 -0.3412 -0.7709
  805MOL0     C 6171   3.181   5.561   6.446  0.2112  0.2357 -0.1843
  805MOL0    Cl 6172   3.223   5.707   6.546 -0.3177  0.1349  0.0621
  805MOL0     C 6173   4.216   5.657   6.567  0.0355  0.8608  0.1558
  805MOL0     C 6174   4.349   5.679   6.615  0.9228  0.4055  0.7242
  805MOL0     O 6175   4.586   5.547   6.729 -0.3108  0.7420 -0.2351
  805MOL0     C 6176   4.857   5.771   6.613 -0.5719  0.3761  0.0408
  805MOL0     C 6177   4.996   5.786   6.640  0.1484 -0.1361  0.5778
  805MOL0     N 6178   5.808   5.973   6.555 -0.8416 -0.7758 -1.0895
  805MOL0     N 6179   5.855   6.077   6.494 -0.2483 -0.7005  0.1234
  805MOL0     C 6180   6.312   6.902   6.487  0.1051  0.3781  0.0023
  805MOL0     C 6181   6.444   6.936   6.510 -0.3301  0.0666 -0.3969
  805MOL0     C 6182   6.804   7.224   6.531  0.0483  0.4380  0.0349
  805MOL0     C 6183   6.875   7.339   6.540  0.0523  0.2636  0.1281
  805MOL0     C 6184   7.014   7.337   6.548 -0.5320 -0.5144  0.3543
  805MOL0     C 6185   7.088   7.212   6.542 -1.0629  0.4418 -0.2512
  805MOL0     O 6186   7.228   7.211   6.542 -0.7265 -0.2367 -0.7275
  805MOL0     C 6187   7.289   7.080   6.562 -0.4903 -0.1661  0.0056
  805MOL0     C 6188   7.437   7.095   6.587 -0.4362  0.1173 -0.1033
  805MOL0     C 6189   7.501   7.156   6.461 -0.1603  0.3583 -0.2562
  805MOL0     C 6190   7.650   7.188   6.492  0.0986 -0.0359 -0.2370
  805MOL0     C 6191   7.698   7.270   6.380  0.0208 -0.2380  0.7437
  805MOL0     C 6192   7.756   7.314   6.277  1.7760  0.0416  0.0811
  805MOL0     C 6193   7.009   7.099   6.543  0.2851  0.3536 -1.2165
  805MOL0     C 6194   6.876   7.105   6.554 -0.1299  0.3126  0.4563
  805MOL0     H 6195   6.424   7.241   6.362 -5.4183  1.3408 -2.9225
  805MOL0     H 6196   6.181   7.188   6.347 -1.4572 -0.6823  0.4132
  805MOL0     H 6197   5.995   7.079   6.510 -1.7415 -0.2807  0.7303
  805MOL0     H 6198   6.028   6.910   6.576 -1.5645 -0.7971  0.1248
  805MOL0     H 6199   5.863   6.969   6.324 -0.4118  1.5637  0.4522
  805MOL0     H 6200   5.797   6.994   6.482 -1.9122 -1.0543 -1.8852
  805MOL0     H 6201   5.906   6.739   6.516  1.0915 -4.2790 -2.5813
  805MOL0     H 6202   5.938   6.749   6.345 -1.1156  1.7578 -1.8360
  805MOL0     H 6203   5.664   6.798   6.475 -1.9284 -1.9163  0.4978
  805MOL0     H 6204   5.695   6.769   6.299 -4.9028 -3.1920  0.4338
  805MOL0     H 6205   5.595   6.576   6.419 -1.7257 -1.2068  5.2964
  805MOL0     H 6206   5.703   6.593   6.552 -3.1075 -1.6044 -0.1757
  805MOL0     H 6207   5.889   6.515   6.378  1.4080 -1.1830 -1.4435
  805MOL0     H 6208   5.770   6.505   6.255  1.4289 -3.6841 -0.3652
  805MOL0     H 6209   5.650   6.330   6.393 -0.2558  2.4979  3.0599
  805MOL0     H 6210   5.811   6.291   6.326  0.9280  1.7538 -1.5617
  805MOL0     H 6211   5.749   6.375   6.600 -3.4809 -2.8805 -0.6208
  805MOL0     H 6212   5.917   6.354   6.550  0.3795 -1.5699 -2.5347
  805MOL0     H 6213   5.663   6.177   6.753 -1.7012 -3.1695  1.2853
  805MOL0     H 6214   5.660   5.961   6.832 -1.6810  2.5680 -2.3680
  805MOL0     H 6215   5.689   5.808   6.735 -0.8939 -0.3051  0.5657
  805MOL0     H 6216   5.510   5.894   6.575  1.1903 -0.4363 -0.0773
  805MOL0     H 6217   5.450   5.997   6.713  1.4070  1.4913 -0.0245
  805MOL0     H 6218   5.462   5.683   6.707  0.2689  0.3804  0.2537
  805MOL0     H 6219   5.437   5.791   6.851  1.6449 -1.8383  0.8649
  805MOL0     H 6220   5.265   5.786   6.594  0.3525  1.2933 -0.2656
  805MOL0     H 6221   5.256   5.905   6.722 -0.2526 -0.9430  1.2081
  805MOL0     H 6222   5.043   5.553   6.879  2.6534  0.3634 -1.8050
  805MOL0     H 6223   4.807   5.504   6.827 -0.1753  0.9847  0.9693
  805MOL0     H 6224   4.524   5.650   6.334  0.3077  1.1683  0.4736
  805MOL0     H 6225   4.296   5.643   6.231 -3.0962 -2.1408  0.4914
  805MOL0     H 6226   3.944   5.608   6.525 -1.2626 -0.8707 -0.2794
  805MOL0     H 6227   4.024   5.475   6.470 -0.4540 -0.4608 -1.8189
  805MOL0     H 6228   3.905   5.461   6.264 -0.4971 -0.8360  0.3275
  805MOL0     H 6229   3.861   5.632   6.269 -1.9621 -1.8377 -2.7307
  805MOL0     H 6230   3.701   5.585   6.457  0.1260  1.3374 -1.3475
  805MOL0     H 6231   3.742   5.415   6.441  1.0328  0.7802  0.1100
  805MOL0     H 6232   3.633   5.572   6.208  1.2293  1.4997  1.0841
  805MOL0     H 6233   3.701   5.408   6.198  1.3901 -0.6446  2.3041
  805MOL0     H 6234   3.515   5.346   6.372  1.3948 -1.9660 -1.4751
  805MOL0     H 6235   3.460   5.391   6.209 -2.0080 -1.7286  2.1533
  805MOL0     H 6236   3.386   5.606   6.302 -3.3562 -0.1508  0.9074
  805MOL0     H 6237   3.460   5.568   6.463 -1.4865  1.7199  0.4892
  805MOL0     H 6238   3.244   5.384   6.346  0.0528 -0.8437 -0.6077
  805MOL0     H 6239   3.303   5.404   6.512  4.1975 -0.1512 -1.3392
  805MOL0     H 6240   3.097   5.510   6.493 -1.8624  2.2541 -1.4971
  805MOL0     H 6241   3.131   5.595   6.355 -0.2484 -0.7201 -0.3027
  805MOL0     H 6242   4.134   5.648   6.637  0.5297 -0.0050  0.6359
  805MOL0     H 6243   4.359   5.686   6.723  0.2101 -2.7132  1.1132
  805MOL0     H 6244   4.804   5.828   6.538 -0.8813 -2.3447 -1.9409
  805MOL0     H 6245   5.048   5.856   6.576  0.0049  0.5372  1.1932
  805MOL0     H 6246   6.282   6.798   6.495 -1.0997  0.4375 -2.5756
  805MOL0     H 6247   6.510   6.873   6.568 -0.1680  0.7153  0.1444
  805MOL0     H 6248   6.823   7.433   6.528  1.0254  0.8370  0.3251
  805MOL0     H 6249   7.074   7.426   6.539  1.1045 -1.5931  0.1732
  805MOL0     H 6250   7.270   7.024   6.471  2.1208  3.4661 -3.0610
  805MOL0     H 6251   7.245   7.034   6.652 -3.1723  4.2850  1.3039
  805MOL0     H 6252   7.444   7.165   6.671  0.1275  1.3126 -1.1118
  805MOL0     H 6253   7.487   7.002   6.616 -0.2652  0.6924  1.5541
  805MOL0     H 6254   7.455   7.252   6.432 -1.5458 -0.8330 -2.2712
  805MOL0     H 6255   7.493   7.092   6.372  2.2591  2.1055 -1.8766
  805MOL0     H 6256   7.662   7.247   6.584 -2.3095  2.0977 -1.1682
  805MOL0     H 6257   7.709   7.096   6.497  1.0310  0.5425 -0.4034
  805MOL0     H 6258   7.797   7.342   6.183  0.7124 -1.3627 -0.8387
  805MOL0     H 6259   7.055   7.002   6.525  0.9410  0.9560 -3.0703
  805MOL0     H 6260   6.836   7.005   6.548 -1.4606  0.7878  0.9243
  806MOL0     O 6261   8.264   5.857   2.266  0.1593  0.5479 -0.0301
  806MOL0     C 6262   8.272   5.921   2.169 -0.4854  0.8873 -0.0807
  806MOL0     O 6263   8.177   5.941   2.079 -0.1920 -0.7964  0.2786
  806MOL0     C 6264   8.057   5.873   2.099 -1.7019 -0.7881  0.5831
  806MOL0     C 6265   8.043   5.738   2.065  0.8424  0.3106 -0.1459
  806MOL0     C 6266   7.914   5.675   2.091 -0.2858 -0.5051 -0.1444
  806MOL0     C 6267   7.817   5.747   2.153 -0.6092 -0.2006  0.8508
  806MOL0     O 6268   7.695   5.682   2.177 -0.6026 -0.0236  0.2567
  806MOL0     C 6269   7.573   5.765   2.178 -0.2066  0.2141  0.7254
  806MOL0     C 6270   7.476   5.669   2.239 -0.2138  0.3045  0.3036
  806MOL0     C 6271   7.336   5.726   2.241 -0.3351 -0.0510  0.4607
  806MOL0     C 6272   7.241   5.668   2.342  0.1221 -0.1144  0.0572
  806MOL0     C 6273   7.098   5.684   2.302  0.1898  0.3110  0.0251
  806MOL0     C 6274   7.055   5.831   2.314 -0.2313 -0.7175  0.1710
  806MOL0     C 6275   6.924   5.870   2.251 -0.3330 -0.0939 -0.0477
  806MOL0     C 6276   6.797   5.801   2.302 -0.3400 -0.3215  0.2445
  806MOL0     N 6277   6.678   5.889   2.285  0.0729 -0.0473 -0.1206
  806MOL0     C 6278   6.624   5.926   2.164 -0.3589  0.2147  0.0158
  806MOL0     C 6279   6.529   6.018   2.199 -0.5330  0.7039 -0.0124
  806MOL0     C 6280   6.443   6.090   2.096 -0.5636 -0.6149  0.2352
  806MOL0     C 6281   6.513   6.190   2.001 -0.1523 -0.0805  0.0155
  806MOL0     C 6282   6.616   6.298   2.052  0.3290  0.1011 -0.6847
  806MOL0     C 6283   6.762   6.244   2.058  0.8598 -0.4469  0.4052
  806MOL0     O 6284   6.849   6.350   2.107 -0.5732  0.3379 -0.3638
  806MOL0     C 6285   6.981   6.325   2.085  0.7363 -0.2611 -0.2197
  806MOL0     C 6286   7.058   6.436   2.117  0.7862  0.1256  0.6962
  806MOL0     C 6287   7.192   6.420   2.105  0.5463 -1.2143  0.0750
  806MOL0     C 6288   7.252   6.302   2.065  0.5160 -0.5606  0.3703
  806MOL0     C 6289   7.400   6.294   2.068 -0.6124 -0.2515  0.2922
  806MOL0     O 6290   7.477   6.406   2.035 -0.1416 -0.3076  0.4515
  806MOL0     C 6291   7.618   6.392   2.040 -0.5694  0.1892  0.5759
  806MOL0     C 6292   7.688   6.346   2.153 -0.4917  0.1575 -0.1796
  806MOL0     C 6293   7.827   6.350   2.151  0.1533  0.7794 -0.4395
  806MOL0     C 6294   7.903   6.393   2.038 -1.0912  0.3371 -0.2571
  806MOL0     O 6295   8.043   6.402   2.028  0.9822 -0.3673 -0.5143
  806MOL0     C 6296   8.120   6.367   2.145  1.2963 -0.3980  0.4320
  806MOL0     C 6297   8.257   6.442   2.148 -0.7528  0.2187  0.0862
  806MOL0     C 6298   8.350   6.377   2.252  0.0308  0.9737 -0.2904
  806MOL0     C 6299   8.293   6.348   2.388 -0.7658  0.5644 -0.8995
  806MOL0     C 6300   8.406   6.339   2.498  0.4154 -0.6269  0.0954
  806MOL0     C 6301   8.474   6.465   2.537  0.5065  0.5691 -1.1983
  806MOL0     C 6302   8.387   6.567   2.608  0.5029 -0.3056  0.0217
  806MOL0     C 6303   8.466   6.700   2.632 -0.6566  0.6683  0.0949
  806MOL0    Cl 6304   8.516   6.772   2.474  0.0871  0.4904 -0.3745
  806MOL0     C 6305   7.826   6.435   1.932  0.0201 -0.5797  1.1851
  806MOL0     C 6306   7.685   6.431   1.928 -0.5334  0.4070  0.3059
  806MOL0     O 6307   7.443   6.184   2.110  0.2847 -0.6789 -0.0768
  806MOL0     C 6308   7.177   6.191   2.050 -0.5524  0.8439 -0.7622
  806MOL0     C 6309   7.037   6.203   2.057 -0.1144 -0.0722 -0.7267
  806MOL0     N 6310   6.517   6.026   2.331 -0.1564  0.1058  1.0788
  806MOL0     N 6311   6.613   5.962   2.385 -0.9950  0.6942  0.0844
  806MOL0     C 6312   7.833   5.884   2.181 -0.4045  0.4312  0.1485
  806MOL0     C 6313   7.954   5.946   2.151 -0.3933 -0.3460  0.0915
  806MOL0     C 6314   8.408   5.974   2.138 -0.6262 -0.2171  0.0700
  806MOL0     C 6315   8.513   5.943   2.225  0.4388  0.1707 -0.0325
  806MOL0     C 6316   8.638   6.000   2.191  0.7209 -0.0293  0.4593
  806MOL0     C 6317   8.655   6.093   2.088  0.6411  0.0167  0.4946
  806MOL0     O 6318   8.781   6.139   2.059  0.2982  0.0997  0.5482
  806MOL0     C 6319   8.799   6.223   1.949  0.4843  0.2091  0.0553
  806MOL0     C 6320   8.942   6.273   1.934  0.7149  0.4052  0.1705
  806MOL0     C 6321   9.046   6.160   1.941  0.8988  0.2580  0.2785
  806MOL0     C 6322   9.196   6.203   1.909  0.5632 -0.1762 -0.3961
  806MOL0     C 6323   9.285   6.087   1.907  0.0104 -0.5172 -0.1284
  806MOL0     C 6324   9.370   6.007   1.896 -0.0683  0.3189  0.1914
  806MOL0     C 6325   8.547   6.119   2.004  0.3259  0.1611  0.8412
  806MOL0     C 6326   8.424   6.051   2.025 -0.3483  0.0528  0.0402
  806MOL0     H 6327   8.120   5.679   2.016 -1.2154 -0.6662 -2.4275
  806MOL0     H 6328   7.911   5.568   2.069 -1.0695 -0.3530 -0.8023
  806MOL0     H 6329   7.547   5.792   2.075 -1.8388 -1.1890  0.7406
  806MOL0     H 6330   7.572   5.861   2.231  0.2408  2.9815 -3.7403
  806MOL0     H 6331   7.517   5.638   2.336  2.2479  1.5921 -0.2320
  806MOL0     H 6332   7.476   5.580   2.176  1.1769  1.3826 -1.3211
  806MOL0     H 6333   7.306   5.737   2.136  1.0428  1.1232  0.1552
  806MOL0     H 6334   7.338   5.834   2.259  2.2189 -0.0873  0.7566
  806MOL0     H 6335   7.247   5.559   2.344 -2.4491 -0.3072  1.9462
  806MOL0     H 6336   7.260   5.703   2.444  0.5370 -0.8589  0.2482
  806MOL0     H 6337   7.038   5.619   2.366  0.8425 -0.4385 -0.1145
  806MOL0     H 6338   7.071   5.648   2.202 -1.6733 -1.5081  1.1114
  806MOL0     H 6339   7.129   5.897   2.268 -2.8613  1.4725 -1.1760
  806MOL0     H 6340   7.044   5.864   2.417 -0.4326 -0.3624  0.0374
  806MOL0     H 6341   6.917   5.979   2.243  4.0414  0.2595 -2.2832
  806MOL0     H 6342   6.932   5.833   2.149 -1.6459  1.7526 -0.8849
  806MOL0     H 6343   6.808   5.756   2.401 -0.2766 -3.5760 -1.1274
  806MOL0     H 6344   6.777   5.718   2.234  0.5581  0.9557 -1.6806
  806MOL0     H 6345   6.671   5.896   2.071  0.1492 -1.5312  0.7862
  806MOL0     H 6346   6.364   6.145   2.147  1.0576  1.3536  0.7981
  806MOL0     H 6347   6.391   6.015   2.036  0.5195 -1.3652  0.1891
  806MOL0     H 6348   6.434   6.255   1.960  0.1571  1.6560  2.0085
  806MOL0     H 6349   6.557   6.129   1.921  0.7322  0.4730  0.0759
  806MOL0     H 6350   6.622   6.393   1.998  0.0970  1.3456  1.3609
  806MOL0     H 6351   6.594   6.323   2.157  0.9243 -1.6652 -0.1045
  806MOL0     H 6352   6.784   6.221   1.953  0.7167 -0.9816  0.4919
  806MOL0     H 6353   6.764   6.155   2.121 -0.6266 -0.9688 -0.2244
  806MOL0     H 6354   7.000   6.526   2.133 -2.0212 -1.7759  2.0030
  806MOL0     H 6355   7.249   6.509   2.128  2.3375 -2.4562  0.6941
  806MOL0     H 6356   7.643   6.314   2.246  0.5233 -0.0095  0.2677
  806MOL0     H 6357   7.873   6.309   2.241 -2.1820  1.0972  0.9925
  806MOL0     H 6358   8.141   6.260   2.149 -1.7478 -1.1321 -0.0455
  806MOL0     H 6359   8.073   6.393   2.240  2.7962 -1.4034  1.4913
  806MOL0     H 6360   8.252   6.549   2.172  2.4582  0.0997  1.8145
  806MOL0     H 6361   8.306   6.446   2.050  0.5956  0.2544  0.7424
  806MOL0     H 6362   8.422   6.460   2.255 -0.2879  1.3094 -1.4471
  806MOL0     H 6363   8.408   6.291   2.217  0.1959  1.9159 -2.5178
  806MOL0     H 6364   8.219   6.419   2.428  1.4881  1.2624  2.4225
  806MOL0     H 6365   8.256   6.245   2.394  1.9264 -0.5546 -1.8132
  806MOL0     H 6366   8.485   6.270   2.467  1.1017  1.3969 -3.0599
  806MOL0     H 6367   8.364   6.291   2.587  1.8569  0.1269  1.2219
  806MOL0     H 6368   8.532   6.507   2.454 -0.3971 -0.9799 -2.6714
  806MOL0     H 6369   8.552   6.440   2.610  0.5462  2.7593 -0.4115
  806MOL0     H 6370   8.298   6.594   2.550  2.2093  3.0429 -1.3474
  806MOL0     H 6371   8.359   6.524   2.704 -1.1949  1.2720  0.2840
  806MOL0     H 6372   8.553   6.680   2.695 -0.8809  0.9027  0.4850
  806MOL0     H 6373   8.396   6.766   2.683 -0.0842  3.2479 -2.2345
  806MOL0     H 6374   7.877   6.464   1.840  0.3585 -2.6954  0.6464
  806MOL0     H 6375   7.632   6.474   1.843  0.9970  0.8643 -0.4625
  806MOL0     H 6376   7.216   6.093   2.025 -1.3954  0.8275 -2.1414
  806MOL0     H 6377   6.982   6.115   2.026 -1.9313  1.0723 -0.9093
  806MOL0     H 6378   7.753   5.940   2.228 -0.2949 -1.5075  2.8787
  806MOL0     H 6379   7.966   6.050   2.181  0.3784 -0.8102  1.4520
  806MOL0     H 6380   8.484   5.883   2.311  1.1886 -0.6954 -0.3655
  806MOL0     H 6381   8.716   5.954   2.251 -1.2790 -4.2135  0.2041
  806MOL0     H 6382   8.728   6.305   1.955 -1.4233 -1.2899 -0.9388
  806MOL0     H 6383   8.763   6.173   1.858 -0.2820  0.8547 -0.0050
  806MOL0     H 6384   8.949   6.313   1.833  1.6421 -1.6982 -0.6639
  806MOL0     H 6385   8.953   6.358   2.002 -0.3072  0.3852  0.3720
  806MOL0     H 6386   9.017   6.092   1.861 -3.9474  1.6833  0.5194
  806MOL0     H 6387   9.048   6.105   2.035 -3.2601  2.0242  1.6280
  806MOL0     H 6388   9.192   6.251   1.811  0.1963 -3.9980 -2.4241
  806MOL0     H 6389   9.233   6.285   1.972  2.1454 -2.5240  1.8985
  806MOL0     H 6390   9.448   5.935   1.883  1.9089  2.0842  1.5833
  806MOL0     H 6391   8.549   6.197   1.928 -0.5533  0.2574  0.9029
  806MOL0     H 6392   8.347   6.065   1.950 -0.0174 -1.8456 -0.7216
  807MOL0     O 6393   7.866   5.195   9.265 -0.6020  0.2543  0.2825
  807MOL0     C 6394   7.919   5.180   9.378  0.0330 -0.5245  0.1525
  807MOL0     O 6395   7.853   5.131   9.487  0.4187  0.2704  0.6594
  807MOL0     C 6396   7.714   5.132   9.488 -0.2963 -0.4333 -0.4298
  807MOL0     C 6397   7.646   5.245   9.446  0.0145  0.5808 -0.3045
  807MOL0     C 6398   7.509   5.256   9.461  0.0450  0.0861  0.0710
  807MOL0     C 6399   7.436   5.150   9.519  0.2393  0.2220  0.5436
  807MOL0     O 6400   7.298   5.174   9.525  0.1164 -0.1052 -0.5524
  807MOL0     C 6401   7.207   5.096   9.608 -0.5013  0.3928  0.1904
  807MOL0     C 6402   7.073   5.157   9.578 -0.2662 -1.0867 -0.6213
  807MOL0     C 6403   6.960   5.080   9.646  0.3892 -0.1839  0.5171
  807MOL0     C 6404   6.834   5.160   9.673  0.4595  0.1261  0.7143
  807MOL0     C 6405   6.744   5.220   9.554 -0.6147 -0.0189 -0.0104
  807MOL0     C 6406   6.674   5.113   9.471 -0.4877 -0.3384 -0.1329
  807MOL0     C 6407   6.599   5.172   9.352  0.3269  0.1031  0.2599
  807MOL0     C 6408   6.658   5.114   9.216 -0.2787  0.0517 -0.0240
  807MOL0     N 6409   6.795   5.155   9.190 -0.1784  0.6273 -0.8265
  807MOL0     C 6410   6.852   5.271   9.227 -0.6969 -0.5062 -0.1563
  807MOL0     C 6411   6.988   5.251   9.210 -0.4881 -0.8669 -0.4368
  807MOL0     C 6412   7.089   5.368   9.216 -1.0240 -0.3733 -0.3391
  807MOL0     C 6413   7.234   5.329   9.201 -0.0525  0.1908 -0.3771
  807MOL0     C 6414   7.317   5.456   9.177  0.3807 -0.0370  0.4992
  807MOL0     C 6415   7.457   5.427   9.136 -1.4637 -0.6021  1.1030
  807MOL0     O 6416   7.526   5.549   9.141 -0.8800  0.3373 -0.4214
  807MOL0     C 6417   7.655   5.565   9.094  0.2545 -0.2953  0.2301
  807MOL0     C 6418   7.707   5.692   9.086 -0.6441  0.7485 -0.0376
  807MOL0     C 6419   7.843   5.715   9.044  0.6329  0.4282  0.2219
  807MOL0     C 6420   7.930   5.604   9.013  0.7524  0.2813 -1.2204
  807MOL0     C 6421   8.072   5.616   8.983  0.5458  0.1180  0.6638
  807MOL0     O 6422   8.126   5.741   8.985  0.9178 -0.3811  0.0457
  807MOL0     C 6423   8.258   5.762   8.945 -0.5134  0.1791 -0.6668
  807MOL0     C 6424   8.373   5.740   9.013  0.4437 -0.4507 -0.3575
  807MOL0     C 6425   8.497   5.780   8.957 -0.6413 -0.7439  0.2244
  807MOL0     C 6426   8.511   5.859   8.842 -0.4364  0.6543  0.2845
  807MOL0     O 6427   8.625   5.922   8.791 -0.0546  0.0012  0.4361
  807MOL0     C 6428   8.750   5.853   8.802  0.5441  0.3124  0.0561
  807MOL0     C 6429   8.845   5.954   8.746 -0.4466 -0.0452  0.7808
  807MOL0     C 6430   8.826   5.974   8.596  0.7348  0.6125  0.9781
  807MOL0     C 6431   8.897   6.101   8.543  0.1163 -0.2979 -0.3569
  807MOL0     C 6432   8.797   6.217   8.552 -0.3573 -0.0637  0.3128
  807MOL0     C 6433   8.836   6.340   8.473 -0.5419 -0.6821  0.0529
  807MOL0     C 6434   8.837   6.319   8.317 -0.7279  0.4643  0.3812
  807MOL0     C 6435   8.892   6.446   8.261  0.3482 -0.0633  0.7232
  807MOL0    Cl 6436   8.864   6.430   8.081  0.4893 -0.2144  0.3077
  807MOL0     C 6437   8.387   5.885   8.779  0.8727  0.4630 -0.5266
  807MOL0     C 6438   8.266   5.827   8.822  0.2745 -0.0523  0.0860
  807MOL0     O 6439   8.120   5.512   8.942 -0.0291 -0.0018 -0.8090
  807MOL0     C 6440   7.864   5.474   9.020 -0.2381  0.3140 -0.1969
  807MOL0     C 6441   7.730   5.450   9.057  0.3976 -0.2908 -0.1319
  807MOL0     N 6442   7.008   5.119   9.170  0.2979 -0.1689 -0.1360
  807MOL0     N 6443   6.890   5.069   9.159  0.2072 -1.1486  0.1308
  807MOL0     C 6444   7.501   5.033   9.562  0.9173 -0.1517  0.6614
  807MOL0     C 6445   7.640   5.031   9.542 -0.4204  0.2965 -0.3557
  807MOL0     C 6446   8.061   5.221   9.387  0.1056  0.2671  0.6558
  807MOL0     C 6447   8.117   5.305   9.293 -0.3245 -0.8039 -0.6417
  807MOL0     C 6448   8.256   5.333   9.302  0.0000 -0.2996  0.0123
  807MOL0     C 6449   8.334   5.291   9.412  0.2527  0.1650 -0.4320
  807MOL0     O 6450   8.469   5.306   9.407  0.1492  0.1726 -0.6565
  807MOL0     C 6451   8.529   5.401   9.318 -0.0276 -0.4349  1.2032
  807MOL0     C 6452   8.492   5.546   9.357  0.7487 -0.5298  0.4095
  807MOL0     C 6453   8.572   5.654   9.298  0.3468 -0.7401  0.8997
  807MOL0     C 6454   8.712   5.661   9.346 -0.2764 -0.7192  0.3177
  807MOL0     C 6455   8.738   5.657   9.495  0.7089  0.4610  0.3454
  807MOL0     C 6456   8.755   5.673   9.615 -0.0959 -0.0652 -0.4753
  807MOL0     C 6457   8.272   5.200   9.497  0.6750 -0.9301 -0.4483
  807MOL0     C 6458   8.133   5.165   9.488 -0.6909 -0.4970  0.3969
  807MOL0     H 6459   7.707   5.330   9.418  1.8246 -0.7112 -0.4604
  807MOL0     H 6460   7.455   5.338   9.417 -0.2410 -0.6090 -0.8947
  807MOL0     H 6461   7.230   5.116   9.713  1.9697 -0.2248 -0.1570
  807MOL0     H 6462   7.198   4.991   9.580  2.1401  0.3627 -0.8900
  807MOL0     H 6463   7.058   5.181   9.473 -1.1415 -0.3142 -0.3339
  807MOL0     H 6464   7.080   5.260   9.615  1.9157 -1.4705  0.1690
  807MOL0     H 6465   6.998   5.038   9.740  1.5073  0.4549  0.3667
  807MOL0     H 6466   6.938   4.995   9.579  0.0844  1.0956 -1.0802
  807MOL0     H 6467   6.774   5.092   9.735  1.4312 -1.7058 -0.2640
  807MOL0     H 6468   6.857   5.238   9.745  0.0788  1.3227 -0.4290
  807MOL0     H 6469   6.796   5.277   9.476 -0.5811 -3.7570 -3.0119
  807MOL0     H 6470   6.662   5.276   9.599  0.6967  0.3502  2.0877
  807MOL0     H 6471   6.594   5.062   9.526 -0.5381 -1.3875 -1.1478
  807MOL0     H 6472   6.742   5.033   9.444 -2.0826 -1.1948 -1.7994
  807MOL0     H 6473   6.492   5.148   9.352  0.6115 -1.2620 -0.3450
  807MOL0     H 6474   6.593   5.281   9.345  0.2811  0.0252 -1.3402
  807MOL0     H 6475   6.594   5.160   9.140 -1.5426 -2.9658 -0.9312
  807MOL0     H 6476   6.651   5.006   9.205 -0.1483  0.0813 -0.4024
  807MOL0     H 6477   6.820   5.374   9.245  1.4754  0.6714 -2.3399
  807MOL0     H 6478   7.080   5.429   9.307 -1.3226  1.8825 -1.7855
  807MOL0     H 6479   7.057   5.432   9.133  0.3566  0.5818 -0.1660
  807MOL0     H 6480   7.238   5.263   9.114 -1.1778 -0.7683  0.2620
  807MOL0     H 6481   7.264   5.271   9.289 -2.1832  0.3404  0.5278
  807MOL0     H 6482   7.276   5.542   9.124 -0.6061 -1.1188 -0.5413
  807MOL0     H 6483   7.333   5.499   9.277  1.2547 -3.0182  1.7443
  807MOL0     H 6484   7.452   5.389   9.034  0.0352  0.6312  0.5319
  807MOL0     H 6485   7.500   5.350   9.200  0.0583 -0.0999  0.7219
  807MOL0     H 6486   7.647   5.779   9.111 -2.5992 -0.0769 -1.5113
  807MOL0     H 6487   7.891   5.813   9.046  3.2930 -0.8135  1.7450
  807MOL0     H 6488   8.367   5.687   9.108 -2.4453 -1.4522 -1.0201
  807MOL0     H 6489   8.593   5.755   9.002 -0.3879  1.4495  1.0353
  807MOL0     H 6490   8.761   5.754   8.758  0.2239  0.9381 -1.5098
  807MOL0     H 6491   8.782   5.835   8.904  1.4570  0.4625 -0.1938
  807MOL0     H 6492   8.951   5.926   8.752 -0.3642 -0.0244 -0.2968
  807MOL0     H 6493   8.829   6.051   8.793 -0.7886  0.5391 -0.5144
  807MOL0     H 6494   8.718   5.970   8.581  0.9583 -2.7150 -0.6209
  807MOL0     H 6495   8.859   5.881   8.549 -1.5052  1.6309 -3.0964
  807MOL0     H 6496   8.992   6.126   8.593  0.6628  0.0447 -1.5270
  807MOL0     H 6497   8.926   6.084   8.439  0.0951 -1.0372 -0.2463
  807MOL0     H 6498   8.778   6.245   8.656 -1.9697 -1.3928  0.4101
  807MOL0     H 6499   8.698   6.179   8.526 -0.4110 -0.5940  1.2388
  807MOL0     H 6500   8.934   6.369   8.512 -0.6312 -1.7806  1.1353
  807MOL0     H 6501   8.759   6.414   8.496  1.1832  2.0304 -2.1803
  807MOL0     H 6502   8.905   6.239   8.287 -1.7577  0.4460 -2.1243
  807MOL0     H 6503   8.744   6.293   8.267 -2.7358  3.0869  2.4894
  807MOL0     H 6504   9.000   6.462   8.274  0.8068 -2.2667 -0.0372
  807MOL0     H 6505   8.841   6.536   8.296  1.9100  1.6286 -1.0627
  807MOL0     H 6506   8.388   5.960   8.701 -2.0431 -1.3167 -2.4619
  807MOL0     H 6507   8.174   5.831   8.766 -0.7100 -5.6280  0.7347
  807MOL0     H 6508   7.920   5.389   8.982  2.4961  1.6736  0.5520
  807MOL0     H 6509   7.684   5.352   9.058 -1.8635  0.6494 -2.1490
  807MOL0     H 6510   7.452   4.952   9.616  0.4879  0.4922  1.2418
  807MOL0     H 6511   7.692   4.938   9.560  0.7613  1.1259  0.6417
  807MOL0     H 6512   8.073   5.349   9.205  1.1068  0.5265 -0.7502
  807MOL0     H 6513   8.302   5.394   9.224  0.4774  0.2681  0.7275
  807MOL0     H 6514   8.513   5.390   9.210  0.2429 -2.0807  1.3007
  807MOL0     H 6515   8.636   5.382   9.330  1.0933  0.9750 -3.9300
  807MOL0     H 6516   8.385   5.550   9.333  0.4685 -1.6399  1.3851
  807MOL0     H 6517   8.503   5.549   9.466  3.2010 -2.0995  0.2650
  807MOL0     H 6518   8.517   5.747   9.317 -0.6472 -1.1786  0.3068
  807MOL0     H 6519   8.575   5.632   9.191 -1.4347 -1.5870  0.9793
  807MOL0     H 6520   8.759   5.576   9.295 -0.2973 -1.4468  1.4660
  807MOL0     H 6521   8.763   5.748   9.305 -0.5591 -0.8309 -0.2752
  807MOL0     H 6522   8.759   5.683   9.721 -0.0363 -0.0238 -0.4822
  807MOL0     H 6523   8.343   5.163   9.570  1.5680  0.8734 -0.3646
  807MOL0     H 6524   8.097   5.088   9.556 -1.2182 -0.0184  0.6616
  808MOL0     O 6525   9.372   3.857   9.251 -0.8473  0.5832  0.2526
  808MOL0     C 6526   9.355   3.770   9.160  0.5605 -0.5812 -1.1167
  808MOL0     O 6527   9.255   3.690   9.164  0.2952 -0.2131 -0.1167
  808MOL0     C 6528   9.146   3.734   9.234 -0.0682 -0.5593 -0.2519
  808MOL0     C 6529   9.071   3.847   9.194  0.6510  0.2635  0.5535
  808MOL0     C 6530   8.940   3.882   9.254 -0.5810 -0.0272  1.4474
  808MOL0     C 6531   8.890   3.796   9.351 -0.2391  0.1108  0.5905
  808MOL0     O 6532   8.773   3.809   9.416  0.8227 -0.2067 -0.1873
  808MOL0     C 6533   8.674   3.886   9.343 -0.3348  0.5081 -0.2528
  808MOL0     C 6534   8.545   3.800   9.348 -0.0577 -1.2357  0.1582
  808MOL0     C 6535   8.431   3.846   9.265 -0.5993  0.2208  0.3715
  808MOL0     C 6536   8.373   3.988   9.304  0.0240 -0.8696  0.7312
  808MOL0     C 6537   8.270   4.027   9.192 -0.3663 -0.2843  0.1342
  808MOL0     C 6538   8.232   4.177   9.209 -0.4104  0.3864  0.4717
  808MOL0     C 6539   8.122   4.217   9.124  0.6535  0.1990  0.5464
  808MOL0     C 6540   8.125   4.368   9.088  0.3839 -0.5557 -0.2132
  808MOL0     N 6541   8.239   4.421   9.009  0.0095  0.2968  0.1456
  808MOL0     C 6542   8.324   4.516   9.062 -0.0486  0.1375 -0.3552
  808MOL0     C 6543   8.412   4.524   8.959  0.3098  0.3218  0.2810
  808MOL0     C 6544   8.528   4.621   8.958  0.8620  0.0574  0.2116
  808MOL0     C 6545   8.658   4.548   9.001 -0.9711 -0.9117 -0.3253
  808MOL0     C 6546   8.712   4.473   8.882  1.1774 -0.6166  0.6837
  808MOL0     C 6547   8.843   4.519   8.831  0.4643  0.2803 -0.0862
  808MOL0     O 6548   8.945   4.474   8.922 -0.3354 -0.0602  0.1014
  808MOL0     C 6549   9.067   4.515   8.883  0.0760  0.3602  0.2557
  808MOL0     C 6550   9.101   4.649   8.885 -0.0981 -0.8445  0.0703
  808MOL0     C 6551   9.231   4.694   8.859 -0.2053 -0.2865 -0.1917
  808MOL0     C 6552   9.329   4.597   8.808 -0.6154 -0.5756  0.2758
  808MOL0     C 6553   9.476   4.651   8.792  0.8795  0.0689 -0.0837
  808MOL0     O 6554   9.489   4.792   8.786  0.1341  0.1223 -0.6602
  808MOL0     C 6555   9.610   4.856   8.784 -0.4159  0.2980 -0.2209
  808MOL0     C 6556   9.740   4.797   8.787 -0.6233  0.3788 -0.6729
  808MOL0     C 6557   9.861   4.880   8.797 -0.2800  0.2403  0.8024
  808MOL0     C 6558   9.840   5.020   8.801  0.3366  0.0571 -0.4316
  808MOL0     O 6559   9.936   5.117   8.818 -0.0124  0.5458  0.3652
  808MOL0     C 6560  10.060   5.079   8.874 -0.3262 -0.0582 -0.1085
  808MOL0     C 6561  10.164   5.021   8.784 -0.4620 -0.1834 -0.9239
  808MOL0     C 6562  10.303   4.992   8.849  0.7800 -0.2639 -0.5251
  808MOL0     C 6563  10.399   5.108   8.821  0.5954  0.3876  0.2616
  808MOL0     C 6564  10.534   5.061   8.885  0.6373  0.0191  0.0012
  808MOL0     C 6565  10.659   5.153   8.867  0.5257 -0.4470  0.1952
  808MOL0     C 6566  10.692   5.166   8.718  0.2290  0.3347  0.2893
  808MOL0     C 6567  10.823   5.219   8.691  0.2680 -0.4805 -0.2126
  808MOL0    Cl 6568  10.824   5.247   8.516 -0.1112  0.2570  0.2199
  808MOL0     C 6569   9.714   5.073   8.801 -0.2977  0.0024  0.9024
  808MOL0     C 6570   9.602   4.993   8.789  0.5360 -0.7480 -0.1615
  808MOL0     O 6571   9.566   4.566   8.769  0.3160  0.1449 -0.4833
  808MOL0     C 6572   9.291   4.467   8.789  0.4378  0.2374  0.2279
  808MOL0     C 6573   9.164   4.421   8.839  0.0287  0.1124 -0.1277
  808MOL0     N 6574   8.367   4.461   8.849 -0.7662  0.0934  1.1989
  808MOL0     N 6575   8.267   4.396   8.880 -0.4854  0.7939  0.2206
  808MOL0     C 6576   8.960   3.679   9.380 -0.1544 -0.1298 -0.5849
  808MOL0     C 6577   9.091   3.650   9.334 -0.6857  0.6234 -0.7270
  808MOL0     C 6578   9.446   3.772   9.038  0.5004  0.2326 -0.7754
  808MOL0     C 6579   9.555   3.857   9.037 -0.2125 -0.1636  0.1532
  808MOL0     C 6580   9.652   3.857   8.928  0.1689 -0.1845  0.3654
  808MOL0     C 6581   9.618   3.781   8.809 -0.2358  0.5780 -1.3243
  808MOL0     O 6582   9.690   3.771   8.695 -0.8048 -0.5127  0.8152
  808MOL0     C 6583   9.818   3.836   8.672  0.8937  0.5630  0.2691
  808MOL0     C 6584   9.900   3.758   8.563 -0.0654 -0.0743  0.8025
  808MOL0     C 6585   9.812   3.765   8.434  0.4014  0.3029  0.1538
  808MOL0     C 6586   9.895   3.754   8.307 -0.8578 -0.4958  0.0892
  808MOL0     C 6587   9.969   3.626   8.318  0.5555  0.5570  0.1358
  808MOL0     C 6588  10.023   3.521   8.332 -0.0730  0.0737 -0.2467
  808MOL0     C 6589   9.500   3.708   8.811 -0.8748 -0.2510  0.3169
  808MOL0     C 6590   9.414   3.703   8.925  0.3150  0.3946  0.1475
  808MOL0     H 6591   9.097   3.922   9.120  1.3440  0.7166  1.2448
  808MOL0     H 6592   8.891   3.973   9.220  1.5100  0.9297  0.7949
  808MOL0     H 6593   8.690   3.896   9.235 -0.2189 -0.4004 -0.3268
  808MOL0     H 6594   8.656   3.985   9.386  0.6775  0.6598 -0.1439
  808MOL0     H 6595   8.515   3.793   9.454  1.0852  0.0436  0.5890
  808MOL0     H 6596   8.572   3.698   9.319  4.7007  0.1490 -1.2127
  808MOL0     H 6597   8.347   3.776   9.281 -0.3194  0.0365  1.0420
  808MOL0     H 6598   8.457   3.840   9.159 -1.0653  3.3403  0.0031
  808MOL0     H 6599   8.320   3.990   9.399  0.8330  1.4543  1.1984
  808MOL0     H 6600   8.454   4.061   9.311  2.1579 -2.7029 -2.2749
  808MOL0     H 6601   8.181   3.965   9.197  0.4560 -1.5099 -0.0519
  808MOL0     H 6602   8.324   4.023   9.097 -0.0565  5.0250 -0.2610
  808MOL0     H 6603   8.322   4.232   9.182 -0.3054 -0.7869 -1.8106
  808MOL0     H 6604   8.217   4.195   9.316  2.1577  0.7220  0.8180
  808MOL0     H 6605   8.120   4.159   9.032 -3.6369 -0.7966  1.0276
  808MOL0     H 6606   8.025   4.190   9.168 -1.4683  1.8233 -2.6895
  808MOL0     H 6607   8.121   4.417   9.185  1.6114 -0.2366 -0.3129
  808MOL0     H 6608   8.040   4.385   9.020  0.6619  1.6214 -0.0858
  808MOL0     H 6609   8.320   4.558   9.162  0.4713 -1.1044  0.2040
  808MOL0     H 6610   8.514   4.705   9.027  1.0390  0.5443 -0.3394
  808MOL0     H 6611   8.536   4.660   8.856 -0.7679 -1.7125 -0.6774
  808MOL0     H 6612   8.625   4.473   9.073 -1.1018  1.4091  2.2174
  808MOL0     H 6613   8.731   4.621   9.039  1.1007 -4.4812  3.3187
  808MOL0     H 6614   8.716   4.369   8.915 -3.0134 -0.9797  0.6362
  808MOL0     H 6615   8.643   4.475   8.797  1.1102  0.4901  0.7557
  808MOL0     H 6616   8.835   4.627   8.818  2.7958  0.3838 -1.1787
  808MOL0     H 6617   8.859   4.484   8.728 -0.4154 -0.0804 -0.1127
  808MOL0     H 6618   9.026   4.724   8.908  0.3130 -0.7904  1.2760
  808MOL0     H 6619   9.252   4.796   8.887  0.2672 -0.1460 -1.0039
  808MOL0     H 6620   9.754   4.689   8.788  0.3788  0.4986  0.3616
  808MOL0     H 6621   9.959   4.836   8.811 -0.3359 -0.0593  0.3100
  808MOL0     H 6622  10.054   5.026   8.970  2.3798  1.2830  0.9395
  808MOL0     H 6623  10.105   5.177   8.893  0.8992 -0.2853 -1.5980
  808MOL0     H 6624  10.174   5.096   8.706  1.0983  1.2858  0.5938
  808MOL0     H 6625  10.136   4.921   8.748 -2.8173  0.5473 -1.2382
  808MOL0     H 6626  10.341   4.900   8.805 -0.5778 -0.9490 -0.3237
  808MOL0     H 6627  10.296   4.987   8.958  1.8848  0.9113 -0.3865
  808MOL0     H 6628  10.405   5.115   8.712 -1.3121 -1.4880 -0.0211
  808MOL0     H 6629  10.360   5.190   8.881 -0.5418 -0.7599  1.1340
  808MOL0     H 6630  10.561   4.959   8.854  1.9568  0.1981  0.4727
  808MOL0     H 6631  10.509   5.054   8.991 -0.6502 -1.5458 -0.3810
  808MOL0     H 6632  10.738   5.097   8.918  1.0414  0.7179  0.7185
  808MOL0     H 6633  10.654   5.254   8.909 -0.0920  0.5728 -2.1737
  808MOL0     H 6634  10.702   5.070   8.665  0.7375  2.1256 -3.1290
  808MOL0     H 6635  10.622   5.233   8.668  3.0090  3.1212 -0.1314
  808MOL0     H 6636  10.899   5.149   8.727  0.2343 -0.2219  0.3769
  808MOL0     H 6637  10.835   5.310   8.751 -0.1290 -0.2780 -0.4404
  808MOL0     H 6638   9.701   5.180   8.797  1.2916  0.2018  0.1980
  808MOL0     H 6639   9.505   5.041   8.794 -0.4556 -2.7624  1.4393
  808MOL0     H 6640   9.359   4.398   8.738  0.7543 -1.8172  3.1972
  808MOL0     H 6641   9.140   4.315   8.835 -0.3219  0.1284  1.1341
  808MOL0     H 6642   8.915   3.619   9.458  1.0390  0.2931  0.4799
  808MOL0     H 6643   9.134   3.564   9.384 -0.4304  1.5222  0.6642
  808MOL0     H 6644   9.564   3.928   9.118  3.2368  0.6544 -0.7921
  808MOL0     H 6645   9.737   3.923   8.943 -0.2827  0.7747 -1.0515
  808MOL0     H 6646   9.868   3.848   8.769 -0.6949  1.8308  0.9777
  808MOL0     H 6647   9.802   3.937   8.635 -2.2618  0.2388  0.5206
  808MOL0     H 6648   9.996   3.803   8.537 -0.9856  0.5100 -1.9347
  808MOL0     H 6649   9.906   3.656   8.602  1.0755  0.0463  0.9735
  808MOL0     H 6650   9.752   3.857   8.436 -0.1179  0.0092 -1.0625
  808MOL0     H 6651   9.736   3.686   8.439  0.0603  0.4905 -1.5147
  808MOL0     H 6652   9.833   3.745   8.218 -0.7738  1.2567 -0.1790
  808MOL0     H 6653   9.958   3.843   8.298 -1.7291  0.3428  1.6994
  808MOL0     H 6654  10.078   3.431   8.348 -4.2739 -2.2630  3.2019
  808MOL0     H 6655   9.481   3.640   8.729  1.2734 -1.0991  0.4816
  808MOL0     H 6656   9.317   3.655   8.919  0.3674  0.0968  1.3554
  809MOL0     O 6657   8.874   5.926   9.916 -0.5042  0.4141  0.3741
  809MOL0     C 6658   8.853   6.023   9.840  0.6001  0.7352 -0.0183
  809MOL0     O 6659   8.945   6.067   9.753 -0.5006 -0.0980 -0.2275
  809MOL0     C 6660   9.066   6.010   9.752 -0.7335  0.4052 -0.2555
  809MOL0     C 6661   9.108   5.930   9.643 -0.2230  0.2134  0.2508
  809MOL0     C 6662   9.232   5.865   9.623  0.0551  0.3032 -0.5530
  809MOL0     C 6663   9.325   5.902   9.728 -0.1735 -0.8131 -0.0012
  809MOL0     O 6664   9.454   5.862   9.745  0.3861 -0.4270  0.0181
  809MOL0     C 6665   9.508   5.764   9.660  1.5013 -0.1832  0.4184
  809MOL0     C 6666   9.648   5.746   9.722 -0.0452  0.4644  0.0362
  809MOL0     C 6667   9.644   5.662   9.854  0.0806 -0.4135 -0.2581
  809MOL0     C 6668   9.771   5.568   9.897 -0.4205 -0.9955 -0.6500
  809MOL0     C 6669   9.791   5.456   9.795  0.0760  0.0256  0.0689
  809MOL0     C 6670   9.877   5.340   9.836  0.0168  0.7219  0.2232
  809MOL0     C 6671   9.799   5.252   9.934  0.0976 -0.0454 -0.0160
  809MOL0     C 6672   9.887   5.182  10.041  0.1984  0.1068  0.1245
  809MOL0     N 6673   9.794   5.130  10.147 -0.1248 -0.5562 -0.2736
  809MOL0     C 6674   9.704   5.034  10.118  0.6090  0.9907  0.8606
  809MOL0     C 6675   9.611   5.043  10.209 -0.5863 -0.0043 -0.4837
  809MOL0     C 6676   9.490   4.970  10.237 -0.3487  0.1743  0.5423
  809MOL0     C 6677   9.354   5.028  10.190 -1.2479 -0.2049 -0.2502
  809MOL0     C 6678   9.354   5.020  10.039  1.0238  0.0339 -0.2331
  809MOL0     C 6679   9.212   5.044   9.974 -0.8727 -0.4652  0.3997
  809MOL0     O 6680   9.142   5.160  10.008  0.2643 -0.4674 -0.9458
  809MOL0     C 6681   9.013   5.142  10.040 -0.9607  0.0811 -0.2716
  809MOL0     C 6682   8.920   5.216   9.959 -0.8316  0.7672 -0.1123
  809MOL0     C 6683   8.785   5.218   9.989 -0.1492  0.3066 -0.1674
  809MOL0     C 6684   8.739   5.145  10.099 -0.3017 -0.1663  0.2234
  809MOL0     C 6685   8.594   5.159  10.137  0.4732  0.3385 -0.2327
  809MOL0     O 6686   8.513   5.255  10.090  0.0442 -0.6844 -0.0600
  809MOL0     C 6687   8.382   5.248  10.123  0.6562 -0.1350 -0.5690
  809MOL0     C 6688   8.284   5.225  10.024  0.6222  0.4850 -0.7053
  809MOL0     C 6689   8.141   5.228  10.053 -0.1070  1.3093  0.2167
  809MOL0     C 6690   8.096   5.252  10.183  0.0810  0.5382  0.0387
  809MOL0     O 6691   7.962   5.247  10.235 -0.3629 -0.1152 -0.2045
  809MOL0     C 6692   7.857   5.254  10.137 -0.1289 -0.7128 -0.1698
  809MOL0     C 6693   7.716   5.254  10.185  0.1610  0.3545  0.7196
  809MOL0     C 6694   7.661   5.387  10.242  0.1149  0.5775  0.3217
  809MOL0     C 6695   7.706   5.395  10.392 -0.2821 -1.0477  0.2583
  809MOL0     C 6696   7.641   5.521  10.455 -0.2663 -1.0293  0.9792
  809MOL0     C 6697   7.489   5.525  10.478 -0.4042 -1.3512 -0.2623
  809MOL0     C 6698   7.443   5.421  10.584  0.3642  0.8505 -0.4743
  809MOL0     C 6699   7.292   5.409  10.566  0.8575  0.3800 -0.5023
  809MOL0    Cl 6700   7.228   5.288  10.680  0.6531 -0.1302 -0.0011
  809MOL0     C 6701   8.195   5.280  10.285  0.5043  0.6118  0.4152
  809MOL0     C 6702   8.329   5.272  10.254 -0.1620 -0.4471  0.5541
  809MOL0     O 6703   8.556   5.066  10.214 -0.4114 -0.3784  0.0862
  809MOL0     C 6704   8.828   5.076  10.185 -0.2270 -0.5835  0.5783
  809MOL0     C 6705   8.969   5.079  10.158  0.5991 -0.0899 -0.0055
  809MOL0     N 6706   9.651   5.140  10.302 -0.1667 -0.0294 -0.1182
  809MOL0     N 6707   9.758   5.196  10.263  0.3021 -0.2744  0.2668
  809MOL0     C 6708   9.293   5.992   9.824 -0.3961 -0.3180  0.2268
  809MOL0     C 6709   9.160   6.048   9.842 -0.2678 -0.3445 -0.6271
  809MOL0     C 6710   8.726   6.099   9.855  0.0229 -0.1192  0.7576
  809MOL0     C 6711   8.637   6.072   9.959 -0.8113 -0.7754  0.9919
  809MOL0     C 6712   8.529   6.154   9.985 -0.4854 -1.1591  0.9180
  809MOL0     C 6713   8.505   6.272   9.908  0.2194  0.6107 -0.1068
  809MOL0     O 6714   8.390   6.348   9.932  0.3105 -0.1448 -0.2608
  809MOL0     C 6715   8.306   6.329  10.045 -0.4375 -0.3199 -0.2020
  809MOL0     C 6716   8.204   6.216  10.027 -1.3876 -0.3405  0.5166
  809MOL0     C 6717   8.076   6.216  10.115  0.1675 -1.6450  0.9039
  809MOL0     C 6718   8.099   6.201  10.265 -0.0228  0.1626  0.8865
  809MOL0     C 6719   7.975   6.233  10.334 -0.2909 -0.5376 -0.3182
  809MOL0     C 6720   7.865   6.237  10.387 -0.0377 -0.4515  1.1428
  809MOL0     C 6721   8.582   6.293   9.788  0.0929  0.8803  0.4872
  809MOL0     C 6722   8.701   6.215   9.770  1.1220 -0.5008  0.1764
  809MOL0     H 6723   9.026   5.902   9.578 -0.9151 -1.4847  1.7515
  809MOL0     H 6724   9.251   5.793   9.544  3.3097 -0.6236  0.8837
  809MOL0     H 6725   9.524   5.797   9.557  2.2003  0.5301  0.7402
  809MOL0     H 6726   9.451   5.671   9.658 -0.5851  0.7495  4.8543
  809MOL0     H 6727   9.698   5.840   9.747 -2.3486  1.7463  0.0940
  809MOL0     H 6728   9.713   5.691   9.653  1.2031  0.7274  0.9700
  809MOL0     H 6729   9.558   5.596   9.861 -1.1156  1.2472  2.3238
  809MOL0     H 6730   9.630   5.732   9.937  0.0839  1.5099 -1.7999
  809MOL0     H 6731   9.858   5.634   9.903 -1.9175  1.0218 -0.1703
  809MOL0     H 6732   9.757   5.528   9.998  0.4506  0.3057  0.0176
  809MOL0     H 6733   9.823   5.494   9.698 -3.3947 -1.0681 -1.6964
  809MOL0     H 6734   9.695   5.418   9.759  0.8663 -0.0614 -2.1448
  809MOL0     H 6735   9.978   5.361   9.874  0.0189  0.6094  0.2796
  809MOL0     H 6736   9.886   5.272   9.751 -0.4799 -2.4426  2.5307
  809MOL0     H 6737   9.718   5.313   9.976  1.2218  1.2648  0.3247
  809MOL0     H 6738   9.747   5.181   9.869  2.2066 -1.1588 -0.5653
  809MOL0     H 6739   9.954   5.258  10.081  3.7242 -1.7572 -1.7628
  809MOL0     H 6740   9.944   5.102   9.992 -1.2602 -1.4504  0.8791
  809MOL0     H 6741   9.700   4.970  10.031  0.9352  2.7407 -0.4861
  809MOL0     H 6742   9.484   4.966  10.346 -0.2786  4.0376  0.8083
  809MOL0     H 6743   9.503   4.868  10.198 -1.0766  0.4922 -0.5821
  809MOL0     H 6744   9.341   5.131  10.225  0.6076  0.4066 -1.2747
  809MOL0     H 6745   9.274   4.962  10.226 -0.6921  1.1088  3.9938
  809MOL0     H 6746   9.425   5.095  10.005  1.0084  0.9030  1.5236
  809MOL0     H 6747   9.387   4.920  10.010  0.4466 -1.4251  3.5131
  809MOL0     H 6748   9.149   4.955   9.973  0.3192 -1.3464 -1.1867
  809MOL0     H 6749   9.232   5.052   9.867  0.5064  4.1071  0.7855
  809MOL0     H 6750   8.964   5.282   9.884  1.5111  0.1219  0.5929
  809MOL0     H 6751   8.707   5.272   9.938  1.5907  1.5447 -1.6517
  809MOL0     H 6752   8.330   5.216   9.925  2.7188 -0.7161  0.3122
  809MOL0     H 6753   8.063   5.215   9.979  1.2023  0.5182 -1.0741
  809MOL0     H 6754   7.875   5.163  10.078  1.5585 -1.2815  1.1162
  809MOL0     H 6755   7.875   5.340  10.073  3.0265 -1.2713 -0.1846
  809MOL0     H 6756   7.698   5.171  10.253 -2.3966  1.0860  1.0514
  809MOL0     H 6757   7.652   5.234  10.098  0.3596  0.8052  0.4605
  809MOL0     H 6758   7.552   5.382  10.232  0.1419  2.6447 -1.9720
  809MOL0     H 6759   7.700   5.479  10.196 -1.2414  1.7563  1.4165
  809MOL0     H 6760   7.680   5.308  10.454 -0.8183 -0.1442  1.3308
  809MOL0     H 6761   7.815   5.404  10.399 -0.1097 -1.7386 -1.2352
  809MOL0     H 6762   7.661   5.616  10.405 -0.0963 -0.5793  1.8693
  809MOL0     H 6763   7.694   5.528  10.550 -0.6270 -4.1759  1.5030
  809MOL0     H 6764   7.440   5.498  10.384  0.4563  0.2386 -1.2005
  809MOL0     H 6765   7.444   5.620  10.508 -2.2450 -2.3091  0.2302
  809MOL0     H 6766   7.484   5.323  10.558 -0.8325 -0.0022  0.7215
  809MOL0     H 6767   7.470   5.443  10.688  0.3417  1.8481 -0.6694
  809MOL0     H 6768   7.269   5.364  10.470 -1.2842 -0.9341  0.5582
  809MOL0     H 6769   7.257   5.512  10.576 -2.8372 -0.6323 -1.5887
  809MOL0     H 6770   8.147   5.306  10.379 -2.0129  0.2688 -0.6761
  809MOL0     H 6771   8.394   5.266  10.340  0.3691 -1.5816  0.0984
  809MOL0     H 6772   8.785   5.024  10.271  1.2287 -1.8329  0.5850
  809MOL0     H 6773   9.037   5.031  10.226  0.8299 -1.5922 -1.2458
  809MOL0     H 6774   9.373   6.014   9.894  0.6493  1.2246 -1.3618
  809MOL0     H 6775   9.143   6.118   9.923 -0.4857 -1.6659  0.5116
  809MOL0     H 6776   8.647   5.980  10.015 -0.1674 -1.0027  0.5140
  809MOL0     H 6777   8.462   6.132  10.067 -0.3186  0.0674  1.4008
  809MOL0     H 6778   8.245   6.418  10.063  0.9013  0.3184  1.3646
  809MOL0     H 6779   8.363   6.307  10.136  1.3201  3.1513 -0.3305
  809MOL0     H 6780   8.167   6.214   9.924  2.1084 -1.4535 -0.8568
  809MOL0     H 6781   8.257   6.120  10.028 -0.0612  0.3704 -0.1035
  809MOL0     H 6782   8.012   6.133  10.085 -1.2561  0.1222 -1.3161
  809MOL0     H 6783   8.021   6.306  10.086  0.1084 -1.7286  0.7556
  809MOL0     H 6784   8.135   6.100  10.287  2.5885  0.6848 -0.5859
  809MOL0     H 6785   8.175   6.267  10.308  0.0571 -0.4083  1.6455
  809MOL0     H 6786   7.774   6.247  10.443  0.4336 -0.9317  2.0310
  809MOL0     H 6787   8.555   6.376   9.723 -2.8757 -0.8787 -0.7559
  809MOL0     H 6788   8.764   6.244   9.687 -0.3133  2.6386  0.0191
  810MOL0     O 6789   4.073   6.958   5.890  0.0963  0.3072 -0.2029
  810MOL0     C 6790   4.028   6.848   5.853  1.0819  0.6744 -0.9257
  810MOL0     O 6791   3.903   6.821   5.796 -0.0281  0.0111 -0.5301
  810MOL0     C 6792   3.809   6.923   5.805  0.0229 -0.3599  0.1042
  810MOL0     C 6793   3.777   6.989   5.689  0.6184 -0.2819 -0.8850
  810MOL0     C 6794   3.705   7.105   5.688  1.0332 -1.0873 -0.1687
  810MOL0     C 6795   3.648   7.146   5.810  0.7732 -0.2053  0.2038
  810MOL0     O 6796   3.569   7.259   5.820 -0.0102  0.4498  0.5197
  810MOL0     C 6797   3.584   7.361   5.715 -0.5463  0.7005 -0.3432
  810MOL0     C 6798   3.518   7.478   5.768 -0.0576 -0.8246 -0.1776
  810MOL0     C 6799   3.519   7.589   5.668  0.6270 -0.2315 -0.3940
  810MOL0     C 6800   3.432   7.714   5.707  0.5992  1.2606 -0.4916
  810MOL0     C 6801   3.278   7.689   5.721 -0.1105  0.0225  0.2413
  810MOL0     C 6802   3.215   7.640   5.591 -1.0254 -0.4729  0.1477
  810MOL0     C 6803   3.061   7.615   5.606 -1.3201  0.1913 -0.0265
  810MOL0     C 6804   2.981   7.734   5.562  0.2796 -0.0781 -0.3721
  810MOL0     N 6805   2.837   7.722   5.604  0.0920  0.3062 -0.2856
  810MOL0     C 6806   2.778   7.618   5.671  0.1748 -0.1471 -0.3447
  810MOL0     C 6807   2.644   7.647   5.668 -0.1308  0.1476  1.0045
  810MOL0     C 6808   2.526   7.556   5.715 -0.1688  0.3141  0.2784
  810MOL0     C 6809   2.531   7.418   5.641  0.4502 -0.7269  0.0509
  810MOL0     C 6810   2.471   7.441   5.502  0.3387  0.4768 -0.4373
  810MOL0     C 6811   2.322   7.439   5.506 -0.1709 -0.0369 -0.0998
  810MOL0     O 6812   2.287   7.502   5.384  1.0801  0.0079 -0.4091
  810MOL0     C 6813   2.152   7.512   5.357  0.7013 -0.3672  0.4372
  810MOL0     C 6814   2.046   7.505   5.441 -0.8157  0.3493  0.1264
  810MOL0     C 6815   1.909   7.526   5.398 -1.0365 -0.5524  0.2112
  810MOL0     C 6816   1.882   7.549   5.261  0.3036  0.3085 -0.5220
  810MOL0     C 6817   1.739   7.558   5.219  0.2821 -0.0957 -0.1604
  810MOL0     O 6818   1.640   7.514   5.305 -0.6295  0.1155  0.1054
  810MOL0     C 6819   1.510   7.536   5.272 -0.3878  0.0665  0.2723
  810MOL0     C 6820   1.431   7.431   5.221  0.3780  0.0111  0.5023
  810MOL0     C 6821   1.300   7.447   5.180  0.5567 -1.0796  0.2248
  810MOL0     C 6822   1.241   7.567   5.216  0.0950  0.8033 -0.9427
  810MOL0     O 6823   1.104   7.552   5.213 -0.0595 -0.5515  0.4080
  810MOL0     C 6824   1.026   7.661   5.164  0.4252  0.0662 -0.4879
  810MOL0     C 6825   0.888   7.623   5.091 -0.4783  0.4345 -1.0788
  810MOL0     C 6826   0.903   7.490   4.999 -0.3070 -0.5514  0.0509
  810MOL0     C 6827   0.774   7.466   4.927 -0.0810 -1.1802  0.5222
  810MOL0     C 6828   0.789   7.360   4.811  0.8498  0.2860 -0.2695
  810MOL0     C 6829   0.655   7.334   4.745 -0.2291 -0.5739  0.6119
  810MOL0     C 6830   0.668   7.221   4.629  0.3734  0.1014  0.2993
  810MOL0     C 6831   0.545   7.215   4.538  0.0775  0.3055 -1.1779
  810MOL0    Cl 6832   0.531   7.348   4.413  0.6754  0.5715  0.1278
  810MOL0     C 6833   1.308   7.676   5.273  0.5921  0.3486 -0.4328
  810MOL0     C 6834   1.448   7.661   5.298  1.2339 -0.4190  0.2601
  810MOL0     O 6835   1.719   7.604   5.104 -0.1520  0.1381  0.3238
  810MOL0     C 6836   1.993   7.545   5.175  0.6555  0.6187 -0.1514
  810MOL0     C 6837   2.126   7.531   5.225 -0.3629  0.7063  0.2780
  810MOL0     N 6838   2.628   7.770   5.602  0.1832  0.7905  0.1747
  810MOL0     N 6839   2.746   7.809   5.571 -0.6084  0.2522  0.2920
  810MOL0     C 6840   3.657   7.065   5.926 -0.2805  0.7117  0.0963
  810MOL0     C 6841   3.747   6.957   5.919  0.4857  0.8722 -0.3584
  810MOL0     C 6842   4.122   6.732   5.863  0.1823  0.2059  0.2000
  810MOL0     C 6843   4.089   6.617   5.786  0.3710 -0.5144  0.5643
  810MOL0     C 6844   4.175   6.507   5.799 -0.2452  0.1328  1.3234
  810MOL0     C 6845   4.288   6.506   5.880  0.5589  0.1451 -0.6723
  810MOL0     O 6846   4.367   6.391   5.892  0.5308 -0.2517 -0.3134
  810MOL0     C 6847   4.314   6.264   5.872  0.0608 -0.6919 -0.2909
  810MOL0     C 6848   4.358   6.218   5.734 -0.5677  0.8436 -0.0817
  810MOL0     C 6849   4.509   6.177   5.728  0.1648 -0.0362 -0.1862
  810MOL0     C 6850   4.575   6.174   5.596  0.1332 -0.1103 -0.4342
  810MOL0     C 6851   4.515   6.080   5.500  0.6885  0.1808 -0.1061
  810MOL0     C 6852   4.457   6.004   5.421 -0.3264 -1.5621 -1.0029
  810MOL0     C 6853   4.323   6.629   5.941 -0.8376  0.6610  0.0746
  810MOL0     C 6854   4.245   6.745   5.934 -1.0585  0.9256  0.4632
  810MOL0     H 6855   3.812   6.948   5.595 -2.5528  1.0003 -2.8064
  810MOL0     H 6856   3.686   7.162   5.598  0.6247 -0.8180  0.0860
  810MOL0     H 6857   3.540   7.334   5.618  2.0531 -1.2104 -1.1206
  810MOL0     H 6858   3.691   7.384   5.709 -0.7819  2.1335  0.6042
  810MOL0     H 6859   3.570   7.510   5.859 -1.4269 -3.2832  1.5901
  810MOL0     H 6860   3.416   7.453   5.801 -0.1205  0.4018  0.6354
  810MOL0     H 6861   3.468   7.550   5.579  1.0767 -2.5075  0.2877
  810MOL0     H 6862   3.619   7.626   5.642  0.9649 -1.9303 -1.6874
  810MOL0     H 6863   3.461   7.763   5.801 -1.2496  0.6934  0.4229
  810MOL0     H 6864   3.447   7.785   5.625 -0.3284 -0.7233 -2.4834
  810MOL0     H 6865   3.233   7.785   5.745  1.7120  0.7152  1.0909
  810MOL0     H 6866   3.247   7.625   5.804 -3.0789  2.6135  1.2939
  810MOL0     H 6867   3.260   7.542   5.574  1.8384 -0.3252  4.9725
  810MOL0     H 6868   3.230   7.705   5.504 -0.8438 -0.2914  0.3099
  810MOL0     H 6869   3.039   7.531   5.539 -2.1754 -2.0379  2.8745
  810MOL0     H 6870   3.044   7.590   5.711 -4.1528  0.0813 -0.4431
  810MOL0     H 6871   2.992   7.732   5.453  0.6350 -0.9293 -0.3242
  810MOL0     H 6872   3.021   7.827   5.604 -0.6627  0.2485 -0.1726
  810MOL0     H 6873   2.824   7.525   5.702  0.3071 -0.0262 -0.1708
  810MOL0     H 6874   2.441   7.621   5.694  1.4042  3.1051  2.0194
  810MOL0     H 6875   2.527   7.543   5.823 -2.8645 -2.3654  0.0985
  810MOL0     H 6876   2.464   7.354   5.700  0.7948  0.4763  1.8432
  810MOL0     H 6877   2.634   7.383   5.636  0.4096 -0.9177  0.4989
  810MOL0     H 6878   2.507   7.533   5.456 -2.2627  1.4369 -0.7110
  810MOL0     H 6879   2.499   7.351   5.446 -0.0543 -0.6506  1.0931
  810MOL0     H 6880   2.282   7.494   5.592  1.5257  0.0824  0.6396
  810MOL0     H 6881   2.278   7.339   5.507 -1.2991  0.4004  2.6470
  810MOL0     H 6882   2.058   7.497   5.549 -1.6674  0.8279  0.2655
  810MOL0     H 6883   1.819   7.522   5.458 -1.6545 -1.4982 -0.7360
  810MOL0     H 6884   1.483   7.336   5.209  1.8914  0.8729 -0.0276
  810MOL0     H 6885   1.242   7.362   5.146 -0.7123  0.3521 -1.3856
  810MOL0     H 6886   1.080   7.722   5.090  0.8787  2.2517  1.5232
  810MOL0     H 6887   0.996   7.727   5.246  2.5453 -0.1131  0.4882
  810MOL0     H 6888   0.852   7.706   5.029  0.1834  1.6516  0.1301
  810MOL0     H 6889   0.818   7.607   5.173 -0.7884 -4.4662 -2.0238
  810MOL0     H 6890   0.949   7.409   5.058  1.7410 -0.3257 -1.1433
  810MOL0     H 6891   0.976   7.498   4.918 -2.6023 -3.1552 -2.4788
  810MOL0     H 6892   0.699   7.434   5.001 -0.1092 -1.1915  0.4887
  810MOL0     H 6893   0.732   7.559   4.886 -0.9525 -0.8077  2.1664
  810MOL0     H 6894   0.815   7.267   4.863 -0.0568 -0.5267 -1.2356
  810MOL0     H 6895   0.861   7.392   4.735  1.0916  0.2454 -0.0592
  810MOL0     H 6896   0.619   7.427   4.700  2.9094  1.0917  1.2810
  810MOL0     H 6897   0.587   7.301   4.824  0.3101  0.7787  1.6815
  810MOL0     H 6898   0.757   7.221   4.566 -0.5583 -0.9414 -1.0581
  810MOL0     H 6899   0.672   7.126   4.683 -0.7120  0.0289  0.2729
  810MOL0     H 6900   0.458   7.220   4.605 -0.2576 -0.0444 -1.5807
  810MOL0     H 6901   0.547   7.114   4.495 -2.0022  0.4363 -1.6628
  810MOL0     H 6902   1.239   7.744   5.322  1.6752  2.6314 -1.9238
  810MOL0     H 6903   1.513   7.735   5.344 -0.1059  0.4843  0.7711
  810MOL0     H 6904   1.980   7.576   5.072  1.1578  4.1793  0.7343
  810MOL0     H 6905   2.209   7.546   5.157  0.3958 -0.0292  1.0248
  810MOL0     H 6906   3.599   7.086   6.015  2.3944  3.2514  1.3823
  810MOL0     H 6907   3.771   6.897   6.006 -1.0772  0.1553 -0.4018
  810MOL0     H 6908   4.005   6.601   5.720  0.6692 -3.4292  0.7536
  810MOL0     H 6909   4.139   6.425   5.737 -1.5181  0.4555  1.6063
  810MOL0     H 6910   4.204   6.264   5.872  0.0471  0.0310 -1.0694
  810MOL0     H 6911   4.341   6.193   5.951 -1.1377 -1.4091 -0.4875
  810MOL0     H 6912   4.301   6.132   5.698 -2.8228  1.4564  1.7964
  810MOL0     H 6913   4.346   6.295   5.658  1.3568  1.7956  0.4898
  810MOL0     H 6914   4.532   6.087   5.786 -1.8702  0.3906  1.4172
  810MOL0     H 6915   4.557   6.261   5.780 -0.4906  0.3084 -0.1173
  810MOL0     H 6916   4.559   6.269   5.543  0.4884 -0.6254 -1.4780
  810MOL0     H 6917   4.683   6.162   5.605  0.6150  3.3923  0.1538
  810MOL0     H 6918   4.421   5.939   5.345  0.1997 -0.6863 -2.0284
  810MOL0     H 6919   4.411   6.638   6.003 -0.7643  2.8353 -0.2668
  810MOL0     H 6920   4.277   6.843   5.969 -0.5036  0.6992  0.5898
  811MOL0     O 6921   6.388   4.003   3.739 -0.8708 -0.1079  0.3396
  811MOL0     C 6922   6.404   3.900   3.802 -0.6975 -0.2983 -0.5896
  811MOL0     O 6923   6.385   3.779   3.760  0.1240  0.1916  0.2142
  811MOL0     C 6924   6.303   3.759   3.647  0.4379 -0.0804 -0.5504
  811MOL0     C 6925   6.342   3.785   3.514  0.0292 -0.5055  0.0687
  811MOL0     C 6926   6.244   3.761   3.411 -0.7673  0.3670 -0.1833
  811MOL0     C 6927   6.113   3.718   3.439  0.7923  0.4418 -0.4620
  811MOL0     O 6928   6.022   3.708   3.344  0.4668 -0.1898 -0.0337
  811MOL0     C 6929   6.053   3.721   3.205  0.2480 -0.1330 -0.5056
  811MOL0     C 6930   5.932   3.678   3.113 -0.3471  0.0603  0.2195
  811MOL0     C 6931   5.980   3.696   2.960 -0.1870 -0.1150  0.3017
  811MOL0     C 6932   5.869   3.658   2.862  0.2812 -0.5647 -0.0869
  811MOL0     C 6933   5.928   3.640   2.722 -0.3757 -0.4396  0.7717
  811MOL0     C 6934   5.825   3.636   2.606  0.5613  0.3223  0.2381
  811MOL0     C 6935   5.896   3.573   2.477  1.0521  1.0017 -0.9848
  811MOL0     C 6936   5.869   3.420   2.467  0.2017  0.4717 -0.5246
  811MOL0     N 6937   5.734   3.403   2.406 -0.6624 -0.0443 -0.2548
  811MOL0     C 6938   5.686   3.285   2.354  0.0181  0.5296 -0.5560
  811MOL0     C 6939   5.564   3.310   2.303 -0.5954  0.2406 -0.5350
  811MOL0     C 6940   5.466   3.203   2.260 -0.4695 -0.3575 -1.3048
  811MOL0     C 6941   5.344   3.249   2.169 -0.1278 -0.0014 -0.6150
  811MOL0     C 6942   5.263   3.128   2.131 -0.2052  0.3375  0.2986
  811MOL0     C 6943   5.146   3.161   2.030  0.5605  0.5061  0.4807
  811MOL0     O 6944   5.056   3.240   2.103 -0.2807 -0.7482  0.4914
  811MOL0     C 6945   4.926   3.194   2.108  0.5234  0.4505 -0.7681
  811MOL0     C 6946   4.858   3.196   2.232  0.0185  0.1692 -0.7891
  811MOL0     C 6947   4.730   3.160   2.242  0.0523  0.1021 -0.1062
  811MOL0     C 6948   4.667   3.087   2.140 -0.0497 -0.5273  0.3189
  811MOL0     C 6949   4.534   3.030   2.149 -0.5787 -0.2236 -0.5801
  811MOL0     O 6950   4.489   2.941   2.058  0.5001 -0.4813 -0.6604
  811MOL0     C 6951   4.352   2.930   2.054 -0.5356  0.4259 -0.7264
  811MOL0     C 6952   4.297   2.805   2.063  0.5152  0.4281  0.0637
  811MOL0     C 6953   4.158   2.783   2.050 -0.6997 -0.0076 -0.6153
  811MOL0     C 6954   4.077   2.890   2.023 -1.1787 -0.9039  0.2875
  811MOL0     O 6955   3.946   2.851   2.018  0.2712 -0.7110 -0.6719
  811MOL0     C 6956   3.848   2.954   2.017  0.8003 -0.0266 -0.2793
  811MOL0     C 6957   3.705   2.892   2.001  0.0293 -0.9595  0.3542
  811MOL0     C 6958   3.663   2.800   2.123  0.2698 -1.0462 -0.6202
  811MOL0     C 6959   3.518   2.758   2.105 -0.0071  0.4385  0.1068
  811MOL0     C 6960   3.469   2.653   2.209  0.0134  0.1814  0.1197
  811MOL0     C 6961   3.329   2.593   2.166  0.3675 -0.0323  0.0757
  811MOL0     C 6962   3.265   2.518   2.279  0.0196 -0.3476  0.2079
  811MOL0     C 6963   3.351   2.405   2.330  0.8178  0.7897 -0.1586
  811MOL0    Cl 6964   3.249   2.291   2.435  0.2765 -0.4812  0.0365
  811MOL0     C 6965   4.130   3.022   2.012 -0.3509 -0.7937 -0.2377
  811MOL0     C 6966   4.267   3.041   2.029  0.1613  0.5061 -0.5679
  811MOL0     O 6967   4.477   3.064   2.249  0.7073 -0.0442 -1.2089
  811MOL0     C 6968   4.730   3.076   2.015 -1.0970  0.7649 -0.5787
  811MOL0     C 6969   4.858   3.139   1.996 -0.1030 -0.2697 -0.0590
  811MOL0     N 6970   5.537   3.443   2.331  0.4191  0.3226 -0.5518
  811MOL0     N 6971   5.637   3.496   2.391 -0.6162  0.3658  0.3955
  811MOL0     C 6972   6.084   3.680   3.571 -0.9863  0.0900 -0.5204
  811MOL0     C 6973   6.176   3.712   3.673  0.9464 -0.0246  1.0346
  811MOL0     C 6974   6.481   3.912   3.930  0.7987 -0.0551  0.1609
  811MOL0     C 6975   6.505   4.034   4.001  0.5143 -0.0635  0.3287
  811MOL0     C 6976   6.578   4.033   4.124 -0.1750  1.0877  0.0034
  811MOL0     C 6977   6.628   3.911   4.173 -0.2172 -0.3487 -0.2568
  811MOL0     O 6978   6.712   3.896   4.277  0.4564  0.0231 -0.8654
  811MOL0     C 6979   6.774   4.009   4.333  0.2278  0.1336  0.0944
  811MOL0     C 6980   6.886   3.966   4.421  0.2364  0.0219  0.0410
  811MOL0     C 6981   6.976   4.075   4.474  0.6291 -0.3195 -0.4200
  811MOL0     C 6982   7.084   4.005   4.555 -0.5928 -0.8436 -0.0901
  811MOL0     C 6983   7.136   4.086   4.663 -0.0933 -0.1374 -0.1722
  811MOL0     C 6984   7.175   4.163   4.746 -0.3100  0.3105  0.3692
  811MOL0     C 6985   6.596   3.799   4.099 -0.2219 -0.6909 -0.5750
  811MOL0     C 6986   6.528   3.798   3.979  0.3656 -0.1475  0.0508
  811MOL0     H 6987   6.444   3.817   3.496 -0.0568 -0.6136 -0.6505
  811MOL0     H 6988   6.273   3.785   3.309 -0.6206 -0.3737 -0.3214
  811MOL0     H 6989   6.140   3.655   3.193 -0.7519 -2.5521  3.4490
  811MOL0     H 6990   6.083   3.821   3.173  2.3464 -0.5864 -0.1309
  811MOL0     H 6991   5.845   3.741   3.134  0.6639  1.4391  0.4918
  811MOL0     H 6992   5.910   3.572   3.123 -1.3381  0.3735  1.6735
  811MOL0     H 6993   6.072   3.646   2.932  2.1536  2.9327  1.9369
  811MOL0     H 6994   5.993   3.804   2.948 -1.4558 -0.0070 -0.3810
  811MOL0     H 6995   5.811   3.568   2.886 -1.6719  0.5094 -0.5999
  811MOL0     H 6996   5.790   3.733   2.855  0.8724  0.0260 -0.6605
  811MOL0     H 6997   5.990   3.550   2.721 -1.1336 -0.9656  0.5051
  811MOL0     H 6998   5.989   3.730   2.706  1.4384 -1.7082  0.2268
  811MOL0     H 6999   5.804   3.733   2.561  0.4779 -1.0022 -2.8709
  811MOL0     H 7000   5.733   3.595   2.649  1.9258 -1.5047  1.5443
  811MOL0     H 7001   5.846   3.627   2.396 -3.0733  2.3544  2.0763
  811MOL0     H 7002   6.004   3.589   2.473  0.7789  2.6410 -3.1708
  811MOL0     H 7003   5.865   3.377   2.568 -3.1810 -1.5345 -1.3445
  811MOL0     H 7004   5.943   3.359   2.414  0.9073  0.9440 -0.0941
  811MOL0     H 7005   5.737   3.191   2.337  1.9775  1.6439 -1.1517
  811MOL0     H 7006   5.422   3.160   2.350  1.3373 -0.0960 -0.2551
  811MOL0     H 7007   5.517   3.121   2.209 -1.2288 -1.0021 -1.0456
  811MOL0     H 7008   5.395   3.297   2.084 -0.0755  0.5481 -0.2731
  811MOL0     H 7009   5.281   3.316   2.228  0.8619 -1.2373  2.0037
  811MOL0     H 7010   5.332   3.060   2.081 -1.6627  0.5561 -2.1751
  811MOL0     H 7011   5.219   3.080   2.218  0.2166 -0.8988 -0.1520
  811MOL0     H 7012   5.112   3.070   1.980 -1.2307  1.5614 -0.2896
  811MOL0     H 7013   5.187   3.225   1.952  2.2576  0.5055  1.3302
  811MOL0     H 7014   4.914   3.228   2.319  0.2581  0.3179 -0.9973
  811MOL0     H 7015   4.676   3.167   2.336 -2.7817 -0.9631 -1.5274
  811MOL0     H 7016   4.363   2.720   2.051  0.9290  0.9029 -1.1491
  811MOL0     H 7017   4.109   2.686   2.055  1.4215 -1.0828  1.0335
  811MOL0     H 7018   3.853   3.022   1.932  0.4934 -0.9109 -1.0241
  811MOL0     H 7019   3.853   3.017   2.106  5.0788  0.4937 -0.7143
  811MOL0     H 7020   3.692   2.838   1.906  1.4794 -2.3807  0.9166
  811MOL0     H 7021   3.636   2.976   1.997  2.9941  1.9183  3.4187
  811MOL0     H 7022   3.669   2.860   2.214 -1.0134  0.5099 -1.4990
  811MOL0     H 7023   3.731   2.716   2.138 -0.2375 -1.4525 -0.5382
  811MOL0     H 7024   3.460   2.850   2.117 -0.0439  0.4402 -0.0752
  811MOL0     H 7025   3.496   2.721   2.004 -0.9615  0.2554  0.3809
  811MOL0     H 7026   3.453   2.695   2.309  1.7999  2.4988 -0.4854
  811MOL0     H 7027   3.539   2.571   2.222 -0.4494 -0.0215  1.5395
  811MOL0     H 7028   3.352   2.514   2.094 -1.0178  0.9275 -1.4809
  811MOL0     H 7029   3.263   2.660   2.111  0.7206 -2.1002 -3.1545
  811MOL0     H 7030   3.243   2.591   2.359 -2.6906  0.9143 -1.5346
  811MOL0     H 7031   3.166   2.485   2.247  0.1445 -1.4596  0.9147
  811MOL0     H 7032   3.430   2.449   2.391  2.1529 -2.8242  0.9625
  811MOL0     H 7033   3.385   2.341   2.248 -1.2664 -1.7618  0.8143
  811MOL0     H 7034   4.082   3.115   1.981 -0.5469 -1.7640 -3.1125
  811MOL0     H 7035   4.307   3.141   2.011  1.3061  0.0583 -0.6214
  811MOL0     H 7036   4.674   3.029   1.935  1.3067  1.8508 -3.0736
  811MOL0     H 7037   4.911   3.133   1.901  0.8723 -1.4101  0.5431
  811MOL0     H 7038   5.985   3.641   3.593 -0.8974  0.3346  0.3667
  811MOL0     H 7039   6.144   3.679   3.771 -0.5752 -0.3783  0.4441
  811MOL0     H 7040   6.483   4.135   3.968 -3.7171 -0.0344  2.4821
  811MOL0     H 7041   6.590   4.126   4.178 -0.8757  0.7323  0.7973
  811MOL0     H 7042   6.709   4.077   4.389  2.1151  1.0862  1.2260
  811MOL0     H 7043   6.815   4.071   4.252 -3.1264 -0.3066 -2.1540
  811MOL0     H 7044   6.833   3.928   4.508  0.2998 -0.1464  0.0067
  811MOL0     H 7045   6.944   3.890   4.367  0.1417  0.9196 -1.3861
  811MOL0     H 7046   6.913   4.132   4.543 -3.1674 -1.6808 -2.5002
  811MOL0     H 7047   7.016   4.132   4.390  0.2834  0.5396 -0.0083
  811MOL0     H 7048   7.044   3.918   4.609 -1.6748 -1.5700 -1.9676
  811MOL0     H 7049   7.165   3.979   4.486 -0.2443  0.8086 -0.3453
  811MOL0     H 7050   7.208   4.217   4.832 -2.4554  1.7558  0.3736
  811MOL0     H 7051   6.638   3.703   4.128  1.2528 -0.0377 -0.4127
  811MOL0     H 7052   6.513   3.698   3.940  1.5806  0.0065 -0.8811
  812MOL0     O 7053  10.041   8.274   0.465  0.4244 -0.7495  0.3517
  812MOL0     C 7054  10.025   8.354   0.374  1.0070  0.5772  0.6866
  812MOL0     O 7055  10.111   8.395   0.289  0.1746  1.2299 -0.4937
  812MOL0     C 7056  10.246   8.353   0.312  0.7155 -0.8948  0.0835
  812MOL0     C 7057  10.309   8.374   0.432 -0.3162 -0.2721 -0.5581
  812MOL0     C 7058  10.437   8.324   0.460 -0.3733  0.5615 -0.8056
  812MOL0     C 7059  10.506   8.249   0.358 -0.9487  0.6384 -0.4897
  812MOL0     O 7060  10.619   8.179   0.380  0.4211 -1.1030  0.3025
  812MOL0     C 7061  10.685   8.182   0.503 -0.5861 -0.8079 -0.0327
  812MOL0     C 7062  10.822   8.117   0.476  0.1479  0.5237  0.1680
  812MOL0     C 7063  10.909   8.125   0.598 -0.5896  0.4636  0.4587
  812MOL0     C 7064  11.029   8.030   0.566  0.7117  0.3403  0.3494
  812MOL0     C 7065  11.124   8.036   0.677  0.5892 -0.4160  0.1933
  812MOL0     C 7066  11.235   7.925   0.686  0.5003 -0.8102  0.5951
  812MOL0     C 7067  11.323   7.909   0.812  1.0070 -0.3781 -0.3008
  812MOL0     C 7068  11.342   8.039   0.901 -0.1252 -0.5703  0.6827
  812MOL0     N 7069  11.441   8.020   1.005 -1.0524  0.0688  0.1666
  812MOL0     C 7070  11.437   7.935   1.110  0.8936 -0.0710  0.6329
  812MOL0     C 7071  11.561   7.958   1.168 -0.1267  0.0405 -0.0838
  812MOL0     C 7072  11.624   7.903   1.285 -0.3917 -0.2873  0.1362
  812MOL0     C 7073  11.607   8.005   1.399 -0.7689 -0.4940  0.7980
  812MOL0     C 7074  11.680   7.990   1.527 -0.3149 -0.4621 -0.6582
  812MOL0     C 7075  11.670   8.094   1.638  0.4304  0.1749  0.0603
  812MOL0     O 7076  11.545   8.141   1.684  0.3979 -0.3283  0.2393
  812MOL0     C 7077  11.527   8.228   1.789 -0.2234  0.0020 -0.2986
  812MOL0     C 7078  11.397   8.296   1.786 -0.1941 -0.6465 -0.1770
  812MOL0     C 7079  11.375   8.391   1.886 -0.3516 -0.1659  0.4551
  812MOL0     C 7080  11.475   8.433   1.969  0.2627 -0.5661 -0.4163
  812MOL0     C 7081  11.441   8.536   2.061 -0.2268 -0.8704  0.1769
  812MOL0     O 7082  11.547   8.590   2.138 -0.7375  0.1076 -0.1254
  812MOL0     C 7083  11.545   8.700   2.221 -0.0571  0.1373  0.4038
  812MOL0     C 7084  11.647   8.711   2.318  0.2054 -0.0781  0.7424
  812MOL0     C 7085  11.657   8.829   2.391 -0.0986 -0.3784  0.0913
  812MOL0     C 7086  11.568   8.934   2.381  0.7652 -0.2676  0.0495
  812MOL0     O 7087  11.578   9.055   2.442  0.1295 -0.3247  0.5014
  812MOL0     C 7088  11.693   9.138   2.392 -0.1261 -0.3027  0.5656
  812MOL0     C 7089  11.682   9.280   2.438 -0.0832  0.2409 -0.0063
  812MOL0     C 7090  11.817   9.357   2.429 -0.0913  0.2273  0.6373
  812MOL0     C 7091  11.899   9.353   2.299  0.3176  0.1997  0.6007
  812MOL0     C 7092  12.041   9.387   2.311 -0.2668 -0.4792  0.8318
  812MOL0     C 7093  12.118   9.411   2.178 -1.1238 -0.5820  0.5013
  812MOL0     C 7094  12.268   9.457   2.204 -0.0845 -0.6382  0.0708
  812MOL0     C 7095  12.351   9.511   2.085 -0.9567  0.4072 -0.3601
  812MOL0    Cl 7096  12.514   9.556   2.143  0.5510  0.0455  0.1070
  812MOL0     C 7097  11.456   8.919   2.301  0.3145  0.7982  0.3858
  812MOL0     C 7098  11.449   8.798   2.220  0.7320  0.3249  0.4567
  812MOL0     O 7099  11.327   8.565   2.078  0.3860 -0.6435 -0.0591
  812MOL0     C 7100  11.596   8.362   1.972  0.7483 -0.5644  0.4001
  812MOL0     C 7101  11.623   8.271   1.880  0.3135  0.1879  0.5062
  812MOL0     N 7102  11.629   8.057   1.099  0.1052 -0.1258  0.0959
  812MOL0     N 7103  11.558   8.093   1.007  0.0184 -0.0746  0.7001
  812MOL0     C 7104  10.440   8.245   0.228 -0.7967  0.1779 -0.3853
  812MOL0     C 7105  10.310   8.284   0.208  0.1961  0.3578  0.1691
  812MOL0     C 7106   9.893   8.399   0.352  0.1406 -0.5528 -0.2756
  812MOL0     C 7107   9.852   8.451   0.227 -0.2638 -1.5963 -0.2445
  812MOL0     C 7108   9.727   8.520   0.213  0.2962 -0.7242  0.5130
  812MOL0     C 7109   9.623   8.499   0.310 -0.4147 -0.5591  0.2747
  812MOL0     O 7110   9.497   8.540   0.273  0.6061 -0.7153  0.2428
  812MOL0     C 7111   9.389   8.512   0.363  0.3216  0.7676  0.1362
  812MOL0     C 7112   9.284   8.622   0.337 -0.2650 -0.2321 -0.2438
  812MOL0     C 7113   9.154   8.593   0.402  0.5268 -0.1840 -0.4495
  812MOL0     C 7114   9.152   8.647   0.539  0.5014  0.5861 -0.0296
  812MOL0     C 7115   9.018   8.624   0.608 -0.1599  0.1068  0.0379
  812MOL0     C 7116   8.910   8.629   0.668  0.2938  0.6548 -0.1347
  812MOL0     C 7117   9.657   8.424   0.426 -0.8683 -0.2843  0.5577
  812MOL0     C 7118   9.792   8.392   0.446  0.8918  0.0636 -0.2283
  812MOL0     H 7119  10.262   8.424   0.515  0.6500 -0.6007  0.1992
  812MOL0     H 7120  10.467   8.335   0.564  1.8695 -0.7052 -1.2679
  812MOL0     H 7121  10.621   8.125   0.572 -0.7589 -0.7016 -0.1037
  812MOL0     H 7122  10.696   8.286   0.535  0.2442 -0.5569 -1.0915
  812MOL0     H 7123  10.875   8.167   0.395  1.2942 -4.3167 -2.4132
  812MOL0     H 7124  10.812   8.016   0.435  1.9965  0.7163 -0.8441
  812MOL0     H 7125  10.847   8.083   0.678  1.7267  1.9180  3.1877
  812MOL0     H 7126  10.932   8.229   0.622 -2.6520  1.1060 -0.1794
  812MOL0     H 7127  11.009   7.923   0.560  2.2576 -0.0450  1.2755
  812MOL0     H 7128  11.077   8.064   0.473 -2.1274 -2.2178 -2.2920
  812MOL0     H 7129  11.071   8.035   0.772  0.4065  1.4679  0.1627
  812MOL0     H 7130  11.157   8.141   0.671 -1.9055  0.4832  1.0985
  812MOL0     H 7131  11.308   7.965   0.615 -0.8191  0.8849  0.1185
  812MOL0     H 7132  11.200   7.830   0.644  0.7026 -0.9588  0.7644
  812MOL0     H 7133  11.267   7.834   0.868 -1.3559 -0.3457 -2.4665
  812MOL0     H 7134  11.419   7.861   0.788  0.3662 -1.2687 -1.1733
  812MOL0     H 7135  11.250   8.076   0.946 -1.4151 -3.5850  0.7683
  812MOL0     H 7136  11.383   8.121   0.842  1.8890 -1.2611  1.0371
  812MOL0     H 7137  11.360   7.861   1.132  2.8445 -2.2378  0.5703
  812MOL0     H 7138  11.731   7.888   1.265 -0.2982  0.8797 -0.3236
  812MOL0     H 7139  11.590   7.804   1.316 -0.3690 -0.4991 -0.5180
  812MOL0     H 7140  11.498   8.012   1.411 -0.8817 -0.5965 -0.0512
  812MOL0     H 7141  11.638   8.104   1.362 -1.7136 -0.1238  0.9643
  812MOL0     H 7142  11.658   7.894   1.575  0.5838 -0.5634 -0.4315
  812MOL0     H 7143  11.787   7.994   1.504  0.0762  0.1436  1.0992
  812MOL0     H 7144  11.728   8.184   1.614 -0.6018  0.4890 -1.3063
  812MOL0     H 7145  11.725   8.034   1.711  0.2959 -0.7474 -0.5910
  812MOL0     H 7146  11.319   8.272   1.714 -0.3537 -0.7688  0.0383
  812MOL0     H 7147  11.280   8.443   1.877 -0.8115 -0.9506  0.6431
  812MOL0     H 7148  11.718   8.632   2.339  1.9005  1.7173  2.2031
  812MOL0     H 7149  11.744   8.847   2.453 -1.0443  0.9723  1.0644
  812MOL0     H 7150  11.696   9.139   2.283 -1.2744  0.8963  0.5162
  812MOL0     H 7151  11.781   9.095   2.439  1.6704 -0.5646 -2.7330
  812MOL0     H 7152  11.648   9.277   2.543 -1.1790  1.0559 -0.3182
  812MOL0     H 7153  11.597   9.328   2.389 -1.2046 -0.0790  1.5145
  812MOL0     H 7154  11.887   9.335   2.511  2.2059 -0.1703 -1.3300
  812MOL0     H 7155  11.787   9.462   2.441 -1.4216  0.1683 -1.7099
  812MOL0     H 7156  11.900   9.249   2.266 -0.8456 -0.7422  3.2262
  812MOL0     H 7157  11.839   9.419   2.235 -3.2442 -0.9179  2.5272
  812MOL0     H 7158  12.082   9.299   2.362 -2.3233 -1.7746  0.3389
  812MOL0     H 7159  12.042   9.479   2.371 -2.1346  0.1383 -0.0184
  812MOL0     H 7160  12.063   9.482   2.115 -0.5618 -1.6047 -1.2051
  812MOL0     H 7161  12.113   9.317   2.123 -3.1125  0.3669 -1.0532
  812MOL0     H 7162  12.263   9.542   2.272 -2.7070 -1.8302  1.5631
  812MOL0     H 7163  12.321   9.377   2.256 -1.7575 -2.1298 -0.3760
  812MOL0     H 7164  12.308   9.598   2.035  1.4035  1.2338 -1.0828
  812MOL0     H 7165  12.365   9.437   2.005  0.1174 -1.6272  1.5978
  812MOL0     H 7166  11.382   8.997   2.287 -2.0078 -1.3289 -0.0578
  812MOL0     H 7167  11.369   8.798   2.147  0.4779  0.4087  0.7352
  812MOL0     H 7168  11.662   8.394   2.052  0.3333 -0.6229  0.7734
  812MOL0     H 7169  11.715   8.214   1.884 -0.0777 -0.4422  0.7911
  812MOL0     H 7170  10.484   8.190   0.145 -0.6471  2.5968 -2.0258
  812MOL0     H 7171  10.260   8.265   0.114  0.9395 -2.2624  0.2213
  812MOL0     H 7172   9.926   8.465   0.148  0.4173  2.1998  0.8377
  812MOL0     H 7173   9.716   8.572   0.118 -0.3680  0.2455  1.1103
  812MOL0     H 7174   9.421   8.524   0.467  0.5742 -2.4380  0.5178
  812MOL0     H 7175   9.350   8.412   0.346  0.3874  0.7405  0.1471
  812MOL0     H 7176   9.329   8.714   0.376 -2.1468  0.6516 -0.0639
  812MOL0     H 7177   9.255   8.639   0.233  0.4490  0.0391 -0.4051
  812MOL0     H 7178   9.124   8.489   0.388  3.4210 -0.8762 -2.7133
  812MOL0     H 7179   9.081   8.657   0.352  0.5240  1.7261  1.8077
  812MOL0     H 7180   9.228   8.601   0.603 -0.2341 -0.5164  0.0771
  812MOL0     H 7181   9.156   8.757   0.538 -1.0589  0.7243 -2.7753
  812MOL0     H 7182   8.814   8.634   0.716  0.0343  1.1300 -0.6882
  812MOL0     H 7183   9.583   8.399   0.502 -0.4654 -2.4378  0.2943
  812MOL0     H 7184   9.815   8.351   0.544  1.2615  2.0858  0.5783
  813MOL0     O 7185   3.680   3.582   9.690 -0.0954 -0.2713  0.2021
  813MOL0     C 7186   3.767   3.567   9.610 -0.5537 -0.0736  0.1433
  813MOL0     O 7187   3.895   3.525   9.633 -1.0776  0.0216 -0.1866
  813MOL0     C 7188   3.955   3.519   9.757  0.8783 -0.3004  0.2075
  813MOL0     C 7189   4.071   3.446   9.754 -0.9637  0.1395  0.1732
  813MOL0     C 7190   4.152   3.453   9.869 -0.2678 -1.0071  0.1908
  813MOL0     C 7191   4.128   3.527   9.982  0.6545 -0.0632  0.0186
  813MOL0     O 7192   4.225   3.541  10.079  0.6329 -0.1217 -0.0176
  813MOL0     C 7193   4.257   3.665  10.130  0.1657  0.1332 -0.1687
  813MOL0     C 7194   4.360   3.653  10.232 -0.6577  0.2085 -0.0284
  813MOL0     C 7195   4.408   3.793  10.283 -0.6183 -0.4178 -0.4830
  813MOL0     C 7196   4.539   3.799  10.363 -0.5299  0.1310 -0.2767
  813MOL0     C 7197   4.544   3.712  10.495  0.5151 -1.3000 -0.0893
  813MOL0     C 7198   4.444   3.760  10.604  0.3874  0.0364 -0.5423
  813MOL0     C 7199   4.415   3.637  10.692  0.1090  0.2543  0.2142
  813MOL0     C 7200   4.304   3.675  10.792 -0.6136  0.4330  0.5295
  813MOL0     N 7201   4.331   3.787  10.878  0.0906  0.3458  0.0385
  813MOL0     C 7202   4.311   3.919  10.848  0.5680  0.3738 -0.2345
  813MOL0     C 7203   4.339   3.977  10.968  0.5396 -0.3297 -0.2808
  813MOL0     C 7204   4.342   4.124  10.983 -0.1229 -0.0298  0.4839
  813MOL0     C 7205   4.219   4.178  11.054  0.0526 -0.2962  0.9822
  813MOL0     C 7206   4.157   4.089  11.162 -0.0714  0.3216  0.3624
  813MOL0     C 7207   4.049   4.150  11.246  0.7789 -0.3887 -0.5201
  813MOL0     O 7208   3.931   4.173  11.172 -0.6534  0.0046  0.5140
  813MOL0     C 7209   3.858   4.288  11.193 -0.3414 -0.3086  0.0586
  813MOL0     C 7210   3.740   4.298  11.119 -0.1272  0.4828  0.2908
  813MOL0     C 7211   3.649   4.406  11.123  0.4605 -0.3743 -0.7343
  813MOL0     C 7212   3.680   4.513  11.206  0.5875 -0.1484 -0.0399
  813MOL0     C 7213   3.589   4.624  11.218 -0.8922  0.2769  0.2846
  813MOL0     O 7214   3.497   4.645  11.114 -0.3897 -0.5351 -0.2006
  813MOL0     C 7215   3.395   4.740  11.138 -0.5123  0.0487  0.0361
  813MOL0     C 7216   3.273   4.692  11.183 -0.7325 -0.0104 -0.0189
  813MOL0     C 7217   3.176   4.782  11.221  0.0426 -0.3945 -0.2032
  813MOL0     C 7218   3.210   4.928  11.211  0.0177  1.2481 -0.4159
  813MOL0     O 7219   3.108   5.006  11.266 -0.1007 -0.0384  1.1373
  813MOL0     C 7220   3.141   5.144  11.302 -0.1357 -0.0778 -0.2211
  813MOL0     C 7221   3.020   5.177  11.390 -0.0624  0.4661 -0.4344
  813MOL0     C 7222   3.029   5.326  11.421  0.1228 -0.6118  0.4497
  813MOL0     C 7223   2.897   5.389  11.462 -0.4622 -0.1790  0.0858
  813MOL0     C 7224   2.887   5.540  11.477 -0.2081  1.0695  0.2858
  813MOL0     C 7225   2.744   5.582  11.461  0.3070 -0.6925  0.7992
  813MOL0     C 7226   2.692   5.577  11.313 -0.1171 -0.6826 -0.4664
  813MOL0     C 7227   2.541   5.588  11.327  0.1676  0.6870 -0.1510
  813MOL0    Cl 7228   2.446   5.576  11.183 -0.4970 -0.0068  0.2304
  813MOL0     C 7229   3.335   4.974  11.171  0.2474 -0.2337  0.2048
  813MOL0     C 7230   3.431   4.873  11.132  0.2794  0.0020 -0.5163
  813MOL0     O 7231   3.606   4.694  11.318  0.1744 -0.4951  0.5145
  813MOL0     C 7232   3.809   4.512  11.271  0.0609  0.2059  0.0875
  813MOL0     C 7233   3.902   4.405  11.260  0.0093  0.4737  0.0398
  813MOL0     N 7234   4.380   3.885  11.062 -0.1541 -0.4236  0.4850
  813MOL0     N 7235   4.370   3.768  11.012 -1.0423  0.4617  0.1823
  813MOL0     C 7236   4.001   3.590   9.987 -0.8611 -1.1050  0.2359
  813MOL0     C 7237   3.925   3.590   9.873  0.5429  0.0841  0.3672
  813MOL0     C 7238   3.743   3.603   9.468 -0.3789 -0.7375 -0.0125
  813MOL0     C 7239   3.841   3.609   9.368 -0.1494  0.4931 -0.8281
  813MOL0     C 7240   3.809   3.619   9.238 -0.3835  0.3864  0.4272
  813MOL0     C 7241   3.679   3.625   9.192  0.0407  0.0513 -0.0656
  813MOL0     O 7242   3.644   3.660   9.068  0.1188 -0.3622 -0.1125
  813MOL0     C 7243   3.637   3.806   9.043 -0.2955  0.1321 -0.2723
  813MOL0     C 7244   3.770   3.857   8.993 -0.2679 -0.1337  0.0624
  813MOL0     C 7245   3.802   3.812   8.843  0.1947 -0.0905  0.1893
  813MOL0     C 7246   3.779   3.658   8.797 -0.0444 -0.1638 -1.1698
  813MOL0     C 7247   3.819   3.647   8.658 -1.4247 -0.5151  0.2026
  813MOL0     C 7248   3.868   3.649   8.543 -0.3799  0.3014  0.0133
  813MOL0     C 7249   3.580   3.635   9.297 -0.7365 -0.0964  0.7541
  813MOL0     C 7250   3.610   3.619   9.427  0.0792 -1.9529 -0.0785
  813MOL0     H 7251   4.093   3.378   9.673  2.3847  1.6681 -0.3772
  813MOL0     H 7252   4.247   3.400   9.876  1.6255  2.2882  2.0092
  813MOL0     H 7253   4.167   3.702  10.179  0.2423 -0.1926  0.2223
  813MOL0     H 7254   4.279   3.743  10.057 -0.7637  1.7693  1.2332
  813MOL0     H 7255   4.450   3.604  10.194 -1.1471 -2.4146  1.9142
  813MOL0     H 7256   4.320   3.592  10.313 -0.5775 -0.1141 -0.2311
  813MOL0     H 7257   4.325   3.816  10.351 -0.1172 -0.9053  0.3172
  813MOL0     H 7258   4.412   3.869  10.205 -0.7675  1.0939  0.9309
  813MOL0     H 7259   4.622   3.776  10.297 -0.9150  2.1283 -1.5474
  813MOL0     H 7260   4.556   3.903  10.392  2.1086 -0.5670  0.9828
  813MOL0     H 7261   4.645   3.705  10.537 -0.4932  0.9378  3.1106
  813MOL0     H 7262   4.524   3.608  10.468  0.3780 -2.8597  4.8661
  813MOL0     H 7263   4.358   3.796  10.547 -0.6239 -1.0432  0.2448
  813MOL0     H 7264   4.490   3.841  10.661  3.0300 -0.7197 -1.4458
  813MOL0     H 7265   4.374   3.566  10.620 -0.1075 -0.2353  0.8124
  813MOL0     H 7266   4.502   3.598  10.746 -0.0340  1.2630  1.2236
  813MOL0     H 7267   4.272   3.583  10.842  1.2650  0.0852  1.1761
  813MOL0     H 7268   4.215   3.690  10.730  0.6021  0.5771 -1.2332
  813MOL0     H 7269   4.292   3.944  10.744 -0.1464 -0.9316 -0.4389
  813MOL0     H 7270   4.347   4.173  10.886 -4.7171  4.0792  1.9379
  813MOL0     H 7271   4.428   4.155  11.043  1.4615 -0.9997 -1.1486
  813MOL0     H 7272   4.148   4.203  10.974  2.5839  1.4654 -0.8575
  813MOL0     H 7273   4.257   4.266  11.108 -0.0862 -0.8511  2.0214
  813MOL0     H 7274   4.113   4.004  11.109  0.0183  0.4736  0.0391
  813MOL0     H 7275   4.241   4.057  11.224 -1.0372 -1.7065  0.6896
  813MOL0     H 7276   4.096   4.240  11.285  2.1497  0.7058 -4.2521
  813MOL0     H 7277   4.017   4.084  11.327 -1.7430  1.1810 -0.1086
  813MOL0     H 7278   3.729   4.229  11.036 -2.3501  0.9833  0.1119
  813MOL0     H 7279   3.556   4.387  11.071  0.1409  1.0895 -0.7300
  813MOL0     H 7280   3.250   4.587  11.170  0.3207 -0.2755  0.1373
  813MOL0     H 7281   3.075   4.749  11.244 -0.8252  0.9784 -1.7786
  813MOL0     H 7282   3.157   5.200  11.210  1.2503 -1.3503 -0.8005
  813MOL0     H 7283   3.228   5.159  11.367  0.7179 -0.8383 -1.1627
  813MOL0     H 7284   3.014   5.116  11.481 -1.2562 -0.1788 -0.9310
  813MOL0     H 7285   2.927   5.163  11.335 -0.0807 -4.9325  0.4763
  813MOL0     H 7286   3.056   5.382  11.331  0.3829 -1.6044 -0.0982
  813MOL0     H 7287   3.110   5.347  11.492 -1.2174  1.7894  1.4009
  813MOL0     H 7288   2.822   5.348  11.394 -1.3839  1.3868  0.1165
  813MOL0     H 7289   2.876   5.350  11.562  0.6939 -2.6289 -0.5351
  813MOL0     H 7290   2.955   5.585  11.404  3.0436 -0.1046  2.3345
  813MOL0     H 7291   2.922   5.568  11.577  1.4911 -0.0417  0.0489
  813MOL0     H 7292   2.753   5.683  11.502  1.6807 -1.2910  2.0797
  813MOL0     H 7293   2.678   5.524  11.526 -0.1834 -1.7417 -0.5758
  813MOL0     H 7294   2.734   5.664  11.263 -1.5913  0.7443  0.6711
  813MOL0     H 7295   2.725   5.484  11.264  1.8940 -1.5120  2.2125
  813MOL0     H 7296   2.527   5.687  11.372 -1.4663  0.1843  0.5256
  813MOL0     H 7297   2.510   5.517  11.403  2.5321 -1.0536 -0.6967
  813MOL0     H 7298   3.368   5.077  11.162 -3.2357  0.8880 -1.2973
  813MOL0     H 7299   3.518   4.914  11.081  1.6098  3.1108  3.6692
  813MOL0     H 7300   3.834   4.606  11.320 -0.3462  0.7176 -0.6566
  813MOL0     H 7301   4.007   4.424  11.280  0.3463 -0.5644 -0.6002
  813MOL0     H 7302   3.958   3.640  10.073 -0.0206  2.4895 -1.2716
  813MOL0     H 7303   3.831   3.644   9.863 -0.0201 -0.3442  2.6590
  813MOL0     H 7304   3.945   3.591   9.392 -0.7173 -1.3232  0.4436
  813MOL0     H 7305   3.886   3.612   9.162  1.2533 -0.2217  2.0604
  813MOL0     H 7306   3.620   3.868   9.132  2.4669  0.0382  0.4383
  813MOL0     H 7307   3.559   3.820   8.968 -1.6685 -1.5753  0.7733
  813MOL0     H 7308   3.787   3.965   9.002  2.3768 -0.6473  3.0195
  813MOL0     H 7309   3.850   3.824   9.060 -1.2575  0.9540  1.8338
  813MOL0     H 7310   3.909   3.831   8.835  0.1983 -0.3448 -0.4694
  813MOL0     H 7311   3.751   3.884   8.777  0.5856  0.5121  0.5336
  813MOL0     H 7312   3.835   3.587   8.859  0.4467  2.1760  1.2437
  813MOL0     H 7313   3.671   3.640   8.805 -0.0756  0.5509  0.4390
  813MOL0     H 7314   3.915   3.619   8.451  3.0254 -1.0027  1.9710
  813MOL0     H 7315   3.478   3.651   9.265 -0.8386  1.0138  1.5591
  813MOL0     H 7316   3.520   3.614   9.487  0.4861 -1.6995  0.5685
  814MOL0     O 7317   9.674   7.075   1.701 -0.7066 -0.2879 -0.5213
  814MOL0     C 7318   9.612   7.011   1.791  0.1222 -0.4865 -0.0463
  814MOL0     O 7319   9.518   7.065   1.880  0.2307  0.0218  0.4090
  814MOL0     C 7320   9.485   7.196   1.858 -0.1548  0.0636  0.6076
  814MOL0     C 7321   9.427   7.241   1.742  0.2762 -0.1906  0.4084
  814MOL0     C 7322   9.385   7.377   1.734 -0.3199  0.9662  0.2395
  814MOL0     C 7323   9.398   7.464   1.846 -1.0014  0.0427 -0.3630
  814MOL0     O 7324   9.374   7.598   1.829  0.0477 -0.0198  0.4392
  814MOL0     C 7325   9.331   7.679   1.939  0.0676  0.6675 -0.3116
  814MOL0     C 7326   9.276   7.818   1.902  0.0751  0.2483  0.3908
  814MOL0     C 7327   9.389   7.926   1.919 -0.5708  0.0788  0.2490
  814MOL0     C 7328   9.513   7.907   1.829  0.5130  0.0750  0.6892
  814MOL0     C 7329   9.630   7.981   1.895 -0.4415 -0.1281  0.6083
  814MOL0     C 7330   9.747   8.007   1.801 -0.1260 -0.5898 -0.2058
  814MOL0     C 7331   9.837   8.128   1.836 -0.2005  0.0089 -0.1826
  814MOL0     C 7332   9.930   8.114   1.958 -0.1269 -0.2345  1.4804
  814MOL0     N 7333  10.038   8.020   1.931 -0.7147 -0.1344 -0.4355
  814MOL0     C 7334  10.144   8.046   1.844  0.3552 -0.4260 -0.6552
  814MOL0     C 7335  10.235   7.950   1.855 -0.4468  1.4624  0.2658
  814MOL0     C 7336  10.370   7.934   1.783 -1.0789  0.5072 -0.2295
  814MOL0     C 7337  10.376   7.841   1.664 -0.5471  0.7945  0.1811
  814MOL0     C 7338  10.270   7.853   1.558  0.6779 -0.3668 -0.3739
  814MOL0     C 7339  10.287   7.966   1.454 -0.4706 -0.3726  0.2342
  814MOL0     O 7340  10.234   8.082   1.516  0.1950  0.2922  0.7141
  814MOL0     C 7341  10.100   8.117   1.496 -0.1342  0.0733  0.1739
  814MOL0     C 7342  10.055   8.251   1.529 -0.4247  0.0734  0.6314
  814MOL0     C 7343   9.927   8.285   1.523 -0.1024 -0.6442  0.0123
  814MOL0     C 7344   9.828   8.199   1.479  0.6267  0.7439  0.1136
  814MOL0     C 7345   9.691   8.247   1.482  0.8850  0.7209  0.0521
  814MOL0     O 7346   9.597   8.150   1.453  0.0225 -0.1294  0.0907
  814MOL0     C 7347   9.469   8.174   1.486  0.1847  0.2069  0.4757
  814MOL0     C 7348   9.439   8.198   1.620 -0.2649  0.3442 -0.6118
  814MOL0     C 7349   9.309   8.206   1.660  1.2210 -0.5118  0.0350
  814MOL0     C 7350   9.205   8.196   1.564  0.7488 -0.0197 -0.4787
  814MOL0     O 7351   9.067   8.205   1.596  0.1204 -0.4598 -0.4872
  814MOL0     C 7352   8.981   8.281   1.516  0.2957 -0.7023 -0.1217
  814MOL0     C 7353   8.840   8.243   1.544  0.6749 -0.4390 -0.6002
  814MOL0     C 7354   8.790   8.305   1.675 -0.1668 -0.4699 -0.1751
  814MOL0     C 7355   8.764   8.457   1.673  0.6480  0.6015 -0.3552
  814MOL0     C 7356   8.775   8.519   1.812 -0.2393  0.0812 -0.8756
  814MOL0     C 7357   8.911   8.504   1.886 -0.6977 -0.0083  0.7386
  814MOL0     C 7358   9.025   8.571   1.806  0.1674 -0.2155 -0.1009
  814MOL0     C 7359   9.112   8.672   1.901  0.3064  0.0175 -0.5935
  814MOL0    Cl 7360   9.163   8.569   2.049 -0.0555  0.1516  0.1156
  814MOL0     C 7361   9.242   8.171   1.433  0.8447 -0.0726 -0.6408
  814MOL0     C 7362   9.369   8.155   1.392 -0.1859 -0.4530 -0.0142
  814MOL0     O 7363   9.665   8.364   1.503  0.2221 -0.8365  0.0191
  814MOL0     C 7364   9.869   8.059   1.446  0.2291 -0.1821 -0.7694
  814MOL0     C 7365  10.003   8.026   1.460  0.3972 -0.2626 -0.0959
  814MOL0     N 7366  10.168   7.857   1.944 -0.8916 -0.6402 -0.7628
  814MOL0     N 7367  10.067   7.910   2.002 -0.3510 -0.3479 -0.0474
  814MOL0     C 7368   9.455   7.416   1.969  0.0964 -0.3412  0.0672
  814MOL0     C 7369   9.500   7.286   1.972 -0.0775  0.0131  0.4801
  814MOL0     C 7370   9.622   6.867   1.804 -0.1745  0.1766  0.5154
  814MOL0     C 7371   9.533   6.782   1.859 -0.0898  0.1842  0.6653
  814MOL0     C 7372   9.549   6.637   1.854 -0.5296 -0.7267 -0.2500
  814MOL0     C 7373   9.658   6.578   1.785 -1.1715 -0.5161  0.8688
  814MOL0     O 7374   9.674   6.454   1.736  0.0640  0.8471 -0.3621
  814MOL0     C 7375   9.549   6.382   1.701  0.0409  0.0264  0.2894
  814MOL0     C 7376   9.543   6.339   1.552  0.3545  0.3040  0.1718
  814MOL0     C 7377   9.489   6.450   1.450 -0.7711  0.5350  0.1773
  814MOL0     C 7378   9.534   6.437   1.310 -0.5532  0.1856  0.5405
  814MOL0     C 7379   9.436   6.523   1.235  0.6153 -0.4834  0.1867
  814MOL0     C 7380   9.350   6.592   1.177  0.0451 -0.1349 -0.5334
  814MOL0     C 7381   9.758   6.665   1.735  0.9010 -0.7943 -0.6602
  814MOL0     C 7382   9.734   6.805   1.735  0.5515  0.1083  0.5785
  814MOL0     H 7383   9.413   7.176   1.656  0.3846  0.4425 -0.0983
  814MOL0     H 7384   9.345   7.414   1.640  0.9138  1.4639 -0.1084
  814MOL0     H 7385   9.410   7.678   2.015 -0.1775 -1.0955 -0.0447
  814MOL0     H 7386   9.249   7.619   1.978  0.8716 -0.9841 -1.0482
  814MOL0     H 7387   9.182   7.844   1.950 -0.0547  1.7432 -0.6206
  814MOL0     H 7388   9.246   7.809   1.797 -1.7301  1.2711  0.7800
  814MOL0     H 7389   9.422   7.929   2.023 -0.7574 -1.2077  0.3610
  814MOL0     H 7390   9.333   8.019   1.902  0.1140  1.5568  4.7834
  814MOL0     H 7391   9.543   7.802   1.821  0.2937  0.2018 -4.3034
  814MOL0     H 7392   9.484   7.945   1.731  0.4051 -1.0257  0.2761
  814MOL0     H 7393   9.660   7.920   1.980  0.6230 -0.1272  0.2408
  814MOL0     H 7394   9.588   8.070   1.942  1.2577 -0.6685  3.3234
  814MOL0     H 7395   9.702   8.026   1.703 -0.4723 -1.4989 -0.2366
  814MOL0     H 7396   9.805   7.914   1.797 -0.3549 -0.8016  1.0276
  814MOL0     H 7397   9.900   8.149   1.749  2.5308  0.5151  1.7846
  814MOL0     H 7398   9.776   8.217   1.854 -2.3404 -1.3788 -0.2344
  814MOL0     H 7399   9.877   8.062   2.038 -1.3602 -0.3377  0.6151
  814MOL0     H 7400   9.961   8.211   1.999  1.0385 -0.6255  1.5524
  814MOL0     H 7401  10.149   8.135   1.782 -1.8585 -1.4289 -2.4135
  814MOL0     H 7402  10.445   7.897   1.853  0.2965  0.6442 -1.5680
  814MOL0     H 7403  10.406   8.034   1.758  1.8132 -0.4563 -0.3013
  814MOL0     H 7404  10.369   7.737   1.698  0.6324  0.3426 -0.8762
  814MOL0     H 7405  10.473   7.846   1.613 -1.8362 -0.6000 -2.7015
  814MOL0     H 7406  10.254   7.763   1.498 -1.4429 -0.9996  1.0215
  814MOL0     H 7407  10.176   7.863   1.613  0.7573 -0.6585 -0.1848
  814MOL0     H 7408  10.235   7.940   1.362 -3.1611  1.0316  1.2691
  814MOL0     H 7409  10.394   7.981   1.436 -0.3167  1.8055  2.3556
  814MOL0     H 7410  10.132   8.319   1.563  1.0584 -1.3931  0.3795
  814MOL0     H 7411   9.911   8.391   1.542 -0.1855 -0.0572 -2.9083
  814MOL0     H 7412   9.515   8.203   1.698 -2.1741  0.0121  1.3441
  814MOL0     H 7413   9.282   8.227   1.763  1.6310 -0.3561  0.1103
  814MOL0     H 7414   8.996   8.266   1.409  0.1144 -0.3530 -0.1950
  814MOL0     H 7415   8.990   8.390   1.526  2.3478 -0.5223 -2.7788
  814MOL0     H 7416   8.838   8.134   1.549 -2.5731 -0.4734  0.0617
  814MOL0     H 7417   8.769   8.273   1.466 -0.8541 -3.0452 -0.3557
  814MOL0     H 7418   8.862   8.278   1.753  0.0297 -0.2118 -0.2667
  814MOL0     H 7419   8.697   8.256   1.705 -1.4086  0.1225 -2.8135
  814MOL0     H 7420   8.835   8.506   1.605  0.7474  0.0221 -0.6716
  814MOL0     H 7421   8.660   8.468   1.642  0.7060  1.1757 -0.3614
  814MOL0     H 7422   8.694   8.478   1.873  0.3741  0.0283 -0.0871
  814MOL0     H 7423   8.748   8.624   1.799 -3.8823 -0.7351 -1.0923
  814MOL0     H 7424   8.945   8.404   1.913  0.2043  0.2268  0.5124
  814MOL0     H 7425   8.902   8.549   1.985  1.1136 -0.7971  1.3019
  814MOL0     H 7426   9.094   8.489   1.783 -0.8304 -2.1523  3.1633
  814MOL0     H 7427   8.990   8.628   1.719 -0.1848 -0.4732 -0.1308
  814MOL0     H 7428   9.041   8.750   1.931 -0.3282 -0.5481 -0.6085
  814MOL0     H 7429   9.198   8.712   1.847  0.7041 -1.6175 -1.2077
  814MOL0     H 7430   9.173   8.172   1.349  0.2589  3.8057 -0.3046
  814MOL0     H 7431   9.391   8.116   1.293 -0.9713 -2.6000  0.5983
  814MOL0     H 7432   9.800   7.982   1.413  1.0564 -0.9790 -0.6701
  814MOL0     H 7433  10.024   7.920   1.447  2.3332 -0.1709  1.7894
  814MOL0     H 7434   9.477   7.472   2.059  1.0775  2.1714 -1.6409
  814MOL0     H 7435   9.547   7.251   2.064 -0.4327  0.0494  0.6769
  814MOL0     H 7436   9.452   6.824   1.919 -0.4429  0.1110  0.2452
  814MOL0     H 7437   9.472   6.574   1.899 -1.1550 -0.0151 -0.2994
  814MOL0     H 7438   9.459   6.441   1.723  0.4357  2.0952 -2.8611
  814MOL0     H 7439   9.546   6.287   1.753  2.6324 -1.4780 -2.0298
  814MOL0     H 7440   9.643   6.303   1.525 -0.1717  1.3414 -3.7723
  814MOL0     H 7441   9.471   6.258   1.535  1.2175 -0.9977  2.3925
  814MOL0     H 7442   9.513   6.552   1.484  0.6482  0.0536  0.7320
  814MOL0     H 7443   9.380   6.441   1.448 -0.9645  1.6600  2.5341
  814MOL0     H 7444   9.638   6.468   1.302 -0.7357  0.4292 -1.4456
  814MOL0     H 7445   9.535   6.335   1.268  1.4428  0.4922 -0.2698
  814MOL0     H 7446   9.285   6.645   1.110  0.8475  1.9050  0.2293
  814MOL0     H 7447   9.840   6.624   1.676  0.7906 -0.8623 -0.7685
  814MOL0     H 7448   9.812   6.864   1.688  1.4137 -0.6040  1.0918
  815MOL0     O 7449   1.777   5.052   5.300  0.2089 -0.0837  0.2098
  815MOL0     C 7450   1.714   5.017   5.205  0.4636  0.1937 -0.3605
  815MOL0     O 7451   1.765   4.954   5.104  0.0535  0.0418  0.6851
  815MOL0     C 7452   1.903   4.931   5.090  0.4367  0.9277 -0.4706
  815MOL0     C 7453   1.975   4.885   5.200  0.0876  0.4723 -0.3491
  815MOL0     C 7454   2.114   4.884   5.199  0.1665  0.3231 -0.4342
  815MOL0     C 7455   2.186   4.909   5.088 -0.7590 -0.3131 -0.7191
  815MOL0     O 7456   2.320   4.906   5.094 -0.1213  1.0963  0.0218
  815MOL0     C 7457   2.395   5.033   5.077  0.3973 -0.8223  0.5140
  815MOL0     C 7458   2.476   5.026   4.939  0.7325  0.1006  0.2485
  815MOL0     C 7459   2.587   4.917   4.957 -0.4062 -0.1592  0.1478
  815MOL0     C 7460   2.630   4.867   4.811 -0.4983 -0.7901 -0.0135
  815MOL0     C 7461   2.735   4.754   4.819 -1.4713 -0.5094 -0.1002
  815MOL0     C 7462   2.870   4.816   4.863  0.2411 -1.7700 -0.1914
  815MOL0     C 7463   2.971   4.703   4.862  0.9010  0.2386 -0.0732
  815MOL0     C 7464   3.120   4.755   4.888 -0.8659  0.5301 -0.7943
  815MOL0     N 7465   3.154   4.852   4.778 -0.5756  0.6754 -0.3863
  815MOL0     C 7466   3.170   4.989   4.792 -1.0486 -0.9358 -0.1904
  815MOL0     C 7467   3.179   5.035   4.666  0.3885 -0.0222 -0.0674
  815MOL0     C 7468   3.171   5.180   4.629  0.2628  0.0302 -0.4610
  815MOL0     C 7469   3.039   5.237   4.680  0.6254  0.2729  0.1688
  815MOL0     C 7470   2.915   5.201   4.598  0.3794 -0.3030  1.1402
  815MOL0     C 7471   2.776   5.260   4.637  0.3661  0.1508 -0.2708
  815MOL0     O 7472   2.681   5.272   4.530 -0.3318  0.6862  0.1038
  815MOL0     C 7473   2.559   5.312   4.584 -0.7413 -0.5116  0.4340
  815MOL0     C 7474   2.522   5.443   4.598 -0.4205 -0.3097 -0.5056
  815MOL0     C 7475   2.392   5.480   4.635  0.3517  0.1321 -0.4094
  815MOL0     C 7476   2.297   5.381   4.670  0.2703 -0.0947  0.4618
  815MOL0     C 7477   2.157   5.425   4.711 -0.2484 -0.1500  1.2533
  815MOL0     O 7478   2.119   5.546   4.654 -0.4623 -0.8858  0.3322
  815MOL0     C 7479   1.999   5.605   4.691  0.0349 -0.0320 -0.5738
  815MOL0     C 7480   2.015   5.735   4.737  0.6692  0.8537  0.1738
  815MOL0     C 7481   1.899   5.810   4.769  0.4720 -0.1026 -0.2628
  815MOL0     C 7482   1.766   5.761   4.737  0.2311  0.9572  0.1157
  815MOL0     O 7483   1.660   5.833   4.762 -0.5303 -0.5256 -0.3173
  815MOL0     C 7484   1.544   5.824   4.683  0.1902  0.5306 -0.6839
  815MOL0     C 7485   1.443   5.936   4.707 -0.1889  0.3528 -0.1379
  815MOL0     C 7486   1.312   5.913   4.631 -0.1843 -0.1923 -0.2284
  815MOL0     C 7487   1.231   5.781   4.671 -0.1043  0.2984 -0.1366
  815MOL0     C 7488   1.088   5.773   4.598 -0.8901  0.0408  0.0819
  815MOL0     C 7489   1.025   5.647   4.644  0.3314 -0.3212 -0.1990
  815MOL0     C 7490   0.924   5.601   4.533 -0.1725 -0.0650 -0.0930
  815MOL0     C 7491   0.858   5.464   4.579 -0.2209  1.0599  0.4804
  815MOL0    Cl 7492   0.694   5.427   4.507 -0.2633  0.1574  0.6517
  815MOL0     C 7493   1.758   5.630   4.687 -0.9728  0.1126 -0.3968
  815MOL0     C 7494   1.870   5.548   4.668 -0.4403 -0.4248  0.1614
  815MOL0     O 7495   2.092   5.362   4.797  0.4032  0.5115  0.7511
  815MOL0     C 7496   2.331   5.243   4.661  0.0296  0.3456  0.4658
  815MOL0     C 7497   2.462   5.205   4.614 -0.1690 -0.1371 -0.7999
  815MOL0     N 7498   3.200   4.927   4.578 -0.1741  0.5090 -0.0474
  815MOL0     N 7499   3.181   4.817   4.649 -1.1622  0.2042  0.3917
  815MOL0     C 7500   2.118   4.945   4.968  0.2916  0.3867  0.1782
  815MOL0     C 7501   1.977   4.958   4.974  0.4850  0.0447 -0.0398
  815MOL0     C 7502   1.570   4.998   5.212 -0.3598  0.2040 -0.0586
  815MOL0     C 7503   1.499   4.969   5.105 -1.0906  0.4836  1.6294
  815MOL0     C 7504   1.362   4.946   5.108 -0.9341  0.9016 -0.2252
  815MOL0     C 7505   1.298   4.939   5.231  0.7682  0.0573  0.3818
  815MOL0     O 7506   1.170   4.907   5.214  0.1131 -0.1061  0.2257
  815MOL0     C 7507   1.126   4.807   5.300 -0.5949 -0.3150 -0.5879
  815MOL0     C 7508   0.989   4.829   5.345 -0.1409 -0.6794  1.2670
  815MOL0     C 7509   0.949   4.738   5.456 -0.5170 -0.5021  0.1124
  815MOL0     C 7510   0.841   4.777   5.552 -0.1883 -0.5470 -0.4862
  815MOL0     C 7511   0.714   4.815   5.491  0.2780  0.1376 -0.5027
  815MOL0     C 7512   0.612   4.862   5.452 -0.8480 -0.5985  0.0228
  815MOL0     C 7513   1.363   4.992   5.339 -1.0038 -0.0298 -0.4022
  815MOL0     C 7514   1.501   5.020   5.330  0.0465  0.1731 -0.5323
  815MOL0     H 7515   1.929   4.860   5.295  0.6709 -1.1554 -0.4509
  815MOL0     H 7516   2.160   4.856   5.293 -1.4241 -1.8307 -0.1986
  815MOL0     H 7517   2.472   5.052   5.152  2.6582  3.1099 -2.4516
  815MOL0     H 7518   2.325   5.117   5.079  0.5241 -0.7013  0.0104
  815MOL0     H 7519   2.514   5.125   4.913  0.5327  0.9966  3.0631
  815MOL0     H 7520   2.415   4.983   4.859  0.0909 -1.3321  1.4432
  815MOL0     H 7521   2.546   4.833   5.015 -2.2951  0.9851  0.5519
  815MOL0     H 7522   2.668   4.967   5.010 -2.4837  1.6001  1.8689
  815MOL0     H 7523   2.542   4.842   4.751  0.5133  0.2417 -2.0316
  815MOL0     H 7524   2.676   4.955   4.765  3.0164 -2.9978 -1.1340
  815MOL0     H 7525   2.752   4.694   4.730  0.6896  0.0253 -0.0923
  815MOL0     H 7526   2.699   4.684   4.894 -0.5477 -2.9688 -1.8472
  815MOL0     H 7527   2.879   4.868   4.959 -0.1803  0.5218 -1.3170
  815MOL0     H 7528   2.890   4.894   4.789 -0.9829 -2.4029 -1.2390
  815MOL0     H 7529   2.931   4.633   4.936 -0.5827 -2.4784 -3.2055
  815MOL0     H 7530   2.977   4.655   4.764  0.0142  0.8129 -0.4263
  815MOL0     H 7531   3.198   4.681   4.910 -0.0163  1.0044 -2.1140
  815MOL0     H 7532   3.126   4.824   4.972  1.3313  1.1115 -1.3643
  815MOL0     H 7533   3.167   5.042   4.887  0.0722  1.0217 -1.1663
  815MOL0     H 7534   3.168   5.188   4.520 -1.9682  0.6132 -0.4050
  815MOL0     H 7535   3.258   5.241   4.657  1.8995 -1.1950 -2.5882
  815MOL0     H 7536   3.043   5.346   4.685 -0.1710  0.2631  1.6239
  815MOL0     H 7537   3.031   5.212   4.787  3.1446  0.7882  0.5512
  815MOL0     H 7538   2.928   5.228   4.493 -2.7314  0.8166  0.9208
  815MOL0     H 7539   2.908   5.092   4.605  0.8952 -0.2289  3.4652
  815MOL0     H 7540   2.801   5.362   4.668  2.5487 -0.2642 -0.5337
  815MOL0     H 7541   2.735   5.201   4.719 -0.2901  1.7992  0.6375
  815MOL0     H 7542   2.601   5.517   4.583  1.5374 -2.0115  0.8604
  815MOL0     H 7543   2.373   5.587   4.639  2.0615  0.4570  3.0843
  815MOL0     H 7544   2.110   5.774   4.773  1.4308  1.4962 -2.3400
  815MOL0     H 7545   1.905   5.905   4.820 -1.6692 -1.2221  2.2707
  815MOL0     H 7546   1.493   5.729   4.700  0.9833 -0.1066 -1.7310
  815MOL0     H 7547   1.583   5.819   4.581  2.1140  0.8466  0.0050
  815MOL0     H 7548   1.491   6.030   4.678  0.4704  0.7975  2.1612
  815MOL0     H 7549   1.432   5.945   4.816  2.8109  0.8984  0.2096
  815MOL0     H 7550   1.329   5.912   4.523  0.3053 -2.8797 -0.2020
  815MOL0     H 7551   1.249   6.001   4.646 -1.5574 -0.8459 -1.8639
  815MOL0     H 7552   1.285   5.687   4.657 -0.1809  0.1808  0.3501
  815MOL0     H 7553   1.211   5.786   4.778  0.8414  0.2658  0.0509
  815MOL0     H 7554   1.098   5.773   4.489 -1.0268 -1.1679  0.0623
  815MOL0     H 7555   1.017   5.853   4.620 -3.1235 -1.9217  0.3148
  815MOL0     H 7556   0.977   5.665   4.741  0.7649  3.5431 -0.5421
  815MOL0     H 7557   1.108   5.578   4.660  2.9634  2.5824 -0.2431
  815MOL0     H 7558   0.843   5.674   4.522 -1.8787 -2.0674 -1.7410
  815MOL0     H 7559   0.973   5.584   4.437 -1.4156  3.0338 -1.4065
  815MOL0     H 7560   0.846   5.452   4.687 -0.8186 -6.2729  0.0817
  815MOL0     H 7561   0.930   5.384   4.561  0.0819  1.4854 -0.2784
  815MOL0     H 7562   1.662   5.582   4.671 -1.4044  0.1721  1.7395
  815MOL0     H 7563   1.863   5.443   4.642  2.0090 -1.4007  2.8139
  815MOL0     H 7564   2.258   5.168   4.687 -1.0952  1.1544 -0.2755
  815MOL0     H 7565   2.483   5.100   4.596  1.5822  0.4702 -2.6552
  815MOL0     H 7566   2.175   4.958   4.876 -1.2961 -0.9558 -1.0612
  815MOL0     H 7567   1.931   4.986   4.880  2.0499 -0.1319 -0.8956
  815MOL0     H 7568   1.548   4.969   5.008 -3.2875  0.7585  0.4527
  815MOL0     H 7569   1.312   4.935   5.012 -1.9238  1.2759  0.2312
  815MOL0     H 7570   1.188   4.819   5.389 -1.4655  2.3535 -0.2225
  815MOL0     H 7571   1.138   4.703   5.269 -1.7988 -0.1656 -1.6452
  815MOL0     H 7572   0.974   4.929   5.387 -1.1002 -0.6490  0.8813
  815MOL0     H 7573   0.922   4.828   5.259  0.1344  0.8682  1.0157
  815MOL0     H 7574   1.034   4.729   5.525 -0.0262 -1.9713 -0.6480
  815MOL0     H 7575   0.925   4.642   5.410  3.2299 -1.8409  0.6057
  815MOL0     H 7576   0.838   4.691   5.619 -1.0442 -2.8241 -3.2422
  815MOL0     H 7577   0.883   4.859   5.611 -1.0733 -1.1411  1.0064
  815MOL0     H 7578   0.522   4.917   5.435  2.2183  4.4643 -2.3018
  815MOL0     H 7579   1.311   5.013   5.432 -0.1604  2.7613 -0.4589
  815MOL0     H 7580   1.556   5.075   5.406  1.0778  3.0328 -3.1485
  816MOL0     O 7581  10.038   7.474   7.501 -0.4343  0.2071 -0.9381
  816MOL0     C 7582  10.015   7.460   7.624  0.1323 -0.6297 -0.0136
  816MOL0     O 7583  10.106   7.458   7.724 -0.7364  0.8422  0.1570
  816MOL0     C 7584  10.237   7.448   7.694 -0.2123  0.0492  0.1347
  816MOL0     C 7585  10.300   7.377   7.591  0.2306 -1.2978  0.8028
  816MOL0     C 7586  10.430   7.379   7.564 -0.7362 -0.6941 -0.6272
  816MOL0     C 7587  10.510   7.440   7.660 -0.2586  0.0465 -0.7183
  816MOL0     O 7588  10.644   7.425   7.642 -0.4283 -0.6608 -0.2055
  816MOL0     C 7589  10.735   7.484   7.742 -0.5166  0.2616 -0.2009
  816MOL0     C 7590  10.880   7.438   7.713 -0.2198  0.3241  0.1859
  816MOL0     C 7591  10.981   7.517   7.796  0.0752 -0.4643  0.8642
  816MOL0     C 7592  11.115   7.461   7.764  0.4164  0.4973  0.6210
  816MOL0     C 7593  11.222   7.543   7.843  0.2696 -0.8160  0.8152
  816MOL0     C 7594  11.367   7.515   7.816  0.0829  0.3676 -0.8248
  816MOL0     C 7595  11.402   7.564   7.675  0.2258 -0.6289  0.1726
  816MOL0     C 7596  11.554   7.539   7.640 -0.1307 -0.3558  0.7332
  816MOL0     N 7597  11.571   7.425   7.553 -0.4378  0.5217  0.2960
  816MOL0     C 7598  11.549   7.417   7.422 -0.1418 -0.7618 -0.1729
  816MOL0     C 7599  11.541   7.289   7.395 -0.0223 -0.1918 -0.6678
  816MOL0     C 7600  11.518   7.232   7.265  0.5742 -0.1640  0.2465
  816MOL0     C 7601  11.392   7.146   7.274 -0.2650  0.9681  0.8908
  816MOL0     C 7602  11.346   7.120   7.126  0.1410 -1.0642  0.1739
  816MOL0     C 7603  11.324   6.972   7.107 -0.2035 -0.0348  0.2457
  816MOL0     O 7604  11.206   6.928   7.170  0.2547 -0.1551  0.0078
  816MOL0     C 7605  11.087   6.949   7.109  0.3936  0.4825 -0.1759
  816MOL0     C 7606  11.065   6.998   6.982  0.0549  0.3579 -0.3221
  816MOL0     C 7607  10.941   7.006   6.919  0.4784  0.3360 -0.0805
  816MOL0     C 7608  10.825   6.964   6.989 -0.0951 -0.7902 -0.4255
  816MOL0     C 7609  10.697   6.960   6.922  1.0686  0.1216  0.0173
  816MOL0     O 7610  10.598   6.958   7.007 -0.0164 -0.2320  0.1514
  816MOL0     C 7611  10.469   6.951   6.972  0.3797 -0.2681 -0.2033
  816MOL0     C 7612  10.395   6.899   7.074 -0.6679  0.4726 -0.2178
  816MOL0     C 7613  10.251   6.905   7.069 -0.2287  0.5508 -0.4659
  816MOL0     C 7614  10.193   6.959   6.949  0.4030  0.3642 -0.5496
  816MOL0     O 7615  10.067   6.969   6.920  0.2024  1.0619 -0.9653
  816MOL0     C 7616   9.981   6.920   7.028  0.4766 -0.3680  0.5555
  816MOL0     C 7617   9.838   6.942   6.970  0.5704  0.6851 -0.4808
  816MOL0     C 7618   9.728   6.887   7.062 -0.2295  0.8084  0.0369
  816MOL0     C 7619   9.592   6.930   7.022  0.2380  0.7463  0.6515
  816MOL0     C 7620   9.478   6.870   7.104  0.0703  0.6419  0.2325
  816MOL0     C 7621   9.450   6.724   7.096  0.5453  0.4366 -0.2433
  816MOL0     C 7622   9.388   6.673   7.220  0.2845  0.1503  0.5145
  816MOL0     C 7623   9.237   6.672   7.196 -0.1821 -0.1257  0.2394
  816MOL0    Cl 7624   9.167   6.562   7.314 -0.3181  0.6661 -0.0501
  816MOL0     C 7625  10.272   7.015   6.853 -0.4111  0.0578  0.6020
  816MOL0     C 7626  10.407   7.012   6.860 -1.0458 -0.6502 -1.4147
  816MOL0     O 7627  10.694   6.939   6.804  0.2789  0.2710 -0.2893
  816MOL0     C 7628  10.845   6.922   7.125 -0.2827 -0.3943  0.4343
  816MOL0     C 7629  10.973   6.917   7.188  0.6281 -0.6950  0.2285
  816MOL0     N 7630  11.565   7.215   7.509  0.6927 -0.3897  0.4133
  816MOL0     N 7631  11.575   7.301   7.602  0.2937  0.1828 -0.4906
  816MOL0     C 7632  10.456   7.506   7.778  0.0796  0.1106 -0.3112
  816MOL0     C 7633  10.321   7.507   7.790 -0.4799  0.8503 -0.1081
  816MOL0     C 7634   9.875   7.455   7.658 -0.1198  0.7839  0.3534
  816MOL0     C 7635   9.777   7.483   7.560  1.2100 -0.2459 -0.1838
  816MOL0     C 7636   9.638   7.497   7.605 -0.5594 -0.6096  0.3064
  816MOL0     C 7637   9.601   7.485   7.739  0.4462 -0.4585  0.5790
  816MOL0     O 7638   9.474   7.514   7.792 -0.7190  0.2140  0.1267
  816MOL0     C 7639   9.371   7.554   7.699 -0.5142 -0.1256  0.3317
  816MOL0     C 7640   9.388   7.701   7.670  0.6405 -0.2796  0.7836
  816MOL0     C 7641   9.373   7.799   7.787 -0.2621  0.4788  0.0063
  816MOL0     C 7642   9.254   7.782   7.877 -0.6484 -0.0032 -0.1787
  816MOL0     C 7643   9.126   7.808   7.812  0.5851 -0.5792 -0.0368
  816MOL0     C 7644   9.036   7.816   7.730 -0.7864  0.3566 -0.4030
  816MOL0     C 7645   9.697   7.449   7.830 -0.2250 -0.4880 -0.0847
  816MOL0     C 7646   9.827   7.435   7.788 -0.7177  0.1649 -0.1963
  816MOL0     H 7647  10.235   7.335   7.515 -0.0183  0.8623 -0.2428
  816MOL0     H 7648  10.471   7.328   7.478  1.1810 -0.2355 -0.0338
  816MOL0     H 7649  10.705   7.454   7.843  1.0344  0.5658  0.3650
  816MOL0     H 7650  10.728   7.592   7.730 -3.1515  0.3700  1.5242
  816MOL0     H 7651  10.906   7.466   7.611  0.0508  2.1529  0.7196
  816MOL0     H 7652  10.891   7.330   7.726  1.8594  0.0990 -2.6605
  816MOL0     H 7653  10.968   7.513   7.904  0.8944  1.7602  1.0931
  816MOL0     H 7654  10.990   7.623   7.772 -0.8447 -0.4890  0.3425
  816MOL0     H 7655  11.126   7.357   7.793  1.7509  0.2724 -0.5801
  816MOL0     H 7656  11.130   7.474   7.656 -1.4550  1.6925  0.4576
  816MOL0     H 7657  11.189   7.528   7.946 -3.2944  2.3995  0.3709
  816MOL0     H 7658  11.203   7.649   7.822 -3.1151 -1.1140  1.8049
  816MOL0     H 7659  11.391   7.409   7.823  0.5038  0.4451 -1.0957
  816MOL0     H 7660  11.438   7.571   7.878  5.7186 -1.3298 -4.9635
  816MOL0     H 7661  11.346   7.511   7.597  0.0981 -0.9521  0.4744
  816MOL0     H 7662  11.371   7.668   7.663 -0.1125 -0.6968  0.4250
  816MOL0     H 7663  11.623   7.526   7.724 -0.0214 -3.4050  0.3003
  816MOL0     H 7664  11.585   7.629   7.586  1.6906 -1.5652 -0.3599
  816MOL0     H 7665  11.534   7.496   7.349  3.0156 -0.6116 -0.7851
  816MOL0     H 7666  11.603   7.175   7.227 -0.6303 -1.5526 -0.4691
  816MOL0     H 7667  11.505   7.322   7.205  4.5675  2.2001  2.4776
  816MOL0     H 7668  11.312   7.209   7.315 -2.5086 -1.7236  0.9878
  816MOL0     H 7669  11.393   7.054   7.333  1.3211  0.6348  0.3873
  816MOL0     H 7670  11.256   7.180   7.109  1.4619  1.0301  0.1033
  816MOL0     H 7671  11.415   7.172   7.058  0.2144  1.5470  2.0582
  816MOL0     H 7672  11.408   6.913   7.145  0.6230  0.1631 -1.2038
  816MOL0     H 7673  11.318   6.962   6.998 -0.6833 -3.8487  0.4932
  816MOL0     H 7674  11.153   7.028   6.926  3.1895 -0.5099  3.7133
  816MOL0     H 7675  10.930   7.020   6.812 -2.2701 -0.4144  0.0063
  816MOL0     H 7676  10.446   6.858   7.161 -1.5485 -1.4279 -0.5361
  816MOL0     H 7677  10.200   6.870   7.158 -0.3108 -1.4440 -1.2299
  816MOL0     H 7678   9.982   6.983   7.117 -0.1100  1.0754 -0.4114
  816MOL0     H 7679   9.985   6.814   7.055 -1.8020 -0.4567  0.7733
  816MOL0     H 7680   9.815   6.904   6.870 -1.2992  0.3039  0.0540
  816MOL0     H 7681   9.822   7.050   6.971  2.5316  0.9925  0.6081
  816MOL0     H 7682   9.748   6.935   7.158 -2.8504  0.3792  0.8803
  816MOL0     H 7683   9.732   6.780   7.079 -1.6724  0.5369 -1.1400
  816MOL0     H 7684   9.589   7.040   7.018  1.0049  0.7337 -0.8221
  816MOL0     H 7685   9.586   6.895   6.919  1.8360 -3.1161  1.6945
  816MOL0     H 7686   9.381   6.915   7.079  0.0485 -0.0984 -1.0714
  816MOL0     H 7687   9.498   6.886   7.210 -0.5338  0.6206  0.3569
  816MOL0     H 7688   9.547   6.673   7.093  0.2304 -0.1471 -1.2283
  816MOL0     H 7689   9.390   6.696   7.009  1.7166  3.6767 -2.2676
  816MOL0     H 7690   9.420   6.569   7.235  3.1480  1.1788  2.3703
  816MOL0     H 7691   9.411   6.725   7.313  3.5351 -1.2069  0.5849
  816MOL0     H 7692   9.211   6.647   7.093  0.2565 -0.5366  0.2266
  816MOL0     H 7693   9.202   6.774   7.216  0.2321  0.2223 -0.7897
  816MOL0     H 7694  10.233   7.073   6.769  1.4074 -0.0749 -0.4047
  816MOL0     H 7695  10.471   7.058   6.785 -0.0281 -0.0333 -0.2171
  816MOL0     H 7696  10.757   6.889   7.179 -0.3172 -0.6602  0.2146
  816MOL0     H 7697  10.977   6.872   7.287 -0.3984 -0.4739  0.3833
  816MOL0     H 7698  10.514   7.519   7.869 -2.1773 -0.9785  1.3753
  816MOL0     H 7699  10.289   7.541   7.889  0.5871  0.2099  0.4695
  816MOL0     H 7700   9.797   7.503   7.456  1.6284  0.3709  0.0111
  816MOL0     H 7701   9.572   7.529   7.525 -0.6798 -2.9878 -0.6404
  816MOL0     H 7702   9.271   7.549   7.745 -1.1204  2.9290 -0.4298
  816MOL0     H 7703   9.375   7.486   7.614  1.5171  0.5046 -0.1108
  816MOL0     H 7704   9.491   7.722   7.639  0.7169 -1.7100 -0.0198
  816MOL0     H 7705   9.320   7.730   7.589  0.5586 -2.8715 -0.1698
  816MOL0     H 7706   9.371   7.902   7.750  0.0965  0.6565  0.4811
  816MOL0     H 7707   9.465   7.804   7.845 -0.7652  0.0123  0.8600
  816MOL0     H 7708   9.256   7.679   7.911 -0.1206 -0.2754 -0.9974
  816MOL0     H 7709   9.261   7.849   7.963  1.0940  2.3065 -1.9584
  816MOL0     H 7710   8.963   7.820   7.652 -1.5075 -0.3543  0.2106
  816MOL0     H 7711   9.672   7.432   7.934 -2.0764  3.1750  0.2224
  816MOL0     H 7712   9.896   7.428   7.872 -1.1809  0.2626  0.1981
  817MOL0     O 7713   6.029   4.714   2.191 -0.4470 -0.0752  0.0888
  817MOL0     C 7714   6.133   4.788   2.174 -0.2627  0.6566 -0.3686
  817MOL0     O 7715   6.125   4.932   2.168  0.5948  0.1286 -0.5220
  817MOL0     C 7716   5.998   4.986   2.185  0.0384  0.8139  0.5906
  817MOL0     C 7717   5.904   4.990   2.080  0.8217 -0.6385 -0.5872
  817MOL0     C 7718   5.783   5.066   2.100 -0.2846 -0.5363 -0.1371
  817MOL0     C 7719   5.753   5.120   2.224  0.0525 -0.3851 -0.3027
  817MOL0     O 7720   5.627   5.174   2.255 -0.0949 -0.7217  0.5059
  817MOL0     C 7721   5.533   5.197   2.145 -0.3238 -0.0650  0.1766
  817MOL0     C 7722   5.399   5.261   2.188  0.0580 -1.0233 -0.2943
  817MOL0     C 7723   5.302   5.272   2.068 -0.3264  0.4028 -0.3119
  817MOL0     C 7724   5.209   5.388   2.098  0.3999  0.6941  0.2195
  817MOL0     C 7725   5.108   5.395   1.981  0.0842 -0.1210  0.0131
  817MOL0     C 7726   5.033   5.526   1.984 -0.2580  0.8427 -0.8084
  817MOL0     C 7727   4.947   5.548   2.119 -0.7204  0.5288  0.6506
  817MOL0     C 7728   4.823   5.638   2.090 -0.0225  0.3675 -0.8630
  817MOL0     N 7729   4.849   5.769   2.032 -0.2255 -0.6718 -0.0287
  817MOL0     C 7730   4.863   5.806   1.899 -0.0982 -0.4363  0.5185
  817MOL0     C 7731   4.912   5.933   1.903  0.3786  1.0535  0.3581
  817MOL0     C 7732   4.958   6.020   1.790  0.3543  0.7514  0.0625
  817MOL0     C 7733   5.059   6.127   1.822 -0.3494 -0.0913 -0.5844
  817MOL0     C 7734   5.049   6.245   1.721  0.2413  0.3607 -0.4440
  817MOL0     C 7735   5.116   6.372   1.780  0.3561  0.3121 -0.0188
  817MOL0     O 7736   5.137   6.478   1.685 -0.1712  0.4671 -0.1939
  817MOL0     C 7737   5.039   6.544   1.620 -0.2209 -0.6084  0.2981
  817MOL0     C 7738   5.077   6.642   1.520 -0.8689  0.4574 -0.5340
  817MOL0     C 7739   4.983   6.696   1.434  0.1550  0.1960  0.0654
  817MOL0     C 7740   4.846   6.678   1.454 -0.2449 -0.2647  0.6513
  817MOL0     C 7741   4.746   6.747   1.371 -0.0615  0.1198  0.5717
  817MOL0     O 7742   4.612   6.697   1.379  0.8461  0.5664 -0.2456
  817MOL0     C 7743   4.518   6.738   1.278  0.1297  0.3327 -0.1095
  817MOL0     C 7744   4.537   6.730   1.141 -0.0988 -0.4822  0.3150
  817MOL0     C 7745   4.427   6.751   1.057 -0.3848 -0.1073  0.1738
  817MOL0     C 7746   4.297   6.772   1.109 -0.4884 -0.3663  0.2219
  817MOL0     O 7747   4.186   6.782   1.029  0.0674 -0.2814 -0.3602
  817MOL0     C 7748   4.180   6.694   0.918  0.3371  0.0845  0.1094
  817MOL0     C 7749   4.032   6.724   0.889  1.6269  0.4942  0.5813
  817MOL0     C 7750   4.009   6.650   0.758  0.8811 -0.0989  0.5442
  817MOL0     C 7751   3.865   6.628   0.731 -0.3019  0.5396 -0.0967
  817MOL0     C 7752   3.861   6.589   0.583 -0.1672 -0.0704 -0.3692
  817MOL0     C 7753   3.734   6.517   0.537  0.5006 -0.0813 -0.7457
  817MOL0     C 7754   3.716   6.526   0.382  0.5831  0.9329 -0.0147
  817MOL0     C 7755   3.565   6.501   0.351  0.6637 -0.6804  0.0808
  817MOL0    Cl 7756   3.538   6.337   0.297 -0.2381 -0.2970 -0.1634
  817MOL0     C 7757   4.286   6.788   1.245 -0.8770 -0.7516 -0.0864
  817MOL0     C 7758   4.400   6.771   1.329 -0.1270 -0.6147  0.6206
  817MOL0     O 7759   4.786   6.826   1.283 -0.3711  0.0269 -0.1306
  817MOL0     C 7760   4.814   6.580   1.553 -0.0278 -0.4297 -0.2051
  817MOL0     C 7761   4.901   6.514   1.628  0.3864 -0.4541 -0.0122
  817MOL0     N 7762   4.891   5.980   2.029  0.3152  0.2112 -0.1286
  817MOL0     N 7763   4.864   5.881   2.109 -0.0552  0.0581  1.2091
  817MOL0     C 7764   5.848   5.117   2.324 -0.6061  0.5466  0.2924
  817MOL0     C 7765   5.972   5.049   2.306 -0.1590 -0.0892  0.9347
  817MOL0     C 7766   6.267   4.724   2.152  0.1119  0.8158  0.6601
  817MOL0     C 7767   6.283   4.585   2.143  0.3862 -0.2825  0.1641
  817MOL0     C 7768   6.408   4.532   2.105  0.2304 -0.4182  0.3962
  817MOL0     C 7769   6.524   4.615   2.099  0.6369 -0.2325  0.0001
  817MOL0     O 7770   6.645   4.563   2.052  0.5779 -0.4287 -0.0421
  817MOL0     C 7771   6.768   4.629   2.093 -0.0770  0.3105  0.0831
  817MOL0     C 7772   6.875   4.515   2.079 -0.4851  0.1960  0.2992
  817MOL0     C 7773   7.022   4.577   2.065  0.8644  1.1211  0.0697
  817MOL0     C 7774   7.133   4.483   2.023 -0.3146 -0.0284  0.4352
  817MOL0     C 7775   7.266   4.519   2.063 -1.4362  0.1225 -0.3854
  817MOL0     C 7776   7.375   4.557   2.109  1.4578 -0.4658 -0.5404
  817MOL0     C 7777   6.511   4.755   2.132 -0.0626  0.6920  0.8808
  817MOL0     C 7778   6.386   4.801   2.149  1.5859 -0.6769 -0.3893
  817MOL0     H 7779   5.934   4.954   1.982  4.2177 -1.6448  0.6843
  817MOL0     H 7780   5.711   5.067   2.018 -0.0006  1.0240 -0.4022
  817MOL0     H 7781   5.510   5.102   2.095 -0.7841 -0.2037  0.6518
  817MOL0     H 7782   5.575   5.257   2.064 -2.2431 -0.7950 -1.4559
  817MOL0     H 7783   5.425   5.359   2.230 -0.1736 -1.1759  0.2009
  817MOL0     H 7784   5.340   5.210   2.264 -3.1147  1.5791 -0.8062
  817MOL0     H 7785   5.253   5.174   2.062 -3.7048  1.7719  1.8167
  817MOL0     H 7786   5.364   5.299   1.983  0.8260 -0.3640  0.2482
  817MOL0     H 7787   5.140   5.371   2.182 -0.9742  1.0251 -0.8086
  817MOL0     H 7788   5.266   5.479   2.115 -0.0064  1.1890 -0.9887
  817MOL0     H 7789   5.034   5.315   1.990  0.8846 -0.7539  1.3862
  817MOL0     H 7790   5.161   5.397   1.885  1.9153 -0.8880  0.9465
  817MOL0     H 7791   4.966   5.525   1.898 -1.5412 -1.0836  0.1580
  817MOL0     H 7792   5.099   5.612   1.967  0.0377  0.6901 -0.4491
  817MOL0     H 7793   4.912   5.450   2.153 -2.6224  1.0799  0.3808
  817MOL0     H 7794   5.008   5.589   2.200  0.0415  1.2715 -0.2591
  817MOL0     H 7795   4.757   5.647   2.176  0.4220  1.0562 -0.5928
  817MOL0     H 7796   4.758   5.592   2.014 -0.5280 -1.8467  0.8030
  817MOL0     H 7797   4.856   5.745   1.810 -0.6330 -1.1078  1.0122
  817MOL0     H 7798   4.867   6.058   1.741  0.3455 -0.2996 -0.7765
  817MOL0     H 7799   5.022   5.954   1.731  0.0077 -0.4582  0.9958
  817MOL0     H 7800   5.160   6.088   1.812  0.6392  2.2696 -0.3923
  817MOL0     H 7801   5.047   6.162   1.925 -0.1219 -0.7964 -0.3113
  817MOL0     H 7802   5.080   6.210   1.623 -0.6109  2.2494 -1.4387
  817MOL0     H 7803   4.941   6.260   1.711 -0.1113 -2.3205 -1.4565
  817MOL0     H 7804   5.211   6.346   1.826 -0.6002 -1.4204  1.0912
  817MOL0     H 7805   5.053   6.411   1.860  1.6444 -0.2214  1.2811
  817MOL0     H 7806   5.182   6.653   1.496 -1.6670  1.8343 -3.9752
  817MOL0     H 7807   5.023   6.767   1.362 -0.0299 -1.9213 -2.2796
  817MOL0     H 7808   4.636   6.711   1.101 -0.7320 -7.1844  0.8135
  817MOL0     H 7809   4.457   6.751   0.952  1.5449 -0.8801  0.6756
  817MOL0     H 7810   4.202   6.592   0.949 -4.6593 -1.2043  0.1156
  817MOL0     H 7811   4.244   6.720   0.833 -0.4118 -0.8961 -0.7741
  817MOL0     H 7812   4.011   6.827   0.861  0.6401 -0.1582 -1.2474
  817MOL0     H 7813   3.969   6.685   0.969  0.5795 -1.5847 -1.1599
  817MOL0     H 7814   4.055   6.553   0.780 -0.1510 -0.8875 -0.6383
  817MOL0     H 7815   4.061   6.698   0.674 -0.4691  0.6975  0.1349
  817MOL0     H 7816   3.829   6.554   0.803 -0.1563 -0.9200 -1.4629
  817MOL0     H 7817   3.805   6.719   0.735 -0.7882  0.2602 -0.8618
  817MOL0     H 7818   3.947   6.526   0.557  1.3199  2.6611 -2.6543
  817MOL0     H 7819   3.870   6.686   0.533 -0.3730  0.3568  0.4180
  817MOL0     H 7820   3.652   6.572   0.585 -0.3261 -2.5746  0.9029
  817MOL0     H 7821   3.715   6.415   0.572 -0.0144  0.5321  0.9001
  817MOL0     H 7822   3.735   6.631   0.359  1.2605  0.7259 -0.4141
  817MOL0     H 7823   3.784   6.462   0.325 -0.1150  0.7873 -0.6851
  817MOL0     H 7824   3.535   6.579   0.280 -0.1701 -0.8125  0.2859
  817MOL0     H 7825   3.505   6.525   0.439 -0.6460 -0.8469 -0.7400
  817MOL0     H 7826   4.192   6.815   1.292 -0.0426  0.8677  0.7586
  817MOL0     H 7827   4.396   6.791   1.436  0.0050  0.4876  0.4342
  817MOL0     H 7828   4.709   6.554   1.560 -0.2041  0.5049  1.1406
  817MOL0     H 7829   4.869   6.450   1.709  2.0659  0.3862  1.3653
  817MOL0     H 7830   5.811   5.165   2.415 -0.3067 -0.0816  0.7552
  817MOL0     H 7831   6.056   5.040   2.373 -1.4259 -2.5673  2.3335
  817MOL0     H 7832   6.197   4.522   2.160  0.3716 -0.4777 -0.5857
  817MOL0     H 7833   6.427   4.427   2.082 -0.1701  0.3497 -4.3805
  817MOL0     H 7834   6.762   4.665   2.197  1.3476  1.1268 -0.0949
  817MOL0     H 7835   6.799   4.708   2.024  0.7236 -2.3202 -2.7814
  817MOL0     H 7836   6.863   4.440   2.158  2.1742 -1.1288 -0.4296
  817MOL0     H 7837   6.867   4.473   1.978  4.8994  1.1558 -0.8270
  817MOL0     H 7838   7.043   4.603   2.170  2.4652  0.9566 -0.1853
  817MOL0     H 7839   7.023   4.670   2.009  2.3096  1.6897  0.9827
  817MOL0     H 7840   7.121   4.382   2.063  1.6244  0.3248  2.0935
  817MOL0     H 7841   7.134   4.476   1.914  4.0351  3.3991 -0.0284
  817MOL0     H 7842   7.468   4.596   2.144  1.9140  0.7519 -2.8868
  817MOL0     H 7843   6.591   4.827   2.142 -0.9548  1.4870  2.6750
  817MOL0     H 7844   6.384   4.908   2.171  2.7019 -0.4454 -1.2942
  818MOL0     O 7845   5.445  10.813  10.051  0.1159 -0.2096 -0.0120
  818MOL0     C 7846   5.452  10.933  10.078 -0.5672  0.4336 -0.2168
  818MOL0     O 7847   5.346  11.018  10.092  0.3659  0.3865  0.2866
  818MOL0     C 7848   5.213  10.968  10.097 -0.5473  0.9169 -0.5150
  818MOL0     C 7849   5.163  10.876  10.005  0.5266 -0.0073 -0.3611
  818MOL0     C 7850   5.033  10.826  10.011 -0.0397 -0.0411 -0.3925
  818MOL0     C 7851   4.954  10.862  10.123 -0.5357 -0.9000  0.1709
  818MOL0     O 7852   4.824  10.811  10.144 -0.6808 -0.1673 -0.1566
  818MOL0     C 7853   4.789  10.708  10.062 -0.0483  0.3957 -0.3120
  818MOL0     C 7854   4.663  10.635  10.101  0.0013 -1.1084  0.3781
  818MOL0     C 7855   4.545  10.742  10.121 -0.1236 -0.6536 -0.4873
  818MOL0     C 7856   4.417  10.684  10.185 -0.4835 -0.5895 -0.9089
  818MOL0     C 7857   4.334  10.600  10.088  0.4836 -0.2499  0.2275
  818MOL0     C 7858   4.215  10.525  10.153  0.4947  0.0171 -0.1487
  818MOL0     C 7859   4.127  10.440  10.063 -0.2131 -0.2068 -0.2469
  818MOL0     C 7860   4.018  10.508   9.986 -0.9864 -0.8719 -0.0436
  818MOL0     N 7861   3.898  10.428   9.949  0.0135  0.0112 -0.7491
  818MOL0     C 7862   3.884  10.294   9.943 -0.4037 -0.3110 -0.4316
  818MOL0     C 7863   3.755  10.277   9.914 -0.3409  0.6423 -0.7554
  818MOL0     C 7864   3.687  10.154   9.865  0.5039 -0.6332 -0.0475
  818MOL0     C 7865   3.765  10.091   9.748  0.4313 -0.2802  0.2939
  818MOL0     C 7866   3.709   9.950   9.716  0.0919 -0.1803  0.1169
  818MOL0     C 7867   3.557   9.929   9.716  0.2933  0.4597  0.4187
  818MOL0     O 7868   3.520   9.814   9.633  0.3806 -0.0994  0.0402
  818MOL0     C 7869   3.391   9.779   9.657 -0.1209  0.5275 -0.4821
  818MOL0     C 7870   3.287   9.833   9.582  0.3574 -0.3810 -0.2337
  818MOL0     C 7871   3.160   9.790   9.597 -0.0772  0.1060 -0.1161
  818MOL0     C 7872   3.136   9.677   9.681 -0.6994  0.4808 -0.1372
  818MOL0     C 7873   2.996   9.628   9.699  0.3862 -0.3084  0.2791
  818MOL0     O 7874   2.985   9.513   9.770  0.0480 -0.0155  0.2056
  818MOL0     C 7875   2.860   9.454   9.798 -0.4120 -0.6947  0.8765
  818MOL0     C 7876   2.737   9.519   9.801  0.2487 -0.6705 -0.6559
  818MOL0     C 7877   2.619   9.447   9.833 -0.0460  0.2367 -0.8714
  818MOL0     C 7878   2.631   9.310   9.863  0.0176  1.1512  0.2139
  818MOL0     O 7879   2.520   9.239   9.902  0.9553 -0.0552 -0.4410
  818MOL0     C 7880   2.517   9.215  10.045 -0.7734 -0.5855 -0.0983
  818MOL0     C 7881   2.369   9.244  10.092  0.0858 -0.3357 -0.5076
  818MOL0     C 7882   2.282   9.140  10.033 -0.1015 -0.0259 -0.3801
  818MOL0     C 7883   2.139   9.174  10.072  0.6387 -0.7207  0.8930
  818MOL0     C 7884   2.033   9.095   9.994 -0.4782 -0.1400  0.7366
  818MOL0     C 7885   1.896   9.073  10.063 -0.1721 -0.0991 -0.2496
  818MOL0     C 7886   1.893   8.969  10.181  0.8550 -0.5378 -0.6804
  818MOL0     C 7887   1.779   8.878  10.151 -0.2750  0.7752 -0.3123
  818MOL0    Cl 7888   1.793   8.734  10.254 -0.0893  0.1281 -0.3060
  818MOL0     C 7889   2.760   9.248   9.862  0.4256  0.5201 -0.2466
  818MOL0     C 7890   2.874   9.317   9.835 -0.3549 -0.8798  0.2860
  818MOL0     O 7891   2.899   9.695   9.656 -0.0824 -0.8878 -0.2735
  818MOL0     C 7892   3.245   9.617   9.748 -0.1146  0.6033 -0.5286
  818MOL0     C 7893   3.372   9.671   9.743 -0.6101  0.2288 -0.1457
  818MOL0     N 7894   3.689  10.393   9.923 -0.4963 -0.1939  0.6293
  818MOL0     N 7895   3.776  10.487   9.929 -0.2035  0.3343 -0.5334
  818MOL0     C 7896   5.002  10.961  10.212 -0.2409 -0.4023 -0.4876
  818MOL0     C 7897   5.127  11.011  10.201 -0.7323  0.1265 -0.2094
  818MOL0     C 7898   5.584  10.997  10.075 -0.6691 -0.4879  0.3232
  818MOL0     C 7899   5.694  10.928  10.018  0.2403 -0.1414 -0.0681
  818MOL0     C 7900   5.822  10.979  10.035  0.6798 -0.1967  0.4014
  818MOL0     C 7901   5.847  11.106  10.080 -0.7605 -0.1503 -0.3561
  818MOL0     O 7902   5.970  11.169  10.059 -0.0808  0.1565 -0.1452
  818MOL0     C 7903   6.003  11.282  10.140  0.4957 -0.6994  0.0739
  818MOL0     C 7904   6.153  11.324  10.120 -0.4057 -0.4746  0.2460
  818MOL0     C 7905   6.192  11.457  10.191  0.1080  0.5304  0.3374
  818MOL0     C 7906   6.153  11.587  10.112 -0.5819  0.3066 -0.8177
  818MOL0     C 7907   6.016  11.617  10.120  0.1286  0.2816 -0.2526
  818MOL0     C 7908   5.900  11.647  10.117 -0.4012 -0.5570  0.0268
  818MOL0     C 7909   5.735  11.181  10.125 -0.4223  0.2785 -1.1297
  818MOL0     C 7910   5.612  11.126  10.131  0.0175  0.3088  0.2693
  818MOL0     H 7911   5.229  10.848   9.923 -2.8359  0.8881 -3.6254
  818MOL0     H 7912   5.015  10.754   9.932 -0.0388 -0.5165  0.0309
  818MOL0     H 7913   4.868  10.633  10.047 -0.7342 -0.2711 -0.6348
  818MOL0     H 7914   4.766  10.748   9.963  2.6894  2.3192 -0.3135
  818MOL0     H 7915   4.674  10.589  10.200  3.5829 -1.3323  0.0143
  818MOL0     H 7916   4.633  10.555  10.033  0.3281 -1.9708  1.2193
  818MOL0     H 7917   4.512  10.784  10.026 -4.3434 -3.1063 -0.3502
  818MOL0     H 7918   4.579  10.823  10.186  3.8123 -0.6337 -2.2631
  818MOL0     H 7919   4.442  10.604  10.256  1.4296  0.1562 -0.6804
  818MOL0     H 7920   4.359  10.765  10.228  2.1492  0.3948  1.0989
  818MOL0     H 7921   4.396  10.532  10.029 -0.4198 -1.0109  0.1212
  818MOL0     H 7922   4.290  10.678  10.025  1.1744  1.0619  1.3145
  818MOL0     H 7923   4.158  10.604  10.201 -1.6870 -0.6607 -1.5081
  818MOL0     H 7924   4.250  10.462  10.236 -1.1668 -0.5619  0.1405
  818MOL0     H 7925   4.197  10.391   9.995 -0.4806 -0.0018 -0.6754
  818MOL0     H 7926   4.074  10.368  10.125  1.6295 -1.0241  0.4685
  818MOL0     H 7927   4.072  10.547   9.898 -0.9896 -0.2568  0.2191
  818MOL0     H 7928   3.985  10.595  10.044  0.6752  0.1704 -0.6031
  818MOL0     H 7929   3.967  10.224   9.945 -0.5246 -0.4265  0.7303
  818MOL0     H 7930   3.589  10.186   9.828  0.2821  1.6971  2.2742
  818MOL0     H 7931   3.695  10.086   9.950  1.0590  0.0918  0.5016
  818MOL0     H 7932   3.871  10.076   9.771  0.3546 -2.1283 -0.3786
  818MOL0     H 7933   3.751  10.156   9.661 -0.4822 -1.3716 -0.3997
  818MOL0     H 7934   3.742   9.936   9.612 -1.1440  1.6082 -0.5463
  818MOL0     H 7935   3.763   9.877   9.777 -0.3368  0.3628  1.1661
  818MOL0     H 7936   3.513  10.018   9.668  4.4388  2.8825  0.6213
  818MOL0     H 7937   3.524   9.919   9.820  1.6866  1.2135  0.9653
  818MOL0     H 7938   3.290   9.920   9.518 -0.1463  0.4171  0.8061
  818MOL0     H 7939   3.076   9.843   9.553 -0.4276 -0.9804 -0.7741
  818MOL0     H 7940   2.726   9.623   9.773  0.0251  0.3577  2.7503
  818MOL0     H 7941   2.520   9.491   9.831 -0.4576 -0.6743 -1.5934
  818MOL0     H 7942   2.589   9.283  10.092 -2.7420 -1.0135  3.9583
  818MOL0     H 7943   2.553   9.114  10.064 -0.8128 -1.2262 -2.9906
  818MOL0     H 7944   2.329   9.340  10.059 -0.8314 -0.9488 -1.2232
  818MOL0     H 7945   2.353   9.247  10.201 -2.1730 -1.5342 -0.7405
  818MOL0     H 7946   2.299   9.039  10.072 -2.0969 -0.6691 -1.0660
  818MOL0     H 7947   2.294   9.137   9.924 -0.9106 -0.0006 -0.4762
  818MOL0     H 7948   2.144   9.152  10.179  1.2424 -1.4353  0.7268
  818MOL0     H 7949   2.127   9.281  10.052 -1.7135 -0.6659  2.2438
  818MOL0     H 7950   2.072   8.997   9.964  1.3441  0.5927  0.6166
  818MOL0     H 7951   2.011   9.151   9.903 -0.4446  0.8020  1.2979
  818MOL0     H 7952   1.824   9.039   9.987 -3.2587  1.3980  1.7737
  818MOL0     H 7953   1.865   9.173  10.096  1.6372  0.4735 -0.1904
  818MOL0     H 7954   1.991   8.921  10.185  1.9458  1.6347  1.4000
  818MOL0     H 7955   1.875   9.025  10.273  1.5225  1.2722 -1.5888
  818MOL0     H 7956   1.783   8.838  10.049 -0.2613  0.5834 -0.2368
  818MOL0     H 7957   1.679   8.918  10.167  0.5804  2.3307  1.5089
  818MOL0     H 7958   2.773   9.143   9.885  0.5955  1.0443  2.4773
  818MOL0     H 7959   2.972   9.273   9.845  0.9760  1.8925  0.4774
  818MOL0     H 7960   3.244   9.533   9.816 -1.1119  0.1071 -1.1349
  818MOL0     H 7961   3.454   9.627   9.798 -0.1268 -0.9650 -1.7490
  818MOL0     H 7962   4.923  10.977  10.285 -1.3326 -1.4811 -1.3826
  818MOL0     H 7963   5.161  11.092  10.265 -2.3815 -0.8876  2.0632
  818MOL0     H 7964   5.687  10.825   9.983  3.3167 -0.1604 -0.9566
  818MOL0     H 7965   5.906  10.915  10.010  0.3604 -0.4439 -0.0637
  818MOL0     H 7966   5.983  11.272  10.247 -0.2174 -1.5428 -0.1262
  818MOL0     H 7967   5.937  11.358  10.096  0.2038 -1.1242 -0.2334
  818MOL0     H 7968   6.214  11.241  10.159  2.1800  0.3812 -1.6686
  818MOL0     H 7969   6.186  11.331  10.016  1.7207 -2.0719  0.7344
  818MOL0     H 7970   6.301  11.456  10.203  0.2881  1.0714 -1.0145
  818MOL0     H 7971   6.149  11.456  10.292  1.9501  0.4723  1.1529
  818MOL0     H 7972   6.206  11.669  10.163  1.2050 -0.8128 -0.7924
  818MOL0     H 7973   6.177  11.580  10.006  0.2676  1.1617 -0.6991
  818MOL0     H 7974   5.796  11.672  10.127 -1.2352 -2.9699 -1.6058
  818MOL0     H 7975   5.756  11.284  10.152  1.5468 -0.3206 -0.1807
  818MOL0     H 7976   5.535  11.188  10.176 -0.1838 -0.1278  0.5304
  819MOL0     O 7977   4.314   8.612   8.816  0.1683  0.5570 -0.0963
  819MOL0     C 7978   4.352   8.634   8.933  0.3544  0.2268  0.0081
  819MOL0     O 7979   4.303   8.729   9.017  0.3102 -0.1444  0.7165
  819MOL0     C 7980   4.196   8.802   8.974  0.0265  0.7173 -0.4757
  819MOL0     C 7981   4.079   8.756   8.910  0.4700  0.6692 -0.2466
  819MOL0     C 7982   3.974   8.842   8.893 -0.2096 -0.0545 -0.8303
  819MOL0     C 7983   3.974   8.967   8.942 -0.1095  0.0456  0.6593
  819MOL0     O 7984   3.856   9.034   8.928  0.5381  0.7481  0.0619
  819MOL0     C 7985   3.814   9.094   9.055  0.3074  0.6457  0.1927
  819MOL0     C 7986   3.679   9.157   9.034 -0.7332  0.2229 -0.0757
  819MOL0     C 7987   3.583   9.069   8.953  0.3642 -0.4716 -0.1219
  819MOL0     C 7988   3.559   8.938   9.024 -0.3842 -0.1078  0.2192
  819MOL0     C 7989   3.416   8.884   9.003  0.0589 -0.2059  0.1186
  819MOL0     C 7990   3.393   8.850   8.853  0.8207  0.4541  0.1244
  819MOL0     C 7991   3.289   8.737   8.837  0.3446 -0.1910  0.2667
  819MOL0     C 7992   3.235   8.737   8.695  0.4258 -0.2524  0.4809
  819MOL0     N 7993   3.160   8.614   8.664  0.2307 -0.1666  0.3460
  819MOL0     C 7994   3.039   8.564   8.716 -0.9597 -0.4871 -0.0048
  819MOL0     C 7995   3.029   8.441   8.672 -0.6853 -0.3308  0.0186
  819MOL0     C 7996   2.911   8.334   8.685  0.1645  0.2787 -0.1988
  819MOL0     C 7997   2.867   8.277   8.547  1.0868 -0.1193 -1.0055
  819MOL0     C 7998   2.716   8.230   8.551 -0.7714 -0.4892  0.4628
  819MOL0     C 7999   2.678   8.152   8.424  1.1480 -1.1489  0.9291
  819MOL0     O 8000   2.539   8.114   8.436 -0.2157  0.3301 -0.2089
  819MOL0     C 8001   2.485   8.045   8.332  0.4808 -0.7393  0.4779
  819MOL0     C 8002   2.552   8.017   8.210 -0.4591  0.0943 -0.1787
  819MOL0     C 8003   2.484   7.946   8.107  0.2969 -0.3032  0.0901
  819MOL0     C 8004   2.352   7.911   8.117 -0.8051  0.5491  0.1450
  819MOL0     C 8005   2.287   7.825   8.022  0.3041  0.2803 -0.6720
  819MOL0     O 8006   2.176   7.753   8.072  0.1097 -0.1205  0.8638
  819MOL0     C 8007   2.101   7.677   7.983 -0.4133  1.0385 -0.2546
  819MOL0     C 8008   2.066   7.723   7.854  0.4497 -0.3973  0.3656
  819MOL0     C 8009   2.005   7.634   7.764 -0.7463  0.5309  0.2747
  819MOL0     C 8010   1.980   7.503   7.806 -0.1475  0.3260 -0.4048
  819MOL0     O 8011   1.908   7.409   7.738  0.3982  0.3442  0.0144
  819MOL0     C 8012   1.883   7.432   7.596 -0.1949  0.4894 -0.0866
  819MOL0     C 8013   1.821   7.307   7.534 -0.4396  0.1771 -0.0307
  819MOL0     C 8014   1.672   7.282   7.569  0.1141 -0.3328 -0.1248
  819MOL0     C 8015   1.624   7.154   7.501  0.1228  0.3511 -0.5604
  819MOL0     C 8016   1.472   7.123   7.519 -0.2776 -0.0840  0.3407
  819MOL0     C 8017   1.430   6.984   7.458  0.0332  0.8459 -0.1786
  819MOL0     C 8018   1.414   6.989   7.301  0.8077 -0.5862 -0.1178
  819MOL0     C 8019   1.376   6.848   7.245 -1.0448 -0.5133  0.7269
  819MOL0    Cl 8020   1.211   6.804   7.295 -0.0291  0.1287  0.2084
  819MOL0     C 8021   2.010   7.466   7.943  0.5104 -0.6669 -0.2486
  819MOL0     C 8022   2.077   7.561   8.026  1.0376  0.9959  0.2133
  819MOL0     O 8023   2.318   7.838   7.907 -0.2702  0.3403 -0.3474
  819MOL0     C 8024   2.282   7.955   8.229 -0.2385  0.0118 -0.1508
  819MOL0     C 8025   2.347   8.020   8.338  0.1712 -0.0196  0.0086
  819MOL0     N 8026   3.151   8.418   8.606 -0.0403  0.7225 -0.1590
  819MOL0     N 8027   3.219   8.518   8.595 -0.5894 -0.6188 -0.4026
  819MOL0     C 8028   4.095   9.023   8.984 -0.6996 -0.3227  0.8297
  819MOL0     C 8029   4.211   8.939   8.998 -0.4223  0.2411 -0.6422
  819MOL0     C 8030   4.464   8.564   8.988  0.3115 -0.4816 -0.5458
  819MOL0     C 8031   4.501   8.450   8.926 -0.6652  0.0657  0.8053
  819MOL0     C 8032   4.617   8.375   8.962 -0.9587  0.1335 -0.4379
  819MOL0     C 8033   4.694   8.419   9.073  1.0166 -0.1768 -0.0757
  819MOL0     O 8034   4.800   8.342   9.109  0.2614  0.4507  0.1748
  819MOL0     C 8035   4.904   8.409   9.185  0.2564  0.1543 -0.4735
  819MOL0     C 8036   5.017   8.313   9.201 -0.5131  1.0264 -0.0566
  819MOL0     C 8037   5.136   8.375   9.271  0.1547 -0.2385 -0.4965
  819MOL0     C 8038   5.103   8.409   9.418 -1.1648 -0.2233  0.0703
  819MOL0     C 8039   5.061   8.281   9.490  0.3803  0.1724 -0.4766
  819MOL0     C 8040   5.025   8.177   9.549 -0.1130  0.5621  0.4245
  819MOL0     C 8041   4.659   8.535   9.141  0.4459 -0.7733  0.7599
  819MOL0     C 8042   4.544   8.610   9.099  0.9798  0.1755  0.1694
  819MOL0     H 8043   4.072   8.649   8.900  2.6127  0.7111 -4.3355
  819MOL0     H 8044   3.874   8.808   8.867 -0.6556 -0.2079  0.9353
  819MOL0     H 8045   3.887   9.171   9.077 -0.1839  1.3200 -0.4777
  819MOL0     H 8046   3.819   9.011   9.127  1.6837 -1.1583 -1.8207
  819MOL0     H 8047   3.698   9.252   8.983 -2.9552 -0.0701 -1.5573
  819MOL0     H 8048   3.646   9.173   9.137  0.5583 -2.8087  0.9288
  819MOL0     H 8049   3.613   9.044   8.851 -1.8893 -0.9078 -0.7262
  819MOL0     H 8050   3.485   9.117   8.950  0.5481 -0.1049 -0.3188
  819MOL0     H 8051   3.640   8.867   9.007 -0.2116 -0.2700  1.6115
  819MOL0     H 8052   3.565   8.958   9.132 -0.9037  0.2358  0.1912
  819MOL0     H 8053   3.332   8.939   9.048 -1.6666 -2.0569 -0.6830
  819MOL0     H 8054   3.416   8.788   9.055 -0.6354 -2.2087 -3.3159
  819MOL0     H 8055   3.481   8.805   8.807 -0.7869 -2.6450 -0.2430
  819MOL0     H 8056   3.353   8.937   8.801 -0.3655  0.1279  0.4538
  819MOL0     H 8057   3.335   8.640   8.861 -1.0096 -1.5942 -2.3652
  819MOL0     H 8058   3.200   8.748   8.900  1.6757  0.9168  2.0627
  819MOL0     H 8059   3.304   8.746   8.611 -2.7189 -0.5743 -2.3569
  819MOL0     H 8060   3.162   8.818   8.690  1.6635  0.9060  0.7056
  819MOL0     H 8061   2.978   8.622   8.784  0.0837  1.9498 -1.0208
  819MOL0     H 8062   2.836   8.395   8.737  0.3493 -0.8249  1.4195
  819MOL0     H 8063   2.944   8.254   8.753  2.2617  0.8141 -0.5064
  819MOL0     H 8064   2.932   8.190   8.541 -0.3218 -1.1980 -1.0441
  819MOL0     H 8065   2.885   8.353   8.470 -2.2680  1.7615 -0.1591
  819MOL0     H 8066   2.694   8.162   8.634  2.5704 -1.0586  1.0029
  819MOL0     H 8067   2.656   8.320   8.564 -0.0043  0.0629  0.2307
  819MOL0     H 8068   2.756   8.075   8.422  2.4210  0.0798  1.2879
  819MOL0     H 8069   2.689   8.218   8.338 -2.9428  0.8008  1.6514
  819MOL0     H 8070   2.653   8.053   8.196 -0.5766  0.2081 -0.7351
  819MOL0     H 8071   2.539   7.941   8.014  2.1671 -0.3863  1.1485
  819MOL0     H 8072   2.077   7.827   7.827  0.3369 -0.0837  1.4997
  819MOL0     H 8073   1.973   7.662   7.664  1.0888 -2.4169 -1.2682
  819MOL0     H 8074   1.970   7.460   7.536  0.5020 -1.6414 -0.1424
  819MOL0     H 8075   1.819   7.519   7.579  1.4710  1.8645  0.3912
  819MOL0     H 8076   1.885   7.221   7.558 -1.3777 -0.8943 -1.1763
  819MOL0     H 8077   1.821   7.306   7.425 -1.4593  0.6192 -0.0433
  819MOL0     H 8078   1.615   7.367   7.530  0.4868 -1.2355 -2.8440
  819MOL0     H 8079   1.669   7.277   7.678  4.0798  0.5271  0.1489
  819MOL0     H 8080   1.648   7.163   7.395  1.1132 -0.4876 -0.4184
  819MOL0     H 8081   1.673   7.067   7.545 -2.1628 -1.5466 -1.5240
  819MOL0     H 8082   1.412   7.198   7.467 -0.3245  0.2663  0.8942
  819MOL0     H 8083   1.449   7.134   7.625  1.8085  0.0625  0.8233
  819MOL0     H 8084   1.340   6.943   7.504  0.9031  1.5555  2.3032
  819MOL0     H 8085   1.510   6.911   7.473 -0.1361  0.4723 -1.0568
  819MOL0     H 8086   1.342   7.069   7.280  0.9548 -0.4603 -0.1506
  819MOL0     H 8087   1.512   7.020   7.264  1.2204  1.1863  2.2351
  819MOL0     H 8088   1.452   6.780   7.284 -2.3724 -2.0500  0.7459
  819MOL0     H 8089   1.365   6.863   7.137 -1.4219  0.5272  0.8996
  819MOL0     H 8090   1.979   7.367   7.973 -2.3565 -0.2004 -1.3683
  819MOL0     H 8091   2.116   7.526   8.121  2.0885  0.6400 -0.3379
  819MOL0     H 8092   2.185   7.912   8.252 -0.3643  1.1347  1.6454
  819MOL0     H 8093   2.290   8.045   8.427  0.7806  1.6724 -0.0522
  819MOL0     H 8094   4.095   9.128   9.010 -1.4871 -0.7079  2.6073
  819MOL0     H 8095   4.303   8.977   9.040 -1.4587  2.0630  0.0626
  819MOL0     H 8096   4.441   8.427   8.838 -0.7563  1.3577  0.5172
  819MOL0     H 8097   4.658   8.284   8.919 -0.1074  0.2903  0.0180
  819MOL0     H 8098   4.858   8.421   9.283  1.5480 -1.3131  0.3472
  819MOL0     H 8099   4.936   8.506   9.143  2.5333  0.4139  1.6385
  819MOL0     H 8100   4.982   8.220   9.246  1.9430  0.6564  1.2549
  819MOL0     H 8101   5.064   8.285   9.106 -1.5584  2.3876 -1.0161
  819MOL0     H 8102   5.170   8.464   9.217  0.2365 -0.3284 -0.5938
  819MOL0     H 8103   5.221   8.307   9.280 -0.6531 -1.3656 -1.1839
  819MOL0     H 8104   5.191   8.446   9.472  0.5618  0.7092 -3.1142
  819MOL0     H 8105   5.034   8.493   9.429  0.9520  1.7238 -0.7483
  819MOL0     H 8106   4.997   8.085   9.596  1.6906  0.4869  1.4588
  819MOL0     H 8107   4.714   8.571   9.227  2.0490 -2.0484  0.3136
  819MOL0     H 8108   4.518   8.702   9.150  0.3003  1.4095 -2.2831
  820MOL0     O 8109   2.761   8.934   8.844 -0.0543 -0.1941  0.2798
  820MOL0     C 8110   2.762   9.009   8.932 -0.4975 -0.5294  0.1417
  820MOL0     O 8111   2.656   9.031   9.023  0.1374 -0.8736  0.1263
  820MOL0     C 8112   2.526   8.979   8.990 -0.0820  1.0247  0.0475
  820MOL0     C 8113   2.472   8.948   8.856 -0.0967 -0.4135  0.0746
  820MOL0     C 8114   2.344   8.887   8.839 -0.4715 -0.1555  0.5358
  820MOL0     C 8115   2.268   8.851   8.953  0.3013  0.2658  1.3017
  820MOL0     O 8116   2.149   8.784   8.946  0.7708  0.3428  0.2174
  820MOL0     C 8117   2.099   8.753   8.823 -0.3409 -0.1051  0.6724
  820MOL0     C 8118   1.982   8.659   8.852  0.0533  0.1559 -0.2836
  820MOL0     C 8119   1.857   8.729   8.897  0.2385  0.2536 -0.8344
  820MOL0     C 8120   1.795   8.812   8.789 -0.2614  0.4408 -0.5631
  820MOL0     C 8121   1.660   8.875   8.829 -0.5438 -0.2738  0.2732
  820MOL0     C 8122   1.682   8.991   8.927  0.2196 -0.0939 -0.5236
  820MOL0     C 8123   1.547   9.031   8.990 -0.5061 -0.2214  0.2728
  820MOL0     C 8124   1.556   9.124   9.105  0.0297 -0.3668 -0.1876
  820MOL0     N 8125   1.588   9.260   9.050  0.3327  0.1783 -0.2138
  820MOL0     C 8126   1.708   9.318   9.035 -1.1436 -0.4338  0.5882
  820MOL0     C 8127   1.683   9.448   9.012 -0.0807 -0.9128  0.1578
  820MOL0     C 8128   1.784   9.564   8.984 -0.1640  0.0640  0.2755
  820MOL0     C 8129   1.893   9.574   9.086  0.6672 -0.3028 -0.2138
  820MOL0     C 8130   1.973   9.707   9.084 -0.0180 -0.3903  0.9666
  820MOL0     C 8131   2.061   9.712   9.210 -0.5228  0.4794  0.3773
  820MOL0     O 8132   2.182   9.650   9.173 -0.5076 -0.6761 -0.3170
  820MOL0     C 8133   2.267   9.719   9.095  0.2799 -0.2007 -0.3780
  820MOL0     C 8134   2.384   9.653   9.062 -1.1154  0.6374 -0.3184
  820MOL0     C 8135   2.491   9.715   9.001 -0.3689 -0.9959  0.9208
  820MOL0     C 8136   2.484   9.854   8.970 -0.1265 -0.3368  0.4553
  820MOL0     C 8137   2.603   9.920   8.913 -1.1966  0.1610 -0.4934
  820MOL0     O 8138   2.721   9.859   8.943 -0.5900 -0.0694 -0.3576
  820MOL0     C 8139   2.831   9.903   8.866  0.3929  0.1010  0.0812
  820MOL0     C 8140   2.852   9.857   8.739 -0.3527  0.0566 -0.0339
  820MOL0     C 8141   2.957   9.913   8.666 -0.3698 -0.2671 -0.4805
  820MOL0     C 8142   3.046  10.003   8.721 -0.7687 -0.0538 -0.6458
  820MOL0     O 8143   3.154  10.038   8.646  0.2427 -0.6598  1.0945
  820MOL0     C 8144   3.253   9.941   8.653  0.7538  0.4795  1.0032
  820MOL0     C 8145   3.368   9.983   8.560  0.2186  0.6131 -0.2902
  820MOL0     C 8146   3.442  10.112   8.620 -0.0969  0.1779  0.2561
  820MOL0     C 8147   3.569  10.148   8.539  0.4755 -0.3566 -0.1385
  820MOL0     C 8148   3.684  10.213   8.623 -0.1027  0.8260  0.0537
  820MOL0     C 8149   3.780  10.115   8.702  0.6396  0.0455 -0.1201
  820MOL0     C 8150   3.841  10.006   8.614  0.4791 -1.1522 -0.2622
  820MOL0     C 8151   3.971   9.950   8.689 -0.3721 -0.1824 -0.7552
  820MOL0    Cl 8152   4.083   9.876   8.572  0.0998  0.0108 -0.1730
  820MOL0     C 8153   3.024  10.045   8.853  0.1237  0.2905 -0.4678
  820MOL0     C 8154   2.920   9.992   8.928 -0.1956 -0.8292  0.0045
  820MOL0     O 8155   2.591  10.026   8.858  0.8321 -0.4838  0.4644
  820MOL0     C 8156   2.368   9.918   8.989  0.2273 -0.0951 -0.3393
  820MOL0     C 8157   2.258   9.854   9.058 -0.0661  0.4392 -0.1500
  820MOL0     N 8158   1.549   9.472   9.000  0.7302 -0.4062 -0.1631
  820MOL0     N 8159   1.494   9.347   9.018  0.5860 -0.1883 -0.5977
  820MOL0     C 8160   2.319   8.877   9.079 -0.1493  0.3955  0.2237
  820MOL0     C 8161   2.445   8.939   9.097  0.2100 -0.0955 -0.4030
  820MOL0     C 8162   2.890   9.061   8.971  0.2752 -0.5012  0.0584
  820MOL0     C 8163   2.904   9.156   9.075  0.8881 -0.1501  0.5075
  820MOL0     C 8164   3.028   9.220   9.091  0.5948  0.4213 -0.9486
  820MOL0     C 8165   3.150   9.193   9.023 -0.0862  0.2914  0.2430
  820MOL0     O 8166   3.267   9.257   9.028 -0.0192 -0.0760 -0.7777
  820MOL0     C 8167   3.266   9.377   9.108  0.2608  0.1079  0.2414
  820MOL0     C 8168   3.416   9.426   9.095  0.5570  0.6251  0.4029
  820MOL0     C 8169   3.444   9.495   8.959 -0.1353  0.4520 -0.2836
  820MOL0     C 8170   3.397   9.636   8.947 -1.0409  0.0951 -0.1805
  820MOL0     C 8171   3.477   9.720   8.859 -0.7501  0.1717  0.5284
  820MOL0     C 8172   3.557   9.780   8.791  0.0155 -0.5053  0.4898
  820MOL0     C 8173   3.133   9.108   8.924  0.0378  0.4623  0.3075
  820MOL0     C 8174   3.007   9.040   8.892  0.1885 -0.2973 -0.6026
  820MOL0     H 8175   2.532   8.969   8.768  0.0830  0.6579  0.4293
  820MOL0     H 8176   2.313   8.875   8.736  0.3775  1.7730  0.0048
  820MOL0     H 8177   2.171   8.704   8.757 -0.8932  2.0570 -1.7088
  820MOL0     H 8178   2.069   8.842   8.766  1.8060 -0.5238 -1.2816
  820MOL0     H 8179   2.006   8.577   8.921 -3.2081 -1.8571 -1.3526
  820MOL0     H 8180   1.954   8.608   8.760  0.8692 -2.7125  0.9259
  820MOL0     H 8181   1.884   8.784   8.988  0.7915 -2.0221  0.4618
  820MOL0     H 8182   1.785   8.665   8.949  1.3621  0.7290  1.4719
  820MOL0     H 8183   1.854   8.894   8.746  1.6666 -1.6822 -2.2241
  820MOL0     H 8184   1.760   8.752   8.705 -0.0869  0.9744 -1.0222
  820MOL0     H 8185   1.602   8.799   8.882  1.8940 -1.7522  1.0014
  820MOL0     H 8186   1.603   8.913   8.744 -1.0446  0.2238  0.8216
  820MOL0     H 8187   1.725   9.080   8.882  0.4322  0.2889  0.3965
  820MOL0     H 8188   1.740   8.965   9.016 -0.7117  1.5511  0.6190
  820MOL0     H 8189   1.494   9.076   8.906  1.0378 -2.0329 -1.8189
  820MOL0     H 8190   1.493   8.944   9.029 -0.8536  1.1034  2.9919
  820MOL0     H 8191   1.619   9.084   9.185  3.3683 -0.6766 -2.7196
  820MOL0     H 8192   1.457   9.139   9.149 -0.0933  2.0390 -1.0956
  820MOL0     H 8193   1.804   9.267   9.041 -0.6611  0.3007 -0.5165
  820MOL0     H 8194   1.733   9.659   8.966  3.2518  1.9263 -0.4267
  820MOL0     H 8195   1.831   9.525   8.893 -1.7612 -4.8316  1.2720
  820MOL0     H 8196   1.951   9.482   9.074 -0.8607 -1.2426 -0.5274
  820MOL0     H 8197   1.841   9.561   9.181  2.5864 -0.8085  0.8279
  820MOL0     H 8198   2.025   9.717   8.989 -2.2115 -0.2085 -0.2898
  820MOL0     H 8199   1.903   9.790   9.085 -1.7069 -1.7501  1.3520
  820MOL0     H 8200   2.018   9.657   9.294 -1.4428  1.3702  0.5096
  820MOL0     H 8201   2.075   9.816   9.243 -1.9739  0.5322  0.8710
  820MOL0     H 8202   2.388   9.554   9.106  0.4279  1.3136  1.1571
  820MOL0     H 8203   2.585   9.662   8.993 -1.7393 -3.3340 -1.3734
  820MOL0     H 8204   2.790   9.774   8.706  1.8840 -1.4699 -0.6296
  820MOL0     H 8205   2.968   9.886   8.561 -1.5394  1.6238 -1.1335
  820MOL0     H 8206   3.225   9.841   8.619  3.0881 -0.0124  0.3912
  820MOL0     H 8207   3.284   9.943   8.758  0.2050 -0.4447  1.1949
  820MOL0     H 8208   3.317  10.011   8.467 -1.3870  0.2981  0.4673
  820MOL0     H 8209   3.431   9.894   8.552  0.5380  0.4742  2.7570
  820MOL0     H 8210   3.480  10.092   8.720 -0.0429 -0.1239  0.1762
  820MOL0     H 8211   3.368  10.192   8.622 -2.0826 -1.5227 -0.9607
  820MOL0     H 8212   3.609  10.057   8.494  0.5110 -0.4868  0.1508
  820MOL0     H 8213   3.557  10.218   8.456  1.7252  0.8629  0.6575
  820MOL0     H 8214   3.651  10.280   8.703  1.4322  0.7156  0.8049
  820MOL0     H 8215   3.751  10.277   8.565  2.4161 -0.1181  1.7328
  820MOL0     H 8216   3.721  10.068   8.780  0.1181 -1.7475 -1.5231
  820MOL0     H 8217   3.864  10.172   8.743  3.2992 -2.5024 -1.5782
  820MOL0     H 8218   3.767   9.927   8.595  0.4529 -1.3391  0.5519
  820MOL0     H 8219   3.865  10.047   8.515  2.0062  2.4166  1.4192
  820MOL0     H 8220   3.943   9.879   8.767  0.5784 -0.2153 -0.4303
  820MOL0     H 8221   4.025  10.027   8.744  1.1124 -1.3549 -0.5260
  820MOL0     H 8222   3.090  10.121   8.893  0.6446 -0.0644 -0.6344
  820MOL0     H 8223   2.905  10.007   9.034  0.2896 -2.2736  0.3050
  820MOL0     H 8224   2.372  10.023   8.962 -2.8775  0.1889 -0.0147
  820MOL0     H 8225   2.181   9.921   9.095  1.6293  0.8446  2.9661
  820MOL0     H 8226   2.251   8.842   9.156  1.2350 -1.0909  0.8441
  820MOL0     H 8227   2.492   8.945   9.195 -0.1653 -0.5604 -0.1945
  820MOL0     H 8228   2.818   9.194   9.129 -0.8351 -0.9057 -1.5517
  820MOL0     H 8229   3.046   9.284   9.177 -1.2824 -2.4117  1.7547
  820MOL0     H 8230   3.251   9.347   9.212  1.9376 -2.4952 -0.1538
  820MOL0     H 8231   3.186   9.449   9.090  1.6080  1.4648 -0.5403
  820MOL0     H 8232   3.435   9.503   9.171 -1.4797  3.4981 -1.8108
  820MOL0     H 8233   3.480   9.338   9.105  0.8100  0.8627  0.9624
  820MOL0     H 8234   3.397   9.435   8.880  0.8502  0.0409 -0.5757
  820MOL0     H 8235   3.552   9.493   8.939 -0.2211  0.2798 -0.7432
  820MOL0     H 8236   3.292   9.640   8.916 -1.1572  0.6661  0.2702
  820MOL0     H 8237   3.396   9.681   9.047 -1.4494 -1.9786  0.7842
  820MOL0     H 8238   3.632   9.837   8.739 -1.2255  0.5788 -0.1662
  820MOL0     H 8239   3.225   9.093   8.867 -0.2175 -0.1989  0.0613
  820MOL0     H 8240   3.004   8.981   8.801  0.6848 -0.6276 -0.4104
  821MOL0     O 8241   3.905   9.642   4.171 -0.1237  0.6394 -0.5204
  821MOL0     C 8242   3.979   9.574   4.240 -0.6175  0.3380 -0.5104
  821MOL0     O 8243   3.935   9.477   4.333  0.1134  0.1529  0.7075
  821MOL0     C 8244   3.804   9.465   4.378  0.1863 -0.3134 -0.1309
  821MOL0     C 8245   3.776   9.457   4.511  0.1017  0.1575  0.3235
  821MOL0     C 8246   3.641   9.457   4.561 -0.0780 -0.2643 -0.3810
  821MOL0     C 8247   3.528   9.456   4.467 -0.0217 -0.6918  0.1299
  821MOL0     O 8248   3.401   9.445   4.516 -0.5733  0.3282  0.4356
  821MOL0     C 8249   3.306   9.440   4.405 -0.4596 -0.1802  0.0576
  821MOL0     C 8250   3.162   9.421   4.450 -0.5167  0.3562  0.3837
  821MOL0     C 8251   3.130   9.531   4.553  0.2108  0.1879  0.3663
  821MOL0     C 8252   2.994   9.506   4.597 -0.3016 -1.1104 -0.0072
  821MOL0     C 8253   2.953   9.603   4.701 -0.1535 -0.7178 -0.2938
  821MOL0     C 8254   2.817   9.558   4.768  0.5284 -0.7183 -0.6153
  821MOL0     C 8255   2.833   9.428   4.858 -0.1676  0.5023 -0.4984
  821MOL0     C 8256   2.711   9.417   4.955  0.1776  0.2919  0.1031
  821MOL0     N 8257   2.578   9.418   4.887 -0.2845  0.0409  1.1660
  821MOL0     C 8258   2.469   9.486   4.913 -0.4183 -1.1228 -0.5039
  821MOL0     C 8259   2.363   9.442   4.835 -0.8266 -0.3084 -0.0226
  821MOL0     C 8260   2.217   9.475   4.841 -0.0191  0.0789  0.2080
  821MOL0     C 8261   2.181   9.572   4.954 -0.3188 -0.4120  0.2608
  821MOL0     C 8262   2.038   9.623   4.957  0.1504 -0.4321  0.6030
  821MOL0     C 8263   1.927   9.517   4.930 -0.0449 -0.0755 -0.4769
  821MOL0     O 8264   1.803   9.591   4.936 -0.4818  0.3575 -0.3298
  821MOL0     C 8265   1.690   9.516   4.928 -0.2639  0.7162 -0.6102
  821MOL0     C 8266   1.666   9.412   4.842 -0.0769 -0.4285  0.2062
  821MOL0     C 8267   1.552   9.334   4.840 -0.6806 -0.3240  0.2704
  821MOL0     C 8268   1.453   9.370   4.927 -0.7917 -0.5351 -0.2456
  821MOL0     C 8269   1.319   9.306   4.928  0.3114 -0.1080 -0.5120
  821MOL0     O 8270   1.228   9.365   5.009  0.8678 -1.0316  0.2193
  821MOL0     C 8271   1.099   9.321   5.018  0.4435  0.1380 -0.0851
  821MOL0     C 8272   0.995   9.417   5.019  0.9893  1.0226  0.7801
  821MOL0     C 8273   0.859   9.389   5.047 -0.2566 -0.0490 -0.2238
  821MOL0     C 8274   0.823   9.259   5.057  0.2323  0.8507  0.4998
  821MOL0     O 8275   0.682   9.221   5.052 -0.4753 -1.0076 -0.3001
  821MOL0     C 8276   0.583   9.311   4.997  0.9337  0.1747 -0.1590
  821MOL0     C 8277   0.503   9.229   4.886  0.1137  0.8238 -0.2402
  821MOL0     C 8278   0.405   9.332   4.821 -0.0292 -0.1712 -0.3056
  821MOL0     C 8279   0.325   9.259   4.710 -0.8031  0.1420  0.1238
  821MOL0     C 8280   0.205   9.339   4.677 -0.0096 -0.1919  0.0886
  821MOL0     C 8281   0.135   9.283   4.553  0.3655  0.4895 -0.6113
  821MOL0     C 8282   0.021   9.193   4.593 -0.0272 -0.0070 -0.4056
  821MOL0     C 8283  -0.042   9.119   4.470 -0.4179  0.5511 -0.2270
  821MOL0    Cl 8284  -0.115   9.236   4.359 -0.3791  0.3154  0.2798
  821MOL0     C 8285   0.919   9.161   5.031  0.4585  0.3525 -0.3907
  821MOL0     C 8286   1.057   9.191   5.030  0.4150  0.4755  0.4833
  821MOL0     O 8287   1.298   9.213   4.852 -0.7744  0.0648  0.5724
  821MOL0     C 8288   1.473   9.477   5.022 -0.5942  0.4438  0.3108
  821MOL0     C 8289   1.589   9.555   5.021 -0.1763 -0.3315  0.4318
  821MOL0     N 8290   2.418   9.323   4.777  0.1331  0.5023 -0.3813
  821MOL0     N 8291   2.544   9.315   4.800 -0.2208 -0.4636  0.4400
  821MOL0     C 8292   3.564   9.454   4.332  0.3860  0.0790  0.4217
  821MOL0     C 8293   3.698   9.461   4.285  0.4409  0.0057  0.3709
  821MOL0     C 8294   4.123   9.581   4.219  0.4241 -0.0118 -0.1930
  821MOL0     C 8295   4.217   9.502   4.294 -0.8799 -0.0741 -0.3656
  821MOL0     C 8296   4.351   9.537   4.280 -0.0774  0.4892  0.4439
  821MOL0     C 8297   4.400   9.641   4.199 -0.3197 -0.1896  0.3516
  821MOL0     O 8298   4.537   9.673   4.186  0.0418  0.1147  0.0622
  821MOL0     C 8299   4.620   9.605   4.279 -0.2679 -0.9061 -0.3836
  821MOL0     C 8300   4.758   9.681   4.283 -0.0488  0.0756 -0.2824
  821MOL0     C 8301   4.838   9.634   4.411  0.1245 -0.7674 -0.4131
  821MOL0     C 8302   4.971   9.710   4.435  0.9767 -0.1957  0.3644
  821MOL0     C 8303   4.979   9.848   4.417  1.2270 -0.4302 -0.3585
  821MOL0     C 8304   4.990   9.963   4.399 -0.6338  0.2228  0.0685
  821MOL0     C 8305   4.312   9.719   4.127 -0.3569 -0.2888 -0.4199
  821MOL0     C 8306   4.174   9.685   4.142 -0.1690  0.0023  0.1295
  821MOL0     H 8307   3.867   9.452   4.570 -1.1193 -0.7605  2.2262
  821MOL0     H 8308   3.618   9.450   4.667 -2.1400 -1.5636 -0.8670
  821MOL0     H 8309   3.325   9.360   4.333  2.1757  2.0254 -1.9223
  821MOL0     H 8310   3.296   9.530   4.344  1.5735 -1.2446 -1.9934
  821MOL0     H 8311   3.150   9.319   4.485 -1.1284 -0.3369 -1.6909
  821MOL0     H 8312   3.102   9.428   4.358  0.5483  0.8469 -0.2993
  821MOL0     H 8313   3.143   9.636   4.525  2.1029  0.0186  0.5073
  821MOL0     H 8314   3.188   9.529   4.646  0.7380 -0.8545  0.0329
  821MOL0     H 8315   2.930   9.524   4.510 -3.4603  1.7418  2.6272
  821MOL0     H 8316   2.982   9.403   4.633 -1.2447 -1.0851 -0.2190
  821MOL0     H 8317   2.960   9.706   4.665  3.9195 -0.1845  1.4124
  821MOL0     H 8318   3.026   9.606   4.782 -1.3686  0.5748  0.8138
  821MOL0     H 8319   2.737   9.537   4.697  0.9548 -2.2898 -0.6657
  821MOL0     H 8320   2.775   9.636   4.832 -0.2552 -1.0512 -0.7128
  821MOL0     H 8321   2.839   9.336   4.799 -0.5979 -0.7402  1.2917
  821MOL0     H 8322   2.914   9.417   4.931  0.8120 -0.9908 -1.7562
  821MOL0     H 8323   2.720   9.507   5.016 -0.8076  2.6337 -2.9544
  821MOL0     H 8324   2.731   9.325   5.010 -1.1745 -0.2613 -0.2823
  821MOL0     H 8325   2.451   9.553   4.996  1.0070  0.8549 -1.6961
  821MOL0     H 8326   2.159   9.384   4.860  1.9091 -1.2905 -0.1488
  821MOL0     H 8327   2.194   9.521   4.745  1.4601  0.4607 -0.0024
  821MOL0     H 8328   2.248   9.657   4.940 -0.6749 -0.1120  0.3849
  821MOL0     H 8329   2.186   9.524   5.052  1.1848 -0.2438  0.2872
  821MOL0     H 8330   2.023   9.672   5.053 -1.8314  3.2292 -1.3594
  821MOL0     H 8331   2.019   9.700   4.882 -0.6701 -0.7997  0.4256
  821MOL0     H 8332   1.937   9.437   5.004  2.4294  0.4759 -0.1533
  821MOL0     H 8333   1.935   9.470   4.831  1.7752  0.0766 -0.4216
  821MOL0     H 8334   1.740   9.395   4.765  1.4868 -0.7592  1.7145
  821MOL0     H 8335   1.559   9.234   4.798  0.8338 -0.6975  1.3029
  821MOL0     H 8336   1.005   9.518   4.981 -4.0668  1.9246  1.1334
  821MOL0     H 8337   0.792   9.474   5.042 -2.2915 -1.6431 -2.9872
  821MOL0     H 8338   0.629   9.399   4.951  1.6805  1.0155  2.0638
  821MOL0     H 8339   0.514   9.340   5.077  1.8081  1.0491  0.2960
  821MOL0     H 8340   0.448   9.142   4.922  0.6331  1.6250  2.7370
  821MOL0     H 8341   0.579   9.197   4.813  0.9548  0.0598  0.9348
  821MOL0     H 8342   0.461   9.411   4.769  1.6299 -1.6881 -0.9298
  821MOL0     H 8343   0.345   9.376   4.901  2.5772  0.4891  1.4247
  821MOL0     H 8344   0.392   9.246   4.625  0.0936  0.3631  0.7727
  821MOL0     H 8345   0.290   9.160   4.741 -0.6763 -0.2362 -0.9185
  821MOL0     H 8346   0.237   9.438   4.644 -3.2765  0.0400 -2.9888
  821MOL0     H 8347   0.131   9.356   4.756 -1.0202 -1.2867 -0.5844
  821MOL0     H 8348   0.207   9.235   4.487  2.0487  1.3524  0.5241
  821MOL0     H 8349   0.093   9.368   4.498 -0.4793  0.8345  0.5371
  821MOL0     H 8350   0.060   9.116   4.660  2.3597 -0.2146 -1.9365
  821MOL0     H 8351  -0.046   9.253   4.655  2.0325  1.4385  0.5444
  821MOL0     H 8352  -0.120   9.057   4.516  0.9511 -1.6783 -0.7670
  821MOL0     H 8353   0.037   9.061   4.423  0.0153  1.8745 -1.1927
  821MOL0     H 8354   0.874   9.062   5.035 -0.0814  0.5984  3.4375
  821MOL0     H 8355   1.133   9.115   5.017 -0.1238  0.0134  0.0080
  821MOL0     H 8356   1.401   9.492   5.101 -2.0423 -0.1812 -0.8551
  821MOL0     H 8357   1.620   9.631   5.091  2.4407  0.2102 -1.2009
  821MOL0     H 8358   3.498   9.441   4.246  0.2884 -0.0500  0.5176
  821MOL0     H 8359   3.724   9.469   4.180 -2.4552  2.7006 -0.2915
  821MOL0     H 8360   4.191   9.424   4.364  0.7822 -1.7298 -1.4988
  821MOL0     H 8361   4.421   9.467   4.324  0.8915  2.3672  2.0006
  821MOL0     H 8362   4.626   9.497   4.261 -0.2621 -0.6440 -2.1709
  821MOL0     H 8363   4.569   9.626   4.374  0.2318  0.0869 -0.3241
  821MOL0     H 8364   4.823   9.652   4.200 -0.6224 -1.7228 -0.1462
  821MOL0     H 8365   4.736   9.787   4.265 -0.9021 -0.1898 -0.8796
  821MOL0     H 8366   4.834   9.525   4.403 -0.2902 -0.9635  1.9479
  821MOL0     H 8367   4.782   9.658   4.501  2.5226  2.2890  0.4319
  821MOL0     H 8368   5.002   9.689   4.538 -3.8610  0.7776  2.3391
  821MOL0     H 8369   5.050   9.673   4.369  1.3996  1.7122 -0.2925
  821MOL0     H 8370   4.995  10.067   4.374  0.1703  0.0806 -0.4053
  821MOL0     H 8371   4.348   9.786   4.050  3.6121 -3.3405 -1.5871
  821MOL0     H 8372   4.107   9.736   4.074 -0.0211 -3.3705 -2.8446
  822MOL0     O 8373   6.037   3.102   6.117 -0.6335  0.0165  0.3210
  822MOL0     C 8374   6.138   3.170   6.124 -0.4916 -0.7157  0.5801
  822MOL0     O 8375   6.257   3.127   6.109  0.2134 -0.4057  0.3145
  822MOL0     C 8376   6.286   3.015   6.043  0.1025 -0.1686  0.9774
  822MOL0     C 8377   6.345   3.022   5.913  0.0933  0.0813 -0.2557
  822MOL0     C 8378   6.380   2.910   5.840  0.5860  0.5677 -0.0031
  822MOL0     C 8379   6.342   2.785   5.894  0.2063 -0.4153  0.5068
  822MOL0     O 8380   6.367   2.661   5.830  0.4400 -0.7597 -0.2146
  822MOL0     C 8381   6.407   2.665   5.695 -1.0215  0.3961  0.6911
  822MOL0     C 8382   6.311   2.684   5.583  0.4274  0.0306 -0.2734
  822MOL0     C 8383   6.216   2.565   5.570 -0.1059  0.1939  0.4123
  822MOL0     C 8384   6.111   2.601   5.464 -0.0597  0.2840 -0.1979
  822MOL0     C 8385   6.010   2.494   5.458  0.7711 -0.4619 -0.6018
  822MOL0     C 8386   5.900   2.528   5.358  0.8014 -0.3347  0.8729
  822MOL0     C 8387   5.798   2.414   5.344  1.0229  0.4596  0.5006
  822MOL0     C 8388   5.688   2.458   5.249  0.1115  0.1907  0.6391
  822MOL0     N 8389   5.586   2.357   5.215  0.7523  0.4115  0.4426
  822MOL0     C 8390   5.466   2.355   5.283  1.4695 -0.2395  0.5638
  822MOL0     C 8391   5.400   2.244   5.226 -0.6378  0.4179  0.2155
  822MOL0     C 8392   5.268   2.195   5.270  0.0395 -0.0631  0.9182
  822MOL0     C 8393   5.164   2.245   5.160  0.3243  0.6453  0.0652
  822MOL0     C 8394   5.023   2.175   5.170 -0.0843 -0.5447  0.5455
  822MOL0     C 8395   4.974   2.191   5.314  0.7341 -0.7206 -0.3280
  822MOL0     O 8396   4.824   2.164   5.315  0.2266 -0.7620 -0.3852
  822MOL0     C 8397   4.755   2.192   5.431 -0.2960  0.5221 -0.0993
  822MOL0     C 8398   4.808   2.201   5.562  0.3345  0.0090 -0.3523
  822MOL0     C 8399   4.719   2.226   5.670  0.2796 -0.7378  0.5223
  822MOL0     C 8400   4.573   2.225   5.641 -0.3092 -0.2198 -0.3293
  822MOL0     C 8401   4.476   2.239   5.751 -0.5573  0.7908 -0.6837
  822MOL0     O 8402   4.538   2.252   5.872 -0.1587 -0.4190 -0.2300
  822MOL0     C 8403   4.451   2.275   5.978 -0.4548 -0.7625 -0.7202
  822MOL0     C 8404   4.358   2.179   6.020 -0.1605  0.1545 -1.3377
  822MOL0     C 8405   4.261   2.214   6.115 -0.0646 -0.7968 -0.4444
  822MOL0     C 8406   4.263   2.333   6.194 -0.8685 -0.0943 -0.4172
  822MOL0     O 8407   4.174   2.351   6.295  0.6916 -0.0186  0.0120
  822MOL0     C 8408   4.180   2.479   6.359 -0.4286  0.1556 -0.5791
  822MOL0     C 8409   4.062   2.495   6.450  0.7304 -0.2794 -0.2469
  822MOL0     C 8410   3.959   2.578   6.366  0.3979 -0.1797 -0.4772
  822MOL0     C 8411   3.822   2.574   6.447  0.3046  0.3924 -0.1835
  822MOL0     C 8412   3.705   2.655   6.399  0.8331  1.4109  0.4432
  822MOL0     C 8413   3.728   2.809   6.372  0.7719 -0.2067  0.3267
  822MOL0     C 8414   3.619   2.861   6.287  0.8387  0.1281  0.1360
  822MOL0     C 8415   3.626   3.011   6.272 -0.1426 -0.9330  0.4974
  822MOL0    Cl 8416   3.779   3.065   6.182  0.0448 -0.0453  0.0599
  822MOL0     C 8417   4.365   2.425   6.156  0.2634  0.1464  0.0863
  822MOL0     C 8418   4.448   2.399   6.046 -0.5470  0.2037  0.6974
  822MOL0     O 8419   4.353   2.238   5.728 -0.3043  0.2181  0.4743
  822MOL0     C 8420   4.526   2.205   5.509 -0.0891 -0.1789 -0.9575
  822MOL0     C 8421   4.621   2.181   5.407 -0.3119  0.7614 -0.2355
  822MOL0     N 8422   5.476   2.199   5.122  0.0895 -0.3676 -0.2906
  822MOL0     N 8423   5.585   2.265   5.110 -0.1030 -1.0558 -0.7959
  822MOL0     C 8424   6.276   2.780   6.021 -0.0482  1.2224 -0.3172
  822MOL0     C 8425   6.256   2.895   6.093  1.0384  0.1614  0.0934
  822MOL0     C 8426   6.126   3.311   6.170  0.4968  0.3955  0.0053
  822MOL0     C 8427   5.998   3.356   6.212 -0.4632 -0.3437 -0.4637
  822MOL0     C 8428   5.969   3.481   6.257 -0.6583 -1.0326 -0.6208
  822MOL0     C 8429   6.080   3.569   6.277 -0.7187 -0.5140  0.3732
  822MOL0     O 8430   6.066   3.690   6.339  0.9751 -0.2832  1.1093
  822MOL0     C 8431   6.027   3.783   6.239 -0.7376 -0.3461  0.1696
  822MOL0     C 8432   5.996   3.917   6.299 -0.3659 -0.6924  0.7901
  822MOL0     C 8433   5.869   3.926   6.376 -0.1378 -0.3729 -0.6686
  822MOL0     C 8434   5.849   4.077   6.420 -0.0322  0.0044  0.1304
  822MOL0     C 8435   5.872   4.092   6.564  0.0702 -0.0650 -0.0592
  822MOL0     C 8436   5.893   4.100   6.684  0.4081 -0.2666  0.2034
  822MOL0     C 8437   6.211   3.523   6.240  0.1659  0.2327  0.6251
  822MOL0     C 8438   6.238   3.397   6.178 -0.1620  0.1476  0.3863
  822MOL0     H 8439   6.353   3.120   5.867  1.8117  0.7781  1.3851
  822MOL0     H 8440   6.435   2.918   5.746  2.1598 -0.2983  0.7913
  822MOL0     H 8441   6.463   2.575   5.668 -2.7509  0.0237 -2.0719
  822MOL0     H 8442   6.480   2.746   5.684 -2.3003  1.4574 -0.2641
  822MOL0     H 8443   6.370   2.682   5.491  0.8469  1.0915 -0.0428
  822MOL0     H 8444   6.257   2.776   5.607  1.5635  0.2377  1.7330
  822MOL0     H 8445   6.169   2.551   5.668  0.2558 -2.1216  0.2993
  822MOL0     H 8446   6.276   2.479   5.539 -0.6737 -0.2529  0.5438
  822MOL0     H 8447   6.065   2.699   5.476 -0.0633  0.2755 -0.1378
  822MOL0     H 8448   6.159   2.601   5.366 -1.0271 -1.9708 -0.7380
  822MOL0     H 8449   5.956   2.480   5.553 -0.6082  2.2650 -0.8572
  822MOL0     H 8450   6.064   2.404   5.430  1.0010 -1.0139  1.4419
  822MOL0     H 8451   5.931   2.558   5.257 -1.4823 -0.3904  0.0965
  822MOL0     H 8452   5.854   2.622   5.391  1.5671 -0.1943  1.5518
  822MOL0     H 8453   5.852   2.329   5.301  0.7727  0.3967  0.3034
  822MOL0     H 8454   5.756   2.379   5.439  0.9506  0.0633  0.3285
  822MOL0     H 8455   5.734   2.474   5.150 -0.1027  0.2979  0.5569
  822MOL0     H 8456   5.643   2.553   5.279 -2.3348 -0.6564 -0.0777
  822MOL0     H 8457   5.437   2.416   5.369  0.3999 -4.5894  3.6665
  822MOL0     H 8458   5.240   2.231   5.369  0.3174  0.0426  0.9613
  822MOL0     H 8459   5.271   2.087   5.282 -1.9800 -0.2535  0.0449
  822MOL0     H 8460   5.196   2.238   5.056  1.1911  2.6898  0.1492
  822MOL0     H 8461   5.153   2.353   5.172 -0.4490  0.5272  0.4848
  822MOL0     H 8462   4.959   2.218   5.092  0.3802  1.7616  1.3567
  822MOL0     H 8463   5.014   2.073   5.131 -0.4499  0.1695 -1.3718
  822MOL0     H 8464   4.996   2.293   5.348  0.2555 -0.8676  0.4469
  822MOL0     H 8465   5.015   2.114   5.381 -1.0503 -2.3676 -1.0384
  822MOL0     H 8466   4.912   2.181   5.589  0.1155 -1.3118 -0.4245
  822MOL0     H 8467   4.761   2.238   5.769 -3.3439 -0.7946  2.2297
  822MOL0     H 8468   4.351   2.077   5.983 -0.9266  1.0148 -3.7415
  822MOL0     H 8469   4.184   2.140   6.134 -0.7904 -0.4188 -1.8064
  822MOL0     H 8470   4.187   2.563   6.289  3.6766 -1.6559 -2.6704
  822MOL0     H 8471   4.270   2.498   6.418 -0.4411  1.9999 -1.0805
  822MOL0     H 8472   4.091   2.555   6.537 -1.5827  0.2675  0.2144
  822MOL0     H 8473   4.021   2.399   6.481  0.2375 -0.9769 -2.8684
  822MOL0     H 8474   3.955   2.526   6.270  0.2419 -0.6396 -0.2275
  822MOL0     H 8475   3.987   2.683   6.349 -1.1597  0.5913  1.3613
  822MOL0     H 8476   3.791   2.470   6.438 -2.0665  1.0083  0.2973
  822MOL0     H 8477   3.839   2.609   6.549  0.3302  2.8828 -0.9830
  822MOL0     H 8478   3.623   2.639   6.469  0.4088 -0.4171 -0.3842
  822MOL0     H 8479   3.662   2.608   6.309 -1.6714  0.2759  2.1265
  822MOL0     H 8480   3.816   2.825   6.309 -1.5277  1.5030 -2.6985
  822MOL0     H 8481   3.740   2.867   6.464 -1.0797  0.1235  0.3861
  822MOL0     H 8482   3.628   2.814   6.189 -2.8004 -2.2935  0.7727
  822MOL0     H 8483   3.523   2.833   6.330  0.0271  1.5630 -0.6679
  822MOL0     H 8484   3.612   3.066   6.365  0.3843  2.1027 -1.0808
  822MOL0     H 8485   3.544   3.041   6.207  0.7033  0.8082  0.1826
  822MOL0     H 8486   4.373   2.519   6.209 -0.8497  0.1123  0.3281
  822MOL0     H 8487   4.527   2.458   6.000  2.3491 -2.7661  1.4623
  822MOL0     H 8488   4.422   2.216   5.480  0.0675 -0.6079 -1.7206
  822MOL0     H 8489   4.580   2.153   5.310  0.6485 -1.8359  0.0294
  822MOL0     H 8490   6.245   2.686   6.065  1.6778  1.3291  1.2824
  822MOL0     H 8491   6.195   2.895   6.182 -2.5803  0.1797 -2.1569
  822MOL0     H 8492   5.904   3.300   6.214 -1.1869  0.8176  1.6306
  822MOL0     H 8493   5.865   3.507   6.276 -0.8406 -2.4712  0.5435
  822MOL0     H 8494   5.937   3.753   6.185  0.7786 -1.0453 -2.1095
  822MOL0     H 8495   6.105   3.793   6.163 -0.4573  0.5221  0.5543
  822MOL0     H 8496   6.083   3.948   6.358 -0.3174  1.3075 -0.2393
  822MOL0     H 8497   5.996   3.997   6.225  0.5231 -0.7404  0.7280
  822MOL0     H 8498   5.861   3.851   6.456  1.9161  1.3513  1.3003
  822MOL0     H 8499   5.787   3.908   6.307 -0.4186  0.9156 -0.7001
  822MOL0     H 8500   5.916   4.144   6.365  1.2967 -1.2339  0.1727
  822MOL0     H 8501   5.748   4.099   6.386  1.1977  3.1422 -1.9146
  822MOL0     H 8502   5.918   4.111   6.787  1.2326  0.1964 -0.0390
  822MOL0     H 8503   6.291   3.579   6.288  0.5008 -0.5921  1.0548
  822MOL0     H 8504   6.340   3.372   6.151 -0.1585 -0.5933  1.0688
  823MOL0     O 8505   9.351   2.406   5.627  0.3903 -0.0154 -0.6264
  823MOL0     C 8506   9.429   2.393   5.527  0.1261 -0.4990 -0.4885
  823MOL0     O 8507   9.398   2.431   5.401 -0.6022 -0.2220 -0.1448
  823MOL0     C 8508   9.304   2.524   5.386 -0.4938  0.5995  0.1994
  823MOL0     C 8509   9.202   2.488   5.299 -0.0847 -0.4552 -0.2294
  823MOL0     C 8510   9.108   2.588   5.257  0.0890  0.0810 -0.5678
  823MOL0     C 8511   9.111   2.713   5.316 -0.0387  0.3472 -0.3997
  823MOL0     O 8512   9.026   2.810   5.286 -1.1858 -0.2297  0.0485
  823MOL0     C 8513   8.935   2.790   5.178  0.5121 -0.3486 -0.5600
  823MOL0     C 8514   8.803   2.739   5.237 -0.4444  0.0267  0.5243
  823MOL0     C 8515   8.723   2.833   5.323 -0.2636  0.2831 -0.2047
  823MOL0     C 8516   8.582   2.788   5.335 -0.2663 -0.0155 -0.4221
  823MOL0     C 8517   8.505   2.864   5.440  0.0201 -0.4447  0.3455
  823MOL0     C 8518   8.358   2.814   5.441 -0.5221 -0.4404 -0.0877
  823MOL0     C 8519   8.267   2.908   5.522 -0.3313  0.4562 -0.3022
  823MOL0     C 8520   8.122   2.862   5.508 -0.6717 -0.7702 -0.3424
  823MOL0     N 8521   8.026   2.955   5.569 -1.1013  0.1273  0.5293
  823MOL0     C 8522   7.991   3.073   5.518  0.1391  0.0424  0.0587
  823MOL0     C 8523   7.927   3.135   5.613 -0.3045 -1.1477  0.5740
  823MOL0     C 8524   7.841   3.260   5.599  0.9631  0.0017  0.4318
  823MOL0     C 8525   7.689   3.233   5.606  0.0960  0.0343 -0.3736
  823MOL0     C 8526   7.644   3.147   5.480 -0.3368 -0.4978 -1.5467
  823MOL0     C 8527   7.488   3.156   5.460  1.0852 -0.0964  0.5956
  823MOL0     O 8528   7.443   3.081   5.341 -0.0585 -0.3773  0.1031
  823MOL0     C 8529   7.308   3.064   5.328  0.5958 -0.5304  0.8088
  823MOL0     C 8530   7.209   3.111   5.413  0.5210  0.5220 -1.3628
  823MOL0     C 8531   7.069   3.081   5.401 -0.5480 -0.1919  0.2445
  823MOL0     C 8532   7.032   3.009   5.291 -0.5192 -0.1870 -0.3261
  823MOL0     C 8533   6.891   2.991   5.262 -0.0410 -0.0071 -0.4042
  823MOL0     O 8534   6.793   3.044   5.343  0.1781 -0.8790  0.1930
  823MOL0     C 8535   6.660   3.026   5.318 -0.1970  0.5870  0.2943
  823MOL0     C 8536   6.596   3.002   5.192 -0.8465  0.8484  0.1381
  823MOL0     C 8537   6.467   2.955   5.170 -0.3056 -0.4173 -0.1890
  823MOL0     C 8538   6.386   2.933   5.280  0.9449 -0.2597  0.1597
  823MOL0     O 8539   6.255   2.894   5.260  0.0235 -0.1684  0.1959
  823MOL0     C 8540   6.181   2.931   5.142  0.3421 -0.0227  0.2549
  823MOL0     C 8541   6.067   2.837   5.126  0.0429 -0.2221 -0.9916
  823MOL0     C 8542   5.991   2.868   4.996  0.2042  0.5969 -0.0468
  823MOL0     C 8543   5.853   2.784   4.988 -0.1467  0.1225  0.3260
  823MOL0     C 8544   5.761   2.811   4.863  1.6577 -0.2411 -0.7288
  823MOL0     C 8545   5.632   2.725   4.871  0.6382  0.3194 -0.8244
  823MOL0     C 8546   5.638   2.577   4.844  0.1828 -0.3406  0.4919
  823MOL0     C 8547   5.507   2.504   4.854 -0.4999  0.5831 -0.8108
  823MOL0    Cl 8548   5.383   2.560   4.731  0.1257  0.2308  0.4600
  823MOL0     C 8549   6.442   2.956   5.414 -0.1449 -0.6513  0.6234
  823MOL0     C 8550   6.575   2.999   5.428 -0.6005 -0.1854  0.3220
  823MOL0     O 8551   6.874   2.906   5.174  0.1887  0.4054  0.2934
  823MOL0     C 8552   7.132   2.975   5.195  0.1044 -0.0322  0.9788
  823MOL0     C 8553   7.266   2.996   5.224 -0.5379  0.5017 -0.1444
  823MOL0     N 8554   7.943   3.064   5.728  0.0215 -0.6217  0.6487
  823MOL0     N 8555   8.019   2.964   5.702 -0.6694 -0.3707 -0.1030
  823MOL0     C 8556   9.215   2.738   5.403  0.5933 -0.8573  1.2671
  823MOL0     C 8557   9.316   2.654   5.430 -0.3619  0.0203  0.4798
  823MOL0     C 8558   9.576   2.367   5.558  0.9940 -0.2571 -0.0683
  823MOL0     C 8559   9.623   2.357   5.685 -0.3285  0.3095 -0.3987
  823MOL0     C 8560   9.768   2.332   5.707  0.2460 -0.4671 -0.2598
  823MOL0     C 8561   9.862   2.338   5.594  0.5848 -0.2263  0.1756
  823MOL0     O 8562   9.997   2.344   5.625 -1.1853  0.3993 -0.4430
  823MOL0     C 8563  10.083   2.251   5.563  0.0217 -0.1228  0.2264
  823MOL0     C 8564  10.163   2.176   5.672  0.3007 -0.3552 -0.5560
  823MOL0     C 8565  10.254   2.058   5.637 -0.2510 -0.1160 -0.0450
  823MOL0     C 8566  10.190   1.922   5.658 -0.6442  0.0268 -0.1585
  823MOL0     C 8567  10.282   1.818   5.610 -0.2514 -0.6705  0.2206
  823MOL0     C 8568  10.365   1.727   5.585  0.5690 -0.1291 -0.5218
  823MOL0     C 8569   9.809   2.347   5.462  0.5875  0.2455 -0.2361
  823MOL0     C 8570   9.669   2.363   5.446  0.6560 -0.1413 -0.5509
  823MOL0     H 8571   9.203   2.387   5.260 -1.6120 -0.9133  0.8187
  823MOL0     H 8572   9.029   2.556   5.190 -0.3772  0.3088 -0.1333
  823MOL0     H 8573   8.965   2.723   5.097 -0.5417  1.9279 -2.9390
  823MOL0     H 8574   8.921   2.890   5.136  1.8649  0.4240  0.6911
  823MOL0     H 8575   8.826   2.647   5.293 -0.6169  1.2654  2.7321
  823MOL0     H 8576   8.750   2.707   5.147  2.1660 -0.7202 -0.8391
  823MOL0     H 8577   8.717   2.934   5.281 -3.2645  0.7101  0.9615
  823MOL0     H 8578   8.761   2.830   5.426 -0.3393 -0.4590 -0.1903
  823MOL0     H 8579   8.538   2.793   5.234 -0.4612 -0.8687 -0.3887
  823MOL0     H 8580   8.588   2.684   5.366 -2.5418  0.6453  2.6150
  823MOL0     H 8581   8.507   2.972   5.421  5.3696 -0.1557  0.8776
  823MOL0     H 8582   8.558   2.850   5.535 -2.0546 -0.3527  1.5657
  823MOL0     H 8583   8.348   2.710   5.473 -0.8797  0.2911  2.4759
  823MOL0     H 8584   8.317   2.808   5.340 -0.5957  0.1649 -0.0971
  823MOL0     H 8585   8.303   2.904   5.625  0.0435 -2.7910 -0.4433
  823MOL0     H 8586   8.273   3.012   5.488 -2.9885  0.4989 -0.8448
  823MOL0     H 8587   8.103   2.759   5.541 -1.1494 -0.7687 -0.6103
  823MOL0     H 8588   8.094   2.850   5.403  3.7385 -1.8418 -1.6140
  823MOL0     H 8589   7.996   3.114   5.418  0.6755  0.6540  0.3321
  823MOL0     H 8590   7.855   3.319   5.508 -7.8627  0.0643 -1.8103
  823MOL0     H 8591   7.851   3.324   5.687 -1.9258 -1.4669  1.9889
  823MOL0     H 8592   7.634   3.327   5.604  1.9282  1.1511 -0.9591
  823MOL0     H 8593   7.667   3.180   5.699 -0.6540  0.1884 -0.4594
  823MOL0     H 8594   7.710   3.185   5.402  0.9208 -0.2809 -0.4133
  823MOL0     H 8595   7.668   3.043   5.501 -0.7349 -0.2114  0.5485
  823MOL0     H 8596   7.452   3.259   5.450 -0.3693 -0.6982 -0.9245
  823MOL0     H 8597   7.433   3.117   5.547 -2.7581  2.6382 -0.3477
  823MOL0     H 8598   7.241   3.168   5.500 -0.2308 -1.1376  0.0812
  823MOL0     H 8599   6.992   3.101   5.475 -0.1047  0.5996  0.5077
  823MOL0     H 8600   6.653   3.009   5.100 -2.7960 -1.8078 -1.4434
  823MOL0     H 8601   6.442   2.935   5.066  1.2875 -0.5919 -0.5705
  823MOL0     H 8602   6.242   2.926   5.051  2.5273 -1.3719  1.7137
  823MOL0     H 8603   6.152   3.034   5.163  1.4833  0.2690  0.4834
  823MOL0     H 8604   5.998   2.858   5.208 -2.1531  3.6161 -3.4685
  823MOL0     H 8605   6.094   2.732   5.127 -2.0557 -0.8141 -1.2755
  823MOL0     H 8606   6.051   2.848   4.907 -0.4806  0.0311 -0.3882
  823MOL0     H 8607   5.962   2.974   5.001  1.1737  0.9036 -0.7297
  823MOL0     H 8608   5.885   2.679   4.984  1.2559  0.5307 -3.0337
  823MOL0     H 8609   5.794   2.791   5.080  0.4953 -2.0004  0.9569
  823MOL0     H 8610   5.819   2.782   4.775  0.6776 -1.7685 -0.8968
  823MOL0     H 8611   5.737   2.917   4.854  0.9148 -0.4771 -1.5890
  823MOL0     H 8612   5.569   2.773   4.796  0.7105 -0.2632 -1.2614
  823MOL0     H 8613   5.581   2.744   4.966  0.1960  1.0587 -1.2014
  823MOL0     H 8614   5.676   2.556   4.744 -0.4975  0.8281 -0.0243
  823MOL0     H 8615   5.709   2.542   4.920 -0.6917 -1.0597  0.9988
  823MOL0     H 8616   5.464   2.512   4.954 -0.3727 -2.3552 -0.4377
  823MOL0     H 8617   5.528   2.399   4.835 -1.8057  0.3360 -0.9431
  823MOL0     H 8618   6.383   2.936   5.502  1.9901 -0.1198  2.2582
  823MOL0     H 8619   6.612   3.008   5.530  1.6976 -0.0125 -0.4643
  823MOL0     H 8620   7.093   2.927   5.106  0.0954 -2.5815  2.2713
  823MOL0     H 8621   7.341   2.953   5.158  0.3139  0.5561  0.7777
  823MOL0     H 8622   9.216   2.843   5.432  0.2572 -0.9091  1.4809
  823MOL0     H 8623   9.400   2.690   5.489  1.2227  0.1599 -1.7480
  823MOL0     H 8624   9.562   2.375   5.773 -0.6741 -1.1565 -0.3127
  823MOL0     H 8625   9.811   2.328   5.807  3.2915 -2.5375 -1.5141
  823MOL0     H 8626  10.156   2.305   5.503  1.7790 -0.6300  1.8132
  823MOL0     H 8627  10.029   2.179   5.500  0.5688  1.2892 -1.9451
  823MOL0     H 8628  10.221   2.255   5.720 -0.4653 -0.6089  0.8363
  823MOL0     H 8629  10.092   2.135   5.744  2.1511 -2.1750  0.3405
  823MOL0     H 8630  10.340   2.062   5.705  0.3876  0.3918 -0.8542
  823MOL0     H 8631  10.285   2.074   5.533  2.7286  0.0135  0.7716
  823MOL0     H 8632  10.161   1.907   5.762  2.6667 -0.2573  0.8351
  823MOL0     H 8633  10.095   1.919   5.604 -1.3661  0.0960  1.0718
  823MOL0     H 8634  10.433   1.648   5.561 -0.2979 -1.0589 -0.0107
  823MOL0     H 8635   9.873   2.354   5.375  1.0883 -0.0268  0.0999
  823MOL0     H 8636   9.636   2.376   5.343  0.1247 -0.2425 -0.3969
  824MOL0     O 8637   7.093   3.409   7.533 -0.7215  0.2876 -0.5174
  824MOL0     C 8638   7.124   3.523   7.523 -0.1826  0.5022  0.3226
  824MOL0     O 8639   7.043   3.630   7.525  0.3801  0.4882  0.1852
  824MOL0     C 8640   6.914   3.590   7.548  0.5977  0.1071 -0.5295
  824MOL0     C 8641   6.858   3.578   7.678 -0.3656 -0.9541  0.0461
  824MOL0     C 8642   6.722   3.550   7.703 -0.0334  0.5518 -0.2702
  824MOL0     C 8643   6.631   3.538   7.594  0.3623 -0.0623  1.0473
  824MOL0     O 8644   6.490   3.517   7.591 -0.1834 -0.3347 -0.1447
  824MOL0     C 8645   6.424   3.542   7.712  0.0865 -0.0048  0.3285
  824MOL0     C 8646   6.281   3.486   7.686  0.6306 -0.0076  0.1472
  824MOL0     C 8647   6.213   3.562   7.576 -0.2240  0.0247  1.0136
  824MOL0     C 8648   6.089   3.491   7.532 -0.1566 -0.2134  0.1491
  824MOL0     C 8649   6.000   3.455   7.652  0.3042 -0.7428 -0.3849
  824MOL0     C 8650   5.947   3.571   7.735  0.0620 -0.1756  0.3611
  824MOL0     C 8651   5.845   3.521   7.825 -0.8631  0.1486 -0.3475
  824MOL0     C 8652   5.792   3.630   7.912 -1.0953  0.6333  0.9312
  824MOL0     N 8653   5.672   3.690   7.861  0.3514  0.1183 -0.1615
  824MOL0     C 8654   5.543   3.646   7.884 -0.6335 -1.3020 -0.1946
  824MOL0     C 8655   5.467   3.715   7.795  0.1945 -0.1590  0.0645
  824MOL0     C 8656   5.317   3.708   7.805 -0.4782  0.6813  0.5054
  824MOL0     C 8657   5.256   3.631   7.688  0.3277  0.5317 -0.0952
  824MOL0     C 8658   5.106   3.610   7.712 -0.5284 -0.1544 -0.7187
  824MOL0     C 8659   5.042   3.586   7.848  0.1721 -0.7061  0.1425
  824MOL0     O 8660   5.102   3.479   7.915  0.6354  0.1293  0.8427
  824MOL0     C 8661   5.081   3.468   8.048  0.6483  0.6292  0.3568
  824MOL0     C 8662   4.970   3.514   8.118 -0.4990  0.4134  0.0232
  824MOL0     C 8663   4.956   3.491   8.252  0.6459  0.0273 -1.3453
  824MOL0     C 8664   5.054   3.423   8.325 -0.6105 -0.0931  0.6036
  824MOL0     C 8665   5.044   3.387   8.461  0.7697  0.0212 -0.4074
  824MOL0     O 8666   5.160   3.350   8.522 -0.6950  0.5783  0.3247
  824MOL0     C 8667   5.168   3.306   8.646 -0.5954  0.3555  0.0954
  824MOL0     C 8668   5.250   3.192   8.671  0.6543  0.4234  0.1666
  824MOL0     C 8669   5.244   3.131   8.794  0.2217  0.0804 -0.2574
  824MOL0     C 8670   5.175   3.193   8.897  0.2323  0.6153 -1.3691
  824MOL0     O 8671   5.158   3.117   9.022 -0.3896 -0.1179  0.1198
  824MOL0     C 8672   5.079   3.169   9.130 -0.9440  1.4420 -0.6895
  824MOL0     C 8673   5.066   3.084   9.263  0.1384  0.5099 -0.4914
  824MOL0     C 8674   5.192   3.011   9.300 -0.5035  0.2268  0.0352
  824MOL0     C 8675   5.160   2.937   9.428  0.3938  0.3908 -0.5231
  824MOL0     C 8676   5.257   2.832   9.459 -1.0379 -0.8625 -0.1796
  824MOL0     C 8677   5.401   2.885   9.458  0.1660  0.5113 -0.2764
  824MOL0     C 8678   5.439   3.002   9.548 -0.8450  0.0406 -0.1148
  824MOL0     C 8679   5.574   3.054   9.502  0.0509 -0.5859 -1.3283
  824MOL0    Cl 8680   5.710   2.944   9.566  0.4444 -0.0234  0.0734
  824MOL0     C 8681   5.112   3.313   8.881 -0.8073  0.2348  0.1016
  824MOL0     C 8682   5.105   3.374   8.755  0.4293 -0.4796  0.8638
  824MOL0     O 8683   4.930   3.381   8.513 -0.0001  0.5201 -0.3462
  824MOL0     C 8684   5.164   3.368   8.254 -0.2901 -0.2373  0.4787
  824MOL0     C 8685   5.168   3.381   8.116 -0.3025  0.3616  0.7569
  824MOL0     N 8686   5.549   3.799   7.723  0.5514 -0.5536  0.1418
  824MOL0     N 8687   5.667   3.785   7.762 -0.1853 -0.0765  0.1448
  824MOL0     C 8688   6.690   3.550   7.460 -1.0022 -0.2387 -0.8542
  824MOL0     C 8689   6.831   3.568   7.439  1.1809  0.1396 -0.2409
  824MOL0     C 8690   7.279   3.538   7.527 -0.0947  0.0005  0.6242
  824MOL0     C 8691   7.322   3.666   7.486  0.1709  0.6260 -0.3648
  824MOL0     C 8692   7.456   3.706   7.495  0.3914  1.0796 -0.2748
  824MOL0     C 8693   7.556   3.610   7.519 -0.3957  0.1735  0.5011
  824MOL0     O 8694   7.686   3.663   7.528 -0.8319  0.4562 -0.2613
  824MOL0     C 8695   7.783   3.580   7.594 -0.5436  0.4834 -0.3057
  824MOL0     C 8696   7.920   3.651   7.584  0.0871 -0.1356 -0.2156
  824MOL0     C 8697   7.962   3.665   7.440  0.3746  0.1520 -1.0371
  824MOL0     C 8698   8.112   3.711   7.423 -0.0142 -0.6034 -0.7581
  824MOL0     C 8699   8.203   3.599   7.433 -1.0965  0.2799  0.6809
  824MOL0     C 8700   8.285   3.515   7.438  0.1329  1.0525 -0.0226
  824MOL0     C 8701   7.514   3.479   7.546 -0.9957 -0.5418  0.2349
  824MOL0     C 8702   7.378   3.438   7.548 -0.1219  0.3437  0.2896
  824MOL0     H 8703   6.923   3.593   7.763 -0.5950  1.3605 -0.1350
  824MOL0     H 8704   6.691   3.555   7.807  2.0563  0.8104  0.3969
  824MOL0     H 8705   6.432   3.651   7.719  1.1797  0.2906 -3.5096
  824MOL0     H 8706   6.460   3.491   7.802  2.8968 -0.3981 -0.9219
  824MOL0     H 8707   6.222   3.500   7.776  1.0349  2.9247  0.0599
  824MOL0     H 8708   6.286   3.380   7.659 -1.3971 -0.0674 -0.0935
  824MOL0     H 8709   6.267   3.586   7.483 -0.1753 -0.6257  0.8670
  824MOL0     H 8710   6.194   3.660   7.621 -1.8120  1.1752 -1.8860
  824MOL0     H 8711   6.027   3.541   7.457  0.0187  0.7040  0.5995
  824MOL0     H 8712   6.121   3.402   7.478 -0.7158  0.0082 -0.5601
  824MOL0     H 8713   6.033   3.371   7.714  0.7764 -0.8897 -0.8266
  824MOL0     H 8714   5.906   3.417   7.611 -1.7148  1.4621  1.9036
  824MOL0     H 8715   5.896   3.640   7.668  1.7978  0.5645 -0.2677
  824MOL0     H 8716   6.032   3.605   7.795  0.1617 -0.9948  0.6947
  824MOL0     H 8717   5.764   3.468   7.773 -0.2150 -0.3544 -0.8674
  824MOL0     H 8718   5.891   3.440   7.883  0.2529 -0.3644 -1.8967
  824MOL0     H 8719   5.874   3.703   7.918 -1.1127  0.8601 -1.0227
  824MOL0     H 8720   5.777   3.599   8.016 -0.7805  1.8472  1.3538
  824MOL0     H 8721   5.507   3.572   7.954  0.5130 -1.1841  0.5469
  824MOL0     H 8722   5.283   3.811   7.794  0.7289  0.9354 -1.1197
  824MOL0     H 8723   5.290   3.666   7.902 -0.5754 -0.2091  0.1038
  824MOL0     H 8724   5.304   3.533   7.675  0.1979  0.3848  0.4798
  824MOL0     H 8725   5.278   3.673   7.590  2.1698 -0.1611 -0.0145
  824MOL0     H 8726   5.060   3.701   7.672 -2.1029  0.2445  1.7931
  824MOL0     H 8727   5.074   3.518   7.662  1.4603 -1.8849  1.0123
  824MOL0     H 8728   4.933   3.580   7.846 -0.0158  1.6447  0.2450
  824MOL0     H 8729   5.063   3.680   7.900 -0.3279 -0.4122 -0.1751
  824MOL0     H 8730   4.896   3.577   8.070  1.1141  1.2421 -1.5136
  824MOL0     H 8731   4.858   3.517   8.291  1.4082  0.2452  0.4794
  824MOL0     H 8732   5.302   3.150   8.586  0.3447 -1.9689  1.0793
  824MOL0     H 8733   5.280   3.028   8.802  0.9132  0.3392  0.0125
  824MOL0     H 8734   4.975   3.185   9.099 -0.9237  1.7947 -0.5772
  824MOL0     H 8735   5.109   3.266   9.171 -1.9044  0.8334  1.6469
  824MOL0     H 8736   4.980   3.017   9.253 -0.6806  1.5201 -0.4055
  824MOL0     H 8737   5.040   3.158   9.339  3.0589  1.8806 -0.6942
  824MOL0     H 8738   5.269   3.084   9.329 -2.1555  1.6594  1.0167
  824MOL0     H 8739   5.219   2.945   9.217  1.6876  0.8634  0.1806
  824MOL0     H 8740   5.156   3.007   9.512  3.5882  0.2622 -0.1193
  824MOL0     H 8741   5.062   2.890   9.425  1.4016 -2.0908  1.5943
  824MOL0     H 8742   5.247   2.742   9.398  0.3898 -0.5225 -0.9630
  824MOL0     H 8743   5.233   2.794   9.559  0.0311  1.2523  0.9477
  824MOL0     H 8744   5.437   2.910   9.358  2.4395  0.6991  0.5431
  824MOL0     H 8745   5.454   2.790   9.474 -2.1219 -1.4597 -3.1839
  824MOL0     H 8746   5.361   3.079   9.552 -1.5069 -0.6012 -0.4543
  824MOL0     H 8747   5.452   2.970   9.652 -1.2083 -1.0673 -0.4051
  824MOL0     H 8748   5.593   3.157   9.535 -1.6127 -0.7722  0.3907
  824MOL0     H 8749   5.591   3.063   9.394  2.2905 -1.7065 -1.1252
  824MOL0     H 8750   5.064   3.361   8.965 -0.0460  0.4164  0.4410
  824MOL0     H 8751   5.033   3.452   8.731  1.3875  0.3725  0.7112
  824MOL0     H 8752   5.227   3.289   8.292 -1.3689 -1.8039 -0.8566
  824MOL0     H 8753   5.242   3.327   8.059  1.6962  1.4870  2.1735
  824MOL0     H 8754   6.624   3.545   7.374 -2.0743 -0.2951 -0.0592
  824MOL0     H 8755   6.867   3.584   7.338 -2.2091  0.0580 -1.6052
  824MOL0     H 8756   7.246   3.735   7.452 -0.7921  1.3301  2.8814
  824MOL0     H 8757   7.494   3.803   7.465  0.8722  0.5305 -1.5094
  824MOL0     H 8758   7.788   3.495   7.526 -1.3516  2.1643 -2.6083
  824MOL0     H 8759   7.762   3.545   7.695  1.5536 -1.3522 -0.4239
  824MOL0     H 8760   7.928   3.743   7.642  2.8148 -1.1572  1.2149
  824MOL0     H 8761   7.992   3.581   7.627  0.0669  1.1597  2.1005
  824MOL0     H 8762   7.902   3.746   7.397 -1.4642  1.2321  3.0454
  824MOL0     H 8763   7.938   3.581   7.375 -4.7027  0.1922  0.3517
  824MOL0     H 8764   8.133   3.750   7.323 -0.1513 -0.2714 -0.6601
  824MOL0     H 8765   8.136   3.778   7.506 -0.7831 -4.2397  2.7198
  824MOL0     H 8766   8.358   3.437   7.445 -0.9791 -0.1276 -1.1614
  824MOL0     H 8767   7.593   3.405   7.543 -0.2245  0.2742 -1.5617
  824MOL0     H 8768   7.349   3.334   7.557  1.6711 -0.3486 -1.2853
  825MOL0     O 8769   9.873   2.335   3.213  0.3751 -0.1855 -0.0884
  825MOL0     C 8770   9.847   2.216   3.219  1.3310 -0.1609 -1.0219
  825MOL0     O 8771   9.892   2.121   3.132  0.6257  0.0880  0.0573
  825MOL0     C 8772   9.955   2.157   3.012  1.0626 -0.3660 -0.7615
  825MOL0     C 8773  10.021   2.281   2.981  1.2366  0.5889 -0.4584
  825MOL0     C 8774  10.066   2.293   2.850 -0.5181 -0.5242 -0.4954
  825MOL0     C 8775  10.055   2.194   2.752  0.6468 -0.0647 -0.5851
  825MOL0     O 8776  10.104   2.214   2.627  0.4805 -0.1939  0.2956
  825MOL0     C 8777  10.085   2.110   2.523 -0.2265 -0.2777  0.8488
  825MOL0     C 8778  10.184   1.989   2.533 -0.5225  0.1782 -0.5611
  825MOL0     C 8779  10.319   2.037   2.560  0.6375 -0.5155 -0.3816
  825MOL0     C 8780  10.367   2.147   2.469  0.8770 -0.1548 -0.4070
  825MOL0     C 8781  10.511   2.188   2.484 -0.9144  0.3938 -0.1515
  825MOL0     C 8782  10.560   2.253   2.355 -0.9039 -0.4986  0.0123
  825MOL0     C 8783  10.708   2.292   2.366 -0.1166 -0.4039  0.1740
  825MOL0     C 8784  10.767   2.331   2.224  0.8689 -1.0381  0.4982
  825MOL0     N 8785  10.740   2.473   2.195  0.1009  0.4418 -0.0559
  825MOL0     C 8786  10.617   2.515   2.144 -0.5034 -0.2126  0.3620
  825MOL0     C 8787  10.631   2.645   2.110 -0.3396  0.0685  0.8132
  825MOL0     C 8788  10.536   2.731   2.026 -0.4155  0.0688  0.5805
  825MOL0     C 8789  10.543   2.872   2.077 -1.4095  0.4310 -0.2719
  825MOL0     C 8790  10.469   2.967   1.988 -0.6258 -0.6853  1.1125
  825MOL0     C 8791  10.322   2.990   2.042 -0.6719  0.3226 -0.1503
  825MOL0     O 8792  10.338   3.049   2.172  0.3948  0.5116 -0.0733
  825MOL0     C 8793  10.225   3.071   2.241 -0.0075  0.0118 -0.7217
  825MOL0     C 8794  10.238   3.121   2.374  0.0672  1.1977 -0.5850
  825MOL0     C 8795  10.126   3.122   2.463 -0.6569 -1.1707  0.0947
  825MOL0     C 8796   9.995   3.104   2.405  0.3905  0.1574  0.4416
  825MOL0     C 8797   9.877   3.117   2.493  0.0080 -1.1757 -0.2027
  825MOL0     O 8798   9.759   3.168   2.433 -0.1992  0.0381  0.0156
  825MOL0     C 8799   9.651   3.214   2.508  0.2720 -0.6362 -0.9762
  825MOL0     C 8800   9.525   3.228   2.436 -0.2974 -0.6196  0.4694
  825MOL0     C 8801   9.413   3.289   2.499 -0.1456 -1.0381  0.2889
  825MOL0     C 8802   9.428   3.339   2.633  0.1403 -0.4546 -0.1089
  825MOL0     O 8803   9.333   3.404   2.702  0.1081 -0.9005  0.2790
  825MOL0     C 8804   9.199   3.425   2.653 -0.1211  0.2944 -0.5230
  825MOL0     C 8805   9.114   3.476   2.770  0.0243 -0.4001 -0.6996
  825MOL0     C 8806   9.123   3.374   2.892 -0.3534 -0.0986  0.6647
  825MOL0     C 8807   9.047   3.434   3.011  0.4475  0.9411 -1.5624
  825MOL0     C 8808   9.030   3.322   3.120  0.0818  0.3731 -0.9556
  825MOL0     C 8809   8.959   3.375   3.248 -0.6380 -0.5500  0.0189
  825MOL0     C 8810   8.933   3.261   3.351 -0.1747 -0.1863  1.1487
  825MOL0     C 8811   8.882   3.304   3.487  0.2100 -0.0950  0.7081
  825MOL0    Cl 8812   9.005   3.407   3.571 -0.2869  0.0333 -0.6179
  825MOL0     C 8813   9.551   3.334   2.700 -0.4315  0.3949  0.3298
  825MOL0     C 8814   9.664   3.266   2.637 -0.3077 -0.7131 -0.6754
  825MOL0     O 8815   9.904   3.115   2.615  0.4157  0.4735  0.7063
  825MOL0     C 8816   9.981   3.069   2.268 -0.0698 -0.7280  0.0221
  825MOL0     C 8817  10.095   3.047   2.193  0.7287 -1.3200  0.3014
  825MOL0     N 8818  10.759   2.678   2.147 -0.6301 -0.1065 -0.1007
  825MOL0     N 8819  10.819   2.578   2.192  0.0199  1.0058 -0.0368
  825MOL0     C 8820  10.000   2.067   2.790 -0.1139  0.1476  0.4889
  825MOL0     C 8821   9.946   2.052   2.921 -0.4437 -0.1884 -0.2332
  825MOL0     C 8822   9.757   2.171   3.326  0.1986  0.9371  0.6134
  825MOL0     C 8823   9.717   2.254   3.431 -0.1671  0.0042 -0.8905
  825MOL0     C 8824   9.639   2.205   3.535 -0.0221 -0.8900 -0.7083
  825MOL0     C 8825   9.598   2.066   3.540 -0.7018 -0.7856  0.2921
  825MOL0     O 8826   9.531   2.018   3.645  0.6695 -0.1581  0.5757
  825MOL0     C 8827   9.533   2.094   3.767 -0.3308 -0.2860 -0.9065
  825MOL0     C 8828   9.488   2.013   3.882  0.0644  0.7229 -1.0001
  825MOL0     C 8829   9.350   1.945   3.849 -0.0314  0.8606  0.0686
  825MOL0     C 8830   9.363   1.810   3.799 -0.0367 -0.0646  0.7000
  825MOL0     C 8831   9.227   1.748   3.769 -0.5364  0.7218  0.1466
  825MOL0     C 8832   9.123   1.708   3.732  0.2855 -0.0620 -0.3156
  825MOL0     C 8833   9.629   1.985   3.427  0.1417  0.7346  0.2928
  825MOL0     C 8834   9.707   2.034   3.325 -0.8526 -0.1874  0.3152
  825MOL0     H 8835  10.042   2.361   3.050 -0.0071  0.8546 -0.3631
  825MOL0     H 8836  10.110   2.383   2.807  1.7166 -2.4352 -2.5566
  825MOL0     H 8837  10.113   2.161   2.430  1.0455  1.3454  2.0622
  825MOL0     H 8838   9.980   2.079   2.517 -1.5287  3.7047 -0.1476
  825MOL0     H 8839  10.188   1.930   2.441  0.4430 -0.5627 -0.0522
  825MOL0     H 8840  10.148   1.924   2.613 -1.5889  2.3531  0.8414
  825MOL0     H 8841  10.391   1.955   2.572 -0.7542 -1.3626  3.9099
  825MOL0     H 8842  10.324   2.077   2.662  0.5400 -0.8557 -0.2416
  825MOL0     H 8843  10.345   2.114   2.366  0.9442 -0.1374 -0.4268
  825MOL0     H 8844  10.310   2.240   2.477  1.1788 -0.1074  1.6352
  825MOL0     H 8845  10.570   2.099   2.509 -0.0039  0.6559 -1.2811
  825MOL0     H 8846  10.523   2.264   2.562 -0.4707  0.1210  0.0521
  825MOL0     H 8847  10.490   2.333   2.329  0.9766  0.2033 -3.5998
  825MOL0     H 8848  10.547   2.175   2.280 -1.0631 -2.5374  2.0486
  825MOL0     H 8849  10.723   2.372   2.440  1.2653 -0.7441  0.2956
  825MOL0     H 8850  10.767   2.208   2.404 -1.4232 -1.0074  0.9181
  825MOL0     H 8851  10.724   2.264   2.149  1.7776 -0.3889 -0.6378
  825MOL0     H 8852  10.874   2.313   2.234  0.9829 -0.9222 -0.3837
  825MOL0     H 8853  10.533   2.451   2.118 -0.4333  0.1461 -0.8043
  825MOL0     H 8854  10.440   2.683   2.048 -0.0006  0.1280  2.7267
  825MOL0     H 8855  10.563   2.717   1.921 -4.1951 -2.4129 -0.2291
  825MOL0     H 8856  10.648   2.902   2.074 -1.4167  0.7525  1.4787
  825MOL0     H 8857  10.501   2.875   2.178 -0.1605 -2.3195  0.4213
  825MOL0     H 8858  10.513   3.066   1.997  0.3006 -0.7985 -1.3240
  825MOL0     H 8859  10.463   2.949   1.880 -0.3965 -0.1267  1.0038
  825MOL0     H 8860  10.276   2.891   2.032  1.2465 -0.4789 -1.6490
  825MOL0     H 8861  10.264   3.065   1.988 -2.4115 -0.3590  0.6921
  825MOL0     H 8862  10.330   3.151   2.424 -0.1765  0.4559  0.3311
  825MOL0     H 8863  10.138   3.143   2.569 -2.2386 -2.4765  0.5887
  825MOL0     H 8864   9.522   3.196   2.332  0.5724 -1.7830  0.7832
  825MOL0     H 8865   9.322   3.304   2.442 -0.6496  0.6224  1.4427
  825MOL0     H 8866   9.174   3.324   2.620  0.6616 -0.3487  0.7864
  825MOL0     H 8867   9.187   3.505   2.579 -1.9709  1.5924  1.0864
  825MOL0     H 8868   9.010   3.503   2.746  0.3481  1.9837  0.2611
  825MOL0     H 8869   9.157   3.565   2.816 -1.9094 -0.1785  0.7962
  825MOL0     H 8870   9.227   3.358   2.924 -0.7240 -0.4597  1.7173
  825MOL0     H 8871   9.083   3.281   2.852  3.3017 -1.3868 -0.4048
  825MOL0     H 8872   9.108   3.516   3.051  0.2482  1.2244 -1.8377
  825MOL0     H 8873   8.951   3.479   2.986  0.2386  0.7683 -1.0777
  825MOL0     H 8874   9.131   3.285   3.141 -0.0233 -0.9656 -2.5840
  825MOL0     H 8875   8.975   3.237   3.077 -0.0877  0.8310 -1.6671
  825MOL0     H 8876   8.865   3.425   3.223  0.7346  1.9082 -0.5878
  825MOL0     H 8877   9.021   3.455   3.292  0.3602  0.6354 -3.2530
  825MOL0     H 8878   8.859   3.199   3.300  2.7802 -1.4360 -1.9539
  825MOL0     H 8879   9.023   3.201   3.365  0.3520  1.0855  3.8639
  825MOL0     H 8880   8.855   3.217   3.549 -0.9983 -2.0177 -2.2926
  825MOL0     H 8881   8.796   3.370   3.472  1.6649  1.8397  0.4656
  825MOL0     H 8882   9.563   3.386   2.794 -0.2111 -1.0963  1.1627
  825MOL0     H 8883   9.761   3.274   2.686 -0.7410 -2.4287  0.5324
  825MOL0     H 8884   9.881   3.049   2.231  0.2175 -3.7983  0.6535
  825MOL0     H 8885  10.056   3.020   2.095 -2.0609  2.0267  0.2808
  825MOL0     H 8886  10.024   1.975   2.737  4.8594  0.9378  0.8407
  825MOL0     H 8887   9.892   1.961   2.947 -3.0486  1.5933  1.0008
  825MOL0     H 8888   9.734   2.361   3.431  0.2065  0.0490  2.5209
  825MOL0     H 8889   9.612   2.270   3.618 -1.1338 -0.9121 -1.0376
  825MOL0     H 8890   9.470   2.182   3.750  0.5067  0.3322 -0.8515
  825MOL0     H 8891   9.634   2.129   3.790 -1.5389  2.1463  1.2413
  825MOL0     H 8892   9.563   1.941   3.914 -1.4844 -0.3702  0.3401
  825MOL0     H 8893   9.460   2.080   3.963 -2.3273  0.1517 -1.2701
  825MOL0     H 8894   9.296   2.009   3.778 -1.4810 -0.5168 -0.1139
  825MOL0     H 8895   9.299   1.947   3.946  0.6482 -0.7882  0.4900
  825MOL0     H 8896   9.429   1.799   3.712 -0.1462 -1.4028  0.7608
  825MOL0     H 8897   9.396   1.746   3.881  0.1556  0.3936  0.9848
  825MOL0     H 8898   9.035   1.667   3.686 -0.4157  3.1585 -2.1783
  825MOL0     H 8899   9.612   1.878   3.437 -1.6335  1.0593  1.2470
  825MOL0     H 8900   9.758   1.979   3.247  1.7404  0.5248  1.4068
  826MOL0     O 8901   6.405   9.982   9.502 -0.3835  0.1151 -0.5665
  826MOL0     C 8902   6.443   9.866   9.509 -0.5079 -0.4455  0.3488
  826MOL0     O 8903   6.359   9.751   9.519 -0.0171  0.7462 -0.2438
  826MOL0     C 8904   6.219   9.757   9.512  0.0891  0.6388 -0.6272
  826MOL0     C 8905   6.153   9.646   9.457  0.8552  0.0539 -0.0185
  826MOL0     C 8906   6.012   9.641   9.445  0.0541  0.2677  0.3391
  826MOL0     C 8907   5.928   9.745   9.492 -0.1138  0.3573 -0.4035
  826MOL0     O 8908   5.787   9.739   9.495  0.0497 -0.6276 -0.2672
  826MOL0     C 8909   5.740   9.771   9.623 -0.0418  0.3368  0.7596
  826MOL0     C 8910   5.591   9.732   9.628  0.7072 -0.1544 -0.0795
  826MOL0     C 8911   5.509   9.793   9.752 -0.5227 -0.4137 -0.0768
  826MOL0     C 8912   5.530   9.688   9.867  0.2121 -0.8466 -0.3370
  826MOL0     C 8913   5.474   9.543   9.848 -0.0603  0.6385 -0.0323
  826MOL0     C 8914   5.318   9.520   9.875  0.1390 -0.4329  0.4186
  826MOL0     C 8915   5.277   9.523  10.025 -0.0483  0.5922  0.0073
  826MOL0     C 8916   5.124   9.516  10.027 -1.1226 -0.3266  0.2514
  826MOL0     N 8917   5.068   9.519  10.163  0.6321 -0.7785 -0.0424
  826MOL0     C 8918   5.096   9.625  10.243  0.2079  0.0223 -0.5477
  826MOL0     C 8919   5.047   9.590  10.368 -1.1575 -0.5892  0.3822
  826MOL0     C 8920   5.053   9.668  10.499 -0.2920  0.2190  0.0774
  826MOL0     C 8921   4.917   9.710  10.568 -0.8899  0.6289  1.2481
  826MOL0     C 8922   4.835   9.826  10.511 -1.0693 -1.1764 -0.4370
  826MOL0     C 8923   4.682   9.825  10.544 -0.6120 -0.3444 -0.5011
  826MOL0     O 8924   4.618   9.916  10.456 -0.2733  0.3037  0.1005
  826MOL0     C 8925   4.482   9.918  10.454  0.1198 -0.9266  0.3185
  826MOL0     C 8926   4.393   9.879  10.559 -0.2853  0.6307  0.0113
  826MOL0     C 8927   4.258   9.875  10.559 -0.1194  0.5444  0.1564
  826MOL0     C 8928   4.195   9.926  10.438 -0.3732  0.1274  0.6062
  826MOL0     C 8929   4.066   9.963  10.436  1.2064 -0.1435  0.0865
  826MOL0     O 8930   4.029  10.007  10.317 -0.4084  0.5758  0.5813
  826MOL0     C 8931   3.891  10.029  10.304 -0.6642  0.0485 -0.3824
  826MOL0     C 8932   3.847  10.155  10.266 -0.7567 -0.3656 -0.1721
  826MOL0     C 8933   3.711  10.187  10.273  0.0372  0.5958 -0.0616
  826MOL0     C 8934   3.616  10.086  10.306 -0.1830 -0.1566  0.3863
  826MOL0     O 8935   3.479  10.106  10.313  0.1644 -0.0966  0.2581
  826MOL0     C 8936   3.428  10.181  10.200  0.6134  0.7425  0.1711
  826MOL0     C 8937   3.352  10.294  10.272  0.0024  0.3476 -0.3664
  826MOL0     C 8938   3.282  10.396  10.184  0.6777 -0.3815 -0.6990
  826MOL0     C 8939   3.160  10.325  10.122 -0.9571 -0.6732 -0.2276
  826MOL0     C 8940   3.058  10.426  10.071 -0.1061 -0.3280 -0.7376
  826MOL0     C 8941   2.926  10.364  10.018 -0.3912  0.4176 -0.3435
  826MOL0     C 8942   2.835  10.472   9.968  0.2297 -0.4562  0.2699
  826MOL0     C 8943   2.701  10.422   9.914  0.1270 -0.7882 -0.2768
  826MOL0    Cl 8944   2.615  10.553   9.818 -0.1441  0.2254  0.2691
  826MOL0     C 8945   3.656   9.956  10.328  0.6616  0.2236  0.6072
  826MOL0     C 8946   3.795   9.932  10.339 -0.0008 -0.2188 -0.0555
  826MOL0     O 8947   3.999   9.951  10.537 -0.1413 -0.6375  0.6321
  826MOL0     C 8948   4.280   9.963  10.335 -0.3618 -0.0472  0.2078
  826MOL0     C 8949   4.416   9.949  10.342 -0.4807 -0.6116  0.6114
  826MOL0     N 8950   5.001   9.459  10.356  0.9127  0.4227  0.2570
  826MOL0     N 8951   5.011   9.423  10.236  0.1710 -0.1420 -0.2529
  826MOL0     C 8952   6.003   9.854   9.546 -0.3332 -0.7797  0.0408
  826MOL0     C 8953   6.145   9.862   9.560 -0.0482 -0.3039  0.3871
  826MOL0     C 8954   6.581   9.828   9.464  0.2485 -0.1222  0.2317
  826MOL0     C 8955   6.620   9.703   9.421  0.0412  0.1390  0.6108
  826MOL0     C 8956   6.750   9.676   9.388 -0.0177  1.0466 -0.1330
  826MOL0     C 8957   6.848   9.783   9.391 -0.0415 -0.2795 -0.4322
  826MOL0     O 8958   6.979   9.777   9.344 -0.0807 -0.0482 -0.2390
  826MOL0     C 8959   7.032   9.643   9.319  0.3294 -0.4134 -0.6694
  826MOL0     C 8960   7.190   9.646   9.316  0.0916  0.0361 -0.4982
  826MOL0     C 8961   7.239   9.499   9.320  0.9576 -0.0779 -0.3628
  826MOL0     C 8962   7.393   9.497   9.355 -0.1573  0.0674  0.6794
  826MOL0     C 8963   7.466   9.365   9.368 -0.3024  0.1925 -0.0596
  826MOL0     C 8964   7.530   9.263   9.378 -0.6390 -0.1244 -0.0947
  826MOL0     C 8965   6.808   9.911   9.439  0.0269  0.7244  0.7181
  826MOL0     C 8966   6.678   9.936   9.478  0.0303  0.5389  0.6845
  826MOL0     H 8967   6.212   9.558   9.430 -1.1112 -2.2549  2.6332
  826MOL0     H 8968   5.970   9.551   9.401  0.4956  0.2859 -0.1261
  826MOL0     H 8969   5.753   9.875   9.655 -0.5572  0.6129  0.1005
  826MOL0     H 8970   5.793   9.708   9.696  0.0316  0.6205  0.9532
  826MOL0     H 8971   5.576   9.624   9.620 -4.9862  0.0366  2.8227
  826MOL0     H 8972   5.549   9.773   9.536  2.5008  1.9491 -0.0303
  826MOL0     H 8973   5.402   9.804   9.730 -0.3644  0.7531 -0.3196
  826MOL0     H 8974   5.539   9.893   9.786 -0.4572 -0.1133 -0.9967
  826MOL0     H 8975   5.636   9.672   9.890 -0.8562 -1.3913  6.2567
  826MOL0     H 8976   5.495   9.730   9.962  0.6322  0.9666 -0.9587
  826MOL0     H 8977   5.524   9.477   9.920 -2.1011  0.7911  1.5879
  826MOL0     H 8978   5.501   9.513   9.746  0.1792  2.7977 -0.6483
  826MOL0     H 8979   5.311   9.420   9.831 -0.4116  0.6620 -2.1438
  826MOL0     H 8980   5.258   9.589   9.814  1.4536  0.8392  0.5028
  826MOL0     H 8981   5.321   9.436  10.076 -1.9376 -1.1300 -1.1629
  826MOL0     H 8982   5.318   9.610  10.078 -0.3378  0.1512  0.9696
  826MOL0     H 8983   5.090   9.424   9.977 -1.0272  0.3514 -1.1161
  826MOL0     H 8984   5.077   9.602   9.978  1.7865  2.1123  1.4308
  826MOL0     H 8985   5.143   9.718  10.211 -0.9952  1.6506  2.1140
  826MOL0     H 8986   5.105   9.761  10.477  0.6462  0.3749  2.5644
  826MOL0     H 8987   5.107   9.607  10.572  0.0755  0.2941 -0.1305
  826MOL0     H 8988   4.956   9.731  10.667 -0.5311 -1.5438  1.6172
  826MOL0     H 8989   4.849   9.624  10.560 -1.3603  1.1134 -0.6247
  826MOL0     H 8990   4.880   9.922  10.539 -0.9933 -1.2429 -0.3346
  826MOL0     H 8991   4.844   9.810  10.403  0.4734 -0.3105 -0.4760
  826MOL0     H 8992   4.664   9.854  10.648 -3.3871 -3.9604  0.2219
  826MOL0     H 8993   4.645   9.723  10.539  0.5524 -0.9328  1.4754
  826MOL0     H 8994   4.440   9.839  10.649 -0.6503 -0.4868 -0.2719
  826MOL0     H 8995   4.213   9.843  10.652  1.8820 -1.3950  0.5278
  826MOL0     H 8996   3.922  10.227  10.234  0.7073 -0.6361  2.3954
  826MOL0     H 8997   3.697  10.291  10.248  0.3913  0.4432 -0.9242
  826MOL0     H 8998   3.358  10.130  10.134 -1.5957  0.5441  2.5080
  826MOL0     H 8999   3.505  10.234  10.143  0.6169  0.5475 -0.0046
  826MOL0     H 9000   3.429  10.350  10.325  1.9112 -2.7337  0.3766
  826MOL0     H 9001   3.282  10.261  10.348  0.2505 -0.7287 -0.5901
  826MOL0     H 9002   3.341  10.431  10.099 -0.9417 -1.0783 -2.1499
  826MOL0     H 9003   3.249  10.480  10.245 -1.4970 -1.0426 -0.8903
  826MOL0     H 9004   3.199  10.267  10.038 -1.2929  0.7591 -1.4181
  826MOL0     H 9005   3.117  10.260  10.198  0.7036  1.6675  2.9662
  826MOL0     H 9006   3.107  10.495  10.002  1.9161 -0.7217  0.2050
  826MOL0     H 9007   3.031  10.491  10.155 -0.0431 -2.9028  1.4097
  826MOL0     H 9008   2.878  10.322  10.107  2.2400 -0.9750  0.5327
  826MOL0     H 9009   2.934  10.287   9.942  1.5544 -0.8949  1.0944
  826MOL0     H 9010   2.812  10.549  10.042 -0.1679  1.0920 -1.3859
  826MOL0     H 9011   2.891  10.519   9.886 -1.5777  0.1230 -0.6996
  826MOL0     H 9012   2.631  10.398   9.995  0.2543  0.2218  0.1499
  826MOL0     H 9013   2.709  10.328   9.859 -3.2667 -3.9005  3.7928
  826MOL0     H 9014   3.580   9.879  10.344  1.2264 -0.6404 -0.6576
  826MOL0     H 9015   3.830   9.834  10.372 -1.3439 -0.3258  1.1597
  826MOL0     H 9016   4.251   9.998  10.237 -1.0784  1.9739  1.0832
  826MOL0     H 9017   4.475   9.986  10.259 -0.2390 -0.8582  0.6730
  826MOL0     H 9018   5.950   9.944   9.575  0.7620  0.9249 -2.8498
  826MOL0     H 9019   6.194   9.952   9.596 -1.8166  0.8302  0.0641
  826MOL0     H 9020   6.554   9.618   9.427  0.8078 -0.3752  2.3534
  826MOL0     H 9021   6.789   9.585   9.342  3.9475  1.8566  1.1787
  826MOL0     H 9022   6.988   9.615   9.223  2.1944 -1.4172 -1.2812
  826MOL0     H 9023   6.997   9.574   9.397 -1.8552  2.8661  1.5311
  826MOL0     H 9024   7.230   9.708   9.235 -0.0976 -2.2850 -2.4837
  826MOL0     H 9025   7.209   9.685   9.416 -1.5571  0.1734 -0.2149
  826MOL0     H 9026   7.215   9.447   9.227  0.7710  0.5975 -0.7000
  826MOL0     H 9027   7.185   9.444   9.399  0.0334 -0.3189 -1.1411
  826MOL0     H 9028   7.442   9.560   9.280  0.6503 -2.3126 -0.9194
  826MOL0     H 9029   7.404   9.552   9.449  2.9066 -1.6759  1.4835
  826MOL0     H 9030   7.578   9.175   9.416 -0.2304  1.6234  3.9642
  826MOL0     H 9031   6.885   9.988   9.439  1.6990 -0.7742 -2.2430
  826MOL0     H 9032   6.648  10.030   9.523 -0.2239 -0.3043  2.3436
  827MOL0     O 9033  11.123  10.872   0.063  0.4325  0.2697 -0.1834
  827MOL0     C 9034  11.124  10.992   0.021  0.7163  0.6309 -0.2221
  827MOL0     O 9035  11.035  11.094   0.056 -0.4163  0.8010 -0.4215
  827MOL0     C 9036  10.943  11.063   0.152  0.4487 -0.4076 -0.2756
  827MOL0     C 9037  10.820  11.013   0.115  0.4709 -0.3167  0.0480
  827MOL0     C 9038  10.727  10.960   0.201  0.5474 -0.1156  0.8094
  827MOL0     C 9039  10.744  10.974   0.335  0.1314  0.0201 -0.6756
  827MOL0     O 9040  10.668  10.918   0.431 -0.6595 -0.3276 -0.3961
  827MOL0     C 9041  10.539  10.861   0.404 -0.3465 -0.3314 -0.1265
  827MOL0     C 9042  10.440  10.971   0.380  0.1660 -0.2828 -0.7935
  827MOL0     C 9043  10.301  10.925   0.356 -0.0656  0.5295  0.1643
  827MOL0     C 9044  10.216  11.055   0.338 -0.7579  1.3241  0.0647
  827MOL0     C 9045  10.068  11.040   0.371  0.6588  0.4228 -0.5502
  827MOL0     C 9046  10.004  11.184   0.354 -0.2953 -0.0646  0.1355
  827MOL0     C 9047   9.851  11.168   0.400  0.9017 -0.7700  0.2355
  827MOL0     C 9048   9.756  11.125   0.289 -1.3640 -1.0982  0.1211
  827MOL0     N 9049   9.633  11.077   0.348  0.5950 -0.3137  0.4194
  827MOL0     C 9050   9.572  11.147   0.447  0.7358  0.6918 -0.4889
  827MOL0     C 9051   9.453  11.078   0.470 -0.5274 -0.1232 -0.5095
  827MOL0     C 9052   9.351  11.106   0.575 -0.0118  0.0648 -0.3190
  827MOL0     C 9053   9.262  11.221   0.536  0.6230  0.2865 -0.2775
  827MOL0     C 9054   9.158  11.247   0.648  0.9836 -0.2202  0.8125
  827MOL0     C 9055   9.046  11.134   0.645 -0.3728 -1.3122  0.6560
  827MOL0     O 9056   8.939  11.168   0.735 -0.2625 -0.2073 -0.1363
  827MOL0     C 9057   8.837  11.083   0.759 -0.2125 -0.1232  0.7024
  827MOL0     C 9058   8.834  10.954   0.704  0.2546  0.2144 -0.0477
  827MOL0     C 9059   8.720  10.875   0.722 -0.1956  1.4270 -0.1095
  827MOL0     C 9060   8.607  10.919   0.788  0.2316  0.4686 -0.1189
  827MOL0     C 9061   8.485  10.832   0.784  0.5082 -0.0163  1.4513
  827MOL0     O 9062   8.378  10.898   0.823  0.6504  0.8299 -0.7773
  827MOL0     C 9063   8.263  10.827   0.796 -0.3477  0.1396  0.0954
  827MOL0     C 9064   8.172  10.797   0.906 -0.3068 -0.1741 -0.3445
  827MOL0     C 9065   8.050  10.737   0.882  0.5387  0.0564 -1.0403
  827MOL0     C 9066   8.008  10.715   0.752  0.2959 -0.0811  0.3805
  827MOL0     O 9067   7.889  10.669   0.721 -0.0921  0.3969 -0.8926
  827MOL0     C 9068   7.822  10.586   0.824  0.3084  0.0890  0.3548
  827MOL0     C 9069   7.724  10.676   0.899 -0.1111  0.4567  0.3083
  827MOL0     C 9070   7.671  10.624   1.031 -0.1090 -0.9210  0.0466
  827MOL0     C 9071   7.550  10.535   1.002 -0.3111  0.7676 -0.5154
  827MOL0     C 9072   7.477  10.524   1.138 -0.7882 -0.2583 -0.3676
  827MOL0     C 9073   7.360  10.434   1.122  0.0393  0.3288  0.1401
  827MOL0     C 9074   7.240  10.477   1.039 -0.4980  0.0364 -0.5358
  827MOL0     C 9075   7.128  10.374   1.041 -0.4392  0.2741  0.3163
  827MOL0    Cl 9076   7.163  10.231   0.934  0.3605  0.0892 -0.0225
  827MOL0     C 9077   8.091  10.748   0.645  0.4950  0.4344  0.6419
  827MOL0     C 9078   8.215  10.802   0.665 -0.0865  0.6053  0.2302
  827MOL0     O 9079   8.492  10.715   0.746  0.2495 -0.3191 -0.3032
  827MOL0     C 9080   8.610  11.045   0.853  0.4628  0.0291  0.9381
  827MOL0     C 9081   8.724  11.123   0.834 -0.3419  0.2788 -0.2637
  827MOL0     N 9082   9.449  10.977   0.374 -0.1631 -0.0384  0.2534
  827MOL0     N 9083   9.554  10.970   0.300  0.3650  0.1786 -0.0912
  827MOL0     C 9084  10.865  11.034   0.379  0.4192 -0.4469  0.2588
  827MOL0     C 9085  10.964  11.071   0.289  0.2695  0.1978  0.3788
  827MOL0     C 9086  11.218  11.026  -0.086 -0.1380  0.2864  0.9496
  827MOL0     C 9087  11.247  11.161  -0.123 -0.7679 -0.5777  0.4184
  827MOL0     C 9088  11.338  11.188  -0.223 -0.5320  0.5485 -0.2065
  827MOL0     C 9089  11.398  11.086  -0.302  0.3915  0.0727 -0.2648
  827MOL0     O 9090  11.488  11.101  -0.407  0.2356 -0.2090 -0.2197
  827MOL0     C 9091  11.582  11.210  -0.403  0.3364 -0.3888  0.2452
  827MOL0     C 9092  11.669  11.199  -0.532 -0.6966 -0.3013 -0.2169
  827MOL0     C 9093  11.749  11.069  -0.534 -0.4502 -0.0707  0.7707
  827MOL0     C 9094  11.810  11.048  -0.672 -0.1213 -0.0274 -0.5362
  827MOL0     C 9095  11.932  10.963  -0.666 -0.2634 -0.5919  0.9837
  827MOL0     C 9096  12.018  10.883  -0.661  0.9127  0.6625 -0.4364
  827MOL0     C 9097  11.368  10.954  -0.276  0.1644 -0.1961 -0.5400
  827MOL0     C 9098  11.284  10.924  -0.163  0.3297 -0.2374 -0.6260
  827MOL0     H 9099  10.804  10.988   0.011 -0.1254 -1.6333  0.4439
  827MOL0     H 9100  10.643  10.910   0.154 -1.9342  1.4245  3.2925
  827MOL0     H 9101  10.516  10.821   0.503 -0.6579  2.9684  1.2706
  827MOL0     H 9102  10.536  10.790   0.321 -0.8811  0.2030 -0.5770
  827MOL0     H 9103  10.466  11.034   0.294  3.4874 -1.1405 -0.5556
  827MOL0     H 9104  10.446  11.027   0.473 -0.8058 -0.7897 -0.4165
  827MOL0     H 9105  10.264  10.867   0.440 -2.0561  2.1569  0.4980
  827MOL0     H 9106  10.303  10.871   0.261 -1.8989  0.6333  0.0339
  827MOL0     H 9107  10.261  11.140   0.390  0.7398 -0.0046  1.0532
  827MOL0     H 9108  10.223  11.078   0.232  0.4653  1.1166  0.0863
  827MOL0     H 9109  10.065  11.017   0.478 -1.6240  0.0769 -0.6337
  827MOL0     H 9110  10.021  10.961   0.311  1.5297 -0.0276 -0.6640
  827MOL0     H 9111  10.019  11.211   0.249  3.3742 -2.1654 -0.0586
  827MOL0     H 9112  10.049  11.264   0.414 -0.9356  1.2273 -1.0658
  827MOL0     H 9113   9.833  11.101   0.484 -1.5644  0.0538  0.4400
  827MOL0     H 9114   9.820  11.266   0.439  0.5224 -0.4716 -0.7933
  827MOL0     H 9115   9.796  11.037   0.237  0.7681  0.5422 -1.2101
  827MOL0     H 9116   9.742  11.201   0.211  0.9473 -0.0780  0.6091
  827MOL0     H 9117   9.603  11.237   0.500  1.4942  0.2260 -0.1221
  827MOL0     H 9118   9.404  11.133   0.667 -1.0474  0.1264  0.2788
  827MOL0     H 9119   9.294  11.015   0.592  0.2216 -0.4157 -1.9540
  827MOL0     H 9120   9.212  11.195   0.443 -0.4591 -1.2563  0.6928
  827MOL0     H 9121   9.328  11.308   0.528  2.8776 -1.2480  0.5963
  827MOL0     H 9122   9.211  11.263   0.743  1.9839 -1.8704  0.5717
  827MOL0     H 9123   9.112  11.343   0.625 -0.0681 -1.0096 -0.4907
  827MOL0     H 9124   9.089  11.039   0.676  4.0707  0.8741  2.0847
  827MOL0     H 9125   9.004  11.126   0.544  1.0482  1.7892 -0.3213
  827MOL0     H 9126   8.915  10.915   0.643 -1.8173 -1.2381 -2.0423
  827MOL0     H 9127   8.722  10.773   0.686 -1.9134  0.8407  1.2874
  827MOL0     H 9128   8.209  10.826   1.004  1.5442 -5.2342  0.7528
  827MOL0     H 9129   7.992  10.713   0.970  2.0019 -2.0444 -0.5700
  827MOL0     H 9130   7.897  10.543   0.892 -0.4318 -4.6980 -1.4640
  827MOL0     H 9131   7.765  10.504   0.780  1.6030 -2.5597  3.2032
  827MOL0     H 9132   7.642  10.687   0.828 -0.8603 -4.2041  0.1903
  827MOL0     H 9133   7.784  10.768   0.910 -0.3966  0.6176  0.5326
  827MOL0     H 9134   7.642  10.710   1.093 -1.8798 -1.7783  0.4674
  827MOL0     H 9135   7.751  10.572   1.085 -0.4046  0.3059  1.7809
  827MOL0     H 9136   7.488  10.569   0.918 -0.6856  0.7465 -0.2515
  827MOL0     H 9137   7.593  10.441   0.966  0.9513  1.5437 -1.1349
  827MOL0     H 9138   7.444  10.624   1.168  0.0328 -0.5299  1.5729
  827MOL0     H 9139   7.546  10.483   1.212  0.0085 -0.0626 -0.9910
  827MOL0     H 9140   7.323  10.403   1.220 -0.3206 -4.5937 -1.2706
  827MOL0     H 9141   7.397  10.339   1.082 -0.6654  0.6864 -1.4539
  827MOL0     H 9142   7.208  10.572   1.081  1.7262  0.6405 -0.0421
  827MOL0     H 9143   7.263  10.488   0.932  3.2255  0.1736  0.1369
  827MOL0     H 9144   7.031  10.421   1.023 -1.8597 -1.5053  2.7906
  827MOL0     H 9145   7.130  10.341   1.145  0.0497  2.2037  0.9624
  827MOL0     H 9146   8.063  10.723   0.543 -0.6019 -1.4087  1.3352
  827MOL0     H 9147   8.284  10.819   0.583 -0.1668 -2.2850 -0.5571
  827MOL0     H 9148   8.541  11.093   0.922 -0.8979 -0.0740 -0.3067
  827MOL0     H 9149   8.717  11.220   0.881  1.3823 -0.2535  1.2300
  827MOL0     H 9150  10.882  11.059   0.483  3.3340 -1.1635  0.0600
  827MOL0     H 9151  11.056  11.111   0.331 -0.9927  0.8838  2.6879
  827MOL0     H 9152  11.205  11.245  -0.068  0.3813 -0.8290  1.7566
  827MOL0     H 9153  11.360  11.291  -0.248  0.7389 -0.2617 -2.8005
  827MOL0     H 9154  11.646  11.190  -0.317 -0.2441  1.4047  1.1318
  827MOL0     H 9155  11.537  11.309  -0.395  0.4773 -0.2731 -0.3118
  827MOL0     H 9156  11.600  11.199  -0.617 -0.5998  0.8507 -0.3130
  827MOL0     H 9157  11.741  11.282  -0.530 -1.6295  0.5896 -1.5437
  827MOL0     H 9158  11.693  10.977  -0.512 -1.5473  0.9122  2.2201
  827MOL0     H 9159  11.830  11.074  -0.460  0.0569  0.0530  0.2181
  827MOL0     H 9160  11.737  11.017  -0.748 -1.8438  0.5738  0.7796
  827MOL0     H 9161  11.825  11.153  -0.701 -1.5728 -0.0057 -1.3112
  827MOL0     H 9162  12.101  10.823  -0.629 -0.7740  0.1446  3.5586
  827MOL0     H 9163  11.419  10.877  -0.334  1.0676  2.3356 -3.3449
  827MOL0     H 9164  11.271  10.824  -0.125  1.6924  0.2071  1.1497
  828MOL0     O 9165   9.221   3.972   8.533 -0.0118  0.8928  0.6425
  828MOL0     C 9166   9.285   4.023   8.621 -0.2569 -0.2877  0.1839
  828MOL0     O 9167   9.232   4.063   8.734  0.1301  0.0831 -0.4726
  828MOL0     C 9168   9.099   4.036   8.756 -0.1635  0.0172  0.5467
  828MOL0     C 9169   9.053   3.929   8.832 -0.0489 -0.8693 -0.8182
  828MOL0     C 9170   8.923   3.914   8.872 -0.4082 -0.0405 -0.3963
  828MOL0     C 9171   8.818   4.009   8.833  0.6128  0.9698 -0.7000
  828MOL0     O 9172   8.694   3.976   8.864  0.0435 -0.5185 -0.2462
  828MOL0     C 9173   8.591   4.038   8.792  0.2247  0.7909  0.0149
  828MOL0     C 9174   8.452   3.974   8.818  0.1631  0.5352 -0.3708
  828MOL0     C 9175   8.339   4.048   8.743 -0.0266 -0.6752 -0.3231
  828MOL0     C 9176   8.204   3.959   8.745  0.2683 -0.4872  0.2200
  828MOL0     C 9177   8.093   4.018   8.649 -0.3466  0.5952  0.0979
  828MOL0     C 9178   8.028   4.151   8.695 -0.4271 -0.2527 -0.7610
  828MOL0     C 9179   7.966   4.234   8.585  0.1607  0.6388  0.1263
  828MOL0     C 9180   8.061   4.308   8.488  0.8363 -0.3386 -0.3288
  828MOL0     N 9181   8.020   4.287   8.343 -0.3892  0.4994 -0.4181
  828MOL0     C 9182   7.900   4.322   8.290  0.2329 -0.1034 -0.4395
  828MOL0     C 9183   7.910   4.262   8.167  1.2281  1.0118 -0.1384
  828MOL0     C 9184   7.801   4.276   8.073  0.1875  0.5785 -0.1055
  828MOL0     C 9185   7.682   4.179   8.089  0.0068 -0.7687 -0.7532
  828MOL0     C 9186   7.726   4.030   8.067 -0.6490 -1.0620  0.1450
  828MOL0     C 9187   7.771   3.996   7.920  0.0192  0.6843  0.9520
  828MOL0     O 9188   7.677   4.038   7.819 -0.6463  0.3307  0.8516
  828MOL0     C 9189   7.547   3.984   7.826 -0.1034 -0.3039 -0.2821
  828MOL0     C 9190   7.435   4.058   7.824  0.2694 -1.0961  0.5948
  828MOL0     C 9191   7.304   4.011   7.829  0.4454  0.2556  0.8374
  828MOL0     C 9192   7.282   3.874   7.824  0.2316 -0.4640 -0.6635
  828MOL0     C 9193   7.141   3.820   7.852  0.6739  0.4613  0.6500
  828MOL0     O 9194   7.040   3.917   7.835  0.8315  0.1668  1.0927
  828MOL0     C 9195   6.908   3.896   7.871 -0.0582 -0.0893  0.3947
  828MOL0     C 9196   6.802   3.928   7.786 -0.7022  0.0152 -0.7998
  828MOL0     C 9197   6.668   3.914   7.811 -0.1327 -0.8338  0.1869
  828MOL0     C 9198   6.631   3.845   7.931 -0.1079  0.1905 -0.4907
  828MOL0     O 9199   6.494   3.828   7.963  0.2271 -0.1985 -0.4007
  828MOL0     C 9200   6.387   3.910   7.913  0.2496  0.1670  1.0538
  828MOL0     C 9201   6.266   3.874   8.004 -0.0830 -0.8231  0.1450
  828MOL0     C 9202   6.143   3.956   7.960  0.0233 -0.4461  0.1589
  828MOL0     C 9203   6.034   3.921   8.073 -0.4704 -0.0386  1.4552
  828MOL0     C 9204   5.913   4.000   8.037  0.4197  0.3168 -0.0871
  828MOL0     C 9205   5.789   3.964   8.115  0.9120 -0.0001  0.3959
  828MOL0     C 9206   5.664   4.039   8.056 -1.2335  0.3934  0.5598
  828MOL0     C 9207   5.548   4.000   8.136 -0.4957 -1.2175  0.0219
  828MOL0    Cl 9208   5.423   4.122   8.108  0.8062 -0.0077  0.0556
  828MOL0     C 9209   6.732   3.795   8.017 -0.3773 -0.4074  1.1971
  828MOL0     C 9210   6.868   3.823   7.991 -0.3668 -0.5088  1.1405
  828MOL0     O 9211   7.125   3.708   7.892  0.3491  0.1126 -0.4980
  828MOL0     C 9212   7.390   3.795   7.821 -0.1060 -0.8578  0.0703
  828MOL0     C 9213   7.522   3.848   7.819 -0.0772 -0.1448  0.8023
  828MOL0     N 9214   8.030   4.195   8.155 -0.4111  0.7601 -0.2846
  828MOL0     N 9215   8.095   4.203   8.265  0.2212 -0.5237  0.1203
  828MOL0     C 9216   8.865   4.116   8.751  0.3361 -0.4747  0.0213
  828MOL0     C 9217   9.003   4.130   8.710 -0.2038 -0.8797 -0.4485
  828MOL0     C 9218   9.419   4.076   8.582 -0.0647  0.5303  0.0385
  828MOL0     C 9219   9.489   4.171   8.659 -0.8695 -0.7364  0.2684
  828MOL0     C 9220   9.614   4.214   8.605  0.1559  0.7037  0.7605
  828MOL0     C 9221   9.661   4.181   8.476  0.0984  0.1812  1.3520
  828MOL0     O 9222   9.793   4.222   8.450  0.0825  0.2881 -0.4438
  828MOL0     C 9223   9.889   4.136   8.373 -0.1372  0.1730  0.5933
  828MOL0     C 9224  10.031   4.129   8.441  0.4569  0.2843 -0.1458
  828MOL0     C 9225  10.148   4.088   8.354 -0.3253 -0.3518 -0.5471
  828MOL0     C 9226  10.275   4.083   8.427 -0.6197  0.2529 -0.1938
  828MOL0     C 9227  10.283   3.963   8.507 -0.3020  0.6282 -0.4074
  828MOL0     C 9228  10.288   3.850   8.551  0.4257 -0.5638 -0.1238
  828MOL0     C 9229   9.584   4.095   8.399  0.2844  0.5165  0.4133
  828MOL0     C 9230   9.468   4.041   8.455 -0.9428 -0.0716  0.8539
  828MOL0     H 9231   9.127   3.860   8.871 -1.0080 -0.9563  0.9545
  828MOL0     H 9232   8.893   3.824   8.925 -1.7887  2.5385  3.6832
  828MOL0     H 9233   8.612   4.039   8.685  1.5757 -2.5337  0.1285
  828MOL0     H 9234   8.577   4.141   8.826 -0.7646  1.1342 -1.3683
  828MOL0     H 9235   8.434   3.977   8.926 -1.2330  1.8344 -0.6026
  828MOL0     H 9236   8.463   3.871   8.782  0.0937  1.0686 -2.0169
  828MOL0     H 9237   8.375   4.058   8.640  0.0065  0.4062 -0.2187
  828MOL0     H 9238   8.323   4.146   8.789 -1.7088 -0.0312 -2.1260
  828MOL0     H 9239   8.222   3.858   8.707 -0.5250 -0.0956 -1.2277
  828MOL0     H 9240   8.161   3.953   8.846  0.4317 -3.0553  0.2065
  828MOL0     H 9241   8.005   3.954   8.652 -1.3340  1.8755  3.1733
  828MOL0     H 9242   8.128   4.019   8.546  1.6436  0.9131  0.7369
  828MOL0     H 9243   8.116   4.202   8.734 -0.9134 -2.0111  3.2135
  828MOL0     H 9244   7.966   4.129   8.783  1.7895  0.3864  1.0738
  828MOL0     H 9245   7.899   4.164   8.534  3.6019 -1.9360 -1.1964
  828MOL0     H 9246   7.906   4.308   8.638 -0.9582 -0.8820  1.0792
  828MOL0     H 9247   8.161   4.264   8.482  0.5233 -1.2102  0.4869
  828MOL0     H 9248   8.066   4.412   8.523  0.1209 -1.1476  2.4988
  828MOL0     H 9249   7.816   4.377   8.332  0.1012  0.0789 -0.9315
  828MOL0     H 9250   7.848   4.273   7.974 -3.8245  3.0325 -2.3502
  828MOL0     H 9251   7.757   4.376   8.077  0.7558  0.8015  2.9077
  828MOL0     H 9252   7.606   4.201   8.014 -0.4732 -2.7701 -0.8974
  828MOL0     H 9253   7.642   4.204   8.188  1.0307 -0.7837 -0.3172
  828MOL0     H 9254   7.806   3.994   8.132  0.6390 -1.7901 -1.7636
  828MOL0     H 9255   7.642   3.969   8.100 -2.2520  1.7072  1.5294
  828MOL0     H 9256   7.785   3.889   7.910 -1.8019  0.5180 -0.3064
  828MOL0     H 9257   7.866   4.049   7.907 -0.2858  0.9561 -0.3756
  828MOL0     H 9258   7.436   4.166   7.834  1.4822 -1.0955  0.5985
  828MOL0     H 9259   7.228   4.089   7.834 -1.1497 -1.2265  0.4677
  828MOL0     H 9260   6.833   3.973   7.692  0.9210  1.0125  0.1504
  828MOL0     H 9261   6.596   3.954   7.740 -0.9128  1.8743  2.3182
  828MOL0     H 9262   6.364   3.886   7.809 -1.0901 -1.0650  1.6026
  828MOL0     H 9263   6.401   4.017   7.928  1.8777  0.1429 -0.0853
  828MOL0     H 9264   6.297   3.907   8.104 -4.2837  2.0659  0.7770
  828MOL0     H 9265   6.245   3.768   7.989  0.8728 -0.7239 -2.4235
  828MOL0     H 9266   6.112   3.934   7.858  0.2421  0.6217 -0.1484
  828MOL0     H 9267   6.155   4.065   7.962  1.4944 -0.5927 -0.2289
  828MOL0     H 9268   6.009   3.815   8.060 -0.2394  0.1367 -0.7771
  828MOL0     H 9269   6.066   3.942   8.176  4.1882 -0.6532  0.3404
  828MOL0     H 9270   5.892   3.975   7.932 -0.4421  2.0098 -0.3427
  828MOL0     H 9271   5.932   4.107   8.046 -3.2169  0.9582  1.5968
  828MOL0     H 9272   5.795   3.999   8.219  2.6085  0.1291  0.2842
  828MOL0     H 9273   5.776   3.855   8.109 -2.1552  0.2249  1.0525
  828MOL0     H 9274   5.679   4.148   8.060 -1.2493  0.4468 -0.5196
  828MOL0     H 9275   5.648   4.024   7.949  2.5254 -1.9319  0.1897
  828MOL0     H 9276   5.559   3.994   8.244 -2.0082 -1.7409  0.1742
  828MOL0     H 9277   5.521   3.898   8.107  2.0269 -2.2027  0.9117
  828MOL0     H 9278   6.705   3.737   8.105  0.5552 -2.9421 -0.0799
  828MOL0     H 9279   6.951   3.802   8.058 -0.2853  0.4521  1.3555
  828MOL0     H 9280   7.379   3.687   7.823 -1.0662 -0.8330 -1.8401
  828MOL0     H 9281   7.608   3.788   7.790 -0.0103  0.2418  0.1844
  828MOL0     H 9282   8.789   4.192   8.736  1.6800  0.8279 -0.4571
  828MOL0     H 9283   9.027   4.218   8.651  2.0949 -2.4279 -1.9676
  828MOL0     H 9284   9.455   4.213   8.753 -1.2997 -2.2187  0.8175
  828MOL0     H 9285   9.683   4.279   8.659 -0.1793  1.2927  0.4896
  828MOL0     H 9286   9.908   4.183   8.276  1.1429  0.3020  0.8877
  828MOL0     H 9287   9.852   4.036   8.348  0.4737  0.4344 -1.5317
  828MOL0     H 9288  10.050   4.223   8.493  0.0984 -0.6419  1.7629
  828MOL0     H 9289  10.019   4.052   8.518 -2.3826  1.0375  0.2579
  828MOL0     H 9290  10.160   4.171   8.284  0.3894  0.7495  0.8245
  828MOL0     H 9291  10.137   3.999   8.291 -0.1769  1.0631 -2.7018
  828MOL0     H 9292  10.353   4.073   8.351 -0.1801 -1.2423  0.4075
  828MOL0     H 9293  10.285   4.177   8.482 -1.0646 -1.1386  2.4048
  828MOL0     H 9294  10.301   3.754   8.598  0.5147 -0.5301 -0.0802
  828MOL0     H 9295   9.619   4.084   8.297 -1.4149  0.7172 -0.2070
  828MOL0     H 9296   9.421   3.966   8.392 -0.7427 -0.5881  1.3110
  829MOL0     O 9297   0.565  10.825  10.249 -1.0928 -0.2386 -0.9622
  829MOL0     C 9298   0.630  10.738  10.294 -0.3065  0.1922 -0.3194
  829MOL0     O 9299   0.586  10.621  10.346 -0.6161 -0.7642  0.4830
  829MOL0     C 9300   0.454  10.598  10.384  0.0656  0.1826 -0.6711
  829MOL0     C 9301   0.444  10.533  10.511  0.1203  0.0020  0.1705
  829MOL0     C 9302   0.317  10.513  10.570 -0.6056 -0.6111 -0.7767
  829MOL0     C 9303   0.201  10.554  10.494 -0.8288 -0.1569  0.5208
  829MOL0     O 9304   0.075  10.560  10.540  0.4616  0.0819 -0.3231
  829MOL0     C 9305   0.052  10.514  10.679 -0.3015 -1.0069 -0.8465
  829MOL0     C 9306  -0.091  10.527  10.722 -0.1358 -0.2125 -0.0201
  829MOL0     C 9307  -0.133  10.459  10.858  0.0362 -0.6680  0.4231
  829MOL0     C 9308  -0.074  10.528  10.978 -0.1789 -0.0397  0.2026
  829MOL0     C 9309  -0.149  10.474  11.101  0.6657 -0.3573 -0.5442
  829MOL0     C 9310  -0.270  10.555  11.130 -0.7521 -0.3922 -0.0298
  829MOL0     C 9311  -0.330  10.531  11.264  0.3639  0.3626 -0.2182
  829MOL0     C 9312  -0.457  10.602  11.275 -0.4823  0.7016 -0.5531
  829MOL0     N 9313  -0.553  10.519  11.359 -0.2172  0.1568  0.1202
  829MOL0     C 9314  -0.559  10.522  11.493  0.0790 -0.1949 -1.0793
  829MOL0     C 9315  -0.619  10.401  11.518  0.3772 -0.0625 -0.0675
  829MOL0     C 9316  -0.662  10.368  11.665 -0.2182  0.3196 -0.3001
  829MOL0     C 9317  -0.776  10.445  11.719 -0.4561 -0.1635 -0.5956
  829MOL0     C 9318  -0.901  10.407  11.655  1.0868  0.0476 -0.3662
  829MOL0     C 9319  -1.019  10.496  11.689  0.2912 -0.2946  0.0061
  829MOL0     O 9320  -1.026  10.506  11.833 -0.0636  0.1387  0.4423
  829MOL0     C 9321  -1.126  10.574  11.893  1.3430 -0.6766 -0.2244
  829MOL0     C 9322  -1.131  10.570  12.028 -0.1598  1.2887  0.9769
  829MOL0     C 9323  -1.229  10.635  12.101 -0.0553 -0.4085  1.3645
  829MOL0     C 9324  -1.331  10.704  12.032  0.5588  0.5486 -0.0477
  829MOL0     C 9325  -1.437  10.780  12.104 -0.3084  0.7194 -0.0569
  829MOL0     O 9326  -1.511  10.877  12.038  0.7491  0.6317  1.2126
  829MOL0     C 9327  -1.619  10.930  12.098  0.3072  0.1648 -0.1434
  829MOL0     C 9328  -1.728  10.846  12.142  0.6490 -0.9972  0.5028
  829MOL0     C 9329  -1.839  10.899  12.207 -0.4554 -0.3658  0.6188
  829MOL0     C 9330  -1.840  11.043  12.234 -0.0907  0.4175 -0.1183
  829MOL0     O 9331  -1.939  11.094  12.318 -0.5293 -0.4274  0.5109
  829MOL0     C 9332  -2.068  11.030  12.292  0.7445  0.3124 -0.0984
  829MOL0     C 9333  -2.158  11.126  12.343 -1.1042 -0.0867 -0.6016
  829MOL0     C 9334  -2.288  11.052  12.397 -0.2046  0.0556 -0.8392
  829MOL0     C 9335  -2.381  11.147  12.471  0.0056 -0.5379 -0.2730
  829MOL0     C 9336  -2.489  11.067  12.540 -1.1017  0.1448  0.7444
  829MOL0     C 9337  -2.583  11.154  12.609  1.1527  0.4128  0.0447
  829MOL0     C 9338  -2.682  11.079  12.695  0.7185 -1.1265 -0.5278
  829MOL0     C 9339  -2.747  11.182  12.788  0.5824  0.3585 -0.5604
  829MOL0    Cl 9340  -2.862  11.119  12.912  0.3032  0.2518 -0.4065
  829MOL0     C 9341  -1.734  11.122  12.189  0.6172 -0.4696 -0.9529
  829MOL0     C 9342  -1.626  11.066  12.125 -0.6158  0.2230  0.1353
  829MOL0     O 9343  -1.462  10.744  12.215  0.2965 -0.3287  0.0819
  829MOL0     C 9344  -1.320  10.724  11.892  0.4268 -0.6396 -0.2352
  829MOL0     C 9345  -1.219  10.658  11.823 -0.0852  0.5655 -0.6882
  829MOL0     N 9346  -0.660  10.344  11.402  0.0332  0.0227 -0.2089
  829MOL0     N 9347  -0.628  10.421  11.304 -0.4697  0.7823  0.5588
  829MOL0     C 9348   0.221  10.601  10.365  0.3871  0.2078 -0.4131
  829MOL0     C 9349   0.345  10.631  10.307 -0.3925 -0.0956  0.1276
  829MOL0     C 9350   0.773  10.748  10.268 -1.2313  0.1517 -0.9101
  829MOL0     C 9351   0.838  10.872  10.248  0.3880 -0.1264 -0.4873
  829MOL0     C 9352   0.971  10.878  10.214  0.6752 -0.2216 -0.2396
  829MOL0     C 9353   1.047  10.767  10.194  0.0748 -0.1918 -0.0223
  829MOL0     O 9354   1.174  10.779  10.141 -0.6019 -0.6605  0.2824
  829MOL0     C 9355   1.253  10.663  10.123  0.0187 -1.2801  0.6774
  829MOL0     C 9356   1.389  10.697  10.062  0.5691 -0.2725 -0.5915
  829MOL0     C 9357   1.486  10.772  10.163  0.2673 -0.1358 -0.0969
  829MOL0     C 9358   1.618  10.822  10.103  0.7694 -0.4127 -0.2013
  829MOL0     C 9359   1.692  10.895  10.201  0.1062 -0.0912  0.8634
  829MOL0     C 9360   1.751  10.950  10.296  1.0371  0.4885  0.5659
  829MOL0     C 9361   0.984  10.643  10.218  0.1433  0.6830  0.6512
  829MOL0     C 9362   0.850  10.629  10.244  0.1551  0.1441  0.4205
  829MOL0     H 9363   0.528  10.500  10.570 -0.5992 -0.2354  1.0728
  829MOL0     H 9364   0.318  10.452  10.659 -0.1160 -2.2690 -1.8627
  829MOL0     H 9365   0.115  10.572  10.746 -0.0429  0.2276 -2.1039
  829MOL0     H 9366   0.074  10.407  10.679 -1.3414 -1.2368 -1.9089
  829MOL0     H 9367  -0.166  10.488  10.653 -0.3697 -0.0717  0.1517
  829MOL0     H 9368  -0.111  10.634  10.730 -0.9276 -0.4586  1.6752
  829MOL0     H 9369  -0.108  10.353  10.849 -0.9215 -0.8862  0.2188
  829MOL0     H 9370  -0.242  10.465  10.867 -0.0919 -1.4132 -0.5195
  829MOL0     H 9371   0.029  10.494  10.968 -1.4816 -3.8795 -2.4454
  829MOL0     H 9372  -0.072  10.638  10.976  1.8231 -0.0478  0.1869
  829MOL0     H 9373  -0.091  10.495  11.192 -3.0835 -1.3406  2.3238
  829MOL0     H 9374  -0.172  10.367  11.100 -3.7214  0.3737  1.2173
  829MOL0     H 9375  -0.341  10.524  11.052  0.0930 -2.5923 -0.0057
  829MOL0     H 9376  -0.244  10.661  11.120  1.5794 -0.8782  0.3499
  829MOL0     H 9377  -0.341  10.423  11.275  1.1597  0.5878  4.7409
  829MOL0     H 9378  -0.263  10.562  11.345 -1.2253 -5.1592  3.7879
  829MOL0     H 9379  -0.501  10.596  11.175  2.7859  0.4872 -2.0962
  829MOL0     H 9380  -0.455  10.709  11.299 -0.3554  0.6197 -0.1964
  829MOL0     H 9381  -0.520  10.590  11.568  0.9720  1.7794 -3.1873
  829MOL0     H 9382  -0.575  10.391  11.727 -1.2258  1.1492  0.8564
  829MOL0     H 9383  -0.684  10.261  11.672 -1.3226  0.4318 -1.7400
  829MOL0     H 9384  -0.762  10.553  11.713 -0.6297  0.3557  4.0815
  829MOL0     H 9385  -0.795  10.424  11.825 -2.4972 -1.9044 -1.2373
  829MOL0     H 9386  -0.881  10.419  11.548  0.0989  0.7078 -0.4931
  829MOL0     H 9387  -0.926  10.302  11.676  0.0709  0.2312 -0.6047
  829MOL0     H 9388  -1.108  10.451  11.645  2.7519 -2.6616 -2.9345
  829MOL0     H 9389  -0.992  10.592  11.643  0.7197  0.8531  2.4557
  829MOL0     H 9390  -1.068  10.491  12.066  0.0480 -0.0027 -1.8120
  829MOL0     H 9391  -1.250  10.635  12.208 -3.4177  2.8164  0.9116
  829MOL0     H 9392  -1.733  10.742  12.113  1.4472 -1.2233  1.1259
  829MOL0     H 9393  -1.920  10.828  12.224 -1.6686  0.5936 -0.9011
  829MOL0     H 9394  -2.069  10.936  12.348 -0.1410  0.5775  0.3538
  829MOL0     H 9395  -2.091  10.984  12.195 -0.8119 -0.7107  0.7258
  829MOL0     H 9396  -2.191  11.189  12.260  1.6398  1.8137 -0.3992
  829MOL0     H 9397  -2.113  11.196  12.415 -2.9175 -0.1075  0.6192
  829MOL0     H 9398  -2.261  10.971  12.465 -1.1543  0.5523  0.1630
  829MOL0     H 9399  -2.325  11.004  12.306  1.4870  0.3095 -1.7007
  829MOL0     H 9400  -2.330  11.222  12.532 -2.0251  1.0383 -0.4203
  829MOL0     H 9401  -2.421  11.203  12.386  1.4617 -2.0262 -2.0212
  829MOL0     H 9402  -2.445  11.001  12.615 -1.1821  2.5407  3.0436
  829MOL0     H 9403  -2.538  11.006  12.464  0.8149 -0.6433  0.0599
  829MOL0     H 9404  -2.636  11.215  12.535  3.7401  3.7059  0.6442
  829MOL0     H 9405  -2.523  11.226  12.665  0.9349  0.1317  0.6390
  829MOL0     H 9406  -2.765  11.029  12.644 -2.6026  1.7929  1.5044
  829MOL0     H 9407  -2.626  11.004  12.751  0.8271  1.2172  2.8528
  829MOL0     H 9408  -2.787  11.269  12.734 -1.5406 -0.5519 -0.5493
  829MOL0     H 9409  -2.665  11.221  12.850  0.3723  0.6790 -0.4829
  829MOL0     H 9410  -1.735  11.226  12.217 -0.3708  0.3158 -3.5514
  829MOL0     H 9411  -1.539  11.129  12.106 -1.4620  0.9060 -1.6709
  829MOL0     H 9412  -1.404  10.778  11.850 -0.5605 -1.4371  0.6674
  829MOL0     H 9413  -1.209  10.656  11.715  1.2876  1.8051 -0.6086
  829MOL0     H 9414   0.125  10.621  10.317 -0.5871  0.0932  1.4233
  829MOL0     H 9415   0.355  10.657  10.202 -1.9250  0.5467  0.1128
  829MOL0     H 9416   0.787  10.967  10.244  0.4931  0.1505  2.5554
  829MOL0     H 9417   1.023  10.973  10.201  2.8749 -1.5887 -2.2654
  829MOL0     H 9418   1.212  10.596  10.046  1.9955 -1.8003  0.0117
  829MOL0     H 9419   1.270  10.605  10.214  0.2237 -0.7887  0.9535
  829MOL0     H 9420   1.440  10.602  10.045 -2.4099 -1.8722 -1.4413
  829MOL0     H 9421   1.377  10.762   9.974  1.0084  1.6326  0.7021
  829MOL0     H 9422   1.512  10.695  10.237  0.9889 -1.5797 -1.7834
  829MOL0     H 9423   1.433  10.856  10.209  1.4236 -0.8410  2.7880
  829MOL0     H 9424   1.675  10.736  10.066  3.9142  0.8699  1.3213
  829MOL0     H 9425   1.582  10.887  10.022  0.0997 -0.5469 -0.0106
  829MOL0     H 9426   1.808  10.999  10.372  0.5874  1.1994  0.4534
  829MOL0     H 9427   1.032  10.548  10.195 -0.3300  0.5848  0.0342
  829MOL0     H 9428   0.803  10.531  10.253  0.4363  0.1268  2.0943
  830MOL0     O 9429   6.460   3.519  10.797 -0.2188  0.4010  0.1861
  830MOL0     C 9430   6.445   3.580  10.908 -0.2286  0.7194 -0.1534
  830MOL0     O 9431   6.327   3.608  10.978 -0.2362  0.4878 -0.6293
  830MOL0     C 9432   6.198   3.586  10.928 -0.0003  0.7268  0.0653
  830MOL0     C 9433   6.095   3.555  11.022  0.0213  0.3408  0.3640
  830MOL0     C 9434   5.965   3.529  10.977 -0.0644  0.1485  0.2872
  830MOL0     C 9435   5.932   3.546  10.837  0.7485 -0.6269 -0.1412
  830MOL0     O 9436   5.806   3.511  10.782 -0.0248 -0.6543 -0.2844
  830MOL0     C 9437   5.692   3.495  10.870  0.7170 -0.3127 -0.2216
  830MOL0     C 9438   5.565   3.486  10.780 -0.2988 -0.1844 -0.8655
  830MOL0     C 9439   5.447   3.425  10.864  0.7522 -0.0440  0.2646
  830MOL0     C 9440   5.319   3.416  10.772 -1.0976 -0.3382 -0.2817
  830MOL0     C 9441   5.197   3.369  10.857  0.1663 -0.4983  0.2518
  830MOL0     C 9442   5.127   3.492  10.928 -0.1497 -0.5158  0.4804
  830MOL0     C 9443   5.005   3.448  11.012  0.3258  0.1899 -0.8081
  830MOL0     C 9444   4.883   3.421  10.922  0.2241 -0.0707 -0.9012
  830MOL0     N 9445   4.764   3.408  10.995 -0.2912  0.2482 -0.2221
  830MOL0     C 9446   4.747   3.353  11.115 -0.2840  0.3234 -0.0491
  830MOL0     C 9447   4.615   3.365  11.152 -0.2836  0.2288 -0.1696
  830MOL0     C 9448   4.559   3.338  11.282  0.0789  0.8585 -0.4293
  830MOL0     C 9449   4.538   3.185  11.305 -0.3405  0.0527  1.2814
  830MOL0     C 9450   4.438   3.135  11.200  0.6900  0.1458 -0.5694
  830MOL0     C 9451   4.406   2.989  11.225  0.6116  0.2560  0.4312
  830MOL0     O 9452   4.356   2.922  11.109  0.8575  0.4607  0.1365
  830MOL0     C 9453   4.230   2.959  11.065  1.0897 -0.0335 -0.4882
  830MOL0     C 9454   4.198   2.897  10.941  0.0730 -0.4418 -0.2784
  830MOL0     C 9455   4.082   2.929  10.875  0.0981 -0.0207  0.3163
  830MOL0     C 9456   3.982   2.998  10.938 -0.2651  0.2788  1.2677
  830MOL0     C 9457   3.845   3.000  10.867  0.1368  0.1992 -0.1690
  830MOL0     O 9458   3.838   2.938  10.750 -0.3873 -0.5296 -0.6907
  830MOL0     C 9459   3.720   2.953  10.683 -0.2549  0.1009  0.0778
  830MOL0     C 9460   3.718   3.030  10.569 -0.2069 -0.4602  0.0859
  830MOL0     C 9461   3.603   3.051  10.499 -0.7141 -0.5750  0.5189
  830MOL0     C 9462   3.486   2.989  10.551 -1.1604 -0.4136 -0.2875
  830MOL0     O 9463   3.367   3.013  10.485  0.2897 -0.3480  0.1903
  830MOL0     C 9464   3.354   3.131  10.405 -0.5314  0.2471 -0.3968
  830MOL0     C 9465   3.209   3.167  10.365  0.0624 -0.2273 -0.0858
  830MOL0     C 9466   3.143   3.060  10.274  0.1817 -0.1860 -0.2571
  830MOL0     C 9467   3.010   3.116  10.213  0.5431  0.1470 -0.1836
  830MOL0     C 9468   2.985   3.052  10.073  0.4983  0.0573 -0.3893
  830MOL0     C 9469   2.847   3.095  10.018  0.9035 -0.0493  0.2412
  830MOL0     C 9470   2.806   2.994   9.906  0.0585  1.4330  0.9242
  830MOL0     C 9471   2.662   2.940   9.917 -0.0944 -0.4591  0.2376
  830MOL0    Cl 9472   2.561   3.079   9.881  0.2292 -0.1819 -0.3647
  830MOL0     C 9473   3.486   2.904  10.669  0.1690 -1.0841  0.5139
  830MOL0     C 9474   3.608   2.888  10.732  0.3084  0.0514  0.9223
  830MOL0     O 9475   3.757   3.079  10.919  0.4658  0.3052 -0.0349
  830MOL0     C 9476   3.997   3.041  11.071  0.1683 -0.0525  0.8332
  830MOL0     C 9477   4.127   3.025  11.136  0.0304  0.2089  0.0862
  830MOL0     N 9478   4.552   3.434  11.054 -0.2281  0.5252 -1.2192
  830MOL0     N 9479   4.638   3.454  10.956  0.9839 -0.7528 -0.4393
  830MOL0     C 9480   6.042   3.580  10.746 -0.7778  0.0473  0.3761
  830MOL0     C 9481   6.171   3.597  10.789  0.6954  0.6837 -1.0303
  830MOL0     C 9482   6.573   3.591  10.988  0.5401 -0.4536  1.1763
  830MOL0     C 9483   6.690   3.519  10.950  0.2634  0.1041 -0.0565
  830MOL0     C 9484   6.822   3.544  11.009  0.9700  0.4602 -0.0427
  830MOL0     C 9485   6.834   3.627  11.116 -1.0522  0.2011  0.1762
  830MOL0     O 9486   6.964   3.642  11.152  0.1814 -0.0843 -0.3330
  830MOL0     C 9487   6.989   3.751  11.244 -0.1707  0.2797 -0.4947
  830MOL0     C 9488   7.142   3.747  11.278  0.0182 -0.9273 -0.0811
  830MOL0     C 9489   7.238   3.762  11.159 -0.0225 -0.8042 -0.7207
  830MOL0     C 9490   7.381   3.785  11.198  0.4478 -0.7174  0.2066
  830MOL0     C 9491   7.471   3.800  11.079  0.4314 -0.2433 -0.0185
  830MOL0     C 9492   7.529   3.825  10.978 -0.0765  1.2148  0.0446
  830MOL0     C 9493   6.723   3.694  11.159  0.3369  0.3423  0.6602
  830MOL0     C 9494   6.597   3.682  11.092 -0.4016 -0.2797  0.2375
  830MOL0     H 9495   6.119   3.539  11.126  1.5230  0.1682  0.0135
  830MOL0     H 9496   5.880   3.520  11.044 -2.9245 -2.7355 -3.2578
  830MOL0     H 9497   5.681   3.586  10.930 -1.4214 -0.9486  0.4458
  830MOL0     H 9498   5.702   3.407  10.934  0.7585  0.1148  0.3751
  830MOL0     H 9499   5.577   3.423  10.692 -1.5394  0.7162 -1.7090
  830MOL0     H 9500   5.542   3.588  10.747  0.6399 -0.1644 -1.4689
  830MOL0     H 9501   5.432   3.484  10.955 -0.4381 -1.5315  1.0835
  830MOL0     H 9502   5.471   3.322  10.891  0.0076 -0.2656  0.1080
  830MOL0     H 9503   5.301   3.513  10.725 -0.6096  0.2364  0.6802
  830MOL0     H 9504   5.326   3.345  10.689 -2.2844  0.1199 -0.8032
  830MOL0     H 9505   5.235   3.294  10.927  0.9862 -2.4867 -2.1565
  830MOL0     H 9506   5.128   3.316  10.790 -1.1492  0.5635  0.7225
  830MOL0     H 9507   5.094   3.558  10.847 -0.7716  1.7470  2.4944
  830MOL0     H 9508   5.193   3.548  10.994 -1.1834 -1.6817  2.5882
  830MOL0     H 9509   5.030   3.370  11.084 -1.7450 -1.4851 -1.8244
  830MOL0     H 9510   4.991   3.539  11.072  2.3410  0.1470 -0.1936
  830MOL0     H 9511   4.908   3.332  10.863  1.0553  0.8486 -1.9937
  830MOL0     H 9512   4.869   3.510  10.859  1.7892  0.5805 -0.3891
  830MOL0     H 9513   4.819   3.307  11.182 -0.4613  1.5466  1.0338
  830MOL0     H 9514   4.464   3.391  11.294 -1.4809 -1.3112 -2.3838
  830MOL0     H 9515   4.635   3.367  11.355  0.4809 -3.8256  1.3479
  830MOL0     H 9516   4.499   3.140  11.397  0.5104 -1.0408  1.1266
  830MOL0     H 9517   4.636   3.140  11.289 -0.1930  0.8208 -0.0987
  830MOL0     H 9518   4.341   3.184  11.203  0.0677 -1.0996  1.1874
  830MOL0     H 9519   4.489   3.132  11.103  0.7783 -1.0516 -0.4985
  830MOL0     H 9520   4.339   2.983  11.311 -0.3342 -1.8322 -0.3927
  830MOL0     H 9521   4.500   2.938  11.247  0.5607 -0.4056 -0.7684
  830MOL0     H 9522   4.280   2.845  10.893 -0.1338 -0.5328 -0.5358
  830MOL0     H 9523   4.065   2.893  10.774  1.5566  0.6458 -0.1898
  830MOL0     H 9524   3.812   3.072  10.532  0.9352  0.3845  3.5802
  830MOL0     H 9525   3.604   3.092  10.399  3.7327  1.4560  1.1580
  830MOL0     H 9526   3.416   3.114  10.316 -1.4027 -0.1988 -0.9227
  830MOL0     H 9527   3.382   3.215  10.469  2.2525 -2.2483  1.9278
  830MOL0     H 9528   3.206   3.263  10.312  3.1666 -0.1482 -0.2702
  830MOL0     H 9529   3.147   3.179  10.454  0.4701  1.7280 -0.0183
  830MOL0     H 9530   3.120   2.964  10.321 -3.8192  1.8870  2.7379
  830MOL0     H 9531   3.221   3.044  10.200 -0.5900  0.3019 -1.2015
  830MOL0     H 9532   2.925   3.097  10.279 -0.6317 -0.2199 -1.7550
  830MOL0     H 9533   3.021   3.224  10.199  0.1598  0.0953 -0.9001
  830MOL0     H 9534   2.979   2.945  10.094 -2.1934  0.5473  2.0333
  830MOL0     H 9535   3.062   3.086  10.003  0.0611 -0.6131 -1.2030
  830MOL0     H 9536   2.835   3.187   9.960 -1.2456 -2.2050 -3.0681
  830MOL0     H 9537   2.777   3.097  10.102  1.9283 -2.5235  1.2436
  830MOL0     H 9538   2.821   3.032   9.805 -2.4262 -2.1866 -1.0157
  830MOL0     H 9539   2.869   2.904   9.908 -1.2293  0.2732 -2.5150
  830MOL0     H 9540   2.652   2.901  10.019  0.8349  1.5372  1.1318
  830MOL0     H 9541   2.647   2.858   9.846  2.6378 -0.1031 -0.8458
  830MOL0     H 9542   3.393   2.854  10.695 -1.6276  0.8438 -1.7732
  830MOL0     H 9543   3.605   2.837  10.828  3.8706  4.0248  3.5017
  830MOL0     H 9544   3.928   3.116  11.108  2.1328  2.9775 -1.1679
  830MOL0     H 9545   4.145   3.066  11.234 -0.7168 -0.2886  0.4369
  830MOL0     H 9546   6.026   3.589  10.639 -0.4647 -0.5530  0.2738
  830MOL0     H 9547   6.255   3.613  10.723 -0.9457 -0.4619 -3.5834
  830MOL0     H 9548   6.694   3.446  10.870 -0.0537 -2.7895  2.4049
  830MOL0     H 9549   6.914   3.513  10.961  0.4284 -0.3319 -0.6024
  830MOL0     H 9550   6.927   3.751  11.334 -2.2911 -0.4045 -1.8901
  830MOL0     H 9551   6.960   3.850  11.208 -1.5985 -0.4556 -1.4485
  830MOL0     H 9552   7.167   3.835  11.338  1.4374 -1.0506 -0.4455
  830MOL0     H 9553   7.184   3.666  11.338  0.2330 -1.5645 -1.0622
  830MOL0     H 9554   7.216   3.849  11.097 -0.9391 -1.3997 -1.2620
  830MOL0     H 9555   7.225   3.669  11.102 -3.7121 -1.9202  1.5379
  830MOL0     H 9556   7.387   3.873  11.262 -0.9885 -0.0900 -0.4815
  830MOL0     H 9557   7.426   3.700  11.250 -1.1057 -1.9376 -0.3735
  830MOL0     H 9558   7.590   3.836  10.890 -0.4246  0.7212 -0.2613
  830MOL0     H 9559   6.725   3.773  11.234  0.8161 -0.5541  1.6112
  830MOL0     H 9560   6.514   3.749  11.113  0.2976  0.4186  0.8570
  831MOL0     O 9561   8.742   9.101   3.009  0.3386  0.2421 -0.0891
  831MOL0     C 9562   8.806   9.045   3.097 -0.6181  0.4471 -0.1462
  831MOL0     O 9563   8.755   9.006   3.213 -1.0751  0.6257 -0.8178
  831MOL0     C 9564   8.626   9.047   3.253 -0.7145 -0.7641  0.5302
  831MOL0     C 9565   8.608   9.145   3.355 -0.5282 -0.0719  0.0943
  831MOL0     C 9566   8.481   9.191   3.389 -0.0057 -0.0200 -0.7882
  831MOL0     C 9567   8.371   9.132   3.327 -0.2860 -0.7082  0.2570
  831MOL0     O 9568   8.239   9.166   3.364  0.1733 -0.3011  0.3198
  831MOL0     C 9569   8.213   9.296   3.409 -0.5833 -0.3227  0.1697
  831MOL0     C 9570   8.070   9.332   3.423 -0.3144  0.4592 -0.0527
  831MOL0     C 9571   7.980   9.322   3.296 -0.5506 -0.3565 -0.4325
  831MOL0     C 9572   7.834   9.311   3.341 -0.5369 -0.1818  0.2552
  831MOL0     C 9573   7.743   9.331   3.219  0.4931 -0.9493  0.2285
  831MOL0     C 9574   7.599   9.283   3.257  0.2810  0.3545 -0.2276
  831MOL0     C 9575   7.532   9.364   3.369  0.1690 -0.5837 -0.0394
  831MOL0     C 9576   7.542   9.512   3.341  0.5466 -0.2080  0.1499
  831MOL0     N 9577   7.454   9.601   3.421  0.1588 -0.9165 -0.8250
  831MOL0     C 9578   7.327   9.631   3.380  0.4814 -0.6268 -0.0649
  831MOL0     C 9579   7.291   9.728   3.468 -0.0770  1.1026  0.7147
  831MOL0     C 9580   7.161   9.797   3.498 -0.2916 -0.6735 -0.2893
  831MOL0     C 9581   7.100   9.866   3.374  0.0400 -0.5710 -0.2210
  831MOL0     C 9582   7.012   9.986   3.421 -0.1684  0.9686  0.9984
  831MOL0     C 9583   6.913  10.027   3.309  0.1869  0.4747  0.0891
  831MOL0     O 9584   6.841  10.135   3.350  0.6850 -0.3987  0.1802
  831MOL0     C 9585   6.727  10.173   3.287  0.3996 -0.3083  0.7672
  831MOL0     C 9586   6.635  10.236   3.370 -0.4918 -0.3334  0.2627
  831MOL0     C 9587   6.513  10.280   3.333 -0.5552 -0.1067  0.6494
  831MOL0     C 9588   6.481  10.259   3.195  0.3490 -0.8060 -0.0259
  831MOL0     C 9589   6.343  10.303   3.152 -0.9797 -0.5786 -0.2954
  831MOL0     O 9590   6.256  10.334   3.261  0.2521 -0.6261 -0.1075
  831MOL0     C 9591   6.129  10.374   3.245 -0.4088 -0.4922 -0.1396
  831MOL0     C 9592   6.100  10.470   3.146  0.3893  0.0978 -0.3585
  831MOL0     C 9593   5.962  10.498   3.140 -0.4998 -0.5782 -0.2874
  831MOL0     C 9594   5.865  10.451   3.228  0.2203 -0.4526  0.8954
  831MOL0     O 9595   5.732  10.483   3.225  0.1122  0.1054 -0.6099
  831MOL0     C 9596   5.703  10.598   3.145  0.7387 -0.3353 -0.2663
  831MOL0     C 9597   5.558  10.654   3.142  0.2431  0.2044  0.0598
  831MOL0     C 9598   5.456  10.539   3.160  0.4840 -0.0032  0.5261
  831MOL0     C 9599   5.312  10.593   3.171  0.7778  0.5521  0.2693
  831MOL0     C 9600   5.239  10.620   3.039  0.0198  0.1360  0.0350
  831MOL0     C 9601   5.096  10.664   3.080  0.4471 -0.1084  0.5614
  831MOL0     C 9602   5.021  10.669   2.948 -0.4804 -0.7471 -0.2940
  831MOL0     C 9603   4.876  10.719   2.952 -0.2772 -0.1502 -0.5034
  831MOL0    Cl 9604   4.772  10.587   3.009 -0.5168 -0.1573 -0.0487
  831MOL0     C 9605   5.907  10.351   3.323  0.1073 -1.2074  0.7069
  831MOL0     C 9606   6.035  10.320   3.341  0.1517  0.6174  0.6428
  831MOL0     O 9607   6.313  10.318   3.033 -1.2102 -0.4128  0.4027
  831MOL0     C 9608   6.577  10.209   3.104  0.3902 -0.0522 -0.6433
  831MOL0     C 9609   6.705  10.175   3.144  0.0617  0.6790 -0.3312
  831MOL0     N 9610   7.399   9.772   3.543 -0.0762 -0.5226 -0.5580
  831MOL0     N 9611   7.494   9.695   3.508  0.8613  0.2191 -0.3587
  831MOL0     C 9612   8.390   9.035   3.226  0.2859 -0.6836 -0.2029
  831MOL0     C 9613   8.520   8.990   3.188  0.3516 -0.1659  0.5598
  831MOL0     C 9614   8.953   9.045   3.069 -0.6795  0.3746 -0.4195
  831MOL0     C 9615   9.043   9.001   3.171 -0.1351 -0.4642 -0.3661
  831MOL0     C 9616   9.179   9.004   3.143 -0.3796  0.7574  0.1965
  831MOL0     C 9617   9.229   9.050   3.025  0.6991 -0.7442  0.4448
  831MOL0     O 9618   9.365   9.054   3.019  0.0403 -0.1564 -0.6099
  831MOL0     C 9619   9.419   9.043   2.886  0.4139 -0.3396 -0.2429
  831MOL0     C 9620   9.529   8.945   2.882  0.4153  0.8658 -0.8525
  831MOL0     C 9621   9.644   8.971   2.978  0.3253 -1.0040  0.4932
  831MOL0     C 9622   9.744   8.862   3.001 -0.4855  0.1107 -0.1469
  831MOL0     C 9623   9.858   8.908   3.085  0.6809 -0.7820  0.1519
  831MOL0     C 9624   9.940   8.958   3.153 -0.6315  0.0847  0.0604
  831MOL0     C 9625   9.139   9.087   2.928 -0.0043  0.1397  0.4119
  831MOL0     C 9626   9.004   9.085   2.948 -0.6466 -0.3436  0.0071
  831MOL0     H 9627   8.699   9.184   3.399 -1.0104  1.8446 -0.5022
  831MOL0     H 9628   8.466   9.264   3.468  2.3096 -0.9009  0.5500
  831MOL0     H 9629   8.258   9.366   3.338 -0.4309 -0.5051  0.0840
  831MOL0     H 9630   8.259   9.304   3.507 -1.4442  0.3785  0.5249
  831MOL0     H 9631   8.069   9.429   3.473 -0.8269 -0.6144  2.1843
  831MOL0     H 9632   8.025   9.255   3.486 -1.6420 -0.6964 -2.2672
  831MOL0     H 9633   8.000   9.232   3.235  1.6019  0.5559 -1.1744
  831MOL0     H 9634   7.996   9.409   3.232 -0.7947  0.2598  0.3371
  831MOL0     H 9635   7.814   9.214   3.388  1.3065  0.2801  2.1126
  831MOL0     H 9636   7.810   9.386   3.416 -1.6797 -1.8608  1.6392
  831MOL0     H 9637   7.776   9.264   3.139 -1.0268 -2.6296  0.9634
  831MOL0     H 9638   7.741   9.434   3.180 -1.6764 -1.6885 -1.9284
  831MOL0     H 9639   7.604   9.179   3.293 -0.7112  0.6032  0.6614
  831MOL0     H 9640   7.541   9.271   3.165  0.0166  0.4609 -0.0750
  831MOL0     H 9641   7.426   9.338   3.375 -0.0402  0.4517  1.1389
  831MOL0     H 9642   7.572   9.332   3.466  1.7824 -1.3376 -0.9174
  831MOL0     H 9643   7.512   9.524   3.236 -2.1567 -0.0438  0.8571
  831MOL0     H 9644   7.645   9.546   3.355  1.7832 -2.9888 -1.3598
  831MOL0     H 9645   7.272   9.574   3.305  0.3603  1.0987 -1.3308
  831MOL0     H 9646   7.176   9.870   3.579 -0.1584 -2.9118  1.8107
  831MOL0     H 9647   7.087   9.727   3.538 -0.5008 -0.2993 -0.0080
  831MOL0     H 9648   7.056   9.789   3.309  3.5730 -2.2816 -0.8450
  831MOL0     H 9649   7.180   9.904   3.309 -1.2173  1.1475 -0.8349
  831MOL0     H 9650   6.954   9.960   3.511 -1.0694 -0.4184  0.0543
  831MOL0     H 9651   7.075  10.074   3.437 -1.2695  1.7463  1.2684
  831MOL0     H 9652   6.840   9.947   3.293  0.0040  0.5431  0.5803
  831MOL0     H 9653   6.961  10.046   3.212  0.4074 -0.9212 -0.1040
  831MOL0     H 9654   6.663  10.255   3.473  0.7405 -0.8197  0.0422
  831MOL0     H 9655   6.442  10.334   3.395 -1.9985  3.7319 -3.7347
  831MOL0     H 9656   6.173  10.515   3.080  2.2928 -0.7604  1.0578
  831MOL0     H 9657   5.939  10.574   3.066 -1.1813  1.4765  1.9265
  831MOL0     H 9658   5.731  10.587   3.040  0.6496  4.3181 -0.9993
  831MOL0     H 9659   5.750  10.691   3.178 -0.1943  0.0605 -0.0035
  831MOL0     H 9660   5.539  10.700   3.044  0.9538  1.2710  0.4132
  831MOL0     H 9661   5.546  10.728   3.222  0.6333  1.8989 -1.3690
  831MOL0     H 9662   5.483  10.477   3.246  0.5938 -1.1185 -0.2822
  831MOL0     H 9663   5.459  10.470   3.075  0.0340  0.1837  0.3571
  831MOL0     H 9664   5.248  10.518   3.218  3.0365 -1.5940  0.1673
  831MOL0     H 9665   5.298  10.681   3.235 -1.5596  1.4265 -1.3352
  831MOL0     H 9666   5.236  10.531   2.976  0.0257  1.6453 -2.2037
  831MOL0     H 9667   5.274  10.710   2.988  0.6463  0.0062  0.2228
  831MOL0     H 9668   5.093  10.763   3.127  1.0107  0.4803 -0.6159
  831MOL0     H 9669   5.049  10.594   3.150 -3.6366  2.2746  0.4733
  831MOL0     H 9670   5.078  10.737   2.884 -2.1236  1.1500  0.1615
  831MOL0     H 9671   5.019  10.571   2.898 -1.5624  0.2220 -2.2732
  831MOL0     H 9672   4.859  10.747   2.847  3.4973 -1.9643 -1.7516
  831MOL0     H 9673   4.864  10.804   3.020  0.0670  0.0319 -0.6651
  831MOL0     H 9674   5.826  10.315   3.387 -0.8776  1.2752  1.0034
  831MOL0     H 9675   6.072  10.243   3.408 -0.5602 -0.7506 -0.4874
  831MOL0     H 9676   6.539  10.202   3.003 -1.7506 -1.7831  0.1920
  831MOL0     H 9677   6.777  10.159   3.064 -1.3880  1.6798 -1.9374
  831MOL0     H 9678   8.299   8.997   3.181 -2.3202  2.7940  1.6846
  831MOL0     H 9679   8.533   8.907   3.119 -1.4733 -2.1563  2.4623
  831MOL0     H 9680   9.010   8.955   3.264 -0.2821  0.5317  0.0872
  831MOL0     H 9681   9.254   8.980   3.218 -1.2584 -2.3312  0.2549
  831MOL0     H 9682   9.462   9.135   2.847 -0.1392  0.3980  0.8480
  831MOL0     H 9683   9.345   9.012   2.811  1.0315 -0.4532 -0.8110
  831MOL0     H 9684   9.488   8.847   2.910 -1.4867  1.2503 -2.1128
  831MOL0     H 9685   9.559   8.933   2.777  0.8523 -1.2481 -0.5405
  831MOL0     H 9686   9.610   9.008   3.075  1.4028 -0.7753  0.7922
  831MOL0     H 9687   9.703   9.054   2.938  0.0743 -0.3880  1.3672
  831MOL0     H 9688   9.684   8.783   3.046 -1.1823  0.7557  0.0830
  831MOL0     H 9689   9.785   8.825   2.907  0.1678 -1.2764  0.6525
  831MOL0     H 9690  10.013   9.003   3.217 -1.1309  0.1278  0.6146
  831MOL0     H 9691   9.178   9.133   2.838  2.1444 -0.6634  0.8708
  831MOL0     H 9692   8.939   9.130   2.873 -0.2294  1.8680  0.8957
  832MOL0     O 9693   1.875   8.058   0.116 -0.4111  0.1042  0.4246
  832MOL0     C 9694   1.893   8.082   0.233  0.2207 -0.0690 -0.2306
  832MOL0     O 9695   1.817   8.027   0.332  0.2256  0.3017 -0.4862
  832MOL0     C 9696   1.714   7.938   0.298 -0.5361  0.6451 -0.8512
  832MOL0     C 9697   1.737   7.806   0.283  0.8824  0.1285 -0.3219
  832MOL0     C 9698   1.631   7.711   0.279  0.5049 -1.3584 -0.2570
  832MOL0     C 9699   1.492   7.755   0.276  0.0014  0.2543 -0.2361
  832MOL0     O 9700   1.379   7.675   0.269 -0.1110  0.1655 -0.1582
  832MOL0     C 9701   1.402   7.533   0.263  0.2832  0.6690 -0.2078
  832MOL0     C 9702   1.272   7.451   0.252 -0.3888 -0.5555  0.0357
  832MOL0     C 9703   1.301   7.305   0.235 -0.0138  0.3088  0.0514
  832MOL0     C 9704   1.184   7.210   0.257  0.4045 -0.1325  0.1022
  832MOL0     C 9705   1.230   7.057   0.249 -1.2544 -0.4877 -0.0648
  832MOL0     C 9706   1.101   6.962   0.252 -0.0707 -0.1237 -0.3599
  832MOL0     C 9707   0.994   6.982   0.137 -0.4915 -0.9508  0.0684
  832MOL0     C 9708   0.887   6.877   0.135 -0.4669  0.2848 -0.8030
  832MOL0     N 9709   0.805   6.886   0.261 -0.1037  0.0196  0.3402
  832MOL0     C 9710   0.741   6.999   0.310  0.0686  1.3074  0.3486
  832MOL0     C 9711   0.684   6.962   0.428  0.2475 -0.2150  0.2738
  832MOL0     C 9712   0.629   7.061   0.520  0.9635 -0.4460 -0.2747
  832MOL0     C 9713   0.486   7.102   0.498 -0.4517 -0.6610  0.1368
  832MOL0     C 9714   0.377   7.000   0.515 -0.7893  0.1876  0.3253
  832MOL0     C 9715   0.241   7.058   0.535  0.6409  0.5242 -0.1145
  832MOL0     O 9716   0.203   7.135   0.418 -0.2529 -0.1192 -0.4522
  832MOL0     C 9717   0.102   7.231   0.435  0.1565 -0.1166 -0.8076
  832MOL0     C 9718  -0.022   7.212   0.381  0.4988  0.1342  0.0525
  832MOL0     C 9719  -0.126   7.294   0.424  0.3818 -0.1593  0.1949
  832MOL0     C 9720  -0.109   7.414   0.510 -0.5413  0.6092  0.5294
  832MOL0     C 9721  -0.225   7.500   0.533 -0.6372 -0.4930  0.1838
  832MOL0     O 9722  -0.342   7.472   0.463 -0.3415 -0.7051  0.6134
  832MOL0     C 9723  -0.450   7.564   0.458 -0.9507 -0.9724 -0.2897
  832MOL0     C 9724  -0.512   7.569   0.334 -0.3786  0.0263  0.3018
  832MOL0     C 9725  -0.619   7.656   0.311  0.1740  0.5993 -0.2203
  832MOL0     C 9726  -0.675   7.729   0.419  0.9981 -1.6423 -0.4694
  832MOL0     O 9727  -0.787   7.808   0.407 -1.0997 -0.3960 -0.0295
  832MOL0     C 9728  -0.838   7.892   0.513 -0.5700  0.1507 -0.0663
  832MOL0     C 9729  -0.965   7.973   0.475  0.0394 -0.2719 -0.4530
  832MOL0     C 9730  -1.097   7.897   0.501 -1.1514 -0.4262  0.3468
  832MOL0     C 9731  -1.109   7.756   0.436 -0.5034  0.1348 -0.2983
  832MOL0     C 9732  -1.246   7.685   0.478 -0.3058 -0.4489 -0.3073
  832MOL0     C 9733  -1.249   7.547   0.417 -1.0647  1.2092  0.0915
  832MOL0     C 9734  -1.130   7.460   0.472  0.7852  0.0216  0.0215
  832MOL0     C 9735  -1.018   7.440   0.374 -0.0115  0.0420 -0.1104
  832MOL0    Cl 9736  -1.052   7.317   0.248 -0.1007  0.0543  0.2743
  832MOL0     C 9737  -0.603   7.726   0.546  0.0657 -0.0146 -0.4694
  832MOL0     C 9738  -0.496   7.644   0.570  0.3005 -0.1986  0.0748
  832MOL0     O 9739  -0.209   7.586   0.619  0.2861 -0.1398 -0.3596
  832MOL0     C 9740   0.023   7.429   0.562 -0.3023 -0.7151  0.6378
  832MOL0     C 9741   0.127   7.345   0.520 -0.0506  1.1402 -0.2465
  832MOL0     N 9742   0.710   6.824   0.447  0.1597  0.0071  0.0476
  832MOL0     N 9743   0.773   6.784   0.343  0.1119 -0.1901 -0.7350
  832MOL0     C 9744   1.480   7.890   0.271  0.5385 -0.1339  0.3017
  832MOL0     C 9745   1.589   7.982   0.284 -0.6930  0.5979  0.3823
  832MOL0     C 9746   2.011   8.158   0.274  0.1911  0.2512  0.1885
  832MOL0     C 9747   2.047   8.167   0.411 -0.3842  1.2070  0.1804
  832MOL0     C 9748   2.168   8.231   0.458 -0.0913  0.5372 -0.7714
  832MOL0     C 9749   2.248   8.288   0.355 -0.0747  0.5345  0.3481
  832MOL0     O 9750   2.378   8.328   0.402  0.1098 -0.1443 -0.0471
  832MOL0     C 9751   2.474   8.397   0.321 -0.3236 -0.0541 -0.1328
  832MOL0     C 9752   2.555   8.487   0.399  0.7215  0.2793  0.0137
  832MOL0     C 9753   2.689   8.526   0.344  0.1001 -0.7250 -0.1843
  832MOL0     C 9754   2.795   8.564   0.447  0.4064 -0.3609  0.4885
  832MOL0     C 9755   2.742   8.682   0.525  0.1714 -0.3770  0.3618
  832MOL0     C 9756   2.696   8.784   0.580 -0.2681  0.7687 -0.2791
  832MOL0     C 9757   2.216   8.283   0.221 -0.2894 -0.5622 -0.0278
  832MOL0     C 9758   2.095   8.227   0.181  1.2343 -0.5946  0.3874
  832MOL0     H 9759   1.840   7.770   0.283  1.5663  1.9686 -1.5835
  832MOL0     H 9760   1.662   7.608   0.268  0.6541 -1.1986 -1.6149
  832MOL0     H 9761   1.464   7.501   0.348  1.1267 -0.3380 -1.1725
  832MOL0     H 9762   1.458   7.507   0.173 -1.0401 -1.5759 -0.4698
  832MOL0     H 9763   1.213   7.488   0.168 -0.3414  1.1812  0.7219
  832MOL0     H 9764   1.208   7.458   0.340  0.2169  1.4513  0.3610
  832MOL0     H 9765   1.386   7.289   0.302 -1.2661  1.6189  2.0560
  832MOL0     H 9766   1.338   7.282   0.134  0.6932  0.9510  0.1510
  832MOL0     H 9767   1.140   7.230   0.355 -1.7013  0.2623 -0.8494
  832MOL0     H 9768   1.103   7.243   0.190 -0.3410 -0.7145  0.6910
  832MOL0     H 9769   1.301   7.036   0.329  0.5185  4.3542 -0.0667
  832MOL0     H 9770   1.297   7.042   0.164  2.2515 -0.8110  2.5620
  832MOL0     H 9771   1.054   6.980   0.349  4.1255  1.0304  1.7064
  832MOL0     H 9772   1.137   6.859   0.243 -1.6205 -0.9602  2.0841
  832MOL0     H 9773   0.945   7.079   0.145 -1.9351 -1.7335  1.1428
  832MOL0     H 9774   1.047   6.975   0.041  0.2556 -0.9665  0.4736
  832MOL0     H 9775   0.918   6.772   0.131 -1.8781 -0.3246  1.8121
  832MOL0     H 9776   0.817   6.888   0.052 -3.3299 -1.8865  1.1261
  832MOL0     H 9777   0.738   7.094   0.258  0.2411  1.7006  1.0495
  832MOL0     H 9778   0.688   7.153   0.513 -3.0397  2.4355  0.3308
  832MOL0     H 9779   0.636   7.026   0.624  0.0269  1.1770  0.3847
  832MOL0     H 9780   0.480   7.148   0.399  0.8657  1.4440  0.9807
  832MOL0     H 9781   0.458   7.185   0.562  1.5778  1.0212 -1.0323
  832MOL0     H 9782   0.373   6.924   0.436 -4.1242 -0.3809  0.8736
  832MOL0     H 9783   0.403   6.954   0.611 -1.2738  0.3122  0.5241
  832MOL0     H 9784   0.237   7.112   0.630 -1.7825 -1.3387  0.9487
  832MOL0     H 9785   0.168   6.977   0.543 -0.0376  1.2789  2.4590
  832MOL0     H 9786  -0.053   7.127   0.321  0.8615  1.1900 -1.6972
  832MOL0     H 9787  -0.224   7.267   0.386  2.0357 -2.2585 -3.0710
  832MOL0     H 9788  -0.472   7.497   0.264  0.2965  0.8533 -0.1914
  832MOL0     H 9789  -0.677   7.642   0.221 -2.5274 -1.9631  1.7094
  832MOL0     H 9790  -0.760   7.959   0.551 -0.3980 -1.0138  1.7290
  832MOL0     H 9791  -0.858   7.822   0.594 -0.8374  0.1214 -0.1550
  832MOL0     H 9792  -0.956   8.005   0.371 -0.8755 -0.7743 -0.7006
  832MOL0     H 9793  -0.971   8.065   0.533 -0.3178 -0.4772 -0.1581
  832MOL0     H 9794  -1.180   7.964   0.475 -1.9904 -0.1578  3.3505
  832MOL0     H 9795  -1.107   7.883   0.609  2.5389 -0.7457  0.7587
  832MOL0     H 9796  -1.092   7.764   0.328  1.8001 -1.7896 -0.1528
  832MOL0     H 9797  -1.026   7.691   0.466 -1.4035 -0.7574  0.3428
  832MOL0     H 9798  -1.334   7.741   0.443  0.6242  0.4699 -1.2374
  832MOL0     H 9799  -1.252   7.681   0.587  1.5822 -1.2045 -0.1953
  832MOL0     H 9800  -1.243   7.565   0.310 -1.1218  2.0519  0.2284
  832MOL0     H 9801  -1.346   7.500   0.437  0.0119 -1.0693  0.3280
  832MOL0     H 9802  -1.090   7.512   0.559  0.4700 -1.4339  1.0781
  832MOL0     H 9803  -1.168   7.361   0.499 -0.9201  0.7266  0.3602
  832MOL0     H 9804  -0.936   7.403   0.435  0.7175  2.2841  0.3832
  832MOL0     H 9805  -0.975   7.530   0.328 -2.2190  0.5881 -1.2372
  832MOL0     H 9806  -0.630   7.793   0.627  0.3633 -0.5816  0.1065
  832MOL0     H 9807  -0.439   7.635   0.662  0.1832 -1.0888  0.0639
  832MOL0     H 9808   0.049   7.509   0.631  1.8430 -2.0528  1.4742
  832MOL0     H 9809   0.224   7.366   0.564  0.0993 -0.7972  0.4540
  832MOL0     H 9810   1.378   7.924   0.255 -0.9181 -4.2605 -0.5127
  832MOL0     H 9811   1.555   8.085   0.286 -0.3833  0.7136 -0.1320
  832MOL0     H 9812   1.989   8.109   0.481 -3.2463  1.4869 -1.8034
  832MOL0     H 9813   2.197   8.241   0.562 -4.1230  2.3372  0.3863
  832MOL0     H 9814   2.431   8.451   0.237  3.4822  1.5181 -1.2877
  832MOL0     H 9815   2.538   8.316   0.283 -1.0281 -0.6318 -0.1087
  832MOL0     H 9816   2.490   8.572   0.420 -0.2686  0.1500 -2.2166
  832MOL0     H 9817   2.577   8.426   0.487  2.2853 -0.9960 -1.1992
  832MOL0     H 9818   2.672   8.603   0.268  0.0277  0.3724  0.9243
  832MOL0     H 9819   2.733   8.447   0.282 -1.2726 -2.0736  0.4852
  832MOL0     H 9820   2.813   8.483   0.517 -1.2737  0.4227  1.9034
  832MOL0     H 9821   2.891   8.596   0.406  0.0523  0.4509  0.2519
  832MOL0     H 9822   2.659   8.867   0.637 -0.8064 -0.3871  1.1225
  832MOL0     H 9823   2.285   8.303   0.140  1.2654 -2.6567  0.6860
  832MOL0     H 9824   2.068   8.243   0.077 -1.7118  1.5672  1.3276
  833MOL0     O 9825   0.575   2.520   0.230  0.6022  0.9991 -0.1713
  833MOL0     C 9826   0.586   2.638   0.193  0.3650 -0.5100 -0.5424
  833MOL0     O 9827   0.685   2.723   0.229 -0.0279 -0.7272  0.4110
  833MOL0     C 9828   0.791   2.666   0.274 -0.6984  0.6414 -0.2314
  833MOL0     C 9829   0.811   2.636   0.409 -0.6426  0.5242 -0.3043
  833MOL0     C 9830   0.919   2.557   0.449 -0.2354  0.9648  0.4389
  833MOL0     C 9831   1.012   2.510   0.358 -0.5670  0.1764 -0.3455
  833MOL0     O 9832   1.126   2.443   0.396  0.2557  0.2230  0.4135
  833MOL0     C 9833   1.177   2.468   0.535 -0.2770  1.1484  0.6101
  833MOL0     C 9834   1.327   2.432   0.516 -0.4211  0.4012  0.0134
  833MOL0     C 9835   1.435   2.476   0.620 -0.9805  0.3821  0.2133
  833MOL0     C 9836   1.391   2.468   0.768  0.1542  0.1751  1.5949
  833MOL0     C 9837   1.490   2.515   0.869  0.4254 -0.1819 -1.1811
  833MOL0     C 9838   1.632   2.441   0.856 -0.3611  0.4978 -0.4325
  833MOL0     C 9839   1.717   2.501   0.961 -0.5149 -1.0809 -0.3933
  833MOL0     C 9840   1.859   2.427   0.961  0.0653  0.4743 -0.2942
  833MOL0     N 9841   1.949   2.491   1.050  0.3485  0.7166  0.7244
  833MOL0     C 9842   2.008   2.613   1.022  0.6794  1.3009  0.2805
  833MOL0     C 9843   2.105   2.627   1.109  0.7920 -0.4222  0.3374
  833MOL0     C 9844   2.218   2.723   1.086  0.8148  0.6191 -0.6100
  833MOL0     C 9845   2.235   2.808   1.214  0.5599 -0.3926 -0.6767
  833MOL0     C 9846   2.162   2.937   1.225  0.4889 -0.2808 -0.1982
  833MOL0     C 9847   2.013   2.935   1.231  0.1721 -0.6575 -0.0872
  833MOL0     O 9848   1.957   2.920   1.090 -0.2780 -0.8618 -0.7869
  833MOL0     C 9849   1.820   2.930   1.077 -0.0046 -0.3363  0.0964
  833MOL0     C 9850   1.728   2.847   1.132  0.5021  0.4909  0.1147
  833MOL0     C 9851   1.592   2.839   1.091 -0.3153  0.0558 -0.0907
  833MOL0     C 9852   1.544   2.939   1.002  0.2831 -0.3134 -0.3226
  833MOL0     C 9853   1.404   2.940   0.952 -0.2602  0.4464  0.2935
  833MOL0     O 9854   1.332   2.842   1.002 -0.2115 -0.1748  0.8486
  833MOL0     C 9855   1.211   2.820   0.955  0.8323  0.7231  0.1312
  833MOL0     C 9856   1.192   2.799   0.822 -0.1481  0.6228  0.9043
  833MOL0     C 9857   1.059   2.788   0.774 -0.1588 -0.0097  0.6425
  833MOL0     C 9858   0.950   2.781   0.858  0.6346 -0.0992 -0.7709
  833MOL0     O 9859   0.832   2.774   0.798  0.7641 -0.2900  0.0393
  833MOL0     C 9860   0.709   2.788   0.866 -0.0337 -0.3797 -0.6309
  833MOL0     C 9861   0.588   2.814   0.779 -1.0662 -0.0836 -0.4314
  833MOL0     C 9862   0.461   2.839   0.869 -0.6741 -0.3899  0.2879
  833MOL0     C 9863   0.351   2.872   0.771  0.4018  0.1073  0.6623
  833MOL0     C 9864   0.203   2.856   0.823 -1.0589 -0.2405 -0.1279
  833MOL0     C 9865   0.106   2.938   0.734  0.5768  0.5645  0.3772
  833MOL0     C 9866  -0.041   2.887   0.745 -0.2997  0.1690 -0.1430
  833MOL0     C 9867  -0.128   3.008   0.724  0.3093  0.4847 -0.3722
  833MOL0    Cl 9868  -0.127   3.038   0.553  0.2456  0.1585  0.0625
  833MOL0     C 9869   0.969   2.793   0.993  0.1843  0.9895  0.2634
  833MOL0     C 9870   1.096   2.821   1.039 -0.1295 -0.1336 -0.0242
  833MOL0     O 9871   1.368   3.031   0.881 -0.1277 -0.0327 -0.1775
  833MOL0     C 9872   1.636   3.031   0.943  0.6408 -0.7374  0.3385
  833MOL0     C 9873   1.769   3.024   0.985  0.6569 -1.5003  0.2699
  833MOL0     N 9874   2.103   2.519   1.193 -0.9230  0.5599  1.1961
  833MOL0     N 9875   2.014   2.434   1.153 -0.3990 -0.5662 -0.2427
  833MOL0     C 9876   0.993   2.536   0.219  0.3717 -0.5700  0.0722
  833MOL0     C 9877   0.887   2.628   0.182  0.5594  0.6407  0.6309
  833MOL0     C 9878   0.462   2.684   0.118  0.2422 -1.0323 -0.7730
  833MOL0     C 9879   0.369   2.600   0.060  1.0144 -0.7175 -0.6692
  833MOL0     C 9880   0.254   2.650  -0.017 -0.1526 -0.0230  0.5866
  833MOL0     C 9881   0.245   2.793  -0.033 -0.4462 -0.4598  0.5642
  833MOL0     O 9882   0.130   2.845  -0.090 -0.0230 -0.5772 -0.2732
  833MOL0     C 9883   0.131   2.978  -0.153  0.7941 -0.6835 -0.4159
  833MOL0     C 9884  -0.005   2.993  -0.222 -0.5940 -0.5260  0.1048
  833MOL0     C 9885   0.008   3.039  -0.363  0.0581 -0.3480 -0.2948
  833MOL0     C 9886  -0.122   3.008  -0.448 -0.2637 -0.1120 -0.2054
  833MOL0     C 9887  -0.212   3.113  -0.415  0.1762 -1.0030 -0.1105
  833MOL0     C 9888  -0.282   3.212  -0.399  0.7718  0.4705 -0.2856
  833MOL0     C 9889   0.338   2.876   0.033 -0.3080  0.6746 -0.3369
  833MOL0     C 9890   0.449   2.823   0.102 -0.2992  0.1273 -0.7579
  833MOL0     H 9891   0.748   2.674   0.489 -1.1252 -1.1311  0.1393
  833MOL0     H 9892   0.931   2.531   0.554  1.1610  2.9433  0.8200
  833MOL0     H 9893   1.143   2.401   0.614 -2.7917  0.5510 -0.8633
  833MOL0     H 9894   1.169   2.574   0.563  0.1094 -0.0463  6.4911
  833MOL0     H 9895   1.373   2.467   0.422 -0.5753  1.0806  0.1841
  833MOL0     H 9896   1.311   2.324   0.507 -2.5332  0.8412 -2.9141
  833MOL0     H 9897   1.453   2.579   0.590  0.8176 -0.7755 -3.2783
  833MOL0     H 9898   1.527   2.417   0.613 -0.3560  1.1674  1.4256
  833MOL0     H 9899   1.306   2.536   0.781 -0.4929 -0.0684 -0.8149
  833MOL0     H 9900   1.363   2.371   0.809 -1.1581 -0.8672 -1.4742
  833MOL0     H 9901   1.450   2.496   0.968  2.6290  0.2028 -0.1485
  833MOL0     H 9902   1.501   2.624   0.862  0.0695  0.0379  1.0232
  833MOL0     H 9903   1.681   2.446   0.758 -2.8861 -1.1962 -1.9158
  833MOL0     H 9904   1.626   2.334   0.881  0.7122  0.4020 -0.5377
  833MOL0     H 9905   1.721   2.606   0.931 -3.6371 -1.1862 -1.5457
  833MOL0     H 9906   1.673   2.493   1.061 -0.6884  2.2494 -0.1143
  833MOL0     H 9907   1.911   2.421   0.865  0.4008 -4.3771 -0.0194
  833MOL0     H 9908   1.844   2.325   0.997 -1.3485  0.2711 -1.3745
  833MOL0     H 9909   1.983   2.669   0.932  2.2753  1.6708  0.0426
  833MOL0     H 9910   2.197   2.784   0.997  1.0379  1.1290 -0.3167
  833MOL0     H 9911   2.312   2.669   1.081  3.7533  4.6072  3.3414
  833MOL0     H 9912   2.341   2.834   1.226  0.0531  1.1294  0.9943
  833MOL0     H 9913   2.207   2.753   1.304  0.0965  2.8489  1.3452
  833MOL0     H 9914   2.190   2.989   1.317 -1.0943  3.1293 -1.4599
  833MOL0     H 9915   2.195   3.007   1.147 -0.1544  0.2054 -0.0459
  833MOL0     H 9916   1.970   3.027   1.273  0.3066 -1.3185  1.5649
  833MOL0     H 9917   1.977   2.852   1.292 -1.6875 -1.0550 -1.6030
  833MOL0     H 9918   1.768   2.771   1.200  2.3261  1.6048  0.3545
  833MOL0     H 9919   1.525   2.761   1.126  1.8572 -2.6699 -1.6891
  833MOL0     H 9920   1.272   2.790   0.749 -2.2675 -1.3079 -1.3849
  833MOL0     H 9921   1.038   2.789   0.668  0.7628  2.3857  0.4331
  833MOL0     H 9922   0.713   2.875   0.932 -2.4094 -2.9456  3.3347
  833MOL0     H 9923   0.680   2.704   0.930 -1.6186 -0.4761 -1.4025
  833MOL0     H 9924   0.577   2.724   0.717 -3.4162 -2.4063  3.0025
  833MOL0     H 9925   0.615   2.909   0.731 -0.6374  1.6319  2.9023
  833MOL0     H 9926   0.464   2.922   0.940  0.5580 -0.2677  0.1161
  833MOL0     H 9927   0.434   2.745   0.917 -0.1920  0.0362  1.4416
  833MOL0     H 9928   0.357   2.973   0.729 -1.3763 -0.8842 -2.2735
  833MOL0     H 9929   0.365   2.805   0.686  1.6218  0.6674  0.3963
  833MOL0     H 9930   0.202   2.889   0.927  2.8614 -1.6219  0.5442
  833MOL0     H 9931   0.180   2.749   0.820 -1.8379 -0.0984  0.4533
  833MOL0     H 9932   0.141   2.904   0.635  1.5513 -0.1574  0.9485
  833MOL0     H 9933   0.119   3.046   0.743  0.7275  0.6219 -0.4206
  833MOL0     H 9934  -0.065   2.806   0.676 -0.6152  2.7361 -3.2721
  833MOL0     H 9935  -0.054   2.840   0.843  4.2301  1.8435  1.4991
  833MOL0     H 9936  -0.095   3.100   0.774 -3.9965  2.7736 -1.3059
  833MOL0     H 9937  -0.229   2.975   0.751  0.8710 -2.3663 -1.4274
  833MOL0     H 9938   0.880   2.777   1.052  0.0956 -0.7168 -0.2757
  833MOL0     H 9939   1.124   2.828   1.144  0.4720 -3.0035  0.1106
  833MOL0     H 9940   1.604   3.094   0.861 -1.4496 -1.3738  0.6047
  833MOL0     H 9941   1.837   3.092   0.935 -2.3032 -0.1759 -2.3246
  833MOL0     H 9942   1.061   2.494   0.147  1.1159 -3.9890  2.5247
  833MOL0     H 9943   0.879   2.645   0.075  0.8320  0.6253  0.6061
  833MOL0     H 9944   0.388   2.495   0.080  1.0134 -0.7782 -0.9777
  833MOL0     H 9945   0.180   2.581  -0.054 -0.6254 -0.0899  1.6278
  833MOL0     H 9946   0.212   2.983  -0.227  0.6843  0.1008 -0.4880
  833MOL0     H 9947   0.149   3.057  -0.079  0.9891  0.3128 -1.5067
  833MOL0     H 9948  -0.059   2.899  -0.211 -1.4930 -0.0630 -0.2161
  833MOL0     H 9949  -0.047   3.073  -0.160  0.4076  1.9063 -2.1226
  833MOL0     H 9950   0.086   2.975  -0.406 -1.7578 -4.4145  1.9736
  833MOL0     H 9951   0.038   3.144  -0.360  2.0609 -0.8960  2.2863
  833MOL0     H 9952  -0.098   3.021  -0.554 -0.2986 -2.2148 -0.5064
  833MOL0     H 9953  -0.147   2.905  -0.421  1.6289 -1.3667 -2.8794
  833MOL0     H 9954  -0.334   3.300  -0.365  0.0300 -0.7900  2.1012
  833MOL0     H 9955   0.321   2.981   0.009  0.7335  0.7517 -0.7827
  833MOL0     H 9956   0.514   2.896   0.148  1.1218  0.8256 -3.6448
  834MOL0     O 9957   8.951   7.980   4.556  0.1592 -0.3524  0.3434
  834MOL0     C 9958   9.021   8.065   4.502  0.6627 -0.5801  0.8249
  834MOL0     O 9959   8.981   8.192   4.452 -0.0772  0.0045 -0.2399
  834MOL0     C 9960   8.843   8.219   4.464 -0.1565 -0.2815 -0.2867
  834MOL0     C 9961   8.799   8.347   4.503 -0.2618 -0.2497 -0.1398
  834MOL0     C 9962   8.662   8.381   4.523 -0.5491 -0.2401  0.4710
  834MOL0     C 9963   8.560   8.296   4.490  0.0735  0.0355 -0.3495
  834MOL0     O 9964   8.427   8.315   4.522  0.1237  0.3467 -0.4179
  834MOL0     C 9965   8.362   8.444   4.498  0.1171 -0.3874 -0.2339
  834MOL0     C 9966   8.320   8.483   4.644  0.9777  0.0348  0.1006
  834MOL0     C 9967   8.171   8.474   4.669 -0.1386  0.3636  0.2621
  834MOL0     C 9968   8.097   8.564   4.577 -0.2551  0.6202  0.6612
  834MOL0     C 9969   7.944   8.562   4.623 -0.2373 -0.4780  0.8174
  834MOL0     C 9970   7.870   8.665   4.545  0.1285 -0.9324  0.1925
  834MOL0     C 9971   7.893   8.809   4.592  0.3531  0.0281 -0.4105
  834MOL0     C 9972   7.823   8.811   4.730  0.2912  0.1646  1.1321
  834MOL0     N 9973   7.836   8.946   4.771 -0.1687  0.4761  0.2579
  834MOL0     C 9974   7.848   8.967   4.903 -1.3762 -0.2339 -0.0218
  834MOL0     C 9975   7.871   9.100   4.925  0.0991  0.0037 -0.0349
  834MOL0     C 9976   7.866   9.173   5.059  0.4061  0.1444 -0.3219
  834MOL0     C 9977   7.731   9.150   5.132 -0.0684 -1.0607  0.0758
  834MOL0     C 9978   7.611   9.223   5.063  0.5445 -0.0685  0.1468
  834MOL0     C 9979   7.481   9.177   5.120  0.0001  0.4261  0.2489
  834MOL0     O 9980   7.377   9.265   5.075  0.0702 -0.4330 -0.5301
  834MOL0     C 9981   7.294   9.301   5.179 -0.3125 -0.6054  0.0766
  834MOL0     C 9982   7.340   9.362   5.297  0.9863  0.4482 -0.0439
  834MOL0     C 9983   7.246   9.387   5.399  0.3162 -1.2574 -0.5422
  834MOL0     C 9984   7.113   9.341   5.381 -0.4058  0.2664 -0.0853
  834MOL0     C 9985   7.006   9.360   5.490 -0.0441  0.0974 -0.8378
  834MOL0     O 9986   7.021   9.471   5.575  0.1305 -0.0477 -0.2023
  834MOL0     C 9987   6.927   9.491   5.668  0.0893  0.1532  0.3378
  834MOL0     C 9988   6.975   9.494   5.794 -0.7284 -0.4278  1.6228
  834MOL0     C 9989   6.899   9.528   5.904  0.3494  0.8129 -0.2030
  834MOL0     C 9990   6.761   9.564   5.882 -1.1614  1.0423 -0.0734
  834MOL0     O 9991   6.675   9.605   5.975 -0.3182 -0.0964 -0.0823
  834MOL0     C 9992   6.697   9.563   6.111  0.3399  0.6227 -0.0266
  834MOL0     C 9993   6.774   9.660   6.197 -0.1373  0.2126 -0.0337
  834MOL0     C 9994   6.800   9.610   6.342 -1.0206 -0.0156 -0.1836
  834MOL0     C 9995   6.855   9.462   6.355 -0.3296 -0.6596  0.6091
  834MOL0     C 9996   6.914   9.442   6.491  0.3050 -0.8151 -0.0859
  834MOL0     C 9997   6.968   9.294   6.489  0.6187 -0.0749 -0.2733
  834MOL0     C 9998   6.967   9.242   6.636 -0.3340  0.1417  0.8421
  834MOL0     C 9999   6.996   9.093   6.655  0.0163 -0.8777  1.0218
  834MOL0    Cl10000   6.858   8.989   6.586  0.3071  0.3729 -0.0143
  834MOL0     C10001   6.707   9.553   5.753 -0.1139 -0.0912  0.4200
  834MOL0     C10002   6.793   9.526   5.645  0.2890 -0.4915  0.0379
  834MOL0     O10003   6.913   9.277   5.496  0.2116 -0.2444  0.1175
  834MOL0     C10004   7.074   9.269   5.267  0.2010  0.0401  0.7810
  834MOL0     C10005   7.160   9.258   5.157 -0.6573  0.7315 -0.3044
  834MOL0     N10006   7.876   9.161   4.798 -0.5539  0.8070 -0.8362
  834MOL0     N10007   7.865   9.067   4.714 -0.1481  0.2814 -0.3294
  834MOL0     C10008   8.604   8.181   4.429  0.4804  0.6993 -0.6779
  834MOL0     C10009   8.742   8.137   4.417  0.1584 -0.5253 -0.9119
  834MOL0     C10010   9.167   8.029   4.487 -0.5299  0.5883 -1.0180
  834MOL0     C10011   9.243   8.116   4.414 -0.4338  0.2005  0.3701
  834MOL0     C10012   9.380   8.089   4.399  0.4230  0.8737  0.3104
  834MOL0     C10013   9.448   7.976   4.459 -0.2846  1.2159 -0.5838
  834MOL0     O10014   9.589   7.963   4.450  0.0411 -0.5683  0.2268
  834MOL0     C10015   9.665   7.852   4.503  0.0639  0.7428 -0.4516
  834MOL0     C10016   9.674   7.729   4.408  0.8104  0.0937 -0.2648
  834MOL0     C10017   9.771   7.623   4.458 -0.1260  0.5509  0.4869
  834MOL0     C10018   9.718   7.555   4.588  0.0258  0.0962  0.0562
  834MOL0     C10019   9.822   7.476   4.635 -0.0085 -0.4933  0.0825
  834MOL0     C10020   9.912   7.405   4.676 -0.1479 -0.0003 -0.5340
  834MOL0     C10021   9.364   7.887   4.531 -0.5407 -0.0259 -1.0962
  834MOL0     C10022   9.227   7.917   4.546 -0.8715 -0.0054 -0.2576
  834MOL0     H10023   8.877   8.414   4.539 -1.3242  1.4548 -0.9386
  834MOL0     H10024   8.639   8.479   4.564 -1.2322 -0.4459  0.6028
  834MOL0     H10025   8.275   8.425   4.433 -2.2979 -2.5177  3.2942
  834MOL0     H10026   8.427   8.519   4.452  0.7107 -0.1007  1.0340
  834MOL0     H10027   8.350   8.586   4.664 -2.3606  1.8738 -3.0213
  834MOL0     H10028   8.384   8.419   4.706  1.8623 -2.1458 -2.8555
  834MOL0     H10029   8.165   8.490   4.777  2.4468 -2.1050  0.8790
  834MOL0     H10030   8.140   8.371   4.648 -0.7609  0.6706 -0.3775
  834MOL0     H10031   8.141   8.663   4.588  3.9963 -1.2915  3.9957
  834MOL0     H10032   8.106   8.536   4.472 -2.5999 -1.2147  0.8417
  834MOL0     H10033   7.943   8.582   4.731  3.6233 -1.6194  1.2007
  834MOL0     H10034   7.891   8.467   4.609  0.3344 -0.6941  0.0836
  834MOL0     H10035   7.762   8.645   4.550 -0.0477 -0.9392 -2.2852
  834MOL0     H10036   7.894   8.646   4.440  2.4289  2.5728 -0.0662
  834MOL0     H10037   7.999   8.831   4.605  1.1870 -1.7149 -3.4969
  834MOL0     H10038   7.845   8.885   4.529  0.4136  1.2341  0.9295
  834MOL0     H10039   7.862   8.744   4.808 -0.7090 -2.6349 -0.6017
  834MOL0     H10040   7.718   8.789   4.708  0.9924  0.9609 -4.2644
  834MOL0     H10041   7.840   8.889   4.977 -1.5440 -0.9162 -0.7465
  834MOL0     H10042   7.873   9.279   5.035  0.3773 -0.0931 -1.4866
  834MOL0     H10043   7.953   9.138   5.115 -0.2500 -2.4148 -0.7749
  834MOL0     H10044   7.739   9.207   5.225  1.8347  0.1397 -0.7779
  834MOL0     H10045   7.710   9.044   5.149  0.8274 -1.0615  1.3723
  834MOL0     H10046   7.623   9.331   5.074  1.6876 -0.3461  2.2370
  834MOL0     H10047   7.623   9.203   4.956  1.4834  2.0900 -0.2141
  834MOL0     H10048   7.487   9.149   5.225  0.8622  2.1776  0.7060
  834MOL0     H10049   7.480   9.080   5.068  2.2130  0.6459 -0.3363
  834MOL0     H10050   7.442   9.399   5.300  1.3965 -0.6580  0.3120
  834MOL0     H10051   7.279   9.440   5.488 -5.2196 -0.2613  1.3514
  834MOL0     H10052   7.082   9.478   5.796 -0.5973  0.3874  1.7225
  834MOL0     H10053   6.946   9.513   6.001 -0.7187  0.1705  0.2323
  834MOL0     H10054   6.735   9.461   6.118  1.0351  0.8050 -1.0018
  834MOL0     H10055   6.598   9.565   6.157  1.1682  1.0993  1.8239
  834MOL0     H10056   6.723   9.757   6.205 -0.2410  0.0023  3.5241
  834MOL0     H10057   6.869   9.667   6.141 -0.7308  1.0600 -0.9815
  834MOL0     H10058   6.705   9.624   6.395 -2.0385 -0.8999 -1.7026
  834MOL0     H10059   6.870   9.677   6.392  0.2402 -1.4896  0.0695
  834MOL0     H10060   6.773   9.390   6.344  0.8793 -2.6598  3.3354
  834MOL0     H10061   6.932   9.433   6.282  0.8674  0.9257  1.1992
  834MOL0     H10062   6.838   9.447   6.569  0.9283 -1.2751  0.5556
  834MOL0     H10063   6.993   9.515   6.512 -0.3641  0.3971 -1.5378
  834MOL0     H10064   7.072   9.283   6.457  0.6426  2.5465 -1.3224
  834MOL0     H10065   6.906   9.224   6.432  0.5187 -1.0157  0.9426
  834MOL0     H10066   7.042   9.302   6.689  0.8631 -0.1897 -0.4075
  834MOL0     H10067   6.870   9.264   6.681 -0.8105  0.2688 -0.2167
  834MOL0     H10068   7.004   9.075   6.762  0.3574 -1.7841  0.8586
  834MOL0     H10069   7.094   9.066   6.614  0.8074 -0.7259  2.7262
  834MOL0     H10070   6.601   9.571   5.742  0.5386  3.2742 -2.2494
  834MOL0     H10071   6.755   9.523   5.544  1.1259 -0.3576 -0.2866
  834MOL0     H10072   6.970   9.240   5.268  0.3228 -0.4036  0.7032
  834MOL0     H10073   7.120   9.220   5.064  0.6364 -1.5591  0.0012
  834MOL0     H10074   8.529   8.113   4.389  2.4667 -1.4667 -0.9544
  834MOL0     H10075   8.752   8.042   4.365 -1.1982  0.2177 -2.6028
  834MOL0     H10076   9.200   8.203   4.366  0.4536  0.1278 -0.5920
  834MOL0     H10077   9.438   8.159   4.339 -2.8116  1.8456 -1.9928
  834MOL0     H10078   9.630   7.819   4.601  3.9500  0.6668  1.1120
  834MOL0     H10079   9.767   7.889   4.520  0.4013  0.0896 -0.9886
  834MOL0     H10080   9.570   7.696   4.397 -0.4828  3.8407 -0.8069
  834MOL0     H10081   9.712   7.762   4.311 -0.3998  0.6516 -0.5719
  834MOL0     H10082   9.868   7.674   4.459  0.1777  0.0046 -0.4979
  834MOL0     H10083   9.767   7.547   4.380  2.0423  0.9588 -0.1073
  834MOL0     H10084   9.702   7.633   4.664  0.2215  1.0874 -0.8987
  834MOL0     H10085   9.630   7.492   4.573  0.5986 -0.9072  0.8154
  834MOL0     H10086   9.988   7.339   4.711 -1.0555 -0.8115 -0.0694
  834MOL0     H10087   9.406   7.800   4.581  1.9190  2.7410  2.1076
  834MOL0     H10088   9.160   7.841   4.586 -1.4052  1.2093  1.2335
  835MOL0     O10089   4.279   3.369   5.521 -0.9541  0.1822  0.7955
  835MOL0     C10090   4.270   3.253   5.557 -0.5943 -0.0606  0.2172
  835MOL0     O10091   4.370   3.187   5.635  0.4042 -0.2669 -0.4092
  835MOL0     C10092   4.467   3.267   5.694 -1.2212  0.8383 -0.1268
  835MOL0     C10093   4.470   3.264   5.839  0.2518  0.5460 -0.3027
  835MOL0     C10094   4.550   3.358   5.913 -0.3334  0.0235 -0.2915
  835MOL0     C10095   4.642   3.443   5.847 -0.0701 -0.2441  0.0464
  835MOL0     O10096   4.712   3.549   5.901 -0.5058  0.4898 -0.1914
  835MOL0     C10097   4.695   3.560   6.044  0.7064 -0.4451 -0.0109
  835MOL0     C10098   4.775   3.686   6.089 -0.1926 -0.1210 -0.0550
  835MOL0     C10099   4.930   3.663   6.098  0.1845 -0.2663 -0.3283
  835MOL0     C10100   4.994   3.803   6.114 -0.2632 -0.9541 -0.3249
  835MOL0     C10101   4.982   3.859   6.265 -0.2564  0.3064 -0.2932
  835MOL0     C10102   5.052   3.986   6.296  0.0280  0.7089  0.0756
  835MOL0     C10103   5.093   3.987   6.457 -0.0470  0.6805 -0.3117
  835MOL0     C10104   4.979   3.985   6.554 -0.5806  1.3319 -0.4505
  835MOL0     N10105   4.896   4.100   6.533  0.6427 -0.1155 -0.0061
  835MOL0     C10106   4.778   4.114   6.457 -0.7534 -0.4165 -0.6827
  835MOL0     C10107   4.752   4.251   6.481  0.5564  0.0643 -0.1429
  835MOL0     C10108   4.628   4.315   6.422  0.1248  0.7460 -0.4087
  835MOL0     C10109   4.500   4.255   6.466  0.0912  0.7655 -0.5473
  835MOL0     C10110   4.486   4.265   6.627  0.2125  0.3552  0.1700
  835MOL0     C10111   4.360   4.191   6.674 -0.2144 -0.8722 -0.5283
  835MOL0     O10112   4.291   4.252   6.781 -0.3078 -0.1218 -0.1243
  835MOL0     C10113   4.184   4.191   6.843 -0.5185 -0.8313 -0.1612
  835MOL0     C10114   4.104   4.276   6.924 -0.2401  0.1457  0.9295
  835MOL0     C10115   3.994   4.229   6.994 -0.3155 -0.6552  0.6855
  835MOL0     C10116   3.959   4.096   6.995 -0.6557  0.7426  0.5247
  835MOL0     C10117   3.841   4.045   7.057  0.3551  0.1822 -1.1931
  835MOL0     O10118   3.728   4.115   7.027 -0.2889  0.2330  0.0435
  835MOL0     C10119   3.606   4.055   7.047 -0.3598 -0.1403  0.1419
  835MOL0     C10120   3.568   3.969   7.151 -0.2387  0.6515  0.2613
  835MOL0     C10121   3.439   3.925   7.167 -0.3245  0.6958  0.6933
  835MOL0     C10122   3.343   3.977   7.075  0.9142  0.5095 -0.0661
  835MOL0     O10123   3.218   3.934   7.077  0.2234 -0.1095 -0.1890
  835MOL0     C10124   3.142   3.925   7.194 -0.6628  0.1445  0.6172
  835MOL0     C10125   3.111   3.777   7.238 -0.6864  0.0983  0.6957
  835MOL0     C10126   3.027   3.698   7.143  0.1247 -0.2378 -0.2551
  835MOL0     C10127   3.039   3.542   7.174  0.0134  1.0691 -0.4300
  835MOL0     C10128   2.915   3.464   7.124  0.1272 -0.6753  0.1659
  835MOL0     C10129   2.784   3.508   7.193  0.4610  0.3143  0.0130
  835MOL0     C10130   2.659   3.408   7.187  0.4945 -0.5194 -0.3940
  835MOL0     C10131   2.626   3.368   7.048 -0.1122 -0.1963 -0.3097
  835MOL0    Cl10132   2.495   3.239   7.052 -0.0539 -0.3675 -0.4451
  835MOL0     C10133   3.384   4.073   6.983  0.2737  0.8196 -0.2829
  835MOL0     C10134   3.513   4.112   6.960  0.1219  0.6958 -0.3146
  835MOL0     O10135   3.858   3.953   7.142  0.3598  0.0467  0.4049
  835MOL0     C10136   4.048   4.008   6.930 -0.2601 -0.5941  0.3862
  835MOL0     C10137   4.159   4.052   6.858  0.3447 -0.1189 -0.0039
  835MOL0     N10138   4.849   4.314   6.561  0.1917  0.1560  0.2073
  835MOL0     N10139   4.932   4.217   6.590 -0.5232 -0.7386 -0.1973
  835MOL0     C10140   4.651   3.436   5.705 -0.1420 -0.3400  0.8235
  835MOL0     C10141   4.563   3.350   5.633  0.3172 -0.1437  0.1850
  835MOL0     C10142   4.155   3.173   5.510 -0.2330  0.3250 -0.0280
  835MOL0     C10143   4.062   3.218   5.412 -0.2745  0.2267  0.4089
  835MOL0     C10144   3.948   3.147   5.370  0.1936  0.4331  0.0212
  835MOL0     C10145   3.920   3.017   5.429 -0.9442  0.8023  0.3867
  835MOL0     O10146   3.819   2.942   5.401  0.4215  0.5424 -0.1744
  835MOL0     C10147   3.729   2.982   5.297 -0.3627 -0.3350 -0.4906
  835MOL0     C10148   3.603   2.888   5.304 -0.5270 -0.5656 -0.3395
  835MOL0     C10149   3.504   2.913   5.422 -0.4301 -0.3663  0.1228
  835MOL0     C10150   3.352   2.871   5.390 -0.2982  0.1826 -0.4399
  835MOL0     C10151   3.340   2.727   5.362 -0.2818 -0.0890  0.9369
  835MOL0     C10152   3.332   2.605   5.338 -0.4602 -0.0511  0.2773
  835MOL0     C10153   4.019   2.958   5.511 -0.3740 -0.8757 -0.3189
  835MOL0     C10154   4.127   3.040   5.560 -0.6053  0.2299 -0.1314
  835MOL0     H10155   4.405   3.194   5.891  1.8273 -1.4199 -0.8698
  835MOL0     H10156   4.563   3.353   6.020 -0.1366 -1.9102 -0.3652
  835MOL0     H10157   4.732   3.462   6.076  1.2562 -0.5648 -0.9565
  835MOL0     H10158   4.593   3.579   6.077  1.5702  2.5872  1.2739
  835MOL0     H10159   4.722   3.741   6.168 -1.1938 -0.9656 -0.1205
  835MOL0     H10160   4.768   3.754   6.003 -0.7624  0.5965  0.5341
  835MOL0     H10161   4.968   3.615   6.007  1.6930  1.4629 -0.6740
  835MOL0     H10162   4.955   3.599   6.183  0.4334  1.2787  0.8107
  835MOL0     H10163   5.101   3.790   6.095 -0.2148  1.2785 -2.0426
  835MOL0     H10164   4.953   3.871   6.038  1.5573 -0.0383 -0.5516
  835MOL0     H10165   5.026   3.791   6.338 -1.0541  2.4693  2.3369
  835MOL0     H10166   4.879   3.879   6.294 -1.2609 -2.1363 -1.8315
  835MOL0     H10167   4.997   4.071   6.255 -1.2017 -0.5494 -0.9994
  835MOL0     H10168   5.151   3.972   6.251  1.1506 -1.0527  2.8017
  835MOL0     H10169   5.145   3.893   6.480  0.7681  1.5808  1.7456
  835MOL0     H10170   5.163   4.065   6.487  1.8916 -0.6961 -1.0130
  835MOL0     H10171   5.023   3.970   6.653  0.2517 -1.7897 -1.1728
  835MOL0     H10172   4.920   3.895   6.533 -0.9244  1.7948 -1.5200
  835MOL0     H10173   4.726   4.046   6.390  1.3459  0.4623 -3.4091
  835MOL0     H10174   4.637   4.301   6.313  0.7888 -0.4359 -0.2227
  835MOL0     H10175   4.633   4.422   6.443  0.2513  0.3506  1.7698
  835MOL0     H10176   4.493   4.158   6.417  1.7549  1.0979 -1.5388
  835MOL0     H10177   4.422   4.319   6.425 -1.2322 -0.5171 -0.1289
  835MOL0     H10178   4.574   4.228   6.681  0.5519  2.4811  1.1557
  835MOL0     H10179   4.483   4.368   6.661 -1.7321  1.7914 -3.7600
  835MOL0     H10180   4.397   4.091   6.697 -0.9160 -0.9504  0.2907
  835MOL0     H10181   4.290   4.177   6.591  3.8919 -1.6352 -4.2523
  835MOL0     H10182   4.128   4.382   6.928 -0.0068  0.3810 -3.0781
  835MOL0     H10183   3.938   4.303   7.051 -0.7805  0.0905 -0.6861
  835MOL0     H10184   3.642   3.931   7.221 -2.0129  1.1338  2.5212
  835MOL0     H10185   3.408   3.866   7.253  1.6325  0.4943  1.3126
  835MOL0     H10186   3.046   3.969   7.165 -0.5635 -1.9925 -3.7300
  835MOL0     H10187   3.196   3.970   7.277  1.0396 -2.4167  1.0010
  835MOL0     H10188   3.052   3.775   7.330 -0.5892 -1.0725  0.7483
  835MOL0     H10189   3.204   3.722   7.255 -1.0139 -0.4233  0.8329
  835MOL0     H10190   3.065   3.720   7.043  2.3558 -1.6319  0.1958
  835MOL0     H10191   2.921   3.720   7.157 -0.3517 -2.6022  0.3431
  835MOL0     H10192   3.132   3.501   7.134  1.2303  2.6696  0.6077
  835MOL0     H10193   3.043   3.525   7.282 -1.2812 -1.0465 -0.6564
  835MOL0     H10194   2.936   3.359   7.145 -1.2034 -1.4461 -2.0291
  835MOL0     H10195   2.898   3.463   7.016  0.7466 -1.1490  0.0654
  835MOL0     H10196   2.743   3.594   7.140 -1.7147 -1.9523 -2.2928
  835MOL0     H10197   2.795   3.535   7.298 -0.2190 -2.1214  0.7841
  835MOL0     H10198   2.674   3.317   7.246  1.1732 -0.7037 -0.8425
  835MOL0     H10199   2.578   3.471   7.225  0.4515 -0.4226 -0.6434
  835MOL0     H10200   2.718   3.320   7.014 -0.5969 -2.0407  0.8392
  835MOL0     H10201   2.601   3.454   6.986  1.5354 -0.4982 -1.4726
  835MOL0     H10202   3.310   4.122   6.921  1.2831  2.7397 -0.0243
  835MOL0     H10203   3.529   4.189   6.886  0.6267 -0.1206 -1.0678
  835MOL0     H10204   4.043   3.901   6.945  1.4086 -0.5763  1.2620
  835MOL0     H10205   4.218   3.973   6.813 -1.5269 -1.8669  0.4704
  835MOL0     H10206   4.718   3.489   5.639  0.5821 -0.9803  1.0232
  835MOL0     H10207   4.539   3.357   5.527 -1.9668 -0.0919  0.6553
  835MOL0     H10208   4.085   3.317   5.373 -2.4033  0.1578 -1.2127
  835MOL0     H10209   3.886   3.190   5.292  0.7880  1.7299  0.2381
  835MOL0     H10210   3.774   2.977   5.197 -1.1188  0.3868 -0.8706
  835MOL0     H10211   3.688   3.078   5.327  0.5259 -0.4222  1.1043
  835MOL0     H10212   3.560   2.900   5.204  0.3697 -0.4771 -0.7268
  835MOL0     H10213   3.640   2.786   5.317 -0.9701 -0.9468 -1.8505
  835MOL0     H10214   3.502   3.020   5.447  1.9892 -0.5642  1.4362
  835MOL0     H10215   3.538   2.861   5.512  2.3904 -1.7816 -1.6103
  835MOL0     H10216   3.295   2.886   5.482 -0.8739  2.0335 -1.0432
  835MOL0     H10217   3.311   2.926   5.305  1.7040  0.4483 -1.2819
  835MOL0     H10218   3.315   2.501   5.320  0.6755  0.1463 -2.3401
  835MOL0     H10219   4.006   2.856   5.545 -2.3497 -0.5439  0.0876
  835MOL0     H10220   4.210   3.009   5.623 -0.3914 -2.4103 -1.6026
  836MOL0     O10221   1.887   4.683   2.080  0.2815  0.0590 -0.8429
  836MOL0     C10222   1.962   4.592   2.122  0.1146  0.2657 -0.2223
  836MOL0     O10223   1.942   4.505   2.222  0.0909  0.0443 -0.2277
  836MOL0     C10224   1.836   4.530   2.307 -0.6934 -0.4231  1.3349
  836MOL0     C10225   1.869   4.581   2.433  0.8636  0.0593  0.9402
  836MOL0     C10226   1.770   4.598   2.532  0.5681 -0.0581  0.7448
  836MOL0     C10227   1.631   4.559   2.502  0.5194 -0.1689 -0.0460
  836MOL0     O10228   1.528   4.567   2.601 -0.3206  0.7224 -0.4729
  836MOL0     C10229   1.522   4.702   2.654  0.2079  0.2607  0.5160
  836MOL0     C10230   1.421   4.703   2.770 -1.1285  0.0316  0.3932
  836MOL0     C10231   1.275   4.672   2.733 -0.3183 -0.0565 -0.7108
  836MOL0     C10232   1.188   4.637   2.852 -0.6622 -1.0100 -0.2244
  836MOL0     C10233   1.061   4.596   2.785  0.8143  0.8261  0.3005
  836MOL0     C10234   0.951   4.568   2.882  0.0830 -0.0647  0.0988
  836MOL0     C10235   0.815   4.536   2.806  0.7930 -0.3082 -0.3942
  836MOL0     C10236   0.689   4.535   2.893 -0.0810 -1.0376 -0.4526
  836MOL0     N10237   0.578   4.479   2.823 -0.2333  0.8162  0.3675
  836MOL0     C10238   0.468   4.537   2.764 -0.3700 -0.7595  0.4271
  836MOL0     C10239   0.386   4.437   2.725  0.5605  0.6964 -0.1877
  836MOL0     C10240   0.247   4.453   2.674 -0.0284  0.2208  0.1561
  836MOL0     C10241   0.139   4.362   2.735 -0.4833  0.5403 -0.1518
  836MOL0     C10242   0.023   4.335   2.642 -0.0931  0.4708  0.8233
  836MOL0     C10243  -0.095   4.315   2.732 -0.4271 -0.1281 -0.0267
  836MOL0     O10244  -0.211   4.291   2.655 -0.1781  0.9291  0.3249
  836MOL0     C10245  -0.326   4.280   2.727 -0.0369 -0.6441 -0.3661
  836MOL0     C10246  -0.442   4.278   2.650  0.0418  0.4626 -0.7064
  836MOL0     C10247  -0.566   4.268   2.712 -0.6807 -0.3709 -0.9283
  836MOL0     C10248  -0.567   4.259   2.854  0.0110  0.1446 -0.2800
  836MOL0     C10249  -0.701   4.249   2.915 -0.0190 -0.3902 -0.2907
  836MOL0     O10250  -0.800   4.207   2.836  0.6047  0.2586  0.3468
  836MOL0     C10251  -0.927   4.190   2.893  0.6691 -0.9775  0.0573
  836MOL0     C10252  -1.036   4.236   2.822 -0.7338  0.7528 -0.2233
  836MOL0     C10253  -1.171   4.222   2.866 -0.5922  0.2146 -0.1530
  836MOL0     C10254  -1.192   4.152   2.989 -0.3816  0.2442  0.3951
  836MOL0     O10255  -1.311   4.118   3.043  0.1418 -0.1094 -0.1705
  836MOL0     C10256  -1.421   4.164   2.972  0.2721  0.2871  0.4731
  836MOL0     C10257  -1.550   4.105   3.036 -0.3250  0.1832  0.4984
  836MOL0     C10258  -1.673   4.185   2.994  0.3457  0.1463 -0.5864
  836MOL0     C10259  -1.760   4.124   2.880  0.0302 -0.3816 -0.1911
  836MOL0     C10260  -1.893   4.195   2.855  0.1057 -0.0951  0.8136
  836MOL0     C10261  -1.995   4.214   2.976 -0.8027  0.1605 -0.0176
  836MOL0     C10262  -1.998   4.359   3.026  0.5189  0.1803 -0.3132
  836MOL0     C10263  -2.052   4.468   2.932 -0.7384 -1.0841  0.0523
  836MOL0    Cl10264  -2.209   4.414   2.864 -0.2142  0.3504 -0.2936
  836MOL0     C10265  -1.082   4.098   3.060  0.4074 -0.0765  0.6632
  836MOL0     C10266  -0.950   4.110   3.004  0.2074  0.1895 -0.2562
  836MOL0     O10267  -0.706   4.277   3.036 -1.1568  0.2809  0.2103
  836MOL0     C10268  -0.449   4.255   2.928 -0.4972  0.4491 -0.1209
  836MOL0     C10269  -0.323   4.257   2.871  0.5129 -0.6644 -0.4042
  836MOL0     N10270   0.446   4.318   2.764 -0.4072 -0.4372  0.0837
  836MOL0     N10271   0.558   4.344   2.818  0.2725  0.0493 -0.7744
  836MOL0     C10272   1.605   4.509   2.375 -0.3609  0.0808  0.2617
  836MOL0     C10273   1.702   4.500   2.279 -0.4975 -0.7170 -0.5518
  836MOL0     C10274   2.091   4.585   2.049  0.5845 -0.1270 -1.4848
  836MOL0     C10275   2.200   4.521   2.100 -0.1396 -0.6225 -0.8733
  836MOL0     C10276   2.327   4.530   2.035 -0.3283  0.2392 -1.2588
  836MOL0     C10277   2.338   4.603   1.910 -0.4371  0.6211 -0.2509
  836MOL0     O10278   2.466   4.605   1.843  0.1696 -0.6831  0.1561
  836MOL0     C10279   2.464   4.671   1.716 -0.0044 -0.0569  0.4638
  836MOL0     C10280   2.608   4.690   1.670 -0.8185 -0.0178 -0.2442
  836MOL0     C10281   2.618   4.783   1.553 -0.2973 -0.8673  0.4957
  836MOL0     C10282   2.765   4.800   1.509  0.4353 -0.5400  0.1715
  836MOL0     C10283   2.768   4.877   1.386 -0.4876  0.3484  0.4171
  836MOL0     C10284   2.745   4.955   1.297 -0.1056  0.1128 -0.8934
  836MOL0     C10285   2.226   4.662   1.857  0.7441 -0.4019 -0.2189
  836MOL0     C10286   2.102   4.651   1.928  0.0574 -0.4394 -0.0611
  836MOL0     H10287   1.971   4.612   2.451  0.7443  1.0494  0.0258
  836MOL0     H10288   1.795   4.641   2.629  1.5696 -0.8834  0.8770
  836MOL0     H10289   1.498   4.767   2.570 -0.0267 -4.0286 -3.0870
  836MOL0     H10290   1.615   4.746   2.693  0.7062 -0.0608 -0.2760
  836MOL0     H10291   1.437   4.789   2.835  0.2989  0.3376 -0.3406
  836MOL0     H10292   1.452   4.621   2.837  0.0727  1.7712  2.0756
  836MOL0     H10293   1.282   4.589   2.663  0.7010 -1.5453  1.0470
  836MOL0     H10294   1.226   4.762   2.695 -2.3304 -0.0513  1.6213
  836MOL0     H10295   1.229   4.564   2.923  2.0672  0.2771 -0.3557
  836MOL0     H10296   1.173   4.722   2.918  1.0050  0.1971 -1.3198
  836MOL0     H10297   1.076   4.514   2.714  0.7854 -2.0622  3.3714
  836MOL0     H10298   1.025   4.685   2.733 -1.2926 -1.4252 -2.3935
  836MOL0     H10299   0.934   4.655   2.947  2.7838  0.0620  0.7707
  836MOL0     H10300   0.972   4.485   2.950 -0.3327  0.1245  0.4686
  836MOL0     H10301   0.794   4.603   2.722  0.0833 -1.1819 -0.9352
  836MOL0     H10302   0.826   4.437   2.761  0.8681 -1.3464  1.7868
  836MOL0     H10303   0.658   4.632   2.932 -1.8855 -0.9598 -1.9204
  836MOL0     H10304   0.710   4.470   2.978 -5.1854 -2.5986 -0.0858
  836MOL0     H10305   0.433   4.639   2.753 -0.7330 -0.7983  1.1517
  836MOL0     H10306   0.247   4.433   2.566  0.1340  1.5001 -0.0944
  836MOL0     H10307   0.204   4.552   2.690 -3.0911 -1.0644  0.5661
  836MOL0     H10308   0.118   4.399   2.836  1.6057  2.4808 -0.3276
  836MOL0     H10309   0.185   4.265   2.752 -0.2334  0.7089  0.1643
  836MOL0     H10310  -0.002   4.422   2.580  0.6392 -1.2195 -2.0355
  836MOL0     H10311   0.036   4.249   2.576 -1.0104 -1.2334  2.7355
  836MOL0     H10312  -0.104   4.408   2.790 -1.0846 -0.5911  0.6204
  836MOL0     H10313  -0.067   4.229   2.793  0.4113 -2.7818 -3.8118
  836MOL0     H10314  -0.440   4.284   2.541  0.7027 -4.0473 -1.1387
  836MOL0     H10315  -0.655   4.262   2.650 -2.6106 -3.5364  1.8480
  836MOL0     H10316  -1.002   4.284   2.731  3.6469  0.5024  1.0572
  836MOL0     H10317  -1.250   4.254   2.799  1.2112 -2.7098 -4.1109
  836MOL0     H10318  -1.418   4.132   2.868 -0.5323 -0.0594  0.5497
  836MOL0     H10319  -1.429   4.273   2.977  0.4882  0.2752  1.2339
  836MOL0     H10320  -1.539   4.110   3.145  0.0934 -2.7415  0.6850
  836MOL0     H10321  -1.569   3.997   3.030  0.6687  0.0436 -0.5337
  836MOL0     H10322  -1.642   4.285   2.962  1.6038 -0.2753 -0.7740
  836MOL0     H10323  -1.738   4.203   3.080 -2.3740 -1.8095 -2.0982
  836MOL0     H10324  -1.690   4.142   2.798 -1.0754  0.7133 -0.9385
  836MOL0     H10325  -1.775   4.018   2.901 -1.6411 -0.0965  0.2357
  836MOL0     H10326  -1.948   4.159   2.768  1.4833  1.2820 -0.6895
  836MOL0     H10327  -1.872   4.296   2.817  0.2854 -0.6748 -0.6913
  836MOL0     H10328  -1.957   4.156   3.061  1.4436  2.2882  0.5608
  836MOL0     H10329  -2.098   4.190   2.947 -1.2833  1.8873  0.1611
  836MOL0     H10330  -2.064   4.365   3.113  1.2393 -2.2607  0.4921
  836MOL0     H10331  -1.900   4.385   3.068  0.7044 -0.2826 -0.4507
  836MOL0     H10332  -1.976   4.481   2.855  2.2610  0.9285  3.0511
  836MOL0     H10333  -2.060   4.564   2.984  0.3388  0.0226 -1.7181
  836MOL0     H10334  -1.107   4.033   3.143 -3.3233 -2.2904 -1.9005
  836MOL0     H10335  -0.860   4.081   3.056 -1.3388  0.2939  2.6936
  836MOL0     H10336  -0.456   4.245   3.035  1.4389  1.2298  0.1238
  836MOL0     H10337  -0.228   4.251   2.923 -0.3832 -3.2192  1.1241
  836MOL0     H10338   1.506   4.470   2.351 -0.0458  0.2689 -1.4371
  836MOL0     H10339   1.667   4.451   2.189 -0.3873  1.1542 -1.6752
  836MOL0     H10340   2.202   4.461   2.190  0.6415  1.6963  0.7422
  836MOL0     H10341   2.414   4.471   2.062 -0.3134  1.5351  1.8921
  836MOL0     H10342   2.416   4.767   1.738 -0.2959  0.0139 -0.4532
  836MOL0     H10343   2.406   4.615   1.643  0.3639 -1.5938  1.3040
  836MOL0     H10344   2.667   4.716   1.759  0.0285 -1.1819 -0.4450
  836MOL0     H10345   2.639   4.591   1.635  0.6813 -0.9106  3.1885
  836MOL0     H10346   2.579   4.884   1.570  3.9179  1.1607 -0.5405
  836MOL0     H10347   2.546   4.740   1.483 -2.5116  0.4160  1.8718
  836MOL0     H10348   2.809   4.863   1.587 -3.1215  0.9870  1.1489
  836MOL0     H10349   2.802   4.698   1.499  0.2307 -0.4427 -2.2333
  836MOL0     H10350   2.749   5.037   1.228  0.5335  2.7652  2.0503
  836MOL0     H10351   2.219   4.726   1.770  0.7688  1.7395  1.2740
  836MOL0     H10352   2.017   4.699   1.881  0.9098  0.7652 -0.4303
  837MOL0     O10353   3.303   6.598   0.866 -0.9502  0.4651  0.0436
  837MOL0     C10354   3.248   6.513   0.931 -0.0487  0.1486  0.2613
  837MOL0     O10355   3.172   6.407   0.885  0.3357  0.3850 -0.0609
  837MOL0     C10356   3.152   6.366   0.759  0.1575 -0.8218  0.6890
  837MOL0     C10357   3.064   6.271   0.742  0.3730  0.4956  0.0644
  837MOL0     C10358   3.026   6.222   0.616  0.9131 -0.1690  0.0025
  837MOL0     C10359   3.094   6.271   0.499  0.5059  0.6065 -0.4964
  837MOL0     O10360   3.049   6.212   0.383 -0.4000  0.0084  0.0293
  837MOL0     C10361   3.067   6.268   0.251 -0.6572  0.5277 -0.5341
  837MOL0     C10362   2.942   6.355   0.203 -0.7554  0.2989 -0.7106
  837MOL0     C10363   2.975   6.408   0.060  0.3476  0.1817 -1.0977
  837MOL0     C10364   2.848   6.478   0.017 -0.3843  0.3487  0.6325
  837MOL0     C10365   2.868   6.547  -0.122 -0.2728  0.6771 -0.2482
  837MOL0     C10366   2.989   6.651  -0.139  0.0745  0.0522 -0.1815
  837MOL0     C10367   2.966   6.778  -0.062  0.4680  0.3839 -1.0390
  837MOL0     C10368   3.109   6.847  -0.015 -0.5908  0.5989 -0.8097
  837MOL0     N10369   3.148   6.782   0.111 -0.3415  0.1517 -0.2959
  837MOL0     C10370   3.085   6.811   0.229  0.0897  0.6148 -0.4331
  837MOL0     C10371   3.135   6.723   0.318 -0.4698 -0.5184  0.0215
  837MOL0     C10372   3.096   6.699   0.460  0.0275 -0.7491 -0.3189
  837MOL0     C10373   3.054   6.827   0.526 -0.2385  0.0561  0.4722
  837MOL0     C10374   3.169   6.925   0.564 -0.6546 -0.4700  0.2476
  837MOL0     C10375   3.231   6.887   0.696  0.5595  0.4280  0.5754
  837MOL0     O10376   3.360   6.941   0.707  0.0942  0.4483 -0.0121
  837MOL0     C10377   3.430   6.927   0.823 -0.3358 -0.7739 -0.4375
  837MOL0     C10378   3.406   7.013   0.931  0.9757  0.2064 -0.7224
  837MOL0     C10379   3.474   7.001   1.043 -0.5504 -0.6959 -0.1643
  837MOL0     C10380   3.571   6.904   1.059  0.2974  0.1374  0.0783
  837MOL0     C10381   3.646   6.879   1.192 -0.2435 -0.2826  0.9171
  837MOL0     O10382   3.708   6.759   1.207 -0.2964  0.1718 -0.0526
  837MOL0     C10383   3.780   6.741   1.317  0.5045  0.4409  0.0882
  837MOL0     C10384   3.904   6.803   1.340  0.2615 -0.1109  0.5012
  837MOL0     C10385   3.973   6.792   1.462  0.1344 -0.5350  0.3441
  837MOL0     C10386   3.919   6.701   1.553  0.4425  0.2444  0.1170
  837MOL0     O10387   3.999   6.668   1.667  0.7044 -0.4248  0.0104
  837MOL0     C10388   3.961   6.575   1.769 -0.6726 -0.5443  0.2592
  837MOL0     C10389   4.027   6.433   1.760 -0.0739  0.1941  0.5839
  837MOL0     C10390   3.961   6.351   1.649 -0.6858 -0.4417 -1.1411
  837MOL0     C10391   3.821   6.308   1.690  0.3329  0.8026  0.3167
  837MOL0     C10392   3.759   6.218   1.575  0.8586 -0.2699 -0.5773
  837MOL0     C10393   3.612   6.185   1.613 -0.5809 -0.1236  0.5342
  837MOL0     C10394   3.565   6.065   1.530  0.3859 -0.0358  0.5169
  837MOL0     C10395   3.548   5.947   1.616  0.2164  1.3674  0.1389
  837MOL0    Cl10396   3.422   5.974   1.732 -0.1737  0.0898 -0.0847
  837MOL0     C10397   3.802   6.635   1.529  0.7351 -0.3594 -0.2619
  837MOL0     C10398   3.724   6.669   1.423  0.2076 -0.8567 -0.4498
  837MOL0     O10399   3.640   6.966   1.280 -0.2207 -0.1244 -0.1795
  837MOL0     C10400   3.591   6.815   0.951 -0.2321  0.0410  0.0622
  837MOL0     C10401   3.524   6.827   0.829  0.3470 -0.0839 -0.2601
  837MOL0     N10402   3.229   6.640   0.252 -0.8749 -0.8227  0.1191
  837MOL0     N10403   3.238   6.687   0.132 -0.2415 -0.3085 -0.5251
  837MOL0     C10404   3.198   6.356   0.524 -0.4097 -0.0763 -0.4125
  837MOL0     C10405   3.227   6.411   0.652 -0.0183  0.7003  0.1451
  837MOL0     C10406   3.255   6.514   1.082  0.0078 -1.2577 -0.6732
  837MOL0     C10407   3.197   6.415   1.150  0.1314  0.1461  0.1359
  837MOL0     C10408   3.224   6.402   1.285 -0.4899  0.0767 -0.1785
  837MOL0     C10409   3.292   6.499   1.363 -0.4031  0.4249  1.0180
  837MOL0     O10410   3.322   6.499   1.495  0.3079 -0.4639 -0.2771
  837MOL0     C10411   3.223   6.438   1.582 -0.7440  0.5676  0.4934
  837MOL0     C10412   3.224   6.506   1.717 -0.7740  0.0998  0.2070
  837MOL0     C10413   3.135   6.432   1.803 -0.0605  0.2664 -0.1852
  837MOL0     C10414   2.977   6.446   1.796  0.7036 -0.0426  0.4088
  837MOL0     C10415   2.934   6.322   1.868  0.3685  0.2753 -0.7853
  837MOL0     C10416   2.877   6.228   1.926  0.1514 -0.2492 -0.3036
  837MOL0     C10417   3.363   6.602   1.282  0.2552  0.1887  0.7148
  837MOL0     C10418   3.334   6.610   1.145 -0.1999 -0.1968  0.4257
  837MOL0     H10419   3.005   6.250   0.831  0.1510  0.9831  0.0393
  837MOL0     H10420   2.951   6.145   0.607  0.2622  0.3693  0.6882
  837MOL0     H10421   3.080   6.189   0.177 -2.9784  1.4737 -2.1030
  837MOL0     H10422   3.162   6.320   0.243 -0.3072 -0.2089 -1.2896
  837MOL0     H10423   2.926   6.443   0.266  3.0465  0.0792  0.8062
  837MOL0     H10424   2.849   6.297   0.204 -3.2430  3.9491 -0.4354
  837MOL0     H10425   2.997   6.320  -0.002 -0.9838 -1.5855  0.7736
  837MOL0     H10426   3.060   6.477   0.058  1.0997 -0.7258 -1.5502
  837MOL0     H10427   2.764   6.409   0.008 -1.5700  1.8086  0.0523
  837MOL0     H10428   2.835   6.558   0.091  0.0883  0.2617  0.8164
  837MOL0     H10429   2.779   6.594  -0.167  1.0318  3.5596 -0.0561
  837MOL0     H10430   2.896   6.463  -0.186  0.2230  0.8541 -0.2632
  837MOL0     H10431   2.989   6.673  -0.246  1.8149  0.5115 -0.1118
  837MOL0     H10432   3.084   6.603  -0.115 -0.2730  0.8219  3.3361
  837MOL0     H10433   2.907   6.845  -0.125  1.2599  1.0358 -1.1001
  837MOL0     H10434   2.899   6.752   0.020  1.3038  0.5381 -0.2966
  837MOL0     H10435   3.090   6.954   0.000  0.9395  0.7476  0.2970
  837MOL0     H10436   3.174   6.837  -0.102 -1.8572  3.3161 -2.1987
  837MOL0     H10437   3.008   6.887   0.243  0.9105  1.1640  1.5110
  837MOL0     H10438   3.180   6.650   0.509  0.4739  0.1350 -0.1896
  837MOL0     H10439   3.011   6.630   0.467 -0.5092 -0.0433  0.2029
  837MOL0     H10440   3.012   6.805   0.625  0.0226 -5.6303 -0.3439
  837MOL0     H10441   2.975   6.876   0.468 -0.2356 -0.3220  0.1445
  837MOL0     H10442   3.246   6.925   0.487  1.0511 -0.0487  1.8831
  837MOL0     H10443   3.128   7.027   0.569  1.7609  0.6034 -0.4256
  837MOL0     H10444   3.231   6.779   0.710  0.0065  0.5370  1.5096
  837MOL0     H10445   3.163   6.931   0.769  1.6300 -3.1508  4.0981
  837MOL0     H10446   3.336   7.095   0.915 -0.2747 -1.1473 -2.7294
  837MOL0     H10447   3.478   7.081   1.116  1.6006  1.0836 -2.0872
  837MOL0     H10448   3.946   6.869   1.264 -0.7282  1.1254  0.9907
  837MOL0     H10449   4.066   6.846   1.478 -0.3600  0.5537 -0.3364
  837MOL0     H10450   3.854   6.554   1.780 -0.6258 -1.0986 -0.2920
  837MOL0     H10451   3.988   6.615   1.867 -0.5969 -1.1384  0.4898
  837MOL0     H10452   4.017   6.379   1.855  1.0108 -0.3921  0.3752
  837MOL0     H10453   4.135   6.450   1.747  0.4157 -2.3636  0.8531
  837MOL0     H10454   4.018   6.261   1.626  4.0229  1.8057  0.3867
  837MOL0     H10455   3.966   6.407   1.555 -0.8422  1.1151 -0.2592
  837MOL0     H10456   3.830   6.248   1.781 -1.8510  0.2447  0.2133
  837MOL0     H10457   3.766   6.400   1.713  3.0986  2.2903  1.4511
  837MOL0     H10458   3.812   6.122   1.570  1.1405 -0.0645 -1.8340
  837MOL0     H10459   3.759   6.269   1.478 -0.5730  1.0007  0.0488
  837MOL0     H10460   3.549   6.271   1.589 -0.5854 -0.5446 -1.1123
  837MOL0     H10461   3.601   6.167   1.720  0.5104  0.0181  0.6889
  837MOL0     H10462   3.470   6.074   1.477  0.1588 -0.4945  0.8460
  837MOL0     H10463   3.641   6.044   1.454  0.7064  1.4506  0.3969
  837MOL0     H10464   3.639   5.928   1.673  1.3319 -0.2546 -2.0449
  837MOL0     H10465   3.517   5.853   1.570  1.6996  0.2724  1.2966
  837MOL0     H10466   3.755   6.572   1.604  2.5427 -0.6356  0.7179
  837MOL0     H10467   3.628   6.628   1.395  0.4198 -1.8325  0.2273
  837MOL0     H10468   3.655   6.729   0.968  1.2006  1.2860  1.2639
  837MOL0     H10469   3.551   6.754   0.753  0.7812 -0.2342  0.0335
  837MOL0     H10470   3.266   6.368   0.440  0.0915  2.4218  0.2701
  837MOL0     H10471   3.306   6.482   0.675 -0.3002  1.5775 -1.3958
  837MOL0     H10472   3.139   6.339   1.098 -2.2682  1.0686  1.3393
  837MOL0     H10473   3.188   6.313   1.336 -2.5262 -0.3753 -2.2601
  837MOL0     H10474   3.242   6.332   1.600  1.3454  1.1495  2.0979
  837MOL0     H10475   3.119   6.449   1.551 -0.6174  0.3286 -0.0257
  837MOL0     H10476   3.324   6.501   1.760 -1.4909 -0.4994  1.8902
  837MOL0     H10477   3.194   6.611   1.710  1.3339  1.1265  3.8902
  837MOL0     H10478   3.172   6.464   1.900  1.3913 -2.1604  0.1339
  837MOL0     H10479   3.166   6.328   1.796 -1.1218 -0.0545 -0.2688
  837MOL0     H10480   2.945   6.533   1.854  0.3654  1.0768 -1.3759
  837MOL0     H10481   2.940   6.447   1.693 -0.4389 -2.0960  0.7376
  837MOL0     H10482   2.838   6.138   1.968 -0.9741  0.4199  0.1348
  837MOL0     H10483   3.431   6.676   1.322  0.5837 -0.8057  2.0766
  837MOL0     H10484   3.378   6.688   1.085  0.3449 -0.7340  0.1101
  838MOL0     O10485   0.739   1.357   4.287 -0.0244 -0.7306  0.0998
  838MOL0     C10486   0.702   1.243   4.298 -0.2604  0.5874 -0.3424
  838MOL0     O10487   0.575   1.201   4.320 -0.0273  0.5088 -0.3947
  838MOL0     C10488   0.463   1.282   4.329  0.7624 -0.9296  1.1108
  838MOL0     C10489   0.352   1.220   4.287  0.5478 -0.2569  0.7102
  838MOL0     C10490   0.224   1.285   4.288  0.2675  0.7078  0.1763
  838MOL0     C10491   0.208   1.411   4.344  0.4682  0.3526  0.4343
  838MOL0     O10492   0.091   1.480   4.366 -0.5497 -0.4115  1.2159
  838MOL0     C10493  -0.021   1.392   4.351  0.1528 -0.7999 -0.2674
  838MOL0     C10494  -0.154   1.463   4.395 -0.1445 -0.0655 -0.0513
  838MOL0     C10495  -0.165   1.501   4.544 -0.3604  0.1670 -0.1713
  838MOL0     C10496  -0.303   1.569   4.576  0.0528  1.2105  0.2770
  838MOL0     C10497  -0.311   1.708   4.520  0.1853 -1.4012 -0.6908
  838MOL0     C10498  -0.454   1.761   4.534 -0.4389 -0.5089 -0.5480
  838MOL0     C10499  -0.505   1.759   4.681  0.8234  0.1168  0.0033
  838MOL0     C10500  -0.648   1.814   4.690  0.4024  0.2684  0.0652
  838MOL0     N10501  -0.764   1.716   4.653  0.1163 -0.4491  0.1918
  838MOL0     C10502  -0.802   1.695   4.525  0.1170 -0.2307  0.8817
  838MOL0     C10503  -0.902   1.598   4.537 -0.2555 -0.0397  0.9196
  838MOL0     C10504  -0.989   1.558   4.425 -0.2653 -0.5417  0.1334
  838MOL0     C10505  -1.139   1.584   4.436 -0.4689  0.4445 -0.4475
  838MOL0     C10506  -1.214   1.535   4.310 -0.3996  0.5823 -0.7335
  838MOL0     C10507  -1.364   1.593   4.298  0.0169 -0.7095  0.3273
  838MOL0     O10508  -1.449   1.518   4.209 -0.5070  0.2236  0.1481
  838MOL0     C10509  -1.579   1.555   4.197 -0.3362  0.2106  0.9060
  838MOL0     C10510  -1.672   1.455   4.206  0.5746 -0.4365  1.0910
  838MOL0     C10511  -1.802   1.484   4.173  0.8437 -0.1168 -0.8604
  838MOL0     C10512  -1.841   1.620   4.140  0.8418  0.7703 -0.5960
  838MOL0     C10513  -1.981   1.648   4.133  0.0756 -0.1636  0.4102
  838MOL0     O10514  -2.047   1.541   4.082  0.7113  1.0183 -0.7375
  838MOL0     C10515  -2.183   1.536   4.095 -0.0877  0.3246 -0.3992
  838MOL0     C10516  -2.264   1.597   4.193 -0.6502  0.1419 -0.1743
  838MOL0     C10517  -2.404   1.580   4.202 -0.0432  0.8602  0.6832
  838MOL0     C10518  -2.475   1.484   4.115 -0.8627 -0.3899 -0.3083
  838MOL0     O10519  -2.608   1.459   4.148  0.2072  0.7156 -0.5212
  838MOL0     C10520  -2.654   1.329   4.099 -0.0810 -0.7906  0.0073
  838MOL0     C10521  -2.809   1.326   4.116  0.0495  0.2186  0.0254
  838MOL0     C10522  -2.845   1.361   4.258 -0.2946  0.7388 -0.0685
  838MOL0     C10523  -2.999   1.371   4.276 -0.2373  0.2226 -0.5684
  838MOL0     C10524  -3.037   1.460   4.404  1.0179  0.0145 -0.3145
  838MOL0     C10525  -3.180   1.515   4.389 -0.3304  1.2687 -0.7747
  838MOL0     C10526  -3.184   1.624   4.496  1.0117 -0.0527  0.1082
  838MOL0     C10527  -3.323   1.683   4.501  0.2709 -0.2592 -0.2753
  838MOL0    Cl10528  -3.330   1.760   4.655  0.8026 -0.2205  0.5146
  838MOL0     C10529  -2.396   1.434   4.014 -0.2930  0.9363  0.0897
  838MOL0     C10530  -2.256   1.442   4.014 -0.6589 -0.3914 -0.8609
  838MOL0     O10531  -2.033   1.758   4.172  0.0573  0.0376  0.4425
  838MOL0     C10532  -1.746   1.723   4.147  0.1939 -0.1162 -0.3866
  838MOL0     C10533  -1.614   1.693   4.179  0.5877  1.3973 -0.1635
  838MOL0     N10534  -0.896   1.553   4.661 -0.1506 -0.3844 -0.0199
  838MOL0     N10535  -0.814   1.622   4.738 -0.1649 -0.3692  1.0480
  838MOL0     C10536   0.322   1.466   4.408 -0.2575  0.0194 -0.0025
  838MOL0     C10537   0.450   1.410   4.390 -0.0536 -0.8018 -0.9634
  838MOL0     C10538   0.798   1.132   4.278 -0.0962 -0.9794  0.6505
  838MOL0     C10539   0.930   1.171   4.258  0.0468  0.5216  0.4219
  838MOL0     C10540   1.026   1.070   4.232  0.1168 -0.0192 -0.0789
  838MOL0     C10541   0.990   0.937   4.235 -0.1088 -0.6697  0.1158
  838MOL0     O10542   1.074   0.831   4.236 -0.0361 -0.5779  0.1427
  838MOL0     C10543   1.190   0.844   4.153  0.1223 -0.0522 -0.3502
  838MOL0     C10544   1.251   0.706   4.114  0.2715  0.5135 -0.3556
  838MOL0     C10545   1.358   0.702   4.005 -0.8033  0.2639 -0.7925
  838MOL0     C10546   1.501   0.747   4.059  0.0549  0.9949 -0.6476
  838MOL0     C10547   1.561   0.636   4.142 -1.0001  0.1941 -0.4673
  838MOL0     C10548   1.604   0.556   4.222  0.7823 -0.7978 -0.2036
  838MOL0     C10549   0.852   0.900   4.256  0.1229  0.3367 -0.2134
  838MOL0     C10550   0.758   0.997   4.263  0.5070 -0.3611  0.4115
  838MOL0     H10551   0.359   1.116   4.258  2.0064  0.7140 -3.0005
  838MOL0     H10552   0.144   1.237   4.232  0.9477  1.2240 -1.2838
  838MOL0     H10553  -0.017   1.302   4.412 -3.5556 -0.9258  0.0627
  838MOL0     H10554  -0.037   1.366   4.246 -0.6669 -1.0787 -0.0814
  838MOL0     H10555  -0.236   1.393   4.373  0.8135 -1.2993  0.2012
  838MOL0     H10556  -0.167   1.542   4.320 -0.4207 -0.4552 -0.4229
  838MOL0     H10557  -0.079   1.563   4.572  1.0735 -1.8261  0.1000
  838MOL0     H10558  -0.160   1.403   4.593 -0.1805 -1.9189 -4.0031
  838MOL0     H10559  -0.378   1.504   4.529 -0.3513  1.4077  0.6460
  838MOL0     H10560  -0.315   1.569   4.684  0.9497 -2.7012  0.5392
  838MOL0     H10561  -0.286   1.721   4.415 -1.8030  1.3501 -0.9140
  838MOL0     H10562  -0.242   1.771   4.577 -1.2707  0.3452 -0.7973
  838MOL0     H10563  -0.526   1.700   4.478  0.7411 -2.4202 -0.0534
  838MOL0     H10564  -0.461   1.865   4.500 -1.1398 -0.7341 -1.1308
  838MOL0     H10565  -0.511   1.658   4.723  0.9166  1.7286  4.3474
  838MOL0     H10566  -0.438   1.801   4.756 -0.8454 -1.9733  2.8716
  838MOL0     H10567  -0.656   1.909   4.636 -5.0803  0.8186  1.1669
  838MOL0     H10568  -0.669   1.834   4.796 -0.7331  1.6672 -0.3930
  838MOL0     H10569  -0.774   1.748   4.434 -1.3024 -0.4430  0.2968
  838MOL0     H10570  -0.980   1.449   4.418 -1.9594 -0.5866 -2.4093
  838MOL0     H10571  -0.946   1.606   4.337  0.5398 -2.1152 -0.3689
  838MOL0     H10572  -1.148   1.693   4.446 -0.2148  0.4597 -0.3637
  838MOL0     H10573  -1.189   1.529   4.515  2.3220 -2.1001 -0.2799
  838MOL0     H10574  -1.170   1.571   4.217 -3.0793  0.3167 -2.1940
  838MOL0     H10575  -1.223   1.427   4.297  4.7284  0.1735 -2.9040
  838MOL0     H10576  -1.356   1.697   4.265 -0.8093 -1.6095 -3.0642
  838MOL0     H10577  -1.430   1.585   4.385 -1.3475 -1.0945 -0.7202
  838MOL0     H10578  -1.638   1.352   4.212  2.1345 -0.3124 -2.6621
  838MOL0     H10579  -1.874   1.403   4.178  0.0447  0.5968 -0.6138
  838MOL0     H10580  -2.226   1.653   4.278 -0.7033 -1.7306  1.1357
  838MOL0     H10581  -2.460   1.638   4.275 -1.3426  0.5854 -0.0589
  838MOL0     H10582  -2.594   1.257   4.156  2.6319  1.8748  0.7375
  838MOL0     H10583  -2.640   1.318   3.991  1.5656  3.2177 -0.3452
  838MOL0     H10584  -2.845   1.222   4.111 -4.1092  1.4629  0.5455
  838MOL0     H10585  -2.856   1.390   4.041  0.0500  0.5609  0.3148
  838MOL0     H10586  -2.800   1.457   4.287 -0.5204  0.8027  0.0715
  838MOL0     H10587  -2.809   1.287   4.330  1.5152  2.0213  0.4290
  838MOL0     H10588  -3.027   1.431   4.188 -0.6808 -0.8177 -1.1506
  838MOL0     H10589  -3.041   1.271   4.284  5.4827 -2.3943  2.2477
  838MOL0     H10590  -2.964   1.540   4.413 -0.2395  1.0143  1.7533
  838MOL0     H10591  -3.032   1.409   4.500 -1.0815  0.3654  0.0318
  838MOL0     H10592  -3.254   1.437   4.412  1.5065 -0.4365 -0.3258
  838MOL0     H10593  -3.190   1.560   4.290  0.3050  2.3757 -0.3498
  838MOL0     H10594  -3.154   1.582   4.592 -1.3418 -0.0628  0.8890
  838MOL0     H10595  -3.120   1.706   4.461  0.0394 -0.2254 -2.2849
  838MOL0     H10596  -3.400   1.606   4.503 -2.5909  2.3905  0.1980
  838MOL0     H10597  -3.340   1.758   4.422  0.5423 -1.1040 -1.1540
  838MOL0     H10598  -2.435   1.363   3.942  3.0391 -1.1315  0.1157
  838MOL0     H10599  -2.189   1.386   3.950 -0.0137  0.4345 -0.9323
  838MOL0     H10600  -1.770   1.827   4.127  1.8011  0.3343 -0.1425
  838MOL0     H10601  -1.538   1.771   4.182 -0.8915  2.8973 -0.2407
  838MOL0     H10602   0.312   1.553   4.472  1.0990 -1.3993  2.2906
  838MOL0     H10603   0.532   1.471   4.425  0.1642 -0.5277 -1.9398
  838MOL0     H10604   0.957   1.276   4.261 -2.3262  1.2036 -0.1968
  838MOL0     H10605   1.128   1.093   4.201 -0.8085  1.0667 -2.5817
  838MOL0     H10606   1.264   0.909   4.202  0.7690 -0.2507 -1.0547
  838MOL0     H10607   1.168   0.895   4.059 -2.7414  1.4345  0.9812
  838MOL0     H10608   1.290   0.660   4.206  1.6080 -2.7650 -2.3811
  838MOL0     H10609   1.170   0.643   4.074 -1.1484  2.1088 -0.1017
  838MOL0     H10610   1.319   0.776   3.934 -0.9108  1.2860  0.3088
  838MOL0     H10611   1.370   0.602   3.962  2.9998 -0.3900  1.3263
  838MOL0     H10612   1.577   0.777   3.986  1.5732  2.1898  1.3158
  838MOL0     H10613   1.494   0.842   4.113  1.5610  0.4484  0.5861
  838MOL0     H10614   1.636   0.486   4.297 -1.0744 -1.5249 -0.0190
  838MOL0     H10615   0.821   0.797   4.268  4.5565 -1.1060  0.2768
  838MOL0     H10616   0.662   0.957   4.291  0.1368  0.5767  0.5324
  839MOL0     O10617   5.885  10.320   0.729  0.5183  0.0979 -0.2694
  839MOL0     C10618   5.923  10.299   0.613 -0.4135 -0.7779  0.3170
  839MOL0     O10619   5.865  10.212   0.522 -0.4332 -0.2599  0.2102
  839MOL0     C10620   5.747  10.154   0.545 -0.3099  0.0130  0.1228
  839MOL0     C10621   5.730  10.077   0.656  0.7080  0.2893  0.2456
  839MOL0     C10622   5.612  10.005   0.678 -0.1180  0.4571 -0.4614
  839MOL0     C10623   5.493  10.026   0.601  0.9598 -0.6486  0.2200
  839MOL0     O10624   5.377   9.961   0.645  0.1347 -0.4378  0.2080
  839MOL0     C10625   5.258   9.980   0.571  0.5421 -0.7276 -0.2964
  839MOL0     C10626   5.143   9.905   0.645 -0.2166 -0.8812 -0.2955
  839MOL0     C10627   5.002   9.938   0.587 -0.1873  0.4511 -0.4832
  839MOL0     C10628   4.897   9.846   0.660  0.7343  0.1801  0.7925
  839MOL0     C10629   4.758   9.884   0.613  0.5520  0.3278  0.4385
  839MOL0     C10630   4.658   9.769   0.642 -0.3542  0.5683 -0.3860
  839MOL0     C10631   4.529   9.781   0.564  0.1588  0.1290 -0.0012
  839MOL0     C10632   4.435   9.676   0.623  0.6999  0.2358 -0.1631
  839MOL0     N10633   4.300   9.696   0.585 -0.2507  0.0351 -0.2457
  839MOL0     C10634   4.192   9.725   0.666  0.1082 -0.2210  0.3398
  839MOL0     C10635   4.081   9.728   0.588 -0.3446 -0.1431  0.3254
  839MOL0     C10636   3.939   9.765   0.621  0.2055 -0.2355 -0.5652
  839MOL0     C10637   3.829   9.675   0.560  0.3165 -0.2898  0.2455
  839MOL0     C10638   3.686   9.711   0.599 -0.7793 -0.0341 -0.0806
  839MOL0     C10639   3.578   9.603   0.558  0.4660  0.1219  0.0055
  839MOL0     O10640   3.455   9.655   0.612 -0.1013 -0.8844  0.3732
  839MOL0     C10641   3.347   9.677   0.527 -0.7387 -0.5764 -1.5844
  839MOL0     C10642   3.312   9.608   0.412 -0.6992  0.6402  0.2796
  839MOL0     C10643   3.200   9.637   0.337 -0.1078 -0.1562 -0.1235
  839MOL0     C10644   3.105   9.728   0.377  0.0940 -0.9742 -0.6529
  839MOL0     C10645   2.967   9.739   0.316 -1.0995 -0.3645  0.1382
  839MOL0     O10646   2.871   9.830   0.375  0.2544  0.8094  0.5506
  839MOL0     C10647   2.749   9.817   0.325  0.4643  0.1819 -0.1946
  839MOL0     C10648   2.714   9.902   0.223  0.7655 -0.2546  0.1059
  839MOL0     C10649   2.585   9.898   0.176  0.6106  0.0422 -0.1668
  839MOL0     C10650   2.487   9.812   0.228 -0.4194 -0.1806  1.0351
  839MOL0     O10651   2.350   9.817   0.197  0.1110  0.5317 -0.0603
  839MOL0     C10652   2.302   9.878   0.080  0.5143 -0.4591  1.1368
  839MOL0     C10653   2.154   9.874   0.082  0.0013  0.5140 -0.4762
  839MOL0     C10654   2.091   9.731   0.091 -0.3300  1.0144 -0.4675
  839MOL0     C10655   1.937   9.732   0.085 -0.7605  0.2335  0.7319
  839MOL0     C10656   1.872   9.605   0.144  0.6775 -0.0674  0.0349
  839MOL0     C10657   1.719   9.588   0.126  0.4228 -0.2712 -0.8960
  839MOL0     C10658   1.671   9.456   0.181 -1.1696 -0.2098  0.0015
  839MOL0     C10659   1.534   9.408   0.126 -0.1342 -0.5730 -0.0205
  839MOL0    Cl10660   1.507   9.236   0.178  0.2830 -0.0778 -0.3262
  839MOL0     C10661   2.525   9.716   0.320 -0.0240 -0.1726  0.3135
  839MOL0     C10662   2.660   9.726   0.370 -0.4651  0.9039  0.7242
  839MOL0     O10663   2.950   9.671   0.218  0.0167 -0.2661  0.7200
  839MOL0     C10664   3.138   9.806   0.488 -0.0193  0.8505 -0.1757
  839MOL0     C10665   3.255   9.781   0.565  0.0472 -0.0120 -0.3252
  839MOL0     N10666   4.117   9.661   0.475 -0.0200 -0.2035  0.0806
  839MOL0     N10667   4.248   9.651   0.470  0.1111 -0.0296 -0.2496
  839MOL0     C10668   5.513  10.110   0.487 -0.6570  0.2359 -0.0716
  839MOL0     C10669   5.645  10.167   0.451  0.1993  0.7245 -0.3818
  839MOL0     C10670   6.059  10.352   0.573 -0.3166 -1.0174  0.0212
  839MOL0     C10671   6.107  10.351   0.440 -0.3034 -0.7577 -0.1198
  839MOL0     C10672   6.218  10.426   0.404 -0.1695 -0.8301 -0.1998
  839MOL0     C10673   6.294  10.501   0.498  0.6327  0.0199  0.0205
  839MOL0     O10674   6.416  10.563   0.481 -0.3586  0.0928  0.2837
  839MOL0     C10675   6.461  10.566   0.347 -0.0929 -0.0213  1.0079
  839MOL0     C10676   6.572  10.675   0.341 -0.1387  0.9649 -0.2985
  839MOL0     C10677   6.704  10.631   0.410  0.3613  0.0650  0.4834
  839MOL0     C10678   6.703  10.657   0.560  0.3110  0.7546  0.1643
  839MOL0     C10679   6.818  10.601   0.638  0.3401  0.4753 -0.2851
  839MOL0     C10680   6.911  10.570   0.710 -0.1440 -0.1732  0.8601
  839MOL0     C10681   6.243  10.497   0.632  0.3699  0.9924  0.6268
  839MOL0     C10682   6.133  10.428   0.668  0.1500  0.7410 -0.0613
  839MOL0     H10683   5.806  10.055   0.731  2.1220 -2.6525 -1.8571
  839MOL0     H10684   5.598   9.946   0.767 -2.2559  0.1243 -0.9673
  839MOL0     H10685   5.268   9.938   0.471  0.0122 -0.0616 -0.6390
  839MOL0     H10686   5.218  10.081   0.559  0.5736 -0.8510 -1.5911
  839MOL0     H10687   5.135   9.924   0.752 -4.1937  1.9611 -0.8704
  839MOL0     H10688   5.168   9.799   0.632 -0.5207 -1.7840  4.6179
  839MOL0     H10689   5.002   9.909   0.482  1.4951  1.4413 -0.7836
  839MOL0     H10690   4.992  10.046   0.606  1.7898  0.4402  0.9717
  839MOL0     H10691   4.927   9.743   0.643  1.5389  0.7479 -1.5985
  839MOL0     H10692   4.892   9.873   0.766  0.3441  0.1915  0.7731
  839MOL0     H10693   4.752   9.890   0.504 -1.0312 -0.3445  0.4724
  839MOL0     H10694   4.726   9.980   0.656  1.2903  1.2515 -0.9798
  839MOL0     H10695   4.636   9.771   0.749  2.6572  1.9384  0.3149
  839MOL0     H10696   4.701   9.674   0.611 -0.5879  0.7765 -1.3945
  839MOL0     H10697   4.476   9.876   0.572  0.8229  0.5299 -0.1978
  839MOL0     H10698   4.549   9.757   0.459  1.8632 -0.2198  0.3690
  839MOL0     H10699   4.432   9.678   0.732 -1.7205  1.9114 -0.1802
  839MOL0     H10700   4.457   9.580   0.575 -2.4511 -0.7446  0.0935
  839MOL0     H10701   4.197   9.765   0.767  0.1956  1.0080 -0.1254
  839MOL0     H10702   3.928   9.867   0.584  3.0243 -0.5606 -2.5179
  839MOL0     H10703   3.938   9.771   0.731  4.3551  0.8283 -0.4211
  839MOL0     H10704   3.857   9.579   0.605  0.6088 -0.9263 -1.2365
  839MOL0     H10705   3.839   9.662   0.452  0.9158 -0.5774  0.3309
  839MOL0     H10706   3.682   9.733   0.706 -2.5338  0.1996 -0.1607
  839MOL0     H10707   3.653   9.810   0.566  0.1810  0.7500  1.1945
  839MOL0     H10708   3.585   9.507   0.608 -0.4514  0.6098  1.1144
  839MOL0     H10709   3.572   9.598   0.449 -1.1506  0.1659  0.0660
  839MOL0     H10710   3.378   9.530   0.377  0.3037  0.3603  2.5874
  839MOL0     H10711   3.185   9.575   0.250 -2.2575 -1.6745  1.2574
  839MOL0     H10712   2.782   9.982   0.195  1.5519 -1.9372 -3.4627
  839MOL0     H10713   2.550   9.965   0.099 -3.2412 -0.5020  0.8911
  839MOL0     H10714   2.336   9.817  -0.004 -1.5060  1.3587 -1.1325
  839MOL0     H10715   2.342   9.978   0.059 -0.3748 -0.6256 -1.8566
  839MOL0     H10716   2.113   9.922  -0.008  2.1438 -2.0552 -3.0278
  839MOL0     H10717   2.125   9.929   0.172  1.3931  0.4960  0.0144
  839MOL0     H10718   2.127   9.683   0.182 -1.2437 -1.3745 -1.2799
  839MOL0     H10719   2.133   9.671   0.010 -0.3341  0.0815  0.2157
  839MOL0     H10720   1.906   9.825   0.132 -0.3154  0.8081 -0.0902
  839MOL0     H10721   1.900   9.740  -0.018  1.7981 -2.1854 -0.5001
  839MOL0     H10722   1.899   9.616   0.250 -2.0400  1.9024  0.6410
  839MOL0     H10723   1.928   9.520   0.104  2.0204  0.3750  0.9070
  839MOL0     H10724   1.695   9.596   0.019  2.2494 -1.1769 -1.4205
  839MOL0     H10725   1.673   9.671   0.180 -1.6851 -0.1408 -2.7251
  839MOL0     H10726   1.746   9.381   0.153  0.4586  1.5459 -0.5534
  839MOL0     H10727   1.689   9.463   0.289  1.5579  0.5272 -0.4213
  839MOL0     H10728   1.546   9.410   0.017  2.6383  1.3221  0.2511
  839MOL0     H10729   1.459   9.482   0.154  0.3111 -0.3773  0.6701
  839MOL0     H10730   2.448   9.655   0.366 -1.6648  1.7074  0.2430
  839MOL0     H10731   2.689   9.655   0.447 -1.9026  0.0700  0.5533
  839MOL0     H10732   3.071   9.883   0.525 -1.1118  0.9879 -2.3209
  839MOL0     H10733   3.273   9.834   0.658  3.1164 -0.3927 -0.6013
  839MOL0     H10734   5.436  10.127   0.412  0.5382 -0.5541 -1.5439
  839MOL0     H10735   5.652  10.228   0.361 -0.2397  2.5217  0.7358
  839MOL0     H10736   6.066  10.292   0.359  0.7338 -2.1671  0.3318
  839MOL0     H10737   6.253  10.422   0.301 -2.2948  0.4055 -1.0288
  839MOL0     H10738   6.384  10.601   0.277  0.0624  3.5690  2.3965
  839MOL0     H10739   6.506  10.471   0.318 -0.7423  0.4857 -2.0512
  839MOL0     H10740   6.587  10.698   0.236 -3.3129  1.3127 -0.7972
  839MOL0     H10741   6.529  10.759   0.396 -0.1810 -0.3772  1.8752
  839MOL0     H10742   6.785  10.698   0.378  0.4560 -0.1898  0.1883
  839MOL0     H10743   6.723  10.525   0.389 -1.2259  0.1044 -1.4713
  839MOL0     H10744   6.700  10.764   0.584 -0.2694  0.4415  1.5659
  839MOL0     H10745   6.611  10.614   0.600  0.9059 -2.3287 -1.4899
  839MOL0     H10746   7.001  10.550   0.764 -0.9929 -0.2350  2.2946
  839MOL0     H10747   6.302  10.556   0.702  2.1961  0.6881 -0.5963
  839MOL0     H10748   6.099  10.421   0.770  1.4184 -6.2865  0.3810
  840MOL0     O10749   4.676   7.742   3.079 -0.8850 -0.3679 -0.7440
  840MOL0     C10750   4.675   7.867   3.077  0.1467  0.1067 -0.4784
  840MOL0     O10751   4.590   7.945   3.003 -0.0394  0.1126  1.3346
  840MOL0     C10752   4.480   7.893   2.948  0.7124 -0.7011 -0.1018
  840MOL0     C10753   4.412   7.795   3.006 -0.3099  0.3040 -0.6328
  840MOL0     C10754   4.290   7.739   2.956 -0.3023  0.0374  0.0373
  840MOL0     C10755   4.237   7.781   2.832  0.3827  0.1667  0.2969
  840MOL0     O10756   4.127   7.738   2.774 -0.1751 -0.0678 -0.4005
  840MOL0     C10757   4.015   7.711   2.859 -0.4129 -0.6696 -0.3906
  840MOL0     C10758   3.905   7.748   2.763 -0.3484  0.3887  0.0199
  840MOL0     C10759   3.767   7.749   2.826  0.5500 -0.2532  1.0820
  840MOL0     C10760   3.652   7.809   2.730  0.6699 -0.9088 -0.3628
  840MOL0     C10761   3.616   7.727   2.605 -0.4401 -0.9190  0.1633
  840MOL0     C10762   3.545   7.591   2.634  0.6568  0.2968  0.1041
  840MOL0     C10763   3.408   7.603   2.695 -0.0193  0.0146 -0.2867
  840MOL0     C10764   3.323   7.473   2.696 -0.6613 -0.1333 -0.0371
  840MOL0     N10765   3.184   7.510   2.705 -0.4129 -0.6324  0.4488
  840MOL0     C10766   3.122   7.608   2.785  0.4483  0.0988 -0.3125
  840MOL0     C10767   2.996   7.619   2.730  0.1616 -0.7122 -0.4454
  840MOL0     C10768   2.889   7.712   2.768  0.3916 -0.0320 -0.4656
  840MOL0     C10769   2.757   7.655   2.797  0.6607 -0.2242  0.1715
  840MOL0     C10770   2.766   7.544   2.897 -1.0712 -0.3569  0.5375
  840MOL0     C10771   2.635   7.500   2.963 -0.2308 -0.3701  0.6950
  840MOL0     O10772   2.665   7.401   3.054 -0.4974 -0.1552 -0.2308
  840MOL0     C10773   2.568   7.349   3.125 -0.2225  0.5696  0.0259
  840MOL0     C10774   2.436   7.392   3.107  0.7265  0.3788 -0.0186
  840MOL0     C10775   2.342   7.344   3.202 -0.6151  0.1835 -0.0853
  840MOL0     C10776   2.363   7.241   3.290  0.4035 -0.1200 -0.2783
  840MOL0     C10777   2.249   7.184   3.370  0.1306  0.0684 -0.5756
  840MOL0     O10778   2.124   7.235   3.345  0.3988  0.2771 -0.5729
  840MOL0     C10779   2.013   7.183   3.415 -0.2903  0.0894  1.1573
  840MOL0     C10780   1.973   7.055   3.381  0.7779  0.4313  0.1244
  840MOL0     C10781   1.858   6.996   3.435  0.3294  0.1413 -0.6293
  840MOL0     C10782   1.775   7.076   3.517 -0.2721  0.7176  0.5701
  840MOL0     O10783   1.671   7.010   3.573  0.1098  0.0583  0.1362
  840MOL0     C10784   1.534   7.050   3.540 -0.2119 -0.1632 -0.3622
  840MOL0     C10785   1.451   6.926   3.568 -0.2104  0.2393 -0.1934
  840MOL0     C10786   1.299   6.939   3.538  0.3946  0.1218  0.0163
  840MOL0     C10787   1.231   6.807   3.502 -0.8952  0.1481 -0.4062
  840MOL0     C10788   1.204   6.723   3.642  0.6246 -0.2364 -0.5224
  840MOL0     C10789   1.098   6.787   3.723 -1.1827 -0.3955 -0.3341
  840MOL0     C10790   1.026   6.698   3.818  0.6221  0.7286 -0.2525
  840MOL0     C10791   1.136   6.618   3.902  0.4218 -0.0316 -0.2498
  840MOL0    Cl10792   1.065   6.510   4.021 -0.1676 -0.0772  0.1481
  840MOL0     C10793   1.812   7.203   3.548 -0.3047 -0.9590 -0.0257
  840MOL0     C10794   1.937   7.253   3.499 -0.1122  0.1787  0.3690
  840MOL0     O10795   2.273   7.091   3.453  0.0667 -0.9687  0.0428
  840MOL0     C10796   2.494   7.194   3.301  0.1552 -0.4444  0.4151
  840MOL0     C10797   2.599   7.251   3.224 -0.3620  0.2322  0.3304
  840MOL0     N10798   2.992   7.543   2.613 -0.3695  0.1334 -0.3797
  840MOL0     N10799   3.096   7.470   2.599 -0.3315  0.3882 -0.5559
  840MOL0     C10800   4.305   7.885   2.764 -0.0854 -0.0660 -0.3846
  840MOL0     C10801   4.418   7.937   2.822  0.3801  0.1691  0.9235
  840MOL0     C10802   4.797   7.940   3.109  0.3494  0.0745 -0.4240
  840MOL0     C10803   4.915   7.873   3.151  0.4827 -0.3750  1.0621
  840MOL0     C10804   5.026   7.947   3.185 -0.0538  0.2898  1.0928
  840MOL0     C10805   5.023   8.083   3.205  0.2465 -0.4655  0.8545
  840MOL0     O10806   5.119   8.152   3.262 -0.5065 -0.2764  0.0832
  840MOL0     C10807   5.244   8.094   3.280 -0.1018  0.0958 -0.4176
  840MOL0     C10808   5.339   8.198   3.350  0.3664  0.8311 -0.2832
  840MOL0     C10809   5.301   8.237   3.501  0.2738 -0.1136 -0.5054
  840MOL0     C10810   5.337   8.384   3.537  0.6396  0.7604 -0.0080
  840MOL0     C10811   5.480   8.404   3.557 -0.3800  0.2962 -0.7541
  840MOL0     C10812   5.602   8.419   3.569 -0.4734 -0.3329  0.4759
  840MOL0     C10813   4.907   8.155   3.167 -0.1391  0.3967  0.4424
  840MOL0     C10814   4.798   8.083   3.118  0.0076 -0.3547  0.5027
  840MOL0     H10815   4.447   7.758   3.102  2.4218 -1.1609 -2.0480
  840MOL0     H10816   4.240   7.653   3.001 -1.8849 -0.9515 -3.2647
  840MOL0     H10817   4.024   7.775   2.947 -0.7471 -0.6809 -0.3499
  840MOL0     H10818   4.008   7.607   2.893  0.5274 -0.6062  0.0382
  840MOL0     H10819   3.904   7.672   2.684 -2.6942 -1.1590  1.3908
  840MOL0     H10820   3.919   7.848   2.721  0.5354 -0.5743 -2.1500
  840MOL0     H10821   3.760   7.814   2.913 -0.5629 -1.1121  1.6672
  840MOL0     H10822   3.733   7.649   2.856  0.9044 -1.6473 -2.6257
  840MOL0     H10823   3.554   7.809   2.779 -0.5061  1.7252 -2.5053
  840MOL0     H10824   3.678   7.912   2.705  1.8248 -1.0255  0.2964
  840MOL0     H10825   3.707   7.693   2.554 -0.6499  0.5521 -1.2608
  840MOL0     H10826   3.561   7.793   2.538  0.5860 -1.6386 -1.4541
  840MOL0     H10827   3.606   7.536   2.707  0.6478  0.1447 -0.0027
  840MOL0     H10828   3.544   7.537   2.539  2.1588  0.1176  0.1658
  840MOL0     H10829   3.413   7.644   2.797 -2.1544  4.2599 -1.6582
  840MOL0     H10830   3.355   7.685   2.646 -0.5546  0.4107  0.8922
  840MOL0     H10831   3.351   7.407   2.779  0.3324  0.9555  0.5316
  840MOL0     H10832   3.346   7.413   2.607  1.7486  0.1084  0.3462
  840MOL0     H10833   3.154   7.653   2.879 -3.2531 -1.7847  2.0931
  840MOL0     H10834   2.874   7.790   2.693  0.7151 -0.2296 -0.7367
  840MOL0     H10835   2.912   7.761   2.863 -1.8813 -0.8954  0.6171
  840MOL0     H10836   2.709   7.619   2.706  1.4982  0.6999 -0.6575
  840MOL0     H10837   2.698   7.739   2.834  1.8080  0.3425  0.7681
  840MOL0     H10838   2.806   7.453   2.852 -1.3533 -2.1725  3.6221
  840MOL0     H10839   2.832   7.576   2.978 -2.7381  2.4027  0.9445
  840MOL0     H10840   2.561   7.472   2.887 -2.7214  1.9869  2.0699
  840MOL0     H10841   2.582   7.577   3.021  0.9761  0.4576  0.7269
  840MOL0     H10842   2.398   7.457   3.029  0.6352 -1.6614 -1.7719
  840MOL0     H10843   2.240   7.381   3.196 -0.3547  1.1128  0.8814
  840MOL0     H10844   2.028   6.988   3.315  0.1202  0.2181 -0.2146
  840MOL0     H10845   1.833   6.895   3.406 -0.5703  0.2984 -0.4182
  840MOL0     H10846   1.527   7.083   3.436 -1.9787  1.0437  0.1033
  840MOL0     H10847   1.499   7.135   3.600 -0.6342  0.2959 -1.2283
  840MOL0     H10848   1.464   6.887   3.669  1.0459 -1.9095 -1.1122
  840MOL0     H10849   1.496   6.854   3.499 -0.0980 -1.0232  1.1679
  840MOL0     H10850   1.290   7.005   3.450 -1.8756 -0.7548 -0.4788
  840MOL0     H10851   1.252   6.982   3.627 -0.2399 -3.2308  1.4110
  840MOL0     H10852   1.132   6.824   3.457 -1.9743 -1.1474  1.3447
  840MOL0     H10853   1.299   6.754   3.434  1.6752  0.1256  2.0130
  840MOL0     H10854   1.299   6.731   3.695  1.3224 -2.5041 -1.3267
  840MOL0     H10855   1.183   6.619   3.615  1.8278 -0.3325 -1.1675
  840MOL0     H10856   1.022   6.843   3.668 -0.8965  0.6186  0.2827
  840MOL0     H10857   1.162   6.859   3.775  0.9282 -0.9705 -1.9699
  840MOL0     H10858   0.970   6.756   3.892 -1.5854 -1.4250 -0.1119
  840MOL0     H10859   0.966   6.623   3.766  0.0127 -0.0752  1.5165
  840MOL0     H10860   1.190   6.689   3.965  0.0218  0.7008 -0.7272
  840MOL0     H10861   1.195   6.553   3.837 -0.8716 -1.9661  0.3966
  840MOL0     H10862   1.761   7.266   3.620  0.4626  0.4277 -0.6435
  840MOL0     H10863   1.964   7.358   3.504 -0.5103  0.4504 -1.8471
  840MOL0     H10864   2.510   7.133   3.389 -0.2672  0.1767  0.9406
  840MOL0     H10865   2.699   7.214   3.245 -0.2865  1.3354  2.1722
  840MOL0     H10866   4.268   7.925   2.670 -1.4214  0.5677  0.3791
  840MOL0     H10867   4.461   8.026   2.778  2.9085 -0.7626  1.3112
  840MOL0     H10868   4.930   7.766   3.137  1.9962 -0.0257 -0.2837
  840MOL0     H10869   5.115   7.888   3.205  1.6890  1.3785 -2.6838
  840MOL0     H10870   5.285   8.071   3.181 -0.6789  0.0891 -0.6542
  840MOL0     H10871   5.245   8.000   3.336 -1.1832  1.2923  1.7192
  840MOL0     H10872   5.441   8.160   3.356 -0.2066 -0.8895 -0.9539
  840MOL0     H10873   5.350   8.291   3.294  1.0783  0.3350 -0.9826
  840MOL0     H10874   5.345   8.169   3.575 -1.1318 -1.5963 -0.9821
  840MOL0     H10875   5.193   8.227   3.510  0.0282  3.1108  1.8999
  840MOL0     H10876   5.295   8.452   3.462  0.0627 -0.7155 -1.0728
  840MOL0     H10877   5.289   8.393   3.635  2.0448 -3.2265  1.2456
  840MOL0     H10878   5.707   8.438   3.581 -0.6528  1.4351 -0.3953
  840MOL0     H10879   4.908   8.261   3.191 -1.2553  0.1897  1.5003
  840MOL0     H10880   4.707   8.133   3.087  0.1060 -0.9452 -0.8175
  841MOL0     O10881   3.602   0.516   8.034  0.0722  0.3466  0.0223
  841MOL0     C10882   3.617   0.642   8.013 -0.2168 -0.2525  0.0002
  841MOL0     O10883   3.519   0.736   8.023 -0.2779 -0.3295  0.1916
  841MOL0     C10884   3.418   0.710   8.110  0.4232  1.5437  0.5093
  841MOL0     C10885   3.304   0.638   8.058 -0.0031 -0.0708 -0.7152
  841MOL0     C10886   3.192   0.619   8.146  0.0325  0.1196  0.4284
  841MOL0     C10887   3.196   0.663   8.274  0.3792 -1.1125 -0.6012
  841MOL0     O10888   3.085   0.658   8.361  0.6766 -0.0934 -0.5641
  841MOL0     C10889   2.954   0.628   8.300 -0.0383  0.4164 -0.4150
  841MOL0     C10890   2.851   0.621   8.415  0.4193  0.0323  0.0809
  841MOL0     C10891   2.714   0.569   8.365 -0.2507 -0.0963 -0.0149
  841MOL0     C10892   2.604   0.558   8.476 -1.2538  0.4341 -0.3545
  841MOL0     C10893   2.483   0.498   8.411  0.0758 -0.4523 -0.3309
  841MOL0     C10894   2.395   0.448   8.529  0.0482 -0.9087 -0.5251
  841MOL0     C10895   2.266   0.378   8.483 -0.9015 -0.8429 -0.2577
  841MOL0     C10896   2.195   0.311   8.602 -0.8433  0.2298  0.2286
  841MOL0     N10897   2.067   0.263   8.556 -0.3400  0.2105  0.7031
  841MOL0     C10898   2.053   0.149   8.471  0.5118 -0.4419 -0.2839
  841MOL0     C10899   1.921   0.161   8.434 -0.3114 -0.6209 -0.2577
  841MOL0     C10900   1.862   0.061   8.338 -0.2252  0.4827  1.1422
  841MOL0     C10901   1.882   0.097   8.187 -1.0184 -0.0843  0.2478
  841MOL0     C10902   2.027   0.138   8.151 -0.4473 -0.3194  0.1688
  841MOL0     C10903   2.129   0.023   8.170 -0.0138  0.1758 -0.6225
  841MOL0     O10904   2.248   0.062   8.228 -0.0811 -0.5559  0.1386
  841MOL0     C10905   2.338   0.148   8.148 -0.1575 -0.1210 -0.2995
  841MOL0     C10906   2.319   0.191   8.017  0.1621  0.0239  1.1702
  841MOL0     C10907   2.416   0.258   7.941 -0.0014 -0.5923 -0.1718
  841MOL0     C10908   2.538   0.292   8.005  0.4132 -0.0599  0.4765
  841MOL0     C10909   2.651   0.359   7.928  0.3684 -0.4887  0.7320
  841MOL0     O10910   2.762   0.406   7.995 -0.0818  0.5749  0.3823
  841MOL0     C10911   2.866   0.460   7.929 -0.0205 -0.4759  0.1599
  841MOL0     C10912   2.865   0.580   7.859  0.0524 -0.1378 -0.5847
  841MOL0     C10913   2.971   0.617   7.790  0.3263 -0.4013  0.1080
  841MOL0     C10914   3.091   0.538   7.794 -0.4696  1.0750  0.5375
  841MOL0     O10915   3.189   0.581   7.710 -0.2362  0.1479 -0.7793
  841MOL0     C10916   3.295   0.486   7.669  0.3592 -0.2917  0.0031
  841MOL0     C10917   3.375   0.537   7.542 -0.6757 -0.6894 -0.7948
  841MOL0     C10918   3.459   0.654   7.593 -0.4509  0.3725 -0.6099
  841MOL0     C10919   3.557   0.684   7.483 -0.5417  0.4217 -0.2430
  841MOL0     C10920   3.620   0.830   7.502 -0.4885  0.6722 -0.9257
  841MOL0     C10921   3.711   0.863   7.379  0.2543  0.1227 -0.2065
  841MOL0     C10922   3.771   0.998   7.387  0.2147 -1.0556  0.2360
  841MOL0     C10923   3.850   1.033   7.266 -1.0118  0.1002 -0.3522
  841MOL0    Cl10924   3.986   1.149   7.308 -0.5798 -0.3482 -0.4079
  841MOL0     C10925   3.098   0.418   7.862 -0.2935 -0.4109  0.3790
  841MOL0     C10926   2.979   0.375   7.916 -1.1823 -0.1647 -0.2146
  841MOL0     O10927   2.637   0.373   7.802 -0.4229 -0.8639  0.1393
  841MOL0     C10928   2.564   0.249   8.142 -0.1612 -0.5043 -0.1003
  841MOL0     C10929   2.461   0.188   8.211 -0.4037  0.5232  0.2388
  841MOL0     N10930   1.858   0.268   8.500  0.1056 -0.0494 -0.1184
  841MOL0     N10931   1.950   0.328   8.568  0.4203 -0.0055 -0.0938
  841MOL0     C10932   3.307   0.722   8.327 -0.1475 -0.6415  0.2548
  841MOL0     C10933   3.417   0.752   8.241 -0.0383  0.0958 -1.1936
  841MOL0     C10934   3.752   0.696   7.995 -0.3080  0.4580 -1.1770
  841MOL0     C10935   3.763   0.806   7.913 -0.7213 -0.0461 -0.0553
  841MOL0     C10936   3.889   0.857   7.885 -0.1625  0.6152 -0.7804
  841MOL0     C10937   4.008   0.803   7.931  0.1881  0.6394 -0.1912
  841MOL0     O10938   4.129   0.854   7.903 -0.4819 -0.3487 -0.4685
  841MOL0     C10939   4.218   0.785   7.831  0.5888  0.1686  0.5444
  841MOL0     C10940   4.292   0.879   7.737 -0.2906  0.1080  0.8712
  841MOL0     C10941   4.211   0.940   7.624  0.5197 -0.4045 -0.3813
  841MOL0     C10942   4.146   0.845   7.523  0.2027 -0.2927  0.1241
  841MOL0     C10943   4.254   0.750   7.465 -0.0768  1.3455  0.1573
  841MOL0     C10944   4.347   0.676   7.416  0.4564 -0.3717 -1.3213
  841MOL0     C10945   3.992   0.684   8.008  0.2176 -0.1799 -0.0885
  841MOL0     C10946   3.865   0.639   8.045  0.8193 -0.1757 -0.1539
  841MOL0     H10947   3.314   0.617   7.952  0.5521 -2.0174 -0.3113
  841MOL0     H10948   3.104   0.565   8.113 -0.5050 -0.2163  2.3223
  841MOL0     H10949   2.958   0.529   8.255  1.8597 -1.0579  2.6265
  841MOL0     H10950   2.927   0.710   8.234  2.2147  1.9786  0.4675
  841MOL0     H10951   2.839   0.722   8.456  1.0926 -0.0068  0.3838
  841MOL0     H10952   2.879   0.562   8.502  1.1526 -1.3827 -1.0706
  841MOL0     H10953   2.720   0.476   8.308  0.8398  0.3395 -0.6448
  841MOL0     H10954   2.677   0.653   8.306 -1.9826  0.1633  1.3757
  841MOL0     H10955   2.646   0.489   8.550  2.7784 -0.1163 -2.8304
  841MOL0     H10956   2.580   0.654   8.524 -4.0719 -1.0512  1.5137
  841MOL0     H10957   2.498   0.415   8.342 -0.2861  0.6096 -1.7272
  841MOL0     H10958   2.427   0.574   8.357  3.2098  0.9768 -1.8070
  841MOL0     H10959   2.365   0.530   8.595  2.1224 -1.3134  1.0247
  841MOL0     H10960   2.449   0.379   8.595  0.6512  1.1543  1.2626
  841MOL0     H10961   2.197   0.453   8.443 -2.5602 -0.9874  2.1141
  841MOL0     H10962   2.292   0.311   8.401  3.9897  2.4448 -1.8466
  841MOL0     H10963   2.179   0.384   8.681  1.2587 -1.5157  2.4467
  841MOL0     H10964   2.257   0.229   8.639 -0.8230  0.6525  1.1445
  841MOL0     H10965   2.134   0.087   8.435  0.2805 -0.2610 -1.1207
  841MOL0     H10966   1.754   0.054   8.352 -0.8635 -0.5315 -2.9132
  841MOL0     H10967   1.907  -0.030   8.378  1.1020  1.2433  1.4379
  841MOL0     H10968   1.810   0.175   8.161  1.0510  1.8087 -0.0626
  841MOL0     H10969   1.858   0.014   8.119  0.1354  0.3526 -0.7261
  841MOL0     H10970   2.027   0.168   8.046  1.2003 -0.9479 -0.0486
  841MOL0     H10971   2.053   0.224   8.214  0.2782 -0.1405 -0.3673
  841MOL0     H10972   2.160  -0.019   8.075  0.7776 -0.8691  0.0725
  841MOL0     H10973   2.090  -0.060   8.231 -0.2620 -0.5206 -1.7026
  841MOL0     H10974   2.225   0.178   7.965  1.2736  0.1611 -0.9711
  841MOL0     H10975   2.395   0.283   7.838 -1.5069  0.7107  0.4157
  841MOL0     H10976   2.770   0.634   7.862 -1.3663 -2.5137  1.9879
  841MOL0     H10977   2.965   0.706   7.729 -2.5265 -0.3960  0.2620
  841MOL0     H10978   3.262   0.382   7.655  2.7136 -0.9807 -0.9168
  841MOL0     H10979   3.365   0.475   7.752  1.0511 -0.3391 -0.5771
  841MOL0     H10980   3.309   0.572   7.463  0.1292  0.4582 -0.9920
  841MOL0     H10981   3.443   0.459   7.507  1.1686  0.0639  0.9069
  841MOL0     H10982   3.515   0.633   7.685  1.4391 -2.0134 -2.1741
  841MOL0     H10983   3.398   0.743   7.611 -1.1100  0.9652 -4.8324
  841MOL0     H10984   3.641   0.614   7.492 -2.0159 -1.6807 -1.9637
  841MOL0     H10985   3.505   0.676   7.388 -2.2690  1.7693  0.5317
  841MOL0     H10986   3.653   0.841   7.606 -0.6247  2.0461 -1.0043
  841MOL0     H10987   3.547   0.910   7.487  0.3161  1.3656 -1.1871
  841MOL0     H10988   3.658   0.861   7.283  0.6470 -0.5869 -0.4137
  841MOL0     H10989   3.795   0.794   7.387 -0.7121 -0.9393  1.2052
  841MOL0     H10990   3.699   1.080   7.390  0.1923 -1.0832  0.5498
  841MOL0     H10991   3.842   1.006   7.470  1.6483 -0.6817 -0.9729
  841MOL0     H10992   3.791   1.086   7.190 -0.6012 -1.1683 -1.6084
  841MOL0     H10993   3.882   0.935   7.229 -2.0073 -1.0056  1.5747
  841MOL0     H10994   3.182   0.349   7.870  1.5623  1.3794 -2.0004
  841MOL0     H10995   2.987   0.289   7.982  1.2270  0.1785  0.0256
  841MOL0     H10996   2.655   0.265   8.198 -1.3199  1.6554  1.2894
  841MOL0     H10997   2.490   0.155   8.310  1.0598 -2.1676 -0.9794
  841MOL0     H10998   3.325   0.756   8.429 -1.9137  2.6444 -0.3934
  841MOL0     H10999   3.501   0.794   8.296 -1.5835  0.6640  0.8598
  841MOL0     H11000   3.676   0.857   7.873 -0.1650 -0.1264 -1.4140
  841MOL0     H11001   3.895   0.946   7.824 -1.2116 -0.1576 -2.0667
  841MOL0     H11002   4.161   0.709   7.778 -1.3556  1.6018  0.4835
  841MOL0     H11003   4.298   0.738   7.889  0.5560 -0.3772  0.1589
  841MOL0     H11004   4.326   0.962   7.800 -0.4426 -0.6332  1.9368
  841MOL0     H11005   4.378   0.835   7.685  0.0552  1.0837  0.5917
  841MOL0     H11006   4.287   1.000   7.574  3.1591 -0.6161  2.9987
  841MOL0     H11007   4.145   1.017   7.665  1.2106  0.2621 -0.5045
  841MOL0     H11008   4.064   0.787   7.566  0.1397  0.3271  0.8772
  841MOL0     H11009   4.095   0.892   7.439 -1.6253 -1.6885  0.3881
  841MOL0     H11010   4.420   0.613   7.369 -0.5617 -3.0429  0.4192
  841MOL0     H11011   4.080   0.629   8.041  0.4171  0.5991  0.7542
  841MOL0     H11012   3.858   0.545   8.099  1.6910  0.9287  2.0234
  842MOL0     O11013   1.740   3.196   7.075  0.2682 -0.1944 -0.2914
  842MOL0     C11014   1.744   3.196   6.955  0.2054  1.3388  0.6572
  842MOL0     O11015   1.642   3.197   6.861  0.6290 -0.0671 -0.0301
  842MOL0     C11016   1.510   3.241   6.879  0.6353  0.2769 -0.0453
  842MOL0     C11017   1.461   3.302   6.995  0.1393 -0.2666  0.1041
  842MOL0     C11018   1.324   3.339   7.009  0.0407 -0.4416 -0.3651
  842MOL0     C11019   1.241   3.324   6.897 -0.2429  0.2519  0.0493
  842MOL0     O11020   1.107   3.338   6.909  0.1267 -0.4164 -0.0418
  842MOL0     C11021   1.058   3.440   6.998 -0.0066 -0.8743 -0.7319
  842MOL0     C11022   0.911   3.456   6.954 -0.4505 -0.5867  0.6925
  842MOL0     C11023   0.898   3.510   6.803 -0.1334 -0.2015 -0.3920
  842MOL0     C11024   0.758   3.485   6.736  0.2169 -0.5310  1.4257
  842MOL0     C11025   0.715   3.590   6.635  0.0816  0.3960  0.3959
  842MOL0     C11026   0.675   3.721   6.703  0.0397 -0.0748  0.4456
  842MOL0     C11027   0.649   3.842   6.617  0.4964 -0.2908  0.3522
  842MOL0     C11028   0.597   3.962   6.689 -0.0949 -0.0861 -0.3265
  842MOL0     N11029   0.581   4.071   6.587  0.0475  0.3793  0.3176
  842MOL0     C11030   0.466   4.107   6.530  0.1684 -1.9580  0.1955
  842MOL0     C11031   0.495   4.215   6.457  0.9265 -0.3638 -0.1362
  842MOL0     C11032   0.404   4.273   6.353 -0.4341 -1.2852 -0.8733
  842MOL0     C11033   0.303   4.370   6.405 -0.1132  0.3253  0.0011
  842MOL0     C11034   0.170   4.294   6.435 -0.6367 -0.6235  0.0647
  842MOL0     C11035   0.056   4.399   6.455  0.4063 -0.1884 -0.2104
  842MOL0     O11036  -0.073   4.345   6.495 -0.3092 -0.4521  0.0080
  842MOL0     C11037  -0.191   4.421   6.497  0.0360 -0.1278  0.2385
  842MOL0     C11038  -0.209   4.549   6.446  0.1102 -0.5456  1.2613
  842MOL0     C11039  -0.335   4.613   6.446 -0.1628  0.3232 -0.0482
  842MOL0     C11040  -0.452   4.545   6.498  0.3239  0.4027  0.3807
  842MOL0     C11041  -0.594   4.593   6.503 -1.0326 -0.3454 -0.1185
  842MOL0     O11042  -0.697   4.500   6.518 -0.2551  0.3145 -0.3139
  842MOL0     C11043  -0.828   4.543   6.530 -0.4137 -0.1057  0.3354
  842MOL0     C11044  -0.862   4.631   6.627  0.6540 -0.1635  0.0352
  842MOL0     C11045  -0.998   4.666   6.637 -0.7267  0.6134 -0.5875
  842MOL0     C11046  -1.094   4.621   6.543 -0.0577 -0.2133 -0.1391
  842MOL0     O11047  -1.228   4.662   6.561  0.0811  0.0551  0.7153
  842MOL0     C11048  -1.339   4.583   6.514 -1.0438 -0.0917  0.1912
  842MOL0     C11049  -1.391   4.634   6.382  0.2166 -0.6270  0.2771
  842MOL0     C11050  -1.504   4.553   6.333 -0.1556 -0.1672 -0.5266
  842MOL0     C11051  -1.547   4.579   6.189 -0.2418 -0.4125  0.1465
  842MOL0     C11052  -1.638   4.458   6.144 -0.3929  0.6187  0.4905
  842MOL0     C11053  -1.550   4.346   6.080 -0.5200  0.3519 -0.9958
  842MOL0     C11054  -1.607   4.204   6.092 -0.3267 -0.1378  0.4803
  842MOL0     C11055  -1.753   4.182   6.050 -0.4731 -0.2874  0.4471
  842MOL0    Cl11056  -1.757   4.233   5.879 -0.0767 -0.0673 -0.1012
  842MOL0     C11057  -1.054   4.526   6.449  1.3437 -1.1033 -0.2944
  842MOL0     C11058  -0.923   4.491   6.441 -0.7293 -0.7331 -0.3322
  842MOL0     O11059  -0.607   4.718   6.481  0.0112  0.3235  0.1931
  842MOL0     C11060  -0.428   4.414   6.542 -0.9553  0.8420  0.7011
  842MOL0     C11061  -0.306   4.355   6.544 -0.1197 -0.8765 -0.8121
  842MOL0     N11062   0.630   4.253   6.480 -0.2469 -0.5130 -0.1334
  842MOL0     N11063   0.672   4.166   6.563 -0.0826  0.2163  0.1792
  842MOL0     C11064   1.290   3.272   6.782 -0.0100  0.3855 -0.0669
  842MOL0     C11065   1.422   3.233   6.769 -0.0334 -0.2917  0.1508
  842MOL0     C11066   1.881   3.192   6.898  0.8820  0.6067  0.0058
  842MOL0     C11067   1.988   3.147   6.977  0.7232  0.6104 -0.7427
  842MOL0     C11068   2.113   3.141   6.926  0.7679  0.2760 -0.6623
  842MOL0     C11069   2.149   3.182   6.799  0.6858  0.9075 -0.0970
  842MOL0     O11070   2.281   3.186   6.761 -0.2613 -0.1253 -0.7234
  842MOL0     C11071   2.320   3.263   6.644  0.0917  0.4026  0.0582
  842MOL0     C11072   2.472   3.294   6.650  0.2178 -0.0140  0.0325
  842MOL0     C11073   2.552   3.168   6.657  0.0910  0.0193  0.2830
  842MOL0     C11074   2.689   3.174   6.588 -0.2778 -0.9433 -0.2589
  842MOL0     C11075   2.778   3.270   6.657 -0.1101 -0.6003  0.5494
  842MOL0     C11076   2.875   3.334   6.715  0.4767  0.2783 -0.3295
  842MOL0     C11077   2.047   3.238   6.720  1.4219 -0.1158  0.5364
  842MOL0     C11078   1.912   3.231   6.764 -0.2364 -0.6429 -0.6776
  842MOL0     H11079   1.520   3.314   7.086 -4.1852  2.6368  2.8924
  842MOL0     H11080   1.273   3.369   7.101 -0.0319  2.0995 -1.1465
  842MOL0     H11081   1.109   3.536   6.984 -0.2244 -0.5032  0.8553
  842MOL0     H11082   1.066   3.423   7.105  2.3180 -0.0738 -0.7106
  842MOL0     H11083   0.858   3.533   7.010 -0.8993  0.0015 -0.5079
  842MOL0     H11084   0.875   3.353   6.961 -0.7028 -0.4727  1.1225
  842MOL0     H11085   0.972   3.458   6.740 -0.6887 -1.1305 -0.2892
  842MOL0     H11086   0.925   3.616   6.794  0.6049 -0.3324  0.1507
  842MOL0     H11087   0.758   3.391   6.680 -0.6988  0.0256  0.4698
  842MOL0     H11088   0.683   3.468   6.814 -1.0898 -1.7801 -0.0460
  842MOL0     H11089   0.624   3.556   6.584  0.1946 -1.4198  1.3615
  842MOL0     H11090   0.797   3.591   6.562  1.4405 -1.8640  1.8091
  842MOL0     H11091   0.763   3.747   6.763  2.3613 -2.1495 -1.8086
  842MOL0     H11092   0.584   3.697   6.759  0.4052 -3.0779 -0.0523
  842MOL0     H11093   0.742   3.878   6.572  0.5947 -2.0001 -0.9465
  842MOL0     H11094   0.586   3.814   6.532  0.8511  0.4234 -0.1532
  842MOL0     H11095   0.662   3.992   6.772  0.6516  2.0645 -1.6241
  842MOL0     H11096   0.500   3.933   6.733 -0.0625 -0.0656 -0.2409
  842MOL0     H11097   0.370   4.059   6.545  0.4358 -2.1075  1.4832
  842MOL0     H11098   0.354   4.204   6.284 -0.3366 -1.3535 -0.8758
  842MOL0     H11099   0.473   4.323   6.285  0.8034 -1.2344  0.3695
  842MOL0     H11100   0.287   4.452   6.335  1.0900  2.0764  1.6801
  842MOL0     H11101   0.327   4.424   6.496 -1.0814  2.0253 -0.6974
  842MOL0     H11102   0.136   4.244   6.344  0.6171 -0.7816 -0.3416
  842MOL0     H11103   0.177   4.229   6.523 -0.1072  0.1296  0.5821
  842MOL0     H11104   0.040   4.457   6.364 -2.5324 -0.5984 -0.0514
  842MOL0     H11105   0.095   4.473   6.525 -2.0741 -0.6081  1.7660
  842MOL0     H11106  -0.131   4.600   6.390 -0.6846 -0.0091  0.6184
  842MOL0     H11107  -0.342   4.708   6.393  1.2945 -0.7632 -2.2929
  842MOL0     H11108  -0.798   4.672   6.704  1.2095 -1.7121  0.4289
  842MOL0     H11109  -1.030   4.726   6.722 -0.1918  1.9921 -1.3152
  842MOL0     H11110  -1.421   4.589   6.586 -0.7050  1.8997  0.4686
  842MOL0     H11111  -1.313   4.479   6.493  1.0168  0.5888 -1.0404
  842MOL0     H11112  -1.308   4.630   6.310 -0.3306 -2.7439 -0.2850
  842MOL0     H11113  -1.423   4.738   6.391 -1.5460 -1.2944  2.5618
  842MOL0     H11114  -1.583   4.584   6.403  2.8011 -1.3122  3.7138
  842MOL0     H11115  -1.483   4.447   6.348  2.9799  0.6417  2.0131
  842MOL0     H11116  -1.604   4.672   6.197 -0.6463 -0.6162 -0.2987
  842MOL0     H11117  -1.469   4.588   6.112 -2.4360 -0.8578 -2.2956
  842MOL0     H11118  -1.702   4.498   6.064  2.4896 -0.4638 -2.5567
  842MOL0     H11119  -1.694   4.426   6.233  0.8762  2.6261  2.1207
  842MOL0     H11120  -1.447   4.346   6.116 -0.5863  1.9797 -0.7394
  842MOL0     H11121  -1.541   4.358   5.972  0.3197 -0.5112 -1.0307
  842MOL0     H11122  -1.551   4.135   6.029 -0.5710 -1.0490  1.2297
  842MOL0     H11123  -1.589   4.163   6.192  0.1301  2.3027  1.4798
  842MOL0     H11124  -1.811   4.264   6.094  0.5298  0.7176 -0.0329
  842MOL0     H11125  -1.802   4.086   6.066  1.6768 -1.5102  0.0552
  842MOL0     H11126  -1.118   4.473   6.379 -1.6585  0.1012  1.3634
  842MOL0     H11127  -0.876   4.429   6.365 -1.3480  1.2069 -2.4098
  842MOL0     H11128  -0.513   4.360   6.584 -1.7143  0.8099 -0.8238
  842MOL0     H11129  -0.286   4.260   6.593  0.3638 -0.6796 -0.6237
  842MOL0     H11130   1.218   3.247   6.705 -0.6857  0.3298  0.5701
  842MOL0     H11131   1.463   3.200   6.674  1.4709  0.3288  0.5531
  842MOL0     H11132   1.971   3.120   7.081  3.0224 -3.2546 -1.1487
  842MOL0     H11133   2.204   3.119   6.981  0.6002  2.5431  0.6167
  842MOL0     H11134   2.260   3.353   6.632 -2.0688 -1.0627 -0.7429
  842MOL0     H11135   2.303   3.207   6.551 -3.1095  1.3738 -0.0592
  842MOL0     H11136   2.513   3.347   6.564 -0.8102 -2.9759 -2.4623
  842MOL0     H11137   2.491   3.329   6.752 -0.5105 -0.3860  0.3019
  842MOL0     H11138   2.495   3.089   6.606 -0.9421  1.4312 -0.8529
  842MOL0     H11139   2.569   3.131   6.758  0.0899  0.0712  0.3027
  842MOL0     H11140   2.736   3.076   6.599  0.9399 -0.2436  1.0051
  842MOL0     H11141   2.681   3.203   6.483 -0.0289  0.1820  0.0251
  842MOL0     H11142   2.960   3.382   6.757 -1.5740  2.2308  1.8884
  842MOL0     H11143   2.073   3.271   6.619  1.1644 -1.7194 -0.0839
  842MOL0     H11144   1.832   3.273   6.705  0.4686  1.3690 -0.2987
  843MOL0     O11145   1.762   2.458  10.983  0.0602 -0.4767 -0.0472
  843MOL0     C11146   1.767   2.425  11.101 -0.7979 -0.1025  0.3915
  843MOL0     O11147   1.662   2.391  11.175 -0.0338  0.3527 -0.1508
  843MOL0     C11148   1.533   2.396  11.122 -0.1528 -0.2156 -0.1278
  843MOL0     C11149   1.483   2.508  11.055  0.5842  0.6937 -0.5981
  843MOL0     C11150   1.360   2.506  11.002  0.4317  0.9664  0.5750
  843MOL0     C11151   1.269   2.396  11.034 -0.0118 -0.2261  0.2768
  843MOL0     O11152   1.141   2.412  10.988  0.5741  0.3272  0.3015
  843MOL0     C11153   1.021   2.399  11.079  0.7297  0.3219  0.5314
  843MOL0     C11154   0.911   2.471  11.031  0.0487  0.0603  0.4099
  843MOL0     C11155   0.780   2.443  11.107 -0.1127 -0.0890 -0.1319
  843MOL0     C11156   0.660   2.536  11.067 -0.1594 -1.2463 -0.3043
  843MOL0     C11157   0.620   2.566  10.927  0.2040 -0.7223  0.9629
  843MOL0     C11158   0.500   2.659  10.932  0.3880 -0.9973 -0.0652
  843MOL0     C11159   0.453   2.708  10.793 -0.3852  0.0524  0.6758
  843MOL0     C11160   0.382   2.604  10.703  0.2877 -0.4367  0.0343
  843MOL0     N11161   0.263   2.535  10.759  0.3152 -0.1008  0.1704
  843MOL0     C11162   0.146   2.593  10.798  0.8808  0.3772 -0.2372
  843MOL0     C11163   0.061   2.486  10.815  0.7432  0.9082 -0.9582
  843MOL0     C11164  -0.088   2.488  10.857  0.5405 -0.4048  0.5581
  843MOL0     C11165  -0.145   2.592  10.955 -0.0218  0.5868 -0.2295
  843MOL0     C11166  -0.165   2.551  11.098 -0.0411 -0.0334 -0.2809
  843MOL0     C11167  -0.232   2.652  11.185 -0.0851 -0.0661  0.6371
  843MOL0     O11168  -0.364   2.690  11.133 -0.3654  0.8770  0.2406
  843MOL0     C11169  -0.475   2.617  11.165  1.4099 -0.2825  0.0645
  843MOL0     C11170  -0.588   2.669  11.111 -0.0900 -0.2098 -0.7438
  843MOL0     C11171  -0.721   2.624  11.144  0.5666  0.4627  0.0553
  843MOL0     C11172  -0.737   2.517  11.229  0.1642  0.1500  0.5018
  843MOL0     C11173  -0.867   2.480  11.281  0.6451  0.1329  0.2025
  843MOL0     O11174  -0.973   2.540  11.225  0.9599 -0.0332  0.2126
  843MOL0     C11175  -1.091   2.573  11.289  0.2609  0.8294  0.0829
  843MOL0     C11176  -1.196   2.616  11.205 -0.4127 -0.4462 -0.0330
  843MOL0     C11177  -1.330   2.637  11.250 -0.5381  0.2682  0.8727
  843MOL0     C11178  -1.367   2.606  11.384  0.0208 -0.5129 -0.1775
  843MOL0     O11179  -1.496   2.643  11.418  0.3729  0.0239 -0.0783
  843MOL0     C11180  -1.561   2.572  11.529 -0.9755  0.5121 -0.1898
  843MOL0     C11181  -1.578   2.427  11.491  0.5881  0.0771 -0.7768
  843MOL0     C11182  -1.642   2.395  11.352  0.6345  0.9670  0.1183
  843MOL0     C11183  -1.636   2.244  11.324 -0.2073 -0.2219  0.1148
  843MOL0     C11184  -1.730   2.217  11.205 -0.7091 -0.4182  0.2095
  843MOL0     C11185  -1.736   2.067  11.176 -0.3701 -0.1629 -0.7629
  843MOL0     C11186  -1.776   2.026  11.029  0.0850 -0.6880 -0.1228
  843MOL0     C11187  -1.815   1.881  11.019 -0.7075  0.0788  0.5920
  843MOL0    Cl11188  -1.833   1.836  10.848  0.2189 -0.2042  0.4660
  843MOL0     C11189  -1.264   2.563  11.472 -0.4795 -0.2064  0.1156
  843MOL0     C11190  -1.128   2.548  11.425  0.2862  0.1461  1.0645
  843MOL0     O11191  -0.868   2.410  11.382  0.2493  0.3833 -0.5847
  843MOL0     C11192  -0.618   2.451  11.268 -0.1453 -0.2270  0.2739
  843MOL0     C11193  -0.489   2.503  11.246 -0.2516  0.5327  0.1764
  843MOL0     N11194   0.126   2.372  10.805 -0.0955  0.1167 -0.1237
  843MOL0     N11195   0.246   2.400  10.760  0.7475  0.6089 -0.1202
  843MOL0     C11196   1.312   2.296  11.116  0.3276 -0.6145 -0.5714
  843MOL0     C11197   1.446   2.292  11.158 -0.2692  0.9199  1.2674
  843MOL0     C11198   1.900   2.424  11.160 -0.2171  0.4589 -0.6828
  843MOL0     C11199   2.008   2.473  11.095  0.1799 -0.6507  0.2755
  843MOL0     C11200   2.131   2.492  11.159  1.4123 -1.3268  0.3049
  843MOL0     C11201   2.150   2.447  11.288  0.6647  0.6712  1.6375
  843MOL0     O11202   2.267   2.456  11.358 -0.4386 -0.5804 -0.2297
  843MOL0     C11203   2.369   2.548  11.298  0.5200 -0.0471  0.6019
  843MOL0     C11204   2.486   2.553  11.395  0.3111  0.6231 -0.6640
  843MOL0     C11205   2.457   2.639  11.524 -0.2833 -0.0414  0.2530
  843MOL0     C11206   2.592   2.670  11.589  0.1115 -0.0479  1.7232
  843MOL0     C11207   2.650   2.548  11.657  0.0837 -0.5093  0.2403
  843MOL0     C11208   2.700   2.462  11.722  0.1031  0.3107  0.6738
  843MOL0     C11209   2.043   2.391  11.353 -0.0293 -0.2366  0.3126
  843MOL0     C11210   1.917   2.371  11.287 -0.0633 -0.4350  0.7711
  843MOL0     H11211   1.550   2.592  11.037 -2.4274  2.7337 -3.3151
  843MOL0     H11212   1.327   2.588  10.939 -2.3145 -0.2811  0.2548
  843MOL0     H11213   1.055   2.423  11.179 -0.4858 -1.3217  1.3849
  843MOL0     H11214   0.992   2.294  11.078 -0.0410  0.5266  0.2128
  843MOL0     H11215   0.898   2.435  10.928 -1.0859 -0.7736  0.8220
  843MOL0     H11216   0.927   2.579  11.036 -0.7849  0.1567  1.5746
  843MOL0     H11217   0.793   2.445  11.215  1.7458 -1.4756 -0.2821
  843MOL0     H11218   0.755   2.339  11.081 -1.7378  0.7087 -1.9862
  843MOL0     H11219   0.570   2.502  11.119 -0.3428  0.3688  0.4786
  843MOL0     H11220   0.686   2.633  11.110  1.9106 -0.0516 -3.8621
  843MOL0     H11221   0.596   2.472  10.876  0.3593 -1.5017  2.2617
  843MOL0     H11222   0.700   2.619  10.875 -0.8717  0.9063  0.9184
  843MOL0     H11223   0.534   2.750  10.982 -2.4979  0.9930 -1.4515
  843MOL0     H11224   0.417   2.612  10.986 -0.5405  0.4439 -0.1785
  843MOL0     H11225   0.378   2.787  10.800 -0.9362 -0.4245  0.3608
  843MOL0     H11226   0.544   2.751  10.750  0.6481 -0.8736  1.8577
  843MOL0     H11227   0.452   2.531  10.662  0.9002  1.4561 -2.5302
  843MOL0     H11228   0.337   2.667  10.626 -0.5718 -0.9718  0.0876
  843MOL0     H11229   0.120   2.697  10.782 -1.4081 -0.3261 -1.6319
  843MOL0     H11230  -0.125   2.392  10.893  0.6146 -1.3163 -1.5988
  843MOL0     H11231  -0.148   2.504  10.767 -2.2228 -3.8974  1.5720
  843MOL0     H11232  -0.245   2.623  10.923 -1.2385 -1.8605  0.9676
  843MOL0     H11233  -0.080   2.680  10.948 -2.4063  2.4425 -0.4255
  843MOL0     H11234  -0.235   2.466  11.102  2.7445 -2.5864 -1.4317
  843MOL0     H11235  -0.070   2.527  11.147 -0.2872 -0.4333  0.0137
  843MOL0     H11236  -0.164   2.738  11.187  0.1983 -0.2834  0.5589
  843MOL0     H11237  -0.248   2.611  11.285  1.1223 -0.7100  0.5900
  843MOL0     H11238  -0.568   2.750  11.042  1.0725 -1.8779 -2.4620
  843MOL0     H11239  -0.794   2.688  11.097  0.3992  0.7068  0.6378
  843MOL0     H11240  -1.176   2.616  11.098 -0.8381  1.1998 -0.1369
  843MOL0     H11241  -1.412   2.647  11.179  0.3755  1.2690 -0.0784
  843MOL0     H11242  -1.659   2.616  11.547 -2.4998 -1.8589 -2.0757
  843MOL0     H11243  -1.501   2.577  11.620 -0.7190  1.8220 -0.4045
  843MOL0     H11244  -1.632   2.375  11.571  2.1020 -0.9118 -0.3571
  843MOL0     H11245  -1.484   2.371  11.485 -0.7067 -2.1790 -1.5021
  843MOL0     H11246  -1.606   2.449  11.264 -0.0269  1.1778 -0.0332
  843MOL0     H11247  -1.747   2.420  11.371  0.2480 -0.6671  0.2702
  843MOL0     H11248  -1.533   2.217  11.297 -1.5938 -2.6561 -3.3751
  843MOL0     H11249  -1.664   2.182  11.410  0.8352 -1.2340 -0.2446
  843MOL0     H11250  -1.689   2.274  11.121  0.2686 -0.6618  0.5150
  843MOL0     H11251  -1.830   2.260  11.218 -0.5450  0.0667 -0.0746
  843MOL0     H11252  -1.812   2.033  11.247  1.3994 -0.7777  0.9158
  843MOL0     H11253  -1.643   2.014  11.194 -1.4752 -1.1785  2.7439
  843MOL0     H11254  -1.849   2.095  10.984  0.6692  1.0802  1.5000
  843MOL0     H11255  -1.690   2.047  10.965  1.9941 -0.6074  2.3262
  843MOL0     H11256  -1.912   1.862  11.065 -1.5246 -1.8010 -1.6865
  843MOL0     H11257  -1.743   1.813  11.065  2.3353  2.7478  0.2159
  843MOL0     H11258  -1.292   2.539  11.574  0.1742 -1.8119 -0.0483
  843MOL0     H11259  -1.050   2.507  11.489 -0.1332 -2.7796 -0.1756
  843MOL0     H11260  -0.628   2.368  11.337 -0.0682 -2.1496 -1.8977
  843MOL0     H11261  -0.398   2.455  11.280  0.1231  1.0780 -0.0314
  843MOL0     H11262   1.249   2.210  11.140  3.6636 -2.8056  1.0816
  843MOL0     H11263   1.490   2.198  11.189  1.8430  1.1514 -0.7535
  843MOL0     H11264   2.001   2.493  10.989 -1.2939 -0.3049  0.4196
  843MOL0     H11265   2.204   2.549  11.102 -1.5814 -0.0372 -2.5816
  843MOL0     H11266   2.331   2.649  11.282 -0.8872 -0.9388 -2.3419
  843MOL0     H11267   2.401   2.504  11.203  3.7102  0.2880  1.4293
  843MOL0     H11268   2.499   2.447  11.417 -0.6216  0.4019 -1.1334
  843MOL0     H11269   2.567   2.595  11.335 -0.1035  0.9236 -1.0211
  843MOL0     H11270   2.396   2.589  11.599 -0.5256  0.7500  0.5990
  843MOL0     H11271   2.398   2.728  11.499  1.1964  0.5778 -1.2290
  843MOL0     H11272   2.664   2.714  11.521 -1.3223  0.2564  0.3439
  843MOL0     H11273   2.565   2.743  11.666 -1.7965  0.8271  0.3164
  843MOL0     H11274   2.760   2.393  11.778 -2.2573 -0.4983  2.4117
  843MOL0     H11275   2.054   2.348  11.452  2.7518  1.7672  0.9955
  843MOL0     H11276   1.835   2.337  11.349 -2.2667  0.6164 -1.4271
  844MOL0     O11277   8.062   0.152   5.911 -0.2655  0.9102  0.1639
  844MOL0     C11278   7.995   0.192   5.816  0.0822  0.3442  0.2019
  844MOL0     O11279   7.867   0.159   5.797  0.6206 -0.1282 -0.3581
  844MOL0     C11280   7.800   0.092   5.891  0.0439  0.0272  0.9534
  844MOL0     C11281   7.764  -0.042   5.875 -0.1371 -0.5876  0.2239
  844MOL0     C11282   7.684  -0.103   5.966  0.4052 -0.0995 -0.4560
  844MOL0     C11283   7.634  -0.033   6.079  0.4387  0.2085  0.2227
  844MOL0     O11284   7.549  -0.094   6.170  0.2459 -0.4535  0.4195
  844MOL0     C11285   7.487  -0.036   6.285  0.0582 -0.6020 -0.4046
  844MOL0     C11286   7.402  -0.132   6.359  0.9735  0.3471  0.1754
  844MOL0     C11287   7.335  -0.074   6.479  0.2384  0.0263  0.0769
  844MOL0     C11288   7.234  -0.171   6.561  0.4948 -0.6868  0.0092
  844MOL0     C11289   7.157  -0.083   6.666 -0.4622 -0.6812  1.2149
  844MOL0     C11290   7.114  -0.167   6.782 -0.1230  0.9226 -0.0366
  844MOL0     C11291   7.038  -0.084   6.885 -0.1395 -0.2699  0.4261
  844MOL0     C11292   7.018  -0.185   6.993  0.2609 -0.1839 -0.3376
  844MOL0     N11293   6.945  -0.119   7.112  0.6503 -0.4082  0.7531
  844MOL0     C11294   6.807  -0.122   7.119 -0.1769 -0.4365  0.8981
  844MOL0     C11295   6.787  -0.058   7.231  0.1889  0.1915 -0.4434
  844MOL0     C11296   6.647  -0.040   7.274 -0.1660 -0.4606 -0.8963
  844MOL0     C11297   6.575   0.073   7.191 -0.3130  0.0773  0.2335
  844MOL0     C11298   6.635   0.208   7.213  0.1116 -0.4458 -0.0273
  844MOL0     C11299   6.727   0.254   7.099  0.2051 -0.4982  0.5661
  844MOL0     O11300   6.668   0.244   6.971  0.6604  0.0240  0.7732
  844MOL0     C11301   6.745   0.218   6.859  0.6932  0.0438  0.2848
  844MOL0     C11302   6.888   0.222   6.850  0.5036 -0.0667 -0.4421
  844MOL0     C11303   6.960   0.207   6.728  0.2155  0.4950 -0.4017
  844MOL0     C11304   6.884   0.198   6.608 -0.7098 -0.1677 -0.0801
  844MOL0     C11305   6.946   0.216   6.468 -0.0096  0.4532 -0.1841
  844MOL0     O11306   7.083   0.250   6.469  0.3066  0.6902 -0.3351
  844MOL0     C11307   7.150   0.291   6.359  0.0863  0.9648 -0.2129
  844MOL0     C11308   7.289   0.316   6.372 -0.4222 -0.4542  0.0004
  844MOL0     C11309   7.369   0.363   6.266 -0.1451  0.6731  0.0257
  844MOL0     C11310   7.309   0.377   6.142  1.0055 -0.3289  0.5657
  844MOL0     O11311   7.393   0.416   6.038 -0.1199 -0.2896  0.1046
  844MOL0     C11312   7.387   0.330   5.920  1.1297 -0.5588 -0.5627
  844MOL0     C11313   7.449   0.429   5.812 -0.1647 -0.3970  0.4211
  844MOL0     C11314   7.598   0.455   5.824 -0.2035 -0.4168 -0.2982
  844MOL0     C11315   7.645   0.524   5.697  0.2616  0.3354 -0.9535
  844MOL0     C11316   7.780   0.590   5.714  0.7262 -0.5609 -0.1837
  844MOL0     C11317   7.847   0.649   5.584 -0.5389  0.4313  0.3797
  844MOL0     C11318   7.970   0.725   5.633  0.2106 -0.5353  0.1167
  844MOL0     C11319   8.037   0.810   5.523 -0.0677 -0.8258  0.1654
  844MOL0    Cl11320   8.153   0.916   5.609 -0.2484 -0.1748  0.5635
  844MOL0     C11321   7.166   0.360   6.129 -0.1593  0.1839 -0.8089
  844MOL0     C11322   7.090   0.309   6.234  0.1930 -1.0001 -0.1102
  844MOL0     O11323   6.881   0.178   6.371  0.6089  0.3676 -0.0801
  844MOL0     C11324   6.746   0.203   6.623  0.0079  0.2276  0.2665
  844MOL0     C11325   6.674   0.206   6.745  0.2768 -0.4315 -0.1240
  844MOL0     N11326   6.910  -0.009   7.287  0.3982 -0.2302 -0.0126
  844MOL0     N11327   7.005  -0.065   7.215  0.7169 -1.0887  0.0983
  844MOL0     C11328   7.668   0.099   6.098 -0.7389 -1.1048  0.2280
  844MOL0     C11329   7.748   0.165   6.003  0.0149  0.1689 -0.1074
  844MOL0     C11330   8.075   0.260   5.707  0.1466 -0.3319  0.2984
  844MOL0     C11331   8.007   0.308   5.595  0.2682  0.8722  0.1120
  844MOL0     C11332   8.072   0.390   5.509  0.0700 -0.5347  0.0936
  844MOL0     C11333   8.207   0.423   5.524 -0.9612  0.7320  0.4980
  844MOL0     O11334   8.254   0.512   5.434  0.4300  0.6958  0.0529
  844MOL0     C11335   8.386   0.550   5.439 -0.2391 -0.2958  0.4393
  844MOL0     C11336   8.399   0.676   5.345 -0.1557  0.1903 -0.4256
  844MOL0     C11337   8.532   0.746   5.379  0.5492 -0.7964  0.7301
  844MOL0     C11338   8.572   0.876   5.311  0.0045  0.4316 -0.1606
  844MOL0     C11339   8.462   0.967   5.336 -0.0669 -1.2471 -0.1082
  844MOL0     C11340   8.371   1.050   5.346 -0.4910 -0.9088 -0.2484
  844MOL0     C11341   8.284   0.368   5.631 -0.4790  0.6628  0.9732
  844MOL0     C11342   8.208   0.290   5.724  0.0266 -0.3055  0.4669
  844MOL0     H11343   7.783  -0.090   5.780 -2.4099 -1.0219 -0.0454
  844MOL0     H11344   7.652  -0.207   5.957  1.8639 -0.6166 -0.0611
  844MOL0     H11345   7.418   0.044   6.255  0.0185  0.0912  1.4332
  844MOL0     H11346   7.564  -0.002   6.355  0.5626 -1.6021 -0.4435
  844MOL0     H11347   7.467  -0.213   6.393 -0.8160 -1.0930  0.2871
  844MOL0     H11348   7.330  -0.171   6.287  0.8140 -0.5592  0.8111
  844MOL0     H11349   7.273   0.003   6.434 -2.2632 -2.4222 -0.9853
  844MOL0     H11350   7.406  -0.029   6.549  1.7391  0.1024 -1.4203
  844MOL0     H11351   7.172  -0.224   6.488 -0.0002 -0.8456  0.5368
  844MOL0     H11352   7.293  -0.250   6.609  0.4187  0.0542  1.3594
  844MOL0     H11353   7.077  -0.038   6.607  1.2109  0.8014 -0.0247
  844MOL0     H11354   7.216   0.001   6.703 -0.9738  0.9754 -1.4434
  844MOL0     H11355   7.212  -0.198   6.819 -0.2644  0.4983 -0.0107
  844MOL0     H11356   7.040  -0.241   6.751 -1.1637  3.0039 -2.9272
  844MOL0     H11357   7.093   0.003   6.919 -2.0206  0.7110  1.1087
  844MOL0     H11358   6.940  -0.048   6.854 -0.4491 -1.8147 -0.5009
  844MOL0     H11359   7.117  -0.223   7.020  1.3778  1.7152 -1.5049
  844MOL0     H11360   6.956  -0.266   6.955 -0.4560 -0.0811  0.5984
  844MOL0     H11361   6.735  -0.165   7.051  1.4952  1.3244 -2.2183
  844MOL0     H11362   6.652  -0.019   7.382  1.9786  0.7406 -1.1604
  844MOL0     H11363   6.590  -0.133   7.280  1.0667 -1.1844  2.9296
  844MOL0     H11364   6.469   0.074   7.218 -0.2308  4.2749  1.1672
  844MOL0     H11365   6.584   0.039   7.087  0.2013  1.2218 -0.1157
  844MOL0     H11366   6.564   0.291   7.219  3.5242  2.6782  0.9679
  844MOL0     H11367   6.696   0.207   7.304 -0.6227 -0.9651  0.4664
  844MOL0     H11368   6.821   0.198   7.102  0.7266  0.3092 -0.2071
  844MOL0     H11369   6.745   0.361   7.113  0.7777 -0.5728  0.4403
  844MOL0     H11370   6.943   0.235   6.943  2.6734 -0.7286 -1.5833
  844MOL0     H11371   7.066   0.231   6.734  0.1893  0.6037  5.3691
  844MOL0     H11372   7.328   0.300   6.472  1.0874  1.0306 -0.2969
  844MOL0     H11373   7.472   0.380   6.297 -0.3803 -1.7703  2.5898
  844MOL0     H11374   7.282   0.310   5.897 -0.0441  1.4819  2.4147
  844MOL0     H11375   7.449   0.241   5.931  0.0734 -1.2005  0.4947
  844MOL0     H11376   7.403   0.528   5.808  2.0276  0.8087  2.2640
  844MOL0     H11377   7.443   0.380   5.714 -0.3713  1.5227 -0.5637
  844MOL0     H11378   7.656   0.363   5.826 -1.1777 -1.0394  1.1872
  844MOL0     H11379   7.612   0.523   5.909 -1.1841  1.5891 -1.6567
  844MOL0     H11380   7.654   0.438   5.631 -2.3704 -0.4614 -0.4089
  844MOL0     H11381   7.570   0.592   5.656  0.7255  0.8609 -0.9442
  844MOL0     H11382   7.848   0.522   5.766 -0.0042  0.3938  2.1488
  844MOL0     H11383   7.772   0.675   5.782  0.2865  1.3823 -2.5311
  844MOL0     H11384   7.791   0.719   5.521  2.6551  1.4918 -1.5389
  844MOL0     H11385   7.872   0.566   5.518 -1.6684 -1.2867  2.0253
  844MOL0     H11386   7.938   0.791   5.714 -1.6241  2.6046 -2.8979
  844MOL0     H11387   8.041   0.651   5.672  1.0655  0.7087  0.9749
  844MOL0     H11388   7.962   0.858   5.460  1.9026 -1.0145 -2.4928
  844MOL0     H11389   8.096   0.746   5.457  0.9156  1.1463 -0.9667
  844MOL0     H11390   7.123   0.370   6.030  0.7567  0.5880 -1.1744
  844MOL0     H11391   6.985   0.303   6.208 -0.0418  0.8673  0.2428
  844MOL0     H11392   6.689   0.195   6.531  0.9143 -0.2667 -0.2686
  844MOL0     H11393   6.566   0.207   6.740  0.2759 -1.8829 -0.8337
  844MOL0     H11394   7.649   0.165   6.182 -0.0140  0.6877 -0.9694
  844MOL0     H11395   7.773   0.271   6.000 -1.5131  0.5774  0.6816
  844MOL0     H11396   7.904   0.281   5.573  1.1076 -1.2109 -1.5931
  844MOL0     H11397   8.016   0.432   5.426 -1.2894 -1.1072  0.6852
  844MOL0     H11398   8.447   0.467   5.402  0.1539 -0.6588  1.8485
  844MOL0     H11399   8.418   0.590   5.535 -2.5057  0.5022  0.9350
  844MOL0     H11400   8.398   0.651   5.238  2.8730  1.6793 -0.9176
  844MOL0     H11401   8.313   0.740   5.364  0.2158  0.8203 -0.8221
  844MOL0     H11402   8.613   0.673   5.373 -0.5810 -1.9583 -1.0163
  844MOL0     H11403   8.532   0.761   5.488  1.0709 -3.1359  1.0985
  844MOL0     H11404   8.664   0.918   5.353 -0.3389 -0.7278  1.8881
  844MOL0     H11405   8.583   0.856   5.204 -2.1971 -1.1294 -0.1481
  844MOL0     H11406   8.287   1.116   5.357 -0.3645 -0.8934  0.6902
  844MOL0     H11407   8.389   0.386   5.653 -0.1783 -0.6564  0.6647
  844MOL0     H11408   8.252   0.266   5.820 -0.2247  2.7757  1.4530
  845MOL0     O11409   5.055  10.837   3.848 -0.1634  0.0335  0.2899
  845MOL0     C11410   5.049  10.924   3.934 -0.4964  0.3304  0.0444
  845MOL0     O11411   4.944  10.948   4.010 -0.3085  0.3991 -0.1116
  845MOL0     C11412   4.815  10.903   3.970  0.3538 -0.5313 -0.1858
  845MOL0     C11413   4.745  10.815   4.052 -0.4683 -0.1708  0.5489
  845MOL0     C11414   4.622  10.757   4.008  0.2053 -0.2759  0.2370
  845MOL0     C11415   4.565  10.802   3.881  0.1254  0.6861  0.7744
  845MOL0     O11416   4.448  10.748   3.835 -0.0469  0.0344  0.2377
  845MOL0     C11417   4.378  10.818   3.727 -0.1394 -0.5745  0.5228
  845MOL0     C11418   4.238  10.757   3.708 -0.3068  0.0655  0.4826
  845MOL0     C11419   4.233  10.611   3.728  0.6367  0.3868 -0.1169
  845MOL0     C11420   4.108  10.548   3.675  0.3441  0.3945 -0.7379
  845MOL0     C11421   4.130  10.407   3.608 -0.5072  1.3731  0.8746
  845MOL0     C11422   3.989  10.342   3.583 -0.3554 -0.1582 -0.1382
  845MOL0     C11423   3.905  10.417   3.479  0.8210 -0.2373  0.2100
  845MOL0     C11424   3.781  10.342   3.438  0.6609 -0.6434 -0.8683
  845MOL0     N11425   3.677  10.355   3.542  0.0427 -0.2297  0.3030
  845MOL0     C11426   3.666  10.287   3.664  0.3240  0.3100 -0.1305
  845MOL0     C11427   3.547  10.342   3.711  1.2507  0.9837  0.3461
  845MOL0     C11428   3.482  10.321   3.844  0.1864 -0.1370 -0.1024
  845MOL0     C11429   3.487  10.187   3.895  0.3093  0.6740 -0.5166
  845MOL0     C11430   3.483  10.166   4.051  0.6558 -0.2768  0.3393
  845MOL0     C11431   3.332  10.135   4.101  0.0971 -0.2568  0.1009
  845MOL0     O11432   3.265  10.254   4.090  1.0006 -0.6007  0.1137
  845MOL0     C11433   3.141  10.265   4.148 -0.1440 -0.8186  0.1624
  845MOL0     C11434   3.091  10.392   4.134 -0.5404  0.4417  0.1449
  845MOL0     C11435   2.964  10.426   4.188  0.0011 -0.1981 -1.0633
  845MOL0     C11436   2.891  10.330   4.269  0.1146 -0.0631 -0.6660
  845MOL0     C11437   2.777  10.377   4.346  0.9425 -0.7112 -0.8208
  845MOL0     O11438   2.708  10.287   4.413  0.4809  0.4744  0.5453
  845MOL0     C11439   2.599  10.314   4.494 -0.3702 -0.2860 -0.5054
  845MOL0     C11440   2.500  10.211   4.503  0.1728  0.4609  0.2078
  845MOL0     C11441   2.379  10.237   4.567  0.3796 -0.0389 -0.6846
  845MOL0     C11442   2.368  10.354   4.648 -0.1177  0.0048  0.2155
  845MOL0     O11443   2.267  10.396   4.722 -0.2284  0.2813  0.4616
  845MOL0     C11444   2.134  10.357   4.692 -0.3521 -0.0810 -0.0286
  845MOL0     C11445   2.038  10.450   4.762  0.5145  0.0127 -0.4038
  845MOL0     C11446   1.901  10.439   4.694 -0.1894 -1.0968  0.8192
  845MOL0     C11447   1.794  10.521   4.770 -0.6517 -0.5587  0.8477
  845MOL0     C11448   1.649  10.509   4.707 -0.3899  0.5121 -0.1742
  845MOL0     C11449   1.606  10.366   4.729  0.8167  0.3406  0.6207
  845MOL0     C11450   1.467  10.354   4.661 -0.2763  0.1839 -0.1784
  845MOL0     C11451   1.352  10.418   4.727  0.0131 -0.4483  0.0892
  845MOL0    Cl11452   1.345  10.379   4.892  0.3937  0.1072  0.2810
  845MOL0     C11453   2.466  10.449   4.646  0.1274 -0.6566  0.6790
  845MOL0     C11454   2.581  10.433   4.571  0.3296 -0.4043  0.3652
  845MOL0     O11455   2.741  10.489   4.326 -0.5250 -0.3115 -0.0323
  845MOL0     C11456   2.950  10.206   4.293  0.2522  0.9071 -1.0852
  845MOL0     C11457   3.069  10.171   4.225  0.3670  0.6178 -0.4195
  845MOL0     N11458   3.490  10.417   3.609  0.4087 -0.2086 -0.1510
  845MOL0     N11459   3.566  10.417   3.509  0.7163  0.4802  0.2313
  845MOL0     C11460   4.630  10.902   3.812  0.4970  0.7299 -0.6087
  845MOL0     C11461   4.752  10.946   3.852 -0.8985  0.4050  0.0809
  845MOL0     C11462   5.165  11.012   3.943 -0.4074 -0.8990 -0.1180
  845MOL0     C11463   5.283  10.994   3.866 -0.0751 -0.5445  0.5779
  845MOL0     C11464   5.396  11.085   3.868  0.0391 -0.5311 -0.7570
  845MOL0     C11465   5.390  11.201   3.941 -0.7396 -0.6257  0.0285
  845MOL0     O11466   5.494  11.289   3.959  0.4377 -0.5981 -0.0673
  845MOL0     C11467   5.627  11.275   3.897  0.0156  0.0783 -0.1639
  845MOL0     C11468   5.715  11.395   3.913 -0.0784  0.0519  0.0769
  845MOL0     C11469   5.857  11.377   3.850  0.4271  0.9250  0.1334
  845MOL0     C11470   5.947  11.504   3.860 -0.0397  0.1433 -0.0573
  845MOL0     C11471   5.957  11.549   3.996 -1.0320  0.1241 -0.7110
  845MOL0     C11472   5.982  11.579   4.117 -0.0354  0.8929 -0.3003
  845MOL0     C11473   5.275  11.223   4.023  0.1546 -0.2975 -0.5111
  845MOL0     C11474   5.165  11.132   4.025  0.1199 -0.9399 -0.3845
  845MOL0     H11475   4.794  10.801   4.148  1.8379 -1.0570 -0.6648
  845MOL0     H11476   4.570  10.686   4.071 -3.6156  2.8559  1.0125
  845MOL0     H11477   4.430  10.817   3.631 -0.5869  1.1034  0.2214
  845MOL0     H11478   4.352  10.921   3.756 -1.6126 -1.2690  1.8423
  845MOL0     H11479   4.197  10.774   3.608  0.0242 -0.3570  0.2717
  845MOL0     H11480   4.161  10.810   3.765 -1.6282 -2.2079  0.9471
  845MOL0     H11481   4.241  10.597   3.836  2.5344 -0.3402 -0.3208
  845MOL0     H11482   4.304  10.551   3.671 -2.5773 -3.4570 -0.4988
  845MOL0     H11483   4.044  10.542   3.763 -0.9607  1.1807 -1.6013
  845MOL0     H11484   4.051  10.621   3.616 -1.6406 -0.2040  0.3357
  845MOL0     H11485   4.176  10.345   3.686 -2.4984 -2.3519 -0.6482
  845MOL0     H11486   4.185  10.408   3.514 -1.4562  2.8694  0.3066
  845MOL0     H11487   3.926  10.351   3.672 -0.4754  0.9005 -0.3190
  845MOL0     H11488   4.004  10.241   3.546 -1.1505 -0.1203 -0.5897
  845MOL0     H11489   3.872  10.514   3.516 -2.0365 -1.0396  0.0130
  845MOL0     H11490   3.971  10.443   3.396 -1.7551  3.1487 -1.0450
  845MOL0     H11491   3.807  10.236   3.435  1.1000 -0.5671 -0.1099
  845MOL0     H11492   3.739  10.383   3.345 -0.2180  2.2004  0.6410
  845MOL0     H11493   3.739  10.229   3.720 -1.2215  2.0895  4.1413
  845MOL0     H11494   3.376  10.347   3.832  0.6850  1.0274 -2.6157
  845MOL0     H11495   3.525  10.391   3.916 -2.3225  1.9310 -0.4348
  845MOL0     H11496   3.576  10.134   3.862  0.5701  1.7520 -1.6270
  845MOL0     H11497   3.410  10.122   3.852  2.7235 -2.7908  0.0464
  845MOL0     H11498   3.547  10.078   4.067  0.3761 -0.5311  0.0820
  845MOL0     H11499   3.514  10.255   4.106 -0.8151  0.9417 -0.7150
  845MOL0     H11500   3.332  10.100   4.205 -1.3507  0.2422  0.2829
  845MOL0     H11501   3.287  10.061   4.034  1.5681 -0.7068 -0.4390
  845MOL0     H11502   3.155  10.464   4.085 -0.8547 -1.7922 -4.0549
  845MOL0     H11503   2.930  10.528   4.175  0.9713  0.4647  1.1472
  845MOL0     H11504   2.515  10.113   4.457 -1.8377  0.8927 -1.5364
  845MOL0     H11505   2.306  10.157   4.568  0.4011 -0.0631  0.5045
  845MOL0     H11506   2.110  10.257   4.729 -1.2872  0.1588  0.0322
  845MOL0     H11507   2.132  10.349   4.582 -1.0243 -0.1121 -0.0167
  845MOL0     H11508   2.086  10.548   4.762  2.3749 -0.8496 -0.2832
  845MOL0     H11509   2.043  10.401   4.860  2.4588 -0.6717 -0.8112
  845MOL0     H11510   1.879  10.332   4.688  2.6725 -1.6842 -0.9351
  845MOL0     H11511   1.906  10.484   4.595  0.9396 -2.5541  0.1856
  845MOL0     H11512   1.797  10.493   4.876  1.8084 -3.4082  0.1507
  845MOL0     H11513   1.824  10.625   4.753  1.1210 -1.0069  1.0364
  845MOL0     H11514   1.647  10.533   4.600 -1.3555  0.8849 -0.0829
  845MOL0     H11515   1.584  10.577   4.762 -0.1338  2.5214 -2.1681
  845MOL0     H11516   1.598  10.325   4.830  2.5474 -1.7596 -0.0006
  845MOL0     H11517   1.677  10.304   4.673  1.3042  0.5445  1.0066
  845MOL0     H11518   1.471  10.401   4.562 -0.8997  1.1906  0.2592
  845MOL0     H11519   1.454  10.246   4.649  1.5746  0.0256 -1.2347
  845MOL0     H11520   1.257  10.394   4.677 -0.1180  0.3355 -0.0547
  845MOL0     H11521   1.368  10.524   4.704  1.8824 -0.3628  1.5574
  845MOL0     H11522   2.457  10.534   4.712  3.4126 -0.0344  0.5158
  845MOL0     H11523   2.654  10.513   4.567 -0.9318  0.8024  0.5681
  845MOL0     H11524   2.906  10.133   4.361  0.4852  0.3263 -1.5549
  845MOL0     H11525   3.111  10.071   4.235 -1.5959 -0.4131 -1.6699
  845MOL0     H11526   4.598  10.939   3.715  0.3661 -1.6214 -1.5386
  845MOL0     H11527   4.799  11.010   3.778  0.3093 -0.2385  0.2793
  845MOL0     H11528   5.301  10.900   3.815  0.6244 -1.0527  1.7313
  845MOL0     H11529   5.483  11.059   3.810 -1.3741 -3.1469 -1.8811
  845MOL0     H11530   5.610  11.262   3.789 -4.1727 -0.4322  0.3826
  845MOL0     H11531   5.689  11.200   3.946  5.0069  2.8325 -1.6086
  845MOL0     H11532   5.664  11.464   3.846  0.3325 -0.3586 -0.6683
  845MOL0     H11533   5.716  11.431   4.016 -3.4088  0.9178 -0.0778
  845MOL0     H11534   5.851  11.337   3.748  1.4351 -2.4583  1.2705
  845MOL0     H11535   5.897  11.290   3.902  2.3055  2.0019  0.5827
  845MOL0     H11536   6.043  11.474   3.817 -0.3501  1.6505 -1.9215
  845MOL0     H11537   5.910  11.593   3.808 -0.2980 -0.3917 -0.7944
  845MOL0     H11538   6.004  11.613   4.216 -1.0898  1.3524 -0.2131
  845MOL0     H11539   5.285  11.314   4.082  1.1066  0.1225 -1.2770
  845MOL0     H11540   5.089  11.150   4.101  2.6487  2.1044  1.6819
  846MOL0     O11541   4.157   3.057   8.145  0.7283 -0.7064  0.5708
  846MOL0     C11542   4.241   2.983   8.185  0.0769  0.0332 -0.1219
  846MOL0     O11543   4.256   2.957   8.317  0.1337 -0.0496  0.7951
  846MOL0     C11544   4.144   2.935   8.391  0.0067 -0.1634  0.5168
  846MOL0     C11545   4.150   2.960   8.526 -1.0779  0.2503 -0.1795
  846MOL0     C11546   4.048   2.927   8.615 -0.1827 -0.7213  0.4769
  846MOL0     C11547   3.932   2.870   8.570 -0.8753 -0.6479 -0.0050
  846MOL0     O11548   3.814   2.853   8.647 -0.0452  0.0638 -1.0284
  846MOL0     C11549   3.812   2.917   8.775 -0.3080 -0.7639  0.1112
  846MOL0     C11550   3.672   2.922   8.817  0.3012 -0.3765  0.0085
  846MOL0     C11551   3.607   2.785   8.829 -0.1595  0.4002  0.5493
  846MOL0     C11552   3.471   2.778   8.910  0.0542 -0.2293  0.3521
  846MOL0     C11553   3.402   2.638   8.919 -0.3006 -1.1991 -0.2965
  846MOL0     C11554   3.260   2.666   8.984 -1.3661  0.0615  0.0526
  846MOL0     C11555   3.198   2.540   9.027 -0.0954 -0.3356  0.3288
  846MOL0     C11556   3.058   2.554   9.093  0.3951 -0.0530 -0.2508
  846MOL0     N11557   2.967   2.447   9.054  0.3254  0.8274 -0.3904
  846MOL0     C11558   2.964   2.325   9.122  1.0205 -0.4106  0.4927
  846MOL0     C11559   2.862   2.258   9.064 -0.0158  1.1791  0.9084
  846MOL0     C11560   2.819   2.118   9.107 -0.2035 -0.9286  0.2580
  846MOL0     C11561   2.724   2.121   9.227  0.5391 -1.3215  0.7839
  846MOL0     C11562   2.587   2.168   9.198 -0.7200 -0.1603  0.1637
  846MOL0     C11563   2.498   2.053   9.145  0.0492  0.0106  0.5255
  846MOL0     O11564   2.482   1.950   9.242 -0.4691  0.4571 -0.8352
  846MOL0     C11565   2.352   1.888   9.247  0.3090  0.6881 -0.5907
  846MOL0     C11566   2.250   1.950   9.313 -0.3877  0.3455  0.0056
  846MOL0     C11567   2.128   1.890   9.329  0.4752  0.7739  0.0685
  846MOL0     C11568   2.102   1.763   9.282  0.2114  0.1309  1.0600
  846MOL0     C11569   1.969   1.693   9.295 -0.6114  0.4857  0.3539
  846MOL0     O11570   1.870   1.747   9.371  0.4166 -0.0641  0.5399
  846MOL0     C11571   1.738   1.715   9.346  0.1677 -0.1576  0.7690
  846MOL0     C11572   1.686   1.577   9.347 -0.2004  0.4153 -0.2166
  846MOL0     C11573   1.556   1.546   9.307 -1.0173  0.5009  0.4671
  846MOL0     C11574   1.465   1.650   9.281 -0.0744 -0.2733 -0.7385
  846MOL0     O11575   1.335   1.623   9.243  0.1752 -0.4139  0.6586
  846MOL0     C11576   1.242   1.726   9.210  0.4612 -0.5213 -0.0718
  846MOL0     C11577   1.104   1.660   9.182  0.3120 -0.3090 -0.3664
  846MOL0     C11578   1.068   1.584   9.307  1.6508  0.6099 -0.4506
  846MOL0     C11579   0.927   1.521   9.298  0.2213  0.3898 -0.0049
  846MOL0     C11580   0.892   1.442   9.431  0.6465 -0.1218  0.0064
  846MOL0     C11581   0.852   1.533   9.548  0.8886 -0.1024  0.3040
  846MOL0     C11582   0.705   1.583   9.534  0.3382  0.3318  0.5893
  846MOL0     C11583   0.691   1.705   9.618 -0.1217 -0.4407 -0.7454
  846MOL0    Cl11584   0.522   1.734   9.684  0.2566 -0.1814  0.0048
  846MOL0     C11585   1.506   1.782   9.305 -0.0448  0.3052  0.4301
  846MOL0     C11586   1.643   1.814   9.328 -0.1842  0.5427 -0.0640
  846MOL0     O11587   1.958   1.589   9.229  0.4879 -0.7364  0.7022
  846MOL0     C11588   2.206   1.704   9.207  0.4897  0.9657 -0.9390
  846MOL0     C11589   2.335   1.762   9.197  0.3705  0.6147  0.2736
  846MOL0     N11590   2.809   2.343   8.970 -0.4424  0.4747 -0.1460
  846MOL0     N11591   2.867   2.462   8.965  0.6223  0.0886 -0.3925
  846MOL0     C11592   3.919   2.853   8.432  0.3993 -0.8471  0.0662
  846MOL0     C11593   4.026   2.880   8.344  0.5183  0.2025  0.3931
  846MOL0     C11594   4.356   2.932   8.098  0.7368  0.0304  0.1219
  846MOL0     C11595   4.389   2.997   7.975 -0.2937 -0.0892  0.1345
  846MOL0     C11596   4.501   2.960   7.896  0.5164 -0.3341 -0.3486
  846MOL0     C11597   4.576   2.851   7.940 -0.0514 -0.3686 -0.1210
  846MOL0     O11598   4.682   2.807   7.864 -0.0623  0.1871  0.2010
  846MOL0     C11599   4.815   2.842   7.914 -0.0702 -0.5209 -0.5778
  846MOL0     C11600   4.918   2.746   7.851  0.0360  0.4442  0.1171
  846MOL0     C11601   4.988   2.802   7.725 -0.1049 -0.2434 -0.0332
  846MOL0     C11602   5.120   2.713   7.692  0.6888 -0.0261  0.3068
  846MOL0     C11603   5.071   2.585   7.630 -0.4129 -0.8725 -0.5336
  846MOL0     C11604   5.030   2.480   7.573 -0.0298 -0.6607 -0.2727
  846MOL0     C11605   4.556   2.783   8.063 -0.1016  0.2634 -0.0624
  846MOL0     C11606   4.444   2.822   8.134 -0.4494  0.1050 -0.5909
  846MOL0     H11607   4.235   3.019   8.559 -0.6086 -0.6777  0.3158
  846MOL0     H11608   4.060   2.944   8.722 -1.4685  2.6624  0.2280
  846MOL0     H11609   3.863   3.013   8.778  2.1426 -1.9946  1.5470
  846MOL0     H11610   3.877   2.853   8.836 -0.6547 -3.5784 -2.2459
  846MOL0     H11611   3.604   2.977   8.752 -3.2894 -0.2610  3.4696
  846MOL0     H11612   3.676   2.959   8.920 -3.4128 -1.5152  0.7267
  846MOL0     H11613   3.680   2.719   8.876 -1.1573 -0.1569  1.3385
  846MOL0     H11614   3.576   2.752   8.730  0.8294 -1.1932  0.7358
  846MOL0     H11615   3.491   2.816   9.011  1.9697  0.5323 -0.2611
  846MOL0     H11616   3.400   2.847   8.863  0.3084 -1.3194 -1.7546
  846MOL0     H11617   3.462   2.576   8.986  1.3360 -0.6250 -1.1827
  846MOL0     H11618   3.393   2.585   8.823  0.1325 -1.3171 -0.2709
  846MOL0     H11619   3.197   2.725   8.916  0.1045  1.0703 -0.4833
  846MOL0     H11620   3.270   2.722   9.078 -0.4405 -0.4363  0.2552
  846MOL0     H11621   3.192   2.468   8.945 -1.9400  1.5670 -1.2818
  846MOL0     H11622   3.266   2.498   9.102 -0.9173 -2.0137  0.1875
  846MOL0     H11623   3.010   2.650   9.070  1.0873  0.8249  1.7179
  846MOL0     H11624   3.070   2.551   9.202  1.5790  1.3029 -0.3122
  846MOL0     H11625   3.015   2.308   9.216  2.0030  2.3498  0.5413
  846MOL0     H11626   2.916   2.077   9.136  1.2416  0.9800 -1.5402
  846MOL0     H11627   2.779   2.075   9.014  1.1341  2.6725 -2.2149
  846MOL0     H11628   2.755   2.185   9.310 -0.3107  1.0485 -0.6311
  846MOL0     H11629   2.719   2.017   9.260  1.9458 -2.6561 -2.7424
  846MOL0     H11630   2.532   2.203   9.286 -0.1932  0.5399  0.2204
  846MOL0     H11631   2.589   2.248   9.123  1.5893  1.0746  1.4429
  846MOL0     H11632   2.554   2.010   9.061 -0.1811  1.7809 -0.5839
  846MOL0     H11633   2.405   2.104   9.118  2.0035  2.6771 -1.7579
  846MOL0     H11634   2.272   2.045   9.361  0.8214  0.4522 -0.7095
  846MOL0     H11635   2.048   1.935   9.388 -0.8618 -0.7676 -0.4824
  846MOL0     H11636   1.755   1.502   9.383  0.5815  2.0997  2.0965
  846MOL0     H11637   1.543   1.440   9.287  2.7523 -0.1724  0.8184
  846MOL0     H11638   1.277   1.782   9.123 -0.0263  0.9441  0.6427
  846MOL0     H11639   1.237   1.801   9.289 -1.4415  0.3567 -0.9670
  846MOL0     H11640   1.110   1.595   9.095 -3.0216 -2.9690  1.1611
  846MOL0     H11641   1.029   1.739   9.169  0.8878  0.3413  0.1355
  846MOL0     H11642   1.073   1.647   9.396 -0.4549 -0.1040  0.2337
  846MOL0     H11643   1.138   1.500   9.317  1.6492  0.5596 -0.8419
  846MOL0     H11644   0.854   1.596   9.268  1.7074  0.9314 -2.6488
  846MOL0     H11645   0.911   1.451   9.215 -0.3456  2.1015 -1.3855
  846MOL0     H11646   0.989   1.399   9.458  0.1252 -1.2801  0.1018
  846MOL0     H11647   0.815   1.366   9.413  1.6340 -1.1083 -0.1442
  846MOL0     H11648   0.922   1.615   9.567  0.9032 -0.1425  0.4229
  846MOL0     H11649   0.847   1.468   9.636  2.5569 -2.6545 -1.3454
  846MOL0     H11650   0.681   1.603   9.429 -0.1133  1.6289  0.9201
  846MOL0     H11651   0.633   1.505   9.558  0.6962  0.0185  0.6591
  846MOL0     H11652   0.734   1.795   9.573 -0.6072  0.6116  0.7995
  846MOL0     H11653   0.745   1.692   9.713 -1.2528 -1.1471 -0.1828
  846MOL0     H11654   1.438   1.862   9.277  1.2083  0.9031 -1.0797
  846MOL0     H11655   1.680   1.916   9.332  0.0550  0.4654 -0.2525
  846MOL0     H11656   2.191   1.610   9.154  0.5297  0.6330 -0.3675
  846MOL0     H11657   2.415   1.709   9.147 -1.6178 -2.1316 -0.2410
  846MOL0     H11658   3.836   2.807   8.380  0.3037 -1.5620  0.8441
  846MOL0     H11659   4.006   2.857   8.240 -1.9535 -0.3794  0.9383
  846MOL0     H11660   4.317   3.069   7.937 -2.1028 -1.1617  1.3711
  846MOL0     H11661   4.524   2.996   7.797 -1.7681 -2.7398 -1.9039
  846MOL0     H11662   4.819   2.840   8.023  2.4386  1.0214 -0.5504
  846MOL0     H11663   4.854   2.940   7.885  0.9865 -0.6572  0.3009
  846MOL0     H11664   4.998   2.726   7.923  2.3416 -0.6712 -2.5747
  846MOL0     H11665   4.877   2.651   7.818  1.6371  0.3106 -1.6051
  846MOL0     H11666   5.015   2.906   7.746 -0.8925 -0.0401  0.0220
  846MOL0     H11667   4.929   2.803   7.633  0.0467  0.4225 -0.1273
  846MOL0     H11668   5.168   2.771   7.613 -4.2769  2.6238 -1.1885
  846MOL0     H11669   5.186   2.691   7.776  0.7839 -1.6663 -0.1675
  846MOL0     H11670   5.005   2.378   7.556  0.4187 -0.6955 -0.7190
  846MOL0     H11671   4.623   2.705   8.098 -3.2373 -1.2373  3.1879
  846MOL0     H11672   4.423   2.771   8.228 -3.4899 -0.0706 -1.2565
  847MOL0     O11673   1.861   2.146   0.778 -0.0680  0.4251  0.2289
  847MOL0     C11674   1.885   2.023   0.780 -0.2109  0.1250 -0.2415
  847MOL0     O11675   1.793   1.925   0.809 -0.2383  0.2359  0.2157
  847MOL0     C11676   1.660   1.965   0.801  0.1022  0.9307  0.1706
  847MOL0     C11677   1.600   1.999   0.919  0.1862 -1.1903 -0.6672
  847MOL0     C11678   1.470   2.058   0.911  0.2593  0.2856  0.2522
  847MOL0     C11679   1.394   2.064   0.799 -0.5581  0.3770  0.1371
  847MOL0     O11680   1.262   2.093   0.806  0.1323  0.0966  0.0074
  847MOL0     C11681   1.173   1.989   0.770  0.1783  0.2381  0.4302
  847MOL0     C11682   1.033   2.024   0.808  0.5208  0.1847  0.4777
  847MOL0     C11683   0.974   2.133   0.709 -0.5025  0.9540 -0.1634
  847MOL0     C11684   0.829   2.153   0.735 -0.5286  0.0016 -0.0195
  847MOL0     C11685   0.766   2.257   0.647  0.8923 -0.1779 -0.1514
  847MOL0     C11686   0.611   2.238   0.663 -0.7573 -0.5338  0.8821
  847MOL0     C11687   0.539   2.356   0.594 -0.0430  0.5811 -0.6858
  847MOL0     C11688   0.391   2.318   0.577 -0.2176 -1.6211 -0.2406
  847MOL0     N11689   0.318   2.437   0.532  0.0120  0.0597  0.1487
  847MOL0     C11690   0.276   2.474   0.402  0.2227 -0.4227 -0.4070
  847MOL0     C11691   0.188   2.573   0.429  0.1248  0.2601  0.1866
  847MOL0     C11692   0.130   2.656   0.321 -0.0024  0.0926 -0.7672
  847MOL0     C11693   0.007   2.740   0.352  0.8411 -1.1626  0.3491
  847MOL0     C11694  -0.016   2.832   0.224  0.6500  0.9532 -0.2093
  847MOL0     C11695  -0.159   2.897   0.217 -0.0228 -0.0093 -0.3306
  847MOL0     O11696  -0.179   2.965   0.087  0.3191  0.0515 -0.2193
  847MOL0     C11697  -0.298   3.025   0.086  0.9311 -0.0267  0.3348
  847MOL0     C11698  -0.384   3.071   0.183 -0.5293  0.4004  0.6565
  847MOL0     C11699  -0.506   3.125   0.157 -0.1942  0.2540  0.2044
  847MOL0     C11700  -0.561   3.116   0.029  0.3629  0.3870  0.1835
  847MOL0     C11701  -0.706   3.151   0.005 -0.1744  0.0760 -0.0427
  847MOL0     O11702  -0.756   3.105  -0.119 -0.0845 -0.0382  0.5519
  847MOL0     C11703  -0.891   3.103  -0.141 -0.8654  0.3930  0.2234
  847MOL0     C11704  -0.955   2.985  -0.109  0.1469  0.2662  0.5202
  847MOL0     C11705  -1.077   2.963  -0.175 -0.4887 -0.0556 -0.4638
  847MOL0     C11706  -1.138   3.063  -0.252  0.5353  0.6236  0.5498
  847MOL0     O11707  -1.262   3.049  -0.315 -0.4825 -0.5771 -0.0616
  847MOL0     C11708  -1.266   2.987  -0.445 -0.0713 -0.6936 -0.2813
  847MOL0     C11709  -1.282   3.096  -0.544 -0.4382 -1.1800  0.2543
  847MOL0     C11710  -1.283   3.038  -0.683 -1.6041  1.1283  1.0849
  847MOL0     C11711  -1.281   3.156  -0.781 -0.5139  0.8135 -0.1147
  847MOL0     C11712  -1.354   3.113  -0.909  0.3826  0.8628 -0.0276
  847MOL0     C11713  -1.347   3.224  -1.012  0.2352  0.2205  0.0301
  847MOL0     C11714  -1.409   3.177  -1.153 -0.4059 -0.7613  0.0554
  847MOL0     C11715  -1.384   3.294  -1.259 -0.4388  1.1362 -0.2105
  847MOL0    Cl11716  -1.455   3.463  -1.207 -0.2398 -0.2895 -0.1460
  847MOL0     C11717  -1.074   3.185  -0.261  0.0427  0.7058 -0.4585
  847MOL0     C11718  -0.942   3.201  -0.219  0.5655 -0.7431 -0.2776
  847MOL0     O11719  -0.767   3.217   0.089  0.0050 -0.7476  0.0211
  847MOL0     C11720  -0.480   3.071  -0.074  0.5103 -0.2912 -0.2765
  847MOL0     C11721  -0.347   3.034  -0.047 -0.4266  1.2265 -0.2672
  847MOL0     N11722   0.168   2.582   0.564 -0.1817 -0.0512 -0.3153
  847MOL0     N11723   0.254   2.515   0.623  0.1345  1.1422  0.3739
  847MOL0     C11724   1.460   2.045   0.678 -1.0300  0.0327  0.5768
  847MOL0     C11725   1.597   1.995   0.677  0.3471  1.1982 -0.0931
  847MOL0     C11726   2.029   1.988   0.763  1.0831 -0.4551 -0.5376
  847MOL0     C11727   2.054   1.850   0.737  0.3528  0.0932  0.3295
  847MOL0     C11728   2.185   1.814   0.712 -0.5878 -0.0461 -0.4963
  847MOL0     C11729   2.288   1.903   0.711 -0.2118 -0.1722  0.2971
  847MOL0     O11730   2.418   1.852   0.680  0.2119  0.4488 -0.0398
  847MOL0     C11731   2.513   1.948   0.630  0.5491 -0.2387  1.0075
  847MOL0     C11732   2.618   2.010   0.720 -0.1203 -0.6545  0.0403
  847MOL0     C11733   2.721   2.100   0.660  0.4459 -0.8552 -0.1481
  847MOL0     C11734   2.854   2.056   0.718  0.7062  0.1720  0.2157
  847MOL0     C11735   2.960   2.137   0.660 -0.0370  0.6140 -0.3469
  847MOL0     C11736   3.055   2.187   0.606  0.5599 -0.2024 -0.2043
  847MOL0     C11737   2.265   2.040   0.739 -0.3180  0.3638  0.0717
  847MOL0     C11738   2.132   2.085   0.763  0.1763 -0.1813 -0.7390
  847MOL0     H11739   1.656   1.999   1.012 -0.3009 -0.2081 -0.3577
  847MOL0     H11740   1.426   2.065   1.011  1.3359 -2.5964  1.0400
  847MOL0     H11741   1.203   1.893   0.813  3.5935  1.4590  1.0775
  847MOL0     H11742   1.166   1.974   0.662  0.4663  1.0454  0.2932
  847MOL0     H11743   1.032   2.061   0.911  2.8940  0.8144  0.3168
  847MOL0     H11744   0.966   1.937   0.803  1.1325 -0.2748  0.2466
  847MOL0     H11745   0.982   2.114   0.602  0.1115  0.1214  0.0249
  847MOL0     H11746   1.040   2.220   0.723 -0.5256  1.5544 -3.1530
  847MOL0     H11747   0.782   2.056   0.718  0.9616 -0.8645  0.5155
  847MOL0     H11748   0.812   2.176   0.841  1.6178 -2.7444  1.0824
  847MOL0     H11749   0.795   2.261   0.542 -1.3068  4.0206 -0.8193
  847MOL0     H11750   0.790   2.353   0.695  0.9269 -0.4684  0.4231
  847MOL0     H11751   0.588   2.222   0.769  1.3750 -0.7929  1.3627
  847MOL0     H11752   0.578   2.147   0.613 -1.0415  0.9458 -1.8195
  847MOL0     H11753   0.551   2.444   0.659  0.9991 -1.1889  1.6680
  847MOL0     H11754   0.577   2.394   0.498 -1.7873  2.7495 -0.6119
  847MOL0     H11755   0.349   2.286   0.672  1.7155  1.7710  1.9751
  847MOL0     H11756   0.391   2.233   0.507  1.5383 -1.1937 -0.8220
  847MOL0     H11757   0.312   2.453   0.301 -0.8252 -3.5261 -0.2602
  847MOL0     H11758   0.106   2.590   0.237 -0.6056 -1.9925  0.9767
  847MOL0     H11759   0.208   2.729   0.295  0.0932 -0.3785 -1.8925
  847MOL0     H11760   0.021   2.801   0.442 -0.6660  0.2542 -0.3244
  847MOL0     H11761  -0.080   2.675   0.366  1.4938 -2.0188  0.5198
  847MOL0     H11762   0.057   2.914   0.225  2.3846 -0.5331  1.3556
  847MOL0     H11763  -0.003   2.767   0.138 -1.3502  0.6069 -0.3065
  847MOL0     H11764  -0.165   2.974   0.294 -1.7741  0.5095 -0.9449
  847MOL0     H11765  -0.236   2.823   0.241  1.4808 -1.3851  0.5003
  847MOL0     H11766  -0.364   3.080   0.289 -0.1931  2.1265  0.4736
  847MOL0     H11767  -0.563   3.169   0.238 -1.0498  2.6408 -1.5645
  847MOL0     H11768  -0.896   2.909  -0.058  1.9329  1.0479 -0.2967
  847MOL0     H11769  -1.123   2.864  -0.183 -0.6955  0.1971 -3.1311
  847MOL0     H11770  -1.353   2.923  -0.459 -0.8408  0.4025 -0.6444
  847MOL0     H11771  -1.181   2.926  -0.478 -0.6000 -0.1489 -2.8987
  847MOL0     H11772  -1.201   3.169  -0.535  0.4792 -2.1002 -0.3578
  847MOL0     H11773  -1.379   3.135  -0.510 -0.8896 -1.8384 -0.2580
  847MOL0     H11774  -1.370   2.975  -0.696 -0.3758 -0.6513  1.1738
  847MOL0     H11775  -1.187   2.988  -0.702 -1.8079  1.1281  0.0064
  847MOL0     H11776  -1.334   3.247  -0.750 -0.5576  1.0628 -0.8809
  847MOL0     H11777  -1.176   3.177  -0.806 -0.6288  0.4741 -0.9159
  847MOL0     H11778  -1.457   3.079  -0.895  0.8071 -0.4517  0.0562
  847MOL0     H11779  -1.304   3.024  -0.948 -0.6709 -0.4788  1.5421
  847MOL0     H11780  -1.241   3.239  -1.035  0.4107 -0.2833  0.4914
  847MOL0     H11781  -1.395   3.320  -0.992  1.2303  1.0432 -1.3013
  847MOL0     H11782  -1.363   3.088  -1.196 -0.5377  0.1624 -2.1374
  847MOL0     H11783  -1.517   3.166  -1.140 -0.7310 -1.3356 -2.5987
  847MOL0     H11784  -1.433   3.264  -1.352 -2.8939 -1.3246  1.6996
  847MOL0     H11785  -1.277   3.301  -1.277 -0.8649  0.6449 -3.4428
  847MOL0     H11786  -1.122   3.256  -0.327 -2.1774 -1.3446 -1.1620
  847MOL0     H11787  -0.887   3.288  -0.254 -1.1068  0.1690 -0.7392
  847MOL0     H11788  -0.510   3.078  -0.179 -1.5959  1.6670  0.3603
  847MOL0     H11789  -0.290   3.010  -0.137  0.5487  1.4293  0.2867
  847MOL0     H11790   1.405   2.054   0.585  0.3052  2.5761 -0.0431
  847MOL0     H11791   1.647   1.971   0.584 -1.2076  0.5300 -0.7886
  847MOL0     H11792   1.981   1.771   0.728  2.3107 -1.5354 -3.8927
  847MOL0     H11793   2.209   1.710   0.693 -0.2957 -0.3681  1.4170
  847MOL0     H11794   2.461   2.036   0.590 -1.0709 -1.3759  0.4721
  847MOL0     H11795   2.567   1.892   0.552  0.1062  0.6895  0.0013
  847MOL0     H11796   2.576   2.065   0.805 -1.8562 -0.3345 -0.9928
  847MOL0     H11797   2.666   1.919   0.760 -1.7331 -1.2382  0.7395
  847MOL0     H11798   2.691   2.201   0.691  1.6130 -0.8328  0.9955
  847MOL0     H11799   2.713   2.095   0.551  0.9481  0.3492 -0.2617
  847MOL0     H11800   2.851   2.070   0.826  0.2024  1.8397  0.0189
  847MOL0     H11801   2.879   1.953   0.692  1.1500  0.0496  1.0921
  847MOL0     H11802   3.127   2.250   0.559  1.0453  0.9227  1.9019
  847MOL0     H11803   2.345   2.112   0.745  1.3746 -1.5057  0.9782
  847MOL0     H11804   2.121   2.185   0.803  1.6057 -0.7345  1.2726
  848MOL0     O11805  10.733   1.135   0.969 -0.0483 -0.2762  0.1208
  848MOL0     C11806  10.764   1.168   0.854  0.1529  0.5881  0.4414
  848MOL0     O11807  10.680   1.227   0.763 -0.1280 -0.3423 -0.1201
  848MOL0     C11808  10.556   1.286   0.799 -0.1007  0.4953 -0.0730
  848MOL0     C11809  10.497   1.287   0.930 -0.7042 -0.2727  0.3260
  848MOL0     C11810  10.372   1.334   0.955 -0.0101  0.8538 -0.5203
  848MOL0     C11811  10.303   1.384   0.846  0.7020 -0.6754 -0.4989
  848MOL0     O11812  10.170   1.425   0.858  0.4235 -0.0124 -0.4239
  848MOL0     C11813  10.110   1.410   0.991 -0.1209 -0.2745 -0.0878
  848MOL0     C11814  10.069   1.263   1.015  0.1416 -0.8722  0.5086
  848MOL0     C11815   9.944   1.229   0.932  0.3225  0.2210 -0.5497
  848MOL0     C11816   9.859   1.105   0.969 -0.3420  0.0696  0.6310
  848MOL0     C11817   9.728   1.077   0.880 -0.2613  0.3809 -1.2226
  848MOL0     C11818   9.642   1.201   0.862 -0.5796 -0.4387 -0.5139
  848MOL0     C11819   9.501   1.186   0.804 -0.2595  0.2785  0.6970
  848MOL0     C11820   9.406   1.158   0.908  0.4404 -0.3313  0.8713
  848MOL0     N11821   9.274   1.100   0.861 -0.2799 -0.0798  0.4347
  848MOL0     C11822   9.205   0.998   0.918 -0.7894  0.0565 -1.2765
  848MOL0     C11823   9.102   0.978   0.837  0.0769  0.2074  0.2249
  848MOL0     C11824   9.006   0.865   0.826  0.5582  1.0214  0.7239
  848MOL0     C11825   8.920   0.859   0.956 -0.8397  0.9409  0.6872
  848MOL0     C11826   8.827   0.735   0.963  0.3673  0.7255  0.4351
  848MOL0     C11827   8.718   0.748   1.065 -0.1616 -0.0548  0.0642
  848MOL0     O11828   8.768   0.691   1.193  0.5585  0.0600  0.1212
  848MOL0     C11829   8.702   0.693   1.311  0.0826  0.2287  0.2311
  848MOL0     C11830   8.572   0.765   1.334 -0.0267 -0.9553 -0.0806
  848MOL0     C11831   8.519   0.772   1.468  0.6847 -0.6669 -0.1486
  848MOL0     C11832   8.578   0.704   1.575 -0.8550 -0.0606  0.0289
  848MOL0     C11833   8.536   0.710   1.714 -1.0089  0.5507 -0.7399
  848MOL0     O11834   8.422   0.775   1.746 -0.0727 -0.1587  0.4287
  848MOL0     C11835   8.361   0.747   1.869 -0.9739  0.7762  0.2584
  848MOL0     C11836   8.384   0.638   1.954  0.1920  0.1292  0.3709
  848MOL0     C11837   8.325   0.642   2.085 -0.2305  0.6104  0.3209
  848MOL0     C11838   8.247   0.751   2.125  0.7589 -0.5074 -0.3782
  848MOL0     O11839   8.190   0.756   2.248 -0.7500  0.4330 -0.1536
  848MOL0     C11840   8.090   0.661   2.282 -0.1841  0.7206  0.3700
  848MOL0     C11841   8.088   0.655   2.440  0.7566 -1.1259 -0.6654
  848MOL0     C11842   7.953   0.585   2.497 -0.1067 -0.2552 -0.4502
  848MOL0     C11843   7.944   0.586   2.653 -0.2461 -1.1425  0.0989
  848MOL0     C11844   7.967   0.733   2.712  0.1477  0.7580 -0.2537
  848MOL0     C11845   7.931   0.750   2.866  0.0667  0.0360  1.1224
  848MOL0     C11846   7.776   0.762   2.889  0.4709  0.1853  0.4830
  848MOL0     C11847   7.726   0.745   3.036  0.0155  0.3025 -0.0377
  848MOL0    Cl11848   7.774   0.593   3.128  0.3711 -0.0161 -0.4323
  848MOL0     C11849   8.221   0.854   2.033  0.0409 -0.3127  0.1282
  848MOL0     C11850   8.278   0.849   1.909  0.2785 -0.1158 -0.1186
  848MOL0     O11851   8.613   0.667   1.798  0.2305 -0.2166 -0.5665
  848MOL0     C11852   8.700   0.635   1.542  0.6960  0.1318 -0.7569
  848MOL0     C11853   8.751   0.626   1.419 -0.0335  0.0971 -0.2754
  848MOL0     N11854   9.098   1.071   0.735 -0.6180 -0.1073  0.7650
  848MOL0     N11855   9.207   1.146   0.748 -0.0604 -0.5260  0.7407
  848MOL0     C11856  10.354   1.394   0.715 -0.3975  0.6851  0.1724
  848MOL0     C11857  10.483   1.341   0.693  0.1880 -0.3620  0.6416
  848MOL0     C11858  10.894   1.107   0.800 -0.1879  0.4145  0.4585
  848MOL0     C11859  10.988   1.063   0.895 -0.0265 -0.5627 -0.2792
  848MOL0     C11860  11.122   1.039   0.859 -0.8647  0.5149 -0.5114
  848MOL0     C11861  11.150   1.030   0.725 -0.0667  0.0186 -0.3622
  848MOL0     O11862  11.280   1.007   0.695 -0.7219  0.0106 -1.0738
  848MOL0     C11863  11.319   0.983   0.558 -0.0607 -0.0698 -0.1055
  848MOL0     C11864  11.456   0.906   0.542  0.1348 -0.1727 -0.5160
  848MOL0     C11865  11.567   0.977   0.624 -0.3906  0.3216 -0.2567
  848MOL0     C11866  11.708   0.917   0.616 -0.5987  0.3108 -0.3110
  848MOL0     C11867  11.775   0.972   0.496 -0.7769  0.1209 -0.8525
  848MOL0     C11868  11.822   1.009   0.392  0.8187  0.4946 -0.3365
  848MOL0     C11869  11.050   1.062   0.631 -0.2708  0.6649  0.1365
  848MOL0     C11870  10.923   1.105   0.660 -0.3488  1.0434 -0.2472
  848MOL0     H11871  10.558   1.267   1.017  2.0833  1.5130 -1.0716
  848MOL0     H11872  10.337   1.330   1.058  1.2478  1.1043 -0.0731
  848MOL0     H11873  10.028   1.483   0.991 -0.0536 -0.1963  0.4761
  848MOL0     H11874  10.176   1.443   1.072  3.0718 -0.2431 -2.5018
  848MOL0     H11875  10.035   1.248   1.118  1.7288 -1.3094  1.0051
  848MOL0     H11876  10.151   1.195   0.989  0.4308  0.4366 -2.3774
  848MOL0     H11877   9.960   1.217   0.825 -3.1499 -0.8855 -1.0655
  848MOL0     H11878   9.876   1.315   0.931  1.4543  1.1429 -1.9776
  848MOL0     H11879   9.913   1.010   0.972 -1.4442 -0.8470 -3.0354
  848MOL0     H11880   9.834   1.115   1.075  1.7236 -0.1341  1.1719
  848MOL0     H11881   9.668   0.998   0.926  0.4061  0.5993  0.0739
  848MOL0     H11882   9.763   1.035   0.786 -2.0220 -0.8795 -1.3522
  848MOL0     H11883   9.695   1.263   0.790 -0.7387  0.4757  0.1415
  848MOL0     H11884   9.639   1.258   0.955  1.9215  0.9829 -1.2158
  848MOL0     H11885   9.483   1.287   0.765  1.7681  0.1286 -0.7738
  848MOL0     H11886   9.505   1.100   0.737 -0.6622  0.8456 -0.0756
  848MOL0     H11887   9.375   1.253   0.953 -0.4824 -0.6064  0.8497
  848MOL0     H11888   9.442   1.088   0.984  0.7446 -1.7474 -0.5183
  848MOL0     H11889   9.242   0.935   0.999  0.2646  0.6576 -1.2766
  848MOL0     H11890   9.056   0.770   0.806 -1.3877  0.4430 -2.0940
  848MOL0     H11891   8.950   0.882   0.733  2.1789 -0.4814 -0.5909
  848MOL0     H11892   8.862   0.950   0.977 -1.7759  0.1232  1.7577
  848MOL0     H11893   8.986   0.845   1.041  1.3457 -0.2336 -1.1005
  848MOL0     H11894   8.777   0.736   0.866 -0.5585  0.8181  0.9079
  848MOL0     H11895   8.876   0.638   0.974 -1.8592 -0.9350 -2.8849
  848MOL0     H11896   8.622   0.705   1.033 -0.1835  1.1320 -1.5660
  848MOL0     H11897   8.687   0.852   1.081 -1.2256 -0.3864  0.2918
  848MOL0     H11898   8.531   0.828   1.256  3.6880 -1.5168 -2.7274
  848MOL0     H11899   8.421   0.818   1.480  0.2963 -0.4413 -3.2901
  848MOL0     H11900   8.440   0.548   1.932  0.0649 -0.0496  0.7641
  848MOL0     H11901   8.356   0.555   2.142 -3.2913 -0.5636  0.4074
  848MOL0     H11902   8.108   0.560   2.245 -2.0740  0.8930 -1.1794
  848MOL0     H11903   7.992   0.696   2.249 -0.4846  0.3476  0.8532
  848MOL0     H11904   8.087   0.757   2.478 -2.3808 -1.2528 -0.1359
  848MOL0     H11905   8.173   0.598   2.478  1.4395  1.5575  2.1509
  848MOL0     H11906   7.952   0.479   2.469  0.5003 -0.1397 -0.9294
  848MOL0     H11907   7.869   0.644   2.459 -1.3293 -0.3283  1.9997
  848MOL0     H11908   7.850   0.536   2.677 -0.8122  0.6000  1.7464
  848MOL0     H11909   8.027   0.525   2.691  1.4624  0.0910 -1.4901
  848MOL0     H11910   7.925   0.809   2.646  0.6789 -0.4171 -1.9861
  848MOL0     H11911   8.073   0.757   2.712  0.4640 -0.5717 -0.8553
  848MOL0     H11912   7.969   0.847   2.898 -0.4156  0.6244 -0.0200
  848MOL0     H11913   7.979   0.668   2.920 -0.3134 -1.6672 -0.9728
  848MOL0     H11914   7.732   0.848   2.838 -0.3635 -0.3234  0.3146
  848MOL0     H11915   7.732   0.678   2.834 -1.9217  0.9791  1.0706
  848MOL0     H11916   7.619   0.763   3.018  0.2722 -0.8255 -3.3759
  848MOL0     H11917   7.782   0.818   3.096  0.1265  0.7925 -0.7307
  848MOL0     H11918   8.160   0.939   2.062  0.0877  0.4037 -1.7515
  848MOL0     H11919   8.256   0.937   1.850 -2.5556 -0.4391  0.3212
  848MOL0     H11920   8.757   0.584   1.619 -0.8800  2.7699  2.4023
  848MOL0     H11921   8.851   0.583   1.417  1.9544  4.0410  1.5849
  848MOL0     H11922  10.291   1.421   0.631 -1.0863 -0.9369  0.1356
  848MOL0     H11923  10.530   1.322   0.597  0.7135  0.1803  0.7875
  848MOL0     H11924  10.968   1.077   1.001  0.5498 -1.9564  0.0340
  848MOL0     H11925  11.197   1.033   0.937  0.5960  0.4686 -1.8812
  848MOL0     H11926  11.338   1.080   0.511  0.1083  0.7895  1.6514
  848MOL0     H11927  11.241   0.927   0.506  0.1016 -2.0796  1.7214
  848MOL0     H11928  11.446   0.800   0.569 -0.6105 -0.7208 -2.6943
  848MOL0     H11929  11.496   0.908   0.440  1.7678 -0.4991  0.1025
  848MOL0     H11930  11.533   0.990   0.727 -0.0297  1.3725 -0.2560
  848MOL0     H11931  11.573   1.080   0.588  0.5932  1.7853  3.6031
  848MOL0     H11932  11.777   0.936   0.699  1.0401 -2.3310 -0.9357
  848MOL0     H11933  11.705   0.808   0.610 -0.6841  0.3204 -0.4718
  848MOL0     H11934  11.872   1.043   0.303  1.4970 -2.4482 -1.1906
  848MOL0     H11935  11.083   1.062   0.527  0.7783 -1.0590  0.4346
  848MOL0     H11936  10.851   1.129   0.582 -0.3790 -2.1246 -1.3136
  849MOL0     O11937   1.343   0.672   6.518 -0.0528  0.6563  0.2641
  849MOL0     C11938   1.279   0.576   6.567 -0.9627 -0.2540  1.3620
  849MOL0     O11939   1.326   0.443   6.581  0.1859 -0.5350  0.2474
  849MOL0     C11940   1.456   0.431   6.558 -0.0203  1.0102  0.1271
  849MOL0     C11941   1.507   0.405   6.439 -0.8520  0.8323 -0.2081
  849MOL0     C11942   1.639   0.354   6.429 -0.4726  1.4370  0.1374
  849MOL0     C11943   1.724   0.332   6.541  0.0218 -1.1835  0.4038
  849MOL0     O11944   1.848   0.269   6.533  0.1331 -0.2046  0.2095
  849MOL0     C11945   1.880   0.185   6.416 -0.0724 -0.0469  0.4404
  849MOL0     C11946   2.011   0.118   6.437  0.9789  0.0296 -0.0667
  849MOL0     C11947   2.060   0.038   6.322 -0.3807  0.2966 -0.4655
  849MOL0     C11948   2.189  -0.043   6.342 -0.2123 -0.9478 -0.3038
  849MOL0     C11949   2.253  -0.104   6.217  0.1838 -0.6421 -0.3794
  849MOL0     C11950   2.391  -0.157   6.239  0.4209 -0.5800  0.3326
  849MOL0     C11951   2.483  -0.046   6.261  0.3749 -1.1746 -0.0348
  849MOL0     C11952   2.628  -0.093   6.264 -0.2717  0.2052  1.1379
  849MOL0     N11953   2.682  -0.078   6.127 -0.2012 -0.4378  0.1864
  849MOL0     C11954   2.770  -0.171   6.084  0.1256 -0.0849  0.2677
  849MOL0     C11955   2.825  -0.110   5.980  0.1053  0.0802  0.1512
  849MOL0     C11956   2.920  -0.166   5.879  0.2651  0.0474 -0.5282
  849MOL0     C11957   2.852  -0.229   5.764 -0.5126 -0.9093 -0.3573
  849MOL0     C11958   2.755  -0.136   5.699 -0.0090 -0.1330 -0.2008
  849MOL0     C11959   2.700  -0.204   5.566  0.2393 -0.4861  0.8202
  849MOL0     O11960   2.594  -0.124   5.506 -0.3850 -0.0568 -0.0417
  849MOL0     C11961   2.478  -0.129   5.574  0.7041  0.0815  1.2701
  849MOL0     C11962   2.456  -0.207   5.683 -0.5043 -0.0811 -0.0858
  849MOL0     C11963   2.344  -0.201   5.752 -0.1001  0.0878 -0.1769
  849MOL0     C11964   2.231  -0.139   5.708  0.9264 -0.6104  0.2958
  849MOL0     C11965   2.108  -0.135   5.783 -0.3247 -0.3806 -0.4296
  849MOL0     O11966   2.105  -0.209   5.902  0.6249  0.0816 -0.0655
  849MOL0     C11967   1.979  -0.212   5.964 -0.1676 -0.3336  0.4782
  849MOL0     C11968   1.927  -0.102   6.021  0.3293 -0.3280 -0.4570
  849MOL0     C11969   1.798  -0.111   6.081 -0.2912 -0.6010  0.2458
  849MOL0     C11970   1.730  -0.229   6.078 -0.2632 -0.6138 -1.3200
  849MOL0     O11971   1.605  -0.229   6.142  0.3716 -0.8584 -0.3417
  849MOL0     C11972   1.503  -0.293   6.067  0.6302 -0.1119 -0.4591
  849MOL0     C11973   1.384  -0.252   6.154 -0.2599  0.5600  0.1714
  849MOL0     C11974   1.248  -0.288   6.083  0.0477 -0.2334 -0.2723
  849MOL0     C11975   1.122  -0.239   6.165  0.6886 -0.3228  0.2755
  849MOL0     C11976   1.109  -0.304   6.305  0.7004  0.1052 -0.6605
  849MOL0     C11977   0.981  -0.264   6.363  0.5112  0.4160 -0.4181
  849MOL0     C11978   0.981  -0.308   6.510  0.7399 -0.7440 -0.3455
  849MOL0     C11979   0.842  -0.288   6.576 -0.0828 -0.3099 -0.3119
  849MOL0    Cl11980   0.827  -0.395   6.733  0.4309  0.2318 -0.5656
  849MOL0     C11981   1.781  -0.342   6.016 -0.0318  0.0752  0.2723
  849MOL0     C11982   1.907  -0.328   5.952  0.0967  0.4148  0.3777
  849MOL0     O11983   2.013  -0.071   5.737 -0.1247  0.2245 -0.1994
  849MOL0     C11984   2.243  -0.073   5.579  0.0010 -0.4674 -0.1721
  849MOL0     C11985   2.369  -0.066   5.517 -0.2207  0.1119  0.1135
  849MOL0     N11986   2.786   0.020   5.968 -0.0776 -0.7234 -0.0999
  849MOL0     N11987   2.704   0.045   6.061  0.6295  0.6360 -0.8247
  849MOL0     C11988   1.676   0.384   6.667  0.3707 -0.5150  0.3979
  849MOL0     C11989   1.544   0.424   6.677  1.1640 -0.4114 -0.2753
  849MOL0     C11990   1.154   0.612   6.633 -0.7469 -0.3444  0.2952
  849MOL0     C11991   1.116   0.744   6.671  0.5106 -0.2334 -0.1026
  849MOL0     C11992   0.992   0.762   6.721 -0.7947  0.5211 -0.9485
  849MOL0     C11993   0.898   0.662   6.747  0.4793 -0.6668 -0.7576
  849MOL0     O11994   0.775   0.689   6.801 -0.1694 -0.1680 -0.3465
  849MOL0     C11995   0.727   0.828   6.812 -0.1136  0.4777  0.4654
  849MOL0     C11996   0.580   0.842   6.860  0.6679 -0.4863  0.3527
  849MOL0     C11997   0.479   0.780   6.761  0.2017  0.3419  0.7314
  849MOL0     C11998   0.339   0.815   6.773  0.6741 -0.2833  0.6693
  849MOL0     C11999   0.261   0.745   6.874 -0.2606  0.0378 -0.4599
  849MOL0     C12000   0.210   0.668   6.958  0.4377  0.1180 -0.3992
  849MOL0     C12001   0.933   0.531   6.714  0.1451 -0.2911  0.1374
  849MOL0     C12002   1.060   0.505   6.662  0.0596  0.2414 -0.1720
  849MOL0     H12003   1.439   0.406   6.354 -0.2470 -0.2963 -0.7287
  849MOL0     H12004   1.658   0.326   6.327 -2.6314 -0.5044  0.1880
  849MOL0     H12005   1.880   0.256   6.333 -0.0963  1.6299  1.8001
  849MOL0     H12006   1.802   0.110   6.404 -0.6678  0.2716  2.0317
  849MOL0     H12007   1.994   0.057   6.527 -2.8718 -1.2740 -1.4622
  849MOL0     H12008   2.078   0.197   6.471  1.5714 -0.2304 -0.6082
  849MOL0     H12009   2.074   0.108   6.239  0.3423  0.5109 -0.1654
  849MOL0     H12010   1.989  -0.034   6.281  1.3688 -3.5416  2.6959
  849MOL0     H12011   2.255   0.038   6.374 -0.8591 -0.9106  1.0024
  849MOL0     H12012   2.178  -0.114   6.425  2.0117 -1.9312 -0.7709
  849MOL0     H12013   2.250  -0.025   6.141 -0.1729  0.1173  0.4066
  849MOL0     H12014   2.185  -0.184   6.187  2.4126 -3.3033  1.2452
  849MOL0     H12015   2.421  -0.222   6.155  0.1201 -3.6023  2.4060
  849MOL0     H12016   2.391  -0.228   6.322 -1.4339 -0.8361  0.1480
  849MOL0     H12017   2.461   0.037   6.193  0.4643  0.0482  1.3839
  849MOL0     H12018   2.463  -0.002   6.359 -3.2885 -2.1473 -0.2076
  849MOL0     H12019   2.632  -0.202   6.278  0.8486 -0.0019 -0.5219
  849MOL0     H12020   2.699  -0.036   6.324 -1.2013  1.2493  1.2642
  849MOL0     H12021   2.794  -0.269   6.123  1.4566  0.4017  0.7133
  849MOL0     H12022   2.987  -0.242   5.920  0.3010  0.0704 -0.5453
  849MOL0     H12023   2.984  -0.084   5.845  0.3520  0.4763  0.6183
  849MOL0     H12024   2.795  -0.313   5.804  0.0147 -1.7015 -1.2176
  849MOL0     H12025   2.919  -0.279   5.694 -1.2642 -0.7303 -1.2291
  849MOL0     H12026   2.684  -0.104   5.775  0.9762  1.8585 -0.0432
  849MOL0     H12027   2.813  -0.049   5.668 -0.3656 -0.0283 -0.5740
  849MOL0     H12028   2.679  -0.309   5.591  1.3683 -0.3083  2.7602
  849MOL0     H12029   2.776  -0.200   5.488 -1.5246 -0.2789 -0.9613
  849MOL0     H12030   2.533  -0.264   5.733  0.0431  2.0322  1.6406
  849MOL0     H12031   2.356  -0.234   5.855 -2.8266  1.5354  0.6980
  849MOL0     H12032   1.978  -0.007   6.030  0.3973 -0.5661  2.5432
  849MOL0     H12033   1.756  -0.017   6.117  1.2111  1.8048 -3.6779
  849MOL0     H12034   1.523  -0.401   6.076  2.9756  0.3079  0.0859
  849MOL0     H12035   1.498  -0.252   5.966  0.4278  1.3815  0.1326
  849MOL0     H12036   1.383  -0.144   6.172 -0.2476  0.6493 -0.3496
  849MOL0     H12037   1.382  -0.303   6.251  1.3079  0.6154  0.2574
  849MOL0     H12038   1.243  -0.397   6.077  2.0852 -0.3878  0.2165
  849MOL0     H12039   1.254  -0.244   5.983  1.5518  1.5280  0.5335
  849MOL0     H12040   1.138  -0.132   6.180 -0.3089 -0.3367  1.6211
  849MOL0     H12041   1.031  -0.265   6.109  0.8247 -1.2700  0.4758
  849MOL0     H12042   1.188  -0.263   6.368 -1.9306  1.6574  1.8335
  849MOL0     H12043   1.111  -0.413   6.295 -2.6104 -0.1850  0.7595
  849MOL0     H12044   0.891  -0.299   6.311  1.4845  0.1297 -2.0004
  849MOL0     H12045   0.967  -0.155   6.367  1.7798  0.6142  4.0511
  849MOL0     H12046   1.006  -0.413   6.523 -0.9950 -1.0158  1.2201
  849MOL0     H12047   1.057  -0.257   6.571  1.2993 -0.5668 -1.1808
  849MOL0     H12048   0.775  -0.329   6.499  2.3415 -1.5080 -1.9034
  849MOL0     H12049   0.815  -0.187   6.608 -4.3246 -1.1253 -0.6673
  849MOL0     H12050   1.733  -0.439   6.007  0.0616 -0.4977  4.1867
  849MOL0     H12051   1.953  -0.411   5.900 -0.0156  1.2788 -1.1756
  849MOL0     H12052   2.155  -0.031   5.532  1.6659  1.8708 -1.3858
  849MOL0     H12053   2.390  -0.009   5.427 -1.3369  1.5061  0.6819
  849MOL0     H12054   1.746   0.371   6.749 -0.9707 -0.8800  1.5259
  849MOL0     H12055   1.512   0.459   6.775  0.2951  1.7927 -1.2689
  849MOL0     H12056   1.179   0.831   6.661  0.0376  0.6321  3.2777
  849MOL0     H12057   0.960   0.864   6.738 -2.3537 -0.1730  0.6010
  849MOL0     H12058   0.736   0.877   6.715 -0.6509  2.4043  1.3408
  849MOL0     H12059   0.788   0.878   6.887  2.0342  0.0638 -0.9272
  849MOL0     H12060   0.562   0.819   6.966 -1.4572  1.0221  0.4077
  849MOL0     H12061   0.562   0.950   6.862 -2.7565 -0.9464  0.9886
  849MOL0     H12062   0.488   0.671   6.759 -1.0115  0.2409 -0.2773
  849MOL0     H12063   0.514   0.811   6.662  3.5655  1.1201  2.0209
  849MOL0     H12064   0.324   0.923   6.785  1.7633 -0.1659  1.0973
  849MOL0     H12065   0.285   0.800   6.680 -0.9443  0.0149  1.5288
  849MOL0     H12066   0.170   0.618   7.044  1.9151 -0.7399 -0.1768
  849MOL0     H12067   0.854   0.459   6.733 -1.9783  1.0894 -2.6832
  849MOL0     H12068   1.066   0.401   6.629 -1.5764  0.0547  0.0548
  850MOL0     O12069   8.364   9.237   6.688  0.0419  0.2407  0.2055
  850MOL0     C12070   8.375   9.113   6.673 -0.3147  0.0348 -0.7119
  850MOL0     O12071   8.283   9.015   6.710  0.1232  0.4566 -1.0594
  850MOL0     C12072   8.184   9.065   6.788  0.1825 -0.0813 -0.9037
  850MOL0     C12073   8.061   9.118   6.738  0.6607 -1.1215  0.3296
  850MOL0     C12074   7.953   9.139   6.822 -0.0953  0.7793 -0.6633
  850MOL0     C12075   7.954   9.111   6.958 -0.4254 -0.0850  0.6056
  850MOL0     O12076   7.849   9.155   7.034  0.2719  0.1893 -0.7065
  850MOL0     C12077   7.859   9.165   7.174 -0.3274  0.0283 -0.0856
  850MOL0     C12078   7.753   9.268   7.199 -0.4373 -0.1244  0.0083
  850MOL0     C12079   7.755   9.348   7.317 -0.0973 -0.6070 -0.3670
  850MOL0     C12080   7.666   9.470   7.318  0.6354 -0.9743 -0.5348
  850MOL0     C12081   7.527   9.441   7.310  0.0434 -0.1638 -0.3908
  850MOL0     C12082   7.434   9.543   7.384  0.5788 -0.7740  0.8897
  850MOL0     C12083   7.280   9.519   7.346 -0.0255 -0.3033 -0.1121
  850MOL0     C12084   7.196   9.651   7.338  0.3125 -0.2521 -0.0113
  850MOL0     N12085   7.162   9.703   7.466 -0.3294  0.6944  0.3880
  850MOL0     C12086   7.099   9.636   7.568  0.5889  0.3431 -0.5186
  850MOL0     C12087   7.077   9.747   7.651  0.8261  0.2054  0.3495
  850MOL0     C12088   6.982   9.726   7.768 -0.7912  0.7942 -0.4715
  850MOL0     C12089   6.910   9.845   7.812 -0.3402 -0.0236 -1.0279
  850MOL0     C12090   6.795   9.823   7.913 -0.3424 -0.0044  0.7071
  850MOL0     C12091   6.710   9.946   7.939  0.0469  0.0491 -0.2427
  850MOL0     O12092   6.601   9.904   8.011 -0.9281  0.7086  0.5184
  850MOL0     C12093   6.475   9.902   7.954  0.2256 -0.2427 -0.1398
  850MOL0     C12094   6.440   9.987   7.841  0.1373  0.2823 -0.0336
  850MOL0     C12095   6.310  10.003   7.800  0.1908 -0.0858 -0.5848
  850MOL0     C12096   6.207   9.927   7.874 -1.4210 -0.2067  0.6461
  850MOL0     C12097   6.064   9.961   7.843  0.1470  0.6490 -0.6079
  850MOL0     O12098   6.038  10.036   7.735 -0.2958 -0.4989  0.4001
  850MOL0     C12099   5.913  10.088   7.698  0.0131 -0.5609  0.7904
  850MOL0     C12100   5.904  10.223   7.702  0.0179  0.0545  0.8186
  850MOL0     C12101   5.790  10.287   7.661  0.1064  0.4949 -0.2901
  850MOL0     C12102   5.666  10.223   7.644 -0.0408 -0.2949  0.5181
  850MOL0     O12103   5.559  10.305   7.612  0.5514  0.7596  0.1200
  850MOL0     C12104   5.461  10.234   7.527  0.0817 -0.8388 -0.0180
  850MOL0     C12105   5.349  10.170   7.597  0.4875 -0.0270  0.2361
  850MOL0     C12106   5.245  10.122   7.488 -0.5532  0.3977  0.8456
  850MOL0     C12107   5.123  10.066   7.559  0.4387  0.6255  0.1931
  850MOL0     C12108   5.013  10.009   7.466 -0.2088  0.6482  0.0102
  850MOL0     C12109   4.958  10.106   7.357 -0.2673  0.8866  0.0637
  850MOL0     C12110   4.877  10.223   7.417 -0.6766  0.3085  0.1801
  850MOL0     C12111   4.766  10.290   7.336  0.8169  0.1310  0.4235
  850MOL0    Cl12112   4.626  10.180   7.297 -0.1459 -0.0576 -0.0070
  850MOL0     C12113   5.675  10.082   7.648  1.6355 -0.2583  0.1336
  850MOL0     C12114   5.801  10.015   7.667  0.8712  0.3550  0.3438
  850MOL0     O12115   5.982   9.909   7.917 -0.0970 -0.3522 -0.0149
  850MOL0     C12116   6.236   9.840   7.975  0.3958  0.1498 -0.0376
  850MOL0     C12117   6.370   9.837   8.025 -0.1236  0.7997  0.2909
  850MOL0     N12118   7.124   9.867   7.604 -0.3388  0.0455 -0.7838
  850MOL0     N12119   7.180   9.832   7.496  0.8504 -0.2668 -0.1824
  850MOL0     C12120   8.075   9.057   7.003 -0.9734  0.6594 -0.6858
  850MOL0     C12121   8.186   9.037   6.922 -0.0585 -0.5311 -0.0388
  850MOL0     C12122   8.497   9.061   6.619  0.0795 -0.0066 -0.7665
  850MOL0     C12123   8.594   9.148   6.567 -0.3475 -1.3173  0.4214
  850MOL0     C12124   8.718   9.104   6.518 -0.0525  0.3312 -1.0590
  850MOL0     C12125   8.737   8.969   6.509  0.8087  0.6667  0.3741
  850MOL0     O12126   8.843   8.913   6.445 -0.0978  1.0326  0.3350
  850MOL0     C12127   8.953   8.988   6.402 -0.9059 -0.0722 -0.4229
  850MOL0     C12128   9.050   9.007   6.528 -0.4027 -0.5907 -0.2865
  850MOL0     C12129   9.137   9.135   6.502 -0.1060 -0.2191  0.3733
  850MOL0     C12130   9.242   9.154   6.616  0.9404  0.2968 -0.2232
  850MOL0     C12131   9.342   9.049   6.605 -0.2439  0.5423  0.0909
  850MOL0     C12132   9.441   8.967   6.606  0.5055 -0.8425  0.8193
  850MOL0     C12133   8.644   8.881   6.561  1.2606  0.3679 -0.5263
  850MOL0     C12134   8.519   8.922   6.618 -0.1015  0.3281 -0.4446
  850MOL0     H12135   8.048   9.155   6.636  1.7519  2.5981  1.3609
  850MOL0     H12136   7.867   9.189   6.779  0.5608 -0.3414 -3.5106
  850MOL0     H12137   7.951   9.198   7.223 -1.4622 -0.6280  2.7028
  850MOL0     H12138   7.826   9.073   7.222 -3.5033  0.6221 -0.8922
  850MOL0     H12139   7.654   9.220   7.205 -1.0124  1.1837  3.9047
  850MOL0     H12140   7.759   9.343   7.119  2.7786  0.1528  0.3785
  850MOL0     H12141   7.857   9.385   7.335 -0.0993 -1.1353  0.8530
  850MOL0     H12142   7.731   9.285   7.404 -1.1649 -0.1339 -0.3017
  850MOL0     H12143   7.686   9.522   7.413  0.4873 -1.2030 -0.3788
  850MOL0     H12144   7.686   9.535   7.232 -0.7344  1.1587  0.6465
  850MOL0     H12145   7.512   9.350   7.368  1.3258 -0.1449  0.0132
  850MOL0     H12146   7.494   9.445   7.205 -1.2307 -1.6890 -0.0785
  850MOL0     H12147   7.448   9.648   7.357 -1.8051 -0.3889  0.9503
  850MOL0     H12148   7.455   9.539   7.491  3.0144  1.5512  0.6185
  850MOL0     H12149   7.286   9.475   7.246 -1.4502 -2.3587  0.6355
  850MOL0     H12150   7.236   9.443   7.411  0.0311 -0.5065 -0.3094
  850MOL0     H12151   7.101   9.622   7.292 -0.5882 -0.5694  1.9310
  850MOL0     H12152   7.261   9.706   7.269  1.0803 -2.2517 -0.9724
  850MOL0     H12153   7.060   9.536   7.576  0.5302  0.4854  1.2814
  850MOL0     H12154   7.023   9.665   7.849  1.8770 -0.3568 -2.5223
  850MOL0     H12155   6.902   9.665   7.725  0.9977 -0.8010 -1.6566
  850MOL0     H12156   6.873   9.903   7.727 -1.1326  2.6132  0.9703
  850MOL0     H12157   6.980   9.911   7.865 -2.0455  1.5766 -0.6626
  850MOL0     H12158   6.729   9.742   7.881  0.8602 -0.7228 -0.0541
  850MOL0     H12159   6.840   9.802   8.010 -1.3835  1.6967  1.6089
  850MOL0     H12160   6.679   9.990   7.843  1.8598 -2.8116 -2.2901
  850MOL0     H12161   6.771  10.020   7.992  0.0377  0.6823 -1.0909
  850MOL0     H12162   6.513  10.030   7.774 -0.4910 -1.4966 -1.9743
  850MOL0     H12163   6.277  10.079   7.730 -1.8908  0.0129  0.4478
  850MOL0     H12164   5.990  10.284   7.727  1.0655 -0.9887 -0.1125
  850MOL0     H12165   5.786  10.394   7.646 -1.7271  0.5149  0.1305
  850MOL0     H12166   5.503  10.169   7.450 -1.9245 -2.7320  0.3902
  850MOL0     H12167   5.418  10.316   7.468 -0.6512  0.3910  2.1216
  850MOL0     H12168   5.291  10.246   7.650 -1.2532 -1.1390  0.0319
  850MOL0     H12169   5.379  10.093   7.669  0.9625  0.5157  0.6231
  850MOL0     H12170   5.279  10.040   7.424 -2.0560 -0.4985  1.1324
  850MOL0     H12171   5.211  10.206   7.427 -1.7902 -1.1857 -0.7685
  850MOL0     H12172   5.141   9.987   7.632 -0.1728 -2.3890 -2.6454
  850MOL0     H12173   5.078  10.147   7.616  0.2396  0.8348 -0.2586
  850MOL0     H12174   4.928   9.978   7.528 -1.6254  2.2214 -1.0702
  850MOL0     H12175   5.053   9.918   7.420 -0.9870 -0.0851  0.7406
  850MOL0     H12176   4.886  10.048   7.298  0.7459  0.2446 -0.5582
  850MOL0     H12177   5.046  10.146   7.306  1.1704 -0.9719  0.9774
  850MOL0     H12178   4.825  10.187   7.505  0.5297  0.8615  1.1559
  850MOL0     H12179   4.949  10.294   7.461 -1.5777  0.7339  0.9931
  850MOL0     H12180   4.802  10.337   7.244  0.3550 -0.9004 -0.3112
  850MOL0     H12181   4.729  10.365   7.406 -1.2019 -0.1881 -0.2279
  850MOL0     H12182   5.590  10.020   7.625  0.0849  1.8223 -0.0318
  850MOL0     H12183   5.817   9.908   7.676  1.2002  0.4500  0.9625
  850MOL0     H12184   6.159   9.782   8.026  0.0975  0.3276 -0.2791
  850MOL0     H12185   6.387   9.790   8.122 -3.9582 -2.3565 -0.3028
  850MOL0     H12186   8.068   9.021   7.105 -0.5581  0.8497 -0.5885
  850MOL0     H12187   8.272   8.984   6.962 -1.0090 -1.5415  0.7175
  850MOL0     H12188   8.578   9.255   6.578  3.5961 -0.7839  3.3749
  850MOL0     H12189   8.785   9.187   6.496  0.3539  0.4420  0.4855
  850MOL0     H12190   8.919   9.086   6.369 -0.5583 -0.4567 -2.0193
  850MOL0     H12191   9.009   8.945   6.318 -0.1184  0.1242 -0.0092
  850MOL0     H12192   8.989   9.025   6.617 -2.1544  0.4265 -1.6303
  850MOL0     H12193   9.115   8.918   6.526  1.9963  1.0743 -0.2910
  850MOL0     H12194   9.073   9.223   6.488  3.0878  1.8617 -2.7993
  850MOL0     H12195   9.188   9.118   6.407  1.4040 -1.1142  1.3039
  850MOL0     H12196   9.280   9.257   6.611 -1.2290  1.1000 -1.2450
  850MOL0     H12197   9.183   9.157   6.709  1.2955  3.1743  0.0110
  850MOL0     H12198   9.519   8.893   6.605  1.0984 -0.2242 -0.5862
  850MOL0     H12199   8.657   8.774   6.559 -2.6042 -0.3382  1.6220
  850MOL0     H12200   8.443   8.855   6.657  0.5617 -0.2545 -0.1363
  851MOL0     O12201  10.295   3.469   2.552 -0.2493  0.2165  0.6611
  851MOL0     C12202  10.344   3.546   2.464 -0.4251  0.0399 -0.2087
  851MOL0     O12203  10.265   3.617   2.379  0.0603 -0.7976 -0.3739
  851MOL0     C12204  10.130   3.595   2.379 -0.2020  0.4173  0.0721
  851MOL0     C12205  10.053   3.699   2.420 -0.0560 -0.9623  0.2055
  851MOL0     C12206   9.915   3.690   2.420 -0.3066  0.7009 -0.5527
  851MOL0     C12207   9.852   3.576   2.396 -0.6086  0.2111  0.6099
  851MOL0     O12208   9.718   3.543   2.387 -0.4053 -0.0563  0.1573
  851MOL0     C12209   9.636   3.653   2.356 -0.2348  0.1112  0.3815
  851MOL0     C12210   9.541   3.684   2.473  0.2250 -0.1850  0.1678
  851MOL0     C12211   9.611   3.722   2.605  0.5219 -0.3642 -1.4128
  851MOL0     C12212   9.513   3.745   2.720  0.6972 -0.6652 -0.8024
  851MOL0     C12213   9.554   3.696   2.860 -0.1087 -0.6814 -0.0245
  851MOL0     C12214   9.434   3.694   2.951 -0.1354 -0.3165 -0.4714
  851MOL0     C12215   9.460   3.580   3.056  0.6796 -0.5435  0.3126
  851MOL0     C12216   9.580   3.619   3.156 -0.0562 -0.0499  0.7871
  851MOL0     N12217   9.541   3.716   3.256 -0.7070  0.4435  0.4135
  851MOL0     C12218   9.469   3.687   3.370 -0.5633  0.8778 -0.4111
  851MOL0     C12219   9.425   3.805   3.419 -0.0798  0.7150  0.1163
  851MOL0     C12220   9.367   3.820   3.551 -0.1723 -0.1436  0.1082
  851MOL0     C12221   9.213   3.830   3.553 -0.5960 -0.7416 -0.2467
  851MOL0     C12222   9.164   3.781   3.687 -0.9305  0.1867 -0.5362
  851MOL0     C12223   9.014   3.799   3.707 -0.8708  1.1637 -0.6942
  851MOL0     O12224   8.939   3.721   3.617  0.2066 -0.1994 -0.1183
  851MOL0     C12225   8.805   3.704   3.625  0.0386 -1.0614 -1.6365
  851MOL0     C12226   8.729   3.765   3.724 -0.5193 -0.4235 -0.5691
  851MOL0     C12227   8.588   3.763   3.713  0.2304  0.2674 -1.0872
  851MOL0     C12228   8.512   3.720   3.608  0.3361  0.4776  0.5550
  851MOL0     C12229   8.364   3.745   3.597 -0.2957 -0.4358 -0.4679
  851MOL0     O12230   8.307   3.818   3.692  0.4301  0.5947 -0.1326
  851MOL0     C12231   8.170   3.833   3.702 -0.7370 -0.4836 -0.1458
  851MOL0     C12232   8.072   3.735   3.681  0.4562  0.4551 -1.1185
  851MOL0     C12233   7.934   3.760   3.709 -0.8019  0.7566  0.0651
  851MOL0     C12234   7.893   3.888   3.737  0.4579 -1.1635 -0.7350
  851MOL0     O12235   7.761   3.924   3.746  0.2807  0.3930 -0.1125
  851MOL0     C12236   7.661   3.821   3.772 -0.0661  0.0168  0.2556
  851MOL0     C12237   7.518   3.881   3.744  0.3563 -0.0229  0.1003
  851MOL0     C12238   7.406   3.766   3.747 -0.0222 -1.0930  0.7809
  851MOL0     C12239   7.265   3.818   3.705  0.2143  0.2175  0.5694
  851MOL0     C12240   7.158   3.705   3.706 -0.1716  0.5319 -0.6692
  851MOL0     C12241   7.017   3.761   3.676 -0.0829  1.1763  0.4071
  851MOL0     C12242   6.956   3.871   3.770 -0.0503  0.0858 -0.1224
  851MOL0     C12243   6.813   3.911   3.736  0.1572  0.3130 -0.1795
  851MOL0    Cl12244   6.812   3.994   3.586  0.0259 -0.5420  0.2977
  851MOL0     C12245   7.996   3.987   3.751 -0.7351 -0.0463  0.1919
  851MOL0     C12246   8.134   3.960   3.737  0.4995 -0.1956 -0.2803
  851MOL0     O12247   8.309   3.699   3.498  0.6658 -0.4493 -0.4385
  851MOL0     C12248   8.591   3.641   3.516  0.8155  0.5532  0.1565
  851MOL0     C12249   8.732   3.642   3.521 -0.2801  0.6843  0.5699
  851MOL0     N12250   9.474   3.901   3.343 -0.1822 -0.3241  0.2659
  851MOL0     N12251   9.536   3.850   3.237  0.2250  0.8287  0.2622
  851MOL0     C12252   9.935   3.469   2.354  0.7180 -0.8620 -0.0800
  851MOL0     C12253  10.072   3.479   2.348 -0.3512  0.7033 -0.1062
  851MOL0     C12254  10.483   3.575   2.468 -1.0828 -0.5107 -0.1896
  851MOL0     C12255  10.574   3.516   2.567  0.0177  0.4806  1.1045
  851MOL0     C12256  10.709   3.541   2.570 -0.1440  0.0695  0.3832
  851MOL0     C12257  10.760   3.652   2.493  0.6663  0.1841 -0.4568
  851MOL0     O12258  10.892   3.698   2.503  0.9773  0.4971  0.5821
  851MOL0     C12259  10.993   3.615   2.547 -0.3522 -0.6816  0.8341
  851MOL0     C12260  11.035   3.506   2.450  0.3324  0.7734 -0.1795
  851MOL0     C12261  11.028   3.546   2.305 -0.1083  0.1511 -0.0607
  851MOL0     C12262  11.077   3.689   2.265 -0.4731  0.7339 -0.5263
  851MOL0     C12263  11.220   3.705   2.291 -0.4580 -0.1873  0.0503
  851MOL0     C12264  11.333   3.738   2.324  0.6796  0.1746  0.8663
  851MOL0     C12265  10.674   3.711   2.401 -0.8525 -1.0053  0.3342
  851MOL0     C12266  10.543   3.674   2.386 -0.2987  0.5704  0.6588
  851MOL0     H12267  10.109   3.791   2.435 -1.0932 -0.3857  0.6548
  851MOL0     H12268   9.862   3.782   2.442  0.0052  1.4961 -2.8018
  851MOL0     H12269   9.583   3.617   2.267  0.0415  1.1008 -0.2019
  851MOL0     H12270   9.686   3.746   2.326  0.4998 -0.9825 -2.0362
  851MOL0     H12271   9.469   3.603   2.480 -0.3918  0.1318 -1.8570
  851MOL0     H12272   9.486   3.773   2.440  3.6246  1.5556 -1.3534
  851MOL0     H12273   9.663   3.818   2.598  3.3128 -1.7335 -0.6309
  851MOL0     H12274   9.684   3.648   2.638  0.4578 -0.0567 -0.5672
  851MOL0     H12275   9.500   3.852   2.739  2.7557 -0.2872 -1.3045
  851MOL0     H12276   9.416   3.707   2.687 -0.6483  0.9307  1.1168
  851MOL0     H12277   9.634   3.762   2.894 -0.5746  1.2645 -2.3955
  851MOL0     H12278   9.602   3.598   2.852  1.9084  0.3414 -1.5507
  851MOL0     H12279   9.344   3.668   2.895 -0.1634 -2.2705  0.4026
  851MOL0     H12280   9.426   3.790   3.002  3.0734 -1.2976  2.2128
  851MOL0     H12281   9.379   3.582   3.130  1.3577  0.5389  1.0606
  851MOL0     H12282   9.473   3.483   3.008  0.0097  0.6896 -2.5389
  851MOL0     H12283   9.674   3.643   3.105 -0.6848 -0.7263 -0.7647
  851MOL0     H12284   9.600   3.531   3.218  0.8312 -1.1048 -0.9212
  851MOL0     H12285   9.446   3.589   3.412 -0.5507  0.8961 -0.3609
  851MOL0     H12286   9.403   3.913   3.598 -2.1930 -0.0880  1.7111
  851MOL0     H12287   9.385   3.731   3.611 -0.6154 -0.4566 -0.2203
  851MOL0     H12288   9.171   3.782   3.464 -2.0094  3.6132 -2.2137
  851MOL0     H12289   9.188   3.937   3.547 -0.5807 -0.8178 -2.0169
  851MOL0     H12290   9.198   3.679   3.712  0.1548  0.5878 -0.3129
  851MOL0     H12291   9.219   3.827   3.769  0.6848 -1.2982 -0.7256
  851MOL0     H12292   9.003   3.908   3.698  0.2614  1.2951 -0.5731
  851MOL0     H12293   8.984   3.782   3.811  4.1882  1.9988  1.1575
  851MOL0     H12294   8.778   3.803   3.813 -1.2672 -0.5467 -0.0881
  851MOL0     H12295   8.533   3.813   3.792 -1.5945 -1.6926 -1.0355
  851MOL0     H12296   8.107   3.635   3.655  1.5301  0.3288  0.5882
  851MOL0     H12297   7.865   3.677   3.699  0.4055 -0.1086 -1.6198
  851MOL0     H12298   7.658   3.775   3.871 -0.1344 -0.5136  0.0075
  851MOL0     H12299   7.676   3.740   3.701  0.1920 -2.0945  2.5972
  851MOL0     H12300   7.528   3.925   3.645  2.1863 -2.4636 -0.9017
  851MOL0     H12301   7.488   3.956   3.818 -1.0152 -2.7995  2.6123
  851MOL0     H12302   7.407   3.718   3.845  0.2748  1.7664  2.2981
  851MOL0     H12303   7.428   3.692   3.670  1.2959  0.1628 -0.1057
  851MOL0     H12304   7.229   3.899   3.770  1.3220  1.3270 -0.1464
  851MOL0     H12305   7.274   3.867   3.608 -1.8514  1.0727  0.7379
  851MOL0     H12306   7.156   3.662   3.806 -2.0208 -0.4603 -1.0984
  851MOL0     H12307   7.179   3.628   3.631 -3.8101 -1.9462  0.6130
  851MOL0     H12308   6.939   3.684   3.674  0.6474  0.2567  3.0969
  851MOL0     H12309   7.025   3.807   3.578  1.8079 -0.7927 -0.4538
  851MOL0     H12310   6.954   3.837   3.874  1.8190  0.5822  0.1152
  851MOL0     H12311   7.020   3.960   3.775 -0.7933  0.6545 -0.3814
  851MOL0     H12312   6.771   3.965   3.822 -0.8630  0.1062 -0.5395
  851MOL0     H12313   6.749   3.823   3.727  0.6388  0.1198 -2.1395
  851MOL0     H12314   7.968   4.091   3.764  2.6801  0.8093  1.8052
  851MOL0     H12315   8.201   4.046   3.737 -1.4508  1.4101  1.1159
  851MOL0     H12316   8.540   3.597   3.431 -0.1771  0.8757  0.5733
  851MOL0     H12317   8.791   3.597   3.442  0.0419 -1.0699  1.7726
  851MOL0     H12318   9.890   3.371   2.337  2.5172 -1.9292  0.9890
  851MOL0     H12319  10.133   3.396   2.314 -1.2353 -0.8378  1.8458
  851MOL0     H12320  10.543   3.437   2.635  1.4654  1.5232  3.0470
  851MOL0     H12321  10.776   3.484   2.634 -0.4728 -0.2917  0.4064
  851MOL0     H12322  10.975   3.572   2.646  2.7195 -3.4410  0.3737
  851MOL0     H12323  11.066   3.696   2.545 -2.7818  1.7652 -3.1872
  851MOL0     H12324  11.135   3.471   2.477 -0.3967 -0.8733  0.5534
  851MOL0     H12325  10.958   3.429   2.459  0.0719  0.8788 -1.3640
  851MOL0     H12326  10.924   3.537   2.274  0.2073 -0.2378 -1.0382
  851MOL0     H12327  11.081   3.467   2.251  0.8156 -1.6440  3.2007
  851MOL0     H12328  11.055   3.727   2.165  1.1525  0.7302 -0.9204
  851MOL0     H12329  11.013   3.761   2.317 -2.5007 -0.2128 -1.6171
  851MOL0     H12330  11.434   3.759   2.352  0.2926  1.6029  1.2792
  851MOL0     H12331  10.710   3.801   2.351  1.2205 -1.8165  0.2466
  851MOL0     H12332  10.482   3.730   2.316  0.3352 -0.6371 -0.9216
  852MOL0     O12333   7.759   2.829   0.579  0.6498  0.6051 -0.2163
  852MOL0     C12334   7.797   2.716   0.563 -0.7062  0.8338 -0.5795
  852MOL0     O12335   7.720   2.601   0.538 -0.2131  0.4088 -0.4977
  852MOL0     C12336   7.582   2.609   0.544  1.3743  0.3002 -0.2164
  852MOL0     C12337   7.504   2.666   0.643 -0.1240  0.0241 -0.1293
  852MOL0     C12338   7.368   2.662   0.638 -0.3742 -0.4676  0.2619
  852MOL0     C12339   7.302   2.613   0.531  0.1459  0.1365 -0.2896
  852MOL0     O12340   7.167   2.606   0.532  0.0368 -0.0722 -0.9862
  852MOL0     C12341   7.082   2.694   0.615 -0.4053 -0.5310 -0.0515
  852MOL0     C12342   6.945   2.665   0.566 -0.2166 -0.1053  0.2420
  852MOL0     C12343   6.892   2.522   0.556  0.6246  0.3160  0.0690
  852MOL0     C12344   6.741   2.525   0.546  0.4229  0.6054 -0.4025
  852MOL0     C12345   6.678   2.391   0.570  0.0985 -0.4357  0.3216
  852MOL0     C12346   6.538   2.395   0.618  0.1257 -0.2443 -0.7086
  852MOL0     C12347   6.434   2.443   0.515 -0.0196 -0.0387 -0.1032
  852MOL0     C12348   6.369   2.333   0.426  0.6148 -0.3577 -0.7084
  852MOL0     N12349   6.287   2.378   0.312  0.4738  0.3781 -0.2452
  852MOL0     C12350   6.189   2.472   0.317 -0.9072 -0.6304  0.8025
  852MOL0     C12351   6.132   2.464   0.193  1.5046 -0.6137 -0.1772
  852MOL0     C12352   6.015   2.543   0.140 -0.5915 -0.3236 -0.1697
  852MOL0     C12353   5.881   2.493   0.188  0.6241 -0.7823 -0.2559
  852MOL0     C12354   5.764   2.572   0.129  0.4806 -0.2095  0.5555
  852MOL0     C12355   5.625   2.564   0.206  0.3094  0.4693 -0.8612
  852MOL0     O12356   5.572   2.431   0.214  0.5408 -0.2514 -0.7000
  852MOL0     C12357   5.439   2.419   0.253  0.0830  0.8380 -0.9444
  852MOL0     C12358   5.402   2.284   0.293 -0.1136  0.0120 -0.0844
  852MOL0     C12359   5.273   2.255   0.337 -0.2239 -0.2238  0.6933
  852MOL0     C12360   5.170   2.349   0.336 -0.1377 -0.3687  0.1161
  852MOL0     C12361   5.032   2.313   0.369 -0.2389  0.0022  0.3050
  852MOL0     O12362   4.938   2.417   0.381  0.1981  0.3380  0.3824
  852MOL0     C12363   4.805   2.399   0.373  0.1749  0.6304  0.1907
  852MOL0     C12364   4.728   2.431   0.487 -0.2984 -0.3877 -0.3728
  852MOL0     C12365   4.594   2.407   0.493  0.1478 -0.3367 -0.2824
  852MOL0     C12366   4.526   2.357   0.384 -0.2232 -0.2774  0.1530
  852MOL0     O12367   4.396   2.319   0.389 -0.6637 -0.1920 -0.1779
  852MOL0     C12368   4.306   2.399   0.466  0.4973 -0.3064 -0.3666
  852MOL0     C12369   4.163   2.365   0.413 -0.1158 -0.1020 -0.3839
  852MOL0     C12370   4.049   2.449   0.472  0.8104  0.0610  0.5939
  852MOL0     C12371   3.913   2.396   0.416 -0.6036 -0.3883 -0.8623
  852MOL0     C12372   3.802   2.439   0.512  0.6087  0.0729 -0.4373
  852MOL0     C12373   3.673   2.394   0.457 -0.0088  0.3929  0.3322
  852MOL0     C12374   3.555   2.423   0.558  0.3191  0.6561  0.4936
  852MOL0     C12375   3.461   2.302   0.574  0.1587  0.5058  0.1302
  852MOL0    Cl12376   3.370   2.296   0.408 -0.2603 -0.5401 -0.2102
  852MOL0     C12377   4.599   2.329   0.270  0.1921  0.3139  0.0378
  852MOL0     C12378   4.738   2.354   0.260  0.3711 -0.0990  0.4149
  852MOL0     O12379   5.006   2.195   0.376  0.0876  0.1931 -0.8217
  852MOL0     C12380   5.211   2.485   0.306  0.5599  0.4335 -0.2543
  852MOL0     C12381   5.340   2.514   0.259 -0.3678 -0.5175  0.5889
  852MOL0     N12382   6.197   2.360   0.121  0.0400 -0.7833  0.1477
  852MOL0     N12383   6.294   2.313   0.194 -0.0467  0.7361 -0.3179
  852MOL0     C12384   7.368   2.568   0.416 -0.4444  0.0342 -0.0667
  852MOL0     C12385   7.512   2.558   0.429  0.7471 -0.3935  0.1164
  852MOL0     C12386   7.952   2.699   0.545  0.7133 -0.1566  0.0422
  852MOL0     C12387   8.041   2.810   0.560 -0.2117  0.1114 -0.0928
  852MOL0     C12388   8.180   2.789   0.542  0.2597 -0.5409  0.3067
  852MOL0     C12389   8.234   2.663   0.502 -0.0951 -0.2652 -0.5613
  852MOL0     O12390   8.363   2.629   0.469  0.5882 -1.1969 -0.0228
  852MOL0     C12391   8.447   2.734   0.428 -0.0265 -0.3434 -1.1360
  852MOL0     C12392   8.580   2.663   0.403  0.4405 -0.5958 -0.8059
  852MOL0     C12393   8.694   2.763   0.429  0.0005  0.0046 -0.0619
  852MOL0     C12394   8.798   2.760   0.309  1.0755 -0.0191 -1.0289
  852MOL0     C12395   8.914   2.686   0.342 -0.5066 -0.3706 -0.5869
  852MOL0     C12396   9.008   2.624   0.382 -1.0763 -0.0672  0.5953
  852MOL0     C12397   8.146   2.558   0.500 -0.5459  0.7132  0.3073
  852MOL0     C12398   8.007   2.575   0.510  0.5861  0.5341  0.1729
  852MOL0     H12399   7.551   2.708   0.732  0.5884 -2.1404  0.5695
  852MOL0     H12400   7.314   2.698   0.725  2.4489  1.0152  1.5436
  852MOL0     H12401   7.102   2.799   0.593 -2.9088 -0.5690 -3.2794
  852MOL0     H12402   7.097   2.666   0.720 -0.3932  0.7202  0.2980
  852MOL0     H12403   6.938   2.713   0.468 -3.3402  0.2446  0.5294
  852MOL0     H12404   6.873   2.711   0.634 -2.3129 -1.2066 -1.1282
  852MOL0     H12405   6.907   2.463   0.648 -0.7109  0.4979  0.4260
  852MOL0     H12406   6.935   2.456   0.480 -1.9847  1.4509 -2.6110
  852MOL0     H12407   6.700   2.588   0.625  1.6752 -0.1420  0.8813
  852MOL0     H12408   6.711   2.564   0.448 -0.6268 -0.2843 -0.4599
  852MOL0     H12409   6.738   2.334   0.642 -2.6794 -0.6095  2.6743
  852MOL0     H12410   6.685   2.337   0.475  0.3605 -1.2390  0.7905
  852MOL0     H12411   6.539   2.474   0.695  1.1465 -0.1505 -0.8065
  852MOL0     H12412   6.509   2.301   0.665 -0.5552 -0.9457 -2.4728
  852MOL0     H12413   6.362   2.495   0.578 -1.0761 -1.6415  0.0750
  852MOL0     H12414   6.492   2.512   0.454  1.9625 -0.2390  1.4400
  852MOL0     H12415   6.324   2.253   0.486 -1.2277  0.9246 -0.2816
  852MOL0     H12416   6.455   2.283   0.381  1.4494 -0.1488  0.6117
  852MOL0     H12417   6.189   2.557   0.384 -2.9095 -0.9804  1.3364
  852MOL0     H12418   6.027   2.530   0.032  2.1002 -2.6872  0.2982
  852MOL0     H12419   6.037   2.642   0.181 -1.5964  0.3139 -1.1425
  852MOL0     H12420   5.872   2.503   0.297 -2.3448 -1.0985 -0.3760
  852MOL0     H12421   5.868   2.387   0.163  0.0177 -0.8589  0.3479
  852MOL0     H12422   5.792   2.675   0.109 -0.2113 -0.7760 -4.4034
  852MOL0     H12423   5.738   2.533   0.030 -0.8618  2.4155 -0.2186
  852MOL0     H12424   5.549   2.627   0.159 -1.1633  0.6156  1.5576
  852MOL0     H12425   5.637   2.608   0.305 -1.2173 -2.3363  0.6922
  852MOL0     H12426   5.476   2.205   0.279  1.4573  0.9056  2.5089
  852MOL0     H12427   5.256   2.152   0.365  0.8946 -0.1865  1.6158
  852MOL0     H12428   4.783   2.460   0.576 -0.1433 -2.1978  0.1414
  852MOL0     H12429   4.545   2.428   0.588  0.9381 -0.6633  0.2041
  852MOL0     H12430   4.319   2.507   0.453 -1.5441 -0.0996 -0.9927
  852MOL0     H12431   4.318   2.380   0.573 -0.5815 -1.6396 -0.4634
  852MOL0     H12432   4.135   2.261   0.435  3.1812 -1.6066 -2.5643
  852MOL0     H12433   4.153   2.380   0.305 -2.9537  1.0362 -0.0563
  852MOL0     H12434   4.061   2.555   0.449 -4.1792  0.8209  0.5282
  852MOL0     H12435   4.054   2.431   0.580 -2.4730 -0.7698  0.7178
  852MOL0     H12436   3.903   2.431   0.313  2.8005  0.4312 -1.0408
  852MOL0     H12437   3.933   2.288   0.411 -0.3318 -0.3846 -0.0511
  852MOL0     H12438   3.800   2.548   0.518 -0.8171  0.0364  0.3315
  852MOL0     H12439   3.828   2.408   0.613 -0.5705  1.3566  0.2961
  852MOL0     H12440   3.681   2.287   0.437  1.0294  0.7955 -1.7202
  852MOL0     H12441   3.653   2.449   0.364 -2.0010  1.2816  1.2319
  852MOL0     H12442   3.592   2.455   0.656 -1.4297  0.6514  1.1963
  852MOL0     H12443   3.497   2.511   0.527 -2.2628 -1.4756 -1.1145
  852MOL0     H12444   3.395   2.318   0.660  1.2389  0.6348  0.9507
  852MOL0     H12445   3.524   2.217   0.601  5.5319  3.9590  0.0305
  852MOL0     H12446   4.550   2.272   0.191 -0.2196  0.5501  0.1192
  852MOL0     H12447   4.793   2.321   0.172  1.4158  2.0447  0.1889
  852MOL0     H12448   5.140   2.565   0.325 -2.0383 -2.3312  2.9726
  852MOL0     H12449   5.355   2.617   0.229 -0.5268 -0.4583  0.7100
  852MOL0     H12450   7.320   2.531   0.326 -0.1352 -0.2572 -0.1153
  852MOL0     H12451   7.568   2.523   0.343 -0.1443  0.0397 -0.6608
  852MOL0     H12452   8.004   2.909   0.587  0.3889  0.9551 -2.2111
  852MOL0     H12453   8.253   2.869   0.554  0.2256 -0.6955  1.7089
  852MOL0     H12454   8.461   2.806   0.509  0.2504 -0.1317 -1.3723
  852MOL0     H12455   8.414   2.797   0.344 -2.8035 -0.8928 -0.5674
  852MOL0     H12456   8.589   2.586   0.480 -1.9272 -0.8698 -0.7430
  852MOL0     H12457   8.575   2.621   0.302  2.1957  0.3135 -1.3074
  852MOL0     H12458   8.745   2.744   0.524 -1.6516  1.9207  1.2760
  852MOL0     H12459   8.657   2.865   0.438  3.4958  1.2992  1.6852
  852MOL0     H12460   8.747   2.714   0.224  0.7786 -0.1208 -0.7984
  852MOL0     H12461   8.831   2.860   0.282  0.0211  0.6863  0.1522
  852MOL0     H12462   9.088   2.583   0.440 -0.6772  3.0852  2.5117
  852MOL0     H12463   8.192   2.467   0.465 -0.3274  1.4581 -1.4722
  852MOL0     H12464   7.946   2.486   0.506  2.4447 -0.8059  0.2209
  853MOL0     O12465   7.939   2.131   1.978 -0.1070  0.2179  0.0224
  853MOL0     C12466   7.980   2.236   2.027  0.3646  1.0554  0.3759
  853MOL0     O12467   7.905   2.320   2.094  0.3467  0.2578 -0.3747
  853MOL0     C12468   7.785   2.279   2.144  0.8356 -0.3049 -0.6868
  853MOL0     C12469   7.665   2.311   2.086  0.3437 -0.1100  0.3364
  853MOL0     C12470   7.542   2.302   2.156  0.1491 -0.0305  0.3957
  853MOL0     C12471   7.533   2.255   2.288  1.5328  0.0144  0.3412
  853MOL0     O12472   7.406   2.240   2.340 -0.0352  0.3703  0.0446
  853MOL0     C12473   7.313   2.138   2.285 -0.0415  0.3343 -0.4333
  853MOL0     C12474   7.173   2.177   2.292 -0.2011 -0.7686  0.8043
  853MOL0     C12475   7.144   2.304   2.200 -1.5773 -0.7233  0.8132
  853MOL0     C12476   7.013   2.365   2.239  0.3200  0.0912  0.0811
  853MOL0     C12477   6.954   2.465   2.146 -0.5248 -0.4647  0.5389
  853MOL0     C12478   6.927   2.398   2.009 -0.0811  0.0007  0.1127
  853MOL0     C12479   6.803   2.451   1.946  0.5898 -0.2302 -0.1725
  853MOL0     C12480   6.811   2.601   1.916 -0.7111 -0.0499 -0.3582
  853MOL0     N12481   6.683   2.658   1.870  0.1092 -0.3819  0.3408
  853MOL0     C12482   6.628   2.631   1.746 -0.3779 -0.7953  0.1056
  853MOL0     C12483   6.515   2.708   1.739 -0.8048  0.0512  0.6885
  853MOL0     C12484   6.417   2.734   1.626 -0.3289  0.4545 -0.1117
  853MOL0     C12485   6.368   2.595   1.570 -0.6276  0.2854 -0.3199
  853MOL0     C12486   6.256   2.630   1.464  0.6418  0.6069  0.3324
  853MOL0     C12487   6.250   2.529   1.348 -0.3214 -0.1275 -0.1817
  853MOL0     O12488   6.187   2.584   1.237  0.8303 -0.1432  0.2093
  853MOL0     C12489   6.084   2.510   1.201  0.0118  0.2785 -0.0984
  853MOL0     C12490   6.086   2.424   1.089  0.0776  0.8399 -0.1729
  853MOL0     C12491   5.969   2.360   1.039 -0.0478 -1.0771  1.1317
  853MOL0     C12492   5.842   2.384   1.098  0.0511  0.2691 -0.0169
  853MOL0     C12493   5.721   2.308   1.064  0.3847  0.4937  0.1242
  853MOL0     O12494   5.608   2.346   1.120 -0.0959 -0.0011 -0.1177
  853MOL0     C12495   5.485   2.286   1.102  0.6978 -0.5907  0.3128
  853MOL0     C12496   5.444   2.182   1.014  0.1776 -0.4747 -0.2806
  853MOL0     C12497   5.314   2.125   1.015  0.0613  0.3782 -1.0890
  853MOL0     C12498   5.212   2.172   1.102  0.6959 -0.1739 -0.0848
  853MOL0     O12499   5.084   2.127   1.102  0.4729 -0.7768 -0.2609
  853MOL0     C12500   5.052   2.011   1.027 -0.5320 -0.0758 -0.0408
  853MOL0     C12501   4.904   1.971   1.034  0.3692 -1.3138 -0.3013
  853MOL0     C12502   4.787   2.071   0.978 -0.1864 -0.0091 -0.3678
  853MOL0     C12503   4.651   2.017   0.959 -0.1476 -0.0115  0.2000
  853MOL0     C12504   4.538   2.126   0.960  0.1336 -0.0672  1.1760
  853MOL0     C12505   4.550   2.222   0.836  0.4628  0.2663  0.8686
  853MOL0     C12506   4.463   2.347   0.876  0.1160  0.9066 -0.4480
  853MOL0     C12507   4.538   2.456   0.926  1.1381  0.2275  0.4067
  853MOL0    Cl12508   4.661   2.404   1.039 -0.2596  0.0051 -0.4723
  853MOL0     C12509   5.249   2.277   1.184  0.1616  0.0414 -0.0868
  853MOL0     C12510   5.378   2.331   1.194  0.1764 -0.7486  0.7759
  853MOL0     O12511   5.742   2.225   0.976  0.4512 -0.3480  0.5777
  853MOL0     C12512   5.841   2.468   1.204 -0.5232 -1.4164 -0.8149
  853MOL0     C12513   5.957   2.536   1.248  0.3863 -0.2233  0.0640
  853MOL0     N12514   6.502   2.773   1.866 -0.6813  0.1847  0.4014
  853MOL0     N12515   6.600   2.741   1.944  0.0422  0.0269  0.3125
  853MOL0     C12516   7.654   2.208   2.341  0.0267  0.8475 -0.1621
  853MOL0     C12517   7.776   2.218   2.271 -0.3030  0.1236 -0.6069
  853MOL0     C12518   8.128   2.258   2.030  0.4162 -0.0100  0.5427
  853MOL0     C12519   8.221   2.160   2.002 -0.3307 -0.5117 -0.3092
  853MOL0     C12520   8.355   2.191   2.008  0.1592 -0.5582 -0.6339
  853MOL0     C12521   8.392   2.319   2.044 -0.1382 -0.3970  0.2458
  853MOL0     O12522   8.531   2.346   2.032  0.0468 -0.0836  0.0086
  853MOL0     C12523   8.582   2.474   2.060 -1.1205 -0.2679 -0.5269
  853MOL0     C12524   8.733   2.477   2.067 -0.7374 -0.0509 -0.2855
  853MOL0     C12525   8.794   2.484   1.922  0.2941  0.9590 -0.5262
  853MOL0     C12526   8.941   2.533   1.928  0.1930  0.3438 -0.0853
  853MOL0     C12527   9.018   2.451   2.016  0.8764  0.0046 -0.0693
  853MOL0     C12528   9.079   2.388   2.102 -0.0914  0.4875  0.2990
  853MOL0     C12529   8.301   2.411   2.081  0.0250  0.0360 -0.2241
  853MOL0     C12530   8.159   2.386   2.075  0.2145  0.9050 -0.0398
  853MOL0     H12531   7.676   2.361   1.990  0.2427  1.6139  1.1859
  853MOL0     H12532   7.449   2.331   2.109  0.5789 -0.6254 -0.8714
  853MOL0     H12533   7.334   2.036   2.319  0.4247  0.1671 -1.2020
  853MOL0     H12534   7.340   2.113   2.182 -2.5043 -0.5523 -0.9162
  853MOL0     H12535   7.150   2.207   2.394  2.3270  2.2279  0.6259
  853MOL0     H12536   7.103   2.098   2.261  1.6010 -2.0187 -0.2728
  853MOL0     H12537   7.141   2.265   2.098  1.3389 -0.8346  0.6789
  853MOL0     H12538   7.226   2.374   2.218 -2.0555  0.1781 -0.4069
  853MOL0     H12539   6.935   2.289   2.246 -1.1763  1.6278  0.7895
  853MOL0     H12540   7.006   2.401   2.342 -0.3394  0.0749  0.0472
  853MOL0     H12541   7.025   2.548   2.140  0.5230 -1.2746  1.3884
  853MOL0     H12542   6.865   2.508   2.193 -0.2226  1.7921 -0.8157
  853MOL0     H12543   6.918   2.290   2.024  1.6436 -0.2255 -0.2321
  853MOL0     H12544   7.013   2.405   1.942  0.2416  1.1082  0.6124
  853MOL0     H12545   6.773   2.403   1.852  1.9378  1.6503 -1.6196
  853MOL0     H12546   6.720   2.431   2.014 -0.2252 -3.6692 -1.9552
  853MOL0     H12547   6.896   2.625   1.852 -1.6434  6.1765  0.1067
  853MOL0     H12548   6.833   2.656   2.008 -4.1349  0.9620 -0.0019
  853MOL0     H12549   6.671   2.571   1.666  1.3100  2.3381 -1.5411
  853MOL0     H12550   6.440   2.805   1.546 -2.4818 -0.8498 -2.0294
  853MOL0     H12551   6.329   2.779   1.672  0.5082  1.5075  0.5189
  853MOL0     H12552   6.330   2.531   1.650 -0.0535  1.7295  1.1675
  853MOL0     H12553   6.453   2.555   1.514 -1.3583  2.4713 -3.2291
  853MOL0     H12554   6.161   2.647   1.516  0.9755  0.1535  1.1029
  853MOL0     H12555   6.280   2.729   1.424 -1.2787  1.3037  0.7736
  853MOL0     H12556   6.203   2.437   1.384  0.7338 -1.1482 -1.3325
  853MOL0     H12557   6.352   2.500   1.322  0.9554  1.1617  2.8315
  853MOL0     H12558   6.176   2.422   1.028  0.3688 -1.4308  0.2290
  853MOL0     H12559   5.967   2.300   0.949 -3.1811  0.9792 -0.3635
  853MOL0     H12560   5.513   2.154   0.935  0.9857 -1.6573  0.8117
  853MOL0     H12561   5.281   2.051   0.943 -2.6318 -0.3147  0.6742
  853MOL0     H12562   5.113   1.929   1.066  0.3244  0.0503 -1.0817
  853MOL0     H12563   5.078   2.028   0.922  1.0468  1.3269  0.5400
  853MOL0     H12564   4.882   1.947   1.139 -0.2814 -2.4070 -0.6703
  853MOL0     H12565   4.894   1.874   0.983 -1.9422 -1.4687  0.3365
  853MOL0     H12566   4.822   2.099   0.878  1.0477 -0.0827  0.0210
  853MOL0     H12567   4.789   2.144   1.059  2.6164  0.0314 -0.3720
  853MOL0     H12568   4.640   1.958   0.868 -1.4630 -0.4090  0.5840
  853MOL0     H12569   4.640   1.950   1.045 -0.4911  1.5583  1.4259
  853MOL0     H12570   4.548   2.183   1.052  2.4431  2.7842 -0.6972
  853MOL0     H12571   4.439   2.079   0.964 -1.4700  2.6346 -1.7202
  853MOL0     H12572   4.500   2.175   0.751  0.9229  0.8044  0.2925
  853MOL0     H12573   4.653   2.252   0.815  0.4692 -1.6232 -2.3540
  853MOL0     H12574   4.415   2.385   0.785  1.2691  5.0124  0.4270
  853MOL0     H12575   4.381   2.326   0.946  1.3163  1.2858  1.1428
  853MOL0     H12576   4.475   2.536   0.964  0.0388  0.4279 -1.7051
  853MOL0     H12577   4.591   2.507   0.845  0.0822  2.6290  1.1440
  853MOL0     H12578   5.177   2.324   1.250  0.8079 -0.9079  1.3644
  853MOL0     H12579   5.397   2.408   1.267  3.5578  1.6034 -2.2243
  853MOL0     H12580   5.750   2.490   1.260 -0.2014  1.1958 -1.2000
  853MOL0     H12581   5.943   2.606   1.329 -0.5014  0.3510 -0.5508
  853MOL0     H12582   7.648   2.152   2.433  1.6930 -0.7595 -0.9580
  853MOL0     H12583   7.867   2.180   2.317  0.4724  0.9558 -1.4273
  853MOL0     H12584   8.185   2.060   1.982 -1.9145 -0.5442  2.2859
  853MOL0     H12585   8.405   2.098   1.984 -2.2010 -1.3724 -2.8843
  853MOL0     H12586   8.553   2.502   2.161 -1.9838  1.6353 -1.2447
  853MOL0     H12587   8.540   2.552   1.996  0.4280  0.5833 -0.5656
  853MOL0     H12588   8.782   2.553   2.128  4.9015 -1.9716 -1.8245
  853MOL0     H12589   8.765   2.382   2.109 -2.2128  0.1563  1.4276
  853MOL0     H12590   8.746   2.559   1.859  2.6600  1.6476 -1.6481
  853MOL0     H12591   8.777   2.385   1.878  1.9643  1.4492 -2.4352
  853MOL0     H12592   8.976   2.515   1.826  1.3342 -1.2053  0.5439
  853MOL0     H12593   8.940   2.639   1.955 -0.5392  1.1471 -2.9152
  853MOL0     H12594   9.139   2.343   2.178  2.5160  1.9909 -0.7526
  853MOL0     H12595   8.331   2.505   2.127  1.6434 -0.0386 -1.0422
  853MOL0     H12596   8.083   2.461   2.096 -1.4865 -0.2997 -1.6194
  854MOL0     O12597   0.143   1.258   0.332 -0.0834  0.3162  0.3921
  854MOL0     C12598   0.238   1.323   0.387 -0.5623  0.3233 -0.4827
  854MOL0     O12599   0.223   1.389   0.503 -0.0508  0.2823 -0.5598
  854MOL0     C12600   0.092   1.410   0.543 -0.1648 -0.0865  0.1299
  854MOL0     C12601   0.008   1.499   0.464 -0.2998  1.2848  0.9653
  854MOL0     C12602  -0.133   1.505   0.491  0.3038  0.4690 -0.2227
  854MOL0     C12603  -0.182   1.433   0.601  0.2301 -0.3109  0.3298
  854MOL0     O12604  -0.312   1.429   0.643 -1.2837  0.3214  0.7944
  854MOL0     C12605  -0.405   1.528   0.589 -0.6243 -0.0410 -0.3922
  854MOL0     C12606  -0.401   1.668   0.645 -0.9864 -0.6045  0.4223
  854MOL0     C12607  -0.389   1.770   0.527 -0.3732 -0.1275 -0.3470
  854MOL0     C12608  -0.406   1.917   0.580  0.7439 -0.3779 -0.6623
  854MOL0     C12609  -0.455   2.013   0.472 -0.6943  0.1087 -0.3657
  854MOL0     C12610  -0.514   2.120   0.564 -0.6071 -0.0874 -0.1005
  854MOL0     C12611  -0.582   2.217   0.470  0.2937  0.0764  0.0302
  854MOL0     C12612  -0.631   2.344   0.545  0.4969  0.1366  0.2516
  854MOL0     N12613  -0.734   2.310   0.640  0.3258  0.1855 -0.5301
  854MOL0     C12614  -0.717   2.309   0.777 -0.4675 -0.4207 -0.0770
  854MOL0     C12615  -0.829   2.255   0.835  0.2524  0.6525  0.1784
  854MOL0     C12616  -0.857   2.210   0.974  0.6462 -0.0041 -0.2825
  854MOL0     C12617  -1.003   2.248   1.018  0.0190 -0.0170  0.0757
  854MOL0     C12618  -1.042   2.195   1.155 -0.2740 -0.1903  0.5936
  854MOL0     C12619  -1.193   2.190   1.182  0.1515 -0.6716 -0.5020
  854MOL0     O12620  -1.237   2.330   1.210 -0.0397  0.8245  0.1137
  854MOL0     C12621  -1.375   2.363   1.200  0.3023  1.6608 -0.2195
  854MOL0     C12622  -1.474   2.274   1.253 -0.1888  0.7217 -0.2080
  854MOL0     C12623  -1.604   2.310   1.248  0.1646  0.0206 -0.1469
  854MOL0     C12624  -1.647   2.434   1.200  0.7053  0.2289  0.1335
  854MOL0     C12625  -1.790   2.466   1.200 -0.2442  0.1044 -0.0939
  854MOL0     O12626  -1.829   2.594   1.209  0.2154 -0.1804 -0.4205
  854MOL0     C12627  -1.964   2.643   1.192  0.2989  0.4394  0.3831
  854MOL0     C12628  -2.064   2.560   1.131 -0.1549 -0.5802  0.7684
  854MOL0     C12629  -2.194   2.605   1.118 -0.4587 -0.0399  0.6120
  854MOL0     C12630  -2.233   2.731   1.172  0.1750 -0.3600 -0.6390
  854MOL0     O12631  -2.360   2.771   1.145  0.4298 -0.0599  0.0828
  854MOL0     C12632  -2.414   2.892   1.202  0.7552  0.4962 -0.2130
  854MOL0     C12633  -2.569   2.902   1.181 -0.4967 -0.8153 -0.2487
  854MOL0     C12634  -2.635   2.782   1.234 -0.0875 -0.2162  0.7204
  854MOL0     C12635  -2.788   2.801   1.204  0.0260  0.0373  0.2014
  854MOL0     C12636  -2.866   2.678   1.250  0.4464  0.1032  0.6397
  854MOL0     C12637  -3.012   2.692   1.234  0.8742 -0.5910 -0.1518
  854MOL0     C12638  -3.089   2.569   1.303 -0.4235  0.6962 -0.6960
  854MOL0     C12639  -3.231   2.593   1.319  0.0968  0.3812  0.0965
  854MOL0    Cl12640  -3.326   2.466   1.409 -0.1255  0.0529  0.0230
  854MOL0     C12641  -2.135   2.810   1.224  0.0328 -0.2391 -0.1183
  854MOL0     C12642  -2.001   2.768   1.241  0.4713  0.0419  0.0099
  854MOL0     O12643  -1.867   2.364   1.196  0.0960 -0.2904  0.0952
  854MOL0     C12644  -1.546   2.517   1.145  0.4448  0.3276  0.0309
  854MOL0     C12645  -1.410   2.486   1.149  0.0792  0.3338  0.1528
  854MOL0     N12646  -0.916   2.239   0.733  0.0882  0.3734 -0.0756
  854MOL0     N12647  -0.861   2.264   0.618  0.6908 -0.0653 -0.4369
  854MOL0     C12648  -0.098   1.372   0.688 -0.2439  0.5247 -0.4438
  854MOL0     C12649   0.039   1.352   0.655 -0.1836 -0.2011  0.0057
  854MOL0     C12650   0.371   1.329   0.325  0.4766 -0.0414  0.2739
  854MOL0     C12651   0.487   1.367   0.405 -0.8065 -0.1953  0.4534
  854MOL0     C12652   0.616   1.369   0.353  0.4015  0.2380  0.1402
  854MOL0     C12653   0.631   1.349   0.213 -0.7399  0.2236 -0.8705
  854MOL0     O12654   0.754   1.387   0.159 -0.3086 -0.1554  0.1162
  854MOL0     C12655   0.824   1.301   0.059 -0.1419  0.3556  0.2905
  854MOL0     C12656   0.841   1.160   0.108  0.3264 -0.0186  0.8437
  854MOL0     C12657   0.977   1.084   0.059 -0.2036 -0.3723 -0.3089
  854MOL0     C12658   0.961   0.928   0.068 -0.4444  0.7940  0.5341
  854MOL0     C12659   0.923   0.876   0.195 -0.2601 -0.3107  0.7186
  854MOL0     C12660   0.874   0.842   0.299  0.0004 -0.1915 -0.2402
  854MOL0     C12661   0.522   1.314   0.133  0.1321  0.4991 -0.0370
  854MOL0     C12662   0.392   1.299   0.188  0.1713  1.3082 -0.2036
  854MOL0     H12663   0.063   1.540   0.380  0.8132  1.3614  1.7075
  854MOL0     H12664  -0.192   1.565   0.422 -0.3947 -2.1918 -2.1144
  854MOL0     H12665  -0.500   1.489   0.626 -0.4557  0.9979  1.2085
  854MOL0     H12666  -0.417   1.531   0.480  0.4814  2.2644 -0.5102
  854MOL0     H12667  -0.316   1.670   0.714 -0.9336 -1.8028  0.4160
  854MOL0     H12668  -0.491   1.693   0.701 -2.4138  3.2788 -3.1125
  854MOL0     H12669  -0.475   1.740   0.466  0.2469 -2.3566 -0.2114
  854MOL0     H12670  -0.291   1.767   0.479 -0.8894 -0.3548 -1.4172
  854MOL0     H12671  -0.478   1.918   0.662 -1.5510 -0.1002 -2.5541
  854MOL0     H12672  -0.307   1.943   0.619 -0.1819  1.8381  0.4090
  854MOL0     H12673  -0.537   1.958   0.424 -1.2172 -1.5633  2.2833
  854MOL0     H12674  -0.372   2.044   0.407  0.1834 -2.1443 -0.4104
  854MOL0     H12675  -0.427   2.169   0.609 -1.2963  1.0369  0.0473
  854MOL0     H12676  -0.575   2.084   0.647 -0.9103 -3.2749 -1.5338
  854MOL0     H12677  -0.534   2.243   0.376 -3.0772 -3.0975 -2.8928
  854MOL0     H12678  -0.670   2.159   0.440 -1.4088  0.3992  3.7903
  854MOL0     H12679  -0.670   2.415   0.472 -0.5877  1.3888  1.9841
  854MOL0     H12680  -0.546   2.394   0.593  1.5885 -1.5771  0.1913
  854MOL0     H12681  -0.622   2.333   0.823  0.3374 -0.8069 -1.4957
  854MOL0     H12682  -0.775   2.249   1.034  0.7129  1.8998 -1.5337
  854MOL0     H12683  -0.851   2.101   0.961 -0.6149  0.0479 -1.6140
  854MOL0     H12684  -1.063   2.197   0.941  2.6574 -1.4151 -1.2250
  854MOL0     H12685  -1.006   2.356   1.003  1.1925  0.6183  3.4972
  854MOL0     H12686  -1.000   2.094   1.165 -2.0196 -0.7400  3.2430
  854MOL0     H12687  -0.983   2.256   1.224  1.1547  1.2784 -1.8051
  854MOL0     H12688  -1.207   2.124   1.269  1.5328 -1.1541 -0.6088
  854MOL0     H12689  -1.248   2.154   1.095 -1.5411  1.0779 -0.2229
  854MOL0     H12690  -1.453   2.180   1.302 -5.1961 -0.2071  0.6325
  854MOL0     H12691  -1.658   2.224   1.287  5.0424 -3.9389 -1.0544
  854MOL0     H12692  -2.034   2.472   1.075  3.2539  1.0147 -0.1444
  854MOL0     H12693  -2.255   2.544   1.052 -0.5797  0.9634 -0.2423
  854MOL0     H12694  -2.376   2.981   1.150  1.7457  0.5474  0.5608
  854MOL0     H12695  -2.384   2.896   1.307 -0.3336 -1.4435  0.2119
  854MOL0     H12696  -2.601   2.920   1.078 -0.4724  0.9781  0.0374
  854MOL0     H12697  -2.603   2.985   1.242 -0.4969 -1.8205  1.1677
  854MOL0     H12698  -2.613   2.763   1.339 -1.7805 -1.3521  0.9056
  854MOL0     H12699  -2.591   2.695   1.185  1.0910  2.2398 -3.0288
  854MOL0     H12700  -2.821   2.879   1.273  0.4931  1.9513 -1.6228
  854MOL0     H12701  -2.804   2.821   1.097  2.8370 -0.1147 -0.3084
  854MOL0     H12702  -2.848   2.657   1.356  0.3752 -1.9776  0.2859
  854MOL0     H12703  -2.831   2.584   1.206 -1.1526  0.0962 -0.7308
  854MOL0     H12704  -3.040   2.688   1.128  0.6969 -0.0532 -0.1246
  854MOL0     H12705  -3.044   2.788   1.274 -0.0234 -0.1789 -1.7531
  854MOL0     H12706  -3.074   2.472   1.254 -2.2018 -0.3544  0.6740
  854MOL0     H12707  -3.053   2.551   1.404  1.2536 -0.5515 -1.4626
  854MOL0     H12708  -3.276   2.604   1.220  1.4598  1.8975 -0.3874
  854MOL0     H12709  -3.249   2.691   1.366  2.5819  1.1966 -0.5038
  854MOL0     H12710  -2.175   2.907   1.252 -1.1502 -0.3789 -1.2157
  854MOL0     H12711  -1.929   2.838   1.282  2.5860 -3.1402  2.2246
  854MOL0     H12712  -1.568   2.618   1.113  1.0365  0.3357 -0.3647
  854MOL0     H12713  -1.339   2.563   1.119 -0.1795  0.2613 -0.6758
  854MOL0     H12714  -0.149   1.323   0.770 -1.0023  2.3924  0.2591
  854MOL0     H12715   0.106   1.305   0.726  2.2928 -0.9606 -2.6497
  854MOL0     H12716   0.486   1.380   0.513 -0.6419 -0.2587  0.4621
  854MOL0     H12717   0.701   1.387   0.417 -0.0445 -0.3743  0.9188
  854MOL0     H12718   0.918   1.350   0.033 -2.1557  3.9645 -0.9295
  854MOL0     H12719   0.762   1.305  -0.031  2.7263  0.4195 -1.7919
  854MOL0     H12720   0.837   1.156   0.217  2.6653 -1.7107  0.9518
  854MOL0     H12721   0.756   1.107   0.066  1.2266  1.1995 -2.9393
  854MOL0     H12722   1.067   1.114   0.115 -1.1625 -0.3673  1.3051
  854MOL0     H12723   1.009   1.101  -0.044  4.2309 -0.0089  0.9209
  854MOL0     H12724   0.898   0.901  -0.018 -0.8083  4.1333 -0.4207
  854MOL0     H12725   1.060   0.894   0.035 -0.2237  1.8379  0.0847
  854MOL0     H12726   0.828   0.807   0.388  0.7893  0.7081  0.5411
  854MOL0     H12727   0.521   1.298   0.026  0.4751  1.5155 -0.1968
  854MOL0     H12728   0.310   1.269   0.123  1.0121  0.2777 -0.8178
  855MOL0     O12729   4.086   8.204   4.729 -1.1722  0.5276 -0.1095
  855MOL0     C12730   4.056   8.319   4.749 -0.0869 -0.6946 -1.0746
  855MOL0     O12731   3.931   8.359   4.792 -0.2134 -0.4547 -0.0634
  855MOL0     C12732   3.820   8.283   4.813 -0.2624 -0.1233 -0.5423
  855MOL0     C12733   3.713   8.370   4.831  0.7227 -0.1066  0.5060
  855MOL0     C12734   3.582   8.316   4.851 -0.3207  0.7065  0.8245
  855MOL0     C12735   3.559   8.178   4.839  0.5177 -0.1428 -0.0969
  855MOL0     O12736   3.431   8.120   4.844 -0.0185  0.3055 -0.7715
  855MOL0     C12737   3.309   8.196   4.833  0.3643 -0.2329  0.1541
  855MOL0     C12738   3.189   8.099   4.812 -0.7063  0.2105  1.5211
  855MOL0     C12739   3.191   7.974   4.908 -0.2016 -0.1598  0.7095
  855MOL0     C12740   3.102   7.865   4.836 -0.1495  0.7604  1.1258
  855MOL0     C12741   2.949   7.900   4.822 -0.2901  0.2373 -0.9609
  855MOL0     C12742   2.877   7.788   4.760 -0.0603  0.0130  0.7546
  855MOL0     C12743   2.742   7.843   4.711  1.2645  0.3905 -0.1984
  855MOL0     C12744   2.623   7.772   4.783 -0.0768  0.0618  0.1793
  855MOL0     N12745   2.496   7.810   4.731 -0.5343  0.2671  0.4726
  855MOL0     C12746   2.438   7.930   4.742  0.4718 -0.1941  0.1966
  855MOL0     C12747   2.312   7.916   4.700  0.6187 -0.2875 -0.1021
  855MOL0     C12748   2.210   8.028   4.680 -1.2715  0.5420  0.7832
  855MOL0     C12749   2.074   7.963   4.639  0.4409 -0.0028 -0.0008
  855MOL0     C12750   1.969   8.070   4.632 -0.4498  0.9081  0.1033
  855MOL0     C12751   1.837   8.025   4.604  0.3825  0.7910  0.3227
  855MOL0     O12752   1.743   8.129   4.597 -0.5177  0.8319 -0.1318
  855MOL0     C12753   1.611   8.085   4.570 -0.3636  0.0675  0.6670
  855MOL0     C12754   1.566   7.965   4.527 -0.1994 -0.4671  0.1661
  855MOL0     C12755   1.430   7.950   4.504  0.6169  0.9867 -0.3940
  855MOL0     C12756   1.337   8.054   4.509  1.0091 -0.6710  0.0216
  855MOL0     C12757   1.200   8.037   4.467 -0.3683  0.1809  1.4382
  855MOL0     O12758   1.178   7.915   4.425 -0.4919  0.0016 -0.1131
  855MOL0     C12759   1.050   7.880   4.385 -0.4753 -0.8313 -1.0011
  855MOL0     C12760   0.986   7.771   4.449  0.1166 -0.5284 -0.6132
  855MOL0     C12761   0.855   7.737   4.405 -0.1007  0.4844 -0.6400
  855MOL0     C12762   0.798   7.797   4.290 -0.1317  0.2838 -0.5986
  855MOL0     O12763   0.684   7.759   4.224  0.3400 -0.4651 -0.2458
  855MOL0     C12764   0.642   7.629   4.254  0.2813  0.6230 -0.4495
  855MOL0     C12765   0.527   7.604   4.141 -0.2652  0.4697 -0.3663
  855MOL0     C12766   0.410   7.688   4.161  0.1200 -0.4001  0.4994
  855MOL0     C12767   0.289   7.658   4.081 -0.1074  0.4871  0.2407
  855MOL0     C12768   0.180   7.759   4.128 -0.2828 -0.5759  0.1635
  855MOL0     C12769   0.048   7.710   4.073 -0.2385 -0.7030 -0.2816
  855MOL0     C12770  -0.077   7.792   4.109  0.3555  0.1449  0.4043
  855MOL0     C12771  -0.212   7.725   4.057 -0.2100  0.3508  0.8312
  855MOL0    Cl12772  -0.254   7.616   4.194 -0.3141  0.1768  0.0564
  855MOL0     C12773   0.864   7.899   4.225 -0.3003  0.3078 -0.6023
  855MOL0     C12774   0.990   7.949   4.278  0.3756  0.0338 -0.6774
  855MOL0     O12775   1.119   8.127   4.466  0.6516 -0.2472  0.3684
  855MOL0     C12776   1.383   8.178   4.561 -0.9451 -0.6818 -0.1001
  855MOL0     C12777   1.517   8.190   4.591  0.1293  0.3784  0.0108
  855MOL0     N12778   2.296   7.786   4.661  0.2986 -0.1140 -0.2989
  855MOL0     N12779   2.407   7.724   4.685  0.4958  0.2078 -0.8921
  855MOL0     C12780   3.668   8.096   4.812 -0.1889 -0.1583  0.8022
  855MOL0     C12781   3.798   8.144   4.803 -0.5950 -0.0464  0.3043
  855MOL0     C12782   4.171   8.417   4.755  0.0736 -0.6447 -0.4262
  855MOL0     C12783   4.298   8.394   4.703 -0.1839  0.7389 -0.0168
  855MOL0     C12784   4.402   8.486   4.720  0.2262  0.2797  0.3038
  855MOL0     C12785   4.379   8.606   4.778  1.1656 -0.0413 -0.6102
  855MOL0     O12786   4.477   8.700   4.800 -0.1681 -0.3507  0.5342
  855MOL0     C12787   4.613   8.661   4.793  0.7495 -1.0041  0.1776
  855MOL0     C12788   4.685   8.778   4.858  0.9773 -0.4784  0.2025
  855MOL0     C12789   4.829   8.747   4.903 -0.3490  0.7104 -0.3574
  855MOL0     C12790   4.951   8.747   4.799  0.3113  0.5497 -0.4565
  855MOL0     C12791   4.973   8.859   4.711  1.0062  0.6161  0.1902
  855MOL0     C12792   4.989   8.954   4.641  0.0521 -1.0218 -1.0113
  855MOL0     C12793   4.246   8.639   4.809  0.2465  0.3651 -0.5276
  855MOL0     C12794   4.144   8.544   4.811 -0.5025 -0.4033 -0.5412
  855MOL0     H12795   3.726   8.478   4.837  3.6992 -0.2331 -1.3327
  855MOL0     H12796   3.503   8.388   4.872 -0.5599 -0.4748  4.7838
  855MOL0     H12797   3.317   8.259   4.744 -0.0952 -1.0060 -0.4540
  855MOL0     H12798   3.297   8.258   4.922 -0.6177 -4.3585  3.2139
  855MOL0     H12799   3.195   8.055   4.712 -2.4201  1.0403  1.0152
  855MOL0     H12800   3.093   8.151   4.804 -1.2415 -0.8686  0.6852
  855MOL0     H12801   3.144   8.003   5.002 -3.8497  2.1129 -1.5469
  855MOL0     H12802   3.289   7.932   4.930 -1.1643 -2.3648  1.0188
  855MOL0     H12803   3.131   7.847   4.733 -1.0132  2.8084  0.4796
  855MOL0     H12804   3.108   7.770   4.891  2.0089  0.6776  0.8239
  855MOL0     H12805   2.929   7.989   4.761 -0.2581 -0.6839 -2.3543
  855MOL0     H12806   2.908   7.919   4.921 -0.6663  0.7226 -1.2009
  855MOL0     H12807   2.860   7.699   4.821  1.9880  1.0832  3.0364
  855MOL0     H12808   2.929   7.751   4.671  1.2521  0.6435  1.2462
  855MOL0     H12809   2.735   7.950   4.733  0.3605  0.2376  0.3414
  855MOL0     H12810   2.737   7.825   4.603 -0.7544 -1.1337  0.0869
  855MOL0     H12811   2.638   7.818   4.881  0.4943  2.1215 -0.8237
  855MOL0     H12812   2.651   7.666   4.783  4.3004  1.0211  1.8274
  855MOL0     H12813   2.467   8.028   4.779  0.2117 -0.7394  1.9190
  855MOL0     H12814   2.251   8.092   4.601  2.5709 -0.0987  2.0357
  855MOL0     H12815   2.214   8.085   4.773  2.7110 -1.8648  2.3379
  855MOL0     H12816   2.040   7.886   4.708 -3.6705 -0.1188 -1.8062
  855MOL0     H12817   2.077   7.913   4.542 -0.8716 -0.6017  0.2477
  855MOL0     H12818   1.969   8.125   4.726 -1.3203 -0.1955  0.7735
  855MOL0     H12819   2.000   8.142   4.556 -3.3483  1.2090 -0.8872
  855MOL0     H12820   1.809   7.945   4.673 -2.4377 -0.5108 -2.0851
  855MOL0     H12821   1.838   7.982   4.503 -2.7258 -1.5332  1.1377
  855MOL0     H12822   1.634   7.884   4.503 -1.3727 -1.6401  0.6410
  855MOL0     H12823   1.397   7.854   4.466  2.3876 -0.1136  0.7097
  855MOL0     H12824   1.020   7.716   4.536 -1.3518 -1.8677 -0.8446
  855MOL0     H12825   0.799   7.661   4.459  2.6819 -2.3999 -1.5655
  855MOL0     H12826   0.594   7.612   4.351  1.7018  0.8102  0.3027
  855MOL0     H12827   0.726   7.559   4.248  0.1828  0.4956 -0.3584
  855MOL0     H12828   0.514   7.496   4.146  4.1046 -0.4674 -3.2790
  855MOL0     H12829   0.579   7.618   4.045  0.0395 -0.1601 -0.2964
  855MOL0     H12830   0.443   7.791   4.147 -0.9387  0.0512  1.1458
  855MOL0     H12831   0.389   7.678   4.268  1.0740 -0.9484  0.6413
  855MOL0     H12832   0.317   7.669   3.976  0.8856  3.6068  0.7310
  855MOL0     H12833   0.263   7.555   4.105  0.1417  0.1604 -0.8566
  855MOL0     H12834   0.210   7.859   4.096  0.9525 -0.0101  2.8321
  855MOL0     H12835   0.171   7.768   4.237 -0.2197 -1.6722  0.2705
  855MOL0     H12836   0.026   7.608   4.107 -1.3561 -0.4459 -0.1822
  855MOL0     H12837   0.066   7.715   3.965 -0.1753  1.1812 -0.2081
  855MOL0     H12838  -0.093   7.797   4.217 -1.6496  0.8932  0.1130
  855MOL0     H12839  -0.069   7.897   4.078 -3.5448 -0.1409 -2.2551
  855MOL0     H12840  -0.195   7.666   3.966 -2.6250  0.4252  0.2630
  855MOL0     H12841  -0.280   7.809   4.043  0.6783  1.0404  0.5585
  855MOL0     H12842   0.824   7.948   4.137 -0.4768 -0.8231 -1.1680
  855MOL0     H12843   1.035   8.036   4.231  2.0490  0.0218  0.7915
  855MOL0     H12844   1.314   8.257   4.588  1.4780  0.6068  2.9263
  855MOL0     H12845   1.563   8.285   4.615  1.7472 -0.0708 -1.1074
  855MOL0     H12846   3.650   7.993   4.783 -0.8353  0.2361 -0.2756
  855MOL0     H12847   3.883   8.082   4.777 -0.8446 -0.1648 -0.2469
  855MOL0     H12848   4.328   8.303   4.651 -0.4392  0.1719  0.8071
  855MOL0     H12849   4.495   8.455   4.674  1.5237 -0.0971  2.9607
  855MOL0     H12850   4.640   8.650   4.687 -0.2069  2.7712 -0.5988
  855MOL0     H12851   4.633   8.566   4.845  0.0479 -1.4720 -0.3919
  855MOL0     H12852   4.683   8.865   4.792  1.2211 -1.7098 -1.5034
  855MOL0     H12853   4.646   8.798   4.958 -0.5334 -0.9022 -0.2793
  855MOL0     H12854   4.832   8.655   4.961  2.7916  2.3222  2.4590
  855MOL0     H12855   4.849   8.836   4.964  0.6885 -0.5306  1.1638
  855MOL0     H12856   5.046   8.733   4.851 -1.8024  1.3164  4.1011
  855MOL0     H12857   4.929   8.656   4.743  1.7916 -0.1761  0.1080
  855MOL0     H12858   5.012   9.033   4.572  3.2229  0.3271  1.3603
  855MOL0     H12859   4.238   8.738   4.852  2.1968 -0.4405  1.9200
  855MOL0     H12860   4.044   8.565   4.846  0.7989  1.7936  2.2717
  856MOL0     O12861   1.316   5.429   3.165  0.5427  0.2707  0.1223
  856MOL0     C12862   1.294   5.539   3.218  0.0004 -0.3208  1.3483
  856MOL0     O12863   1.183   5.560   3.300 -0.7515  0.4567 -0.2065
  856MOL0     C12864   1.078   5.480   3.320  0.5962 -0.3025 -0.1378
  856MOL0     C12865   1.038   5.361   3.242 -0.3390 -0.1266 -0.8458
  856MOL0     C12866   0.913   5.301   3.264  0.2118 -0.5558 -0.6567
  856MOL0     C12867   0.825   5.367   3.356  0.6755  0.2531 -0.3115
  856MOL0     O12868   0.695   5.318   3.372  0.3190  0.4118 -0.2414
  856MOL0     C12869   0.668   5.183   3.338  0.0820  0.2210  0.0808
  856MOL0     C12870   0.522   5.149   3.390 -0.7239 -0.4326  0.3705
  856MOL0     C12871   0.425   5.242   3.315  0.7682  0.1503 -0.3238
  856MOL0     C12872   0.273   5.230   3.353 -0.2330  0.4699 -0.0390
  856MOL0     C12873   0.192   5.350   3.318  0.0613 -0.6946  0.2230
  856MOL0     C12874   0.052   5.340   3.383 -0.0355 -0.0663 -0.4720
  856MOL0     C12875  -0.041   5.465   3.379 -0.2217  0.3889  0.2102
  856MOL0     C12876  -0.126   5.473   3.251  0.7773 -0.4981  0.0428
  856MOL0     N12877  -0.212   5.594   3.249 -0.0534  0.4018  0.0849
  856MOL0     C12878  -0.163   5.717   3.211  0.5508 -0.1308  0.6183
  856MOL0     C12879  -0.279   5.802   3.209  0.4093  0.6601  0.4669
  856MOL0     C12880  -0.272   5.938   3.160 -0.3541 -0.0802 -0.5768
  856MOL0     C12881  -0.297   6.047   3.262 -0.4389  0.1127  0.0933
  856MOL0     C12882  -0.442   6.055   3.321 -0.4445  0.2378  0.3172
  856MOL0     C12883  -0.452   6.129   3.451 -0.9010  0.3632  0.0979
  856MOL0     O12884  -0.590   6.138   3.494  0.4883  0.3764 -0.6802
  856MOL0     C12885  -0.678   6.239   3.446  0.0796 -0.8600 -0.3191
  856MOL0     C12886  -0.816   6.214   3.459 -0.3875 -0.1155 -0.6902
  856MOL0     C12887  -0.911   6.298   3.416  0.3267  0.3767 -0.5260
  856MOL0     C12888  -0.871   6.420   3.351  0.2946 -0.1420 -0.3072
  856MOL0     C12889  -0.973   6.517   3.305 -0.4538 -0.2197 -0.2727
  856MOL0     O12890  -1.106   6.477   3.301 -0.2095  0.5164 -0.1632
  856MOL0     C12891  -1.206   6.559   3.258  0.2146 -0.4445  0.4124
  856MOL0     C12892  -1.314   6.489   3.194 -0.3783 -0.4294  0.2171
  856MOL0     C12893  -1.432   6.554   3.165  0.0827  0.3576 -1.0749
  856MOL0     C12894  -1.448   6.686   3.197 -0.1462 -0.2348 -0.7497
  856MOL0     O12895  -1.566   6.754   3.189 -0.0129  0.0899  0.0531
  856MOL0     C12896  -1.681   6.702   3.116 -0.0402  0.3091 -0.1663
  856MOL0     C12897  -1.776   6.630   3.208  0.2122 -0.3953  0.2898
  856MOL0     C12898  -1.907   6.591   3.135 -0.4045  0.7351  0.3166
  856MOL0     C12899  -2.022   6.529   3.221 -0.0659  0.0178 -0.6941
  856MOL0     C12900  -2.140   6.473   3.143 -0.6472  0.4268 -0.2293
  856MOL0     C12901  -2.242   6.402   3.248 -0.3818 -0.2973 -0.5446
  856MOL0     C12902  -2.349   6.325   3.174 -0.2036  0.2329 -0.1150
  856MOL0     C12903  -2.477   6.323   3.252 -0.5778 -0.0920  0.8064
  856MOL0    Cl12904  -2.589   6.202   3.176 -0.1786 -0.3181  0.2775
  856MOL0     C12905  -1.347   6.762   3.260  0.2979 -0.6528 -1.2208
  856MOL0     C12906  -1.225   6.698   3.289 -0.9193  1.0067 -0.5471
  856MOL0     O12907  -0.934   6.628   3.267  0.0879  0.8034  0.1673
  856MOL0     C12908  -0.734   6.447   3.329  0.0468  0.1686 -0.1163
  856MOL0     C12909  -0.645   6.358   3.376  0.1211  0.7842 -0.6089
  856MOL0     N12910  -0.386   5.720   3.243 -0.5008 -0.1906 -0.2903
  856MOL0     N12911  -0.346   5.599   3.266 -0.1746  0.1742  0.5763
  856MOL0     C12912   0.854   5.489   3.414 -0.2864 -0.1422  0.5176
  856MOL0     C12913   0.975   5.543   3.393 -0.0023 -0.4839 -0.1873
  856MOL0     C12914   1.391   5.648   3.189 -0.4538  0.5572  0.2807
  856MOL0     C12915   1.493   5.620   3.102  0.5785  0.0449  0.2085
  856MOL0     C12916   1.570   5.730   3.060 -0.1945 -0.0263 -0.1555
  856MOL0     C12917   1.531   5.863   3.088 -0.0901 -0.1621 -0.7576
  856MOL0     O12918   1.595   5.974   3.049  0.4670  0.0295  0.7052
  856MOL0     C12919   1.704   5.968   2.954 -0.5805 -0.1148  0.4811
  856MOL0     C12920   1.655   5.995   2.814  1.0261 -0.4397 -0.4282
  856MOL0     C12921   1.752   5.951   2.698  0.2428  0.3543 -1.2506
  856MOL0     C12922   1.673   5.972   2.565 -0.0436  0.2220 -0.4714
  856MOL0     C12923   1.622   6.107   2.528 -0.1114 -0.4432 -0.3244
  856MOL0     C12924   1.596   6.215   2.487  0.2390 -0.7640  0.0735
  856MOL0     C12925   1.428   5.886   3.183 -0.1177 -0.0199 -0.4204
  856MOL0     C12926   1.360   5.775   3.233  0.0676 -0.2007 -0.6896
  856MOL0     H12927   1.106   5.311   3.173  1.5527  0.5532  0.4333
  856MOL0     H12928   0.891   5.203   3.223  0.8889 -0.9073 -0.1959
  856MOL0     H12929   0.741   5.114   3.383 -1.5412 -0.7927  1.2448
  856MOL0     H12930   0.674   5.168   3.230  0.5342  1.5076 -0.0839
  856MOL0     H12931   0.521   5.173   3.497  1.5319 -0.1676  0.3758
  856MOL0     H12932   0.502   5.043   3.373  2.2584 -0.8204 -1.4121
  856MOL0     H12933   0.431   5.210   3.211  1.6213 -0.2707 -0.1489
  856MOL0     H12934   0.447   5.348   3.333  1.4747 -0.0307 -0.0967
  856MOL0     H12935   0.236   5.136   3.310  3.6663 -1.4951  0.4248
  856MOL0     H12936   0.268   5.222   3.462 -0.5258  2.0533  0.0778
  856MOL0     H12937   0.178   5.354   3.209  0.8348  2.0183  0.1568
  856MOL0     H12938   0.245   5.440   3.348 -1.6638  0.8395 -1.0644
  856MOL0     H12939   0.074   5.337   3.490 -2.8888 -0.3389  0.2004
  856MOL0     H12940  -0.003   5.252   3.348  0.7820  0.0882 -2.2220
  856MOL0     H12941  -0.106   5.441   3.464  1.1607 -2.7967  0.5397
  856MOL0     H12942   0.013   5.558   3.401 -0.3051  0.1573  1.4670
  856MOL0     H12943  -0.185   5.382   3.235 -0.6065  0.6117 -1.6157
  856MOL0     H12944  -0.057   5.484   3.167 -1.4244 -1.2275 -1.9811
  856MOL0     H12945  -0.060   5.745   3.192  1.3269 -0.6155  3.6658
  856MOL0     H12946  -0.335   5.954   3.072  0.1535 -2.7649 -1.5008
  856MOL0     H12947  -0.168   5.950   3.129 -0.2856 -3.5218 -2.1241
  856MOL0     H12948  -0.272   6.138   3.207  0.0103  0.3751  0.7245
  856MOL0     H12949  -0.224   6.028   3.341 -1.1055  0.8013  0.8892
  856MOL0     H12950  -0.515   6.096   3.250 -0.8715 -1.2902 -0.1645
  856MOL0     H12951  -0.496   5.962   3.343 -0.6105  0.7550  2.2763
  856MOL0     H12952  -0.402   6.227   3.446 -1.8936  1.0226  2.0707
  856MOL0     H12953  -0.404   6.074   3.532 -0.9603  0.9733  0.5517
  856MOL0     H12954  -0.844   6.126   3.515  0.3837 -0.9091 -1.5157
  856MOL0     H12955  -1.014   6.290   3.449  0.6200  1.8583  0.8325
  856MOL0     H12956  -1.306   6.382   3.175 -1.9382 -0.1835 -2.3654
  856MOL0     H12957  -1.511   6.498   3.116 -2.8370  0.3625  3.0961
  856MOL0     H12958  -1.642   6.643   3.032 -1.4503 -1.2870  0.2465
  856MOL0     H12959  -1.739   6.782   3.070  1.6433  1.5800 -0.1788
  856MOL0     H12960  -1.802   6.697   3.290 -1.1909 -1.6441  0.9121
  856MOL0     H12961  -1.734   6.547   3.267  1.7437  0.6535  0.7295
  856MOL0     H12962  -1.871   6.523   3.057  0.1768 -0.3591  1.5111
  856MOL0     H12963  -1.956   6.679   3.092 -0.5445  0.7932  0.5962
  856MOL0     H12964  -1.982   6.444   3.278 -0.9878  1.6859  2.6594
  856MOL0     H12965  -2.057   6.601   3.295  0.6431 -0.5822  0.2574
  856MOL0     H12966  -2.112   6.400   3.067 -2.4572  0.3246 -0.8644
  856MOL0     H12967  -2.180   6.556   3.085  2.0537  0.2620 -2.5212
  856MOL0     H12968  -2.293   6.475   3.311 -1.0847 -1.0781 -0.1929
  856MOL0     H12969  -2.184   6.343   3.320  0.1732  3.0186  1.9528
  856MOL0     H12970  -2.375   6.365   3.076 -1.8152  0.0804  0.2349
  856MOL0     H12971  -2.312   6.224   3.150  0.9143  0.3202  1.0858
  856MOL0     H12972  -2.513   6.426   3.244 -0.2586 -0.0026  0.5192
  856MOL0     H12973  -2.461   6.295   3.357  2.5366 -2.4794 -0.1555
  856MOL0     H12974  -1.355   6.865   3.291 -0.3422 -1.0355 -0.0638
  856MOL0     H12975  -1.144   6.747   3.342 -0.0557 -1.1682  0.3059
  856MOL0     H12976  -0.699   6.533   3.272 -2.0506 -0.7402 -3.0318
  856MOL0     H12977  -0.538   6.370   3.361  0.3954 -0.0982  0.5439
  856MOL0     H12978   0.778   5.541   3.472 -3.0766  0.2758 -3.1767
  856MOL0     H12979   1.001   5.634   3.446  0.5508  1.5589 -3.6400
  856MOL0     H12980   1.531   5.523   3.072 -2.0609 -1.9848  2.8338
  856MOL0     H12981   1.661   5.709   3.005 -0.3541  0.3442 -0.5661
  856MOL0     H12982   1.768   5.880   2.957 -2.3216 -1.5384 -1.1166
  856MOL0     H12983   1.768   6.056   2.961  0.6412 -0.5236 -3.4011
  856MOL0     H12984   1.559   5.946   2.794 -1.0628  2.2357  2.1021
  856MOL0     H12985   1.633   6.101   2.794 -0.3778 -0.8229 -1.0555
  856MOL0     H12986   1.765   5.845   2.719 -2.6658  0.5269  2.3686
  856MOL0     H12987   1.850   5.999   2.703 -0.0660  0.9546 -0.8256
  856MOL0     H12988   1.744   5.943   2.487  0.3412  0.6980 -0.3050
  856MOL0     H12989   1.585   5.906   2.562 -0.6888  1.0605 -0.4527
  856MOL0     H12990   1.578   6.316   2.455  0.4633 -0.6739  0.2293
  856MOL0     H12991   1.409   5.981   3.231  3.3482  0.8697 -0.5498
  856MOL0     H12992   1.278   5.781   3.304  1.2694 -1.3881  0.8533
  857MOL0     O12993   2.279   2.430   1.995  0.2976  0.6870 -0.1622
  857MOL0     C12994   2.380   2.497   2.019  0.5921  0.9654  0.3758
  857MOL0     O12995   2.392   2.603   2.108  1.2204  0.4993  0.1254
  857MOL0     C12996   2.277   2.653   2.159 -0.3941 -0.1493 -0.2169
  857MOL0     C12997   2.220   2.759   2.085 -0.2470  0.0623 -0.3926
  857MOL0     C12998   2.098   2.808   2.135 -0.0541 -0.1890  0.3142
  857MOL0     C12999   2.057   2.779   2.262 -0.0836 -0.4709  0.4559
  857MOL0     O13000   1.948   2.848   2.323  0.0118 -0.7141  0.3689
  857MOL0     C13001   1.903   2.814   2.451  0.7846 -0.2111 -0.5796
  857MOL0     C13002   1.758   2.863   2.471  0.0886  0.2776 -0.2285
  857MOL0     C13003   1.660   2.781   2.396  0.5661  0.0097 -0.6472
  857MOL0     C13004   1.516   2.833   2.398 -0.1214 -0.1296  0.4433
  857MOL0     C13005   1.413   2.739   2.339  0.8026 -0.7037  0.0801
  857MOL0     C13006   1.276   2.801   2.304  0.8069  0.0057  0.2850
  857MOL0     C13007   1.170   2.684   2.269 -0.7122 -0.6696  0.1894
  857MOL0     C13008   1.035   2.733   2.225 -0.4177  0.4713  1.2935
  857MOL0     N13009   0.963   2.825   2.314  1.3457 -0.3347 -1.0546
  857MOL0     C13010   0.871   2.784   2.414  0.1885 -0.3109 -0.3389
  857MOL0     C13011   0.842   2.898   2.486 -0.0535 -0.3949  0.4581
  857MOL0     C13012   0.757   2.905   2.606 -0.5828  0.9636 -0.3310
  857MOL0     C13013   0.640   2.980   2.556  0.0381  1.0193 -0.2169
  857MOL0     C13014   0.560   2.909   2.448  0.1748  0.0522  0.3326
  857MOL0     C13015   0.506   2.767   2.490  0.1103  0.6120 -0.5956
  857MOL0     O13016   0.460   2.757   2.628  0.2195  0.2064  1.0216
  857MOL0     C13017   0.338   2.818   2.665  0.6819 -0.8067 -0.1563
  857MOL0     C13018   0.320   2.864   2.795 -0.4955 -0.1355 -0.0943
  857MOL0     C13019   0.193   2.905   2.836 -0.3452  0.0527  0.0626
  857MOL0     C13020   0.090   2.914   2.745 -0.0344  1.2170 -0.7548
  857MOL0     C13021  -0.043   2.957   2.786  0.5605 -0.0017 -0.2023
  857MOL0     O13022  -0.149   2.926   2.699  0.3544  0.5882  0.7629
  857MOL0     C13023  -0.268   2.993   2.718  0.1700 -0.3162 -0.1265
  857MOL0     C13024  -0.294   3.109   2.645  0.3527  0.1369  0.6294
  857MOL0     C13025  -0.412   3.184   2.660  0.2210  0.4114  0.5215
  857MOL0     C13026  -0.508   3.147   2.743  0.4261  0.2580 -0.8354
  857MOL0     O13027  -0.616   3.232   2.755  0.1722 -0.1363 -1.2957
  857MOL0     C13028  -0.737   3.173   2.814 -0.0391 -0.1942  0.5352
  857MOL0     C13029  -0.834   3.287   2.827  1.1129 -0.1518 -0.7085
  857MOL0     C13030  -0.967   3.246   2.898 -0.1358 -0.1630  0.9066
  857MOL0     C13031  -1.060   3.372   2.906 -0.0460 -0.1268 -0.1067
  857MOL0     C13032  -1.202   3.322   2.915  0.5621 -0.0790  0.3719
  857MOL0     C13033  -1.248   3.282   3.063  0.6338 -0.4513  0.0876
  857MOL0     C13034  -1.398   3.239   3.041  0.3648 -0.2598 -0.0323
  857MOL0     C13035  -1.455   3.254   3.185  0.1145 -0.3429  0.2628
  857MOL0    Cl13036  -1.622   3.198   3.175 -0.0196  0.2944  0.1188
  857MOL0     C13037  -0.483   3.030   2.817 -0.9404 -0.1017  0.0143
  857MOL0     C13038  -0.363   2.960   2.814 -0.2349 -0.6055  0.7765
  857MOL0     O13039  -0.057   3.017   2.894  0.4732 -0.7600  0.0679
  857MOL0     C13040   0.106   2.882   2.614 -1.2317  0.5878  0.5522
  857MOL0     C13041   0.229   2.823   2.578 -0.3386  0.0652 -0.5657
  857MOL0     N13042   0.915   2.997   2.433 -0.0536  0.0781  0.0532
  857MOL0     N13043   1.009   2.949   2.346  1.1960  0.2112 -0.1046
  857MOL0     C13044   2.121   2.674   2.334 -0.0722 -0.0838 -1.1117
  857MOL0     C13045   2.234   2.613   2.279  0.6113  0.1406 -0.2010
  857MOL0     C13046   2.499   2.444   1.962 -0.5347 -0.0127 -0.5306
  857MOL0     C13047   2.502   2.338   1.870  0.4308 -0.5303 -0.2511
  857MOL0     C13048   2.617   2.296   1.813  0.2686 -0.4065  0.1344
  857MOL0     C13049   2.748   2.349   1.853  0.1991 -0.1689  0.1920
  857MOL0     O13050   2.869   2.296   1.804  0.5734  0.3324 -0.3375
  857MOL0     C13051   2.865   2.194   1.695 -0.0578 -0.7034 -0.9488
  857MOL0     C13052   2.860   2.054   1.753  0.3915  0.1184  0.1652
  857MOL0     C13053   2.918   1.949   1.660  0.2928  0.1257 -0.0896
  857MOL0     C13054   3.038   1.890   1.732 -0.0195  0.2332 -0.1708
  857MOL0     C13055   3.107   1.793   1.641  0.0401  0.5042  0.1870
  857MOL0     C13056   3.155   1.724   1.560 -1.3128  0.6082  0.3861
  857MOL0     C13057   2.746   2.446   1.953 -0.1579 -0.6489 -0.7694
  857MOL0     C13058   2.624   2.498   2.000 -0.0298 -0.6046 -0.1913
  857MOL0     H13059   2.268   2.799   1.996 -0.7699  1.3954 -0.0978
  857MOL0     H13060   2.053   2.878   2.066 -0.8863 -0.3788  0.6545
  857MOL0     H13061   1.972   2.859   2.523  0.5428 -1.9120  0.7828
  857MOL0     H13062   1.894   2.706   2.467 -0.4979  0.2572  2.4352
  857MOL0     H13063   1.744   2.968   2.442 -0.5997  0.0210 -0.8574
  857MOL0     H13064   1.730   2.857   2.576 -1.2206 -0.3037 -0.5856
  857MOL0     H13065   1.662   2.678   2.435  0.5693  0.2312 -0.0466
  857MOL0     H13066   1.678   2.778   2.288  0.0323  0.8623 -0.7720
  857MOL0     H13067   1.495   2.852   2.503 -0.6238 -1.6800  0.6459
  857MOL0     H13068   1.513   2.930   2.347  1.7216 -0.5033 -0.5099
  857MOL0     H13069   1.402   2.658   2.412 -1.2740 -1.2945 -0.7902
  857MOL0     H13070   1.454   2.693   2.249 -0.4611 -2.5779  0.4123
  857MOL0     H13071   1.278   2.866   2.216  0.8027  0.8920  0.9197
  857MOL0     H13072   1.239   2.859   2.389  0.3971  0.8248 -0.4297
  857MOL0     H13073   1.205   2.614   2.193 -0.3574  0.1484 -0.4108
  857MOL0     H13074   1.156   2.620   2.357 -1.5209  2.4673  2.5642
  857MOL0     H13075   0.971   2.648   2.198 -1.4469  1.1682  1.5005
  857MOL0     H13076   1.052   2.795   2.137  0.0152 -0.5917  0.6094
  857MOL0     H13077   0.811   2.695   2.428 -1.7055  1.3303  4.4520
  857MOL0     H13078   0.811   2.953   2.688 -0.9580  1.4873 -0.3886
  857MOL0     H13079   0.717   2.809   2.639  1.7807 -0.7348 -2.0448
  857MOL0     H13080   0.672   3.082   2.534 -0.6477  1.9368  2.5772
  857MOL0     H13081   0.572   2.993   2.641  1.3392  0.4374  0.9502
  857MOL0     H13082   0.472   2.973   2.437 -2.0178 -2.8365 -0.0682
  857MOL0     H13083   0.608   2.909   2.350 -0.7523  2.4957 -0.1754
  857MOL0     H13084   0.591   2.699   2.482 -1.7562 -1.9436  0.1422
  857MOL0     H13085   0.426   2.729   2.426 -2.0799 -1.0003  2.8346
  857MOL0     H13086   0.407   2.855   2.859 -1.2982  1.1172  1.2263
  857MOL0     H13087   0.197   2.922   2.943  2.5428 -1.5905  0.3387
  857MOL0     H13088  -0.213   3.148   2.584 -1.1362  3.4429  0.5297
  857MOL0     H13089  -0.427   3.282   2.616 -1.6140  0.3926  1.0426
  857MOL0     H13090  -0.705   3.134   2.911 -0.6053  0.4002  0.9703
  857MOL0     H13091  -0.767   3.091   2.749  1.6822 -0.4339 -0.0183
  857MOL0     H13092  -0.865   3.325   2.729 -0.7804 -1.0190 -0.4924
  857MOL0     H13093  -0.785   3.372   2.875  2.1124 -1.2994  0.3989
  857MOL0     H13094  -0.937   3.212   2.998  3.5422  0.4074  0.1254
  857MOL0     H13095  -1.012   3.162   2.845  0.6266  1.0624 -1.8508
  857MOL0     H13096  -1.032   3.441   2.985 -1.6398  2.5206 -1.7068
  857MOL0     H13097  -1.058   3.426   2.811  1.6319  3.7814  1.8995
  857MOL0     H13098  -1.211   3.231   2.855  1.1740  0.1802 -0.1283
  857MOL0     H13099  -1.263   3.404   2.877  3.4438  1.0661 -2.2403
  857MOL0     H13100  -1.244   3.376   3.120 -3.5630  3.5479 -5.1287
  857MOL0     H13101  -1.185   3.204   3.107  2.3531  1.9438  2.2176
  857MOL0     H13102  -1.450   3.307   2.973  2.7548  2.5274  0.7406
  857MOL0     H13103  -1.420   3.136   3.014 -1.4562 -0.0638  0.5010
  857MOL0     H13104  -1.446   3.360   3.212 -0.1689  0.2052 -1.6109
  857MOL0     H13105  -1.400   3.187   3.252  0.8987  2.4072  2.6121
  857MOL0     H13106  -0.562   2.980   2.871  0.3371 -2.0677  0.1977
  857MOL0     H13107  -0.352   2.870   2.875 -2.0635 -0.5679  1.2079
  857MOL0     H13108   0.034   2.892   2.534  0.5280  1.7915 -0.9543
  857MOL0     H13109   0.235   2.773   2.482  0.4014 -2.8963  0.8970
  857MOL0     H13110   2.074   2.647   2.429 -0.1340  0.2168 -1.0538
  857MOL0     H13111   2.286   2.535   2.333 -0.1200 -1.6924 -2.0228
  857MOL0     H13112   2.410   2.300   1.828  1.7301 -0.2985 -3.6390
  857MOL0     H13113   2.597   2.225   1.734 -0.3051 -0.1258  0.0236
  857MOL0     H13114   2.958   2.197   1.638  0.6337 -1.2534  0.1186
  857MOL0     H13115   2.788   2.207   1.619  0.4621  0.7920 -1.2429
  857MOL0     H13116   2.916   2.056   1.847 -1.5547 -0.6478  1.4051
  857MOL0     H13117   2.754   2.032   1.770  0.2406  1.7289  1.5812
  857MOL0     H13118   2.956   1.994   1.568  1.3889 -0.7862 -0.1056
  857MOL0     H13119   2.847   1.868   1.641 -1.4067  1.3544  0.7481
  857MOL0     H13120   3.111   1.968   1.753  1.4358 -1.3259  0.8339
  857MOL0     H13121   2.999   1.840   1.821 -0.1345 -0.5433 -0.6435
  857MOL0     H13122   3.207   1.679   1.478  1.3468 -1.4083  2.9675
  857MOL0     H13123   2.839   2.465   2.006  0.2289 -2.4041 -0.7507
  857MOL0     H13124   2.643   2.583   2.064  5.0564 -2.7695  1.7532
  858MOL0     O13125   8.599   6.275   6.594  0.6411  0.3984 -0.5468
  858MOL0     C13126   8.549   6.340   6.503 -0.1719 -0.7246 -0.0414
  858MOL0     O13127   8.619   6.368   6.388 -0.0626  0.2941 -0.6036
  858MOL0     C13128   8.749   6.378   6.393 -0.3491  0.0293 -0.2720
  858MOL0     C13129   8.821   6.427   6.505  0.5932 -0.7999 -0.2433
  858MOL0     C13130   8.960   6.437   6.495 -0.7382  0.4867  0.3109
  858MOL0     C13131   9.030   6.396   6.379  0.5194  0.7192 -1.1015
  858MOL0     O13132   9.171   6.401   6.378  0.1394 -0.3665 -0.0432
  858MOL0     C13133   9.224   6.472   6.264 -0.4323  0.2165 -0.4133
  858MOL0     C13134   9.376   6.446   6.269 -0.1006  0.1446  0.7331
  858MOL0     C13135   9.408   6.296   6.228  0.0577  0.0553  0.4077
  858MOL0     C13136   9.555   6.283   6.172  0.4019  0.4410 -0.3078
  858MOL0     C13137   9.634   6.150   6.191  0.7799 -0.6383 -0.7891
  858MOL0     C13138   9.560   6.024   6.154 -0.2888  0.0903  0.3813
  858MOL0     C13139   9.532   6.025   5.998  0.1694  0.1758  0.1475
  858MOL0     C13140   9.415   5.922   5.976  0.1040 -0.3789  0.8017
  858MOL0     N13141   9.281   5.986   6.010 -0.5407  0.5625  0.7033
  858MOL0     C13142   9.189   5.923   6.095 -0.8918  0.3447  0.1890
  858MOL0     C13143   9.086   6.000   6.097  1.3604 -1.4936 -0.5617
  858MOL0     C13144   8.962   5.982   6.171  0.2326 -0.2159  0.6384
  858MOL0     C13145   8.836   6.020   6.091 -0.4665 -0.1338  0.6482
  858MOL0     C13146   8.816   5.958   5.956 -0.2690  0.5382  0.7776
  858MOL0     C13147   8.838   5.804   5.949 -0.0031 -0.1985  0.0190
  858MOL0     O13148   8.772   5.752   5.835 -0.4077 -0.6924  0.4180
  858MOL0     C13149   8.628   5.736   5.840 -0.1464  0.6963 -0.1390
  858MOL0     C13150   8.570   5.694   5.720  0.4055 -0.1303 -0.0444
  858MOL0     C13151   8.428   5.693   5.711  0.2597  0.5394 -0.5833
  858MOL0     C13152   8.341   5.732   5.816  0.1943 -0.3435  0.4173
  858MOL0     C13153   8.190   5.739   5.792  0.7456 -0.5284  0.6907
  858MOL0     O13154   8.114   5.763   5.896  0.0044 -0.5089  0.3771
  858MOL0     C13155   7.973   5.749   5.891  0.2973  0.5186 -0.3539
  858MOL0     C13156   7.902   5.836   5.982 -1.1628  1.2152  0.2417
  858MOL0     C13157   7.763   5.837   5.978  1.0130 -0.2794 -0.6148
  858MOL0     C13158   7.683   5.749   5.888  0.3057  0.5259 -0.8138
  858MOL0     O13159   7.544   5.732   5.889 -0.3019 -0.6630  0.7752
  858MOL0     C13160   7.480   5.751   6.018  0.3006 -0.1672  0.1192
  858MOL0     C13161   7.331   5.712   6.008 -0.2898 -0.0001 -0.1897
  858MOL0     C13162   7.258   5.707   6.143  0.5682  0.5170 -0.2776
  858MOL0     C13163   7.106   5.706   6.140  0.7842  0.1273  0.5048
  858MOL0     C13164   7.042   5.718   6.282 -0.8192 -0.0834  0.8091
  858MOL0     C13165   6.906   5.770   6.295 -0.0844  0.6145 -0.4080
  858MOL0     C13166   6.816   5.648   6.257 -0.4185 -0.0088 -0.8022
  858MOL0     C13167   6.671   5.681   6.285  0.8488  0.1620 -0.3811
  858MOL0    Cl13168   6.573   5.540   6.226 -0.6349 -0.3780  0.4102
  858MOL0     C13169   7.753   5.664   5.804 -0.8297 -0.4552  0.1586
  858MOL0     C13170   7.898   5.674   5.799 -0.8705 -0.0487 -0.5817
  858MOL0     O13171   8.153   5.714   5.674  0.8289 -0.5861  0.4784
  858MOL0     C13172   8.397   5.767   5.934 -0.0918 -0.0785 -1.0791
  858MOL0     C13173   8.535   5.765   5.952  0.1329  0.0661 -0.2286
  858MOL0     N13174   9.102   6.110   6.017 -0.5789 -0.2615  0.2525
  858MOL0     N13175   9.218   6.094   5.953 -0.3295  0.4421  0.0757
  858MOL0     C13176   8.960   6.339   6.273  0.8851 -0.9946 -0.8752
  858MOL0     C13177   8.816   6.335   6.280  0.1936  0.0234  0.3715
  858MOL0     C13178   8.407   6.389   6.521  0.2760 -0.1665 -0.4264
  858MOL0     C13179   8.345   6.495   6.453  0.4190  1.0137  0.6644
  858MOL0     C13180   8.213   6.542   6.485  0.5687  0.3353  0.1278
  858MOL0     C13181   8.138   6.487   6.583 -0.1369  0.5606  0.0047
  858MOL0     O13182   8.020   6.538   6.617 -0.6876  0.2761  0.5201
  858MOL0     C13183   8.011   6.573   6.757 -0.3563 -0.1536 -0.1107
  858MOL0     C13184   7.877   6.642   6.797 -0.2073  0.5077  0.4416
  858MOL0     C13185   7.751   6.564   6.765  0.8366 -0.5600  0.0713
  858MOL0     C13186   7.633   6.600   6.859  0.8136  0.2389  0.6614
  858MOL0     C13187   7.602   6.745   6.851 -0.2559  0.6020 -0.3108
  858MOL0     C13188   7.561   6.860   6.846  0.0478 -0.2670  0.0760
  858MOL0     C13189   8.199   6.374   6.652 -0.1123 -0.2258  0.6791
  858MOL0     C13190   8.330   6.324   6.623  0.1785  0.4898  0.0270
  858MOL0     H13191   8.770   6.448   6.599 -1.1484 -0.3386 -1.2346
  858MOL0     H13192   9.009   6.482   6.580 -0.6363  1.5437 -0.2944
  858MOL0     H13193   9.199   6.577   6.284 -5.6668 -0.5558 -1.4140
  858MOL0     H13194   9.179   6.449   6.167 -3.1838  2.8504  0.1103
  858MOL0     H13195   9.430   6.472   6.360  0.0777 -1.9988  1.2837
  858MOL0     H13196   9.414   6.510   6.188 -0.5223 -1.3861 -0.7385
  858MOL0     H13197   9.327   6.247   6.171  1.3465 -1.2213 -0.3981
  858MOL0     H13198   9.399   6.244   6.323  1.5141 -1.7703 -0.3983
  858MOL0     H13199   9.568   6.316   6.069  3.7071  2.6325  0.6789
  858MOL0     H13200   9.613   6.358   6.226 -1.4479  1.4183  0.4208
  858MOL0     H13201   9.652   6.141   6.298  1.2617  1.1646 -0.6941
  858MOL0     H13202   9.729   6.164   6.139  2.6406  1.0528  2.7867
  858MOL0     H13203   9.465   6.034   6.206 -2.2634  0.0929 -2.9793
  858MOL0     H13204   9.606   5.932   6.191 -2.3451 -0.0919  2.7283
  858MOL0     H13205   9.496   6.124   5.968  1.1436 -0.0206 -1.8370
  858MOL0     H13206   9.621   6.005   5.937  0.4995  0.0850  0.6574
  858MOL0     H13207   9.426   5.826   6.027  0.0980 -1.1870 -0.6780
  858MOL0     H13208   9.407   5.897   5.870 -0.3151  1.2043  0.4305
  858MOL0     H13209   9.197   5.831   6.151 -1.7826 -0.4692 -0.9959
  858MOL0     H13210   8.958   6.039   6.264 -0.6065 -0.2210  0.6150
  858MOL0     H13211   8.947   5.876   6.194  0.0851 -0.3144  0.1095
  858MOL0     H13212   8.841   6.128   6.073 -1.5682  0.1150  1.6585
  858MOL0     H13213   8.757   6.014   6.166  0.1297  1.8876  1.5084
  858MOL0     H13214   8.720   5.985   5.911  0.3442  1.7806  0.1359
  858MOL0     H13215   8.889   5.990   5.881 -2.1886 -1.3507 -2.0703
  858MOL0     H13216   8.802   5.754   6.039 -2.0542 -0.3767 -0.8363
  858MOL0     H13217   8.946   5.792   5.932 -0.4987 -2.6117 -2.2784
  858MOL0     H13218   8.637   5.680   5.636  1.4899  1.9008  0.4260
  858MOL0     H13219   8.383   5.671   5.615  2.3789 -0.7962 -1.3323
  858MOL0     H13220   7.954   5.897   6.055 -1.5462  1.3512  0.4031
  858MOL0     H13221   7.716   5.909   6.045  0.5605 -0.7254 -0.4452
  858MOL0     H13222   7.499   5.846   6.069  0.6906 -0.9975  1.6031
  858MOL0     H13223   7.516   5.683   6.096 -3.0494 -2.9191 -0.4708
  858MOL0     H13224   7.335   5.610   5.967  2.2824  0.2997 -0.8107
  858MOL0     H13225   7.286   5.780   5.935 -1.6663  0.3790  0.9509
  858MOL0     H13226   7.294   5.788   6.207  1.1533  0.1949 -0.1896
  858MOL0     H13227   7.290   5.617   6.197 -4.1304  0.1049  2.4277
  858MOL0     H13228   7.082   5.790   6.074  2.1215 -1.4591 -2.1556
  858MOL0     H13229   7.068   5.614   6.094  0.1143  0.5718  0.1482
  858MOL0     H13230   7.108   5.787   6.335 -0.8428 -1.3559  2.5945
  858MOL0     H13231   7.055   5.618   6.323  1.8021 -0.0988  0.0886
  858MOL0     H13232   6.891   5.840   6.213  1.8932 -0.6356 -1.9534
  858MOL0     H13233   6.888   5.807   6.396  2.7136 -1.1005  0.8566
  858MOL0     H13234   6.823   5.638   6.148  0.8734  3.1944 -1.1107
  858MOL0     H13235   6.848   5.564   6.319 -1.9994 -0.1538 -0.1450
  858MOL0     H13236   6.655   5.776   6.234 -0.2924  0.7119  0.9518
  858MOL0     H13237   6.668   5.690   6.394  1.6560  1.0969 -0.4280
  858MOL0     H13238   7.708   5.603   5.726 -0.3862 -2.9487  1.7430
  858MOL0     H13239   7.934   5.614   5.716  0.1978 -0.6843  0.3108
  858MOL0     H13240   8.337   5.790   6.021  2.4493  0.9230  0.5098
  858MOL0     H13241   8.584   5.786   6.046 -1.0902 -0.3956  0.5191
  858MOL0     H13242   9.005   6.303   6.181 -2.6449 -0.6208 -2.9354
  858MOL0     H13243   8.756   6.278   6.209  0.6750  0.8112 -0.6914
  858MOL0     H13244   8.406   6.548   6.381  1.6318 -0.9718  0.1525
  858MOL0     H13245   8.174   6.633   6.440  3.8783  2.5718  1.4229
  858MOL0     H13246   8.087   6.648   6.778 -0.5894 -0.1388  0.7476
  858MOL0     H13247   8.032   6.485   6.818  0.0891 -1.3016 -1.8601
  858MOL0     H13248   7.881   6.663   6.904  1.6911 -2.9347  1.1762
  858MOL0     H13249   7.874   6.731   6.733  3.0287 -0.8260 -1.8402
  858MOL0     H13250   7.762   6.455   6.772 -3.1057 -1.2014 -1.5337
  858MOL0     H13251   7.739   6.583   6.658 -3.2473 -1.2557  0.2617
  858MOL0     H13252   7.548   6.543   6.819  2.1671 -3.3318  2.4250
  858MOL0     H13253   7.655   6.573   6.962  3.8833  0.0957  0.0651
  858MOL0     H13254   7.514   6.956   6.839 -0.2255 -0.2251  1.9471
  858MOL0     H13255   8.152   6.328   6.739 -0.8598  0.0647  0.4366
  858MOL0     H13256   8.375   6.243   6.679  2.1351  1.3765 -0.1755
  859MOL0     O13257   2.774   0.421   1.990  0.2187  0.2346 -1.2309
  859MOL0     C13258   2.693   0.475   1.915  0.7366 -0.3991 -1.2027
  859MOL0     O13259   2.698   0.603   1.873 -0.4203 -0.3239 -0.0941
  859MOL0     C13260   2.803   0.676   1.900 -0.2632 -0.2544  0.0512
  859MOL0     C13261   2.933   0.629   1.884 -0.6604 -0.7121  0.2957
  859MOL0     C13262   3.041   0.707   1.900  0.7192  0.0044 -0.2808
  859MOL0     C13263   3.029   0.843   1.937 -0.0440 -0.3654  0.5356
  859MOL0     O13264   3.128   0.936   1.953  0.2315 -0.0747  0.0254
  859MOL0     C13265   3.261   0.902   1.990  0.0526  0.1175  0.5413
  859MOL0     C13266   3.269   0.882   2.137 -0.1233  0.3086 -0.4361
  859MOL0     C13267   3.279   1.018   2.216  1.5876  0.8432  0.6259
  859MOL0     C13268   3.144   1.093   2.229  0.8131 -0.2968 -0.6545
  859MOL0     C13269   3.151   1.205   2.332  0.3219 -0.5542  0.7100
  859MOL0     C13270   3.013   1.268   2.343  0.1665 -0.1065 -0.2324
  859MOL0     C13271   2.892   1.192   2.399  0.0782  0.1789 -0.7558
  859MOL0     C13272   2.772   1.282   2.420  0.2833 -0.2820 -0.5818
  859MOL0     N13273   2.699   1.305   2.297 -0.4059 -0.6027  0.6119
  859MOL0     C13274   2.645   1.195   2.235 -0.2937 -0.9072 -0.1351
  859MOL0     C13275   2.580   1.245   2.132 -0.4198  0.5751  0.7036
  859MOL0     C13276   2.502   1.162   2.028 -0.1446  0.7510  0.7634
  859MOL0     C13277   2.353   1.163   2.074 -0.0687  0.2250 -0.4123
  859MOL0     C13278   2.260   1.096   1.967  0.6085 -0.0376  0.4853
  859MOL0     C13279   2.128   1.171   1.979  0.5853 -0.3259 -0.1905
  859MOL0     O13280   2.029   1.119   1.894 -0.5963  0.2064  0.0596
  859MOL0     C13281   1.906   1.112   1.964  0.3063  0.1523  0.1968
  859MOL0     C13282   1.883   1.004   2.046  0.7264 -0.1787 -0.0408
  859MOL0     C13283   1.753   0.979   2.110 -0.6037 -0.0480  0.0824
  859MOL0     C13284   1.645   1.061   2.075 -0.3298 -0.7944 -0.1901
  859MOL0     C13285   1.517   1.032   2.134  0.2743 -0.0299  0.7917
  859MOL0     O13286   1.411   1.112   2.103  0.0211 -0.7169  0.2789
  859MOL0     C13287   1.294   1.109   2.172 -0.0345  0.0244 -1.4533
  859MOL0     C13288   1.237   1.239   2.210  0.1818  0.3082  1.5485
  859MOL0     C13289   1.115   1.244   2.267  0.2908 -0.8236 -0.3601
  859MOL0     C13290   1.042   1.129   2.304 -0.9151 -0.2016  0.9717
  859MOL0     O13291   0.915   1.133   2.345  0.4240 -0.0388 -0.0284
  859MOL0     C13292   0.825   1.088   2.249  0.4684  0.6333 -0.2123
  859MOL0     C13293   0.780   1.200   2.148 -0.1752  0.0632  0.3220
  859MOL0     C13294   0.716   1.322   2.219 -0.1600 -0.2649  0.9002
  859MOL0     C13295   0.718   1.449   2.124  0.5173  0.0376 -0.1128
  859MOL0     C13296   0.651   1.435   1.988 -0.0728  0.1604  0.2739
  859MOL0     C13297   0.631   1.565   1.914  0.3774  0.4035  0.1320
  859MOL0     C13298   0.557   1.568   1.781  0.3238 -0.3414 -0.2520
  859MOL0     C13299   0.405   1.567   1.807  0.0134  0.7968 -0.9669
  859MOL0    Cl13300   0.357   1.701   1.915  0.4119  0.8928  0.4274
  859MOL0     C13301   1.109   1.003   2.280 -0.1710  0.4314  0.0756
  859MOL0     C13302   1.232   0.991   2.214  0.0353  1.0707  0.5121
  859MOL0     O13303   1.515   0.942   2.213  0.2139 -0.0558  0.3898
  859MOL0     C13304   1.667   1.166   1.979 -0.1055  0.4237 -0.2279
  859MOL0     C13305   1.798   1.188   1.926 -0.1934  0.1816 -0.0959
  859MOL0     N13306   2.602   1.382   2.115 -0.4925  0.4941 -0.0494
  859MOL0     N13307   2.681   1.417   2.213  0.2655 -0.5295 -0.1890
  859MOL0     C13308   2.897   0.888   1.950  0.9192  0.1955 -0.0238
  859MOL0     C13309   2.787   0.802   1.931 -0.0636 -1.0834  0.3326
  859MOL0     C13310   2.568   0.403   1.874  0.7451  0.0257 -0.3490
  859MOL0     C13311   2.488   0.452   1.769  0.2014  0.1447 -0.7733
  859MOL0     C13312   2.359   0.394   1.741  0.5695 -0.5662  0.5894
  859MOL0     C13313   2.309   0.290   1.815 -0.6205  0.4565 -0.7383
  859MOL0     O13314   2.181   0.252   1.786 -0.4527 -0.2423 -1.1347
  859MOL0     C13315   2.101   0.184   1.877  0.6143  0.0857 -0.5518
  859MOL0     C13316   1.974   0.131   1.822  0.7312  0.3789  0.0171
  859MOL0     C13317   1.992   0.050   1.691 -0.0141  1.0605 -0.2967
  859MOL0     C13318   1.869  -0.030   1.647  0.7203 -0.2470  0.3937
  859MOL0     C13319   1.764   0.063   1.602  0.5786 -0.2037 -0.0113
  859MOL0     C13320   1.684   0.155   1.569  0.1562 -0.1307  0.7069
  859MOL0     C13321   2.393   0.237   1.916  0.9271  0.2931  0.2435
  859MOL0     C13322   2.518   0.289   1.940  1.2424  0.4206  0.5027
  859MOL0     H13323   2.947   0.531   1.841  0.5496 -0.7759  0.7928
  859MOL0     H13324   3.140   0.665   1.881  0.4108 -1.3172  0.8639
  859MOL0     H13325   3.329   0.979   1.951  0.0147 -1.0020 -1.9847
  859MOL0     H13326   3.298   0.814   1.936  0.1136  0.1359  0.5524
  859MOL0     H13327   3.362   0.828   2.157 -0.9630 -0.9230  0.2713
  859MOL0     H13328   3.183   0.820   2.162  0.1669 -0.3661 -1.1001
  859MOL0     H13329   3.359   1.071   2.163  0.4144 -0.3168 -2.5173
  859MOL0     H13330   3.321   0.998   2.315  0.4465  0.6095  1.0755
  859MOL0     H13331   3.129   1.131   2.127  3.3365 -1.9392 -1.7440
  859MOL0     H13332   3.081   1.010   2.260  0.4544  0.4776  0.7632
  859MOL0     H13333   3.228   1.272   2.295 -1.5500  1.7810  0.7808
  859MOL0     H13334   3.187   1.165   2.427  0.9720 -4.5565 -1.0012
  859MOL0     H13335   2.981   1.302   2.244  1.4525  2.5568  0.1785
  859MOL0     H13336   3.033   1.360   2.399 -2.1322  0.2137  0.1880
  859MOL0     H13337   2.868   1.105   2.338  0.7362  0.6803 -1.7651
  859MOL0     H13338   2.923   1.163   2.500 -0.5568  0.3755 -0.5020
  859MOL0     H13339   2.801   1.373   2.474  0.5042  0.6027 -2.1312
  859MOL0     H13340   2.710   1.220   2.485 -0.6297  2.4294  1.2879
  859MOL0     H13341   2.654   1.092   2.268 -0.4705 -1.4978 -1.8271
  859MOL0     H13342   2.555   1.066   2.025 -0.1984  0.7215  0.7417
  859MOL0     H13343   2.513   1.205   1.928  1.8946  1.8208  1.4080
  859MOL0     H13344   2.324   1.266   2.096 -0.6555  0.1855 -0.9754
  859MOL0     H13345   2.336   1.110   2.168 -3.5439  0.7969 -0.5653
  859MOL0     H13346   2.306   1.105   1.868 -0.3029  1.0885  0.1533
  859MOL0     H13347   2.246   0.990   1.991 -0.8644  0.1029  0.3393
  859MOL0     H13348   2.157   1.272   1.950 -1.4526 -0.1617 -1.8185
  859MOL0     H13349   2.095   1.171   2.083  0.5820 -0.0076 -0.1917
  859MOL0     H13350   1.955   0.924   2.059 -1.3433 -2.1930 -0.2667
  859MOL0     H13351   1.733   0.892   2.173 -0.7731 -0.3838 -0.4337
  859MOL0     H13352   1.289   1.326   2.172 -0.5618 -0.8091 -2.6174
  859MOL0     H13353   1.056   1.333   2.283 -1.0442 -1.6288 -0.6762
  859MOL0     H13354   0.740   1.050   2.306  0.4190 -1.2627 -1.4438
  859MOL0     H13355   0.875   1.008   2.192 -0.3453  0.5899 -0.8941
  859MOL0     H13356   0.704   1.160   2.080 -0.5200 -1.4397  1.5161
  859MOL0     H13357   0.867   1.223   2.087  0.9718  1.1151  2.2457
  859MOL0     H13358   0.772   1.355   2.307 -0.7722  1.7772  0.5758
  859MOL0     H13359   0.616   1.287   2.245 -0.0667 -0.6377  0.7619
  859MOL0     H13360   0.667   1.528   2.180  0.7675  1.2024 -1.4771
  859MOL0     H13361   0.820   1.480   2.103  0.0807 -1.0147 -4.8244
  859MOL0     H13362   0.551   1.391   2.000 -1.0653  2.7189  2.7460
  859MOL0     H13363   0.713   1.364   1.933 -1.0321 -0.5865  0.1145
  859MOL0     H13364   0.721   1.622   1.889  0.9086 -1.6415 -3.2154
  859MOL0     H13365   0.585   1.630   1.989  0.2697 -0.1015  0.5133
  859MOL0     H13366   0.573   1.660   1.724  1.1812  1.6422  2.8940
  859MOL0     H13367   0.579   1.485   1.714 -1.0386 -0.5150 -0.5142
  859MOL0     H13368   0.380   1.475   1.860 -0.8238  1.7841  0.4363
  859MOL0     H13369   0.348   1.575   1.713 -1.2277 -0.9321 -0.4101
  859MOL0     H13370   1.055   0.913   2.308 -1.0928  0.2461 -2.1383
  859MOL0     H13371   1.265   0.890   2.195  0.6953  1.7443 -2.3763
  859MOL0     H13372   1.576   1.219   1.955 -0.9084 -0.7758  0.1022
  859MOL0     H13373   1.795   1.269   1.854 -0.5572 -0.8482 -1.2625
  859MOL0     H13374   2.877   0.992   1.971 -2.3866 -0.3060 -0.1927
  859MOL0     H13375   2.689   0.848   1.935  0.8770  0.9462  1.6687
  859MOL0     H13376   2.514   0.551   1.732 -1.9507  0.9919 -0.1614
  859MOL0     H13377   2.284   0.443   1.680  0.1615 -1.6592  0.1867
  859MOL0     H13378   2.071   0.246   1.962 -0.2662 -2.0308  0.7638
  859MOL0     H13379   2.159   0.102   1.920 -1.0770 -1.0002 -0.2648
  859MOL0     H13380   1.931   0.067   1.899  0.4983 -1.2770 -1.4329
  859MOL0     H13381   1.916   0.222   1.804  1.1815  0.8999  1.0748
  859MOL0     H13382   2.068  -0.028   1.697 -0.1957  0.9029 -0.0542
  859MOL0     H13383   2.020   0.127   1.618  0.6151  2.7513  1.6526
  859MOL0     H13384   1.906  -0.086   1.560 -1.3389 -1.8772  0.5030
  859MOL0     H13385   1.837  -0.099   1.725 -0.6140 -1.0659 -0.8202
  859MOL0     H13386   1.617   0.233   1.539 -1.4473 -1.4016  0.7872
  859MOL0     H13387   2.363   0.147   1.967 -1.3948  0.5597 -0.5407
  859MOL0     H13388   2.569   0.251   2.028 -1.7166  0.4750  2.3676
  860MOL0     O13389   3.520   4.821   6.740  0.4752  0.2886 -0.3856
  860MOL0     C13390   3.399   4.843   6.721 -1.0699 -0.1668  0.2048
  860MOL0     O13391   3.347   4.867   6.594 -0.2110  0.3274  0.3488
  860MOL0     C13392   3.430   4.884   6.484 -0.3335  0.1032 -0.5840
  860MOL0     C13393   3.451   5.015   6.433  0.4347  0.7807 -0.1749
  860MOL0     C13394   3.549   5.041   6.338 -0.6478 -0.3795  0.5878
  860MOL0     C13395   3.630   4.939   6.283 -0.1709  0.1899  0.7397
  860MOL0     O13396   3.723   4.973   6.191 -0.0760 -0.3234  0.2835
  860MOL0     C13397   3.822   4.874   6.162 -0.1808 -0.0762 -0.1085
  860MOL0     C13398   3.937   4.939   6.084 -0.2901  0.6395 -0.3424
  860MOL0     C13399   4.012   5.033   6.186  0.9503 -0.7490 -0.6901
  860MOL0     C13400   4.111   5.126   6.123  0.7907 -0.0949 -0.3537
  860MOL0     C13401   4.162   5.222   6.234  0.6302  0.0672 -0.7128
  860MOL0     C13402   4.268   5.151   6.315  0.0579 -0.4660 -0.2058
  860MOL0     C13403   4.333   5.240   6.421 -0.2710 -0.6393 -0.0972
  860MOL0     C13404   4.485   5.216   6.441  0.2810 -0.4496  0.3816
  860MOL0     N13405   4.514   5.090   6.492 -0.0825  0.0302 -0.5145
  860MOL0     C13406   4.542   4.980   6.415  0.7243  0.0107  0.2004
  860MOL0     C13407   4.559   4.886   6.512 -0.2443  1.1353  0.5596
  860MOL0     C13408   4.575   4.742   6.483 -0.0251  0.2980  0.6064
  860MOL0     C13409   4.509   4.691   6.345 -0.0050 -0.3359  0.9006
  860MOL0     C13410   4.356   4.715   6.322 -0.2284 -0.1772 -0.8545
  860MOL0     C13411   4.274   4.707   6.456  0.3395  0.3812 -0.0103
  860MOL0     O13412   4.246   4.571   6.477  0.0376 -0.4406  0.3845
  860MOL0     C13413   4.112   4.534   6.488  0.7502 -1.1091 -0.3246
  860MOL0     C13414   4.035   4.509   6.375  1.2026  0.4414  0.0200
  860MOL0     C13415   3.897   4.473   6.383  0.9532  0.4008  0.6981
  860MOL0     C13416   3.836   4.467   6.509 -0.2200 -0.2907 -0.2799
  860MOL0     C13417   3.697   4.431   6.527  1.5431  0.8762  0.9876
  860MOL0     O13418   3.647   4.433   6.657  0.8725  0.1281  0.2145
  860MOL0     C13419   3.513   4.437   6.677  0.6559  0.5167  0.2701
  860MOL0     C13420   3.415   4.366   6.609  0.6615  0.0202 -0.1103
  860MOL0     C13421   3.278   4.377   6.661  0.2124 -0.1272  0.2436
  860MOL0     C13422   3.253   4.442   6.776 -0.3382 -0.1004 -0.3615
  860MOL0     O13423   3.134   4.417   6.838  0.8109 -0.0183  0.2985
  860MOL0     C13424   3.136   4.378   6.978 -0.3358  0.0455  0.0269
  860MOL0     C13425   3.015   4.291   7.012 -1.0027 -0.1494 -0.6998
  860MOL0     C13426   2.884   4.357   6.984  0.1023  0.0851  0.6674
  860MOL0     C13427   2.768   4.276   7.039  0.4004  0.5862  0.0013
  860MOL0     C13428   2.688   4.203   6.924  0.2207  0.4677 -0.4336
  860MOL0     C13429   2.603   4.289   6.833 -0.2252 -0.7041  0.2695
  860MOL0     C13430   2.485   4.359   6.903  0.2477 -0.6160 -0.6428
  860MOL0     C13431   2.391   4.418   6.796  0.6093  0.2781 -0.1395
  860MOL0    Cl13432   2.275   4.535   6.875 -0.1550  0.4588  0.0494
  860MOL0     C13433   3.350   4.506   6.845 -0.4987  0.1661  0.2193
  860MOL0     C13434   3.478   4.510   6.793 -0.6970 -0.0700  0.1940
  860MOL0     O13435   3.627   4.419   6.423 -0.5759 -0.3874  0.5325
  860MOL0     C13436   3.914   4.497   6.623  0.0574  0.0057 -0.8510
  860MOL0     C13437   4.050   4.526   6.614 -0.4225  0.0436  0.8765
  860MOL0     N13438   4.535   4.939   6.638  0.1943  0.8284  0.5825
  860MOL0     N13439   4.516   5.064   6.625  0.2704 -0.1804 -0.2442
  860MOL0     C13440   3.603   4.805   6.334  0.0960  0.0142 -0.1719
  860MOL0     C13441   3.516   4.780   6.441  0.1748 -0.4393  0.2686
  860MOL0     C13442   3.302   4.838   6.839  0.6505 -0.1739 -0.0010
  860MOL0     C13443   3.347   4.841   6.972 -0.3810  0.5159  0.1542
  860MOL0     C13444   3.257   4.811   7.071  0.2414  0.3698  0.2056
  860MOL0     C13445   3.123   4.781   7.045 -0.1971 -0.6200  1.0079
  860MOL0     O13446   3.026   4.780   7.142  0.0284  0.2237 -0.0310
  860MOL0     C13447   3.024   4.903   7.223  0.7546 -0.1502 -0.3623
  860MOL0     C13448   2.924   4.890   7.333  0.1578  0.5684 -0.4488
  860MOL0     C13449   2.875   5.023   7.388 -0.2267 -0.1741  0.0502
  860MOL0     C13450   2.990   5.105   7.458 -0.4603 -1.0192  0.3482
  860MOL0     C13451   2.951   5.194   7.564  0.1777  1.0429 -0.2066
  860MOL0     C13452   2.907   5.265   7.646  0.9687  0.1427  0.3795
  860MOL0     C13453   3.077   4.775   6.916 -0.1138  0.4693  0.2898
  860MOL0     C13454   3.169   4.798   6.811  0.5980  0.5016  1.2798
  860MOL0     H13455   3.393   5.098   6.472  0.8950  2.5263 -2.8868
  860MOL0     H13456   3.558   5.147   6.315 -4.3441 -0.1217 -0.4133
  860MOL0     H13457   3.776   4.798   6.098 -1.6171  2.2801 -2.0635
  860MOL0     H13458   3.868   4.841   6.255  0.9038  1.6288  0.0080
  860MOL0     H13459   3.908   4.982   5.987 -3.1458 -1.5347 -0.5847
  860MOL0     H13460   3.999   4.850   6.072  0.4377  0.9472  0.9581
  860MOL0     H13461   4.067   4.967   6.254 -1.1190 -2.0362 -0.1685
  860MOL0     H13462   3.940   5.088   6.248 -0.0111 -2.2903 -0.3715
  860MOL0     H13463   4.192   5.061   6.087  0.6852 -0.7773  0.5915
  860MOL0     H13464   4.070   5.184   6.040  0.4727 -0.6484 -0.5934
  860MOL0     H13465   4.082   5.268   6.292  0.6735 -0.4839 -0.2065
  860MOL0     H13466   4.211   5.300   6.175  0.1695 -1.9470 -4.0077
  860MOL0     H13467   4.335   5.110   6.239  1.2466  0.5561  0.2571
  860MOL0     H13468   4.228   5.061   6.363  1.7430 -0.4738  1.2893
  860MOL0     H13469   4.325   5.343   6.383  3.0261 -0.7558 -1.4226
  860MOL0     H13470   4.285   5.228   6.519  0.6752 -0.0560  0.4580
  860MOL0     H13471   4.531   5.288   6.509 -0.1636 -0.1371  0.3575
  860MOL0     H13472   4.529   5.225   6.342 -3.1183  0.1735 -1.2273
  860MOL0     H13473   4.539   4.967   6.308 -0.9846  1.8459 -0.0415
  860MOL0     H13474   4.525   4.698   6.570 -0.3542  3.4752  2.1681
  860MOL0     H13475   4.675   4.698   6.475 -0.9684 -1.9108  0.1614
  860MOL0     H13476   4.518   4.583   6.329 -1.1755 -0.1322 -1.6972
  860MOL0     H13477   4.561   4.730   6.257 -0.9856 -0.2723  0.3261
  860MOL0     H13478   4.345   4.818   6.287 -0.9191  0.8063  1.9795
  860MOL0     H13479   4.314   4.637   6.258  2.3384 -2.1865 -0.2449
  860MOL0     H13480   4.185   4.771   6.449 -0.1648 -0.4789 -2.2349
  860MOL0     H13481   4.325   4.759   6.537  1.1828 -0.8119  0.2546
  860MOL0     H13482   4.090   4.518   6.282 -0.4239  2.8012 -0.8316
  860MOL0     H13483   3.844   4.445   6.292  1.6792 -0.8136  0.6333
  860MOL0     H13484   3.419   4.286   6.536  3.2544 -1.9739  2.0134
  860MOL0     H13485   3.185   4.339   6.620 -1.4585  3.2576  0.5599
  860MOL0     H13486   3.135   4.474   7.031  0.7613 -0.1893  0.4919
  860MOL0     H13487   3.226   4.320   6.999 -0.3838  0.2981  0.9778
  860MOL0     H13488   3.023   4.271   7.119 -1.6804  1.8829 -0.2235
  860MOL0     H13489   3.021   4.198   6.956  1.4012  0.2239 -1.1299
  860MOL0     H13490   2.874   4.364   6.876 -0.0491 -2.1947  0.4746
  860MOL0     H13491   2.883   4.461   7.016  0.5753  0.9578 -1.9844
  860MOL0     H13492   2.804   4.200   7.109  2.5464  1.0041 -0.5782
  860MOL0     H13493   2.693   4.329   7.100 -0.0397  1.2201 -1.0681
  860MOL0     H13494   2.621   4.125   6.962  0.6610 -1.3547 -3.1284
  860MOL0     H13495   2.751   4.147   6.854  1.3700  0.6605  0.4139
  860MOL0     H13496   2.565   4.227   6.751 -2.6225  0.8247  0.1476
  860MOL0     H13497   2.671   4.359   6.782 -0.5467  0.1724  1.0279
  860MOL0     H13498   2.430   4.281   6.956 -1.3745  2.0425  1.8751
  860MOL0     H13499   2.518   4.435   6.975 -0.0007  0.6720 -1.8432
  860MOL0     H13500   2.333   4.344   6.739 -0.7584 -0.2835  1.8622
  860MOL0     H13501   2.445   4.470   6.717 -0.6226 -1.1106 -2.0102
  860MOL0     H13502   3.327   4.560   6.936 -1.9416 -0.7464  0.4197
  860MOL0     H13503   3.560   4.560   6.843  0.3983 -1.6488  0.0536
  860MOL0     H13504   3.873   4.492   6.724  1.8965  0.2506 -0.0524
  860MOL0     H13505   4.103   4.539   6.708 -2.7540  2.5150  1.9927
  860MOL0     H13506   3.659   4.723   6.290  3.5021  2.3054 -0.5031
  860MOL0     H13507   3.521   4.682   6.487 -0.5566 -1.4345 -1.6403
  860MOL0     H13508   3.451   4.858   6.999 -0.0879 -1.2789  0.2920
  860MOL0     H13509   3.295   4.813   7.173 -1.5864 -2.5013  1.0860
  860MOL0     H13510   2.990   4.984   7.159  1.7906  0.5381 -0.0676
  860MOL0     H13511   3.127   4.923   7.253  1.9971 -1.4149 -3.3220
  860MOL0     H13512   2.835   4.842   7.290 -0.1478  1.1851 -0.5295
  860MOL0     H13513   2.968   4.823   7.407  0.4598 -1.4728 -2.3766
  860MOL0     H13514   2.802   5.002   7.467  0.2867 -1.7103  0.1316
  860MOL0     H13515   2.833   5.082   7.305  1.2192  0.6643 -0.1233
  860MOL0     H13516   3.081   5.054   7.491  0.0552 -0.0917  0.3888
  860MOL0     H13517   3.033   5.154   7.370 -0.4489 -3.0508 -0.8408
  860MOL0     H13518   2.851   5.320   7.719  2.7489  1.5855  0.7281
  860MOL0     H13519   2.970   4.761   6.902  0.2843 -1.9744 -0.8964
  860MOL0     H13520   3.138   4.781   6.708 -0.1675  0.9532  1.4300
  861MOL0     O13521   3.532   2.495  11.025 -0.1429 -0.4439  0.3456
  861MOL0     C13522   3.557   2.543  10.912 -0.3176  0.0205 -0.4654
  861MOL0     O13523   3.464   2.614  10.839  0.1885 -0.3382  0.9024
  861MOL0     C13524   3.336   2.615  10.881 -0.0913 -0.3657 -1.1048
  861MOL0     C13525   3.265   2.500  10.850  0.3182  0.4346 -0.2073
  861MOL0     C13526   3.126   2.499  10.881  0.1709  0.0347 -0.5065
  861MOL0     C13527   3.071   2.615  10.953 -0.6025  0.0555 -0.3706
  861MOL0     O13528   2.953   2.624  11.019 -0.0607 -0.4762 -1.4987
  861MOL0     C13529   2.838   2.566  10.952  0.0407  0.0642  0.0173
  861MOL0     C13530   2.786   2.460  11.042 -0.0373  0.2975  0.0945
  861MOL0     C13531   2.668   2.383  10.971  0.2341 -0.2321  0.6563
  861MOL0     C13532   2.668   2.232  11.014 -0.0495 -0.1710  0.0546
  861MOL0     C13533   2.548   2.155  10.940  0.2904 -0.1167  0.2189
  861MOL0     C13534   2.419   2.196  11.003 -0.0528 -0.0519 -0.2292
  861MOL0     C13535   2.311   2.106  10.954 -0.4332  0.4305 -0.1842
  861MOL0     C13536   2.201   2.132  11.052  0.9095  0.9310 -0.4112
  861MOL0     N13537   2.094   2.054  10.996 -0.0190  0.3991 -0.4192
  861MOL0     C13538   1.991   2.101  10.921  0.3703  0.6013 -0.4941
  861MOL0     C13539   1.904   1.994  10.913  0.0057 -0.2966 -1.0250
  861MOL0     C13540   1.788   2.001  10.823 -0.0819 -1.1091 -0.3248
  861MOL0     C13541   1.699   2.124  10.858  0.2588  0.1609  0.2167
  861MOL0     C13542   1.556   2.090  10.840  1.0497  0.5534  0.5578
  861MOL0     C13543   1.511   2.040  10.695 -0.1087 -0.0617  0.5605
  861MOL0     O13544   1.429   1.924  10.699  0.0684  0.0747 -0.3975
  861MOL0     C13545   1.292   1.937  10.734  0.7053 -0.1518  1.3458
  861MOL0     C13546   1.208   1.823  10.727 -0.1488  0.5427 -0.5561
  861MOL0     C13547   1.067   1.823  10.766  0.6439 -1.2354 -0.5161
  861MOL0     C13548   1.005   1.936  10.815 -0.6976  0.7344  0.7125
  861MOL0     C13549   0.870   1.937  10.864  0.4391 -0.0372  0.0810
  861MOL0     O13550   0.821   2.063  10.899  0.0345 -0.4417  0.4028
  861MOL0     C13551   0.697   2.072  10.952  0.4247 -0.6128 -0.3496
  861MOL0     C13552   0.613   2.175  10.907  0.9221 -0.0060 -0.2681
  861MOL0     C13553   0.490   2.204  10.968  0.1778 -0.4955 -0.8669
  861MOL0     C13554   0.457   2.127  11.082  0.6077  0.2486  0.1236
  861MOL0     O13555   0.344   2.146  11.163  0.4839 -0.1697  0.2053
  861MOL0     C13556   0.267   2.274  11.159 -0.8759  0.6360  0.5297
  861MOL0     C13557   0.195   2.283  11.294  0.6629 -0.7381 -0.2843
  861MOL0     C13558   0.092   2.172  11.314  0.0577 -1.0564 -0.0753
  861MOL0     C13559  -0.033   2.192  11.225  0.9753  0.3947  0.7207
  861MOL0     C13560  -0.136   2.086  11.258 -0.2063 -0.4459  0.2889
  861MOL0     C13561  -0.250   2.073  11.154  0.6093  0.0635  0.0686
  861MOL0     C13562  -0.361   1.967  11.184 -0.2623  0.0932  0.2550
  861MOL0     C13563  -0.468   2.009  11.284 -0.5730  0.0433  0.2438
  861MOL0    Cl13564  -0.444   2.176  11.358  0.2234 -0.0318 -0.2621
  861MOL0     C13565   0.533   2.016  11.119 -0.1669  0.5869  0.8469
  861MOL0     C13566   0.662   1.997  11.066  0.1554  0.5335  0.1721
  861MOL0     O13567   0.808   1.834  10.882 -0.0918  0.4662  0.0223
  861MOL0     C13568   1.082   2.056  10.821 -1.5162  0.8390 -0.4037
  861MOL0     C13569   1.218   2.055  10.773 -0.1231 -0.0319 -1.1264
  861MOL0     N13570   1.944   1.894  10.993  0.2204  0.3622  0.2304
  861MOL0     N13571   2.059   1.927  11.041 -0.3652 -0.2348 -0.3357
  861MOL0     C13572   3.154   2.722  10.996 -0.2434  0.3694  0.8289
  861MOL0     C13573   3.292   2.716  10.962  1.1915  0.4501 -0.1857
  861MOL0     C13574   3.694   2.545  10.863 -0.6833 -0.3642  0.8460
  861MOL0     C13575   3.731   2.583  10.728  0.4911  0.3623  0.3137
  861MOL0     C13576   3.862   2.587  10.685 -0.2223 -0.0751 -0.1672
  861MOL0     C13577   3.961   2.547  10.776 -0.7562  0.5345 -0.1861
  861MOL0     O13578   4.091   2.543  10.732  0.0133  0.0092 -0.0668
  861MOL0     C13579   4.146   2.635  10.640  0.8193  0.0849  0.1645
  861MOL0     C13580   4.305   2.637  10.646 -0.5216  0.0547 -0.1766
  861MOL0     C13581   4.378   2.727  10.544 -0.3695 -0.0519  0.5776
  861MOL0     C13582   4.534   2.689  10.546 -0.3903  0.4888 -0.0068
  861MOL0     C13583   4.611   2.781  10.461 -0.0584  0.4655  0.4520
  861MOL0     C13584   4.673   2.866  10.398 -0.5573  0.6430  0.5307
  861MOL0     C13585   3.931   2.510  10.908  0.1313 -0.5993  0.0311
  861MOL0     C13586   3.801   2.518  10.950  0.9760 -0.5706 -0.2040
  861MOL0     H13587   3.309   2.418  10.795 -1.8653 -0.8037 -0.1941
  861MOL0     H13588   3.076   2.404  10.870 -1.6310  0.8546  0.2884
  861MOL0     H13589   2.862   2.525  10.853 -0.9534  0.7616 -0.5401
  861MOL0     H13590   2.767   2.646  10.928 -1.8560 -0.6749  2.7421
  861MOL0     H13591   2.747   2.511  11.131 -0.1365  1.0223 -0.3580
  861MOL0     H13592   2.865   2.386  11.058  1.6191  1.9988  0.0992
  861MOL0     H13593   2.670   2.392  10.862  1.9012 -2.2629  0.4632
  861MOL0     H13594   2.572   2.428  10.999  1.1886  2.2296  0.2590
  861MOL0     H13595   2.766   2.193  10.986  0.8312  1.4272  0.7888
  861MOL0     H13596   2.655   2.225  11.123 -3.1975 -1.8125 -0.3135
  861MOL0     H13597   2.567   2.048  10.953 -1.9614 -0.3557  2.5919
  861MOL0     H13598   2.539   2.183  10.835 -5.1788 -0.4679  0.2930
  861MOL0     H13599   2.391   2.297  10.974 -1.2996 -0.5874 -0.9824
  861MOL0     H13600   2.434   2.184  11.111 -1.6701 -1.3069 -0.0962
  861MOL0     H13601   2.283   2.130  10.851 -1.9194 -2.9863 -0.6757
  861MOL0     H13602   2.341   2.001  10.957  0.8849  0.8065  1.2124
  861MOL0     H13603   2.161   2.234  11.059  1.2808  1.0431  0.1324
  861MOL0     H13604   2.222   2.119  11.158  0.0757  2.7610  0.0192
  861MOL0     H13605   1.993   2.202  10.883 -3.9013  1.9859  2.2370
  861MOL0     H13606   1.726   1.912  10.833  2.3963 -2.8248  0.8714
  861MOL0     H13607   1.821   2.015  10.720  2.5178 -0.1149  0.5750
  861MOL0     H13608   1.721   2.213  10.798  0.1445  0.7342  1.0032
  861MOL0     H13609   1.705   2.149  10.965  0.1855 -0.6549  0.4153
  861MOL0     H13610   1.529   2.015  10.915  1.2027 -0.9245 -0.8037
  861MOL0     H13611   1.503   2.182  10.863  0.2714  0.4663 -0.7852
  861MOL0     H13612   1.588   2.012  10.622 -0.2775 -0.6741  0.6158
  861MOL0     H13613   1.462   2.124  10.644 -0.7276 -0.8047 -0.0892
  861MOL0     H13614   1.254   1.737  10.680  1.3763  0.9621  0.0940
  861MOL0     H13615   1.014   1.728  10.760  0.1528 -0.9025 -1.6664
  861MOL0     H13616   0.657   2.245  10.837  0.2123 -1.7230 -2.5457
  861MOL0     H13617   0.424   2.286  10.942 -0.4365 -0.5152  0.5303
  861MOL0     H13618   0.206   2.272  11.068  3.6645  0.4208 -2.8733
  861MOL0     H13619   0.337   2.358  11.156 -0.8046  0.6045  1.1007
  861MOL0     H13620   0.141   2.378  11.293 -3.0804 -2.6438  0.8465
  861MOL0     H13621   0.272   2.282  11.371  1.6267  0.2015 -1.2089
  861MOL0     H13622   0.066   2.164  11.420 -2.5088 -0.6086 -0.6103
  861MOL0     H13623   0.135   2.072  11.298  0.9515 -0.5474 -1.0081
  861MOL0     H13624  -0.091   2.283  11.245 -2.8742 -1.5323 -0.6164
  861MOL0     H13625  -0.011   2.199  11.118 -0.7699 -0.7360  0.2482
  861MOL0     H13626  -0.171   2.097  11.360 -3.0142  1.8379 -0.7905
  861MOL0     H13627  -0.085   1.989  11.261  0.4882 -0.1014 -0.0332
  861MOL0     H13628  -0.198   2.047  11.061 -2.0352  0.4975 -1.6667
  861MOL0     H13629  -0.308   2.165  11.144 -1.6697 -1.2586  0.2872
  861MOL0     H13630  -0.393   1.949  11.081  1.9313  1.4728 -0.7466
  861MOL0     H13631  -0.317   1.871  11.213 -3.0057 -1.7296 -1.2400
  861MOL0     H13632  -0.468   1.946  11.374  1.3398  1.4129  1.2847
  861MOL0     H13633  -0.563   2.003  11.230 -0.9779 -2.3009  1.1267
  861MOL0     H13634   0.502   1.944  11.194 -0.1805  1.5331  1.7715
  861MOL0     H13635   0.729   1.917  11.092  1.1303  0.4810 -2.2703
  861MOL0     H13636   1.031   2.138  10.871 -0.1824  0.8847  0.9551
  861MOL0     H13637   1.258   2.154  10.791  1.1135 -0.8976  1.4353
  861MOL0     H13638   3.116   2.790  11.072  0.6649  3.1425 -1.0395
  861MOL0     H13639   3.348   2.802  10.997  2.0870  0.3824 -1.3862
  861MOL0     H13640   3.651   2.625  10.667  0.4168  2.1893  1.5600
  861MOL0     H13641   3.882   2.600  10.579 -2.6056 -0.3249 -0.6977
  861MOL0     H13642   4.103   2.734  10.658  1.9307  0.5080  0.5726
  861MOL0     H13643   4.110   2.598  10.543 -0.9204  0.4756  0.6338
  861MOL0     H13644   4.321   2.675  10.747 -1.2417  2.6128 -0.9600
  861MOL0     H13645   4.340   2.533  10.637 -0.9825 -0.0350 -1.1544
  861MOL0     H13646   4.360   2.830  10.577 -1.0281  0.4333 -1.1602
  861MOL0     H13647   4.334   2.717  10.444 -1.0622  2.8531  0.5071
  861MOL0     H13648   4.570   2.685  10.649 -3.4075 -2.5616  1.1118
  861MOL0     H13649   4.543   2.590  10.501  0.5096  2.0986 -3.7808
  861MOL0     H13650   4.713   2.955  10.352  0.2457 -0.7800 -1.7249
  861MOL0     H13651   4.012   2.477  10.972  2.1177  1.5623 -1.2387
  861MOL0     H13652   3.778   2.508  11.055 -3.2404  3.7922 -0.3456
  862MOL0     O13653   2.253   2.606   6.601  0.0456  0.8335 -0.0006
  862MOL0     C13654   2.315   2.697   6.654  0.1473 -1.2037  0.8708
  862MOL0     O13655   2.271   2.780   6.750  0.9891  0.0722  0.3301
  862MOL0     C13656   2.142   2.760   6.801  0.0851 -0.2545  0.0559
  862MOL0     C13657   2.053   2.857   6.756 -1.0649  0.5469 -0.3759
  862MOL0     C13658   1.920   2.865   6.803 -1.6025 -0.4791 -0.8042
  862MOL0     C13659   1.878   2.761   6.886  0.4814 -0.4224  0.2483
  862MOL0     O13660   1.753   2.760   6.939 -0.4869  0.2116  0.4909
  862MOL0     C13661   1.664   2.871   6.955  0.2506  0.7084 -0.0956
  862MOL0     C13662   1.533   2.816   6.994  0.3940  0.4175  0.0875
  862MOL0     C13663   1.433   2.922   7.040 -0.1919 -0.0098  1.2168
  862MOL0     C13664   1.321   2.852   7.103  0.1736 -0.0660  0.1864
  862MOL0     C13665   1.198   2.942   7.109 -0.1931 -0.0755  1.0677
  862MOL0     C13666   1.085   2.889   7.202  0.0389 -0.2419  0.0430
  862MOL0     C13667   0.954   2.973   7.192  0.2746 -0.7237  0.7461
  862MOL0     C13668   0.835   2.880   7.172 -0.2693  0.2360 -0.8596
  862MOL0     N13669   0.811   2.791   7.281  0.1715 -0.7488  0.3216
  862MOL0     C13670   0.793   2.833   7.415 -0.3068  0.0423  0.3757
  862MOL0     C13671   0.738   2.733   7.479 -0.0086  0.3627  0.4333
  862MOL0     C13672   0.676   2.739   7.619  0.5034 -0.8021  0.8972
  862MOL0     C13673   0.681   2.611   7.714 -0.2983 -0.0780 -0.5950
  862MOL0     C13674   0.571   2.625   7.812 -0.1447  0.1623 -0.1080
  862MOL0     C13675   0.433   2.572   7.759  0.4582 -0.0995 -1.1035
  862MOL0     O13676   0.360   2.548   7.875 -0.2029 -0.0587  0.0041
  862MOL0     C13677   0.246   2.476   7.853  0.0792 -0.0533 -1.3912
  862MOL0     C13678   0.191   2.437   7.725 -0.2065  0.9018 -0.3096
  862MOL0     C13679   0.080   2.356   7.708  0.2963 -0.0517 -0.1336
  862MOL0     C13680   0.026   2.311   7.832  0.3472 -0.2906 -0.9314
  862MOL0     C13681  -0.093   2.225   7.840 -0.4515  0.3910 -0.3924
  862MOL0     O13682  -0.133   2.178   7.966 -0.1049 -0.6230 -0.2919
  862MOL0     C13683  -0.270   2.151   7.991 -0.1890 -0.1163  0.3523
  862MOL0     C13684  -0.310   2.019   8.023 -0.9405 -1.1009  1.0059
  862MOL0     C13685  -0.446   1.994   8.034 -0.5425  0.0938  0.3950
  862MOL0     C13686  -0.540   2.102   8.018  0.4009 -0.2138  0.1255
  862MOL0     O13687  -0.673   2.058   8.045 -0.7643 -0.3760  0.1145
  862MOL0     C13688  -0.782   2.146   8.045 -1.1824 -0.3738  0.7410
  862MOL0     C13689  -0.912   2.086   8.078  0.2710  0.2331 -0.0648
  862MOL0     C13690  -0.923   2.044   8.219 -0.2022 -0.3073  0.8854
  862MOL0     C13691  -1.070   2.014   8.243 -0.4053 -0.1913 -0.2246
  862MOL0     C13692  -1.102   1.966   8.379  0.0113  0.2075 -0.1522
  862MOL0     C13693  -1.247   1.934   8.400  0.5762  0.2879  0.0608
  862MOL0     C13694  -1.274   1.861   8.531 -0.3074  0.0398 -0.0352
  862MOL0     C13695  -1.419   1.866   8.585  0.3227  0.1234 -1.0923
  862MOL0    Cl13696  -1.531   1.819   8.455  0.0732 -0.3547  0.0724
  862MOL0     C13697  -0.494   2.237   8.024 -0.4020 -0.3239 -1.0941
  862MOL0     C13698  -0.359   2.257   8.009  1.1078 -0.4514  1.0614
  862MOL0     O13699  -0.143   2.195   7.735  0.1113  0.0004  0.5455
  862MOL0     C13700   0.071   2.359   7.954 -1.2371 -0.9315 -0.4379
  862MOL0     C13701   0.186   2.430   7.965  0.4142  0.0364  0.2779
  862MOL0     N13702   0.731   2.623   7.390 -0.1364 -0.6570  0.2302
  862MOL0     N13703   0.770   2.661   7.270 -0.0708 -0.0387 -0.1271
  862MOL0     C13704   1.958   2.655   6.927 -0.5182  1.0768  0.3783
  862MOL0     C13705   2.098   2.655   6.887  0.4716 -0.2893  0.2527
  862MOL0     C13706   2.460   2.718   6.610  0.2150 -0.9831  0.8403
  862MOL0     C13707   2.550   2.804   6.685  0.8061  0.1899 -0.0588
  862MOL0     C13708   2.687   2.816   6.651  0.3805 -0.5558 -0.2275
  862MOL0     C13709   2.728   2.770   6.529  0.8180 -0.3098 -0.0408
  862MOL0     O13710   2.850   2.783   6.473 -0.6784 -0.6162 -0.5423
  862MOL0     C13711   2.959   2.791   6.567  1.0824 -0.5862 -0.3464
  862MOL0     C13712   3.077   2.793   6.477 -0.2316  0.5252  0.4796
  862MOL0     C13713   3.090   2.903   6.373 -0.7558 -0.8203 -0.5732
  862MOL0     C13714   3.234   2.884   6.319  0.7736  1.0279  0.6111
  862MOL0     C13715   3.240   2.989   6.217 -0.7933 -0.0326 -0.1131
  862MOL0     C13716   3.227   3.068   6.127  0.6055  0.0256 -0.0890
  862MOL0     C13717   2.635   2.705   6.442 -0.0701  0.5982 -0.4971
  862MOL0     C13718   2.502   2.675   6.477  0.0634 -0.4157  0.1699
  862MOL0     H13719   2.087   2.935   6.689 -0.2014 -0.6399 -1.3659
  862MOL0     H13720   1.869   2.959   6.786 -1.0042 -0.0005 -0.0193
  862MOL0     H13721   1.662   2.917   6.856 -0.3743 -0.0393 -0.4422
  862MOL0     H13722   1.713   2.944   7.020  3.3400 -0.3834 -0.9951
  862MOL0     H13723   1.548   2.761   7.087 -2.5635 -2.8521 -1.1669
  862MOL0     H13724   1.496   2.745   6.920 -0.3376 -0.5434  1.3219
  862MOL0     H13725   1.402   2.989   6.959  2.4382 -0.4737 -0.3296
  862MOL0     H13726   1.484   2.987   7.112 -0.3065  1.4719  0.0333
  862MOL0     H13727   1.292   2.770   7.037  2.4191  1.1012 -2.4875
  862MOL0     H13728   1.345   2.811   7.202 -1.0328  0.2226  0.6108
  862MOL0     H13729   1.157   2.955   7.008 -3.6253  4.0605  2.6759
  862MOL0     H13730   1.219   3.045   7.139  5.3866 -0.9560  1.2805
  862MOL0     H13731   1.113   2.889   7.308 -0.0539  0.6392  0.0748
  862MOL0     H13732   1.062   2.784   7.179 -0.3312  0.2367 -1.9716
  862MOL0     H13733   0.945   3.027   7.287 -1.0889  0.1503  0.1485
  862MOL0     H13734   0.941   3.052   7.117 -0.3759  0.7965  2.3792
  862MOL0     H13735   0.848   2.818   7.083  0.5844  2.5390 -2.4149
  862MOL0     H13736   0.753   2.952   7.169  0.8159  1.5886  0.5547
  862MOL0     H13737   0.823   2.931   7.451 -0.4812  1.0617 -2.0440
  862MOL0     H13738   0.570   2.751   7.597 -0.2864 -2.9284  3.1499
  862MOL0     H13739   0.710   2.827   7.673  1.3819 -0.2275 -0.5240
  862MOL0     H13740   0.775   2.617   7.771 -1.0275  2.1078  0.4860
  862MOL0     H13741   0.672   2.516   7.660  0.8863 -1.1400  0.9565
  862MOL0     H13742   0.603   2.567   7.898 -1.0725  2.3312  1.8178
  862MOL0     H13743   0.567   2.732   7.836  1.4827 -0.2180  2.2075
  862MOL0     H13744   0.466   2.482   7.707  4.5088  0.9111 -0.6532
  862MOL0     H13745   0.378   2.640   7.694 -2.0750  0.7246  1.6948
  862MOL0     H13746   0.244   2.468   7.636  2.5968 -0.2903  0.8353
  862MOL0     H13747   0.038   2.326   7.613 -1.2115  1.5516 -0.0484
  862MOL0     H13748  -0.234   1.942   8.030  0.1849 -0.3081 -1.4115
  862MOL0     H13749  -0.481   1.894   8.057 -0.8350  0.2544  0.6584
  862MOL0     H13750  -0.786   2.207   7.955 -0.3603  0.7956  1.4724
  862MOL0     H13751  -0.758   2.220   8.122 -1.1381  1.6299 -1.1223
  862MOL0     H13752  -0.927   2.003   8.008  2.2350 -1.4300  1.3514
  862MOL0     H13753  -0.980   2.169   8.054  0.1324  0.4222  0.9295
  862MOL0     H13754  -0.890   2.125   8.286 -0.7335  1.0397 -0.4270
  862MOL0     H13755  -0.864   1.954   8.238 -2.2079 -2.3102 -1.6291
  862MOL0     H13756  -1.124   2.109   8.230 -0.2233 -0.1944 -1.1200
  862MOL0     H13757  -1.106   1.932   8.180  0.6142 -0.9309  0.1247
  862MOL0     H13758  -1.069   2.046   8.446 -0.3181  1.1293 -1.0552
  862MOL0     H13759  -1.057   1.869   8.403 -2.5774 -1.4430 -1.5091
  862MOL0     H13760  -1.284   1.869   8.320  0.9337  0.7241 -0.4655
  862MOL0     H13761  -1.313   2.021   8.399 -0.4024 -0.4193  0.4879
  862MOL0     H13762  -1.243   1.756   8.520  1.7203  0.4851  0.9786
  862MOL0     H13763  -1.203   1.895   8.606 -1.0036  1.6906 -0.0962
  862MOL0     H13764  -1.446   1.961   8.632  0.8262 -0.4389  0.3877
  862MOL0     H13765  -1.423   1.789   8.663  0.9806 -3.6133 -4.4346
  862MOL0     H13766  -0.573   2.311   8.019 -3.4082 -3.1649  0.2452
  862MOL0     H13767  -0.334   2.359   7.980 -0.8417  0.0781  1.1414
  862MOL0     H13768   0.033   2.314   8.045 -1.5977  0.0989 -0.0567
  862MOL0     H13769   0.228   2.455   8.061  0.5580 -2.8453  1.0701
  862MOL0     H13770   1.925   2.574   6.991  2.4684 -1.2394 -0.7172
  862MOL0     H13771   2.173   2.582   6.913  1.4463  0.4295 -0.4522
  862MOL0     H13772   2.505   2.842   6.776  2.7527  2.5582  0.0026
  862MOL0     H13773   2.754   2.868   6.718 -0.0934  1.4419 -1.2156
  862MOL0     H13774   2.958   2.714   6.644 -1.6493 -2.4455 -2.0605
  862MOL0     H13775   2.939   2.889   6.611 -1.4521 -0.7143 -1.0149
  862MOL0     H13776   3.157   2.809   6.550  0.4546  3.2045 -0.7385
  862MOL0     H13777   3.082   2.692   6.438  1.8359  0.3942  0.9753
  862MOL0     H13778   3.090   3.003   6.418  1.1945 -1.5977  1.2714
  862MOL0     H13779   2.999   2.902   6.312 -1.9635  1.2575  1.0563
  862MOL0     H13780   3.310   2.901   6.396  1.2111  4.5381 -0.4155
  862MOL0     H13781   3.240   2.782   6.279  1.7095  1.3557 -0.1271
  862MOL0     H13782   3.202   3.148   6.060 -1.8980  0.2951  1.0678
  862MOL0     H13783   2.670   2.675   6.344  0.5517  3.9990 -1.4373
  862MOL0     H13784   2.441   2.613   6.412  0.8748 -0.4369 -0.6042
  863MOL0     O13785   7.001   5.233   8.137 -0.2695  0.2274  0.8270
  863MOL0     C13786   6.984   5.220   8.252  0.5307 -0.1314 -0.7651
  863MOL0     O13787   6.867   5.245   8.326 -0.2632 -0.3531  0.6166
  863MOL0     C13788   6.757   5.290   8.264 -0.0083 -0.5148  0.7600
  863MOL0     C13789   6.762   5.415   8.205 -0.3626  0.1339 -1.1240
  863MOL0     C13790   6.644   5.474   8.151 -0.2227 -0.1930  0.0872
  863MOL0     C13791   6.525   5.403   8.150 -0.0725  0.1438 -0.7558
  863MOL0     O13792   6.416   5.465   8.093  0.6557 -0.3303 -0.4128
  863MOL0     C13793   6.298   5.377   8.061 -0.3468  0.2620  0.6020
  863MOL0     C13794   6.211   5.468   7.983  0.5922 -0.3018 -0.2939
  863MOL0     C13795   6.067   5.412   7.974  0.3368 -0.4842 -0.0178
  863MOL0     C13796   5.977   5.529   7.927  1.0293  0.4983 -0.3088
  863MOL0     C13797   5.840   5.463   7.891  0.1744  0.2596  0.2371
  863MOL0     C13798   5.756   5.553   7.804  0.7747 -0.4537  0.0178
  863MOL0     C13799   5.608   5.513   7.812 -0.3027 -0.5375 -1.3881
  863MOL0     C13800   5.593   5.389   7.727  0.2399 -0.2308  0.6540
  863MOL0     N13801   5.454   5.347   7.752 -0.9567  0.0718 -0.4250
  863MOL0     C13802   5.349   5.425   7.724 -0.0619 -0.2953 -0.9369
  863MOL0     C13803   5.248   5.364   7.784  0.2631 -0.0768  0.4659
  863MOL0     C13804   5.111   5.404   7.785 -0.4100  0.1181 -0.1132
  863MOL0     C13805   5.007   5.313   7.855  0.7728 -0.0739  0.0628
  863MOL0     C13806   4.863   5.364   7.866 -0.6171  0.1340  0.0253
  863MOL0     C13807   4.784   5.297   7.977 -0.0981  0.9034 -0.2450
  863MOL0     O13808   4.781   5.152   7.952  0.2832  0.1563 -0.4664
  863MOL0     C13809   4.692   5.067   8.015 -0.1915 -0.2784  0.0647
  863MOL0     C13810   4.618   5.073   8.132  0.3531 -0.5668  0.5328
  863MOL0     C13811   4.532   4.962   8.171 -0.4153 -0.8957  0.1842
  863MOL0     C13812   4.522   4.842   8.101  0.5241 -0.3699  0.3810
  863MOL0     C13813   4.416   4.746   8.127 -0.9986  0.4498  0.4388
  863MOL0     O13814   4.353   4.755   8.243 -0.2246 -0.6073 -0.2000
  863MOL0     C13815   4.227   4.698   8.247  0.3283 -0.2412  0.2655
  863MOL0     C13816   4.218   4.562   8.257 -0.0901  0.4446 -0.4742
  863MOL0     C13817   4.101   4.492   8.246  0.5332 -0.8632 -0.4627
  863MOL0     C13818   3.982   4.571   8.247 -0.1779 -0.6173 -0.8671
  863MOL0     O13819   3.862   4.503   8.279 -0.7176 -0.1400  0.2294
  863MOL0     C13820   3.846   4.386   8.208  0.4794 -0.2972 -1.1848
  863MOL0     C13821   3.697   4.363   8.203 -0.5468 -0.3096 -0.0827
  863MOL0     C13822   3.665   4.238   8.113  0.8022  0.7241  0.0011
  863MOL0     C13823   3.520   4.226   8.074  0.8242 -0.9829 -0.3573
  863MOL0     C13824   3.428   4.200   8.185 -0.3809  0.5365 -0.9292
  863MOL0     C13825   3.280   4.181   8.144 -0.2615  0.4863 -0.2738
  863MOL0     C13826   3.186   4.141   8.260  0.0616 -0.2443 -0.1738
  863MOL0     C13827   3.041   4.167   8.229 -0.3418 -0.0887  0.1514
  863MOL0    Cl13828   2.988   4.058   8.092  0.1271  0.0843 -0.0031
  863MOL0     C13829   3.990   4.714   8.242 -0.0063 -0.0610 -0.3199
  863MOL0     C13830   4.117   4.779   8.235  0.0305  0.5051 -0.1838
  863MOL0     O13831   4.390   4.669   8.033  0.3940  0.5673  0.1832
  863MOL0     C13832   4.606   4.837   7.986  0.9103 -1.2371 -0.1587
  863MOL0     C13833   4.684   4.944   7.949 -0.6114 -0.3296 -0.5592
  863MOL0     N13834   5.287   5.236   7.832 -0.2093 -1.0645 -0.7329
  863MOL0     N13835   5.420   5.243   7.830 -0.5691  0.0624  0.2111
  863MOL0     C13836   6.520   5.279   8.211 -0.4246 -0.3291  0.6635
  863MOL0     C13837   6.639   5.228   8.275  0.3910  0.3873  0.4992
  863MOL0     C13838   7.098   5.169   8.329  0.1759  1.0880 -0.1939
  863MOL0     C13839   7.090   5.122   8.462 -0.0905  0.1238 -0.3046
  863MOL0     C13840   7.192   5.043   8.526 -0.2385  0.4721  0.3031
  863MOL0     C13841   7.311   5.015   8.453 -0.0991 -0.8795  0.1700
  863MOL0     O13842   7.422   4.942   8.505  0.4386  0.0587  0.2346
  863MOL0     C13843   7.415   4.911   8.646 -0.2994  0.3266  0.2885
  863MOL0     C13844   7.459   5.026   8.737 -0.5906  1.5546 -0.3076
  863MOL0     C13845   7.407   4.991   8.884 -0.0650  0.9650 -0.4199
  863MOL0     C13846   7.469   5.079   8.988  1.0710 -0.7430 -0.1242
  863MOL0     C13847   7.472   5.016   9.127 -0.5767 -0.3735 -0.2769
  863MOL0     C13848   7.456   4.961   9.227 -0.0316  0.0671  0.2798
  863MOL0     C13849   7.323   5.065   8.320 -0.2885  0.8704  0.1170
  863MOL0     C13850   7.219   5.147   8.269  0.7035 -0.5311  0.7757
  863MOL0     H13851   6.851   5.476   8.189  1.8056 -2.4481  0.2725
  863MOL0     H13852   6.647   5.574   8.109  0.8191 -1.3857 -2.9441
  863MOL0     H13853   6.258   5.337   8.155  2.9742 -2.0851  1.2221
  863MOL0     H13854   6.328   5.279   8.023 -1.0145 -0.7013  2.4106
  863MOL0     H13855   6.253   5.474   7.882  1.7628 -0.3348  0.1772
  863MOL0     H13856   6.210   5.568   8.026  2.1420 -0.6175  0.5557
  863MOL0     H13857   6.039   5.385   8.076 -1.0646 -0.5293 -0.3876
  863MOL0     H13858   6.067   5.318   7.917 -0.3073 -0.7345  0.3744
  863MOL0     H13859   5.970   5.602   8.007  3.4833  0.4476  0.0308
  863MOL0     H13860   6.013   5.585   7.840  0.3971 -0.4939 -1.2275
  863MOL0     H13861   5.792   5.436   7.985  1.6661 -0.8710  0.7034
  863MOL0     H13862   5.866   5.377   7.828 -1.9136  0.7772 -1.4484
  863MOL0     H13863   5.784   5.564   7.698 -3.2644 -0.1350 -1.1956
  863MOL0     H13864   5.760   5.655   7.844  0.3133 -0.7000  0.7015
  863MOL0     H13865   5.584   5.489   7.916  0.9592 -2.0123 -1.3855
  863MOL0     H13866   5.543   5.591   7.772 -1.3798 -0.1683  0.9382
  863MOL0     H13867   5.663   5.311   7.758  0.8157  0.2328  0.5400
  863MOL0     H13868   5.608   5.409   7.620 -0.8145  3.2518  1.0203
  863MOL0     H13869   5.344   5.513   7.661 -0.4589 -0.9590 -1.8519
  863MOL0     H13870   5.080   5.426   7.682  0.2759 -1.4295 -0.6714
  863MOL0     H13871   5.111   5.501   7.836  1.2195  0.7223 -1.1865
  863MOL0     H13872   5.048   5.285   7.953 -0.3583  0.5746  0.7439
  863MOL0     H13873   5.016   5.223   7.793  2.9439  2.1065 -3.1242
  863MOL0     H13874   4.860   5.469   7.897  2.2433  0.6312 -1.0647
  863MOL0     H13875   4.816   5.349   7.768  2.1773 -1.2189 -1.2228
  863MOL0     H13876   4.686   5.344   7.986  0.6463  2.4423  0.1270
  863MOL0     H13877   4.835   5.322   8.070  0.5161  1.2171 -0.6599
  863MOL0     H13878   4.630   5.152   8.205  2.5270 -0.8662  0.5747
  863MOL0     H13879   4.480   4.969   8.266  0.6316 -2.7524  0.9501
  863MOL0     H13880   4.310   4.509   8.277  0.8593  1.4335 -2.0303
  863MOL0     H13881   4.109   4.384   8.253 -0.3511 -0.8634  0.9351
  863MOL0     H13882   3.889   4.306   8.269 -0.0204 -0.9821 -1.7275
  863MOL0     H13883   3.889   4.385   8.107 -2.9559  0.7400 -2.7968
  863MOL0     H13884   3.642   4.448   8.161 -0.5533  0.1843  0.9053
  863MOL0     H13885   3.657   4.333   8.300 -3.0654 -0.8027 -1.1933
  863MOL0     H13886   3.697   4.140   8.149  1.1738  1.1979  1.0154
  863MOL0     H13887   3.728   4.246   8.024 -0.3323  2.0023 -0.7381
  863MOL0     H13888   3.481   4.320   8.033 -1.6701 -1.6326  0.3507
  863MOL0     H13889   3.510   4.148   7.997 -2.3833 -0.2548 -0.8346
  863MOL0     H13890   3.442   4.278   8.260 -1.2142  1.0128 -1.2553
  863MOL0     H13891   3.460   4.106   8.232  1.1641  1.4353 -0.1040
  863MOL0     H13892   3.264   4.104   8.068 -0.0617 -0.3019  0.4630
  863MOL0     H13893   3.238   4.275   8.108  1.2407  1.0920 -0.4952
  863MOL0     H13894   3.188   4.032   8.270 -0.1393 -0.2525 -0.2051
  863MOL0     H13895   3.224   4.184   8.353  1.9384  1.7329 -1.7560
  863MOL0     H13896   3.015   4.268   8.197  1.6857  0.3127 -0.4079
  863MOL0     H13897   2.984   4.135   8.316 -1.3375  2.8947  0.6840
  863MOL0     H13898   3.898   4.771   8.233 -0.4149 -0.5774  0.4335
  863MOL0     H13899   4.130   4.887   8.229  0.0520  0.5802  1.0120
  863MOL0     H13900   4.590   4.763   7.909 -1.3806 -1.6530  0.6285
  863MOL0     H13901   4.741   4.941   7.857  1.6307  1.7368  0.6553
  863MOL0     H13902   6.425   5.228   8.208 -1.2417  1.1160 -1.5768
  863MOL0     H13903   6.641   5.142   8.342  1.5224  0.5313  0.6775
  863MOL0     H13904   7.003   5.150   8.520  0.6085 -0.1579  0.9168
  863MOL0     H13905   7.171   5.017   8.629 -5.3959  0.7104 -0.4186
  863MOL0     H13906   7.483   4.826   8.659  1.1282  1.4189  0.2016
  863MOL0     H13907   7.316   4.872   8.672 -1.2005  2.0528 -0.3346
  863MOL0     H13908   7.568   5.029   8.725 -0.7408 -0.6447 -3.0885
  863MOL0     H13909   7.421   5.123   8.703  0.6891  3.3849  2.9452
  863MOL0     H13910   7.457   4.895   8.903 -2.2117 -0.3175 -0.8982
  863MOL0     H13911   7.298   4.980   8.883 -0.1997  0.9408 -4.6084
  863MOL0     H13912   7.571   5.111   8.965  1.1344  0.3209  1.5011
  863MOL0     H13913   7.408   5.169   8.982  1.2846 -0.5381  0.6364
  863MOL0     H13914   7.441   4.901   9.315 -1.7094  0.8114  0.5431
  863MOL0     H13915   7.408   5.041   8.257 -1.4286 -0.7026 -0.8923
  863MOL0     H13916   7.238   5.184   8.169 -0.2687 -3.9695 -0.8275
  864MOL0     O13917  10.833   6.445   8.987 -0.3553  0.1960 -0.1539
  864MOL0     C13918  10.842   6.495   8.873 -1.0141 -0.1097  0.5079
  864MOL0     O13919  10.745   6.559   8.803 -0.4347  0.0451 -0.1034
  864MOL0     C13920  10.613   6.571   8.858  0.4541 -0.5478 -0.4820
  864MOL0     C13921  10.547   6.474   8.934 -0.6366  0.7810  0.3979
  864MOL0     C13922  10.422   6.487   8.972 -0.5358  0.8310 -0.4282
  864MOL0     C13923  10.349   6.595   8.935 -0.4198 -1.9171  1.3258
  864MOL0     O13924  10.223   6.612   8.981  0.0659  0.2625  0.8022
  864MOL0     C13925  10.113   6.637   8.890 -0.0331  0.5212  0.1476
  864MOL0     C13926  10.075   6.785   8.913  0.6506 -0.2978 -0.2195
  864MOL0     C13927   9.995   6.836   8.797 -0.5572 -0.0981  0.5062
  864MOL0     C13928   9.937   6.976   8.827  0.2611 -0.0572 -0.6435
  864MOL0     C13929   9.867   7.026   8.698 -0.2838  0.0271 -0.4944
  864MOL0     C13930   9.757   7.130   8.710 -0.0177 -0.1015  0.7548
  864MOL0     C13931   9.627   7.099   8.800 -0.9220 -0.4816  0.4472
  864MOL0     C13932   9.528   7.221   8.812  0.0698  0.2122 -0.0337
  864MOL0     N13933   9.421   7.218   8.723 -0.7527  0.3771  0.4954
  864MOL0     C13934   9.324   7.127   8.718  0.7597  0.5837  0.7535
  864MOL0     C13935   9.234   7.166   8.634  0.0019  0.2664 -0.2517
  864MOL0     C13936   9.103   7.096   8.623  0.6948 -0.7912 -0.3754
  864MOL0     C13937   8.988   7.194   8.590  0.6693  0.1004  0.7965
  864MOL0     C13938   8.869   7.111   8.544  0.0720  0.3108  0.6162
  864MOL0     C13939   8.742   7.196   8.574  0.0024  0.2833  0.5471
  864MOL0     O13940   8.623   7.117   8.537  0.5444  0.0402  0.1583
  864MOL0     C13941   8.497   7.166   8.554  0.7170  0.4881  0.5805
  864MOL0     C13942   8.401   7.110   8.466  0.1291 -0.3652  0.3821
  864MOL0     C13943   8.265   7.147   8.465  1.0790 -0.8380  0.0404
  864MOL0     C13944   8.231   7.240   8.563 -0.5187  0.4739 -0.3870
  864MOL0     C13945   8.097   7.305   8.553  0.8441  0.3938  0.9476
  864MOL0     O13946   8.017   7.269   8.453 -0.1259 -0.1800  0.4115
  864MOL0     C13947   7.883   7.297   8.446  0.1925 -0.1775  0.4948
  864MOL0     C13948   7.826   7.346   8.324 -0.4303 -1.2567  0.5320
  864MOL0     C13949   7.694   7.379   8.329  0.3678 -0.2321 -0.0374
  864MOL0     C13950   7.616   7.349   8.442 -0.1899 -0.1311 -1.0090
  864MOL0     O13951   7.481   7.353   8.438  0.2764  0.1026 -0.5001
  864MOL0     C13952   7.419   7.229   8.406 -0.3899 -0.4008  0.1893
  864MOL0     C13953   7.265   7.243   8.413 -0.0929  0.0703  0.7384
  864MOL0     C13954   7.197   7.336   8.308 -0.6059  0.0454 -0.0538
  864MOL0     C13955   7.053   7.354   8.339  0.0593 -0.3082  0.1479
  864MOL0     C13956   6.983   7.429   8.228  0.0719 -0.2703 -0.1445
  864MOL0     C13957   6.843   7.480   8.261  0.2024  0.7392 -0.1179
  864MOL0     C13958   6.786   7.529   8.125  0.0282  0.3687 -0.1582
  864MOL0     C13959   6.645   7.575   8.146  0.5761  0.7329  0.9819
  864MOL0    Cl13960   6.572   7.665   8.009  0.3866 -0.0836 -0.2004
  864MOL0     C13961   7.671   7.294   8.554 -0.0149  0.3180 -0.2754
  864MOL0     C13962   7.807   7.265   8.556 -0.1014  0.5252  1.2079
  864MOL0     O13963   8.073   7.391   8.629  0.3832 -0.9847  0.3455
  864MOL0     C13964   8.326   7.285   8.655 -0.0731 -0.3064 -0.4329
  864MOL0     C13965   8.459   7.258   8.648 -0.9079 -0.0796 -0.3247
  864MOL0     N13966   9.280   7.288   8.582  0.1107  0.9583 -0.5451
  864MOL0     N13967   9.396   7.321   8.644  0.1059  0.5038  0.6595
  864MOL0     C13968  10.408   6.696   8.855  1.3929  0.9890 -0.8491
  864MOL0     C13969  10.542   6.683   8.824  0.3608 -0.1313 -0.5609
  864MOL0     C13970  10.974   6.476   8.813 -0.1888 -0.1012 -0.0594
  864MOL0     C13971  11.010   6.556   8.702 -0.5567  1.2913  0.3933
  864MOL0     C13972  11.130   6.520   8.635 -0.1864  0.6736  0.1883
  864MOL0     C13973  11.215   6.416   8.680  0.4102 -0.2328 -0.1165
  864MOL0     O13974  11.330   6.388   8.604 -0.0970 -1.1459  0.0984
  864MOL0     C13975  11.436   6.307   8.644  0.7645 -1.1216 -0.3994
  864MOL0     C13976  11.548   6.302   8.538  1.1800  0.3152 -0.1624
  864MOL0     C13977  11.657   6.207   8.580  0.5376  0.0022  0.1372
  864MOL0     C13978  11.790   6.240   8.522  0.0670 -0.0026  0.3144
  864MOL0     C13979  11.901   6.179   8.593 -0.0735  0.0574 -0.7473
  864MOL0     C13980  11.987   6.130   8.657  0.1835 -0.3678 -0.2902
  864MOL0     C13981  11.187   6.350   8.802 -0.5176 -1.1133 -0.3821
  864MOL0     C13982  11.067   6.377   8.864  0.2697 -0.4828  0.5094
  864MOL0     H13983  10.585   6.374   8.957 -2.9544  0.2035  2.0489
  864MOL0     H13984  10.383   6.403   9.028  0.4631  0.6338 -0.0186
  864MOL0     H13985  10.029   6.570   8.908  1.1445 -1.8121 -2.2607
  864MOL0     H13986  10.120   6.630   8.781 -2.4447  0.5572 -0.0670
  864MOL0     H13987  10.165   6.845   8.926  0.3088  0.2272 -0.2617
  864MOL0     H13988  10.020   6.790   9.008 -3.7609 -1.1685 -2.4771
  864MOL0     H13989   9.911   6.771   8.769 -1.5738 -0.4324  3.8447
  864MOL0     H13990  10.065   6.846   8.714  1.4390  0.8549  2.2093
  864MOL0     H13991   9.867   6.962   8.910  1.4735 -1.3956  0.2036
  864MOL0     H13992  10.020   7.042   8.857 -0.3064  0.2991  0.1739
  864MOL0     H13993   9.839   6.938   8.640 -1.0206  0.7840 -1.3108
  864MOL0     H13994   9.946   7.073   8.640  1.7417  1.6768  3.2282
  864MOL0     H13995   9.725   7.156   8.608  0.9178 -1.4095  0.0912
  864MOL0     H13996   9.807   7.217   8.753  1.0177 -0.0832 -0.4301
  864MOL0     H13997   9.568   7.020   8.751 -1.3745 -0.2245  0.5689
  864MOL0     H13998   9.661   7.064   8.897  0.9965  0.8355  0.3009
  864MOL0     H13999   9.575   7.320   8.805 -1.7532  1.0963 -0.4545
  864MOL0     H14000   9.486   7.216   8.913 -2.8344 -0.4503 -1.1865
  864MOL0     H14001   9.317   7.040   8.783  1.6412  0.0864  0.2021
  864MOL0     H14002   9.095   7.056   8.724 -0.0898  1.6123  0.5822
  864MOL0     H14003   9.113   7.017   8.548  2.6241 -0.3547 -0.6400
  864MOL0     H14004   9.005   7.266   8.510 -2.8168 -0.7173 -0.8430
  864MOL0     H14005   8.969   7.260   8.675  0.7726  2.2163 -0.7525
  864MOL0     H14006   8.889   7.089   8.439  2.4011 -0.4517  1.1664
  864MOL0     H14007   8.867   7.018   8.602  0.3090 -1.1192 -1.5452
  864MOL0     H14008   8.728   7.283   8.509  3.7555 -0.2518 -1.2064
  864MOL0     H14009   8.734   7.228   8.678 -0.5312  0.5933  0.4197
  864MOL0     H14010   8.436   7.040   8.391  1.7958 -0.5916  1.3077
  864MOL0     H14011   8.188   7.110   8.398 -0.0532 -0.1210  0.9151
  864MOL0     H14012   7.875   7.351   8.227  0.1030  0.7833  0.8714
  864MOL0     H14013   7.651   7.435   8.246 -0.4492 -0.9805 -0.1384
  864MOL0     H14014   7.449   7.151   8.477  0.9301  0.4889  0.6400
  864MOL0     H14015   7.446   7.213   8.301  2.0275  0.7687  0.5603
  864MOL0     H14016   7.240   7.288   8.509 -3.2351 -0.6827  0.3735
  864MOL0     H14017   7.221   7.143   8.414 -2.9235  1.2041 -0.6241
  864MOL0     H14018   7.216   7.307   8.204 -2.8565 -3.1363  0.2819
  864MOL0     H14019   7.246   7.434   8.317  3.3550 -1.4945 -2.1655
  864MOL0     H14020   7.000   7.259   8.346 -1.0646  0.1401 -1.7012
  864MOL0     H14021   7.039   7.398   8.438  1.2302  1.6725 -0.5094
  864MOL0     H14022   6.977   7.353   8.150  0.4457 -2.4230  1.8267
  864MOL0     H14023   7.041   7.518   8.202  0.5916  0.0542  1.9690
  864MOL0     H14024   6.845   7.550   8.345  0.4324 -2.8547  3.1700
  864MOL0     H14025   6.781   7.398   8.300 -1.1790  1.7079 -0.1953
  864MOL0     H14026   6.853   7.611   8.098  0.3907  0.2164  0.2660
  864MOL0     H14027   6.783   7.456   8.044  2.2123  1.2125 -1.0758
  864MOL0     H14028   6.647   7.643   8.232  0.8697 -0.8709  2.2825
  864MOL0     H14029   6.589   7.488   8.180 -1.3287  1.3701 -0.3393
  864MOL0     H14030   7.610   7.259   8.637  1.1403  0.7084  0.7721
  864MOL0     H14031   7.854   7.212   8.639  0.1284 -0.7211  0.3095
  864MOL0     H14032   8.301   7.354   8.735 -0.5383 -1.2622  0.2646
  864MOL0     H14033   8.524   7.304   8.722 -2.4091  1.9497 -0.1823
  864MOL0     H14034  10.346   6.780   8.826 -0.4520  0.1048  0.3836
  864MOL0     H14035  10.586   6.767   8.771  0.9644  0.7389  1.2306
  864MOL0     H14036  10.951   6.638   8.664 -0.9681  1.2333  0.8961
  864MOL0     H14037  11.160   6.575   8.546  0.3957 -1.8135 -1.2447
  864MOL0     H14038  11.403   6.204   8.660  4.2573 -2.0124  2.5446
  864MOL0     H14039  11.471   6.330   8.746 -3.8304 -0.2544  1.2377
  864MOL0     H14040  11.503   6.264   8.445  2.8515 -2.9459  0.2234
  864MOL0     H14041  11.588   6.401   8.515 -0.4380  1.5926  2.1805
  864MOL0     H14042  11.629   6.105   8.549 -2.0677  0.5958  0.2608
  864MOL0     H14043  11.674   6.226   8.686 -0.6647  0.8506  0.2063
  864MOL0     H14044  11.802   6.207   8.418  3.3429  0.5323  0.4141
  864MOL0     H14045  11.809   6.347   8.530  0.9373 -0.1968  0.9713
  864MOL0     H14046  12.070   6.080   8.704 -0.2563  0.4747  1.4794
  864MOL0     H14047  11.263   6.283   8.842 -1.7337 -1.5670  1.3065
  864MOL0     H14048  11.048   6.315   8.952 -0.6318 -3.3575 -1.5580
  865MOL0     O14049  11.215   3.883   0.567  0.4086 -0.3118 -0.0828
  865MOL0     C14050  11.224   3.863   0.453 -0.1855  0.4545  0.0733
  865MOL0     O14051  11.135   3.908   0.361  0.8131 -0.1543 -0.0520
  865MOL0     C14052  11.019   3.984   0.398 -1.0419  0.3228  0.5845
  865MOL0     C14053  10.897   3.973   0.330 -0.4997  0.1651 -0.0861
  865MOL0     C14054  10.779   4.042   0.360 -0.7624 -0.0714  0.3719
  865MOL0     C14055  10.775   4.126   0.471 -0.1310  0.2353  0.7123
  865MOL0     O14056  10.659   4.184   0.508 -0.5994  0.2401 -0.2601
  865MOL0     C14057  10.631   4.214   0.640 -0.0266  0.4009  0.5833
  865MOL0     C14058  10.494   4.253   0.654  0.2921 -0.1470  0.3514
  865MOL0     C14059  10.456   4.298   0.793  0.8504  0.9686 -0.0472
  865MOL0     C14060  10.298   4.338   0.805 -0.2739 -0.2454  0.0001
  865MOL0     C14061  10.291   4.487   0.780  0.2570  0.2058 -0.0233
  865MOL0     C14062  10.138   4.531   0.766 -0.6432  0.4068 -0.0055
  865MOL0     C14063  10.043   4.483   0.660  0.2620  0.4092  1.0000
  865MOL0     C14064   9.916   4.558   0.648  0.0032 -0.3704  0.5151
  865MOL0     N14065   9.820   4.526   0.764  0.2873 -0.2258  0.4362
  865MOL0     C14066   9.721   4.612   0.809  0.3844 -0.1386 -0.7149
  865MOL0     C14067   9.669   4.558   0.924 -0.1954  0.1229  0.1146
  865MOL0     C14068   9.553   4.619   0.991  0.3469 -0.5987 -0.6612
  865MOL0     C14069   9.440   4.535   1.052  0.3670  0.0501 -0.2914
  865MOL0     C14070   9.357   4.462   0.944  0.5771 -0.1869 -1.2439
  865MOL0     C14071   9.255   4.356   0.987  0.5301 -0.4829 -0.0413
  865MOL0     O14072   9.157   4.446   1.046 -0.1008 -0.3207 -0.4528
  865MOL0     C14073   9.028   4.393   1.058 -0.4005 -0.4905  0.2480
  865MOL0     C14074   8.935   4.493   1.107 -0.7974 -0.0385 -0.1017
  865MOL0     C14075   8.804   4.455   1.135 -0.6915  0.6722 -0.3363
  865MOL0     C14076   8.760   4.326   1.105 -0.3973 -0.2485  0.0820
  865MOL0     C14077   8.616   4.295   1.115  0.0975 -0.2342 -0.4181
  865MOL0     O14078   8.548   4.376   1.193  0.6668 -0.1544  0.1015
  865MOL0     C14079   8.414   4.357   1.214  0.3559  0.2950 -0.9491
  865MOL0     C14080   8.366   4.404   1.337  0.0563  0.3885  0.9941
  865MOL0     C14081   8.234   4.395   1.378 -0.6258  0.2876 -0.0227
  865MOL0     C14082   8.141   4.337   1.284 -0.4685 -0.6244  1.0808
  865MOL0     O14083   8.007   4.331   1.312  0.0889  0.1609  0.5574
  865MOL0     C14084   7.955   4.318   1.449  0.2560 -0.3280 -0.6587
  865MOL0     C14085   7.803   4.314   1.453 -0.1128 -0.4236  0.1522
  865MOL0     C14086   7.744   4.186   1.393 -1.2977  0.3972 -0.0280
  865MOL0     C14087   7.601   4.171   1.437 -0.4960 -0.1303  0.0440
  865MOL0     C14088   7.520   4.081   1.334 -0.2123  0.2266 -0.2187
  865MOL0     C14089   7.375   4.082   1.385  0.1419  0.3563 -0.0196
  865MOL0     C14090   7.301   3.961   1.334  0.6618  0.2664 -0.1291
  865MOL0     C14091   7.147   3.987   1.360  0.0669  0.7239 -0.1513
  865MOL0    Cl14092   7.049   3.865   1.274  0.2716  0.3411  0.2039
  865MOL0     C14093   8.182   4.302   1.156  0.2125  0.7828  0.7408
  865MOL0     C14094   8.317   4.309   1.117 -0.7857 -0.6197  0.2307
  865MOL0     O14095   8.580   4.194   1.055  0.7417 -0.4245 -0.2402
  865MOL0     C14096   8.853   4.222   1.057 -0.2524  0.2605 -0.0651
  865MOL0     C14097   8.986   4.259   1.034 -0.8434 -1.3894 -0.7927
  865MOL0     N14098   9.727   4.435   0.943  0.0630 -0.2206  0.4305
  865MOL0     N14099   9.827   4.422   0.853 -0.5649 -0.9484 -0.0189
  865MOL0     C14100  10.895   4.141   0.544  0.4080  0.0451 -0.3496
  865MOL0     C14101  11.013   4.075   0.506  0.0325 -0.3534 -0.8466
  865MOL0     C14102  11.334   3.781   0.390  1.0162  0.6303 -0.9226
  865MOL0     C14103  11.368   3.803   0.255  0.3007 -0.2160 -0.3414
  865MOL0     C14104  11.469   3.725   0.194  0.5333  0.2908  0.2739
  865MOL0     C14105  11.543   3.634   0.274 -0.5138  0.7562  0.1363
  865MOL0     O14106  11.641   3.544   0.240  0.7986  0.1967  0.1661
  865MOL0     C14107  11.713   3.576   0.121 -0.0879 -0.4761  0.1033
  865MOL0     C14108  11.858   3.544   0.152 -0.4557  0.4999 -0.0338
  865MOL0     C14109  11.922   3.655   0.251  0.5491  0.3808  0.7431
  865MOL0     C14110  11.915   3.610   0.403 -0.5010 -0.4679 -0.7998
  865MOL0     C14111  12.014   3.499   0.442 -1.0311  0.1325 -0.1031
  865MOL0     C14112  12.085   3.405   0.477 -0.4346  0.1553 -0.4749
  865MOL0     C14113  11.508   3.615   0.411  0.0840  0.4339  1.0179
  865MOL0     C14114  11.408   3.693   0.466  0.0742  0.1528  0.3173
  865MOL0     H14115  10.909   3.930   0.230  3.6820  2.0393 -0.5969
  865MOL0     H14116  10.690   4.018   0.303 -0.0662 -2.3026  0.1112
  865MOL0     H14117  10.702   4.292   0.670 -0.1881  0.9696 -0.4574
  865MOL0     H14118  10.647   4.120   0.694  0.9840  0.4233  0.3303
  865MOL0     H14119  10.433   4.166   0.627  0.0637  0.4903 -1.2577
  865MOL0     H14120  10.468   4.328   0.579 -0.6754 -1.7222 -0.9672
  865MOL0     H14121  10.507   4.391   0.818 -0.2009  1.5474  0.0317
  865MOL0     H14122  10.480   4.219   0.864  0.2085 -1.4212 -2.2993
  865MOL0     H14123  10.236   4.280   0.736 -2.5803 -1.0267  2.5481
  865MOL0     H14124  10.261   4.309   0.904 -2.9092  1.2698 -0.4526
  865MOL0     H14125  10.352   4.515   0.694 -0.2378 -0.5460 -0.6385
  865MOL0     H14126  10.325   4.544   0.867 -2.7504  1.8185  0.2516
  865MOL0     H14127  10.124   4.638   0.752 -1.9986 -0.0925 -3.3611
  865MOL0     H14128  10.097   4.494   0.861 -2.6360 -3.0329 -1.9835
  865MOL0     H14129  10.094   4.508   0.566  0.6705 -0.0503  1.0935
  865MOL0     H14130  10.030   4.374   0.665  1.1952  0.2743  0.7909
  865MOL0     H14131   9.878   4.542   0.547 -0.7489  0.4758  0.6504
  865MOL0     H14132   9.946   4.663   0.647  0.6733 -0.5500 -0.8540
  865MOL0     H14133   9.678   4.699   0.761  0.0226  1.2156  1.8789
  865MOL0     H14134   9.521   4.699   0.924  1.8567 -0.2154 -0.9678
  865MOL0     H14135   9.593   4.669   1.080  0.3798  2.4268 -2.2577
  865MOL0     H14136   9.375   4.599   1.113  0.7704 -0.4244  0.6435
  865MOL0     H14137   9.483   4.452   1.107  0.7839  0.1593 -0.4500
  865MOL0     H14138   9.308   4.546   0.893  2.0318  1.0671 -0.6689
  865MOL0     H14139   9.429   4.419   0.873  1.2176  0.3654 -0.9456
  865MOL0     H14140   9.303   4.285   1.054  1.3520  0.8614  0.8548
  865MOL0     H14141   9.214   4.298   0.903  1.8536 -1.5264 -0.0035
  865MOL0     H14142   8.972   4.594   1.118 -1.7750  0.1447  1.8631
  865MOL0     H14143   8.726   4.529   1.152 -2.3517 -0.7421 -1.4374
  865MOL0     H14144   8.424   4.454   1.414  1.5967 -1.7470  1.3276
  865MOL0     H14145   8.204   4.422   1.479 -2.5120  0.8399 -0.6790
  865MOL0     H14146   7.980   4.404   1.513  0.9242 -0.4642 -0.7218
  865MOL0     H14147   8.000   4.229   1.495 -0.7900 -0.9942 -0.8966
  865MOL0     H14148   7.756   4.399   1.403  0.4158  0.9690  1.8709
  865MOL0     H14149   7.761   4.322   1.554 -2.1639  0.2882 -0.7230
  865MOL0     H14150   7.797   4.097   1.429 -1.4994 -1.1636 -3.2413
  865MOL0     H14151   7.757   4.195   1.285 -1.3362 -1.4474 -0.2218
  865MOL0     H14152   7.596   4.141   1.543  0.5673  1.9338  0.7277
  865MOL0     H14153   7.552   4.268   1.431 -0.8426 -0.3568 -1.0772
  865MOL0     H14154   7.566   3.982   1.339  1.9453  1.1628  4.2561
  865MOL0     H14155   7.527   4.118   1.232 -0.6313  0.0840 -0.3005
  865MOL0     H14156   7.329   4.178   1.359  2.8170  2.8001  3.2990
  865MOL0     H14157   7.378   4.087   1.494  1.0610  2.3385 -0.0888
  865MOL0     H14158   7.315   3.944   1.227 -0.8556 -1.3240 -0.1200
  865MOL0     H14159   7.329   3.868   1.383  0.0207 -0.8938 -1.8723
  865MOL0     H14160   7.122   4.083   1.313  0.5773  2.0015  2.0344
  865MOL0     H14161   7.115   3.980   1.464  0.7730 -0.3171  0.0086
  865MOL0     H14162   8.110   4.263   1.084  2.4432 -1.3930 -0.4434
  865MOL0     H14163   8.338   4.282   1.015 -0.8938  1.3486 -0.3552
  865MOL0     H14164   8.829   4.119   1.036 -0.0284 -0.0652  1.2114
  865MOL0     H14165   9.057   4.181   1.005 -0.2117 -2.4845  3.1288
  865MOL0     H14166  10.901   4.221   0.618 -2.4856 -0.9049  1.0675
  865MOL0     H14167  11.112   4.092   0.548 -0.2938  0.7207 -0.4687
  865MOL0     H14168  11.324   3.888   0.204  1.2168  1.6391  1.7836
  865MOL0     H14169  11.505   3.748   0.095  0.4697 -0.4569  0.0746
  865MOL0     H14170  11.705   3.683   0.100  2.3814 -0.2321  0.1171
  865MOL0     H14171  11.676   3.524   0.032 -0.5784  1.3750 -0.8278
  865MOL0     H14172  11.876   3.442   0.188  1.2978  0.1866 -1.6360
  865MOL0     H14173  11.917   3.550   0.060  1.6336 -1.0214  1.1148
  865MOL0     H14174  11.881   3.754   0.226  2.9051  1.5920  1.3397
  865MOL0     H14175  12.026   3.665   0.221  0.3719 -1.2363 -0.5149
  865MOL0     H14176  11.939   3.697   0.465  0.7552 -0.8280 -0.7529
  865MOL0     H14177  11.813   3.577   0.424 -1.3352  1.7444 -1.1124
  865MOL0     H14178  12.152   3.329   0.512 -1.2794  0.2679  1.4665
  865MOL0     H14179  11.559   3.537   0.466  1.3681  0.4837 -0.0601
  865MOL0     H14180  11.385   3.680   0.571  2.1986 -0.1714  0.7789
  866MOL0     O14181  10.723   2.281   1.804  0.1139 -0.1044  0.3450
  866MOL0     C14182  10.691   2.179   1.742  0.3085  0.3277  0.4379
  866MOL0     O14183  10.580   2.103   1.772  0.7322  0.3193 -0.3619
  866MOL0     C14184  10.493   2.152   1.878 -0.3626 -0.0998  0.4349
  866MOL0     C14185  10.448   2.282   1.884 -0.3025  0.1158 -0.3461
  866MOL0     C14186  10.357   2.323   1.982 -0.6708 -0.0562 -0.2928
  866MOL0     C14187  10.302   2.233   2.073 -0.3147 -0.0601 -1.0499
  866MOL0     O14188  10.211   2.257   2.170  0.6215 -0.2894  0.0057
  866MOL0     C14189  10.183   2.389   2.225  0.6217 -1.0407  0.2397
  866MOL0     C14190  10.061   2.457   2.162 -0.9711  0.1234 -0.0339
  866MOL0     C14191   9.950   2.367   2.120 -0.5327 -0.8410  0.4768
  866MOL0     C14192   9.863   2.315   2.242 -0.5584  0.9836  0.4700
  866MOL0     C14193   9.791   2.430   2.307 -0.4971  0.4640  0.0813
  866MOL0     C14194   9.698   2.390   2.423 -0.0828 -1.4073 -0.3925
  866MOL0     C14195   9.788   2.351   2.541  0.7399  1.3460  0.2857
  866MOL0     C14196   9.781   2.443   2.665  0.4081  0.1009 -0.3832
  866MOL0     N14197   9.668   2.407   2.755  0.1203 -0.3141  0.0274
  866MOL0     C14198   9.693   2.359   2.885 -0.1153 -0.0685  0.4845
  866MOL0     C14199   9.566   2.348   2.927  0.4935  0.6226  0.3571
  866MOL0     C14200   9.522   2.325   3.069  0.3338  0.6454 -0.6777
  866MOL0     C14201   9.467   2.450   3.132  0.1748  0.0908  0.6404
  866MOL0     C14202   9.582   2.543   3.181  0.1283 -0.3117  0.4171
  866MOL0     C14203   9.531   2.677   3.230  0.5135 -0.8636 -0.4778
  866MOL0     O14204   9.467   2.646   3.348 -0.0778 -0.2248 -0.4884
  866MOL0     C14205   9.346   2.700   3.365  1.7238  0.1580  0.6012
  866MOL0     C14206   9.260   2.618   3.436 -0.3289  0.7792  0.5019
  866MOL0     C14207   9.125   2.661   3.476 -1.0257  0.1025 -0.1163
  866MOL0     C14208   9.082   2.792   3.438 -0.7910  0.6446  0.4648
  866MOL0     C14209   8.943   2.839   3.469 -0.4753  0.5786  0.9388
  866MOL0     O14210   8.873   2.771   3.562 -0.1478 -0.1038 -0.3908
  866MOL0     C14211   8.732   2.788   3.549 -0.3144 -0.3146  0.0883
  866MOL0     C14212   8.651   2.703   3.479  0.4043  0.3513  0.2936
  866MOL0     C14213   8.514   2.722   3.458 -0.4928  0.3312 -0.7858
  866MOL0     C14214   8.452   2.834   3.515  0.2748 -0.9461  0.2456
  866MOL0     O14215   8.318   2.873   3.498 -0.2479  0.5365  1.0139
  866MOL0     C14216   8.235   2.785   3.417 -0.5393 -0.6747  0.1503
  866MOL0     C14217   8.095   2.850   3.422  0.1403  0.0925  0.3427
  866MOL0     C14218   8.024   2.841   3.559 -0.9521  0.2450 -1.6924
  866MOL0     C14219   7.885   2.906   3.556 -0.7971  0.1176  0.5852
  866MOL0     C14220   7.827   2.902   3.705  0.4121 -0.7409 -0.1721
  866MOL0     C14221   7.682   2.947   3.698 -0.0597 -0.3462 -0.6098
  866MOL0     C14222   7.606   2.928   3.831  0.3969  0.4333  0.4569
  866MOL0     C14223   7.458   2.957   3.816  0.0694 -0.0296 -1.4923
  866MOL0    Cl14224   7.374   2.837   3.913  0.3977  0.1307 -0.1407
  866MOL0     C14225   8.532   2.924   3.592  0.8854  1.1537 -0.5716
  866MOL0     C14226   8.665   2.895   3.621  1.1422 -0.3300  0.9337
  866MOL0     O14227   8.899   2.916   3.392  0.0133  0.0035  0.0739
  866MOL0     C14228   9.178   2.873   3.364  0.2342  0.1853 -0.7728
  866MOL0     C14229   9.303   2.824   3.331 -0.3195 -0.1457  1.0489
  866MOL0     N14230   9.472   2.374   2.827 -0.4132 -0.0389 -0.8837
  866MOL0     N14231   9.538   2.418   2.730  0.6926  0.1265  0.4853
  866MOL0     C14232  10.343   2.098   2.059  0.7873 -0.4739 -0.2852
  866MOL0     C14233  10.446   2.064   1.974 -0.0823 -0.0235 -1.0297
  866MOL0     C14234  10.793   2.127   1.649  0.5275  0.7490 -0.2282
  866MOL0     C14235  10.928   2.173   1.638 -0.0917  1.3713 -0.7334
  866MOL0     C14236  11.020   2.112   1.554 -0.7243 -0.5332 -0.5057
  866MOL0     C14237  10.991   1.997   1.486 -0.6015  0.2031 -0.0266
  866MOL0     O14238  11.101   1.943   1.413  0.0923 -0.1327 -0.1344
  866MOL0     C14239  11.099   1.794   1.416  0.4952 -1.4580 -0.1235
  866MOL0     C14240  11.235   1.739   1.367  0.1658  0.3781  0.0049
  866MOL0     C14241  11.356   1.805   1.444 -0.6958  0.2328  0.4024
  866MOL0     C14242  11.459   1.867   1.342  0.2610 -0.5539 -0.4594
  866MOL0     C14243  11.531   1.778   1.246 -0.0473 -0.2609 -0.4877
  866MOL0     C14244  11.586   1.702   1.165 -0.3611 -0.7369 -0.0168
  866MOL0     C14245  10.864   1.941   1.502  0.7258  0.6800  0.5902
  866MOL0     C14246  10.766   2.002   1.580  0.2987 -0.5603 -0.0524
  866MOL0     H14247  10.487   2.359   1.818  0.3613  1.8124  1.9409
  866MOL0     H14248  10.318   2.424   1.977  0.2849  0.3335  0.0021
  866MOL0     H14249  10.271   2.454   2.225 -0.9322  1.3567  3.9108
  866MOL0     H14250  10.151   2.368   2.328  2.5576 -0.9138  0.9073
  866MOL0     H14251  10.095   2.493   2.065  1.9848  0.5817  1.0662
  866MOL0     H14252  10.022   2.539   2.222  0.2415  0.0360  0.9022
  866MOL0     H14253   9.981   2.273   2.072 -1.0932  0.4423 -2.6562
  866MOL0     H14254   9.883   2.413   2.047 -1.8792 -2.2694  0.7490
  866MOL0     H14255   9.790   2.250   2.194  1.5434 -0.5774 -0.7601
  866MOL0     H14256   9.906   2.239   2.308 -0.4712  2.1606  1.8397
  866MOL0     H14257   9.732   2.472   2.225 -3.2140  0.1765  1.7737
  866MOL0     H14258   9.862   2.502   2.350  0.8416 -0.2062 -0.9130
  866MOL0     H14259   9.640   2.306   2.383  0.5590 -2.0232 -0.0690
  866MOL0     H14260   9.638   2.471   2.464  2.2589 -0.0583  0.5800
  866MOL0     H14261   9.775   2.244   2.559 -1.7806  1.6113  0.4250
  866MOL0     H14262   9.889   2.357   2.499  0.3836  0.5570 -0.7423
  866MOL0     H14263   9.766   2.545   2.628 -0.0219  0.5615  1.0033
  866MOL0     H14264   9.873   2.448   2.724 -0.5378 -3.1745  1.6651
  866MOL0     H14265   9.793   2.355   2.925  1.2183  0.6032 -2.4893
  866MOL0     H14266   9.613   2.286   3.116  1.3370  2.0938 -1.3422
  866MOL0     H14267   9.446   2.248   3.081  0.5379  0.4794 -0.4133
  866MOL0     H14268   9.417   2.408   3.220  0.8525 -0.1878  0.9054
  866MOL0     H14269   9.402   2.509   3.067 -0.2891 -1.1124 -0.0292
  866MOL0     H14270   9.639   2.492   3.259  3.0049  1.4517 -0.3404
  866MOL0     H14271   9.658   2.560   3.104 -2.7486 -0.8517 -2.8012
  866MOL0     H14272   9.461   2.725   3.162  0.6092  1.9431  1.2512
  866MOL0     H14273   9.614   2.746   3.249 -3.7038  5.1525 -1.3323
  866MOL0     H14274   9.300   2.520   3.463 -1.6950 -0.5465 -1.9139
  866MOL0     H14275   9.056   2.589   3.519  0.5473 -1.3496  0.0938
  866MOL0     H14276   8.703   2.622   3.429 -0.3967 -1.3689  2.1714
  866MOL0     H14277   8.468   2.654   3.387 -3.4929  0.3245  1.0053
  866MOL0     H14278   8.223   2.686   3.463 -1.6817 -0.2785  0.7508
  866MOL0     H14279   8.272   2.780   3.314  0.1877  0.9339  0.3047
  866MOL0     H14280   8.035   2.795   3.349  0.8288 -0.5000  0.2085
  866MOL0     H14281   8.105   2.954   3.388  1.0405 -0.2437 -0.4769
  866MOL0     H14282   8.090   2.884   3.634 -0.5921 -1.8682 -0.7532
  866MOL0     H14283   8.018   2.738   3.596 -2.4693  0.2864 -1.7606
  866MOL0     H14284   7.901   3.010   3.525  0.9595 -0.6918 -1.4438
  866MOL0     H14285   7.817   2.856   3.486 -1.2909 -0.7308  1.6459
  866MOL0     H14286   7.900   2.966   3.756 -0.5031  2.5523 -2.6591
  866MOL0     H14287   7.842   2.800   3.743 -0.2507 -0.0710  2.0364
  866MOL0     H14288   7.632   2.897   3.615 -0.2872 -0.8261 -0.1808
  866MOL0     H14289   7.682   3.054   3.672 -1.9883 -0.2825 -0.4312
  866MOL0     H14290   7.614   2.825   3.865  1.7424 -0.1186 -1.3733
  866MOL0     H14291   7.652   3.000   3.898  0.7123 -0.9278  1.7430
  866MOL0     H14292   7.427   2.927   3.715 -0.9317 -1.5438 -0.7620
  866MOL0     H14293   7.436   3.063   3.832  4.1068  0.9241 -1.1414
  866MOL0     H14294   8.485   3.009   3.639  1.2784  1.4206 -0.6587
  866MOL0     H14295   8.718   2.962   3.689 -2.5987  3.0590  0.8570
  866MOL0     H14296   9.151   2.978   3.353 -0.2703  0.6576  3.2970
  866MOL0     H14297   9.375   2.885   3.278 -0.0227 -1.6873 -0.3655
  866MOL0     H14298  10.306   2.029   2.135  0.3796  0.8918  0.7914
  866MOL0     H14299  10.488   1.964   1.970  1.4865  0.4649  1.2442
  866MOL0     H14300  10.955   2.265   1.691  2.1739  0.3681 -0.0157
  866MOL0     H14301  11.117   2.150   1.526  2.0106 -6.4050 -0.4039
  866MOL0     H14302  11.017   1.756   1.353 -2.2138  0.9154  1.7056
  866MOL0     H14303  11.087   1.755   1.517 -1.1533 -0.1399  0.2325
  866MOL0     H14304  11.238   1.630   1.376  0.7764  0.3587 -0.4298
  866MOL0     H14305  11.236   1.754   1.259 -1.2358 -2.3092 -0.4598
  866MOL0     H14306  11.411   1.731   1.503 -0.2238 -0.2270 -0.6065
  866MOL0     H14307  11.325   1.877   1.521  1.5452  0.4176  1.2155
  866MOL0     H14308  11.409   1.945   1.285 -2.0654 -2.6856 -1.5404
  866MOL0     H14309  11.537   1.913   1.403  1.9847 -2.3161 -1.2118
  866MOL0     H14310  11.633   1.623   1.110  0.0977  0.4206 -1.3342
  866MOL0     H14311  10.846   1.851   1.444  0.3545  2.0982 -1.6053
  866MOL0     H14312  10.672   1.948   1.587  0.2658 -0.4006  0.8215
  867MOL0     O14313   3.519   5.566  10.953 -0.7816  0.1601 -0.5258
  867MOL0     C14314   3.481   5.527  10.845  0.2770  0.6881  0.4928
  867MOL0     O14315   3.530   5.417  10.772  0.1983  0.0735 -0.5387
  867MOL0     C14316   3.631   5.338  10.822  0.7386  0.4698 -0.2438
  867MOL0     C14317   3.763   5.371  10.841 -0.2497 -1.1230  0.7126
  867MOL0     C14318   3.865   5.279  10.876  0.1228 -0.3389 -0.5259
  867MOL0     C14319   3.826   5.146  10.875 -0.8541  0.7629  0.3215
  867MOL0     O14320   3.920   5.047  10.888 -0.0863 -0.1423  0.5128
  867MOL0     C14321   3.975   5.014  11.022 -0.4316 -0.5410 -0.0881
  867MOL0     C14322   3.903   4.910  11.108 -0.6435  0.3142  0.7221
  867MOL0     C14323   3.922   4.921  11.259  0.3104 -0.1445  0.1706
  867MOL0     C14324   4.069   4.886  11.287  0.9969  0.4167 -0.1139
  867MOL0     C14325   4.111   4.891  11.438 -0.2595  0.0805 -0.0418
  867MOL0     C14326   4.142   5.025  11.498  0.1709  0.7277  0.5837
  867MOL0     C14327   4.179   5.012  11.643 -0.7496 -0.7814 -0.1725
  867MOL0     C14328   4.227   5.144  11.708  0.8432  0.6302 -0.3281
  867MOL0     N14329   4.131   5.238  11.763  0.6752 -0.7056  0.6174
  867MOL0     C14330   4.069   5.345  11.697 -0.4366 -0.1579  0.8419
  867MOL0     C14331   4.022   5.422  11.802 -0.2639  0.1279 -0.1921
  867MOL0     C14332   3.936   5.542  11.797  1.7178 -0.7451 -0.2187
  867MOL0     C14333   3.794   5.519  11.743  0.8036 -0.2209 -0.7502
  867MOL0     C14334   3.697   5.468  11.848 -0.3217 -0.1337  0.4341
  867MOL0     C14335   3.586   5.387  11.778 -0.0821 -0.3374 -0.6326
  867MOL0     O14336   3.481   5.473  11.738 -0.5710  0.0859 -0.4993
  867MOL0     C14337   3.355   5.429  11.746  0.0272 -0.2048  0.0770
  867MOL0     C14338   3.321   5.297  11.744  0.4882  0.0016 -0.1266
  867MOL0     C14339   3.189   5.267  11.775  0.8835 -1.0447  0.1685
  867MOL0     C14340   3.089   5.364  11.798 -0.0087  0.7552  0.0827
  867MOL0     C14341   2.950   5.323  11.818 -0.1435 -0.3231 -0.5513
  867MOL0     O14342   2.862   5.425  11.838  0.2477 -0.0286  0.0065
  867MOL0     C14343   2.734   5.396  11.878  0.5305  0.0756  0.6849
  867MOL0     C14344   2.690   5.457  12.000  0.7679  0.1619  0.4873
  867MOL0     C14345   2.555   5.465  12.021 -0.1200  0.3157  0.3878
  867MOL0     C14346   2.458   5.396  11.935 -1.1755 -1.0640  0.5455
  867MOL0     O14347   2.334   5.409  11.973 -0.3115  0.3714 -0.4116
  867MOL0     C14348   2.228   5.383  11.876  0.8961 -0.8455  0.0759
  867MOL0     C14349   2.102   5.407  11.963  0.0915  0.6170 -0.0776
  867MOL0     C14350   1.963   5.385  11.888 -0.1106 -0.0695  0.8152
  867MOL0     C14351   1.842   5.370  11.982 -0.2869 -0.7068 -0.0490
  867MOL0     C14352   1.712   5.375  11.901  0.1246 -0.3233  0.2678
  867MOL0     C14353   1.591   5.408  11.996  0.5008 -0.0305  0.4575
  867MOL0     C14354   1.446   5.401  11.927 -0.3327  0.5718  0.3696
  867MOL0     C14355   1.426   5.260  11.867  0.2653 -0.6489 -0.4582
  867MOL0    Cl14356   1.385   5.151  11.993  0.1399 -0.0092 -0.3401
  867MOL0     C14357   2.513   5.327  11.821 -0.3690  0.1253 -0.7873
  867MOL0     C14358   2.652   5.327  11.797  0.4031  0.5392  0.2722
  867MOL0     O14359   2.923   5.202  11.831 -0.1361 -0.7900  0.0848
  867MOL0     C14360   3.133   5.499  11.804 -0.4600  0.5154 -0.4183
  867MOL0     C14361   3.266   5.534  11.766  0.0461  0.5726 -0.1835
  867MOL0     N14362   4.051   5.357  11.918  0.4945 -0.3223 -0.1395
  867MOL0     N14363   4.118   5.250  11.895 -0.3660  0.0906  0.4625
  867MOL0     C14364   3.691   5.107  10.878  0.3645 -0.4543  0.5862
  867MOL0     C14365   3.597   5.207  10.854 -0.0971  0.3770  0.1501
  867MOL0     C14366   3.383   5.614  10.771  0.1468  0.0767 -0.4834
  867MOL0     C14367   3.379   5.751  10.813  0.4261 -0.5157  0.5325
  867MOL0     C14368   3.290   5.842  10.749  0.8100  0.1971  0.4784
  867MOL0     C14369   3.191   5.791  10.674  0.0611  0.1207  0.3698
  867MOL0     O14370   3.091   5.876  10.641  0.3938  0.4740  0.4851
  867MOL0     C14371   2.964   5.849  10.693 -0.7654  0.3240 -0.4419
  867MOL0     C14372   2.851   5.875  10.589  0.4970 -0.3808 -0.3563
  867MOL0     C14373   2.848   5.761  10.492  1.0972  0.1038  0.0450
  867MOL0     C14374   2.769   5.801  10.371  0.1060  0.1036 -0.1459
  867MOL0     C14375   2.626   5.826  10.405 -0.2941 -0.2917  1.0583
  867MOL0     C14376   2.516   5.853  10.438  0.0354  0.5044 -0.5009
  867MOL0     C14377   3.194   5.660  10.623 -0.6623 -0.3538 -0.2269
  867MOL0     C14378   3.290   5.570  10.669 -0.2610 -0.3739 -0.2497
  867MOL0     H14379   3.786   5.471  10.806 -1.7587 -0.9771  0.0869
  867MOL0     H14380   3.973   5.291  10.885  0.5711 -3.6630  0.0577
  867MOL0     H14381   3.979   5.108  11.078  0.6610  0.8708 -2.3455
  867MOL0     H14382   4.075   4.973  11.004 -0.4266 -0.6360  0.1523
  867MOL0     H14383   3.944   4.815  11.074 -1.1347  0.0654  0.8075
  867MOL0     H14384   3.797   4.913  11.079 -0.9253 -1.9432  1.3202
  867MOL0     H14385   3.853   4.855  11.313  0.7698 -2.4849 -1.9412
  867MOL0     H14386   3.901   5.026  11.281  3.0851  0.6686 -0.6971
  867MOL0     H14387   4.090   4.784  11.251  2.1454 -0.9504  3.8825
  867MOL0     H14388   4.127   4.960  11.231  0.6366 -0.2250 -1.3780
  867MOL0     H14389   4.206   4.839  11.449 -1.0205 -1.5143 -0.7086
  867MOL0     H14390   4.036   4.838  11.497  1.5439 -1.9900  0.5039
  867MOL0     H14391   4.050   5.084  11.490  0.9412  2.5933  3.6855
  867MOL0     H14392   4.227   5.074  11.450 -0.3460  0.8913 -0.1746
  867MOL0     H14393   4.090   4.981  11.698 -2.5916  0.6482 -2.1706
  867MOL0     H14394   4.258   4.937  11.642  0.7278  0.6963 -1.4195
  867MOL0     H14395   4.295   5.198  11.641  0.5715  2.9308  1.1319
  867MOL0     H14396   4.296   5.107  11.784 -0.2828  0.3574  0.5940
  867MOL0     H14397   4.062   5.370  11.591  1.5694 -2.4381  0.0787
  867MOL0     H14398   3.993   5.609  11.732 -1.7671  1.7874 -0.9458
  867MOL0     H14399   3.932   5.585  11.898 -0.9384  1.2353 -1.0563
  867MOL0     H14400   3.812   5.452  11.659  0.7106 -1.3691  0.1148
  867MOL0     H14401   3.757   5.611  11.699 -1.5760 -1.0006 -0.5456
  867MOL0     H14402   3.764   5.400  11.902  0.7182  0.8899  0.4714
  867MOL0     H14403   3.664   5.544  11.918 -0.2897 -1.3351  1.7983
  867MOL0     H14404   3.548   5.310  11.846 -1.5919 -1.2300 -2.3887
  867MOL0     H14405   3.617   5.350  11.680 -0.1777  2.9808 -2.0482
  867MOL0     H14406   3.396   5.228  11.708 -0.9638 -1.1589 -1.0306
  867MOL0     H14407   3.155   5.164  11.774 -1.1332 -0.4204  0.6331
  867MOL0     H14408   2.755   5.526  12.054  0.8829  1.4106 -1.1775
  867MOL0     H14409   2.517   5.525  12.103  3.0381  0.8616  1.5836
  867MOL0     H14410   2.250   5.284  11.834  1.7513 -0.3408 -0.7091
  867MOL0     H14411   2.223   5.456  11.794 -1.5199  0.3545  1.2031
  867MOL0     H14412   2.098   5.512  11.996  0.6523  0.2650  1.1930
  867MOL0     H14413   2.119   5.355  12.058  0.2317  1.3069  0.2829
  867MOL0     H14414   1.958   5.294  11.828 -3.0959 -0.0111  0.8404
  867MOL0     H14415   1.942   5.475  11.831 -0.9107 -0.7540  0.0021
  867MOL0     H14416   1.850   5.281  12.046  0.9848 -1.5959 -1.4012
  867MOL0     H14417   1.850   5.454  12.052 -3.5388  0.5828 -1.0217
  867MOL0     H14418   1.704   5.271  11.866 -0.2583 -1.2570  2.8942
  867MOL0     H14419   1.723   5.449  11.822 -1.2513 -0.8638 -0.4750
  867MOL0     H14420   1.603   5.500  12.054 -0.2145  0.6160 -0.3848
  867MOL0     H14421   1.595   5.343  12.084  3.4193  2.1173  2.0886
  867MOL0     H14422   1.374   5.422  12.007 -1.9600 -0.0119 -0.8760
  867MOL0     H14423   1.445   5.485  11.857  1.7482  0.2707 -0.0611
  867MOL0     H14424   1.503   5.216  11.804  0.6575 -0.6010 -0.0189
  867MOL0     H14425   1.345   5.267  11.794  0.3202 -0.0738 -0.4744
  867MOL0     H14426   2.454   5.275  11.746  0.0549 -1.7959  0.1542
  867MOL0     H14427   2.684   5.275  11.707 -1.2663 -0.0976  0.0210
  867MOL0     H14428   3.052   5.570  11.818 -1.1591 -0.0058 -1.6580
  867MOL0     H14429   3.302   5.636  11.767  0.9897  0.2516 -0.2532
  867MOL0     H14430   3.657   5.004  10.885 -3.2053  0.4797 -0.6900
  867MOL0     H14431   3.491   5.192  10.842  0.3167 -1.3810 -1.7440
  867MOL0     H14432   3.446   5.784  10.892  1.1810 -2.7755  0.9283
  867MOL0     H14433   3.294   5.944  10.787  0.6182 -0.5009  2.5308
  867MOL0     H14434   2.949   5.912  10.781  2.3991 -0.7308  0.9901
  867MOL0     H14435   2.949   5.754  10.746 -1.9395  0.1398 -1.0692
  867MOL0     H14436   2.760   5.893  10.647  1.0175 -2.8488  1.3792
  867MOL0     H14437   2.875   5.967  10.535 -0.1303 -0.7880 -1.3551
  867MOL0     H14438   2.795   5.673  10.530 -0.9240  1.2389 -0.0490
  867MOL0     H14439   2.948   5.727  10.463  1.2379  0.4994  0.0647
  867MOL0     H14440   2.820   5.880  10.315  1.0421  0.1702  0.7505
  867MOL0     H14441   2.771   5.721  10.296  2.1600 -2.0810  2.0360
  867MOL0     H14442   2.422   5.883  10.480 -1.2462 -1.6184 -1.6385
  867MOL0     H14443   3.127   5.623  10.546 -0.6991 -0.4718 -0.1380
  867MOL0     H14444   3.286   5.468  10.631  0.7959 -0.9782  1.2069
  868MOL0     O14445  11.150   4.144   4.650  0.6314  0.4289  0.7841
  868MOL0     C14446  11.214   4.138   4.750 -0.4837 -0.3275  0.5195
  868MOL0     O14447  11.169   4.122   4.872  0.2715 -0.6260 -0.1652
  868MOL0     C14448  11.034   4.127   4.892  0.0611 -0.4270  0.1611
  868MOL0     C14449  10.941   4.036   4.837 -0.1465  0.5024  0.2149
  868MOL0     C14450  10.802   4.034   4.872  0.2029  0.3240 -0.6697
  868MOL0     C14451  10.768   4.128   4.971  0.6544  0.0438 -0.0254
  868MOL0     O14452  10.640   4.122   5.029  0.1486  0.4924 -0.7522
  868MOL0     C14453  10.528   4.112   4.939 -0.8087  0.5669  0.0199
  868MOL0     C14454  10.410   4.144   5.037  0.0838 -0.2584  0.1089
  868MOL0     C14455  10.284   4.171   4.955  0.5042 -0.2134  0.2092
  868MOL0     C14456  10.167   4.203   5.038 -0.8430  0.6864  1.0353
  868MOL0     C14457  10.043   4.221   4.948 -0.2722  0.0116 -0.5347
  868MOL0     C14458   9.927   4.241   5.035  0.0150 -0.7900 -0.3943
  868MOL0     C14459   9.800   4.271   4.951 -0.8646  0.0408  0.2741
  868MOL0     C14460   9.670   4.293   5.031 -1.2329  0.5104  0.3758
  868MOL0     N14461   9.558   4.321   4.947  0.1475 -0.4106  0.4036
  868MOL0     C14462   9.493   4.437   4.934 -0.2421  0.3692 -0.4389
  868MOL0     C14463   9.380   4.406   4.871  0.1308  0.5142 -0.4726
  868MOL0     C14464   9.284   4.515   4.830 -0.5950  0.0828 -0.2716
  868MOL0     C14465   9.338   4.638   4.758  0.2818  0.4731  0.7156
  868MOL0     C14466   9.404   4.598   4.621 -0.6355 -0.1862  0.4215
  868MOL0     C14467   9.462   4.722   4.546 -0.0070 -0.3287 -0.3115
  868MOL0     O14468   9.384   4.833   4.551  0.2870  0.0765  0.1504
  868MOL0     C14469   9.272   4.853   4.469 -0.1359  1.5165  0.1143
  868MOL0     C14470   9.190   4.966   4.493  0.0312  0.2576 -0.5556
  868MOL0     C14471   9.079   5.004   4.412 -1.2257 -0.0001 -0.0146
  868MOL0     C14472   9.063   4.921   4.304 -0.4229  0.3099 -0.3927
  868MOL0     C14473   8.958   4.936   4.208  0.6032 -0.3806 -0.3024
  868MOL0     O14474   8.849   5.008   4.256  0.1049 -0.0578 -0.0925
  868MOL0     C14475   8.729   5.022   4.183  0.1971 -0.3850 -0.5323
  868MOL0     C14476   8.660   4.921   4.128 -0.7097  0.7657 -0.0602
  868MOL0     C14477   8.550   4.948   4.047  0.6051 -0.3641  0.4438
  868MOL0     C14478   8.503   5.080   4.036  0.7248 -0.1749  0.3395
  868MOL0     O14479   8.381   5.080   3.974 -0.5794  0.4355 -0.2312
  868MOL0     C14480   8.314   5.206   3.967  0.1290  0.1070 -0.0241
  868MOL0     C14481   8.214   5.214   3.850  0.4204  0.0509 -0.5144
  868MOL0     C14482   8.129   5.338   3.864  0.0716 -0.6787 -0.1236
  868MOL0     C14483   8.053   5.359   3.726 -0.8108 -0.0712 -0.6271
  868MOL0     C14484   7.958   5.486   3.743 -0.2043  0.6287 -0.8538
  868MOL0     C14485   7.842   5.488   3.645 -0.0113  1.5083 -0.3363
  868MOL0     C14486   7.740   5.591   3.673 -0.3679 -0.0954 -0.7201
  868MOL0     C14487   7.635   5.545   3.770 -0.0301 -0.5706 -0.3314
  868MOL0    Cl14488   7.544   5.690   3.837  0.1127  0.0171  0.4221
  868MOL0     C14489   8.566   5.184   4.101 -1.1093 -0.0200  0.5035
  868MOL0     C14490   8.677   5.150   4.177 -0.0347 -0.3059  0.4661
  868MOL0     O14491   8.967   4.884   4.099  0.4453  0.0857  0.4120
  868MOL0     C14492   9.145   4.807   4.282 -0.3811  0.5970 -0.1422
  868MOL0     C14493   9.248   4.766   4.366  0.2182 -0.3425  1.2265
  868MOL0     N14494   9.367   4.267   4.870 -0.2505  0.0585  0.1256
  868MOL0     N14495   9.474   4.222   4.911  0.0225  0.8168 -0.3540
  868MOL0     C14496  10.854   4.219   5.026 -0.1622  1.0535  0.9012
  868MOL0     C14497  10.988   4.228   4.984  0.3627  0.7262  0.1429
  868MOL0     C14498  11.356   4.176   4.749 -0.5247 -0.0469  0.6135
  868MOL0     C14499  11.447   4.135   4.842  0.8769  0.2682  0.1142
  868MOL0     C14500  11.586   4.152   4.828  0.3173  0.2923 -0.1206
  868MOL0     C14501  11.639   4.213   4.709  0.1297  0.7274 -0.3656
  868MOL0     O14502  11.777   4.224   4.676 -0.0426 -0.2734  0.2732
  868MOL0     C14503  11.875   4.201   4.775 -0.0793 -0.3783 -0.0122
  868MOL0     C14504  12.025   4.203   4.725 -0.2020 -0.3008 -0.7955
  868MOL0     C14505  12.019   4.137   4.584 -0.0559  0.4249 -1.1671
  868MOL0     C14506  12.166   4.100   4.549 -0.4310 -0.5675  0.7988
  868MOL0     C14507  12.265   4.204   4.507 -0.6124  0.6666  1.2586
  868MOL0     C14508  12.353   4.274   4.474  0.0557  0.2628  0.4909
  868MOL0     C14509  11.545   4.248   4.614 -0.1851  0.3847  0.8178
  868MOL0     C14510  11.407   4.235   4.631  0.2910  0.1760  0.5117
  868MOL0     H14511  10.986   3.955   4.781 -0.3366 -0.3619  1.2930
  868MOL0     H14512  10.726   3.963   4.842  0.8556 -0.3889 -0.6637
  868MOL0     H14513  10.533   4.011   4.897 -1.2067  0.1653  0.8958
  868MOL0     H14514  10.541   4.181   4.855  0.8240 -0.4102 -0.5746
  868MOL0     H14515  10.430   4.224   5.108 -0.6557  0.8357 -0.8704
  868MOL0     H14516  10.395   4.051   5.093 -2.7846 -0.5039 -0.9030
  868MOL0     H14517  10.270   4.086   4.888  3.1618  0.5583 -1.4945
  868MOL0     H14518  10.296   4.260   4.892 -1.5192 -0.2755 -0.3167
  868MOL0     H14519  10.149   4.114   5.099  0.4811 -0.3029  0.0458
  868MOL0     H14520  10.197   4.288   5.100  0.5605  0.4828  0.6577
  868MOL0     H14521  10.030   4.130   4.888 -0.9502 -0.0536 -0.3000
  868MOL0     H14522  10.049   4.307   4.881 -2.0216  0.3134 -0.3457
  868MOL0     H14523   9.936   4.317   5.113  0.6812  0.7513 -1.9326
  868MOL0     H14524   9.918   4.144   5.087 -1.5957  0.5691  2.0782
  868MOL0     H14525   9.829   4.359   4.893 -3.2035 -0.1401 -1.2945
  868MOL0     H14526   9.781   4.190   4.881 -0.6793 -1.7099  2.1644
  868MOL0     H14527   9.677   4.366   5.112 -0.4222  1.1746 -0.2737
  868MOL0     H14528   9.651   4.198   5.082 -2.0259 -0.6850 -2.0063
  868MOL0     H14529   9.516   4.532   4.981  0.9747 -1.3710  2.8796
  868MOL0     H14530   9.238   4.556   4.921  1.4659 -0.4589  1.0647
  868MOL0     H14531   9.201   4.480   4.769 -0.2366  1.2750 -1.4982
  868MOL0     H14532   9.412   4.680   4.827 -0.3764  0.3598  1.5038
  868MOL0     H14533   9.260   4.714   4.749 -0.0815  0.5860  3.7697
  868MOL0     H14534   9.486   4.526   4.626 -1.1070 -0.7871 -0.2384
  868MOL0     H14535   9.336   4.542   4.556  0.8870 -0.5381 -0.9420
  868MOL0     H14536   9.472   4.687   4.443 -0.9591  1.8655 -1.2115
  868MOL0     H14537   9.556   4.748   4.596  0.8024 -0.1805 -1.8761
  868MOL0     H14538   9.209   5.032   4.577 -2.5207 -0.7448  0.9178
  868MOL0     H14539   9.032   5.100   4.429  0.0115  0.0021  5.5117
  868MOL0     H14540   8.700   4.821   4.130  2.8629  2.0312  2.7343
  868MOL0     H14541   8.502   4.866   3.995  2.9255 -0.2686 -2.0845
  868MOL0     H14542   8.383   5.288   3.944  0.6273 -0.6621 -1.3532
  868MOL0     H14543   8.271   5.231   4.064 -1.6054 -1.1689 -0.4069
  868MOL0     H14544   8.144   5.129   3.853  0.8569 -0.3952 -1.8341
  868MOL0     H14545   8.268   5.217   3.755  0.6607 -0.2170 -0.3880
  868MOL0     H14546   8.176   5.434   3.888 -0.6788 -0.1218 -0.8307
  868MOL0     H14547   8.048   5.328   3.937 -0.9917 -0.0166 -1.1867
  868MOL0     H14548   8.122   5.358   3.641 -2.4779 -0.7996 -2.0186
  868MOL0     H14549   7.997   5.265   3.727  0.0507 -0.6162 -1.4223
  868MOL0     H14550   8.026   5.569   3.721 -0.3263  0.4810 -1.8661
  868MOL0     H14551   7.910   5.501   3.840 -0.3046 -3.0102 -0.2183
  868MOL0     H14552   7.787   5.395   3.630  1.6792  0.6626 -1.6372
  868MOL0     H14553   7.896   5.498   3.550  2.7334 -2.1700  0.5913
  868MOL0     H14554   7.790   5.684   3.702 -0.2546 -1.0684  2.6058
  868MOL0     H14555   7.690   5.613   3.578  0.5025 -2.1393 -1.7161
  868MOL0     H14556   7.681   5.502   3.859 -2.5210  1.3294  2.0541
  868MOL0     H14557   7.571   5.473   3.718  0.2623 -1.0829  0.0068
  868MOL0     H14558   8.524   5.284   4.104 -1.5493 -0.2170  1.3541
  868MOL0     H14559   8.732   5.214   4.245  2.0168 -1.1440 -0.3050
  868MOL0     H14560   9.139   4.735   4.201  1.9196 -0.4753  0.5438
  868MOL0     H14561   9.303   4.678   4.334 -1.5824 -0.4484 -2.0030
  868MOL0     H14562  10.820   4.284   5.106 -1.0436 -0.3835  1.7340
  868MOL0     H14563  11.053   4.303   5.029 -0.5850  1.5061  0.2558
  868MOL0     H14564  11.398   4.090   4.928 -0.1265  0.7206 -0.1976
  868MOL0     H14565  11.637   4.114   4.916 -0.8406  0.1125  0.4918
  868MOL0     H14566  11.844   4.109   4.827 -2.4790  0.5831  0.3796
  868MOL0     H14567  11.859   4.270   4.858 -0.2700 -1.0428  0.5181
  868MOL0     H14568  12.073   4.301   4.727 -0.5923 -0.1000 -1.0202
  868MOL0     H14569  12.087   4.139   4.788  2.6519  0.6112 -2.5008
  868MOL0     H14570  11.979   4.210   4.514 -2.5990  1.2609  0.9931
  868MOL0     H14571  11.953   4.050   4.580  2.3108 -1.5139 -1.0798
  868MOL0     H14572  12.216   4.061   4.639 -0.0232 -1.1537  0.3251
  868MOL0     H14573  12.164   4.020   4.475  0.4918  0.5445 -0.4889
  868MOL0     H14574  12.430   4.341   4.442 -0.0570 -0.1945 -0.7919
  868MOL0     H14575  11.569   4.279   4.512  0.1530  2.7341  1.5425
  868MOL0     H14576  11.339   4.255   4.549  0.4846 -1.9777 -0.2349
  869MOL0     O14577   5.561   0.659   9.281 -0.2466  0.3481 -0.0644
  869MOL0     C14578   5.539   0.777   9.295 -0.0404 -0.1872  0.1070
  869MOL0     O14579   5.422   0.836   9.249 -0.7234  0.1830 -0.1199
  869MOL0     C14580   5.326   0.766   9.184  0.4702 -0.4840  0.6336
  869MOL0     C14581   5.202   0.819   9.207 -0.3847 -0.0004  1.0257
  869MOL0     C14582   5.094   0.763   9.145 -0.2892  0.2918 -0.5910
  869MOL0     C14583   5.106   0.656   9.050  0.4660 -0.3841 -0.3826
  869MOL0     O14584   4.997   0.602   8.979  0.3934  0.1130  0.2563
  869MOL0     C14585   4.873   0.620   9.038 -0.2282 -0.4427 -0.0381
  869MOL0     C14586   4.762   0.540   8.977  0.0620 -0.3129  0.4802
  869MOL0     C14587   4.642   0.534   9.076 -0.4556 -0.9032  0.0367
  869MOL0     C14588   4.531   0.447   9.013  0.2483  0.1929  0.0335
  869MOL0     C14589   4.419   0.430   9.115  0.2521 -0.0232 -0.2808
  869MOL0     C14590   4.338   0.562   9.130  0.1617 -0.0538  0.0955
  869MOL0     C14591   4.201   0.534   9.185  0.1118 -0.9182  0.5304
  869MOL0     C14592   4.194   0.517   9.342  0.3458 -0.6717  0.2952
  869MOL0     N14593   4.053   0.527   9.385 -0.1565 -0.0817 -0.2427
  869MOL0     C14594   3.941   0.466   9.325  0.4012  0.1246 -0.2332
  869MOL0     C14595   3.835   0.498   9.409  0.5940  0.6862  0.2999
  869MOL0     C14596   3.690   0.458   9.378 -0.1661 -0.0171 -0.2306
  869MOL0     C14597   3.600   0.501   9.493 -0.2446  0.2340 -0.1997
  869MOL0     C14598   3.457   0.463   9.452  0.3740  0.8049 -0.3660
  869MOL0     C14599   3.356   0.500   9.557 -0.7441  0.0233  0.0225
  869MOL0     O14600   3.223   0.469   9.507  0.3235  0.0931  0.2981
  869MOL0     C14601   3.111   0.500   9.578  0.2436  0.0291  0.3582
  869MOL0     C14602   2.993   0.447   9.528  0.1955  0.2166 -0.0989
  869MOL0     C14603   2.869   0.485   9.582  0.2268 -0.0989  0.2015
  869MOL0     C14604   2.869   0.558   9.699 -0.2714 -0.7446 -0.3554
  869MOL0     C14605   2.739   0.566   9.781 -0.5197  0.2144 -0.9732
  869MOL0     O14606   2.634   0.511   9.717  0.3070 -0.6622 -0.5881
  869MOL0     C14607   2.516   0.504   9.777 -0.1504 -0.6171 -0.0016
  869MOL0     C14608   2.424   0.412   9.724 -1.2569  0.1354 -0.2936
  869MOL0     C14609   2.302   0.386   9.789  0.8224 -0.2605 -0.1284
  869MOL0     C14610   2.256   0.472   9.884  0.0210  0.1020 -0.0627
  869MOL0     O14611   2.133   0.458   9.920  0.9591  0.7724 -0.0688
  869MOL0     C14612   2.070   0.534  10.026  0.7339  0.3928 -0.6200
  869MOL0     C14613   1.917   0.496  10.047  0.2456 -0.1651  0.7234
  869MOL0     C14614   1.865   0.589  10.163 -0.6591 -0.0251 -0.3893
  869MOL0     C14615   1.720   0.568  10.205 -0.2797  0.4879  0.6132
  869MOL0     C14616   1.603   0.620  10.113 -0.3556  0.1945 -0.3336
  869MOL0     C14617   1.476   0.661  10.187 -0.4962  0.0927  0.0858
  869MOL0     C14618   1.352   0.683  10.091  0.3036 -0.4758  0.1702
  869MOL0     C14619   1.231   0.715  10.168 -1.0062 -0.6481  0.3070
  869MOL0    Cl14620   1.190   0.580  10.267  0.0949  0.1184 -0.0031
  869MOL0     C14621   2.346   0.564   9.936  0.3860 -0.1540  0.8114
  869MOL0     C14622   2.471   0.589   9.886  0.3453  0.3661 -0.3054
  869MOL0     O14623   2.752   0.613   9.898  0.9961 -0.1035 -0.6838
  869MOL0     C14624   2.985   0.619   9.751 -0.6644  0.8765 -0.0749
  869MOL0     C14625   3.105   0.583   9.689 -0.7749  0.5728  0.2986
  869MOL0     N14626   3.876   0.584   9.502 -0.1992 -0.3467  0.4668
  869MOL0     N14627   4.007   0.601   9.484  0.3806  0.0101 -0.0535
  869MOL0     C14628   5.229   0.604   9.025 -0.3861 -0.1822  0.2113
  869MOL0     C14629   5.346   0.663   9.086 -0.1566  0.3226  0.2998
  869MOL0     C14630   5.635   0.858   9.374  0.0291  0.2721  0.4413
  869MOL0     C14631   5.755   0.812   9.408  0.4273  0.5138 -0.2232
  869MOL0     C14632   5.845   0.891   9.481 -0.1572 -0.1629 -1.6281
  869MOL0     C14633   5.813   1.021   9.528  0.0726  0.3191 -0.0988
  869MOL0     O14634   5.901   1.099   9.589 -0.4703 -0.1119 -0.0165
  869MOL0     C14635   6.016   1.047   9.651 -0.7333 -0.9568  0.6156
  869MOL0     C14636   6.064   1.128   9.771 -0.0774  0.7290 -0.4173
  869MOL0     C14637   5.947   1.160   9.873 -0.0210 -0.6682 -0.3320
  869MOL0     C14638   6.001   1.247   9.993 -0.9952 -0.6467  0.0835
  869MOL0     C14639   5.889   1.297  10.076 -0.5889 -1.3031  0.4638
  869MOL0     C14640   5.799   1.334  10.145 -0.1209 -0.6824  0.3251
  869MOL0     C14641   5.696   1.076   9.481  0.1086  0.0101  0.5277
  869MOL0     C14642   5.610   0.994   9.398 -0.1338 -0.5650 -0.8206
  869MOL0     H14643   5.193   0.916   9.255 -1.0773  0.5263 -0.1291
  869MOL0     H14644   4.997   0.808   9.165 -0.5442 -1.3709  2.5969
  869MOL0     H14645   4.849   0.726   9.029  1.4944  0.0591  0.7038
  869MOL0     H14646   4.887   0.594   9.143 -0.4980  1.6912  0.5773
  869MOL0     H14647   4.784   0.435   8.953 -1.8613 -0.9628  1.3098
  869MOL0     H14648   4.733   0.596   8.888  0.5029  1.8279  1.6200
  869MOL0     H14649   4.611   0.634   9.109  1.6585 -1.0869  2.9852
  869MOL0     H14650   4.667   0.487   9.172 -0.9471 -1.2383  0.0047
  869MOL0     H14651   4.486   0.489   8.923  0.0994  0.9783  0.4631
  869MOL0     H14652   4.557   0.346   8.982 -4.0767 -0.0150 -3.9343
  869MOL0     H14653   4.467   0.416   9.212  2.0686  0.1758 -1.1047
  869MOL0     H14654   4.356   0.346   9.087  2.9806 -1.7707 -1.6103
  869MOL0     H14655   4.326   0.609   9.032  0.7974 -1.2326 -0.5635
  869MOL0     H14656   4.387   0.638   9.192  0.7274 -0.3247 -0.0097
  869MOL0     H14657   4.133   0.617   9.164  0.0716 -0.7961  1.1179
  869MOL0     H14658   4.159   0.455   9.123 -1.4877  2.9199 -3.8971
  869MOL0     H14659   4.254   0.591   9.396 -0.8238 -0.7831  1.8082
  869MOL0     H14660   4.232   0.418   9.368 -0.6078 -0.7185  1.6226
  869MOL0     H14661   3.926   0.408   9.235 -2.5602  0.6709 -0.1950
  869MOL0     H14662   3.695   0.349   9.368 -0.1985  0.0740 -1.4233
  869MOL0     H14663   3.658   0.510   9.287 -0.4727  1.1437  0.5165
  869MOL0     H14664   3.602   0.609   9.515 -3.2402  0.4406 -0.5216
  869MOL0     H14665   3.638   0.448   9.581  2.2693 -1.5190 -2.2271
  869MOL0     H14666   3.423   0.498   9.354 -0.7554 -0.8001 -0.5907
  869MOL0     H14667   3.458   0.354   9.459 -1.8284  0.8454  2.5561
  869MOL0     H14668   3.370   0.606   9.579  0.4952 -0.1830  0.3069
  869MOL0     H14669   3.368   0.441   9.648  0.9097 -1.0789 -0.8670
  869MOL0     H14670   2.987   0.377   9.446 -0.6325 -1.2174  1.1370
  869MOL0     H14671   2.774   0.449   9.544 -0.2461  0.5757  0.7211
  869MOL0     H14672   2.459   0.342   9.649  0.6657 -1.8018  2.2088
  869MOL0     H14673   2.240   0.312   9.740 -2.4955  1.5616  1.0158
  869MOL0     H14674   2.062   0.638   9.992  0.6755 -0.4292 -3.3058
  869MOL0     H14675   2.134   0.527  10.115  0.2812 -0.1724 -0.3328
  869MOL0     H14676   1.916   0.387  10.057  4.4161 -0.5830 -1.4662
  869MOL0     H14677   1.867   0.525   9.954 -3.2013 -2.2060  1.7537
  869MOL0     H14678   1.878   0.696  10.143  1.7658 -0.2866 -0.5194
  869MOL0     H14679   1.922   0.569  10.255  4.0329  1.7269 -2.6072
  869MOL0     H14680   1.696   0.461  10.209 -1.1305  0.6928  0.9744
  869MOL0     H14681   1.713   0.623  10.299 -0.1080  0.0791  0.8695
  869MOL0     H14682   1.590   0.538  10.043  1.6778  1.1362 -1.9402
  869MOL0     H14683   1.627   0.707  10.051 -1.4164  2.6782  2.4966
  869MOL0     H14684   1.497   0.746  10.253 -0.4367 -1.6375  2.4375
  869MOL0     H14685   1.460   0.588  10.266  2.7458  1.6209  2.4002
  869MOL0     H14686   1.380   0.764  10.023  5.5679 -0.5767  1.7510
  869MOL0     H14687   1.347   0.590  10.033  1.3210  1.5043 -3.4306
  869MOL0     H14688   1.143   0.731  10.104  0.4181 -1.2948 -1.8986
  869MOL0     H14689   1.247   0.805  10.228  2.1057 -0.5759 -0.4656
  869MOL0     H14690   2.324   0.620  10.026  0.6503 -1.7445  1.9119
  869MOL0     H14691   2.530   0.669   9.929  0.2190 -0.2424  1.0355
  869MOL0     H14692   2.978   0.684   9.838 -3.6078  1.3663 -0.6035
  869MOL0     H14693   3.202   0.617   9.725  0.3122 -1.0540 -0.9574
  869MOL0     H14694   5.238   0.518   8.959 -1.1299  0.6970 -1.0649
  869MOL0     H14695   5.443   0.618   9.070 -1.3708 -1.8518 -1.5864
  869MOL0     H14696   5.777   0.715   9.362  0.1233 -0.8393  2.3323
  869MOL0     H14697   5.946   0.854   9.499 -0.4253 -0.1290  0.2255
  869MOL0     H14698   6.090   1.026   9.573  0.0908  0.5837  0.9410
  869MOL0     H14699   5.991   0.947   9.686  0.3219 -1.3374  0.3255
  869MOL0     H14700   6.137   1.066   9.823 -1.2759 -0.2202  0.1751
  869MOL0     H14701   6.116   1.221   9.744 -1.2847  1.4627 -0.3100
  869MOL0     H14702   5.908   1.068   9.918  1.3596 -0.5841  1.1087
  869MOL0     H14703   5.865   1.212   9.823 -1.3153 -0.6978  1.6500
  869MOL0     H14704   6.066   1.181  10.050 -0.3191 -0.5411 -0.5480
  869MOL0     H14705   6.055   1.331   9.948 -0.4648 -1.2311 -0.3876
  869MOL0     H14706   5.738   1.377  10.222 -0.4955  0.1851 -0.4395
  869MOL0     H14707   5.660   1.176   9.501 -0.6714 -0.2881  0.6321
  869MOL0     H14708   5.520   1.035   9.353 -0.4634 -0.7206 -0.3125
  870MOL0     O14709  10.931   4.361   9.013  0.1975  0.2816 -0.0752
  870MOL0     C14710  11.019   4.281   9.034 -0.0384 -0.4824 -0.1099
  870MOL0     O14711  11.005   4.168   9.108  0.2826  0.1319  0.5082
  870MOL0     C14712  10.882   4.133   9.161  0.4132  0.1605 -0.9570
  870MOL0     C14713  10.871   4.114   9.302  0.0383  1.5676 -0.6480
  870MOL0     C14714  10.747   4.074   9.359  0.5497 -0.6094 -0.1237
  870MOL0     C14715  10.633   4.056   9.276 -0.7136 -0.7621  0.1541
  870MOL0     O14716  10.517   4.006   9.323 -0.2595 -0.1279 -0.2698
  870MOL0     C14717  10.518   3.864   9.354 -0.8336  0.7338 -0.4172
  870MOL0     C14718  10.384   3.794   9.374 -0.7920 -0.3729  0.0037
  870MOL0     C14719  10.304   3.844   9.492 -0.1321  0.2048 -0.0911
  870MOL0     C14720  10.200   3.736   9.532  0.2345 -0.3213 -0.2561
  870MOL0     C14721  10.090   3.778   9.632 -0.5840 -0.1525  0.1218
  870MOL0     C14722  10.014   3.661   9.683  0.3083 -0.0337  0.3635
  870MOL0     C14723   9.899   3.713   9.768 -0.5141 -0.4626 -0.0320
  870MOL0     C14724   9.930   3.748   9.913 -0.8021 -0.0768 -0.5328
  870MOL0     N14725   9.830   3.839   9.977  0.1182  0.4007 -0.1270
  870MOL0     C14726   9.695   3.850   9.953 -0.7784  1.7005 -0.5132
  870MOL0     C14727   9.645   3.928  10.052 -0.5320 -0.5135  0.5835
  870MOL0     C14728   9.505   3.977  10.072 -0.2999  0.1384 -0.2349
  870MOL0     C14729   9.509   4.111  10.129  1.0251 -0.9002  0.4995
  870MOL0     C14730   9.383   4.142  10.211 -0.4481  0.2613  0.0653
  870MOL0     C14731   9.255   4.153  10.134  0.3269 -0.6664  1.4581
  870MOL0     O14732   9.161   4.234  10.195 -0.0254  0.2692 -0.0379
  870MOL0     C14733   9.027   4.216  10.153 -0.3933 -0.3427  0.8708
  870MOL0     C14734   8.993   4.150  10.033  0.3122  0.1002 -1.0840
  870MOL0     C14735   8.865   4.118  10.013  0.1555  0.2987 -0.4949
  870MOL0     C14736   8.759   4.158  10.089  0.0967 -0.0133 -1.0074
  870MOL0     C14737   8.617   4.117  10.050  0.3717 -0.2876  0.1852
  870MOL0     O14738   8.512   4.163  10.123 -1.0613  0.3840 -0.0668
  870MOL0     C14739   8.375   4.138  10.089 -0.5087  0.8930  0.0569
  870MOL0     C14740   8.326   4.058   9.996 -0.3078  1.1255  0.5264
  870MOL0     C14741   8.187   4.026   9.980  0.3534  0.6363 -0.0447
  870MOL0     C14742   8.092   4.074  10.076  0.1369 -0.2442 -0.0699
  870MOL0     O14743   7.950   4.049  10.072 -0.2282 -0.3401 -0.7311
  870MOL0     C14744   7.909   3.951   9.979 -0.2832  0.8055 -0.3910
  870MOL0     C14745   7.759   3.931  10.007 -1.2205 -0.2478  0.3308
  870MOL0     C14746   7.709   3.853   9.887  0.4295  0.8286  0.6648
  870MOL0     C14747   7.577   3.779   9.926 -0.4055 -0.3162  0.1741
  870MOL0     C14748   7.513   3.701   9.816 -0.0398 -0.0719 -0.3668
  870MOL0     C14749   7.392   3.781   9.761 -1.1574 -0.5611  0.7702
  870MOL0     C14750   7.326   3.692   9.650  0.3551 -0.9649 -0.5604
  870MOL0     C14751   7.182   3.652   9.678 -0.1088  0.2849 -0.2404
  870MOL0    Cl14752   7.189   3.526   9.818 -0.0787  0.4440  0.1169
  870MOL0     C14753   8.148   4.157  10.177  0.1316 -0.7889  0.0892
  870MOL0     C14754   8.279   4.195  10.176 -0.1479  0.8491 -0.3670
  870MOL0     O14755   8.605   4.037   9.958 -0.0894  0.5455  0.6898
  870MOL0     C14756   8.787   4.229  10.211 -0.1313 -0.9105  0.6640
  870MOL0     C14757   8.924   4.256  10.241  0.9139  0.4642  0.1913
  870MOL0     N14758   9.748   3.943  10.138  0.1346  0.4473 -0.2054
  870MOL0     N14759   9.848   3.878  10.102 -0.3698  0.8803  0.0740
  870MOL0     C14760  10.637   4.081   9.138 -0.2447 -0.0075  0.1594
  870MOL0     C14761  10.761   4.114   9.079 -0.2265  0.0916 -0.5891
  870MOL0     C14762  11.155   4.301   8.964  0.0741 -0.1182 -0.4607
  870MOL0     C14763  11.231   4.190   8.936 -0.5491  0.3223  0.1574
  870MOL0     C14764  11.346   4.202   8.863  0.5098 -0.3474 -0.2223
  870MOL0     C14765  11.380   4.329   8.809 -0.2202  0.8380  0.1376
  870MOL0     O14766  11.500   4.364   8.747  0.3478 -0.0268  0.0596
  870MOL0     C14767  11.603   4.267   8.711  0.5076 -0.3715  0.7997
  870MOL0     C14768  11.724   4.345   8.686 -0.3940 -0.3553  0.8360
  870MOL0     C14769  11.835   4.252   8.620  0.1290  0.3605 -0.4131
  870MOL0     C14770  11.899   4.159   8.729  0.4169  0.3476  1.0845
  870MOL0     C14771  12.001   4.080   8.678 -0.0676 -0.0480 -0.1656
  870MOL0     C14772  12.097   4.009   8.636 -0.5768 -0.1159 -0.6437
  870MOL0     C14773  11.311   4.437   8.838 -0.3239 -0.8316 -0.0802
  870MOL0     C14774  11.192   4.425   8.921 -0.3338  0.4546 -0.5943
  870MOL0     H14775  10.951   4.110   9.376  0.2731 -0.0636 -0.9500
  870MOL0     H14776  10.738   4.063   9.467 -0.0002  2.0165  0.1664
  870MOL0     H14777  10.593   3.837   9.429 -1.4641  2.5242  0.9295
  870MOL0     H14778  10.550   3.815   9.261 -0.5147 -1.0406  0.5834
  870MOL0     H14779  10.399   3.686   9.374 -3.3802 -0.7938  0.0380
  870MOL0     H14780  10.331   3.811   9.279  0.0378 -2.9967 -1.0120
  870MOL0     H14781  10.248   3.937   9.478 -1.0725 -0.5976 -1.9250
  870MOL0     H14782  10.380   3.865   9.569  1.0520  0.3622 -1.2683
  870MOL0     H14783  10.159   3.700   9.438  0.3384 -0.1106 -0.3806
  870MOL0     H14784  10.245   3.647   9.578  0.0179 -0.8069 -0.9637
  870MOL0     H14785  10.020   3.840   9.575  1.8264  2.8100  0.1451
  870MOL0     H14786  10.127   3.833   9.719 -3.7199  0.7900  1.0074
  870MOL0     H14787  10.084   3.592   9.732  0.0230  0.4849  1.5437
  870MOL0     H14788   9.974   3.598   9.603 -2.5872  1.6430  0.3668
  870MOL0     H14789   9.848   3.789   9.709  0.7013  0.0364 -0.4802
  870MOL0     H14790   9.822   3.636   9.777 -1.8927  0.7735 -0.9032
  870MOL0     H14791  10.029   3.794   9.911  0.6502 -2.9870 -0.4054
  870MOL0     H14792   9.945   3.651   9.962  1.2610 -0.0263 -0.9663
  870MOL0     H14793   9.655   3.805   9.862  1.8323  0.3761 -1.1102
  870MOL0     H14794   9.450   3.904  10.132 -1.8809 -0.8815 -2.7372
  870MOL0     H14795   9.443   3.988   9.982 -2.1674 -2.0061  0.6630
  870MOL0     H14796   9.516   4.188  10.051  1.5442 -0.5591  0.8694
  870MOL0     H14797   9.598   4.133  10.189  1.0985 -0.5365  0.2588
  870MOL0     H14798   9.368   4.071  10.293  0.9606 -1.3408 -0.9871
  870MOL0     H14799   9.406   4.237  10.260 -0.5796  1.3468 -1.8703
  870MOL0     H14800   9.200   4.059  10.121 -0.1087 -0.8554  4.0893
  870MOL0     H14801   9.287   4.199  10.040 -1.5281 -2.0303  0.0634
  870MOL0     H14802   9.069   4.122   9.961 -0.0080  1.3005 -1.9123
  870MOL0     H14803   8.841   4.066   9.921 -0.5005 -1.2924  0.5192
  870MOL0     H14804   8.387   3.995   9.932 -2.3749  0.2851 -0.6923
  870MOL0     H14805   8.168   3.958   9.898 -0.2362  3.3343 -2.3175
  870MOL0     H14806   7.965   3.858   9.983  0.4724  1.2869  0.6576
  870MOL0     H14807   7.920   3.998   9.881  2.4836  1.9290  0.3722
  870MOL0     H14808   7.705   4.025  10.020 -0.6858 -0.0617  1.2514
  870MOL0     H14809   7.738   3.876  10.100 -2.8754  0.4372  0.3888
  870MOL0     H14810   7.783   3.777   9.857  1.7317  2.6686 -1.0442
  870MOL0     H14811   7.707   3.910   9.793 -2.3119 -3.0982 -2.0236
  870MOL0     H14812   7.583   3.711  10.012 -0.0032  0.8320  1.0758
  870MOL0     H14813   7.509   3.852   9.969  0.5857  1.3875 -1.0158
  870MOL0     H14814   7.482   3.602   9.851 -2.2166  0.3276 -0.9948
  870MOL0     H14815   7.586   3.672   9.739 -0.6614 -1.5945 -0.4255
  870MOL0     H14816   7.419   3.883   9.731  2.1635 -1.8475 -1.1297
  870MOL0     H14817   7.327   3.804   9.846  0.1251 -0.1745  1.6880
  870MOL0     H14818   7.333   3.738   9.551 -3.2398  0.8178 -0.1483
  870MOL0     H14819   7.380   3.598   9.640  2.2912  0.0495 -0.1344
  870MOL0     H14820   7.146   3.608   9.584  1.6132  3.9401 -2.8822
  870MOL0     H14821   7.128   3.743   9.707 -1.7337 -0.8622  0.4667
  870MOL0     H14822   8.085   4.216  10.242 -0.6782 -1.0913 -0.4016
  870MOL0     H14823   8.316   4.254  10.260 -1.2475 -0.7313  1.2877
  870MOL0     H14824   8.701   4.258  10.270  0.4276 -0.3698  1.2267
  870MOL0     H14825   8.939   4.306  10.336 -4.5891  2.2958  0.4503
  870MOL0     H14826  10.553   4.072   9.070 -1.5421  0.9913  1.5839
  870MOL0     H14827  10.778   4.138   8.975  2.1897  0.5372 -0.1648
  870MOL0     H14828  11.206   4.090   8.969 -0.6619  0.7152  1.3052
  870MOL0     H14829  11.422   4.125   8.851 -0.3028 -1.3289  0.7631
  870MOL0     H14830  11.567   4.223   8.618  0.7904 -2.3505  1.5798
  870MOL0     H14831  11.613   4.185   8.783 -1.1076 -1.1356  0.2137
  870MOL0     H14832  11.705   4.430   8.620 -2.5205 -0.6233  1.0261
  870MOL0     H14833  11.772   4.389   8.774  2.8191 -2.7146  0.4383
  870MOL0     H14834  11.908   4.325   8.583 -2.0237  1.5407 -2.5805
  870MOL0     H14835  11.792   4.196   8.537 -2.1149 -1.2504  1.7027
  870MOL0     H14836  11.933   4.232   8.802 -0.6246  1.0109  0.9297
  870MOL0     H14837  11.824   4.089   8.769 -1.8140  1.6701 -0.5107
  870MOL0     H14838  12.177   3.938   8.625 -0.7965 -0.6961  1.1088
  870MOL0     H14839  11.341   4.535   8.801  0.4828 -1.5560 -1.3934
  870MOL0     H14840  11.141   4.516   8.949 -0.6234  0.5627 -1.4405
  871MOL0     O14841   4.410   2.644   3.780  0.2106 -0.4219 -0.1089
  871MOL0     C14842   4.435   2.537   3.827 -0.8168 -0.9025 -0.6977
  871MOL0     O14843   4.338   2.455   3.882 -0.1672  0.2856  0.3511
  871MOL0     C14844   4.205   2.502   3.908  1.0959 -0.3445  0.3178
  871MOL0     C14845   4.092   2.412   3.900  0.3857  0.7204 -0.2258
  871MOL0     C14846   3.966   2.453   3.928  0.5104 -0.4013 -0.7048
  871MOL0     C14847   3.948   2.582   3.980 -0.4597  0.3220 -0.2009
  871MOL0     O14848   3.823   2.592   4.034  0.6372 -0.1370  0.5332
  871MOL0     C14849   3.763   2.723   4.029 -0.1446  0.3251 -0.2719
  871MOL0     C14850   3.632   2.714   4.104  0.1364 -0.2581  0.3174
  871MOL0     C14851   3.540   2.819   4.046  0.4461 -0.0643 -0.0472
  871MOL0     C14852   3.435   2.854   4.154 -0.7091  0.9557 -0.3138
  871MOL0     C14853   3.330   2.948   4.106 -0.4883 -0.2259  0.0937
  871MOL0     C14854   3.235   2.979   4.226  0.0590  0.3104  0.1759
  871MOL0     C14855   3.117   3.076   4.191 -0.2447 -1.0342  0.4044
  871MOL0     C14856   3.023   3.086   4.309  0.0141  1.4428 -0.0855
  871MOL0     N14857   2.892   3.136   4.269  0.8404 -0.5919 -0.6144
  871MOL0     C14858   2.862   3.255   4.198 -0.1220 -0.0888  0.4771
  871MOL0     C14859   2.727   3.235   4.171  0.1912 -0.1441 -0.0541
  871MOL0     C14860   2.647   3.334   4.088  1.2543  0.2508  0.0903
  871MOL0     C14861   2.620   3.462   4.181 -1.2522  0.0906  0.3467
  871MOL0     C14862   2.505   3.424   4.285 -0.4844 -0.0624  0.3409
  871MOL0     C14863   2.513   3.512   4.416  0.2177 -0.4629  0.0969
  871MOL0     O14864   2.431   3.453   4.525  0.3014 -0.1921  0.1025
  871MOL0     C14865   2.300   3.493   4.514  0.2737 -0.1733  0.8260
  871MOL0     C14866   2.264   3.628   4.550  0.5049  0.2522 -0.4042
  871MOL0     C14867   2.137   3.667   4.550  0.2339 -0.0259  0.4697
  871MOL0     C14868   2.040   3.584   4.508 -0.3352  0.2196  0.0192
  871MOL0     C14869   1.901   3.631   4.486  0.2713 -0.2176 -0.5516
  871MOL0     O14870   1.806   3.542   4.423  0.2326 -0.3737 -0.0515
  871MOL0     C14871   1.683   3.602   4.401 -0.4174  0.5926  0.7648
  871MOL0     C14872   1.666   3.659   4.278  0.4740  0.2939 -0.1647
  871MOL0     C14873   1.544   3.732   4.257  0.5469  0.8403  0.4672
  871MOL0     C14874   1.441   3.743   4.358 -0.1234  0.4236 -0.2076
  871MOL0     O14875   1.323   3.812   4.326 -0.2092  0.5738  0.2723
  871MOL0     C14876   1.230   3.861   4.422 -0.3796 -0.5957 -0.3594
  871MOL0     C14877   1.102   3.792   4.396  0.9956 -0.1535 -0.4236
  871MOL0     C14878   1.040   3.809   4.258 -0.3047 -0.2961  0.2512
  871MOL0     C14879   0.910   3.740   4.251  0.3571  0.4664  0.1348
  871MOL0     C14880   0.791   3.827   4.282  1.1530  0.1913 -0.0803
  871MOL0     C14881   0.661   3.750   4.234  0.1470 -0.2736  0.7650
  871MOL0     C14882   0.541   3.854   4.218 -0.2962 -0.2445  0.6253
  871MOL0     C14883   0.539   3.936   4.082 -0.2533 -0.8246  0.5071
  871MOL0    Cl14884   0.508   3.820   3.946  0.2083 -0.0417  0.1301
  871MOL0     C14885   1.475   3.681   4.481  1.4191  0.1345  0.7621
  871MOL0     C14886   1.585   3.600   4.494  0.3482  0.9608 -0.2709
  871MOL0     O14887   1.874   3.743   4.525  0.2267 -1.1031  0.4975
  871MOL0     C14888   2.067   3.454   4.473 -0.1004 -0.1953  0.0315
  871MOL0     C14889   2.197   3.409   4.473  0.6604  0.7224  0.1582
  871MOL0     N14890   2.692   3.105   4.206  0.1290 -0.1131  0.4240
  871MOL0     N14891   2.776   3.059   4.278 -0.2251  0.3998  0.4057
  871MOL0     C14892   4.055   2.675   4.000  0.6010 -0.0684 -0.2214
  871MOL0     C14893   4.183   2.633   3.952  0.2975 -0.4737 -0.9438
  871MOL0     C14894   4.572   2.490   3.826 -0.1097 -0.5521 -0.8703
  871MOL0     C14895   4.596   2.347   3.826  0.3226 -0.6012  0.0196
  871MOL0     C14896   4.719   2.298   3.843  1.2821  0.2215  0.0476
  871MOL0     C14897   4.834   2.380   3.845  0.0480  0.0810  0.1484
  871MOL0     O14898   4.955   2.328   3.885 -0.3326  0.3007  0.4345
  871MOL0     C14899   5.070   2.405   3.829 -0.2014  0.4643 -0.8139
  871MOL0     C14900   5.184   2.309   3.800 -0.3631  0.1630 -0.1877
  871MOL0     C14901   5.319   2.386   3.781 -0.1016 -0.7984  0.4930
  871MOL0     C14902   5.438   2.295   3.771  0.1723 -0.3039 -0.1992
  871MOL0     C14903   5.559   2.380   3.779 -0.1084  0.6231  0.1082
  871MOL0     C14904   5.651   2.456   3.791  0.3916 -0.4060  0.1820
  871MOL0     C14905   4.813   2.519   3.856 -0.7674 -0.4232  0.3864
  871MOL0     C14906   4.685   2.574   3.828 -0.0528 -0.0428 -0.4715
  871MOL0     H14907   4.110   2.312   3.861 -0.7795  0.0570  0.8667
  871MOL0     H14908   3.880   2.390   3.908 -1.1721  1.1785  1.1268
  871MOL0     H14909   3.746   2.751   3.924  0.7643 -1.0650 -0.8207
  871MOL0     H14910   3.830   2.796   4.075  1.9199 -0.8746 -1.2104
  871MOL0     H14911   3.669   2.729   4.206  1.9897 -0.6969 -0.2454
  871MOL0     H14912   3.574   2.621   4.103  0.0709 -0.2203  0.4822
  871MOL0     H14913   3.482   2.781   3.962  2.4971 -0.5300 -1.3308
  871MOL0     H14914   3.596   2.900   3.998 -0.4968  0.0170 -1.0520
  871MOL0     H14915   3.384   2.765   4.191  1.1062  0.5875  1.4575
  871MOL0     H14916   3.487   2.900   4.238 -0.8550 -1.8031  1.4038
  871MOL0     H14917   3.270   2.890   4.035 -0.4649 -1.3998  1.0004
  871MOL0     H14918   3.362   3.044   4.066 -1.0076 -0.0880  0.0093
  871MOL0     H14919   3.297   3.022   4.305 -0.0691 -1.1995  1.1505
  871MOL0     H14920   3.198   2.881   4.257 -2.1268  0.3916 -1.8103
  871MOL0     H14921   3.150   3.177   4.166 -3.9082  0.8293  2.2881
  871MOL0     H14922   3.048   3.047   4.112 -1.6249  2.9572 -0.0881
  871MOL0     H14923   3.067   3.148   4.388 -0.5700  2.1271 -0.2872
  871MOL0     H14924   3.016   2.982   4.343 -3.0881  1.7413  0.5109
  871MOL0     H14925   2.932   3.333   4.170 -1.3300 -0.1727 -3.3935
  871MOL0     H14926   2.554   3.282   4.065  1.7817  0.4192 -2.6935
  871MOL0     H14927   2.692   3.371   3.996  0.4009  1.7467  0.2413
  871MOL0     H14928   2.581   3.542   4.119 -0.1758 -0.9980 -1.8522
  871MOL0     H14929   2.714   3.483   4.233 -0.3282 -3.8746  0.6167
  871MOL0     H14930   2.409   3.432   4.233  0.0520  0.9864 -0.5327
  871MOL0     H14931   2.524   3.319   4.312  0.5994 -1.1238 -3.8298
  871MOL0     H14932   2.464   3.608   4.402  0.4939 -0.0393  1.8161
  871MOL0     H14933   2.618   3.520   4.446  0.4613  1.2356 -1.0832
  871MOL0     H14934   2.346   3.688   4.587  1.2437 -1.5410  1.0004
  871MOL0     H14935   2.105   3.759   4.597 -1.0760 -1.0400  1.6590
  871MOL0     H14936   1.738   3.646   4.198 -0.7808 -0.8546 -1.1446
  871MOL0     H14937   1.545   3.776   4.157  1.9229 -2.4315 -1.0993
  871MOL0     H14938   1.210   3.967   4.403 -1.5935 -0.9761 -1.3910
  871MOL0     H14939   1.273   3.853   4.522 -2.9913  3.2276  1.3373
  871MOL0     H14940   1.038   3.833   4.476 -2.0736 -1.3749 -2.0821
  871MOL0     H14941   1.111   3.685   4.419  1.6463 -0.0030  0.0588
  871MOL0     H14942   1.116   3.765   4.193  0.7699  1.6577  0.0999
  871MOL0     H14943   1.025   3.911   4.221  1.2648 -0.3158 -0.5313
  871MOL0     H14944   0.899   3.688   4.156  1.6876  0.5166 -0.0718
  871MOL0     H14945   0.895   3.659   4.323 -2.4007 -0.3749 -1.2583
  871MOL0     H14946   0.808   3.921   4.230  0.2875  0.4375  0.0628
  871MOL0     H14947   0.784   3.843   4.390 -1.7736 -1.7760  0.1585
  871MOL0     H14948   0.634   3.674   4.307 -1.0908 -0.6769 -0.0932
  871MOL0     H14949   0.667   3.696   4.139 -3.5371  0.0359  0.2295
  871MOL0     H14950   0.447   3.800   4.228  0.8433 -1.9421  3.3570
  871MOL0     H14951   0.540   3.929   4.298 -0.0625  2.5375 -1.8101
  871MOL0     H14952   0.631   3.994   4.071  0.1507 -1.5142  0.1114
  871MOL0     H14953   0.456   4.007   4.077 -0.0583 -0.4125  2.5079
  871MOL0     H14954   1.397   3.692   4.556 -0.2453 -2.0518 -0.5580
  871MOL0     H14955   1.595   3.537   4.581 -0.1650  1.5321  0.2119
  871MOL0     H14956   1.989   3.382   4.452  1.9708 -2.4334 -0.4376
  871MOL0     H14957   2.210   3.304   4.450 -1.1010  0.4047  0.4630
  871MOL0     H14958   4.046   2.771   4.049 -1.1792  0.9398 -2.3599
  871MOL0     H14959   4.270   2.697   3.963  1.6372 -2.1633 -1.2624
  871MOL0     H14960   4.513   2.281   3.847  0.3301 -0.4942  0.4037
  871MOL0     H14961   4.735   2.194   3.869 -2.7735 -0.3630  1.0285
  871MOL0     H14962   5.088   2.484   3.902 -2.1386  0.6977 -0.5377
  871MOL0     H14963   5.043   2.447   3.732  1.7687 -1.6781 -2.4286
  871MOL0     H14964   5.204   2.246   3.887 -1.3311  0.4369  0.2445
  871MOL0     H14965   5.161   2.238   3.720  1.1064 -0.1312 -0.3754
  871MOL0     H14966   5.329   2.461   3.860  1.8838 -1.0710  0.5382
  871MOL0     H14967   5.303   2.440   3.687  0.1539  0.3689  1.1060
  871MOL0     H14968   5.434   2.218   3.848 -1.6364  1.5106  1.6610
  871MOL0     H14969   5.442   2.241   3.676  4.4019 -2.3513  0.9109
  871MOL0     H14970   5.729   2.529   3.789  1.3029 -1.3243 -2.8243
  871MOL0     H14971   4.896   2.588   3.870  0.7207 -2.0329 -0.1625
  871MOL0     H14972   4.678   2.682   3.820  1.6571  0.1158 -0.2996
  872MOL0     O14973   3.399   1.192   3.891 -0.3576  0.1543  0.0955
  872MOL0     C14974   3.446   1.273   3.975 -0.7453  0.1720 -0.2664
  872MOL0     O14975   3.382   1.337   4.075  0.6655  0.4356 -0.3055
  872MOL0     C14976   3.252   1.304   4.089  0.4663 -0.2712  0.0396
  872MOL0     C14977   3.153   1.363   4.008  0.3435  0.0256  0.0999
  872MOL0     C14978   3.014   1.335   4.031  0.4568 -0.0701  0.0227
  872MOL0     C14979   2.980   1.247   4.140  0.5447  0.7998 -0.2106
  872MOL0     O14980   2.841   1.221   4.163  0.0429  0.0955 -0.8328
  872MOL0     C14981   2.799   1.195   4.295  0.0376  0.0500  1.0782
  872MOL0     C14982   2.643   1.187   4.299  0.1737  0.2305 -0.8727
  872MOL0     C14983   2.582   1.064   4.361  0.2827  0.6011 -0.2791
  872MOL0     C14984   2.430   1.067   4.366  0.1946  0.1577  0.2634
  872MOL0     C14985   2.376   0.945   4.440  0.3411  0.2325  0.8590
  872MOL0     C14986   2.226   0.946   4.470 -0.4666  1.1941 -0.3969
  872MOL0     C14987   2.136   0.942   4.353  0.4698  0.0822  0.2166
  872MOL0     C14988   1.994   0.947   4.405 -0.0519  0.2925 -0.1761
  872MOL0     N14989   1.895   0.952   4.297 -0.7950 -0.2794 -0.6721
  872MOL0     C14990   1.848   1.071   4.254 -0.4754 -0.0584  0.2033
  872MOL0     C14991   1.799   1.033   4.129 -0.3868 -0.2216  0.1335
  872MOL0     C14992   1.711   1.122   4.044 -0.7941 -0.7393  0.6870
  872MOL0     C14993   1.567   1.110   4.061 -0.1684  0.4090  0.8091
  872MOL0     C14994   1.500   1.245   4.061 -0.0310  0.0789 -0.5101
  872MOL0     C14995   1.353   1.241   4.047  0.2296  0.1214  0.1144
  872MOL0     O14996   1.322   1.194   3.918 -0.1931  0.6337 -0.1534
  872MOL0     C14997   1.192   1.156   3.901  0.3075 -0.1265 -0.0816
  872MOL0     C14998   1.087   1.229   3.945  0.3823 -1.0511 -0.7227
  872MOL0     C14999   0.954   1.187   3.915 -0.5880 -0.4631  0.2819
  872MOL0     C15000   0.924   1.066   3.833  0.6429 -0.1953  0.3104
  872MOL0     C15001   0.792   1.015   3.792 -0.8845 -0.3664 -0.2287
  872MOL0     O15002   0.688   1.097   3.828  0.0826  1.1213 -0.5534
  872MOL0     C15003   0.561   1.059   3.800 -0.7944  0.8860  0.2136
  872MOL0     C15004   0.469   1.088   3.907  0.7130 -0.0609 -0.4594
  872MOL0     C15005   0.334   1.053   3.896  0.3657  0.1131 -0.3967
  872MOL0     C15006   0.288   0.984   3.785 -0.6642 -0.6226  0.2781
  872MOL0     O15007   0.162   0.935   3.755 -0.0008 -0.1372  0.1210
  872MOL0     C15008   0.056   1.028   3.785 -0.1127  0.2297  0.3988
  872MOL0     C15009   0.064   1.150   3.687 -0.0105  0.1384  0.5489
  872MOL0     C15010  -0.071   1.217   3.656  0.3645 -0.4775 -0.1736
  872MOL0     C15011  -0.174   1.122   3.588  0.7595  0.4311  0.0534
  872MOL0     C15012  -0.273   1.214   3.510  0.3030 -0.7761 -0.5129
  872MOL0     C15013  -0.414   1.160   3.514  0.3366 -0.1103  0.0483
  872MOL0     C15014  -0.486   1.142   3.654  0.8115  0.0968  0.5442
  872MOL0     C15015  -0.640   1.149   3.633  0.1426  0.7392 -0.5175
  872MOL0    Cl15016  -0.719   1.106   3.794 -0.0078 -0.0787 -0.0360
  872MOL0     C15017   0.383   0.969   3.680  0.3789  0.2289 -1.3031
  872MOL0     C15018   0.511   1.003   3.685 -0.4628 -0.4776 -0.3866
  872MOL0     O15019   0.785   0.909   3.731 -0.0821 -0.2966  0.3805
  872MOL0     C15020   1.040   1.000   3.788 -0.4937  0.3850 -0.4085
  872MOL0     C15021   1.167   1.043   3.827 -0.0607  0.0770  0.2979
  872MOL0     N15022   1.814   0.894   4.108 -0.6490 -0.4102 -1.1472
  872MOL0     N15023   1.875   0.849   4.206  0.8761 -0.3737 -0.0306
  872MOL0     C15024   3.082   1.190   4.216  0.2865 -0.0461 -0.7109
  872MOL0     C15025   3.219   1.219   4.192 -0.5214  0.7065 -0.8577
  872MOL0     C15026   3.594   1.281   3.970  0.1485 -0.2976  0.5052
  872MOL0     C15027   3.669   1.349   4.068 -0.7970  0.0292  0.1252
  872MOL0     C15028   3.807   1.338   4.067 -0.8501 -0.1527  0.2057
  872MOL0     C15029   3.876   1.259   3.978 -0.8903 -0.2323  0.1071
  872MOL0     O15030   4.013   1.238   3.972 -0.3751 -0.2909 -0.3716
  872MOL0     C15031   4.096   1.298   4.072 -0.2248 -0.5817  0.2402
  872MOL0     C15032   4.236   1.288   4.020 -0.3614  1.0460 -0.1418
  872MOL0     C15033   4.330   1.393   4.096 -0.6376  0.3363 -0.0989
  872MOL0     C15034   4.475   1.359   4.067 -0.8349  0.3762  0.5892
  872MOL0     C15035   4.566   1.439   4.139  0.0097  0.2542  0.5353
  872MOL0     C15036   4.636   1.527   4.185 -0.3416  0.8940 -1.0621
  872MOL0     C15037   3.801   1.204   3.872  0.4347  0.9808 -1.1594
  872MOL0     C15038   3.665   1.219   3.869  0.5383 -0.0222  0.7693
  872MOL0     H15039   3.191   1.436   3.938  1.7445  1.1879  1.9635
  872MOL0     H15040   2.938   1.373   3.964  0.5764  1.5923  0.7871
  872MOL0     H15041   2.830   1.276   4.361 -1.0128  0.6597  0.8371
  872MOL0     H15042   2.850   1.104   4.329  1.2060  0.2949  0.0406
  872MOL0     H15043   2.599   1.219   4.205 -1.8542  2.6100  0.7448
  872MOL0     H15044   2.611   1.251   4.382 -1.1834 -1.4745 -0.0367
  872MOL0     H15045   2.615   1.051   4.464 -0.1133  2.5725  0.1360
  872MOL0     H15046   2.609   0.977   4.300  0.3105  1.0611 -0.9293
  872MOL0     H15047   2.398   1.163   4.407 -0.2728 -0.3500  1.1233
  872MOL0     H15048   2.414   1.070   4.258  3.0015 -2.3503 -0.3641
  872MOL0     H15049   2.426   0.946   4.538 -0.4231  1.8999  1.2677
  872MOL0     H15050   2.380   0.849   4.387 -1.2953  0.2584  0.6401
  872MOL0     H15051   2.208   1.038   4.526 -0.2119  1.2690 -0.4372
  872MOL0     H15052   2.213   0.862   4.539  0.7903  1.0333 -0.3282
  872MOL0     H15053   2.153   1.035   4.298 -0.3720  0.6085  0.8370
  872MOL0     H15054   2.157   0.859   4.284  0.0312  0.9795 -1.0453
  872MOL0     H15055   1.978   1.040   4.459 -0.7589  2.1404 -3.3075
  872MOL0     H15056   1.973   0.852   4.455 -1.9780  1.2370  0.8984
  872MOL0     H15057   1.857   1.163   4.311 -1.1552  0.6134 -0.7364
  872MOL0     H15058   1.733   1.107   3.938  1.2009  0.0815  0.9332
  872MOL0     H15059   1.758   1.219   4.064  1.9387 -1.9401  0.5803
  872MOL0     H15060   1.549   1.056   4.154  0.0222  0.5186  0.9108
  872MOL0     H15061   1.516   1.064   3.976 -1.7006  2.9261  0.2453
  872MOL0     H15062   1.524   1.303   4.151 -0.9430  1.0164 -0.8624
  872MOL0     H15063   1.543   1.305   3.981 -0.0988  0.8782  0.0366
  872MOL0     H15064   1.324   1.346   4.054  3.1857  1.3585 -2.9490
  872MOL0     H15065   1.307   1.185   4.129 -1.0489  1.5532  0.4027
  872MOL0     H15066   1.094   1.309   4.019  1.0264 -3.2236  1.7177
  872MOL0     H15067   0.866   1.237   3.956 -0.2496 -0.2011  0.7057
  872MOL0     H15068   0.508   1.149   3.988  0.2848  0.0117 -0.3067
  872MOL0     H15069   0.271   1.071   3.982 -0.5082  0.8631 -1.1705
  872MOL0     H15070   0.051   1.053   3.891 -1.1151  3.0958 -0.2478
  872MOL0     H15071  -0.026   0.957   3.773  2.2977 -2.4230 -1.7333
  872MOL0     H15072   0.080   1.104   3.590 -1.0689 -0.9612  0.8742
  872MOL0     H15073   0.139   1.226   3.710  0.1416  0.4794 -1.0079
  872MOL0     H15074  -0.057   1.306   3.594 -3.0068  0.5601  0.3072
  872MOL0     H15075  -0.114   1.259   3.748 -0.3295 -0.1895 -0.6184
  872MOL0     H15076  -0.120   1.047   3.530  0.3007 -0.5808  0.8882
  872MOL0     H15077  -0.224   1.074   3.673 -0.4510 -0.4230 -1.0975
  872MOL0     H15078  -0.235   1.223   3.407  1.0266  1.0617 -0.1201
  872MOL0     H15079  -0.279   1.313   3.556 -2.2272 -2.1776  2.5541
  872MOL0     H15080  -0.418   1.060   3.469  0.2922 -1.8861  3.6793
  872MOL0     H15081  -0.467   1.241   3.462 -0.0025 -0.5664 -0.3303
  872MOL0     H15082  -0.447   1.053   3.705 -0.1892  0.3485  1.8046
  872MOL0     H15083  -0.456   1.220   3.724  1.8923 -0.5580  0.8433
  872MOL0     H15084  -0.665   1.079   3.553  2.9004  1.0877 -1.7754
  872MOL0     H15085  -0.665   1.250   3.599  0.5494  1.5889  1.5402
  872MOL0     H15086   0.357   0.910   3.593 -1.8274  1.4778 -1.5540
  872MOL0     H15087   0.578   0.976   3.604 -3.0299  0.2017 -2.9610
  872MOL0     H15088   1.036   0.910   3.729 -1.7783  1.3046 -1.8054
  872MOL0     H15089   1.253   0.988   3.792 -0.6247 -0.7253  0.1532
  872MOL0     H15090   3.062   1.118   4.296  2.6828  1.4009  1.3409
  872MOL0     H15091   3.306   1.177   4.242  0.7261  3.1819 -0.8019
  872MOL0     H15092   3.622   1.394   4.155 -0.8601 -0.3117  0.2685
  872MOL0     H15093   3.861   1.379   4.151  3.0156 -2.3693 -0.9279
  872MOL0     H15094   4.083   1.247   4.168 -0.6265 -0.0521  0.4733
  872MOL0     H15095   4.074   1.403   4.092 -2.0417 -0.7481 -0.6507
  872MOL0     H15096   4.278   1.192   4.050  0.6081  2.4027  3.3986
  872MOL0     H15097   4.236   1.295   3.911 -1.7986 -1.5900 -0.3639
  872MOL0     H15098   4.302   1.389   4.201 -2.4340 -1.7523 -0.5726
  872MOL0     H15099   4.304   1.493   4.059 -2.3748  0.2414  0.7502
  872MOL0     H15100   4.493   1.257   4.104 -1.5023 -0.4234 -1.1856
  872MOL0     H15101   4.499   1.364   3.960 -0.2664  1.4911  0.7504
  872MOL0     H15102   4.711   1.589   4.229 -2.6648  2.1442  1.4654
  872MOL0     H15103   3.843   1.146   3.790  0.6735 -0.3360 -0.1337
  872MOL0     H15104   3.616   1.187   3.777 -0.9896  1.4024  1.0265
  873MOL0     O15105  10.668  11.161   6.196  0.0238 -0.2211 -0.4402
  873MOL0     C15106  10.720  11.251   6.260  0.5841 -0.2601  0.6704
  873MOL0     O15107  10.740  11.378   6.216 -0.4292  0.2623 -0.3091
  873MOL0     C15108  10.789  11.398   6.089 -0.5216 -0.4508 -0.0673
  873MOL0     C15109  10.846  11.297   6.013  0.1795 -0.6256  0.3556
  873MOL0     C15110  10.871  11.313   5.874 -0.3037  0.6704 -0.0798
  873MOL0     C15111  10.861  11.440   5.813  0.3303  0.4062 -0.9396
  873MOL0     O15112  10.884  11.454   5.679 -0.2193  0.3950  0.2252
  873MOL0     C15113  10.858  11.573   5.603  0.6285 -0.2511 -0.5009
  873MOL0     C15114  10.901  11.558   5.454  0.5770  0.2125  0.1677
  873MOL0     C15115  10.835  11.455   5.370  0.2104  0.5103 -0.3151
  873MOL0     C15116  10.902  11.418   5.236  0.2780  0.8547 -0.3292
  873MOL0     C15117  10.818  11.311   5.160  0.1443 -0.2903 -0.8137
  873MOL0     C15118  10.879  11.282   5.021 -0.7689 -1.2910  0.4721
  873MOL0     C15119  10.888  11.398   4.918 -0.0392  0.7127 -0.8296
  873MOL0     C15120  10.950  11.352   4.792  0.5389 -0.1265 -0.1851
  873MOL0     N15121  10.950  11.458   4.685 -0.1144 -0.4831  0.2106
  873MOL0     C15122  10.856  11.494   4.592 -0.5346 -0.0469  0.5498
  873MOL0     C15123  10.904  11.594   4.509 -0.8990  0.4650 -0.6237
  873MOL0     C15124  10.819  11.666   4.419  0.3217 -0.5609 -0.4098
  873MOL0     C15125  10.760  11.582   4.311  0.4595 -0.2551 -0.2559
  873MOL0     C15126  10.859  11.542   4.199 -0.0539  0.0316 -0.1825
  873MOL0     C15127  10.789  11.476   4.079 -0.5379  0.0946  0.0287
  873MOL0     O15128  10.701  11.552   3.999  1.0627 -0.5777  0.8789
  873MOL0     C15129  10.565  11.533   4.003  0.4335 -0.6648 -0.3971
  873MOL0     C15130  10.497  11.472   4.113  0.1616  0.2325  0.4172
  873MOL0     C15131  10.364  11.466   4.114  0.3709 -0.3869 -0.7246
  873MOL0     C15132  10.279  11.528   4.023  0.2356  0.5655 -0.1996
  873MOL0     C15133  10.134  11.522   4.043 -0.1175 -0.7245  0.0614
  873MOL0     O15134  10.090  11.474   4.165  1.0836 -0.0205 -0.4430
  873MOL0     C15135   9.953  11.467   4.184  0.1023  0.3222 -1.3489
  873MOL0     C15136   9.921  11.480   4.321 -0.1366  0.1477 -0.3606
  873MOL0     C15137   9.789  11.485   4.359  0.2973  0.9881 -0.8584
  873MOL0     C15138   9.679  11.444   4.278  0.6053  0.3674 -0.0539
  873MOL0     O15139   9.544  11.425   4.305  0.2515 -0.4887  0.0120
  873MOL0     C15140   9.504  11.437   4.442  0.2522 -0.3116 -0.0010
  873MOL0     C15141   9.377  11.368   4.465  0.0832 -0.2444  0.4329
  873MOL0     C15142   9.268  11.399   4.350 -0.1255 -0.1580  0.1274
  873MOL0     C15143   9.118  11.384   4.385 -0.3107 -0.0376 -0.0410
  873MOL0     C15144   9.011  11.436   4.293  0.1515 -0.0898 -0.2136
  873MOL0     C15145   9.009  11.357   4.161 -0.0757 -0.7446  0.1562
  873MOL0     C15146   8.919  11.422   4.058  0.2536  1.0285 -0.0919
  873MOL0     C15147   8.776  11.361   4.055  0.0868  0.2397 -0.2921
  873MOL0    Cl15148   8.771  11.200   3.991 -0.3986 -0.2151  0.0389
  873MOL0     C15149   9.712  11.414   4.146 -0.4103  0.9697  0.3115
  873MOL0     C15150   9.852  11.425   4.096 -0.4029  0.1060 -0.3905
  873MOL0     O15151  10.061  11.560   3.949 -0.9207 -0.0360 -0.0350
  873MOL0     C15152  10.344  11.591   3.919 -0.0073 -1.2038 -0.2147
  873MOL0     C15153  10.484  11.590   3.901  0.3003  0.1980  0.2306
  873MOL0     N15154  11.034  11.609   4.556  0.1777 -0.0436  0.8067
  873MOL0     N15155  11.058  11.536   4.662 -0.8896  0.0671  1.3844
  873MOL0     C15156  10.821  11.545   5.900 -0.0352 -0.2846 -0.8412
  873MOL0     C15157  10.776  11.518   6.032  0.7178  0.3849  0.2040
  873MOL0     C15158  10.758  11.230   6.400 -0.8484  0.6152  0.5398
  873MOL0     C15159  10.744  11.107   6.452  0.6322 -0.3448 -0.0633
  873MOL0     C15160  10.775  11.084   6.587  0.1368 -0.6100 -0.1729
  873MOL0     C15161  10.833  11.174   6.669 -0.3314 -1.0649  0.3944
  873MOL0     O15162  10.854  11.144   6.804  0.7140 -0.3792 -0.7852
  873MOL0     C15163  10.737  11.114   6.889 -0.0729  0.1497  1.2014
  873MOL0     C15164  10.621  11.219   6.882 -0.2082 -1.0915  0.5664
  873MOL0     C15165  10.490  11.193   6.963 -0.5519 -0.8988  0.0174
  873MOL0     C15166  10.384  11.289   6.911  0.4196 -1.0029  0.0838
  873MOL0     C15167  10.413  11.427   6.971  0.5344  0.2939 -0.2279
  873MOL0     C15168  10.420  11.540   7.024 -0.8133  0.6322 -0.1374
  873MOL0     C15169  10.874  11.299   6.610 -0.1036  0.4523 -0.6447
  873MOL0     C15170  10.832  11.323   6.476  0.0037 -0.0931 -0.7066
  873MOL0     H15171  10.865  11.204   6.066 -4.7175 -2.3493 -0.3518
  873MOL0     H15172  10.905  11.226   5.819 -0.4752  0.7917 -0.3817
  873MOL0     H15173  10.903  11.657   5.656  0.1935 -0.3692  0.0609
  873MOL0     H15174  10.749  11.581   5.596  0.6465 -0.6351 -1.5673
  873MOL0     H15175  11.008  11.533   5.459  0.7746  0.1904 -2.6117
  873MOL0     H15176  10.891  11.651   5.398  0.6960  0.4180  0.4822
  873MOL0     H15177  10.728  11.470   5.357 -0.4443 -2.0398  1.3250
  873MOL0     H15178  10.835  11.365   5.433  0.6325  0.6994 -0.0338
  873MOL0     H15179  10.909  11.505   5.171 -0.7412  0.7424 -0.6163
  873MOL0     H15180  11.003  11.376   5.244 -0.2463 -0.6232 -1.0275
  873MOL0     H15181  10.711  11.333   5.165 -0.3798 -2.8391  2.3283
  873MOL0     H15182  10.825  11.211   5.202  0.9209  0.2897  0.4949
  873MOL0     H15183  10.841  11.192   4.971 -0.1979 -1.0609 -0.4053
  873MOL0     H15184  10.982  11.256   5.050  1.1168  1.7712 -2.6911
  873MOL0     H15185  10.785  11.429   4.896  0.3609  0.2457 -3.7694
  873MOL0     H15186  10.937  11.487   4.960 -2.3259  1.9376 -0.5718
  873MOL0     H15187  10.892  11.273   4.743 -1.2948  1.5894 -0.9222
  873MOL0     H15188  11.050  11.312   4.812  0.5578 -1.2363 -2.1400
  873MOL0     H15189  10.750  11.471   4.591 -0.2295 -1.6386  1.0689
  873MOL0     H15190  10.865  11.757   4.380 -1.5589  2.1756  3.1616
  873MOL0     H15191  10.739  11.702   4.485  1.4519  0.9509  0.2023
  873MOL0     H15192  10.688  11.645   4.258 -0.8819  0.4654  2.2093
  873MOL0     H15193  10.716  11.490   4.351  0.6183 -0.1413  0.1878
  873MOL0     H15194  10.905  11.636   4.169  0.7300 -0.5068 -0.7029
  873MOL0     H15195  10.930  11.466   4.235  0.0180  0.4273  0.5268
  873MOL0     H15196  10.750  11.380   4.114  1.5166 -0.2923  1.4275
  873MOL0     H15197  10.879  11.455   4.020  0.5084  0.0028  1.5888
  873MOL0     H15198  10.556  11.413   4.182  1.5230 -0.4812 -1.2737
  873MOL0     H15199  10.321  11.427   4.206  1.3928  2.3879  1.0787
  873MOL0     H15200  10.000  11.504   4.391 -3.7081 -1.4140  4.7428
  873MOL0     H15201   9.774  11.495   4.466  0.2294 -0.9138 -0.6457
  873MOL0     H15202   9.484  11.543   4.462 -0.4636 -0.5644  0.6686
  873MOL0     H15203   9.585  11.408   4.509 -0.7103 -0.5849  1.0723
  873MOL0     H15204   9.339  11.414   4.557  0.5462 -0.1282  0.5712
  873MOL0     H15205   9.384  11.260   4.482 -0.8026 -0.3087  0.4014
  873MOL0     H15206   9.296  11.328   4.272  0.8409  0.3036  0.0314
  873MOL0     H15207   9.285  11.501   4.316  0.2561 -0.0956  0.4922
  873MOL0     H15208   9.104  11.285   4.430 -0.3574  1.4947  3.7148
  873MOL0     H15209   9.106  11.450   4.472 -0.1171 -1.5485  1.1673
  873MOL0     H15210   9.037  11.537   4.260 -3.0465  1.6043  1.8391
  873MOL0     H15211   8.913  11.448   4.340 -0.2113  1.9551 -1.3738
  873MOL0     H15212   8.977  11.258   4.194 -0.4060 -1.7485 -2.9059
  873MOL0     H15213   9.110  11.359   4.118 -0.7459  1.3761 -1.4569
  873MOL0     H15214   8.914  11.531   4.059 -2.0793  1.0587 -2.6403
  873MOL0     H15215   8.957  11.399   3.958 -1.1155  0.4392 -0.5126
  873MOL0     H15216   8.712  11.425   3.994 -0.6411 -2.7227 -2.9111
  873MOL0     H15217   8.747  11.365   4.160  0.3777 -0.8406 -0.1640
  873MOL0     H15218   9.640  11.380   4.072  1.3429  0.5892 -1.2810
  873MOL0     H15219   9.875  11.410   3.991  4.2230 -1.1420  0.5670
  873MOL0     H15220  10.273  11.662   3.877 -1.8062 -0.3645  3.7594
  873MOL0     H15221  10.534  11.658   3.832 -1.0476  0.4573 -0.5360
  873MOL0     H15222  10.814  11.640   5.849  0.5609  0.8069  1.0427
  873MOL0     H15223  10.722  11.596   6.086  0.7117  1.2970 -1.0687
  873MOL0     H15224  10.701  11.026   6.393 -1.4480 -0.7572  1.8704
  873MOL0     H15225  10.775  10.988   6.639 -0.1189 -2.1706 -2.8792
  873MOL0     H15226  10.760  11.107   6.995  2.5807 -0.5085  0.6553
  873MOL0     H15227  10.701  11.013   6.864  0.8217 -0.0995  0.8690
  873MOL0     H15228  10.663  11.315   6.913  0.6823 -1.7066  1.3527
  873MOL0     H15229  10.602  11.216   6.775  0.2099 -0.9198  0.4880
  873MOL0     H15230  10.506  11.206   7.071 -3.2675 -0.6923  0.4771
  873MOL0     H15231  10.463  11.089   6.945 -1.5524 -0.1022 -3.9559
  873MOL0     H15232  10.392  11.294   6.802  0.2154 -3.1387 -0.0636
  873MOL0     H15233  10.283  11.255   6.937 -1.6104  2.8452 -1.7765
  873MOL0     H15234  10.406  11.635   7.072 -0.4060  0.4474  0.3509
  873MOL0     H15235  10.935  11.375   6.659 -2.8228  0.5204  3.1323
  873MOL0     H15236  10.869  11.409   6.421 -2.4244 -0.8027 -3.7485
  874MOL0     O15237   6.792   1.178   1.165  0.6105 -0.0538  0.4903
  874MOL0     C15238   6.798   1.147   1.046  0.5640  1.5819 -0.3756
  874MOL0     O15239   6.693   1.147   0.964 -0.0488 -0.2939  0.3133
  874MOL0     C15240   6.574   1.164   1.021 -0.4541 -0.5174  0.1254
  874MOL0     C15241   6.500   1.282   0.994  0.6021  0.2541  0.3284
  874MOL0     C15242   6.376   1.308   1.060 -0.4920 -0.5364 -0.3924
  874MOL0     C15243   6.324   1.219   1.159 -0.3442  0.5691  0.1314
  874MOL0     O15244   6.202   1.249   1.222  0.3635 -0.0149 -0.7486
  874MOL0     C15245   6.147   1.154   1.321 -0.5102 -0.3550  0.5242
  874MOL0     C15246   5.999   1.183   1.318 -0.3450 -0.2157 -0.2027
  874MOL0     C15247   5.911   1.076   1.387  0.1409 -0.0929  0.2649
  874MOL0     C15248   5.765   1.109   1.370  0.1366  0.5016 -0.2579
  874MOL0     C15249   5.676   1.001   1.417 -0.6418  0.3306  0.8672
  874MOL0     C15250   5.650   1.003   1.563  0.2758 -0.5247  0.5472
  874MOL0     C15251   5.541   0.892   1.589  0.1745  0.5906 -0.5712
  874MOL0     C15252   5.400   0.931   1.527 -0.4563  0.1609 -0.2736
  874MOL0     N15253   5.285   0.868   1.581 -0.0925  0.0880 -0.0076
  874MOL0     C15254   5.149   0.875   1.539 -0.1869  0.7699 -0.1422
  874MOL0     C15255   5.091   0.779   1.619  0.3736  0.8897  0.3719
  874MOL0     C15256   4.948   0.753   1.617  0.5928 -0.3375 -1.0105
  874MOL0     C15257   4.895   0.686   1.497  0.1494  1.6921  0.2430
  874MOL0     C15258   4.755   0.633   1.524  0.0327 -0.6721  0.5298
  874MOL0     C15259   4.667   0.762   1.544 -0.1206  0.4201 -0.6800
  874MOL0     O15260   4.526   0.730   1.514 -0.2307 -0.1782 -0.0618
  874MOL0     C15261   4.454   0.651   1.601  0.8123  0.2557  0.1381
  874MOL0     C15262   4.348   0.578   1.546  0.2462  0.8721 -0.0734
  874MOL0     C15263   4.275   0.485   1.625  0.7348  0.1468  0.7278
  874MOL0     C15264   4.290   0.474   1.761 -1.0136 -0.4893  0.4806
  874MOL0     C15265   4.199   0.381   1.839 -0.8820  0.9534  0.2746
  874MOL0     O15266   4.088   0.335   1.766  0.2070  0.2977  0.0992
  874MOL0     C15267   3.983   0.287   1.837 -0.2722 -0.6330 -0.0611
  874MOL0     C15268   3.995   0.147   1.870  0.1989 -0.2835 -0.2315
  874MOL0     C15269   3.881   0.081   1.928 -0.3437  0.2364  0.9712
  874MOL0     C15270   3.765   0.156   1.947  0.0928  0.4625 -0.8298
  874MOL0     O15271   3.658   0.102   2.020 -0.1690 -0.0441 -0.3287
  874MOL0     C15272   3.678   0.022   2.136 -0.7998 -0.6341 -0.4833
  874MOL0     C15273   3.662  -0.129   2.119  0.7852 -0.0116  0.3528
  874MOL0     C15274   3.523  -0.179   2.153  0.8577 -0.3811 -0.8361
  874MOL0     C15275   3.502  -0.330   2.129  0.3791 -0.7067  0.2183
  874MOL0     C15276   3.382  -0.399   2.192 -0.4083 -0.1988  0.5451
  874MOL0     C15277   3.256  -0.335   2.157  0.3951  1.2146  0.2913
  874MOL0     C15278   3.143  -0.419   2.223  0.0336  0.0741 -0.6060
  874MOL0     C15279   3.014  -0.347   2.239  0.3726 -0.3655  0.0256
  874MOL0    Cl15280   2.885  -0.466   2.262  0.4424  0.0153 -0.3955
  874MOL0     C15281   3.763   0.290   1.912 -0.1891 -0.2215 -0.9883
  874MOL0     C15282   3.873   0.362   1.856 -0.0131  0.9258 -0.9155
  874MOL0     O15283   4.230   0.351   1.955 -0.1288 -0.2971  0.2655
  874MOL0     C15284   4.391   0.547   1.820 -0.2802 -0.7443  0.6821
  874MOL0     C15285   4.477   0.627   1.740 -0.0896 -0.7934  0.1347
  874MOL0     N15286   5.183   0.701   1.682 -0.8658 -0.1210 -0.8148
  874MOL0     N15287   5.300   0.770   1.675  0.4159 -0.6235 -0.3181
  874MOL0     C15288   6.398   1.100   1.179 -0.4901  0.1240 -0.4656
  874MOL0     C15289   6.524   1.078   1.114 -0.1784 -0.6175  0.1203
  874MOL0     C15290   6.927   1.099   0.993 -0.6181 -0.1102 -0.7880
  874MOL0     C15291   7.041   1.100   1.076 -0.3788  0.0636 -0.6109
  874MOL0     C15292   7.168   1.065   1.021 -0.5046  0.1294 -0.5297
  874MOL0     C15293   7.183   1.029   0.889 -0.4973 -0.2377 -0.5084
  874MOL0     O15294   7.300   1.017   0.827  0.1076 -0.2691 -0.0836
  874MOL0     C15295   7.420   0.989   0.911  0.1906 -1.0703  0.5934
  874MOL0     C15296   7.544   0.959   0.820 -0.1199  0.5593 -0.1758
  874MOL0     C15297   7.676   0.981   0.900 -0.4192 -0.3035  0.1084
  874MOL0     C15298   7.800   0.951   0.818 -0.5077 -0.4149  0.5135
  874MOL0     C15299   7.920   0.998   0.895  0.4394  0.0846 -0.2207
  874MOL0     C15300   8.015   1.051   0.944  0.6485  0.3967  0.4589
  874MOL0     C15301   7.072   1.031   0.805 -0.6477  0.2303  0.5301
  874MOL0     C15302   6.942   1.063   0.859 -0.4240 -0.6040  0.4021
  874MOL0     H15303   6.532   1.363   0.930 -0.7563 -0.4653 -1.3425
  874MOL0     H15304   6.328   1.404   1.044 -1.8353 -0.6412  2.4496
  874MOL0     H15305   6.187   1.173   1.421  1.0472  2.9239 -0.5651
  874MOL0     H15306   6.173   1.052   1.292  1.6984  0.5930 -1.2078
  874MOL0     H15307   5.973   1.194   1.212 -0.7525  0.8542 -0.0066
  874MOL0     H15308   5.972   1.283   1.353 -1.4125 -0.2282 -0.9399
  874MOL0     H15309   5.943   1.076   1.491  0.9103  1.4500  0.0506
  874MOL0     H15310   5.923   0.975   1.346  0.8279 -0.2338  0.7950
  874MOL0     H15311   5.732   1.200   1.420  2.6378  0.3251  2.0040
  874MOL0     H15312   5.751   1.122   1.263 -2.3421  0.1385 -0.0339
  874MOL0     H15313   5.716   0.908   1.376  0.5780  1.2740 -0.1727
  874MOL0     H15314   5.585   1.011   1.356  1.6605 -0.2816 -2.9676
  874MOL0     H15315   5.607   1.099   1.593 -1.6590 -0.2538 -2.5895
  874MOL0     H15316   5.743   0.987   1.618  2.0982  3.4424 -0.9632
  874MOL0     H15317   5.575   0.793   1.561 -0.3749  0.3728 -0.4903
  874MOL0     H15318   5.528   0.885   1.698 -0.9536  0.2960 -0.7141
  874MOL0     H15319   5.398   0.898   1.423 -0.6796  1.6211 -0.7428
  874MOL0     H15320   5.390   1.040   1.526 -0.2521  0.1740 -1.2758
  874MOL0     H15321   5.101   0.950   1.477 -0.9110 -1.1989 -2.1203
  874MOL0     H15322   4.891   0.844   1.633  0.7247 -0.4762  0.3931
  874MOL0     H15323   4.927   0.693   1.707  0.3798 -0.0496 -0.8679
  874MOL0     H15324   4.953   0.598   1.468 -1.2982  1.1331 -1.0959
  874MOL0     H15325   4.900   0.756   1.413  0.2857  0.5459 -0.7357
  874MOL0     H15326   4.720   0.582   1.434 -1.1438 -0.1399  0.6700
  874MOL0     H15327   4.743   0.554   1.598 -0.3346 -2.1449 -1.0274
  874MOL0     H15328   4.696   0.849   1.485 -0.1848  1.4731  0.7611
  874MOL0     H15329   4.676   0.775   1.653 -1.4962 -0.8144 -0.3847
  874MOL0     H15330   4.331   0.596   1.440  1.9031  3.0872 -0.0319
  874MOL0     H15331   4.196   0.427   1.578  3.3802 -2.3420 -0.9877
  874MOL0     H15332   4.086   0.091   1.852  1.4419  1.1877  1.2228
  874MOL0     H15333   3.877  -0.027   1.936 -1.3843  0.2167  0.3600
  874MOL0     H15334   3.605   0.050   2.212  0.4107  1.8038 -0.1145
  874MOL0     H15335   3.779   0.041   2.176 -0.1349  0.0098 -2.3699
  874MOL0     H15336   3.733  -0.171   2.190 -1.0547  3.0443  4.4221
  874MOL0     H15337   3.680  -0.146   2.012 -0.4700  0.4495  0.0450
  874MOL0     H15338   3.459  -0.123   2.084  0.1723 -0.3436 -0.1811
  874MOL0     H15339   3.491  -0.154   2.255 -2.1888 -1.5276 -1.4091
  874MOL0     H15340   3.495  -0.335   2.020 -0.2348 -0.1858  0.2283
  874MOL0     H15341   3.592  -0.380   2.166  1.0755  1.5922  1.8466
  874MOL0     H15342   3.401  -0.397   2.300  1.2294  2.7087  0.3220
  874MOL0     H15343   3.381  -0.504   2.165 -0.2824 -0.1734  0.4432
  874MOL0     H15344   3.238  -0.331   2.049  0.4907 -1.7692  0.0757
  874MOL0     H15345   3.255  -0.234   2.196  0.0816  0.6607  1.7757
  874MOL0     H15346   3.128  -0.510   2.163 -0.9631 -0.1972  0.0349
  874MOL0     H15347   3.173  -0.448   2.324  1.5152 -0.1662 -1.0840
  874MOL0     H15348   2.986  -0.286   2.153 -1.7146 -3.2191 -1.5120
  874MOL0     H15349   3.017  -0.285   2.329 -1.3875 -1.7223  1.0901
  874MOL0     H15350   3.680   0.347   1.951  1.0100 -1.0558  3.2356
  874MOL0     H15351   3.861   0.468   1.833  2.5461  1.7500  1.0475
  874MOL0     H15352   4.396   0.534   1.928 -2.9715  2.8173  1.4595
  874MOL0     H15353   4.558   0.684   1.784 -0.5406 -0.6214  0.7482
  874MOL0     H15354   6.358   1.020   1.241 -1.7527 -1.3644 -3.0370
  874MOL0     H15355   6.569   0.983   1.138  1.6930  0.4601  1.0745
  874MOL0     H15356   7.022   1.150   1.170 -0.6577 -0.3999 -0.4176
  874MOL0     H15357   7.254   1.097   1.079 -1.0041 -1.1734  1.0148
  874MOL0     H15358   7.418   0.907   0.983  1.4152 -0.9423  0.7944
  874MOL0     H15359   7.433   1.077   0.975 -2.8264 -0.5385  0.6485
  874MOL0     H15360   7.542   0.853   0.793 -1.7671  0.2929  0.8009
  874MOL0     H15361   7.535   1.025   0.733  0.6768 -1.2273 -1.6642
  874MOL0     H15362   7.673   0.919   0.990  1.2017  0.4742  0.7453
  874MOL0     H15363   7.686   1.086   0.929  1.9315 -0.5247  0.3180
  874MOL0     H15364   7.812   0.842   0.811 -0.9003 -0.4561  0.4414
  874MOL0     H15365   7.783   0.983   0.715 -1.0926 -1.0298  0.4083
  874MOL0     H15366   8.102   1.098   0.986  1.1721 -0.3232  0.1959
  874MOL0     H15367   7.088   1.011   0.700 -0.5122 -1.3610  0.8295
  874MOL0     H15368   6.853   1.074   0.798 -2.0194  2.2063  2.9845
  875MOL0     O15369   4.631   4.028   2.731  0.1603 -0.7835 -1.0876
  875MOL0     C15370   4.715   3.950   2.779 -0.0561 -0.2548  0.0625
  875MOL0     O15371   4.695   3.816   2.786 -0.2565  0.1485 -0.6090
  875MOL0     C15372   4.570   3.773   2.761  0.2838  0.2402 -0.1925
  875MOL0     C15373   4.547   3.735   2.632  0.1854  0.7600 -0.7468
  875MOL0     C15374   4.426   3.681   2.605  1.1697  1.0186 -0.4675
  875MOL0     C15375   4.319   3.665   2.698 -0.0603 -0.1334 -0.2403
  875MOL0     O15376   4.206   3.604   2.646  0.1835 -0.0866 -0.3571
  875MOL0     C15377   4.102   3.569   2.740 -0.1964  0.7327 -0.4561
  875MOL0     C15378   3.983   3.610   2.671  0.3528 -0.2839  0.0226
  875MOL0     C15379   3.952   3.508   2.558 -0.6927  0.2822  0.3629
  875MOL0     C15380   3.821   3.502   2.477  1.6092  0.8326  0.4070
  875MOL0     C15381   3.706   3.463   2.562 -0.2666  0.2720 -0.8370
  875MOL0     C15382   3.574   3.472   2.476 -0.6416 -0.2644  0.1686
  875MOL0     C15383   3.456   3.381   2.531 -0.4694  0.6216  0.7340
  875MOL0     C15384   3.318   3.443   2.497  1.0516  1.5998  0.0760
  875MOL0     N15385   3.195   3.355   2.517 -0.1727 -0.2657  0.7165
  875MOL0     C15386   3.140   3.318   2.635  0.1000  1.0150 -0.2048
  875MOL0     C15387   3.064   3.218   2.600  0.1843 -0.8619 -0.2818
  875MOL0     C15388   2.987   3.132   2.703 -0.1429 -0.4185  0.1803
  875MOL0     C15389   2.898   3.215   2.787 -0.0074  0.2197  0.3732
  875MOL0     C15390   2.812   3.124   2.883 -0.4299 -0.2136 -0.1998
  875MOL0     C15391   2.703   3.205   2.963 -0.2903 -0.2733  0.5761
  875MOL0     O15392   2.575   3.192   2.906  0.1996  0.9259  0.3169
  875MOL0     C15393   2.467   3.266   2.944  0.0039 -1.2013 -0.0024
  875MOL0     C15394   2.348   3.246   2.879  0.4852 -0.4277 -0.9976
  875MOL0     C15395   2.236   3.327   2.901 -0.4279  0.5394 -0.0225
  875MOL0     C15396   2.245   3.436   2.990 -1.1194  0.4038  0.2980
  875MOL0     C15397   2.123   3.514   3.022 -0.4373  0.1136  0.2010
  875MOL0     O15398   2.004   3.483   2.952 -0.2777 -0.8029  0.3426
  875MOL0     C15399   1.890   3.553   2.989  0.2223 -0.1528 -0.0773
  875MOL0     C15400   1.817   3.622   2.890 -0.4990 -1.4014  0.0873
  875MOL0     C15401   1.700   3.680   2.923 -0.8591  0.8849  0.5010
  875MOL0     C15402   1.647   3.665   3.047  0.3748 -0.2364 -0.3638
  875MOL0     O15403   1.520   3.709   3.050  0.0240  0.0521 -0.6374
  875MOL0     C15404   1.518   3.842   3.101  0.3166 -1.0600  0.3002
  875MOL0     C15405   1.401   3.855   3.199 -0.4626  0.8668  0.6566
  875MOL0     C15406   1.266   3.848   3.133  0.5544 -0.7070  0.2695
  875MOL0     C15407   1.156   3.887   3.220  0.2187  0.0873  0.0208
  875MOL0     C15408   1.144   3.795   3.344 -0.1654  0.0862  0.5232
  875MOL0     C15409   1.030   3.854   3.426  0.0356 -0.1464  0.2261
  875MOL0     C15410   1.024   3.784   3.562  0.0876 -0.0897  0.0705
  875MOL0     C15411   0.912   3.832   3.651  0.7746 -0.5119 -0.3408
  875MOL0    Cl15412   0.877   3.733   3.802  0.2606 -0.3564  0.1036
  875MOL0     C15413   1.713   3.612   3.156 -0.2915  0.2972  0.2149
  875MOL0     C15414   1.840   3.563   3.123 -0.5695  0.1050  1.0639
  875MOL0     O15415   2.143   3.606   3.101 -0.3959  0.3002  0.1185
  875MOL0     C15416   2.369   3.459   3.068 -0.9826  0.0091  0.7818
  875MOL0     C15417   2.481   3.369   3.040  0.0820 -0.2953 -0.3716
  875MOL0     N15418   3.046   3.209   2.461 -0.8115  0.2199  0.5175
  875MOL0     N15419   3.141   3.282   2.417 -0.8287  0.2137  0.8913
  875MOL0     C15420   4.350   3.707   2.827  0.4640  0.1472  0.2889
  875MOL0     C15421   4.473   3.757   2.860 -0.0224  0.5174 -0.4133
  875MOL0     C15422   4.850   3.992   2.825  0.4979  0.0885 -0.3800
  875MOL0     C15423   4.968   3.930   2.776  0.1832 -0.0656  0.4159
  875MOL0     C15424   5.096   3.968   2.818  0.2782 -0.0096 -0.0222
  875MOL0     C15425   5.112   4.077   2.908  0.0058  0.1673  0.3202
  875MOL0     O15426   5.237   4.122   2.936 -0.1398 -0.4565 -0.7290
  875MOL0     C15427   5.320   4.047   3.025 -0.6465  1.2958 -0.4087
  875MOL0     C15428   5.451   4.118   3.023 -0.0782 -0.2000  0.2261
  875MOL0     C15429   5.442   4.263   3.072  0.1128  0.5201  0.6573
  875MOL0     C15430   5.570   4.310   3.146 -0.4830  0.1221  0.1750
  875MOL0     C15431   5.685   4.307   3.051  1.1365  1.2482 -0.2726
  875MOL0     C15432   5.773   4.284   2.967 -0.7743  0.4372 -0.2655
  875MOL0     C15433   4.994   4.144   2.948  0.3560  0.1710 -0.3314
  875MOL0     C15434   4.864   4.100   2.910 -0.0390  0.7466 -0.7773
  875MOL0     H15435   4.622   3.740   2.555  0.1517 -0.7498 -0.9176
  875MOL0     H15436   4.408   3.644   2.504  0.1170  0.3611 -0.0646
  875MOL0     H15437   4.125   3.618   2.835  1.4158 -1.4458  0.3624
  875MOL0     H15438   4.110   3.461   2.752  1.1600  0.7160 -1.3200
  875MOL0     H15439   3.993   3.709   2.625 -0.0497 -0.6289 -0.8319
  875MOL0     H15440   3.905   3.618   2.747  3.8514 -0.0720  3.9471
  875MOL0     H15441   3.957   3.413   2.611  0.2474  0.0128 -0.1763
  875MOL0     H15442   4.039   3.513   2.492  0.4238  2.3561  1.8749
  875MOL0     H15443   3.795   3.599   2.436 -2.4020 -0.0865  0.3455
  875MOL0     H15444   3.823   3.424   2.400 -4.1094  0.1328  0.5437
  875MOL0     H15445   3.691   3.530   2.648 -1.6911 -1.8174  0.6490
  875MOL0     H15446   3.719   3.359   2.593  0.4383  0.7230  0.4687
  875MOL0     H15447   3.591   3.440   2.373  0.3839 -0.1195  0.2786
  875MOL0     H15448   3.537   3.575   2.469  0.4486  0.1277 -0.0957
  875MOL0     H15449   3.472   3.279   2.495 -1.7925 -0.3502  2.6950
  875MOL0     H15450   3.466   3.376   2.640  0.5631 -0.8299  0.6040
  875MOL0     H15451   3.312   3.487   2.397 -1.3968 -0.4657 -0.7864
  875MOL0     H15452   3.300   3.526   2.566 -1.4401 -0.8868  2.6772
  875MOL0     H15453   3.173   3.355   2.732 -1.2423  2.1261 -0.1512
  875MOL0     H15454   3.060   3.080   2.767 -1.3901 -1.5443  0.7267
  875MOL0     H15455   2.938   3.054   2.643 -2.9441  0.9723  0.5144
  875MOL0     H15456   2.819   3.266   2.731  1.5188 -0.1083 -2.2628
  875MOL0     H15457   2.953   3.280   2.855  0.2957 -1.4058  1.7563
  875MOL0     H15458   2.761   3.051   2.819  0.2741 -0.6468 -0.2680
  875MOL0     H15459   2.883   3.074   2.949 -0.5293 -1.2406 -0.8562
  875MOL0     H15460   2.740   3.308   2.953  0.8642 -0.8412 -1.6680
  875MOL0     H15461   2.697   3.190   3.071 -0.9140  1.1700  0.7597
  875MOL0     H15462   2.331   3.167   2.806  0.5532 -2.4219  1.0512
  875MOL0     H15463   2.148   3.304   2.841 -0.5823  0.0534  0.3871
  875MOL0     H15464   1.853   3.634   2.788 -0.9520  3.9557  0.2584
  875MOL0     H15465   1.643   3.729   2.844  0.5172 -0.0367 -1.1419
  875MOL0     H15466   1.513   3.916   3.020 -0.5333 -2.0745 -0.6083
  875MOL0     H15467   1.614   3.867   3.146  1.9377 -3.5262 -1.4940
  875MOL0     H15468   1.412   3.935   3.272  0.0703  2.3825 -1.0150
  875MOL0     H15469   1.407   3.761   3.255 -2.9702 -0.9986 -1.8948
  875MOL0     H15470   1.246   3.748   3.093  0.5015 -0.5161 -0.1878
  875MOL0     H15471   1.265   3.923   3.053 -1.8162 -0.3164  0.5759
  875MOL0     H15472   1.164   3.995   3.239 -2.8982  0.6910 -1.4193
  875MOL0     H15473   1.066   3.875   3.158  0.8782 -0.3661 -0.8774
  875MOL0     H15474   1.231   3.799   3.410 -1.6079  0.5289  2.5157
  875MOL0     H15475   1.116   3.693   3.314 -1.7522  1.2814 -2.4695
  875MOL0     H15476   0.938   3.845   3.368  0.0180  2.8186 -0.3289
  875MOL0     H15477   1.039   3.963   3.430 -0.5993 -0.1271  1.9659
  875MOL0     H15478   1.019   3.679   3.532  1.1488 -0.6288  1.6132
  875MOL0     H15479   1.119   3.810   3.611 -0.7795  1.5018  1.0177
  875MOL0     H15480   0.814   3.837   3.602 -0.6005 -1.5286  2.1135
  875MOL0     H15481   0.927   3.934   3.686  0.3647 -0.9880  1.3133
  875MOL0     H15482   1.668   3.621   3.254 -1.6135 -0.5917 -0.2746
  875MOL0     H15483   1.903   3.524   3.202  0.3127 -0.4830  0.1025
  875MOL0     H15484   2.359   3.541   3.139 -2.0845  3.0221 -2.5848
  875MOL0     H15485   2.567   3.388   3.104 -2.6437  2.8111  2.7496
  875MOL0     H15486   4.281   3.709   2.911  1.0105 -2.6157  0.8726
  875MOL0     H15487   4.502   3.782   2.961  3.3520  0.3658 -1.2167
  875MOL0     H15488   4.961   3.842   2.714  2.1265  1.6925 -2.5812
  875MOL0     H15489   5.181   3.905   2.792 -1.6828 -2.4827 -0.8874
  875MOL0     H15490   5.330   3.942   2.997  0.8436  1.1425  0.6043
  875MOL0     H15491   5.283   4.047   3.128  3.7255  1.2266  1.3672
  875MOL0     H15492   5.523   4.064   3.085 -0.4451 -2.1801 -1.0056
  875MOL0     H15493   5.474   4.123   2.916 -4.4214  0.9297 -0.8719
  875MOL0     H15494   5.363   4.266   3.148  0.3243 -0.0125  0.9094
  875MOL0     H15495   5.427   4.330   2.987  1.1623 -0.5902 -0.4394
  875MOL0     H15496   5.566   4.415   3.177 -0.1900 -0.1369  1.1553
  875MOL0     H15497   5.600   4.253   3.235 -0.0171  1.2667  0.7800
  875MOL0     H15498   5.849   4.256   2.896  0.2961 -2.6528  1.8832
  875MOL0     H15499   5.003   4.230   3.014  1.0377 -0.9593  1.1409
  875MOL0     H15500   4.787   4.168   2.946  0.8279  1.7760 -0.7925
  876MOL0     O15501   7.754   8.908   1.442 -0.0098  0.4070 -0.1527
  876MOL0     C15502   7.748   9.014   1.382 -0.0875  0.2863 -0.3052
  876MOL0     O15503   7.653   9.113   1.409  0.4581  0.6529 -0.6381
  876MOL0     C15504   7.541   9.086   1.485 -0.1722 -0.2416 -0.4148
  876MOL0     C15505   7.480   8.961   1.513 -0.0155 -0.2709  0.5366
  876MOL0     C15506   7.363   8.948   1.580  0.8066  0.1981  0.3073
  876MOL0     C15507   7.292   9.057   1.621 -0.8097 -0.0097 -0.0808
  876MOL0     O15508   7.165   9.053   1.674 -0.0008  0.1803 -0.3088
  876MOL0     C15509   7.097   8.919   1.685 -0.0970 -0.1402  0.5107
  876MOL0     C15510   6.970   8.944   1.766  0.1266 -0.3299 -0.4210
  876MOL0     C15511   6.896   8.818   1.786  0.5657  0.6647 -0.1145
  876MOL0     C15512   6.755   8.832   1.840  0.2031  0.6530 -0.4825
  876MOL0     C15513   6.697   8.693   1.865 -0.3943  0.2199 -0.8691
  876MOL0     C15514   6.573   8.715   1.951 -0.5349  0.1448 -0.4417
  876MOL0     C15515   6.447   8.761   1.876 -0.0623 -0.0423 -0.0227
  876MOL0     C15516   6.398   8.651   1.785  0.7866 -0.6558  0.4108
  876MOL0     N15517   6.254   8.673   1.744  0.0014  0.2827 -0.3581
  876MOL0     C15518   6.182   8.792   1.747 -0.9902 -0.7597  0.5081
  876MOL0     C15519   6.063   8.754   1.694 -0.2167 -0.4092  0.8095
  876MOL0     C15520   5.930   8.839   1.684  0.1918  0.5225 -0.5978
  876MOL0     C15521   5.843   8.805   1.805  0.4620 -0.1861 -0.1558
  876MOL0     C15522   5.779   8.665   1.793  0.0921  0.6576 -0.0942
  876MOL0     C15523   5.702   8.639   1.669 -0.2322 -0.7694 -0.1843
  876MOL0     O15524   5.613   8.527   1.679 -0.6648 -1.0258  0.1715
  876MOL0     C15525   5.490   8.551   1.716 -0.2730  0.1064  0.0016
  876MOL0     C15526   5.445   8.664   1.777 -0.1764 -0.1780 -0.1697
  876MOL0     C15527   5.309   8.695   1.805 -0.5798  0.2593 -0.1846
  876MOL0     C15528   5.211   8.607   1.764 -0.2462 -0.5841  0.0473
  876MOL0     C15529   5.066   8.638   1.790  0.2905 -0.0842  0.0505
  876MOL0     O15530   4.970   8.543   1.759  0.3777 -0.0001 -0.4234
  876MOL0     C15531   4.833   8.566   1.779 -0.9477 -0.0920  0.8053
  876MOL0     C15532   4.752   8.473   1.846  0.2631 -0.0244  0.4240
  876MOL0     C15533   4.616   8.492   1.868  0.2456  0.3139  0.3050
  876MOL0     C15534   4.553   8.610   1.828  1.0954  0.4356 -0.3813
  876MOL0     O15535   4.426   8.643   1.864  0.1696 -0.2264 -0.2559
  876MOL0     C15536   4.322   8.549   1.883  0.1858 -0.4521 -0.5343
  876MOL0     C15537   4.297   8.437   1.786 -0.2997  0.2090  0.2477
  876MOL0     C15538   4.152   8.409   1.763  0.0038 -0.1167  0.3890
  876MOL0     C15539   4.121   8.440   1.620  0.7420  1.3547 -0.4220
  876MOL0     C15540   3.973   8.476   1.615 -0.3264 -0.6214  0.5010
  876MOL0     C15541   3.882   8.359   1.658  0.7400  0.5622  0.2479
  876MOL0     C15542   3.743   8.376   1.594  0.9196 -0.7363 -0.7213
  876MOL0     C15543   3.675   8.245   1.607 -0.8875  0.3926 -0.8837
  876MOL0    Cl15544   3.536   8.217   1.488  0.3818 -0.0265  0.0924
  876MOL0     C15545   4.635   8.705   1.759 -0.6904  0.5731  0.6730
  876MOL0     C15546   4.775   8.689   1.736 -0.3350 -0.2070 -0.3173
  876MOL0     O15547   5.052   8.737   1.859 -0.1465 -0.8000 -0.1105
  876MOL0     C15548   5.255   8.491   1.700  0.1037 -0.1258  0.5441
  876MOL0     C15549   5.394   8.462   1.691  0.2020  0.8683 -0.4863
  876MOL0     N15550   6.073   8.625   1.653 -0.9154  0.1343 -0.3606
  876MOL0     N15551   6.191   8.577   1.671 -0.0615  0.0749  0.5681
  876MOL0     C15552   7.347   9.186   1.598 -0.1116  0.2512 -0.0481
  876MOL0     C15553   7.470   9.200   1.534  0.0379 -0.5207 -0.0966
  876MOL0     C15554   7.863   9.053   1.298 -0.0240  0.2831  0.2006
  876MOL0     C15555   7.984   8.980   1.280 -0.0700 -0.1158 -0.0313
  876MOL0     C15556   8.088   9.020   1.191  0.8765  0.9350 -0.7930
  876MOL0     C15557   8.082   9.132   1.115  0.3331 -0.4957  0.4032
  876MOL0     O15558   8.176   9.194   1.033  0.4328 -0.4743  0.2615
  876MOL0     C15559   8.302   9.118   1.016 -0.0979 -0.8448 -1.0116
  876MOL0     C15560   8.385   9.192   0.908  0.2366 -0.3352  0.0326
  876MOL0     C15561   8.442   9.325   0.966  0.2023  0.5858  0.2310
  876MOL0     C15562   8.522   9.405   0.857 -0.8593 -0.0885  0.4418
  876MOL0     C15563   8.665   9.383   0.869 -0.3312  0.3442 -0.5141
  876MOL0     C15564   8.786   9.400   0.906  1.1413  0.1430  0.4225
  876MOL0     C15565   7.958   9.206   1.130  0.1413  0.1397  0.2110
  876MOL0     C15566   7.853   9.165   1.213 -0.4296 -0.9552 -0.3387
  876MOL0     H15567   7.521   8.867   1.477  1.2583  0.6484 -0.5067
  876MOL0     H15568   7.329   8.846   1.593 -2.6766  1.2935  0.7470
  876MOL0     H15569   7.162   8.851   1.741 -0.7956 -0.2262  1.2447
  876MOL0     H15570   7.069   8.890   1.583  2.5025  0.4655 -0.4602
  876MOL0     H15571   6.914   9.017   1.706  0.7415  1.3791  0.9863
  876MOL0     H15572   6.993   8.983   1.866  2.2618  0.0603 -1.0119
  876MOL0     H15573   6.939   8.748   1.858 -3.1885 -1.6836  0.0773
  876MOL0     H15574   6.884   8.763   1.692  1.1438  0.8952 -0.3317
  876MOL0     H15575   6.753   8.890   1.933 -0.4448  1.6741 -1.1170
  876MOL0     H15576   6.698   8.880   1.760 -0.1172 -1.6986 -1.7459
  876MOL0     H15577   6.765   8.642   1.934 -0.4561 -0.5319 -1.3536
  876MOL0     H15578   6.693   8.638   1.771  0.0740 -0.7847 -0.3256
  876MOL0     H15579   6.590   8.785   2.033 -5.1003 -0.1314  1.0300
  876MOL0     H15580   6.542   8.629   2.010 -1.0679  2.5606  3.1418
  876MOL0     H15581   6.377   8.797   1.952  2.2868  5.4021  0.0851
  876MOL0     H15582   6.470   8.859   1.832  2.4074  0.9618  3.1214
  876MOL0     H15583   6.411   8.551   1.826  0.5600 -0.5392  0.7708
  876MOL0     H15584   6.460   8.661   1.695  0.1535 -0.4818 -0.0132
  876MOL0     H15585   6.212   8.884   1.795 -1.5730 -1.3807  2.1073
  876MOL0     H15586   5.878   8.832   1.588 -1.6026  2.2413  0.1740
  876MOL0     H15587   5.971   8.940   1.686  0.3309  0.5570 -2.8601
  876MOL0     H15588   5.762   8.875   1.829  0.0580  0.6232 -3.3684
  876MOL0     H15589   5.917   8.810   1.885  2.6988  1.4043 -2.1622
  876MOL0     H15590   5.872   8.608   1.791 -1.0054 -1.1883 -0.6120
  876MOL0     H15591   5.718   8.648   1.882 -3.0987  1.7307 -1.9307
  876MOL0     H15592   5.780   8.623   1.593  0.7025  2.7023 -0.1195
  876MOL0     H15593   5.662   8.731   1.627  3.2772 -0.1348 -2.6140
  876MOL0     H15594   5.517   8.733   1.820 -1.4934  0.3982  1.1851
  876MOL0     H15595   5.292   8.786   1.863  2.5031 -0.5003  2.1495
  876MOL0     H15596   4.804   8.387   1.887  1.8510  0.5239 -0.3611
  876MOL0     H15597   4.553   8.424   1.925  3.9426 -1.4083  2.6908
  876MOL0     H15598   4.237   8.619   1.880  1.7038  1.6295  1.6632
  876MOL0     H15599   4.325   8.505   1.983  3.3108  0.6417 -0.0373
  876MOL0     H15600   4.337   8.341   1.821 -0.4243 -0.8166 -2.2281
  876MOL0     H15601   4.353   8.459   1.694 -1.0368 -1.1959 -0.5667
  876MOL0     H15602   4.084   8.458   1.835  2.4654  0.1560  2.6868
  876MOL0     H15603   4.143   8.301   1.775  0.0117 -0.0451  1.1068
  876MOL0     H15604   4.178   8.527   1.586 -0.3897  2.2960  0.0236
  876MOL0     H15605   4.141   8.355   1.554  0.0630  1.9143 -1.3829
  876MOL0     H15606   3.943   8.500   1.513 -2.9127 -1.7026  0.9305
  876MOL0     H15607   3.955   8.566   1.675  1.4254  1.2539 -1.6064
  876MOL0     H15608   3.878   8.362   1.767 -0.0840  0.5631  0.2223
  876MOL0     H15609   3.918   8.263   1.620 -0.8127  0.7654 -1.9952
  876MOL0     H15610   3.683   8.456   1.638  0.1582 -2.1189  0.8975
  876MOL0     H15611   3.756   8.399   1.488  0.5603  1.7092 -0.2938
  876MOL0     H15612   3.636   8.232   1.708 -0.5491 -0.4983 -0.8667
  876MOL0     H15613   3.750   8.170   1.581  0.0446  1.8874 -2.8153
  876MOL0     H15614   4.578   8.794   1.734 -3.9359 -1.1974  1.1915
  876MOL0     H15615   4.830   8.768   1.684 -0.7018  0.6045  0.5084
  876MOL0     H15616   5.178   8.426   1.660 -1.0620  2.4532 -1.7108
  876MOL0     H15617   5.417   8.367   1.643 -0.7086 -0.1175  0.9475
  876MOL0     H15618   7.303   9.280   1.630 -1.0036  0.7447 -2.5247
  876MOL0     H15619   7.502   9.301   1.508  1.4125 -0.9012  0.0210
  876MOL0     H15620   8.015   8.889   1.330  1.0775 -1.1827 -2.4995
  876MOL0     H15621   8.158   8.938   1.184  2.0716  1.9476 -0.9290
  876MOL0     H15622   8.272   9.024   0.969 -1.1373 -0.7882 -0.4843
  876MOL0     H15623   8.351   9.108   1.113 -4.0738  0.0241  1.2754
  876MOL0     H15624   8.467   9.131   0.869 -1.5098 -2.7005 -0.1853
  876MOL0     H15625   8.327   9.224   0.820  3.1276  0.8647 -1.5806
  876MOL0     H15626   8.512   9.304   1.047 -0.4230  0.4167  0.7328
  876MOL0     H15627   8.370   9.394   1.010  0.8729 -0.9964  4.2068
  876MOL0     H15628   8.487   9.387   0.755  1.6750  1.1662 -0.7419
  876MOL0     H15629   8.509   9.511   0.881 -0.0127  0.1847 -0.2720
  876MOL0     H15630   8.885   9.426   0.938  2.1178  0.9087 -2.8774
  876MOL0     H15631   7.950   9.301   1.077 -1.2701 -0.6248 -0.9785
  876MOL0     H15632   7.760   9.221   1.220 -1.3887 -2.3210 -1.4503
  877MOL0     O15633   4.255   1.559   9.989  0.8070  0.3833 -0.4628
  877MOL0     C15634   4.261   1.662  10.050 -0.6301 -0.7452  0.1177
  877MOL0     O15635   4.161   1.728  10.110 -0.0051  0.1911 -0.8592
  877MOL0     C15636   4.027   1.678  10.096 -0.1501  0.7166 -0.1342
  877MOL0     C15637   3.954   1.682  10.209 -0.8886  0.1353 -0.5915
  877MOL0     C15638   3.829   1.629  10.217 -0.6179 -0.4985  0.7177
  877MOL0     C15639   3.767   1.560  10.109 -0.5004 -0.2519 -0.1072
  877MOL0     O15640   3.648   1.497  10.124  0.0879  0.0124 -0.5392
  877MOL0     C15641   3.586   1.408  10.026 -1.1508 -0.5282  0.2241
  877MOL0     C15642   3.487   1.325  10.111 -0.5975 -0.8092 -0.0072
  877MOL0     C15643   3.404   1.232  10.019 -0.3175 -0.3255 -0.0904
  877MOL0     C15644   3.283   1.180  10.100 -0.6357  0.7860 -0.1457
  877MOL0     C15645   3.184   1.101  10.018  0.4700  0.6386  0.4226
  877MOL0     C15646   3.081   1.026  10.106 -0.2619  0.2761 -0.0740
  877MOL0     C15647   3.011   0.916  10.024  0.1332  1.2881  0.0466
  877MOL0     C15648   2.920   0.839  10.114 -0.3374  0.0470  0.1722
  877MOL0     N15649   2.812   0.917  10.183 -0.2081 -0.7248  0.1369
  877MOL0     C15650   2.804   0.974  10.307  0.1689  0.0306 -0.4388
  877MOL0     C15651   2.677   0.980  10.346  0.7874 -0.0983 -0.1271
  877MOL0     C15652   2.624   1.041  10.469 -0.5301 -0.6113 -0.8381
  877MOL0     C15653   2.505   0.964  10.528 -0.3255 -0.8685 -0.4106
  877MOL0     C15654   2.369   0.981  10.469 -0.3914 -0.1999  0.0075
  877MOL0     C15655   2.277   0.879  10.527  0.2545  0.0832  0.3803
  877MOL0     O15656   2.253   0.903  10.667  0.6803 -0.6409 -0.1966
  877MOL0     C15657   2.161   0.832  10.742  0.3277 -0.3931  0.5354
  877MOL0     C15658   2.178   0.825  10.881 -0.1545  0.2634 -0.0739
  877MOL0     C15659   2.081   0.768  10.968 -0.0576  0.1964  0.2235
  877MOL0     C15660   1.966   0.701  10.910  0.3382 -0.7697 -0.0850
  877MOL0     C15661   1.867   0.635  11.002  0.3433 -0.5425  0.4257
  877MOL0     O15662   1.887   0.659  11.139 -0.5626  0.1751  0.4990
  877MOL0     C15663   1.794   0.607  11.224  0.4694  0.2434  0.8463
  877MOL0     C15664   1.762   0.682  11.336  0.2792  0.2795  1.1251
  877MOL0     C15665   1.681   0.625  11.437  0.5283 -0.6141  0.8236
  877MOL0     C15666   1.617   0.502  11.430  0.6019  0.2526  0.3211
  877MOL0     O15667   1.534   0.471  11.536 -0.1239  0.4163 -0.9175
  877MOL0     C15668   1.430   0.365  11.525  0.5526  0.5926 -0.2613
  877MOL0     C15669   1.354   0.385  11.654  1.3421  0.5245  0.1597
  877MOL0     C15670   1.225   0.299  11.667  0.3900 -0.3188 -0.7432
  877MOL0     C15671   1.184   0.301  11.816  0.6640  0.3181 -0.0814
  877MOL0     C15672   1.059   0.212  11.833 -0.4637 -0.1169  0.0019
  877MOL0     C15673   0.929   0.285  11.782 -0.2620 -0.1643 -0.0646
  877MOL0     C15674   0.863   0.367  11.902 -0.4135  0.4150 -0.4052
  877MOL0     C15675   0.737   0.421  11.854  1.2442  0.0673 -0.2908
  877MOL0    Cl15676   0.786   0.547  11.732 -0.3842  0.0432  0.1018
  877MOL0     C15677   1.634   0.427  11.311 -0.4633 -0.5431 -0.5276
  877MOL0     C15678   1.726   0.480  11.211 -0.9962 -0.5637 -0.0855
  877MOL0     O15679   1.763   0.591  10.952  0.3507  0.1114 -0.5709
  877MOL0     C15680   1.955   0.696  10.768 -0.0944 -0.4763  0.5319
  877MOL0     C15681   2.045   0.769  10.690 -0.0758  0.1884  0.4651
  877MOL0     N15682   2.607   0.939  10.234 -0.8128  0.2097  0.1548
  877MOL0     N15683   2.686   0.905  10.141 -0.5622  0.3869 -0.0926
  877MOL0     C15684   3.844   1.550   9.990 -0.1186 -0.6802  0.6268
  877MOL0     C15685   3.969   1.610   9.986  0.0917 -0.0814  0.0634
  877MOL0     C15686   4.399   1.719  10.045  0.5189 -0.0694 -0.3053
  877MOL0     C15687   4.415   1.855  10.081  1.0478  0.0975  0.0165
  877MOL0     C15688   4.542   1.916  10.078  0.2836  0.2049  0.9000
  877MOL0     C15689   4.650   1.844  10.035 -0.3301 -0.1682 -0.5932
  877MOL0     O15690   4.771   1.905  10.052  0.7529 -1.0526 -0.1910
  877MOL0     C15691   4.855   1.871   9.941 -0.3085 -0.3486 -0.0088
  877MOL0     C15692   4.988   1.949   9.951 -0.1773 -0.4894 -0.5519
  877MOL0     C15693   4.977   2.077   9.872  0.3436 -0.3038  1.0394
  877MOL0     C15694   5.099   2.175   9.876 -0.5673  0.6560  1.0315
  877MOL0     C15695   5.201   2.119   9.787  0.0712 -0.5112 -0.1951
  877MOL0     C15696   5.290   2.070   9.717 -0.0122  1.1461 -0.3603
  877MOL0     C15697   4.639   1.706  10.002 -1.1149 -0.2317 -0.7181
  877MOL0     C15698   4.514   1.647  10.005  0.3830  0.7046  0.5437
  877MOL0     H15699   4.008   1.730  10.291 -2.6976 -0.0353  0.7567
  877MOL0     H15700   3.769   1.644  10.306  2.9952 -0.5055  3.3710
  877MOL0     H15701   3.659   1.340   9.981  0.4270  0.4971  1.1427
  877MOL0     H15702   3.531   1.456   9.945 -0.6180 -1.1033 -0.4974
  877MOL0     H15703   3.415   1.389  10.162 -0.4298 -1.4688  1.0810
  877MOL0     H15704   3.543   1.264  10.182 -2.6055  1.0537  3.4490
  877MOL0     H15705   3.478   1.167   9.972 -0.2642 -0.0332 -0.4219
  877MOL0     H15706   3.343   1.283   9.943 -0.8404  0.4303  0.8132
  877MOL0     H15707   3.332   1.133  10.186  0.4357  0.4784 -0.9032
  877MOL0     H15708   3.217   1.263  10.126 -4.1224 -1.0187 -2.5639
  877MOL0     H15709   3.220   1.034   9.940 -2.8461 -0.2189 -0.5236
  877MOL0     H15710   3.130   1.181   9.967 -1.3335 -1.2817 -0.8346
  877MOL0     H15711   3.024   1.114  10.139  1.7676  2.8143 -2.7687
  877MOL0     H15712   3.122   0.979  10.195 -3.4957 -0.6603  1.0846
  877MOL0     H15713   2.966   0.968   9.939  2.1125 -0.0961 -1.9595
  877MOL0     H15714   3.089   0.850   9.983  0.9882  1.0001  2.0009
  877MOL0     H15715   2.991   0.791  10.182  0.8981  0.9065 -0.4858
  877MOL0     H15716   2.861   0.760  10.067  0.7191 -2.7203  3.1615
  877MOL0     H15717   2.894   0.989  10.367  1.9809  1.1364 -3.2331
  877MOL0     H15718   2.595   1.143  10.442  0.9697  0.2370  0.5730
  877MOL0     H15719   2.703   1.051  10.544 -3.2856  2.2276  1.9127
  877MOL0     H15720   2.508   0.995  10.632  2.8895  0.2976 -0.7170
  877MOL0     H15721   2.520   0.855  10.524 -0.8673 -0.9898  0.6928
  877MOL0     H15722   2.329   1.080  10.492 -1.3155 -0.9439  1.7018
  877MOL0     H15723   2.379   0.974  10.360  3.3971  2.3032 -0.0105
  877MOL0     H15724   2.287   0.773  10.499 -1.4664  0.1575 -0.6767
  877MOL0     H15725   2.179   0.903  10.484  0.1568  0.7265  0.9585
  877MOL0     H15726   2.275   0.858  10.914  0.7496 -1.5602 -0.7657
  877MOL0     H15727   2.084   0.769  11.076 -2.0154  3.6745  0.3969
  877MOL0     H15728   1.797   0.783  11.356 -0.6904  1.1711 -1.2885
  877MOL0     H15729   1.672   0.699  11.515 -0.6782  3.6181 -2.9109
  877MOL0     H15730   1.471   0.264  11.522  0.2856  0.5046 -1.1761
  877MOL0     H15731   1.362   0.367  11.439 -0.0261 -3.8086 -0.1286
  877MOL0     H15732   1.318   0.487  11.642 -1.3943 -0.5368 -1.6699
  877MOL0     H15733   1.409   0.375  11.747  1.7647 -1.2616 -0.2355
  877MOL0     H15734   1.251   0.195  11.648  0.1111 -0.3337 -1.0461
  877MOL0     H15735   1.151   0.335  11.595  1.3475 -0.1117 -1.6518
  877MOL0     H15736   1.262   0.256  11.878  0.4504 -0.7829 -0.5865
  877MOL0     H15737   1.169   0.397  11.866  2.7567 -0.4997  2.3460
  877MOL0     H15738   1.037   0.175  11.933 -1.2096 -3.7808 -1.3428
  877MOL0     H15739   1.078   0.122  11.773 -0.4383 -0.9430  1.2293
  877MOL0     H15740   0.864   0.211  11.736 -0.0780 -0.8129  0.7089
  877MOL0     H15741   0.958   0.350  11.698  1.8586 -1.2205 -0.2026
  877MOL0     H15742   0.845   0.301  11.988 -1.3197 -0.1929 -1.0371
  877MOL0     H15743   0.918   0.457  11.930 -2.0268  1.3905 -0.2290
  877MOL0     H15744   0.681   0.469  11.936 -1.4756  2.4249 -3.2586
  877MOL0     H15745   0.675   0.346  11.805  0.2386  0.5025  0.2856
  877MOL0     H15746   1.595   0.326  11.309  0.0768 -0.8778  2.0743
  877MOL0     H15747   1.748   0.429  11.118  2.1598  1.4498 -0.5798
  877MOL0     H15748   1.865   0.651  10.728  1.0515 -0.8531 -1.8205
  877MOL0     H15749   2.023   0.773  10.584 -2.7333 -3.0418  0.7248
  877MOL0     H15750   3.817   1.505   9.894  1.2756 -1.1745  0.4407
  877MOL0     H15751   4.022   1.603   9.892  0.9726 -0.1773  0.5542
  877MOL0     H15752   4.325   1.910  10.107  0.7944 -0.0857 -0.4507
  877MOL0     H15753   4.554   2.019  10.108  1.1135  0.1694  0.7138
  877MOL0     H15754   4.804   1.902   9.849 -2.2651 -3.1197  0.0114
  877MOL0     H15755   4.885   1.765   9.939  1.8508  0.1899  0.9468
  877MOL0     H15756   5.018   1.963  10.056 -3.7766 -1.3913  0.7242
  877MOL0     H15757   5.055   1.874   9.907 -2.0621 -1.3655 -2.0745
  877MOL0     H15758   4.892   2.133   9.910  0.2818 -0.8782  1.7790
  877MOL0     H15759   4.952   2.050   9.769  1.2035  1.2350  0.3951
  877MOL0     H15760   5.059   2.272   9.844 -1.0731  0.5909  1.4538
  877MOL0     H15761   5.141   2.178   9.977 -0.4263  2.2880  0.9440
  877MOL0     H15762   5.365   2.024   9.656  0.1990 -0.9205  1.3397
  877MOL0     H15763   4.719   1.642   9.965 -0.4771  1.3783 -2.3007
  877MOL0     H15764   4.502   1.547   9.964  1.5453  0.8098 -0.0777
  878MOL0     O15765   1.798   9.367  10.310  0.6682  0.3648 -0.2362
  878MOL0     C15766   1.832   9.469  10.372 -0.5867  0.6127 -0.2651
  878MOL0     O15767   1.747   9.569  10.414 -0.0901  0.0531 -0.6316
  878MOL0     C15768   1.615   9.532  10.434 -0.3907 -1.1718 -0.6855
  878MOL0     C15769   1.585   9.453  10.537 -0.4461  1.1878  0.5469
  878MOL0     C15770   1.450   9.412  10.558 -0.6349  0.1390  0.7087
  878MOL0     C15771   1.353   9.461  10.466  0.2632  0.1623 -0.2395
  878MOL0     O15772   1.215   9.429  10.483 -0.3885  0.0631 -0.5980
  878MOL0     C15773   1.167   9.379  10.610  0.6236  0.1680 -0.1863
  878MOL0     C15774   1.015   9.374  10.603 -0.3445 -0.1816 -0.2335
  878MOL0     C15775   0.946   9.509  10.600  1.0546 -0.1383 -0.7369
  878MOL0     C15776   0.960   9.591  10.732 -0.3340  0.1914 -0.0691
  878MOL0     C15777   0.908   9.736  10.725 -0.4301 -1.0745  0.8939
  878MOL0     C15778   0.755   9.762  10.759  0.5109 -0.2042  0.8012
  878MOL0     C15779   0.669   9.727  10.644  0.3296 -0.4790 -0.2089
  878MOL0     C15780   0.532   9.796  10.649 -0.0514 -0.1055  0.7416
  878MOL0     N15781   0.548   9.936  10.596  0.3934  0.0893  0.5630
  878MOL0     C15782   0.560   9.974  10.462  0.2716 -0.6948 -0.6557
  878MOL0     C15783   0.579  10.111  10.463 -0.0338 -0.0507  0.1043
  878MOL0     C15784   0.604  10.189  10.334  0.9064 -0.0272  1.0151
  878MOL0     C15785   0.460  10.241  10.290  0.0149 -0.3868 -0.2173
  878MOL0     C15786   0.464  10.316  10.157  0.1791 -0.4187 -0.3096
  878MOL0     C15787   0.465  10.228  10.033 -1.0329 -0.1575 -0.3256
  878MOL0     O15788   0.372  10.126  10.040  0.6747 -0.2053  0.8817
  878MOL0     C15789   0.244  10.168  10.008 -0.5176  0.4871  0.0100
  878MOL0     C15790   0.157  10.198  10.112 -0.2093 -0.5802  0.2853
  878MOL0     C15791   0.019  10.232  10.096  0.0109  0.5123 -0.0855
  878MOL0     C15792  -0.038  10.214   9.972  0.0587 -0.8184  0.4095
  878MOL0     C15793  -0.181  10.231   9.962 -1.0250  0.4591  0.2147
  878MOL0     O15794  -0.258  10.279  10.066 -1.0790  0.2836  0.1080
  878MOL0     C15795  -0.385  10.305  10.055  0.1364 -0.3823  0.1514
  878MOL0     C15796  -0.476  10.236  10.125  0.5223  0.0040 -0.6572
  878MOL0     C15797  -0.614  10.256  10.119 -0.3376  0.3492 -0.6484
  878MOL0     C15798  -0.665  10.334  10.017  1.2855 -0.6483 -0.0168
  878MOL0     O15799  -0.801  10.346  10.000  0.4158  0.2943 -0.3336
  878MOL0     C15800  -0.854  10.388   9.882  0.1609  0.5498  0.8333
  878MOL0     C15801  -0.998  10.337   9.878 -0.9781  0.0406  0.2346
  878MOL0     C15802  -1.088  10.427   9.794  0.3396 -0.0362  0.3109
  878MOL0     C15803  -1.230  10.403   9.839  0.2596 -0.0934  0.1661
  878MOL0     C15804  -1.339  10.456   9.742  0.0161  0.2577  0.6931
  878MOL0     C15805  -1.458  10.487   9.828  0.2532  0.3268  0.2754
  878MOL0     C15806  -1.572  10.539   9.734  0.2375  0.1434  0.6773
  878MOL0     C15807  -1.689  10.598   9.811  0.6726 -0.2527  0.1293
  878MOL0    Cl15808  -1.806  10.677   9.694  0.2764  0.3351 -0.0451
  878MOL0     C15809  -0.574  10.417   9.946 -0.5206  0.8683 -0.2743
  878MOL0     C15810  -0.438  10.401   9.963 -0.7117  0.3527  0.5660
  878MOL0     O15811  -0.219  10.204   9.849 -0.2879 -0.9166 -0.3336
  878MOL0     C15812   0.044  10.185   9.862  0.2461  0.7557 -0.1853
  878MOL0     C15813   0.186  10.162   9.878 -0.5340  0.3584 -0.1977
  878MOL0     N15814   0.567  10.150  10.598  0.9150 -0.5869 -0.2206
  878MOL0     N15815   0.562  10.046  10.669  0.1606 -0.2696  0.2521
  878MOL0     C15816   1.394   9.539  10.351 -0.1120 -0.4421  0.2491
  878MOL0     C15817   1.524   9.583  10.337 -0.3284 -0.8176 -0.2113
  878MOL0     C15818   1.980   9.474  10.390  0.5209  0.0653  0.5664
  878MOL0     C15819   2.062   9.360  10.369  0.3158 -0.0189  0.0807
  878MOL0     C15820   2.196   9.367  10.403 -0.6426 -0.2372 -0.3948
  878MOL0     C15821   2.255   9.487  10.451 -0.6704 -0.6643  0.1843
  878MOL0     O15822   2.391   9.504  10.478 -0.1367 -0.1288 -0.3751
  878MOL0     C15823   2.463   9.393  10.538 -0.4286  0.1041  0.1324
  878MOL0     C15824   2.611   9.438  10.544  0.5336  0.5731  0.1168
  878MOL0     C15825   2.642   9.563  10.641 -0.1113 -0.1707  0.4289
  878MOL0     C15826   2.622   9.695  10.574 -0.0879 -0.1156 -0.1370
  878MOL0     C15827   2.684   9.803  10.651 -0.5274  1.0220 -0.5589
  878MOL0     C15828   2.745   9.894  10.703 -0.0003 -0.7850 -0.1679
  878MOL0     C15829   2.176   9.598  10.451  0.2034 -0.0058 -1.3255
  878MOL0     C15830   2.041   9.590  10.432  0.2507 -0.3880  0.3128
  878MOL0     H15831   1.667   9.433  10.606  0.2733  0.9075 -0.3692
  878MOL0     H15832   1.428   9.352  10.646 -0.8543  0.5003  0.9038
  878MOL0     H15833   1.184   9.444  10.696 -0.4980 -0.0935  0.2427
  878MOL0     H15834   1.197   9.276  10.632  2.6468  0.0829 -2.8074
  878MOL0     H15835   0.984   9.323  10.695  2.0278 -1.6387 -0.1594
  878MOL0     H15836   0.982   9.315  10.517 -0.4925  1.4340 -1.3164
  878MOL0     H15837   0.840   9.485  10.586  0.6831  1.7832 -1.5722
  878MOL0     H15838   0.994   9.576  10.528  0.2109  1.7507  0.3812
  878MOL0     H15839   0.891   9.548  10.805 -2.3819  0.3261 -1.8436
  878MOL0     H15840   1.065   9.600  10.762 -0.0308 -0.2468 -0.9777
  878MOL0     H15841   0.945   9.785  10.635 -0.8223 -1.2099  0.6554
  878MOL0     H15842   0.953   9.783  10.813  1.2094  0.7232 -0.8211
  878MOL0     H15843   0.742   9.866  10.789 -0.4593  0.0348 -0.3988
  878MOL0     H15844   0.736   9.683  10.832 -0.3015  0.7883  1.6934
  878MOL0     H15845   0.726   9.753  10.555 -2.3410 -1.8557 -2.4726
  878MOL0     H15846   0.651   9.619  10.651  0.9148 -0.5233  0.9069
  878MOL0     H15847   0.490   9.804  10.750 -2.3964  0.1529 -0.1889
  878MOL0     H15848   0.452   9.749  10.591  0.3495  0.2097 -0.0761
  878MOL0     H15849   0.562   9.908  10.375  0.3947  0.9047 -1.9290
  878MOL0     H15850   0.649  10.121  10.261  0.4250 -1.2337  1.7943
  878MOL0     H15851   0.671  10.273  10.349 -0.2538  0.6703  2.5090
  878MOL0     H15852   0.426  10.304  10.372  1.2782  0.4779 -0.3311
  878MOL0     H15853   0.391  10.156  10.278  0.6885 -0.6773 -2.6887
  878MOL0     H15854   0.371  10.372  10.146  0.7790  1.5610  3.2595
  878MOL0     H15855   0.554  10.379  10.147 -0.0282 -0.1392 -0.4165
  878MOL0     H15856   0.565  10.184  10.023 -1.4920 -1.3416  0.0668
  878MOL0     H15857   0.449  10.302   9.955 -0.4845  0.9713  0.5924
  878MOL0     H15858   0.192  10.199  10.215  0.5450 -2.4059  0.0877
  878MOL0     H15859  -0.045  10.262  10.179  0.0105 -1.7389  0.8067
  878MOL0     H15860  -0.435  10.167  10.198  0.0849  0.6638  0.2319
  878MOL0     H15861  -0.681  10.206  10.188 -1.4300 -2.0206 -3.2117
  878MOL0     H15862  -0.808  10.365   9.786  0.6732 -1.0670  1.4412
  878MOL0     H15863  -0.856  10.497   9.890 -1.0823  0.3840  5.0744
  878MOL0     H15864  -1.038  10.330   9.979  1.2138  0.8422  1.2144
  878MOL0     H15865  -0.998  10.242   9.822  1.2377  0.1642 -0.0715
  878MOL0     H15866  -1.088  10.394   9.690 -3.2074  4.0380 -1.3215
  878MOL0     H15867  -1.054  10.531   9.799  2.2845 -0.6907  4.6355
  878MOL0     H15868  -1.237  10.294   9.846  0.1647 -0.0557  0.7123
  878MOL0     H15869  -1.231  10.451   9.937  1.7812 -2.0156  1.1815
  878MOL0     H15870  -1.346  10.385   9.659  2.0635  0.3773  0.3648
  878MOL0     H15871  -1.316  10.554   9.697  0.6980  0.2384  0.9746
  878MOL0     H15872  -1.435  10.557   9.909  1.1000 -1.4559  1.6295
  878MOL0     H15873  -1.485  10.390   9.871  0.5030  0.3985  0.5962
  878MOL0     H15874  -1.532  10.607   9.659 -0.4883  0.7193  0.7972
  878MOL0     H15875  -1.608  10.454   9.675  0.4344  0.1860  0.4936
  878MOL0     H15876  -1.654  10.670   9.887  1.6527  0.4748 -0.9793
  878MOL0     H15877  -1.746  10.526   9.871 -0.6732  0.9879  0.4114
  878MOL0     H15878  -0.617  10.484   9.873  0.2054  1.0528 -0.5431
  878MOL0     H15879  -0.378  10.453   9.889  0.3495  0.0985  1.2362
  878MOL0     H15880  -0.003  10.178   9.765  2.8975  1.6269 -1.6515
  878MOL0     H15881   0.249  10.134   9.794  0.4496 -0.8280  0.8929
  878MOL0     H15882   1.323   9.569  10.275  0.8423 -0.6965 -0.7875
  878MOL0     H15883   1.568   9.643  10.258 -0.7340 -0.3427 -0.0878
  878MOL0     H15884   2.027   9.261  10.342 -0.6407  1.0817 -3.2035
  878MOL0     H15885   2.242   9.268  10.405 -0.2935 -0.0671  1.2449
  878MOL0     H15886   2.465   9.306  10.471 -2.2116 -0.7410  1.0838
  878MOL0     H15887   2.422   9.357  10.633  1.3170 -0.6872  0.6109
  878MOL0     H15888   2.681   9.356  10.562  1.7843  0.7526 -3.1683
  878MOL0     H15889   2.645   9.473  10.446 -0.2119 -0.0215 -0.3606
  878MOL0     H15890   2.748   9.559  10.666  0.0748 -1.1409 -0.4288
  878MOL0     H15891   2.593   9.554  10.738  1.5313 -0.5825  1.2443
  878MOL0     H15892   2.674   9.692  10.478  0.7626  1.6464  0.2191
  878MOL0     H15893   2.518   9.730  10.569  0.7868  2.8012  0.1613
  878MOL0     H15894   2.796   9.977  10.748  1.1744 -1.7526  0.3525
  878MOL0     H15895   2.234   9.687  10.473 -1.6921  0.5775  2.0413
  878MOL0     H15896   1.988   9.681  10.459 -1.6076 -0.6159 -2.2305
  879MOL0     O15897   8.959   8.508   9.763  0.5357 -0.0802  1.2060
  879MOL0     C15898   8.984   8.546   9.881 -0.1795 -0.2409  0.0405
  879MOL0     O15899   8.891   8.577   9.974 -0.1320 -0.3866 -0.0189
  879MOL0     C15900   8.753   8.547   9.958  0.2275 -0.1585 -0.8027
  879MOL0     C15901   8.664   8.634  10.036 -0.9873 -0.4836  0.3170
  879MOL0     C15902   8.525   8.627  10.027  0.0822 -0.4693  0.1643
  879MOL0     C15903   8.466   8.540   9.929  0.5905  0.5467 -0.5522
  879MOL0     O15904   8.345   8.538   9.872 -0.0960 -0.7470 -0.4426
  879MOL0     C15905   8.241   8.566   9.967  0.0151  0.0655  0.0963
  879MOL0     C15906   8.130   8.625   9.879 -0.7774 -0.3282  0.3600
  879MOL0     C15907   7.991   8.652   9.947  0.5748  0.6367 -0.6843
  879MOL0     C15908   7.897   8.724   9.845  0.7751 -0.4155 -0.4761
  879MOL0     C15909   7.761   8.768   9.905 -0.2614  0.0746 -0.0344
  879MOL0     C15910   7.652   8.819   9.806 -0.2119  0.9154  0.0923
  879MOL0     C15911   7.515   8.841   9.874  0.2782  0.1106 -0.3622
  879MOL0     C15912   7.398   8.881   9.787  0.0774  0.4505 -0.6936
  879MOL0     N15913   7.401   8.823   9.652 -0.0673  0.1605 -0.4213
  879MOL0     C15914   7.302   8.734   9.602 -0.1868 -0.5955 -0.0585
  879MOL0     C15915   7.318   8.731   9.466  0.3115 -0.0007 -0.2453
  879MOL0     C15916   7.237   8.650   9.360 -0.5698 -0.1936 -1.0802
  879MOL0     C15917   7.129   8.739   9.290  0.2053  0.9215 -0.4806
  879MOL0     C15918   7.046   8.639   9.202 -0.1383 -0.3961 -0.4543
  879MOL0     C15919   6.915   8.699   9.155 -0.4334  0.7114 -0.1611
  879MOL0     O15920   6.827   8.715   9.268  0.6908 -0.0028 -0.4629
  879MOL0     C15921   6.700   8.768   9.250 -0.8445  0.5670 -0.1822
  879MOL0     C15922   6.636   8.780   9.371  0.2022  0.9350  0.0165
  879MOL0     C15923   6.507   8.830   9.375  0.8370 -0.5486  0.0064
  879MOL0     C15924   6.443   8.882   9.256 -1.3263 -0.2054 -0.2437
  879MOL0     C15925   6.320   8.966   9.261  0.3155  0.2767 -0.7681
  879MOL0     O15926   6.242   8.992   9.150  0.4609 -0.2072  0.2580
  879MOL0     C15927   6.133   9.073   9.152  0.3056  0.2346 -0.3278
  879MOL0     C15928   6.140   9.210   9.187  0.0772 -0.7798 -0.3148
  879MOL0     C15929   6.031   9.288   9.185  0.7766 -0.6801 -0.3370
  879MOL0     C15930   5.908   9.240   9.147 -0.3117 -0.7078  0.3979
  879MOL0     O15931   5.798   9.323   9.154 -0.6700 -0.4736 -0.4563
  879MOL0     C15932   5.685   9.319   9.061  0.2353  0.4242  0.2356
  879MOL0     C15933   5.618   9.459   9.060  0.1909 -0.2736  0.4873
  879MOL0     C15934   5.576   9.502   9.197  0.8306 -0.2386 -0.2746
  879MOL0     C15935   5.429   9.477   9.235  0.5717  0.2639 -0.1905
  879MOL0     C15936   5.400   9.538   9.376 -0.5834  0.4972 -0.3854
  879MOL0     C15937   5.330   9.672   9.375 -0.9263  0.8964  0.3279
  879MOL0     C15938   5.245   9.698   9.497  0.3961 -0.0426 -0.1319
  879MOL0     C15939   5.099   9.649   9.463 -0.3571 -0.1268 -0.2313
  879MOL0    Cl15940   4.990   9.662   9.600  0.0142  0.0469  0.2776
  879MOL0     C15941   5.899   9.101   9.109  0.0925 -1.0751 -0.1773
  879MOL0     C15942   6.011   9.017   9.109  0.6392 -0.6222 -0.3971
  879MOL0     O15943   6.283   8.995   9.377 -0.0345  0.2864  0.0796
  879MOL0     C15944   6.519   8.877   9.138  0.2265  0.9973  0.1835
  879MOL0     C15945   6.643   8.812   9.133 -0.2710 -0.7492 -0.2778
  879MOL0     N15946   7.417   8.828   9.436  0.5002  0.1200  0.0750
  879MOL0     N15947   7.462   8.886   9.544  0.0440  0.7757 -0.3447
  879MOL0     C15948   8.557   8.458   9.861 -0.6867 -0.0185  0.8966
  879MOL0     C15949   8.694   8.456   9.882 -0.2049  0.5338  0.3985
  879MOL0     C15950   9.131   8.537   9.933 -0.5225 -0.7121 -0.0020
  879MOL0     C15951   9.236   8.477   9.866  0.1907  0.5365  0.0846
  879MOL0     C15952   9.361   8.458   9.926  0.5705 -0.2729 -0.6836
  879MOL0     C15953   9.389   8.518  10.044  0.0268 -0.7305 -0.7944
  879MOL0     O15954   9.518   8.506  10.104  0.1131 -0.7379 -0.0800
  879MOL0     C15955   9.613   8.400  10.059  0.1908 -0.0530 -0.5025
  879MOL0     C15956   9.721   8.390  10.168  1.3143  0.1367 -0.0989
  879MOL0     C15957   9.802   8.263  10.147  0.0619  0.3011  0.2629
  879MOL0     C15958   9.916   8.246  10.251  0.2699  0.1830 -0.6944
  879MOL0     C15959  10.016   8.151  10.199 -1.2263  0.6151 -0.1040
  879MOL0     C15960  10.106   8.083  10.158  0.1573  0.6870  0.0745
  879MOL0     C15961   9.290   8.583  10.114  0.0789 -0.5202 -0.4668
  879MOL0     C15962   9.165   8.599  10.060  0.3550  0.0779 -0.5317
  879MOL0     H15963   8.710   8.716  10.090  0.2834  0.9959 -2.7449
  879MOL0     H15964   8.466   8.704  10.076  0.1128 -0.2583 -0.1284
  879MOL0     H15965   8.259   8.638  10.047 -0.3555 -0.6976  0.8822
  879MOL0     H15966   8.210   8.476  10.021  0.3160  1.1010  2.1028
  879MOL0     H15967   8.122   8.560   9.792 -0.6705  1.5657 -1.1139
  879MOL0     H15968   8.156   8.720   9.830  0.0437 -0.8796 -0.3069
  879MOL0     H15969   8.020   8.727  10.022  4.0729  0.6507 -1.8623
  879MOL0     H15970   7.956   8.557   9.988 -2.3154 -0.3576 -4.8568
  879MOL0     H15971   7.945   8.812   9.802  1.4968 -0.9996 -0.8841
  879MOL0     H15972   7.877   8.644   9.773 -0.1231  0.6336 -1.4367
  879MOL0     H15973   7.775   8.843   9.983 -1.1905 -2.2882  2.5790
  879MOL0     H15974   7.718   8.684   9.962  0.8597 -0.1527  0.5225
  879MOL0     H15975   7.647   8.751   9.721  0.1590  1.3559 -0.2901
  879MOL0     H15976   7.696   8.911   9.766  1.0967 -0.4957 -1.8746
  879MOL0     H15977   7.492   8.741   9.911  2.0227 -0.2884 -0.2590
  879MOL0     H15978   7.524   8.909   9.959  0.7548 -0.0292 -0.2973
  879MOL0     H15979   7.400   8.990   9.782 -2.2119  0.6024  0.3194
  879MOL0     H15980   7.293   8.868   9.817 -0.1324  2.4950 -0.4100
  879MOL0     H15981   7.230   8.672   9.653 -1.3869 -0.1403 -1.1638
  879MOL0     H15982   7.198   8.564   9.414 -0.0388 -0.8228 -1.6773
  879MOL0     H15983   7.309   8.617   9.285 -1.6260 -0.7750 -1.8829
  879MOL0     H15984   7.190   8.808   9.231  0.8690  0.4792 -0.3305
  879MOL0     H15985   7.052   8.794   9.344 -2.7670 -1.0954 -2.3478
  879MOL0     H15986   7.106   8.611   9.116 -0.8671  0.7512 -1.3798
  879MOL0     H15987   7.034   8.551   9.265 -0.1165 -0.9708 -1.2513
  879MOL0     H15988   6.880   8.618   9.090 -2.0592 -1.2516  2.8989
  879MOL0     H15989   6.920   8.792   9.098  1.6539  1.4307  1.0894
  879MOL0     H15990   6.680   8.757   9.467  0.3871 -1.1573 -0.5245
  879MOL0     H15991   6.457   8.835   9.472  0.9739 -3.1014  0.2919
  879MOL0     H15992   6.226   9.264   9.226 -1.7691  0.2464  2.6596
  879MOL0     H15993   6.048   9.392   9.213 -1.7090 -0.5443  0.8890
  879MOL0     H15994   5.613   9.244   9.093 -0.3834  1.1332  0.5319
  879MOL0     H15995   5.712   9.294   8.958 -0.6168 -2.0636  0.5580
  879MOL0     H15996   5.544   9.462   8.980  3.3733  0.7258 -2.6680
  879MOL0     H15997   5.692   9.532   9.025 -0.1754  0.1534  0.5913
  879MOL0     H15998   5.596   9.609   9.204  1.3694 -0.3021 -0.8199
  879MOL0     H15999   5.640   9.461   9.276  0.7159 -2.1477 -1.1175
  879MOL0     H16000   5.370   9.511   9.150  2.4701  0.8989 -1.2990
  879MOL0     H16001   5.420   9.368   9.233 -1.3521  0.3932 -2.7272
  879MOL0     H16002   5.489   9.548   9.438  0.4277 -1.3889 -1.4113
  879MOL0     H16003   5.341   9.463   9.430 -1.2484  2.3226  1.5443
  879MOL0     H16004   5.263   9.673   9.288  0.2339 -0.1372 -0.6101
  879MOL0     H16005   5.398   9.753   9.351  2.8603 -2.4775 -1.5047
  879MOL0     H16006   5.278   9.649   9.590 -3.8043 -0.3914  1.4054
  879MOL0     H16007   5.239   9.805   9.519 -0.4918  0.5327 -2.8888
  879MOL0     H16008   5.095   9.545   9.430 -2.5151 -1.7024  4.1694
  879MOL0     H16009   5.048   9.701   9.382 -0.4686 -0.5412 -0.4306
  879MOL0     H16010   5.806   9.047   9.092  0.9624 -1.8180 -2.9764
  879MOL0     H16011   5.997   8.909   9.099 -1.5280 -0.3875 -0.4031
  879MOL0     H16012   6.472   8.912   9.047 -0.8199 -2.1876 -0.6325
  879MOL0     H16013   6.702   8.786   9.046 -0.6439 -0.1794 -0.7039
  879MOL0     H16014   8.524   8.392   9.783  1.5264  0.9183 -0.9718
  879MOL0     H16015   8.747   8.391   9.812 -1.2421  0.6715 -0.5438
  879MOL0     H16016   9.235   8.433   9.766  1.2004 -2.1442  1.1667
  879MOL0     H16017   9.432   8.389   9.881 -0.9598 -3.2026  1.1558
  879MOL0     H16018   9.651   8.417   9.958  2.8439  1.0250  0.5738
  879MOL0     H16019   9.565   8.302  10.048 -0.3713  0.1811 -0.1787
  879MOL0     H16020   9.783   8.480  10.175  1.3544  0.1652 -0.8482
  879MOL0     H16021   9.677   8.376  10.268  1.6573  1.7593  0.3142
  879MOL0     H16022   9.853   8.289  10.053  0.4044 -0.3212  0.2692
  879MOL0     H16023   9.752   8.167  10.131  1.1581 -0.0707 -1.1589
  879MOL0     H16024   9.967   8.339  10.279  1.7490 -1.4600  2.7007
  879MOL0     H16025   9.871   8.213  10.346  0.2036 -1.0787 -1.1502
  879MOL0     H16026  10.197   8.027  10.149 -0.7983 -1.1797  1.5428
  879MOL0     H16027   9.308   8.624  10.213  1.4541  0.1262 -0.9653
  879MOL0     H16028   9.087   8.648  10.117 -0.1412  1.3025 -2.2066
  880MOL0     O16029   8.152  10.849   7.169 -0.3600  0.4736  0.3500
  880MOL0     C16030   8.155  10.946   7.091 -1.1939 -0.3155  0.3450
  880MOL0     O16031   8.079  11.055   7.105  0.2458 -0.3419  0.5115
  880MOL0     C16032   7.989  11.054   7.212  0.1909  0.4680 -0.0588
  880MOL0     C16033   7.884  10.958   7.220 -0.8700  0.6798  1.3599
  880MOL0     C16034   7.785  10.976   7.317 -0.1150 -0.7421  0.0030
  880MOL0     C16035   7.783  11.098   7.393  0.1503 -0.0992  1.2066
  880MOL0     O16036   7.672  11.110   7.475 -0.5377 -0.0773  0.2386
  880MOL0     C16037   7.685  11.221   7.568 -0.1306 -0.7161 -0.0231
  880MOL0     C16038   7.583  11.210   7.669  0.5999  0.2694 -1.1846
  880MOL0     C16039   7.447  11.275   7.628 -0.1439 -0.0781  0.5261
  880MOL0     C16040   7.340  11.254   7.734 -0.8160  0.0635 -0.3282
  880MOL0     C16041   7.208  11.312   7.684 -0.4193  0.0161 -0.6617
  880MOL0     C16042   7.090  11.282   7.783 -0.0235 -0.0087 -1.1164
  880MOL0     C16043   6.948  11.337   7.762  0.1218  0.1770 -0.2146
  880MOL0     C16044   6.878  11.276   7.637 -0.0899 -0.0121  0.1305
  880MOL0     N16045   6.736  11.296   7.641 -0.1203  0.1928  0.2984
  880MOL0     C16046   6.664  11.411   7.651 -0.3340  0.1765 -0.4872
  880MOL0     C16047   6.541  11.380   7.688 -0.0034  0.7460  0.0483
  880MOL0     C16048   6.436  11.474   7.728 -0.4701 -0.6377 -0.3380
  880MOL0     C16049   6.360  11.500   7.593  0.1565 -1.1045 -1.0290
  880MOL0     C16050   6.234  11.590   7.617  0.2450 -0.1583  0.8873
  880MOL0     C16051   6.121  11.579   7.506 -0.9065 -1.0224 -0.2686
  880MOL0     O16052   6.052  11.446   7.502  0.3012  0.6574 -0.2723
  880MOL0     C16053   5.927  11.432   7.443 -0.0315  0.1694  0.5271
  880MOL0     C16054   5.891  11.304   7.411  0.4483 -0.0403  0.5580
  880MOL0     C16055   5.773  11.278   7.335  0.6343  0.2139  0.3152
  880MOL0     C16056   5.682  11.382   7.307  0.3918 -0.7743  0.3863
  880MOL0     C16057   5.554  11.357   7.243  0.0587 -0.0075 -0.3553
  880MOL0     O16058   5.496  11.231   7.261  0.3757  0.7641 -0.2081
  880MOL0     C16059   5.360  11.202   7.245  0.4109 -0.2654 -0.8534
  880MOL0     C16060   5.254  11.304   7.265 -0.3209  0.6049 -0.2280
  880MOL0     C16061   5.125  11.254   7.251 -2.0215  0.3717  0.1553
  880MOL0     C16062   5.090  11.119   7.246 -0.4981 -0.9047 -0.3258
  880MOL0     O16063   4.958  11.090   7.243 -0.2903 -0.8208  0.1044
  880MOL0     C16064   4.912  10.963   7.203 -0.5643  0.2593  0.3538
  880MOL0     C16065   4.762  10.955   7.221 -0.4264 -0.6467  0.0648
  880MOL0     C16066   4.683  11.064   7.152 -0.1146 -1.0457 -0.1033
  880MOL0     C16067   4.551  11.001   7.111 -0.7019  0.0497  0.3263
  880MOL0     C16068   4.456  11.012   7.231  0.0158 -0.4945  1.2175
  880MOL0     C16069   4.316  10.966   7.195  0.1105 -0.5028 -0.0030
  880MOL0     C16070   4.230  10.985   7.317  0.4924 -0.1832  0.2912
  880MOL0     C16071   4.113  10.882   7.319 -0.3238 -0.1353 -0.1443
  880MOL0    Cl16072   4.173  10.729   7.370 -0.2242  0.2000 -0.1340
  880MOL0     C16073   5.193  11.024   7.252  0.6009 -0.1003  0.6630
  880MOL0     C16074   5.323  11.067   7.247  0.1823  0.4811  0.8667
  880MOL0     O16075   5.495  11.454   7.198 -0.3366 -0.2052  0.2919
  880MOL0     C16076   5.712  11.513   7.346 -0.6011 -0.7454  0.3544
  880MOL0     C16077   5.837  11.543   7.408 -0.2701 -0.1125  0.6382
  880MOL0     N16078   6.537  11.246   7.693  0.3420  0.3842  0.8668
  880MOL0     N16079   6.646  11.193   7.661  0.1315  0.0703  0.1510
  880MOL0     C16080   7.889  11.183   7.380 -0.2251 -0.6723  0.3891
  880MOL0     C16081   7.996  11.163   7.296  0.2956  0.8037 -1.1083
  880MOL0     C16082   8.260  10.942   6.984  0.2233  0.8132  0.6530
  880MOL0     C16083   8.251  11.035   6.879 -0.2949 -0.1219 -1.3038
  880MOL0     C16084   8.353  11.044   6.782  0.3149 -0.1496 -0.0139
  880MOL0     C16085   8.450  10.951   6.771 -0.0395 -0.0791  0.0640
  880MOL0     O16086   8.548  10.963   6.674 -0.6620 -0.1479  0.2676
  880MOL0     C16087   8.632  10.848   6.644 -0.5274 -0.0568 -0.4821
  880MOL0     C16088   8.705  10.877   6.511  0.3265  0.3032  0.0751
  880MOL0     C16089   8.622  10.938   6.393 -0.5268  0.2735 -0.2524
  880MOL0     C16090   8.700  10.952   6.265  1.0430 -0.1972 -0.3714
  880MOL0     C16091   8.612  10.903   6.149 -0.3829  0.2474 -0.0783
  880MOL0     C16092   8.538  10.866   6.062  0.1601  0.6130  0.3622
  880MOL0     C16093   8.444  10.840   6.853 -0.0063  0.5973  0.0340
  880MOL0     C16094   8.352  10.836   6.963  0.1621 -0.5392  0.2808
  880MOL0     H16095   7.870  10.869   7.159  2.9064  0.1681  0.9917
  880MOL0     H16096   7.699  10.914   7.338 -0.8320  0.4273  0.5709
  880MOL0     H16097   7.669  11.317   7.517 -2.8454 -1.3224 -0.4751
  880MOL0     H16098   7.782  11.220   7.617  0.0772  0.4821 -0.3781
  880MOL0     H16099   7.602  11.259   7.765  0.7494  0.6236 -1.3897
  880MOL0     H16100   7.574  11.103   7.688  0.7759  0.5599  0.7105
  880MOL0     H16101   7.417  11.244   7.527  4.5923 -0.2369 -1.0882
  880MOL0     H16102   7.467  11.382   7.633  4.4172 -0.6333 -1.1019
  880MOL0     H16103   7.328  11.147   7.750 -0.3532 -0.0899 -0.9752
  880MOL0     H16104   7.365  11.297   7.831  0.4466 -2.2147  0.4183
  880MOL0     H16105   7.191  11.261   7.589  0.8016 -0.6304 -0.5477
  880MOL0     H16106   7.212  11.420   7.664 -2.1113  0.6804  2.0738
  880MOL0     H16107   7.109  11.325   7.882 -1.9624  1.3610 -1.2816
  880MOL0     H16108   7.089  11.175   7.802  2.2352  0.5762  3.7425
  880MOL0     H16109   6.889  11.299   7.847 -1.1377  1.0822 -0.6487
  880MOL0     H16110   6.947  11.447   7.763  2.0314  0.2233 -0.3149
  880MOL0     H16111   6.890  11.168   7.626  0.0579  0.1634 -1.6805
  880MOL0     H16112   6.913  11.329   7.548  0.3278  0.3138  0.4831
  880MOL0     H16113   6.713  11.508   7.640  1.6367 -0.8331 -1.0444
  880MOL0     H16114   6.488  11.568   7.746 -0.7841  0.0862 -2.8002
  880MOL0     H16115   6.376  11.428   7.807 -2.5122  1.1739 -0.7441
  880MOL0     H16116   6.334  11.408   7.539 -2.5313 -1.3705  0.5547
  880MOL0     H16117   6.431  11.562   7.537  2.8332  0.2206  3.3282
  880MOL0     H16118   6.185  11.573   7.713 -1.4552  2.5519  0.6259
  880MOL0     H16119   6.274  11.691   7.630 -1.8049  0.7790  0.3913
  880MOL0     H16120   6.173  11.599   7.412 -3.6361 -0.4496 -1.7257
  880MOL0     H16121   6.045  11.657   7.519 -0.8811 -1.0279 -0.0744
  880MOL0     H16122   5.954  11.219   7.435 -0.4066 -0.7016  0.4968
  880MOL0     H16123   5.734  11.177   7.323 -3.1291  1.1069  3.0594
  880MOL0     H16124   5.274  11.407   7.293 -0.8326  0.6160  0.1076
  880MOL0     H16125   5.050  11.332   7.257 -1.5421  0.8623 -0.1853
  880MOL0     H16126   4.956  10.883   7.263 -3.6039 -1.7065  0.1494
  880MOL0     H16127   4.945  10.942   7.101  2.9102  0.6209  1.2576
  880MOL0     H16128   4.732  10.954   7.326 -2.1914 -0.0307 -0.4034
  880MOL0     H16129   4.737  10.857   7.180 -0.2613 -0.0793 -1.4822
  880MOL0     H16130   4.735  11.109   7.066 -0.2061  3.3199  1.8413
  880MOL0     H16131   4.670  11.145   7.224  0.6134  0.6228 -1.7620
  880MOL0     H16132   4.514  11.059   7.026  3.0928 -0.7178 -2.1047
  880MOL0     H16133   4.550  10.898   7.075 -2.5914  1.1931 -3.4096
  880MOL0     H16134   4.453  11.120   7.248  0.8231 -0.3704  0.6556
  880MOL0     H16135   4.492  10.975   7.328 -1.2675 -0.9900  1.5260
  880MOL0     H16136   4.334  10.861   7.170  1.0699 -0.6323  1.1546
  880MOL0     H16137   4.279  11.016   7.105  2.1952  0.8138 -0.1801
  880MOL0     H16138   4.283  10.974   7.412  1.9848  1.8473 -0.2472
  880MOL0     H16139   4.202  11.091   7.323 -1.7408 -0.7244  0.3510
  880MOL0     H16140   4.067  10.878   7.220  2.8040  0.7486 -1.7451
  880MOL0     H16141   4.032  10.909   7.387 -0.2847  0.3161 -0.2734
  880MOL0     H16142   5.158  10.921   7.256 -1.4972  0.5971  2.7766
  880MOL0     H16143   5.406  10.996   7.246  0.8030  1.1939 -0.3113
  880MOL0     H16144   5.647  11.592   7.310  0.3254 -0.3399 -0.4635
  880MOL0     H16145   5.857  11.649   7.422 -1.7159  0.1504  0.8356
  880MOL0     H16146   7.887  11.269   7.446  0.5692 -1.1531  1.0426
  880MOL0     H16147   8.084  11.226   7.286  0.3378  1.2140  1.2244
  880MOL0     H16148   8.164  11.100   6.878 -1.9217 -2.0864  1.1437
  880MOL0     H16149   8.353  11.125   6.709 -2.9913 -0.6655 -0.7639
  880MOL0     H16150   8.557  10.769   6.632 -1.5724  0.1438  3.3775
  880MOL0     H16151   8.688  10.817   6.732 -2.9223  2.3998  2.0950
  880MOL0     H16152   8.785  10.949   6.533  0.5199 -0.2275  1.1697
  880MOL0     H16153   8.739  10.782   6.469 -0.0121 -0.1397  0.7920
  880MOL0     H16154   8.590  11.040   6.419 -1.1385 -0.4086  1.9201
  880MOL0     H16155   8.537  10.871   6.378 -1.9386  2.0497 -0.5432
  880MOL0     H16156   8.727  11.056   6.243  1.0399 -0.2634 -0.6854
  880MOL0     H16157   8.795  10.898   6.265  0.4270 -1.4316  2.3929
  880MOL0     H16158   8.460  10.848   5.990  2.8958 -1.4824 -2.3725
  880MOL0     H16159   8.521  10.764   6.839 -0.1127  0.3524  0.7391
  880MOL0     H16160   8.367  10.752   7.029  1.3905 -1.2242 -0.8220
  881MOL0     O16161   1.265   0.817   3.567 -0.0999  0.1827  0.2709
  881MOL0     C16162   1.337   0.734   3.623  0.2004  0.3200 -0.1551
  881MOL0     O16163   1.311   0.604   3.639  0.9157 -0.6932  0.5310
  881MOL0     C16164   1.182   0.579   3.597  0.3429  0.9272  1.5802
  881MOL0     C16165   1.155   0.554   3.462  0.4664 -0.8173  0.0483
  881MOL0     C16166   1.027   0.519   3.418 -0.7098 -0.4907  0.0003
  881MOL0     C16167   0.922   0.536   3.504 -0.8025 -0.1292 -0.2255
  881MOL0     O16168   0.798   0.522   3.448 -0.2379  0.3343 -0.3308
  881MOL0     C16169   0.697   0.620   3.478  0.7292  0.1857  0.0364
  881MOL0     C16170   0.597   0.563   3.582  0.1743  0.0765 -0.0246
  881MOL0     C16171   0.468   0.646   3.591  0.5554 -0.1536 -0.3876
  881MOL0     C16172   0.350   0.555   3.637 -1.6008 -0.5297  0.7832
  881MOL0     C16173   0.210   0.632   3.634 -0.8199  0.0498 -0.5920
  881MOL0     C16174   0.094   0.531   3.624  0.8860 -0.6601  0.9060
  881MOL0     C16175  -0.041   0.600   3.647  0.2055 -0.3180 -0.1132
  881MOL0     C16176  -0.158   0.499   3.635 -0.1110  0.5136 -0.4967
  881MOL0     N16177  -0.288   0.560   3.673 -0.1262 -0.2203  0.0631
  881MOL0     C16178  -0.331   0.594   3.799  0.1035 -0.1137  0.4498
  881MOL0     C16179  -0.462   0.620   3.794  0.7153  0.6679 -0.5715
  881MOL0     C16180  -0.558   0.640   3.904 -0.0742 -0.9026 -0.7285
  881MOL0     C16181  -0.520   0.761   3.983 -0.6785 -0.8577 -0.2769
  881MOL0     C16182  -0.620   0.812   4.085 -0.7447 -0.4194 -0.6905
  881MOL0     C16183  -0.632   0.711   4.201  0.2830 -0.0638  0.1979
  881MOL0     O16184  -0.709   0.599   4.147 -0.3150  0.2557  0.2703
  881MOL0     C16185  -0.841   0.587   4.182 -0.1450 -0.0077 -0.1173
  881MOL0     C16186  -0.949   0.640   4.106  1.1239  0.0771 -0.3030
  881MOL0     C16187  -1.082   0.636   4.158 -0.7120 -0.6940  0.2093
  881MOL0     C16188  -1.100   0.585   4.286 -0.5447 -0.3295  0.4940
  881MOL0     C16189  -1.236   0.596   4.341  0.5148  0.7414 -0.5819
  881MOL0     O16190  -1.315   0.685   4.288  0.2200 -0.3369  0.7073
  881MOL0     C16191  -1.448   0.690   4.323 -0.4348 -0.5309  0.4622
  881MOL0     C16192  -1.532   0.579   4.291 -0.1497  0.3383 -0.4256
  881MOL0     C16193  -1.665   0.580   4.322  0.1564  0.2713 -0.3096
  881MOL0     C16194  -1.722   0.681   4.387  0.2289  0.1352  0.6967
  881MOL0     O16195  -1.856   0.669   4.407  0.2518 -0.1495  0.8858
  881MOL0     C16196  -1.911   0.766   4.492  0.2490 -0.2624  0.2246
  881MOL0     C16197  -2.056   0.729   4.498 -0.4833  0.5382 -0.0438
  881MOL0     C16198  -2.125   0.837   4.577  0.5374 -0.3065 -0.0904
  881MOL0     C16199  -2.271   0.799   4.610  0.6940 -0.4769  0.1180
  881MOL0     C16200  -2.328   0.882   4.731  0.7854 -0.1716 -0.0722
  881MOL0     C16201  -2.466   0.832   4.759 -0.6191  0.5810  0.2047
  881MOL0     C16202  -2.521   0.891   4.890  0.2756  0.3919  0.3710
  881MOL0     C16203  -2.665   0.834   4.902 -0.2821  0.2711 -0.1649
  881MOL0    Cl16204  -2.687   0.682   4.995  0.2412 -0.5455 -0.2395
  881MOL0     C16205  -1.639   0.797   4.426  0.9536 -1.5438 -0.0952
  881MOL0     C16206  -1.507   0.793   4.395  0.2544 -0.4466 -0.2432
  881MOL0     O16207  -1.275   0.515   4.426 -0.4147 -0.3211 -0.5876
  881MOL0     C16208  -0.999   0.528   4.353 -0.4418  0.0105  0.0398
  881MOL0     C16209  -0.871   0.532   4.303 -0.5671 -1.7690 -0.5401
  881MOL0     N16210  -0.501   0.604   3.661  1.1919 -0.6036  0.0569
  881MOL0     N16211  -0.397   0.578   3.586  0.3154  0.7663 -0.5906
  881MOL0     C16212   0.940   0.567   3.640 -0.9003 -0.7785 -0.3628
  881MOL0     C16213   1.074   0.579   3.684  0.6116 -0.0590 -0.7145
  881MOL0     C16214   1.467   0.775   3.675 -0.6110 -0.5731 -0.2249
  881MOL0     C16215   1.505   0.907   3.671 -0.4965 -0.1630 -0.0240
  881MOL0     C16216   1.627   0.956   3.722 -0.7292  0.0835  0.7123
  881MOL0     C16217   1.733   0.861   3.746 -0.1634 -0.1405 -0.2705
  881MOL0     O16218   1.856   0.919   3.779  0.7051  0.4900  0.2805
  881MOL0     C16219   1.972   0.841   3.779  0.4207 -0.4315 -0.0683
  881MOL0     C16220   2.065   0.923   3.856 -0.1667  0.0553 -0.2622
  881MOL0     C16221   2.098   1.052   3.783 -0.4666  0.3829 -0.0738
  881MOL0     C16222   2.206   1.126   3.858  0.7992  0.4053 -0.0133
  881MOL0     C16223   2.171   1.207   3.976  0.6082 -0.1232  0.1274
  881MOL0     C16224   2.128   1.262   4.079  0.2377 -0.6220  0.1911
  881MOL0     C16225   1.699   0.726   3.752 -0.1843 -0.1638  0.4386
  881MOL0     C16226   1.569   0.684   3.716  0.1959  0.8115 -0.2019
  881MOL0     H16227   1.247   0.560   3.404  1.1931  0.2210  1.2770
  881MOL0     H16228   1.010   0.495   3.314 -0.3442  2.0374 -0.7195
  881MOL0     H16229   0.645   0.648   3.386  0.9749  1.1259  0.1739
  881MOL0     H16230   0.743   0.710   3.519  3.3265 -0.9424 -0.2196
  881MOL0     H16231   0.647   0.561   3.679 -2.3067  1.4351  1.4068
  881MOL0     H16232   0.557   0.466   3.550  1.2383  0.1000 -1.5263
  881MOL0     H16233   0.454   0.696   3.495 -0.2359  2.0274  0.7876
  881MOL0     H16234   0.481   0.726   3.665 -3.0123 -0.0187  0.2427
  881MOL0     H16235   0.336   0.466   3.574  1.0597  0.2982 -1.2097
  881MOL0     H16236   0.367   0.533   3.742 -2.6912  3.1004  1.8566
  881MOL0     H16237   0.202   0.705   3.553  0.4842 -2.3511 -3.0269
  881MOL0     H16238   0.199   0.692   3.725 -2.9433 -0.1282 -0.6660
  881MOL0     H16239   0.095   0.463   3.709  1.9389  2.1952  3.3862
  881MOL0     H16240   0.099   0.480   3.527 -0.8381  2.6425 -1.1073
  881MOL0     H16241  -0.050   0.649   3.744 -1.5978 -0.6606 -0.0824
  881MOL0     H16242  -0.065   0.680   3.577  0.1078  2.1207  2.5389
  881MOL0     H16243  -0.138   0.410   3.695 -0.4064 -1.6701 -3.4205
  881MOL0     H16244  -0.165   0.460   3.533  0.5983 -0.7023 -0.1101
  881MOL0     H16245  -0.275   0.594   3.892 -1.1243  3.7154  1.3817
  881MOL0     H16246  -0.563   0.552   3.968 -0.4744 -1.5530 -1.6368
  881MOL0     H16247  -0.656   0.662   3.860 -1.0672 -0.3058  1.6651
  881MOL0     H16248  -0.494   0.843   3.916 -1.0003  0.6927  1.4049
  881MOL0     H16249  -0.423   0.740   4.028  0.4211 -2.6113 -3.1704
  881MOL0     H16250  -0.580   0.904   4.128 -1.2699 -1.3891  2.1463
  881MOL0     H16251  -0.718   0.835   4.042  0.2029  1.7898 -1.8037
  881MOL0     H16252  -0.681   0.752   4.291  0.9998  0.6348  0.2841
  881MOL0     H16253  -0.531   0.684   4.234  0.0650  0.4449  1.3492
  881MOL0     H16254  -0.941   0.690   4.010  0.9955  2.0746  0.6520
  881MOL0     H16255  -1.168   0.669   4.101  0.0130  0.2970 -0.3437
  881MOL0     H16256  -1.484   0.496   4.241 -0.6513 -0.5709  0.5472
  881MOL0     H16257  -1.733   0.508   4.278 -1.5206  1.1476  0.7868
  881MOL0     H16258  -1.906   0.867   4.452  3.4035 -0.0101  0.9679
  881MOL0     H16259  -1.870   0.760   4.593  1.2073 -4.5317 -0.1972
  881MOL0     H16260  -2.078   0.632   4.546  0.4335 -1.5029 -3.4134
  881MOL0     H16261  -2.104   0.718   4.401  0.2365 -1.8209 -0.2099
  881MOL0     H16262  -2.123   0.937   4.532 -2.2805 -0.0717  0.1350
  881MOL0     H16263  -2.074   0.847   4.674 -1.5668  4.3536  0.7884
  881MOL0     H16264  -2.333   0.832   4.525  2.6097  1.5993 -0.5810
  881MOL0     H16265  -2.267   0.695   4.641 -0.6413 -0.2772  1.0487
  881MOL0     H16266  -2.331   0.989   4.708  1.3047 -0.3810 -1.2267
  881MOL0     H16267  -2.266   0.861   4.818 -0.6503  0.6991  1.2116
  881MOL0     H16268  -2.462   0.723   4.758  1.6257  0.6153 -1.4563
  881MOL0     H16269  -2.528   0.875   4.679 -3.4225  2.6679  3.2704
  881MOL0     H16270  -2.450   0.857   4.967  1.4538 -2.1633 -1.6941
  881MOL0     H16271  -2.530   0.999   4.877  0.1491  0.4877  1.2027
  881MOL0     H16272  -2.718   0.822   4.807  1.5045 -0.2254 -1.1351
  881MOL0     H16273  -2.723   0.916   4.947 -1.4703  0.3444 -1.7435
  881MOL0     H16274  -1.684   0.878   4.482 -0.8975 -1.6560 -1.3628
  881MOL0     H16275  -1.438   0.872   4.424  0.8932 -0.3182 -1.9764
  881MOL0     H16276  -1.026   0.471   4.441  0.8905 -2.9947 -1.3472
  881MOL0     H16277  -0.789   0.492   4.363 -0.9889 -0.6040  0.8769
  881MOL0     H16278   0.852   0.575   3.703 -1.6264 -0.2884 -1.4006
  881MOL0     H16279   1.102   0.597   3.788  3.3820  0.0904 -1.3984
  881MOL0     H16280   1.433   0.980   3.637 -2.3043 -0.7202  2.3656
  881MOL0     H16281   1.644   1.062   3.737  0.0761  0.0088  0.3381
  881MOL0     H16282   2.004   0.810   3.679 -1.6355 -0.3103 -0.8149
  881MOL0     H16283   1.967   0.751   3.840  0.0850 -0.8806 -0.7414
  881MOL0     H16284   2.027   0.941   3.957  4.6792  0.8228  1.6896
  881MOL0     H16285   2.157   0.865   3.870 -1.0119 -1.2191  0.1742
  881MOL0     H16286   2.011   1.119   3.776  1.6357  3.2099 -0.9718
  881MOL0     H16287   2.141   1.037   3.684 -1.8048 -0.8659 -0.5077
  881MOL0     H16288   2.280   1.055   3.896  1.3451 -0.6591 -2.8892
  881MOL0     H16289   2.263   1.191   3.792  4.1704 -2.9566 -0.7531
  881MOL0     H16290   2.102   1.320   4.165  1.5289  0.8790 -0.3796
  881MOL0     H16291   1.780   0.658   3.778  0.3997  1.3149  2.8029
  881MOL0     H16292   1.535   0.583   3.737  0.3582  0.8683  0.3613
  882MOL0     O16293  11.021   7.566   3.292  0.4510  0.0526  0.7227
  882MOL0     C16294  10.957   7.507   3.382  0.4557 -0.5547 -0.2104
  882MOL0     O16295  10.834   7.445   3.367  0.1989 -0.3204  0.5979
  882MOL0     C16296  10.751   7.459   3.257  0.0682 -0.0815  1.0041
  882MOL0     C16297  10.750   7.572   3.172  0.3439  0.1718  0.0915
  882MOL0     C16298  10.658   7.586   3.071 -0.0980 -0.2842 -0.8144
  882MOL0     C16299  10.551   7.497   3.062 -0.0824  0.1840  0.1813
  882MOL0     O16300  10.458   7.504   2.956 -0.5090 -0.6626  0.7089
  882MOL0     C16301  10.469   7.400   2.857  0.5453 -0.3416  1.1498
  882MOL0     C16302  10.339   7.345   2.799 -0.4717 -1.0457 -0.5476
  882MOL0     C16303  10.241   7.466   2.791  0.2494  0.1578 -0.1272
  882MOL0     C16304  10.120   7.434   2.705  0.7493  0.0405 -0.1635
  882MOL0     C16305   9.997   7.516   2.747 -0.4592 -0.0663 -0.6711
  882MOL0     C16306  10.008   7.674   2.716  0.5034 -0.0808 -0.5030
  882MOL0     C16307   9.884   7.740   2.781  0.9044  0.1490 -0.0016
  882MOL0     C16308   9.927   7.776   2.928  0.2687  0.4654  0.3353
  882MOL0     N16309   9.816   7.851   2.990  0.3918  0.2987  1.3005
  882MOL0     C16310   9.690   7.798   3.013  0.4827  0.4189  0.2155
  882MOL0     C16311   9.622   7.891   3.097  0.2778  0.0871  0.2981
  882MOL0     C16312   9.478   7.881   3.147  0.5415  0.4638 -0.2884
  882MOL0     C16313   9.394   8.010   3.120  0.1405  0.0361  0.0752
  882MOL0     C16314   9.275   8.020   3.216  0.5636  0.0403  0.5267
  882MOL0     C16315   9.160   7.918   3.199 -0.3240 -0.3203 -0.5775
  882MOL0     O16316   9.066   7.945   3.302  0.0385 -0.1153 -0.6288
  882MOL0     C16317   8.927   7.944   3.280 -0.5771  0.1108 -0.0872
  882MOL0     C16318   8.849   7.984   3.384 -0.8520 -0.2271  0.1555
  882MOL0     C16319   8.715   7.969   3.379 -1.0253  0.4875 -0.0082
  882MOL0     C16320   8.652   7.919   3.265  0.1278  0.2938 -0.4999
  882MOL0     C16321   8.505   7.900   3.271 -0.3459  0.4534 -0.0395
  882MOL0     O16322   8.442   7.918   3.392 -0.1647 -0.0453 -0.4934
  882MOL0     C16323   8.305   7.902   3.395  0.6951  0.6584  0.9489
  882MOL0     C16324   8.259   7.768   3.383 -0.3716 -0.2535  0.5079
  882MOL0     C16325   8.131   7.730   3.402 -0.1299 -0.4135  0.4150
  882MOL0     C16326   8.039   7.835   3.424 -0.5906  0.5429 -0.2306
  882MOL0     O16327   7.909   7.792   3.452 -0.3297  0.2858  0.0674
  882MOL0     C16328   7.805   7.889   3.477 -0.0320  0.3065  0.2975
  882MOL0     C16329   7.668   7.814   3.490 -0.0033 -0.9643 -0.5898
  882MOL0     C16330   7.551   7.906   3.538 -0.3310  0.0705  0.8052
  882MOL0     C16331   7.591   7.999   3.661 -0.2703  0.1407 -0.3743
  882MOL0     C16332   7.473   8.077   3.713  0.3924  0.8864 -0.5997
  882MOL0     C16333   7.395   7.982   3.807 -0.4870 -0.0969  0.3004
  882MOL0     C16334   7.263   8.054   3.851 -0.6197  0.7564  0.6368
  882MOL0     C16335   7.136   8.048   3.763 -1.0861  0.0832 -0.4189
  882MOL0    Cl16336   7.120   7.871   3.728 -0.6040  0.0945 -0.0156
  882MOL0     C16337   8.085   7.974   3.431  1.4076  0.7085 -0.0896
  882MOL0     C16338   8.214   8.007   3.408 -1.2616 -0.4958 -0.1446
  882MOL0     O16339   8.453   7.869   3.169 -0.2744 -0.3210  0.3811
  882MOL0     C16340   8.731   7.878   3.156  0.0262 -0.1255  0.2125
  882MOL0     C16341   8.864   7.912   3.163  0.9736  0.0332  0.5408
  882MOL0     N16342   9.711   7.997   3.118  0.8550 -0.0952 -0.0046
  882MOL0     N16343   9.821   7.975   3.045 -0.4049 -0.0265  0.0447
  882MOL0     C16344  10.533   7.394   3.157 -0.5230 -1.0208  0.1047
  882MOL0     C16345  10.633   7.377   3.252  0.0937  0.3187 -0.7072
  882MOL0     C16346  11.029   7.494   3.504 -0.8383 -0.6789 -0.2278
  882MOL0     C16347  11.122   7.589   3.546  0.0012  0.6861 -0.6474
  882MOL0     C16348  11.217   7.558   3.647 -0.7825 -0.6678  0.3066
  882MOL0     C16349  11.202   7.434   3.726 -0.0747 -0.2838 -0.0185
  882MOL0     O16350  11.289   7.426   3.830 -0.2024  0.1663  0.2059
  882MOL0     C16351  11.261   7.318   3.933 -0.0415 -0.2491 -0.7361
  882MOL0     C16352  11.386   7.297   4.018 -0.1072 -0.5118 -0.2289
  882MOL0     C16353  11.363   7.201   4.137  0.1604 -0.0472  0.3615
  882MOL0     C16354  11.314   7.058   4.086 -0.5368  0.0662 -0.1079
  882MOL0     C16355  11.331   6.938   4.171  0.3722  0.1022 -0.7562
  882MOL0     C16356  11.363   6.843   4.234  0.0616  0.1060 -0.9769
  882MOL0     C16357  11.106   7.341   3.689  0.4272  0.0333  0.4258
  882MOL0     C16358  11.017   7.372   3.585  0.3180 -0.2526 -0.7745
  882MOL0     H16359  10.824   7.651   3.178 -2.3382  2.7441  2.2647
  882MOL0     H16360  10.691   7.652   2.992  0.7752  1.7342  1.1369
  882MOL0     H16361  10.520   7.308   2.887  1.4295 -1.3979 -2.8862
  882MOL0     H16362  10.509   7.440   2.763 -4.8083 -0.0502 -1.3585
  882MOL0     H16363  10.287   7.283   2.873  2.0756 -1.5609  0.9229
  882MOL0     H16364  10.367   7.291   2.707  3.2800 -1.6590  0.8061
  882MOL0     H16365  10.275   7.565   2.758 -0.1092 -0.5798 -2.9104
  882MOL0     H16366  10.199   7.475   2.891 -1.5167 -0.2599 -0.7972
  882MOL0     H16367  10.139   7.446   2.598 -2.2608 -0.9118 -0.9095
  882MOL0     H16368  10.093   7.330   2.725 -0.1118  0.2227 -0.3275
  882MOL0     H16369   9.975   7.494   2.852  0.1852 -0.6988 -0.6563
  882MOL0     H16370   9.911   7.471   2.697 -1.3885 -0.3788  1.1342
  882MOL0     H16371  10.012   7.691   2.608  0.4063 -2.2027 -0.8822
  882MOL0     H16372  10.102   7.717   2.750 -0.4590  1.9399 -0.2292
  882MOL0     H16373   9.858   7.834   2.732 -1.4719  1.0432  2.6968
  882MOL0     H16374   9.795   7.676   2.779  0.4063  0.7029  1.9300
  882MOL0     H16375  10.012   7.845   2.925 -1.1339  2.4109  2.0539
  882MOL0     H16376   9.954   7.693   2.994 -0.1418  1.2325  1.5127
  882MOL0     H16377   9.656   7.702   2.977  1.8035  0.5854 -1.6831
  882MOL0     H16378   9.481   7.869   3.256  1.6565 -0.6786 -0.4227
  882MOL0     H16379   9.428   7.794   3.104 -1.4839 -0.4461  3.4628
  882MOL0     H16380   9.361   8.007   3.016  0.9908 -1.4401 -0.1770
  882MOL0     H16381   9.459   8.098   3.136 -0.8379  1.1611 -1.7853
  882MOL0     H16382   9.327   8.009   3.312 -0.1368 -2.6503  0.6660
  882MOL0     H16383   9.227   8.117   3.198  0.5562 -0.2808 -1.3114
  882MOL0     H16384   9.187   7.813   3.215 -6.4651 -2.1459  0.4766
  882MOL0     H16385   9.118   7.934   3.100 -0.1251  1.2070 -0.4397
  882MOL0     H16386   8.900   8.011   3.476 -0.8162 -0.7720  0.2988
  882MOL0     H16387   8.662   7.967   3.474  0.8697 -2.5912  1.1192
  882MOL0     H16388   8.330   7.686   3.372  1.9208  1.5620  0.9723
  882MOL0     H16389   8.105   7.624   3.408  2.9101 -1.2369  0.5438
  882MOL0     H16390   7.794   7.962   3.396 -1.8495  0.2722  0.4642
  882MOL0     H16391   7.839   7.937   3.569  0.7813  0.6209 -0.1576
  882MOL0     H16392   7.694   7.731   3.556  2.8992 -1.6585 -2.4006
  882MOL0     H16393   7.641   7.762   3.398  0.9381 -2.4443 -0.0579
  882MOL0     H16394   7.468   7.840   3.563  0.6083 -0.7672  1.7956
  882MOL0     H16395   7.523   7.963   3.448  0.0384 -0.9489  0.0226
  882MOL0     H16396   7.651   7.946   3.736  1.1987  0.8496 -0.9982
  882MOL0     H16397   7.655   8.078   3.620 -0.6233  1.1549  0.9596
  882MOL0     H16398   7.408   8.109   3.632  0.8190  3.0137 -0.1542
  882MOL0     H16399   7.511   8.161   3.773  2.6684  1.5718 -2.8135
  882MOL0     H16400   7.453   7.960   3.896 -1.2804  2.1273  1.4479
  882MOL0     H16401   7.374   7.892   3.748 -0.5884  0.6032 -0.7630
  882MOL0     H16402   7.235   7.994   3.939  0.0597  1.0166  1.0414
  882MOL0     H16403   7.291   8.155   3.882 -0.8067  1.9135 -2.6333
  882MOL0     H16404   7.150   8.111   3.675 -1.7408  0.8688  0.0311
  882MOL0     H16405   7.048   8.093   3.808 -2.4918 -2.3212 -0.5989
  882MOL0     H16406   8.016   8.058   3.434 -2.7379 -2.1758 -3.0914
  882MOL0     H16407   8.242   8.111   3.415  0.4509 -0.8416 -1.3346
  882MOL0     H16408   8.690   7.847   3.060  1.7495  0.3433 -0.7142
  882MOL0     H16409   8.927   7.882   3.080  2.5941 -3.3338  2.7769
  882MOL0     H16410  10.450   7.323   3.152  0.6910 -2.3970 -1.9266
  882MOL0     H16411  10.624   7.295   3.323  2.3738  0.2329 -0.4576
  882MOL0     H16412  11.144   7.681   3.493  1.4531 -0.4726 -2.1938
  882MOL0     H16413  11.298   7.624   3.676  0.0194 -1.6941  0.4755
  882MOL0     H16414  11.242   7.228   3.874  0.4490 -0.9782  0.1987
  882MOL0     H16415  11.170   7.341   3.989 -0.8284 -4.5082  0.0339
  882MOL0     H16416  11.467   7.259   3.955  1.2575  1.6248  0.1228
  882MOL0     H16417  11.413   7.396   4.056 -2.1444 -0.2332  0.5983
  882MOL0     H16418  11.286   7.251   4.196  0.7802  1.5754 -0.1390
  882MOL0     H16419  11.456   7.192   4.195 -1.1500 -2.4202  2.2685
  882MOL0     H16420  11.206   7.062   4.067 -0.2407 -0.7158 -2.2537
  882MOL0     H16421  11.377   7.036   3.999  0.7926 -1.2537  1.1347
  882MOL0     H16422  11.387   6.752   4.285  0.1544  0.7187  0.1004
  882MOL0     H16423  11.086   7.251   3.746  2.7386  0.2459  1.7090
  882MOL0     H16424  10.952   7.296   3.543 -0.2565 -0.1274 -0.1386
  883MOL0     O16425  10.040   9.688   5.892  0.1547  0.8123 -0.3619
  883MOL0     C16426  10.035   9.572   5.944 -0.8228 -0.5114  0.6389
  883MOL0     O16427   9.943   9.533   6.025  0.7202 -0.0713 -0.4984
  883MOL0     C16428   9.827   9.602   6.053  0.2755  0.4241  0.8428
  883MOL0     C16429   9.767   9.701   5.965  0.0300 -0.1056  0.2949
  883MOL0     C16430   9.640   9.744   5.985  0.2790  0.0898 -0.2618
  883MOL0     C16431   9.572   9.712   6.106 -0.6756  0.0967  0.0039
  883MOL0     O16432   9.445   9.751   6.135  0.5448  0.4033 -0.2479
  883MOL0     C16433   9.378   9.842   6.048 -0.9578  0.0035 -0.6934
  883MOL0     C16434   9.247   9.904   6.096 -0.1867 -0.2448 -0.2700
  883MOL0     C16435   9.197   9.988   5.985  0.0854 -0.7604  0.4134
  883MOL0     C16436   9.050  10.020   5.990 -0.4665  0.1776 -0.4677
  883MOL0     C16437   9.005  10.113   5.884 -0.5731 -0.1259  1.4731
  883MOL0     C16438   8.855  10.145   5.867 -0.1951  0.4994 -0.2620
  883MOL0     C16439   8.838  10.283   5.780  0.2091  0.5095 -1.2570
  883MOL0     C16440   8.685  10.316   5.778  0.4037  0.1339 -0.0818
  883MOL0     N16441   8.622  10.237   5.673 -0.0711  0.1163 -0.8610
  883MOL0     C16442   8.551  10.118   5.711  0.1288 -0.5243  1.1272
  883MOL0     C16443   8.488  10.081   5.598 -0.5575  0.2189 -0.1138
  883MOL0     C16444   8.421   9.955   5.583  1.0091 -0.9685  0.4573
  883MOL0     C16445   8.382   9.894   5.720 -0.1113 -0.4180 -0.5059
  883MOL0     C16446   8.292   9.767   5.688 -0.1551 -0.2251  0.3548
  883MOL0     C16447   8.236   9.701   5.811 -0.7977  0.7808 -0.0845
  883MOL0     O16448   8.163   9.805   5.876 -0.1986 -0.2074 -0.0246
  883MOL0     C16449   8.031   9.801   5.859 -0.4083 -0.2680 -0.0251
  883MOL0     C16450   7.978   9.916   5.805 -0.2720  0.3599 -0.3750
  883MOL0     C16451   7.851   9.933   5.762  0.1449 -0.1506 -0.3096
  883MOL0     C16452   7.752   9.833   5.799 -0.7224 -0.4098 -0.7040
  883MOL0     C16453   7.606   9.873   5.784  0.2202 -0.3026 -0.6187
  883MOL0     O16454   7.577   9.994   5.722  0.4508 -0.0054  0.5865
  883MOL0     C16455   7.447  10.047   5.739 -1.1403 -0.1069  0.5111
  883MOL0     C16456   7.344   9.983   5.679  0.5503 -0.6860 -0.2278
  883MOL0     C16457   7.216  10.040   5.681 -0.3599 -0.4134  0.4852
  883MOL0     C16458   7.195  10.161   5.749 -0.2342  0.5839 -0.2487
  883MOL0     O16459   7.075  10.231   5.743  0.6877 -0.2887 -0.0009
  883MOL0     C16460   7.041  10.324   5.846  0.4365 -0.1546  0.0269
  883MOL0     C16461   6.902  10.386   5.812  0.2603 -0.2995 -0.8486
  883MOL0     C16462   6.859  10.469   5.930 -0.4090 -0.8467 -0.3407
  883MOL0     C16463   6.745  10.570   5.915 -0.3972 -0.1975  0.1323
  883MOL0     C16464   6.693  10.638   6.045  0.0291  0.5974 -0.1752
  883MOL0     C16465   6.636  10.542   6.150  0.2614 -0.2507  0.6941
  883MOL0     C16466   6.537  10.426   6.125 -0.1482 -0.3474 -0.0305
  883MOL0     C16467   6.500  10.363   6.260 -0.6762 -0.1778  0.2611
  883MOL0    Cl16468   6.361  10.255   6.224 -0.0921  0.2869  0.0698
  883MOL0     C16469   7.300  10.215   5.819  0.3312  0.5970 -0.6668
  883MOL0     C16470   7.426  10.159   5.815  0.1303 -0.4966 -0.2927
  883MOL0     O16471   7.518   9.795   5.825 -0.7620  0.4085  0.3200
  883MOL0     C16472   7.806   9.716   5.853 -0.3288 -0.6798 -0.3064
  883MOL0     C16473   7.945   9.695   5.883 -0.2330 -0.1525 -0.1213
  883MOL0     N16474   8.537  10.159   5.500  0.4109  0.7170  0.0651
  883MOL0     N16475   8.626  10.250   5.537  0.0436  0.4475 -0.3314
  883MOL0     C16476   9.633   9.618   6.195 -0.1580  0.2652  0.3204
  883MOL0     C16477   9.761   9.567   6.167 -0.2404  0.6688 -0.0848
  883MOL0     C16478  10.138   9.485   5.899 -0.8505  0.0913  0.5904
  883MOL0     C16479  10.162   9.368   5.968  0.1631 -0.3904  0.5951
  883MOL0     C16480  10.266   9.276   5.924 -0.5363  0.5048 -0.1584
  883MOL0     C16481  10.367   9.325   5.831  0.3369 -0.6179 -0.0394
  883MOL0     O16482  10.484   9.261   5.795 -0.1199 -0.4359  1.7237
  883MOL0     C16483  10.509   9.130   5.842  0.5532  0.6159  0.1534
  883MOL0     C16484  10.653   9.077   5.777  0.1067  0.3575 -0.8469
  883MOL0     C16485  10.694   8.940   5.808  0.0041  0.2245  0.7811
  883MOL0     C16486  10.821   8.911   5.739  0.5907  0.8527  0.3279
  883MOL0     C16487  10.862   8.777   5.777 -0.5835 -1.3216  0.3049
  883MOL0     C16488  10.892   8.675   5.835  0.3871 -0.4845 -1.0916
  883MOL0     C16489  10.344   9.456   5.785 -0.2480  0.1999  0.3321
  883MOL0     C16490  10.233   9.528   5.803 -0.0095 -0.1506 -1.5745
  883MOL0     H16491   9.810   9.731   5.870 -1.0001 -2.8094 -1.1502
  883MOL0     H16492   9.596   9.810   5.910  2.0592  0.1131 -1.3556
  883MOL0     H16493   9.368   9.786   5.955  0.3239 -0.0269 -0.8391
  883MOL0     H16494   9.440   9.930   6.029  1.3368 -1.3647 -0.0780
  883MOL0     H16495   9.274   9.961   6.185  0.1571 -1.7845  0.6442
  883MOL0     H16496   9.179   9.822   6.124 -0.2787 -1.3133 -3.2213
  883MOL0     H16497   9.218   9.943   5.888 -1.2603  0.6121 -0.5623
  883MOL0     H16498   9.252  10.083   5.985  0.0657 -0.7493  0.2061
  883MOL0     H16499   8.990   9.928   5.988  2.3551 -1.8260 -2.6836
  883MOL0     H16500   9.031  10.073   6.083 -0.5374 -1.8898  0.7647
  883MOL0     H16501   9.038  10.064   5.791 -0.6704 -1.2666  2.0140
  883MOL0     H16502   9.070  10.201   5.879 -0.3084 -0.4057 -1.5789
  883MOL0     H16503   8.810  10.169   5.964 -0.3045 -0.0033 -0.1837
  883MOL0     H16504   8.804  10.055   5.830 -0.9513  0.8333 -0.0612
  883MOL0     H16505   8.883  10.353   5.851  0.5924  0.1909 -1.1774
  883MOL0     H16506   8.881  10.280   5.679  0.3245 -1.8481 -1.1923
  883MOL0     H16507   8.669  10.423   5.761 -0.1794  0.1238  0.3856
  883MOL0     H16508   8.633  10.300   5.873 -0.9052 -2.4628 -1.1305
  883MOL0     H16509   8.535  10.062   5.803 -1.7233 -4.0531 -1.0939
  883MOL0     H16510   8.476   9.878   5.529 -1.4608 -2.9620  0.5698
  883MOL0     H16511   8.331   9.982   5.527  2.4961  1.5585 -0.8804
  883MOL0     H16512   8.325   9.966   5.780  0.2082 -0.8104  0.2792
  883MOL0     H16513   8.466   9.873   5.787  0.4103  2.3035 -0.1708
  883MOL0     H16514   8.203   9.799   5.633 -0.6284  1.2462  1.8941
  883MOL0     H16515   8.354   9.701   5.626  1.5221  2.3925 -0.9505
  883MOL0     H16516   8.311   9.678   5.887 -1.2372  0.3795  0.2352
  883MOL0     H16517   8.165   9.619   5.794 -0.0467 -0.1379  1.0038
  883MOL0     H16518   8.054   9.990   5.782  1.5041 -1.1119  0.4042
  883MOL0     H16519   7.815  10.016   5.703 -0.3396 -1.4542 -1.9285
  883MOL0     H16520   7.350   9.894   5.617 -0.7558 -0.5280 -0.6192
  883MOL0     H16521   7.132   9.986   5.639 -1.7373  2.4619 -0.7290
  883MOL0     H16522   7.109  10.410   5.846 -1.9325  1.8341  1.1077
  883MOL0     H16523   7.037  10.265   5.938 -0.8830  1.7140  1.2469
  883MOL0     H16524   6.831  10.305   5.793  1.6201 -1.8732  0.5168
  883MOL0     H16525   6.903  10.445   5.720  1.9857 -0.5141 -0.9898
  883MOL0     H16526   6.945  10.523   5.971 -1.0679  0.0059 -0.0410
  883MOL0     H16527   6.834  10.398   6.009  1.2419 -1.2434 -0.1405
  883MOL0     H16528   6.776  10.655   5.853  1.1444  0.2580  1.4638
  883MOL0     H16529   6.658  10.527   5.864 -1.5128  1.3633  0.6522
  883MOL0     H16530   6.620  10.711   6.007  1.3271  1.9964 -0.0918
  883MOL0     H16531   6.777  10.694   6.087  1.3869 -0.0941 -1.8741
  883MOL0     H16532   6.600  10.618   6.219  1.1292 -1.5268  2.6612
  883MOL0     H16533   6.720  10.506   6.210  1.4525  2.0438  0.5100
  883MOL0     H16534   6.446  10.470   6.082  1.0316  1.8681 -0.4207
  883MOL0     H16535   6.579  10.359   6.050 -0.1925 -0.0866 -0.2936
  883MOL0     H16536   6.474  10.440   6.333 -0.1911 -0.4327  0.7066
  883MOL0     H16537   6.585  10.310   6.304 -0.5237  0.8995  1.3252
  883MOL0     H16538   7.293  10.309   5.872 -1.4310 -0.9906  2.1214
  883MOL0     H16539   7.506  10.216   5.862  0.8455  0.8117 -2.8810
  883MOL0     H16540   7.743   9.633   5.886  1.9975 -2.3011  0.3337
  883MOL0     H16541   7.981   9.608   5.938  0.7187  0.8243  0.8635
  883MOL0     H16542   9.592   9.567   6.282  0.5299  0.6660  0.8912
  883MOL0     H16543   9.792   9.494   6.241 -1.1255 -0.5215 -0.8400
  883MOL0     H16544  10.086   9.337   6.039 -1.8373 -0.4758 -1.4540
  883MOL0     H16545  10.286   9.179   5.970  0.3461  0.9366  0.4087
  883MOL0     H16546  10.429   9.058   5.825  1.3418 -0.5210  1.1051
  883MOL0     H16547  10.510   9.135   5.952 -0.1970 -0.8357  0.2526
  883MOL0     H16548  10.661   9.089   5.669  0.3135 -2.1392 -1.1688
  883MOL0     H16549  10.726   9.149   5.816  2.8920 -1.5476 -2.1740
  883MOL0     H16550  10.601   8.890   5.778 -1.1284  1.3466  2.2642
  883MOL0     H16551  10.703   8.916   5.914  1.0686 -4.5758 -0.1694
  883MOL0     H16552  10.805   8.920   5.631 -0.5367  3.0561  0.6132
  883MOL0     H16553  10.905   8.974   5.769  0.6398 -0.0009  2.1316
  883MOL0     H16554  10.922   8.596   5.901 -0.4693 -0.2263 -0.3684
  883MOL0     H16555  10.415   9.500   5.715  1.0934 -0.5900  1.1455
  883MOL0     H16556  10.230   9.618   5.742 -0.7915  0.8692 -0.0855
  884MOL0     O16557   9.097   9.776   3.991  0.0636  0.0405 -0.7430
  884MOL0     C16558   9.098   9.655   3.994 -0.0922  0.7965  0.0911
  884MOL0     O16559   9.005   9.576   4.048 -0.4501  0.6708  0.9437
  884MOL0     C16560   8.903   9.630   4.124  0.5436  0.3657 -0.4868
  884MOL0     C16561   8.787   9.562   4.108  0.3575  1.2254 -0.0304
  884MOL0     C16562   8.670   9.598   4.177 -0.7884 -0.1254 -0.0605
  884MOL0     C16563   8.675   9.698   4.275  0.2037  0.6632 -0.8448
  884MOL0     O16564   8.572   9.711   4.360  0.5984 -0.2251 -0.5160
  884MOL0     C16565   8.438   9.730   4.300  0.3356  0.0011 -0.6315
  884MOL0     C16566   8.362   9.810   4.404  0.9067  0.2745 -0.9879
  884MOL0     C16567   8.221   9.855   4.357  0.1006  0.5756  0.2936
  884MOL0     C16568   8.136   9.915   4.458  0.3088 -0.2510 -0.2454
  884MOL0     C16569   7.991   9.895   4.415  0.3412  0.4725 -0.2409
  884MOL0     C16570   7.913   9.962   4.524  0.1858  0.3361  0.0416
  884MOL0     C16571   7.762   9.959   4.498 -0.5840  0.4687  0.7243
  884MOL0     C16572   7.684  10.010   4.622 -0.0972 -0.2865  0.7470
  884MOL0     N16573   7.568  10.093   4.580 -0.4721  0.6718  0.1434
  884MOL0     C16574   7.451  10.044   4.528  0.1963 -0.4047 -1.1965
  884MOL0     C16575   7.387  10.158   4.472  0.2730 -0.1275  0.4041
  884MOL0     C16576   7.251  10.161   4.409 -0.2630  0.1120 -0.8424
  884MOL0     C16577   7.291  10.154   4.257  0.5697 -0.2726 -0.6573
  884MOL0     C16578   7.162  10.172   4.174  0.2906  0.6830 -0.0505
  884MOL0     C16579   7.188  10.218   4.032 -0.6969  0.6119  0.3984
  884MOL0     O16580   7.259  10.120   3.946  0.5156 -0.2058 -0.0601
  884MOL0     C16581   7.205  10.004   3.909 -0.5737  0.7031  0.3520
  884MOL0     C16582   7.292   9.898   3.883  0.1123 -0.0005 -0.1859
  884MOL0     C16583   7.246   9.770   3.853 -0.0098  0.1960  0.3007
  884MOL0     C16584   7.107   9.744   3.850 -0.1890  0.2766 -0.1691
  884MOL0     C16585   7.055   9.604   3.813  0.4030 -1.2368 -0.5905
  884MOL0     O16586   7.138   9.502   3.785  0.3228  0.5085  0.2061
  884MOL0     C16587   7.100   9.393   3.714 -0.0361  0.0267  0.3937
  884MOL0     C16588   7.177   9.349   3.607  1.1779 -0.4593 -0.1507
  884MOL0     C16589   7.155   9.231   3.526  0.2698  0.3855 -0.8415
  884MOL0     C16590   7.051   9.152   3.566  0.5106 -0.6825 -0.8499
  884MOL0     O16591   7.035   9.037   3.494  0.3707 -0.1851  0.1509
  884MOL0     C16592   6.943   8.941   3.545 -0.1109 -0.0137 -0.1118
  884MOL0     C16593   6.932   8.820   3.464  0.2154 -0.4467  1.1624
  884MOL0     C16594   6.825   8.723   3.516  0.1685 -0.1081 -0.7635
  884MOL0     C16595   6.821   8.581   3.447  0.0809  0.3090 -0.5940
  884MOL0     C16596   6.717   8.480   3.495  0.4778  0.1700  0.5457
  884MOL0     C16597   6.752   8.332   3.452  0.4388  0.0198  0.1243
  884MOL0     C16598   6.638   8.238   3.445  0.6205  0.7016 -0.2090
  884MOL0     C16599   6.536   8.259   3.332 -0.0316 -0.5643 -0.0129
  884MOL0    Cl16600   6.393   8.144   3.351 -0.1172  0.2020  0.3454
  884MOL0     C16601   6.976   9.189   3.681 -0.8968  0.5035 -1.0870
  884MOL0     C16602   7.002   9.300   3.755  0.1262  0.1340  0.1797
  884MOL0     O16603   6.935   9.602   3.789  0.6380  0.5421  0.2078
  884MOL0     C16604   7.014   9.850   3.872  0.0218 -0.5849 -0.7089
  884MOL0     C16605   7.061   9.981   3.897 -0.1373 -0.4129  0.4038
  884MOL0     N16606   7.471  10.269   4.495  0.1801  0.2557  0.1446
  884MOL0     N16607   7.575  10.229   4.558  0.0631  0.6229 -0.1395
  884MOL0     C16608   8.803   9.757   4.304 -0.8013 -0.3731  0.3449
  884MOL0     C16609   8.911   9.724   4.218 -0.1145  0.1770 -0.1977
  884MOL0     C16610   9.215   9.589   3.920  0.1390 -0.3221  0.0142
  884MOL0     C16611   9.312   9.675   3.857 -0.0295 -0.4290  0.0101
  884MOL0     C16612   9.416   9.625   3.776  0.3670 -0.4117 -0.6165
  884MOL0     C16613   9.442   9.489   3.775  0.1029  0.3840 -0.4074
  884MOL0     O16614   9.557   9.441   3.720 -0.9552 -0.3794  0.3451
  884MOL0     C16615   9.605   9.304   3.727  0.0327  0.6002  0.0607
  884MOL0     C16616   9.755   9.294   3.680 -0.4133 -0.2026 -0.1260
  884MOL0     C16617   9.807   9.144   3.674  0.3341 -0.2646  0.3766
  884MOL0     C16618   9.937   9.138   3.608 -0.4067  0.4609 -0.1472
  884MOL0     C16619   9.942   9.194   3.472 -0.4543  0.0352 -0.3968
  884MOL0     C16620   9.971   9.242   3.365 -0.9838  0.0466 -0.1193
  884MOL0     C16621   9.349   9.407   3.842 -0.7732 -0.5275 -0.3509
  884MOL0     C16622   9.233   9.453   3.912  0.4224 -0.6627  0.1057
  884MOL0     H16623   8.788   9.471   4.050  1.6664  1.4418 -0.3785
  884MOL0     H16624   8.570   9.556   4.172 -1.6978  1.7751  0.9216
  884MOL0     H16625   8.384   9.637   4.279 -2.8746  1.3023  1.1660
  884MOL0     H16626   8.446   9.793   4.211 -0.4612  2.9984  1.2787
  884MOL0     H16627   8.422   9.900   4.424  0.5901  0.5147 -1.1218
  884MOL0     H16628   8.349   9.755   4.498  1.3891  1.2523 -0.3275
  884MOL0     H16629   8.170   9.768   4.315  1.1726  1.0356 -2.1648
  884MOL0     H16630   8.221   9.925   4.273  0.0904 -0.0769 -0.2667
  884MOL0     H16631   8.158   9.864   4.553  2.5504  0.0317 -0.5541
  884MOL0     H16632   8.174  10.017   4.467 -0.3082 -0.0868  0.6340
  884MOL0     H16633   7.960   9.790   4.417 -2.9366  1.2808  3.1439
  884MOL0     H16634   7.983   9.942   4.316 -1.9521 -2.1626 -1.4544
  884MOL0     H16635   7.946  10.065   4.537  1.1730  0.4525 -2.6979
  884MOL0     H16636   7.926   9.902   4.615  0.6318  1.4861  0.7563
  884MOL0     H16637   7.748  10.024   4.411 -3.5563 -2.6520 -1.3766
  884MOL0     H16638   7.723   9.861   4.471 -1.1880  1.1444 -0.9733
  884MOL0     H16639   7.745  10.080   4.680  1.5194 -0.9991 -0.0400
  884MOL0     H16640   7.663   9.926   4.687  3.3439  0.0577  2.5172
  884MOL0     H16641   7.417   9.942   4.540 -0.9318 -0.0076 -0.9293
  884MOL0     H16642   7.206  10.258   4.433  0.1546  0.4049 -1.2072
  884MOL0     H16643   7.185  10.080   4.439  0.0086  0.5858  1.1972
  884MOL0     H16644   7.329  10.053   4.241 -1.1391 -1.2092  0.7902
  884MOL0     H16645   7.368  10.226   4.228 -0.0323  0.6288 -0.0785
  884MOL0     H16646   7.098  10.083   4.172 -1.2248  1.7262  0.6123
  884MOL0     H16647   7.108  10.252   4.225 -0.8312  1.2611 -2.0501
  884MOL0     H16648   7.255  10.304   4.021 -0.4481  0.4923  0.9595
  884MOL0     H16649   7.093  10.245   3.985  0.4445 -0.2068 -2.6077
  884MOL0     H16650   7.395   9.933   3.885  0.1158 -0.0135  1.5971
  884MOL0     H16651   7.321   9.693   3.836  1.4565  1.7360 -0.6147
  884MOL0     H16652   7.271   9.393   3.575  1.3287  0.9556  2.0083
  884MOL0     H16653   7.219   9.204   3.444 -2.1181 -1.8381 -2.1270
  884MOL0     H16654   6.844   8.985   3.555  1.0953  2.6990  0.6657
  884MOL0     H16655   6.979   8.903   3.641  0.9345 -3.8587 -1.8258
  884MOL0     H16656   7.027   8.767   3.470 -0.2997 -1.4819  0.4609
  884MOL0     H16657   6.909   8.844   3.360  1.3733  2.0731  1.4104
  884MOL0     H16658   6.727   8.772   3.517  0.5069  0.9506  3.5646
  884MOL0     H16659   6.841   8.701   3.622 -2.1644  4.1142  0.7027
  884MOL0     H16660   6.791   8.595   3.342  0.7162  0.3834 -0.7693
  884MOL0     H16661   6.920   8.533   3.445 -0.3183 -0.5778  0.0826
  884MOL0     H16662   6.618   8.506   3.456  0.8014  0.6731  0.0424
  884MOL0     H16663   6.709   8.501   3.602 -2.4538  2.4426  0.0099
  884MOL0     H16664   6.830   8.284   3.511 -1.4126 -3.1255  0.1979
  884MOL0     H16665   6.796   8.352   3.354  0.0467  2.0269  0.3103
  884MOL0     H16666   6.675   8.135   3.435 -1.1407 -0.5178  3.6956
  884MOL0     H16667   6.592   8.239   3.544  1.1099 -3.5136  0.2682
  884MOL0     H16668   6.588   8.250   3.237  0.5067  2.9615 -0.1794
  884MOL0     H16669   6.490   8.358   3.338 -0.3855 -0.7914  4.3469
  884MOL0     H16670   6.916   9.110   3.725  0.2017 -0.2159 -0.8451
  884MOL0     H16671   6.960   9.325   3.852 -1.6124 -1.6592 -0.0501
  884MOL0     H16672   6.910   9.823   3.861 -0.3541  1.0617 -1.4720
  884MOL0     H16673   6.998  10.067   3.920 -1.0976 -0.9201 -0.2768
  884MOL0     H16674   8.822   9.835   4.377  2.4908  0.9382 -1.6808
  884MOL0     H16675   9.007   9.773   4.233 -0.3774  0.6902 -0.1401
  884MOL0     H16676   9.294   9.782   3.853  0.6456 -0.3467 -2.2256
  884MOL0     H16677   9.478   9.698   3.725 -3.3492  1.2949 -3.1642
  884MOL0     H16678   9.544   9.252   3.652  1.5472  0.2161 -0.9514
  884MOL0     H16679   9.592   9.262   3.827  0.6922 -0.8449 -0.4230
  884MOL0     H16680   9.745   9.339   3.581 -1.6205  1.0852  0.5524
  884MOL0     H16681   9.825   9.337   3.752 -2.3230 -1.6901  2.8378
  884MOL0     H16682   9.735   9.082   3.620 -1.7727  0.8606  1.7530
  884MOL0     H16683   9.819   9.099   3.773 -2.3467  0.9443  1.3238
  884MOL0     H16684  10.011   9.185   3.674  2.4607 -0.3683 -2.6033
  884MOL0     H16685   9.971   9.034   3.603 -0.9504  0.3413 -2.4490
  884MOL0     H16686  10.007   9.279   3.271 -0.0738 -2.0763 -0.6822
  884MOL0     H16687   9.353   9.299   3.838 -1.3507 -0.5543 -0.2825
  884MOL0     H16688   9.166   9.377   3.952  0.2762 -0.8917 -0.5626
  885MOL0     O16689   2.089  10.559   5.206 -0.0169  0.0277 -0.2855
  885MOL0     C16690   2.140  10.454   5.173 -0.8467  0.7377 -0.2073
  885MOL0     O16691   2.080  10.328   5.191 -0.8954  0.5907 -0.4469
  885MOL0     C16692   1.959  10.322   5.248  0.4755 -1.1877 -0.3709
  885MOL0     C16693   1.932  10.322   5.384  0.6020 -0.0442  0.4494
  885MOL0     C16694   1.796  10.327   5.431 -0.8470 -0.5537  0.1203
  885MOL0     C16695   1.688  10.346   5.342 -0.2570 -0.7617  0.3632
  885MOL0     O16696   1.563  10.361   5.401  0.0535  0.1021 -0.1433
  885MOL0     C16697   1.533  10.498   5.409  0.4085 -0.4644  0.2355
  885MOL0     C16698   1.392  10.530   5.385 -0.2762 -0.2931  0.3136
  885MOL0     C16699   1.291  10.473   5.486 -0.0575  0.8865  0.3298
  885MOL0     C16700   1.153  10.544   5.476  0.0514 -0.0081  1.1552
  885MOL0     C16701   1.046  10.454   5.524 -0.1235  0.3317  0.3467
  885MOL0     C16702   0.910  10.520   5.492  0.2401  0.4821  0.6608
  885MOL0     C16703   0.801  10.426   5.545 -0.9074 -0.0208 -0.5268
  885MOL0     C16704   0.655  10.466   5.525 -0.0357  0.5475  0.1430
  885MOL0     N16705   0.582  10.419   5.643  0.6849 -0.8263  0.1828
  885MOL0     C16706   0.525  10.290   5.664  0.2621 -0.4284  0.2974
  885MOL0     C16707   0.467  10.296   5.783 -0.1659  0.6021 -0.4161
  885MOL0     C16708   0.407  10.186   5.859  0.2687 -0.3973 -0.1126
  885MOL0     C16709   0.255  10.192   5.863  0.0932  0.2777 -0.5463
  885MOL0     C16710   0.210  10.072   5.936 -0.0512  0.2419 -0.5448
  885MOL0     C16711   0.056  10.086   5.950 -0.0824 -0.0921  0.2297
  885MOL0     O16712   0.007   9.969   6.026  0.0355  0.2841 -0.2232
  885MOL0     C16713  -0.113  10.004   6.085 -1.0739  0.0401  0.3222
  885MOL0     C16714  -0.109  10.068   6.209 -0.2695  0.1314 -0.3336
  885MOL0     C16715  -0.226  10.088   6.280 -0.1890 -0.1490 -1.1584
  885MOL0     C16716  -0.348  10.054   6.222  0.3474  0.5986 -0.1206
  885MOL0     C16717  -0.483  10.067   6.290 -0.4724  0.4614  0.6135
  885MOL0     O16718  -0.472  10.122   6.408 -1.1481 -0.4973  0.3530
  885MOL0     C16719  -0.581  10.174   6.475 -0.1870 -0.1638  0.7432
  885MOL0     C16720  -0.685  10.244   6.414  0.2978 -0.7115  0.5114
  885MOL0     C16721  -0.789  10.301   6.481  0.7932 -0.7481  0.0314
  885MOL0     C16722  -0.784  10.298   6.617 -0.0907 -0.2677 -0.7441
  885MOL0     O16723  -0.868  10.384   6.685 -0.6753 -0.3959 -0.9458
  885MOL0     C16724  -0.856  10.524   6.645 -0.0204  0.7707 -0.1147
  885MOL0     C16725  -0.993  10.575   6.597  0.1125 -0.0779  0.0807
  885MOL0     C16726  -1.113  10.560   6.694  0.3136  0.4978  0.0200
  885MOL0     C16727  -1.246  10.592   6.632 -0.1570  0.1469  0.7400
  885MOL0     C16728  -1.351  10.617   6.739  1.1587 -0.1567 -0.1148
  885MOL0     C16729  -1.478  10.649   6.668 -0.1696  0.0597  0.1142
  885MOL0     C16730  -1.593  10.683   6.765  0.5926  0.5317 -0.4820
  885MOL0     C16731  -1.693  10.567   6.790  0.1427 -0.0852  0.1030
  885MOL0    Cl16732  -1.785  10.595   6.942 -0.4743 -0.1385 -0.1554
  885MOL0     C16733  -0.691  10.221   6.682  0.3581  0.0102 -0.1980
  885MOL0     C16734  -0.582  10.161   6.611 -0.6387  0.0084 -0.1520
  885MOL0     O16735  -0.590  10.043   6.236 -0.5759  0.0046 -0.1226
  885MOL0     C16736  -0.353   9.978   6.108 -0.6644  1.0399  0.5666
  885MOL0     C16737  -0.231   9.959   6.039  0.8813 -0.2687 -0.4016
  885MOL0     N16738   0.493  10.420   5.841 -0.0703 -0.6089  0.2746
  885MOL0     N16739   0.559  10.495   5.759 -0.6360 -0.5495  0.1952
  885MOL0     C16740   1.719  10.353   5.205 -0.1790  0.1300  0.0576
  885MOL0     C16741   1.853  10.345   5.161  0.6190  0.4646  0.0319
  885MOL0     C16742   2.278  10.454   5.110 -0.3757  0.5861 -0.4920
  885MOL0     C16743   2.357  10.575   5.119  0.3461 -1.2165  0.3831
  885MOL0     C16744   2.479  10.592   5.063  0.1477 -0.2480 -0.0172
  885MOL0     C16745   2.543  10.484   5.007 -0.3033 -0.1583  0.3613
  885MOL0     O16746   2.668  10.505   4.947 -0.0522 -0.0855  0.6543
  885MOL0     C16747   2.732  10.383   4.897 -0.2634  0.2695  0.9317
  885MOL0     C16748   2.856  10.418   4.820 -0.3461  0.5401 -0.2245
  885MOL0     C16749   2.901  10.292   4.744  0.0842  1.0508 -0.6225
  885MOL0     C16750   3.026  10.312   4.658  0.1506 -0.5043 -0.6405
  885MOL0     C16751   3.024  10.433   4.579 -0.0652 -0.6656  0.5675
  885MOL0     C16752   3.013  10.537   4.524 -1.7366 -0.3736  0.2880
  885MOL0     C16753   2.468  10.361   5.002  0.0508  1.3178  0.0421
  885MOL0     C16754   2.341  10.345   5.062  0.0687 -0.0813  0.3189
  885MOL0     H16755   2.008  10.322   5.461  2.0505 -2.9349 -0.8202
  885MOL0     H16756   1.764  10.308   5.533 -0.9270  0.3329  0.2732
  885MOL0     H16757   1.604  10.558   5.351  0.7701  0.0876  1.2261
  885MOL0     H16758   1.550  10.529   5.512  3.4376  2.0225 -0.8178
  885MOL0     H16759   1.362  10.495   5.286  1.5879  0.9586 -0.7670
  885MOL0     H16760   1.386  10.639   5.381  3.1917  0.0396  0.6718
  885MOL0     H16761   1.333  10.494   5.584 -1.8833 -0.9395  1.5978
  885MOL0     H16762   1.279  10.368   5.459  0.5790  1.3947 -2.2684
  885MOL0     H16763   1.161  10.636   5.535 -3.2355 -0.1607  2.0157
  885MOL0     H16764   1.134  10.583   5.376 -1.0260  0.0677  1.3766
  885MOL0     H16765   1.054  10.436   5.631 -2.2032  0.6938  0.5923
  885MOL0     H16766   1.036  10.362   5.465 -3.4321 -0.2766  1.6362
  885MOL0     H16767   0.910  10.533   5.384  5.4918  1.9227  0.5649
  885MOL0     H16768   0.903  10.621   5.532 -1.6864  0.4375  0.5484
  885MOL0     H16769   0.809  10.334   5.486  1.9706  0.3730 -0.9006
  885MOL0     H16770   0.815  10.414   5.653  0.4371 -0.0571 -0.6827
  885MOL0     H16771   0.614  10.420   5.435  1.6432 -4.8503  1.7315
  885MOL0     H16772   0.644  10.571   5.499  3.1552  0.9068 -0.2123
  885MOL0     H16773   0.530  10.203   5.601  5.0745  1.1295 -1.9026
  885MOL0     H16774   0.434  10.184   5.965 -2.0042  2.0934  0.6234
  885MOL0     H16775   0.438  10.087   5.824 -1.7478 -1.7172  1.6272
  885MOL0     H16776   0.205  10.206   5.767  0.4232 -0.0924 -0.7747
  885MOL0     H16777   0.222  10.286   5.908  2.1137  0.2938  1.0577
  885MOL0     H16778   0.224   9.973   5.893  0.6060 -0.1627  0.5712
  885MOL0     H16779   0.261  10.060   6.032  1.5466  0.1753 -1.3667
  885MOL0     H16780   0.023  10.080   5.846  0.4855 -1.5520  0.1101
  885MOL0     H16781   0.035  10.182   5.997  0.1452  0.8134 -1.4266
  885MOL0     H16782  -0.007  10.091   6.238  0.2760 -2.6344  0.1778
  885MOL0     H16783  -0.219  10.148   6.370  0.6952 -1.3515 -0.4068
  885MOL0     H16784  -0.687  10.256   6.306 -0.8627  3.2942  0.8044
  885MOL0     H16785  -0.869  10.350   6.428  2.2933 -0.2158 -1.8554
  885MOL0     H16786  -0.774  10.546   6.577 -0.3348 -0.6184 -0.9853
  885MOL0     H16787  -0.824  10.573   6.737 -0.9403 -0.7955  1.1056
  885MOL0     H16788  -1.011  10.517   6.506  2.1256 -0.9170  0.1648
  885MOL0     H16789  -0.969  10.676   6.565 -0.5654 -0.0641 -0.4199
  885MOL0     H16790  -1.094  10.617   6.786 -0.3924 -1.9965  1.8283
  885MOL0     H16791  -1.118  10.455   6.725 -0.8880  0.5224 -0.0413
  885MOL0     H16792  -1.226  10.685   6.577  0.6534 -2.2538 -3.3719
  885MOL0     H16793  -1.278  10.517   6.560  1.9181 -0.2761  0.2207
  885MOL0     H16794  -1.327  10.698   6.810  1.7571  2.5505 -3.1590
  885MOL0     H16795  -1.360  10.527   6.801 -3.5577 -1.0608 -1.6926
  885MOL0     H16796  -1.517  10.562   6.614 -2.8387 -1.5292  4.1526
  885MOL0     H16797  -1.459  10.731   6.598  1.3120 -0.8215 -0.5794
  885MOL0     H16798  -1.559  10.711   6.865 -1.4659  1.4594  0.0208
  885MOL0     H16799  -1.654  10.767   6.730 -1.0991 -0.3499  0.2026
  885MOL0     H16800  -1.640  10.472   6.798  1.2503  0.6273  1.8625
  885MOL0     H16801  -1.763  10.566   6.706  2.2282 -0.1645 -1.7175
  885MOL0     H16802  -0.693  10.225   6.790  0.1682  1.4720 -0.2260
  885MOL0     H16803  -0.498  10.110   6.656 -1.5935  0.4493  2.3272
  885MOL0     H16804  -0.440   9.936   6.060  0.1054  1.8817 -1.6702
  885MOL0     H16805  -0.234   9.902   5.946  0.3611 -1.4648  0.3272
  885MOL0     H16806   1.631  10.370   5.142 -0.7206  2.3763  1.2888
  885MOL0     H16807   1.875  10.341   5.055  2.4218 -1.6864  0.4093
  885MOL0     H16808   2.311  10.665   5.160  0.8451 -0.5732 -0.4154
  885MOL0     H16809   2.527  10.689   5.063 -2.2463  1.0352  1.8777
  885MOL0     H16810   2.668  10.336   4.822  0.4580 -0.4447  0.7492
  885MOL0     H16811   2.744  10.306   4.973  1.5246 -1.8342 -1.3206
  885MOL0     H16812   2.824  10.497   4.752  0.3159  2.0823  1.1837
  885MOL0     H16813   2.933  10.453   4.890 -1.6040  0.2463  1.3875
  885MOL0     H16814   2.814  10.250   4.693 -0.9590  0.8924  1.1926
  885MOL0     H16815   2.920  10.218   4.822 -0.8271  0.6867 -0.7364
  885MOL0     H16816   3.119  10.315   4.716  1.2213  4.6101 -2.1475
  885MOL0     H16817   3.027  10.229   4.586 -0.5734  0.9499 -2.4011
  885MOL0     H16818   2.979  10.632   4.487  1.7038  0.9070  0.0464
  885MOL0     H16819   2.511  10.268   4.967 -2.6358  0.3537 -0.9515
  885MOL0     H16820   2.290  10.250   5.058  0.7248 -0.4935  1.3253
  886MOL0     O16821   7.888  11.051   1.756 -0.1421  0.3277 -0.1165
  886MOL0     C16822   7.880  10.958   1.829  0.7976  0.7439  0.2898
  886MOL0     O16823   7.760  10.898   1.856  0.2101 -0.6294  0.2303
  886MOL0     C16824   7.640  10.951   1.811 -0.3064 -0.2983  0.2367
  886MOL0     C16825   7.543  10.980   1.908 -0.0362 -0.0037  0.2579
  886MOL0     C16826   7.415  11.007   1.875  0.1244 -0.2410  0.2828
  886MOL0     C16827   7.376  11.019   1.743 -0.2974  0.1896  0.3655
  886MOL0     O16828   7.249  11.070   1.719  0.2740 -0.0051  0.2913
  886MOL0     C16829   7.191  11.080   1.589  0.6309 -0.7994 -0.2649
  886MOL0     C16830   7.058  11.154   1.584  0.9033 -0.8556 -0.1969
  886MOL0     C16831   7.013  11.137   1.444 -0.3981 -0.0152  0.1492
  886MOL0     C16832   6.877  11.209   1.427 -0.8262 -0.4195  0.3144
  886MOL0     C16833   6.808  11.165   1.294 -0.2159 -0.1297  0.1232
  886MOL0     C16834   6.871  11.244   1.179  0.3245  0.3966 -0.1376
  886MOL0     C16835   7.011  11.207   1.117  0.6580  0.3830 -0.1436
  886MOL0     C16836   7.033  11.231   0.971  0.0884  0.0758 -0.4783
  886MOL0     N16837   6.941  11.145   0.893 -0.4252  0.5356 -0.2186
  886MOL0     C16838   6.814  11.178   0.852  0.4056  0.9722 -0.2871
  886MOL0     C16839   6.763  11.076   0.777  0.1958 -0.1386 -0.1834
  886MOL0     C16840   6.628  11.076   0.706 -0.4872 -0.1430 -0.5324
  886MOL0     C16841   6.536  10.972   0.775  0.5834  0.5650 -1.1745
  886MOL0     C16842   6.427  10.911   0.689  0.7220  0.6767  1.2715
  886MOL0     C16843   6.291  10.876   0.754  0.5712  0.1841 -0.8343
  886MOL0     O16844   6.198  10.827   0.654  0.4251  0.1834  0.2937
  886MOL0     C16845   6.070  10.780   0.685 -0.7962 -0.1708 -0.4319
  886MOL0     C16846   6.009  10.729   0.573  0.0994  0.1970 -0.2844
  886MOL0     C16847   5.882  10.673   0.586  0.0885  0.3436  0.4895
  886MOL0     C16848   5.821  10.658   0.711 -0.1364 -0.5750  0.3182
  886MOL0     C16849   5.687  10.587   0.720 -0.0108 -0.1029 -0.0958
  886MOL0     O16850   5.644  10.551   0.845 -0.2016 -0.4118  0.2531
  886MOL0     C16851   5.533  10.479   0.859 -0.4811 -0.0708 -0.2193
  886MOL0     C16852   5.430  10.546   0.933 -0.2371  1.1686  0.3534
  886MOL0     C16853   5.305  10.479   0.953  0.0876 -0.9016 -0.2020
  886MOL0     C16854   5.280  10.349   0.901 -0.1639  1.2169 -0.3102
  886MOL0     O16855   5.158  10.295   0.938 -0.1318 -0.4776 -0.3419
  886MOL0     C16856   5.102  10.171   0.898  0.5099 -0.0805 -0.3212
  886MOL0     C16857   4.950  10.160   0.917 -0.3165 -0.0543 -0.2344
  886MOL0     C16858   4.871  10.273   0.855 -0.1625 -0.5911 -0.5448
  886MOL0     C16859   4.720  10.240   0.833  0.1666 -0.0174 -0.6799
  886MOL0     C16860   4.662  10.354   0.753  0.2447  0.2882  0.2265
  886MOL0     C16861   4.508  10.356   0.774 -1.4430  0.0364 -0.0182
  886MOL0     C16862   4.429  10.236   0.722 -0.4215 -0.2762  0.1028
  886MOL0     C16863   4.288  10.246   0.726  0.6220  0.0362  0.5752
  886MOL0    Cl16864   4.210  10.094   0.679  0.2570  0.5801 -0.0628
  886MOL0     C16865   5.385  10.279   0.831  0.1329 -0.6670 -0.7683
  886MOL0     C16866   5.509  10.348   0.809  0.3954 -0.7409 -0.5073
  886MOL0     O16867   5.630  10.555   0.620  0.2306 -0.0338  0.4199
  886MOL0     C16868   5.885  10.708   0.819 -0.2498  0.4368 -0.2493
  886MOL0     C16869   6.010  10.767   0.811  0.1700 -1.3062  0.8958
  886MOL0     N16870   6.863  10.983   0.771 -0.0547 -0.3963  0.1178
  886MOL0     N16871   6.975  11.029   0.828 -0.0609 -0.1770  0.0498
  886MOL0     C16872   7.474  10.992   1.643 -0.0117 -0.4225  0.2228
  886MOL0     C16873   7.602  10.964   1.680  0.6659  0.0762  0.3811
  886MOL0     C16874   7.998  10.895   1.897 -0.0369 -0.5741  0.6493
  886MOL0     C16875   7.992  10.769   1.960  0.2257  0.3596 -0.1617
  886MOL0     C16876   8.111  10.719   2.025  0.7118  0.5491  0.8580
  886MOL0     C16877   8.226  10.792   2.023  0.5833  0.1755  0.8392
  886MOL0     O16878   8.345  10.743   2.056 -0.1633 -1.5656 -0.3373
  886MOL0     C16879   8.370  10.603   2.086 -0.2973 -0.2889  0.5276
  886MOL0     C16880   8.510  10.586   2.151 -0.4245  0.0550 -0.1501
  886MOL0     C16881   8.536  10.664   2.279 -0.1379  0.7091 -0.6497
  886MOL0     C16882   8.674  10.667   2.318 -0.5009 -0.8471  0.2002
  886MOL0     C16883   8.702  10.757   2.430  0.4542  0.1193  0.8081
  886MOL0     C16884   8.715  10.841   2.519  0.2923  0.2917  0.3833
  886MOL0     C16885   8.232  10.910   1.961 -0.2873  0.0948  0.5713
  886MOL0     C16886   8.118  10.959   1.888 -0.8093  0.4036  0.0831
  886MOL0     H16887   7.576  10.967   2.011  0.1422 -0.6426  0.1192
  886MOL0     H16888   7.335  11.033   1.945 -0.4869  0.8360 -0.7776
  886MOL0     H16889   7.184  10.982   1.540 -2.3798 -0.2026 -1.2427
  886MOL0     H16890   7.258  11.145   1.532 -0.2924  2.1030  1.7211
  886MOL0     H16891   7.072  11.260   1.609  0.9635 -0.7108 -0.8169
  886MOL0     H16892   6.979  11.111   1.646 -1.4136  0.6044 -1.9471
  886MOL0     H16893   7.020  11.031   1.420  7.5029 -0.4508  1.8052
  886MOL0     H16894   7.085  11.172   1.370 -1.2836 -4.7403 -3.4281
  886MOL0     H16895   6.811  11.178   1.508  0.2495  1.7375  2.1261
  886MOL0     H16896   6.902  11.315   1.437  0.7054 -0.8143  0.9704
  886MOL0     H16897   6.700  11.175   1.287  0.0881  4.2677 -1.6718
  886MOL0     H16898   6.821  11.059   1.272 -0.7306 -0.4514  1.3145
  886MOL0     H16899   6.880  11.350   1.205 -2.4208  0.8229 -0.5718
  886MOL0     H16900   6.791  11.232   1.106 -0.9285  0.0683  1.2292
  886MOL0     H16901   7.086  11.271   1.164 -1.4699  1.4192  2.0747
  886MOL0     H16902   7.026  11.101   1.140  0.0001  0.6081  1.4195
  886MOL0     H16903   7.138  11.209   0.952  0.8353  2.6882  0.2274
  886MOL0     H16904   7.025  11.333   0.933  3.1027 -0.2497 -2.3857
  886MOL0     H16905   6.768  11.276   0.850 -2.5921 -0.3194 -1.6881
  886MOL0     H16906   6.651  11.045   0.603 -2.1727 -3.0519 -0.1440
  886MOL0     H16907   6.593  11.179   0.697  2.6095  1.1581  1.0579
  886MOL0     H16908   6.490  11.015   0.864  1.3450 -0.3708 -0.3063
  886MOL0     H16909   6.591  10.884   0.811  0.2177  0.5867 -0.5465
  886MOL0     H16910   6.401  10.978   0.606  0.3206  2.1794  2.5670
  886MOL0     H16911   6.470  10.829   0.630  0.5804  1.3545  0.2046
  886MOL0     H16912   6.262  10.971   0.801 -2.3816 -1.0952  0.1936
  886MOL0     H16913   6.304  10.800   0.832 -0.7285 -0.6567 -1.3995
  886MOL0     H16914   6.052  10.747   0.475  4.5191  0.0353  1.4044
  886MOL0     H16915   5.834  10.629   0.499  0.5960 -0.8314  0.7760
  886MOL0     H16916   5.450  10.645   0.973 -1.3644  1.6320 -0.1727
  886MOL0     H16917   5.217  10.518   1.003 -0.0190 -1.0150 -0.2985
  886MOL0     H16918   5.150  10.093   0.957 -0.4957  0.0375  0.6966
  886MOL0     H16919   5.119  10.164   0.790  0.0458  0.5734 -0.4438
  886MOL0     H16920   4.924  10.165   1.023 -1.8392  2.7556 -0.6498
  886MOL0     H16921   4.930  10.057   0.886  3.4611 -0.5752 -1.4746
  886MOL0     H16922   4.911  10.298   0.757  0.2258 -2.3487 -0.8491
  886MOL0     H16923   4.892  10.364   0.914  1.8237 -0.5728 -1.2094
  886MOL0     H16924   4.704  10.145   0.782 -4.0120  0.7791 -1.1958
  886MOL0     H16925   4.668  10.239   0.930  0.3535 -2.1002 -0.5739
  886MOL0     H16926   4.693  10.340   0.649 -1.7681  0.4813 -0.4577
  886MOL0     H16927   4.705  10.449   0.784  0.7883 -0.1128  0.7193
  886MOL0     H16928   4.470  10.448   0.728  1.7711  2.2606  1.4127
  886MOL0     H16929   4.485  10.367   0.881 -2.9853  1.8272 -0.4815
  886MOL0     H16930   4.455  10.219   0.618  0.9199  0.2946  0.3260
  886MOL0     H16931   4.451  10.146   0.781 -2.7295 -1.1990 -0.3191
  886MOL0     H16932   4.251  10.319   0.653  2.0277  0.4615  0.2586
  886MOL0     H16933   4.250  10.261   0.828  0.1493 -4.2551  1.2174
  886MOL0     H16934   5.363  10.180   0.792  0.7844 -0.0777 -2.7942
  886MOL0     H16935   5.586  10.290   0.761  1.6645  0.4632 -0.0032
  886MOL0     H16936   5.844  10.704   0.919 -1.7184 -0.9589 -0.8679
  886MOL0     H16937   6.060  10.811   0.897 -2.8563  3.5687  0.5582
  886MOL0     H16938   7.451  11.001   1.537  0.3415 -0.7268  0.1193
  886MOL0     H16939   7.675  10.936   1.605 -2.0540  0.0544 -2.4409
  886MOL0     H16940   7.904  10.707   1.975 -0.6223  1.7325  0.7755
  886MOL0     H16941   8.099  10.625   2.077 -2.9655  1.0618  1.2072
  886MOL0     H16942   8.357  10.546   1.994 -2.6009  1.9088 -0.6266
  886MOL0     H16943   8.300  10.567   2.163 -1.5470  0.0490 -0.4188
  886MOL0     H16944   8.515  10.478   2.169  1.3195 -0.0170 -0.8955
  886MOL0     H16945   8.592  10.617   2.086  0.8709  0.7541  1.7237
  886MOL0     H16946   8.483  10.614   2.362  5.3208  0.3569  3.1544
  886MOL0     H16947   8.500  10.766   2.262 -0.5437  0.3729 -1.9407
  886MOL0     H16948   8.703  10.562   2.332  2.3602  0.0470  1.9368
  886MOL0     H16949   8.732  10.705   2.233 -1.1313  0.7469  0.4506
  886MOL0     H16950   8.723  10.914   2.596  1.1128  0.5590  0.0570
  886MOL0     H16951   8.315  10.979   1.964  0.0163 -0.0626 -1.9047
  886MOL0     H16952   8.132  11.052   1.835  4.5822 -0.6917 -1.0480
  887MOL0     O16953   0.471   4.990   2.617 -0.6981 -0.0028  0.3647
  887MOL0     C16954   0.497   4.880   2.559 -0.7535  0.0586 -0.1566
  887MOL0     O16955   0.410   4.784   2.523  0.2403 -0.2520 -1.4225
  887MOL0     C16956   0.282   4.780   2.579 -0.0794 -0.1665  0.1815
  887MOL0     C16957   0.248   4.824   2.706  0.4710  0.3674  0.8306
  887MOL0     C16958   0.122   4.804   2.761  0.0401  1.1617 -0.0797
  887MOL0     C16959   0.017   4.740   2.686 -0.6536  0.1349 -0.1351
  887MOL0     O16960  -0.101   4.712   2.745  0.1982  0.0084  0.1951
  887MOL0     C16961  -0.219   4.723   2.655 -0.9700  0.7231  0.5520
  887MOL0     C16962  -0.343   4.737   2.744 -0.3569  0.0294 -0.3658
  887MOL0     C16963  -0.469   4.709   2.659 -0.4614  0.5346 -0.5558
  887MOL0     C16964  -0.579   4.724   2.761  0.5339  0.1547 -0.3750
  887MOL0     C16965  -0.717   4.672   2.728  0.4022 -0.3015  0.4125
  887MOL0     C16966  -0.813   4.704   2.849 -0.4642 -0.0994 -0.4850
  887MOL0     C16967  -0.943   4.623   2.833 -0.8719  0.4305  0.1263
  887MOL0     C16968  -1.043   4.661   2.948 -0.8480 -0.5824 -0.0704
  887MOL0     N16969  -1.178   4.605   2.914  0.3369  0.6458 -0.1848
  887MOL0     C16970  -1.248   4.635   2.809 -0.5291 -0.3626  0.5391
  887MOL0     C16971  -1.367   4.584   2.826  0.3967 -0.2454  0.1701
  887MOL0     C16972  -1.471   4.591   2.720  0.1542  0.1716 -0.6810
  887MOL0     C16973  -1.522   4.451   2.673 -0.6613  0.4322 -0.6220
  887MOL0     C16974  -1.577   4.454   2.532  0.3658  0.2855 -0.5043
  887MOL0     C16975  -1.724   4.489   2.541 -0.1243  0.2509 -0.9823
  887MOL0     O16976  -1.764   4.478   2.406  0.4707 -0.6654 -0.1147
  887MOL0     C16977  -1.886   4.419   2.379 -0.6694  0.2930 -0.4717
  887MOL0     C16978  -1.922   4.354   2.265 -0.6840  0.6799  0.3523
  887MOL0     C16979  -2.050   4.315   2.227 -0.3274  0.5993 -0.3455
  887MOL0     C16980  -2.148   4.323   2.318  0.6454 -0.1727  0.1914
  887MOL0     C16981  -2.284   4.273   2.293 -1.0664 -0.3213  0.3754
  887MOL0     O16982  -2.362   4.272   2.401 -0.2337  0.3777  0.5441
  887MOL0     C16983  -2.488   4.216   2.403  0.5219 -0.8793  0.0311
  887MOL0     C16984  -2.543   4.116   2.312  0.0702 -0.3716  0.1971
  887MOL0     C16985  -2.675   4.056   2.339 -0.4115  0.5478 -0.1626
  887MOL0     C16986  -2.751   4.121   2.438 -0.3965  1.1230  0.4748
  887MOL0     O16987  -2.885   4.098   2.436 -0.0951 -0.0891 -0.1916
  887MOL0     C16988  -2.987   4.178   2.497 -0.2221 -0.7129 -0.3401
  887MOL0     C16989  -3.050   4.282   2.397  0.7156 -0.6063  0.2130
  887MOL0     C16990  -3.128   4.216   2.286  0.1065  0.4482 -0.1041
  887MOL0     C16991  -3.266   4.168   2.337 -0.2907 -0.4795  0.0907
  887MOL0     C16992  -3.337   4.077   2.242 -0.1583 -0.0680 -0.3729
  887MOL0     C16993  -3.486   4.059   2.294 -0.7009  0.0887 -0.4892
  887MOL0     C16994  -3.567   3.951   2.230 -0.3606 -0.2121  0.0260
  887MOL0     C16995  -3.718   3.975   2.233  0.7458  0.4532  0.2192
  887MOL0    Cl16996  -3.808   3.854   2.148 -0.0519  0.1221 -0.6266
  887MOL0     C16997  -2.684   4.202   2.528 -0.3129 -0.5079  0.1007
  887MOL0     C16998  -2.555   4.247   2.517  0.1953 -0.4382  0.0175
  887MOL0     O16999  -2.318   4.253   2.174 -0.0739 -0.3578 -0.2285
  887MOL0     C17000  -2.123   4.393   2.440  0.6822 -0.7127 -1.1393
  887MOL0     C17001  -1.991   4.449   2.468  0.3808  0.8082  0.6708
  887MOL0     N17002  -1.372   4.521   2.950  0.1147  0.3646  0.6209
  887MOL0     N17003  -1.252   4.538   3.004 -0.0363 -0.1715  0.2993
  887MOL0     C17004   0.052   4.705   2.558  0.0368  0.5821  0.3984
  887MOL0     C17005   0.181   4.721   2.508 -0.1815  0.2936  0.1120
  887MOL0     C17006   0.643   4.863   2.546  0.0320 -0.2218  0.2492
  887MOL0     C17007   0.694   4.743   2.497  0.0654  0.8078  0.1220
  887MOL0     C17008   0.831   4.734   2.470 -0.3749  0.3390  0.2655
  887MOL0     C17009   0.918   4.848   2.478 -0.3318  0.8212 -0.9698
  887MOL0     O17010   1.040   4.830   2.438  0.2958  0.5983 -0.3998
  887MOL0     C17011   1.132   4.942   2.443 -0.0668  0.3765  0.2008
  887MOL0     C17012   1.280   4.908   2.423 -1.0946 -0.0056  0.5652
  887MOL0     C17013   1.314   4.893   2.276  0.2597 -0.4869  0.7948
  887MOL0     C17014   1.455   4.844   2.233  0.8011 -0.3413  0.8500
  887MOL0     C17015   1.563   4.927   2.303  0.9808  0.2553 -0.2546
  887MOL0     C17016   1.656   4.993   2.340 -0.0697 -1.5661  0.5263
  887MOL0     C17017   0.862   4.971   2.539 -1.5590  0.9937 -0.2780
  887MOL0     C17018   0.729   4.977   2.570 -0.9371  0.6400 -1.1991
  887MOL0     H17019   0.311   4.888   2.767 -1.2960  3.4021 -0.3062
  887MOL0     H17020   0.113   4.846   2.861 -1.9650 -1.5198  0.9731
  887MOL0     H17021  -0.225   4.638   2.586 -0.4092  0.5346  0.7279
  887MOL0     H17022  -0.207   4.810   2.589  1.9445  1.3240  1.7190
  887MOL0     H17023  -0.348   4.823   2.811 -0.5000  0.1987 -0.5940
  887MOL0     H17024  -0.336   4.657   2.819  0.0852  0.5840  0.1992
  887MOL0     H17025  -0.464   4.608   2.619  0.0397  0.0663  0.6459
  887MOL0     H17026  -0.478   4.782   2.578 -0.8477  0.3478 -0.6847
  887MOL0     H17027  -0.558   4.670   2.854 -2.9138 -0.8086 -0.0343
  887MOL0     H17028  -0.588   4.820   2.814  0.0105 -0.0902 -0.0051
  887MOL0     H17029  -0.715   4.563   2.723 -3.3889 -0.4700 -1.2297
  887MOL0     H17030  -0.748   4.725   2.638 -0.1960  4.1125  2.9289
  887MOL0     H17031  -0.834   4.811   2.861  2.2143  0.4022  0.3634
  887MOL0     H17032  -0.767   4.666   2.941  1.2139 -0.6202 -1.4922
  887MOL0     H17033  -0.986   4.642   2.734 -1.0446 -0.3543  0.0464
  887MOL0     H17034  -0.922   4.516   2.837 -3.1257 -0.1135 -0.7211
  887MOL0     H17035  -1.042   4.769   2.960 -4.2921 -0.5804  1.7297
  887MOL0     H17036  -1.002   4.625   3.043  4.7738  0.9798 -1.5221
  887MOL0     H17037  -1.208   4.689   2.724  0.7545  1.5359  2.2269
  887MOL0     H17038  -1.439   4.650   2.634 -0.7171  0.2491 -0.9705
  887MOL0     H17039  -1.554   4.646   2.765 -0.3260 -0.7648 -0.3810
  887MOL0     H17040  -1.591   4.411   2.749 -0.8098  1.1803 -0.3596
  887MOL0     H17041  -1.434   4.386   2.673  0.1882  1.5150 -2.6138
  887MOL0     H17042  -1.523   4.525   2.470 -0.6106 -0.4077 -2.2089
  887MOL0     H17043  -1.571   4.354   2.489 -0.4949 -0.5939  1.2958
  887MOL0     H17044  -1.739   4.591   2.577  2.6007 -0.5190  3.0393
  887MOL0     H17045  -1.775   4.419   2.609 -0.6964  1.0128 -0.6101
  887MOL0     H17046  -1.840   4.334   2.196  0.4076 -0.1805  1.8466
  887MOL0     H17047  -2.074   4.275   2.129  0.6679 -0.5829 -0.1354
  887MOL0     H17048  -2.478   4.072   2.238  0.5289  0.1266  0.2910
  887MOL0     H17049  -2.715   3.976   2.278  0.9566 -1.7543  1.7587
  887MOL0     H17050  -2.948   4.229   2.586 -1.8128  1.4816 -0.8118
  887MOL0     H17051  -3.069   4.112   2.528 -0.5971 -2.8088 -4.9306
  887MOL0     H17052  -2.964   4.334   2.354  1.1983 -2.0327 -0.6147
  887MOL0     H17053  -3.121   4.353   2.440  0.4160  0.3781 -1.7952
  887MOL0     H17054  -3.082   4.122   2.254 -0.9212  0.2619 -1.1301
  887MOL0     H17055  -3.141   4.285   2.201 -4.9974 -1.0039 -0.8794
  887MOL0     H17056  -3.254   4.119   2.434  3.2881 -0.2631 -0.1201
  887MOL0     H17057  -3.319   4.263   2.347  1.9572  1.0795 -1.7297
  887MOL0     H17058  -3.289   3.979   2.243  0.7394  0.3678  1.3366
  887MOL0     H17059  -3.328   4.116   2.140  1.1534 -2.7269 -1.3649
  887MOL0     H17060  -3.541   4.154   2.293  4.1349  3.2669  0.0160
  887MOL0     H17061  -3.487   4.042   2.402 -1.9149  1.2052 -0.3040
  887MOL0     H17062  -3.540   3.935   2.125  1.5116  0.9607  0.2697
  887MOL0     H17063  -3.533   3.856   2.273 -0.3014  0.4911  1.6264
  887MOL0     H17064  -3.739   4.074   2.189 -0.8349 -0.5533 -1.4419
  887MOL0     H17065  -3.747   3.975   2.338  0.2461  1.9258  0.1159
  887MOL0     H17066  -2.746   4.218   2.615 -0.3543  0.2342 -0.0632
  887MOL0     H17067  -2.498   4.307   2.587 -1.2674  1.1611 -0.1043
  887MOL0     H17068  -2.195   4.423   2.515 -2.0466 -3.4296 -2.4467
  887MOL0     H17069  -1.974   4.506   2.559  0.5777 -1.0664  1.8561
  887MOL0     H17070  -0.022   4.663   2.491 -0.6998  3.7183 -0.9235
  887MOL0     H17071   0.203   4.672   2.414 -1.8304  0.0340 -0.1656
  887MOL0     H17072   0.628   4.657   2.489 -1.0251  1.5452  0.8641
  887MOL0     H17073   0.866   4.640   2.429  2.4590  1.3210  0.1477
  887MOL0     H17074   1.111   4.992   2.538 -3.2143 -2.1723  1.0221
  887MOL0     H17075   1.110   5.016   2.365  0.6716 -0.8780 -1.2574
  887MOL0     H17076   1.344   4.989   2.458 -1.5932  0.6253  0.0602
  887MOL0     H17077   1.300   4.818   2.481 -1.6811 -1.7729 -1.8462
  887MOL0     H17078   1.323   4.992   2.232 -1.8251 -2.5291 -5.2965
  887MOL0     H17079   1.246   4.832   2.215  2.6088 -3.6414  1.0472
  887MOL0     H17080   1.467   4.738   2.257 -0.0695 -0.6338  0.0115
  887MOL0     H17081   1.481   4.859   2.128 -1.9976  1.7993  0.3505
  887MOL0     H17082   1.738   5.056   2.367 -1.3656  1.3134 -1.6829
  887MOL0     H17083   0.914   5.062   2.568 -3.2477  1.6445  0.8568
  887MOL0     H17084   0.691   5.071   2.608 -1.1575  0.7789 -1.7559
  888MOL0     O17085   0.673   5.689   6.440 -0.0505 -0.1794  0.0264
  888MOL0     C17086   0.703   5.571   6.468 -0.7110 -0.8870 -1.1129
  888MOL0     O17087   0.617   5.470   6.481  0.4614  0.8422 -0.2047
  888MOL0     C17088   0.480   5.485   6.461 -0.0777 -0.2094 -0.0217
  888MOL0     C17089   0.415   5.391   6.384 -0.3927 -0.5227 -0.5423
  888MOL0     C17090   0.278   5.395   6.359 -0.7806  0.2422 -0.1669
  888MOL0     C17091   0.201   5.505   6.400 -0.0260  0.0477  0.1332
  888MOL0     O17092   0.069   5.502   6.359  0.4219 -0.2052 -0.3923
  888MOL0     C17093  -0.005   5.627   6.380 -0.6494  0.0317 -0.3919
  888MOL0     C17094  -0.137   5.609   6.299 -0.2159 -0.2985  0.3104
  888MOL0     C17095  -0.229   5.724   6.335  0.3148 -0.2550  0.2898
  888MOL0     C17096  -0.351   5.718   6.230  0.5141 -0.6442  0.3298
  888MOL0     C17097  -0.434   5.846   6.238  0.4140 -0.3480 -0.2567
  888MOL0     C17098  -0.572   5.829   6.178 -0.0533 -0.2784 -0.1464
  888MOL0     C17099  -0.659   5.960   6.189  0.0330 -0.0671  0.2013
  888MOL0     C17100  -0.650   6.066   6.085 -0.1877 -0.6074  0.2041
  888MOL0     N17101  -0.692   6.020   5.958 -0.1802 -0.5184  0.0320
  888MOL0     C17102  -0.829   6.012   5.912 -0.9792 -0.1602  0.1733
  888MOL0     C17103  -0.818   5.974   5.781  0.0280 -0.1211  1.1027
  888MOL0     C17104  -0.932   5.957   5.682 -0.0110  0.6624 -0.5192
  888MOL0     C17105  -0.945   5.809   5.632 -0.4426 -0.1148 -0.5300
  888MOL0     C17106  -1.025   5.783   5.500 -0.4249  0.1385  0.6587
  888MOL0     C17107  -1.171   5.834   5.503  0.4785 -0.4941 -0.0084
  888MOL0     O17108  -1.243   5.784   5.392  0.0729  0.1292 -0.0782
  888MOL0     C17109  -1.377   5.811   5.397  0.2691 -0.2815 -0.2906
  888MOL0     C17110  -1.434   5.913   5.477  0.2675 -0.1630  1.5560
  888MOL0     C17111  -1.576   5.936   5.476 -0.0395 -0.2169 -0.3340
  888MOL0     C17112  -1.654   5.874   5.376 -0.4122 -0.8807 -0.3619
  888MOL0     C17113  -1.799   5.901   5.363  0.3488 -0.2272  0.8086
  888MOL0     O17114  -1.867   5.844   5.249  1.5738  0.7920 -0.2564
  888MOL0     C17115  -1.989   5.892   5.205  0.0654 -0.5550 -0.0004
  888MOL0     C17116  -1.995   5.929   5.069  0.0133 -0.9445 -0.5131
  888MOL0     C17117  -2.125   5.954   5.012 -0.5873 -0.5404 -0.0125
  888MOL0     C17118  -2.239   5.958   5.095  0.2507 -0.4582 -0.3906
  888MOL0     O17119  -2.364   5.989   5.036 -0.7423  0.0108  0.0280
  888MOL0     C17120  -2.488   5.953   5.108  0.3393 -0.0043  0.0693
  888MOL0     C17121  -2.610   5.973   5.037  0.8872 -0.2374 -0.4100
  888MOL0     C17122  -2.659   6.121   5.025 -0.8106 -0.5267  1.0887
  888MOL0     C17123  -2.691   6.187   5.155 -0.5037  0.1008 -0.4773
  888MOL0     C17124  -2.828   6.254   5.164  0.6815  0.5006 -0.0714
  888MOL0     C17125  -2.839   6.316   5.298  0.5443 -0.3799 -0.1663
  888MOL0     C17126  -2.942   6.417   5.289 -0.3545 -0.0922 -0.0293
  888MOL0     C17127  -3.022   6.435   5.418  0.5353 -0.7366 -0.8725
  888MOL0    Cl17128  -2.922   6.450   5.568  0.2591 -0.0039  0.0528
  888MOL0     C17129  -2.223   5.940   5.233  0.5689  0.0714  0.3288
  888MOL0     C17130  -2.103   5.889   5.282  0.1840 -0.1844  0.6128
  888MOL0     O17131  -1.851   5.974   5.446 -0.5805  0.3302  0.0241
  888MOL0     C17132  -1.582   5.785   5.288 -0.9207 -0.6462 -0.2327
  888MOL0     C17133  -1.451   5.746   5.305 -1.2354 -0.2149 -0.5637
  888MOL0     N17134  -0.692   5.943   5.758  0.1832  0.1499  0.6838
  888MOL0     N17135  -0.611   5.980   5.860  0.0478 -0.3189  0.5275
  888MOL0     C17136   0.265   5.610   6.473  0.2130 -0.1915  0.0736
  888MOL0     C17137   0.408   5.599   6.503 -0.3222  0.3345 -0.8076
  888MOL0     C17138   0.854   5.546   6.475 -0.1832 -0.7377 -0.0435
  888MOL0     C17139   0.946   5.652   6.490 -0.1015 -0.2556 -0.5426
  888MOL0     C17140   1.085   5.617   6.500 -0.7938  0.1312  0.4253
  888MOL0     C17141   1.135   5.493   6.474  0.6810  0.7947  0.3253
  888MOL0     O17142   1.269   5.452   6.477  0.0244 -0.3110 -0.5815
  888MOL0     C17143   1.376   5.549   6.479  0.4492  0.5811  0.5479
  888MOL0     C17144   1.502   5.478   6.412  0.4736  0.5739  0.0469
  888MOL0     C17145   1.544   5.348   6.472 -0.0177  0.1984  0.4236
  888MOL0     C17146   1.640   5.279   6.383  0.0309  0.3684 -0.0992
  888MOL0     C17147   1.770   5.336   6.392  0.1143  0.5502 -0.4085
  888MOL0     C17148   1.892   5.364   6.396  0.6848 -0.6670 -1.1801
  888MOL0     C17149   1.044   5.382   6.457 -0.0417 -0.1008 -0.9002
  888MOL0     C17150   0.907   5.416   6.464  0.0771 -0.1440 -0.4549
  888MOL0     H17151   0.462   5.307   6.334  1.6980  0.0957  0.2715
  888MOL0     H17152   0.220   5.318   6.309 -2.9797  2.9907 -2.1672
  888MOL0     H17153   0.054   5.712   6.344  1.2206  0.3096  2.9279
  888MOL0     H17154  -0.029   5.654   6.484 -3.3441 -0.0398 -0.9226
  888MOL0     H17155  -0.191   5.514   6.307 -2.0132 -0.2062 -5.7857
  888MOL0     H17156  -0.105   5.612   6.195 -2.1865 -0.7851 -0.3657
  888MOL0     H17157  -0.179   5.821   6.327 -0.8116  0.3864  0.7577
  888MOL0     H17158  -0.260   5.711   6.439  3.3529  1.5585  1.5547
  888MOL0     H17159  -0.319   5.709   6.126 -0.3550  3.0854 -0.4001
  888MOL0     H17160  -0.419   5.633   6.234 -0.6102  0.0552 -2.0988
  888MOL0     H17161  -0.376   5.917   6.178  0.9851 -2.6399 -2.5648
  888MOL0     H17162  -0.442   5.887   6.339  0.1305 -0.2622 -0.3150
  888MOL0     H17163  -0.625   5.764   6.249  1.8777 -1.0189  0.6872
  888MOL0     H17164  -0.585   5.788   6.077 -1.4165 -1.5323  0.5029
  888MOL0     H17165  -0.764   5.931   6.180  0.0710 -1.6937  3.6303
  888MOL0     H17166  -0.660   6.005   6.289 -4.0705 -1.3413  0.9196
  888MOL0     H17167  -0.544   6.091   6.073 -0.6693  1.2746 -0.4490
  888MOL0     H17168  -0.704   6.157   6.113 -2.0009 -0.5857 -2.8906
  888MOL0     H17169  -0.915   6.053   5.964  0.8289  1.3761  2.1653
  888MOL0     H17170  -0.910   6.016   5.592  1.1677 -0.0443 -0.7081
  888MOL0     H17171  -1.030   5.992   5.716 -1.0236 -0.5099 -2.0503
  888MOL0     H17172  -0.977   5.749   5.717 -3.2283  2.5556  0.5191
  888MOL0     H17173  -0.847   5.769   5.607 -0.8664 -0.2889 -2.0643
  888MOL0     H17174  -0.974   5.819   5.411 -0.1879 -0.2911  0.6242
  888MOL0     H17175  -1.040   5.676   5.487 -0.2265 -0.0232  1.6662
  888MOL0     H17176  -1.168   5.944   5.497 -4.5724 -0.1474 -0.6578
  888MOL0     H17177  -1.221   5.804   5.595 -0.9413 -1.4488 -1.0551
  888MOL0     H17178  -1.368   5.976   5.537 -2.2237  4.2511  0.1324
  888MOL0     H17179  -1.626   6.017   5.527 -0.6644 -0.4217 -0.6173
  888MOL0     H17180  -1.910   5.936   5.001 -0.4014  0.1067 -0.9341
  888MOL0     H17181  -2.138   5.961   4.904 -0.4053  0.2386  0.0117
  888MOL0     H17182  -2.490   6.009   5.202  3.5207 -1.5626  1.2403
  888MOL0     H17183  -2.486   5.846   5.134  2.0919  0.0118  0.1561
  888MOL0     H17184  -2.689   5.907   5.073  0.7653  0.3044  0.3506
  888MOL0     H17185  -2.605   5.946   4.931 -0.2458  0.3699 -0.6410
  888MOL0     H17186  -2.750   6.117   4.964  0.4950 -0.4983 -0.9458
  888MOL0     H17187  -2.579   6.180   4.981 -1.4169  1.1034  2.1063
  888MOL0     H17188  -2.711   6.119   5.238 -2.2879  0.8397 -0.2616
  888MOL0     H17189  -2.604   6.250   5.176  0.5527 -1.5179  0.1808
  888MOL0     H17190  -2.908   6.179   5.158  0.0082  1.3035 -2.8596
  888MOL0     H17191  -2.836   6.321   5.078  1.3983  0.3954 -0.2251
  888MOL0     H17192  -2.744   6.366   5.320  1.9674 -2.6944 -0.7323
  888MOL0     H17193  -2.859   6.242   5.376  0.1748  1.3299  1.4191
  888MOL0     H17194  -2.897   6.509   5.252 -1.9467  0.2790 -1.1527
  888MOL0     H17195  -3.014   6.394   5.210 -1.3539  0.9591  0.5427
  888MOL0     H17196  -3.097   6.357   5.434  0.0237 -0.0834 -0.0181
  888MOL0     H17197  -3.081   6.526   5.411 -0.3912 -1.1570  0.8536
  888MOL0     H17198  -2.310   5.931   5.298 -0.9564  0.1613 -1.5814
  888MOL0     H17199  -2.088   5.847   5.381  0.7403 -1.4192  0.0171
  888MOL0     H17200  -1.641   5.744   5.207 -2.3344  2.2425 -0.8230
  888MOL0     H17201  -1.400   5.670   5.246 -0.0568  1.1093 -1.3072
  888MOL0     H17202   0.221   5.705   6.501 -1.1185  0.0968 -2.6778
  888MOL0     H17203   0.466   5.672   6.558 -0.9501  1.3216 -1.4269
  888MOL0     H17204   0.918   5.757   6.497  1.7205  0.2055  0.5425
  888MOL0     H17205   1.162   5.691   6.521  0.6614 -0.6854 -1.7381
  888MOL0     H17206   1.393   5.573   6.584 -0.0990  2.2215  0.2946
  888MOL0     H17207   1.352   5.641   6.424  0.7662  0.7283  0.6494
  888MOL0     H17208   1.475   5.451   6.310 -0.4180 -3.6840  1.2098
  888MOL0     H17209   1.580   5.555   6.421 -1.7370  3.0158 -0.4190
  888MOL0     H17210   1.456   5.283   6.478 -0.0438 -0.0359 -1.7386
  888MOL0     H17211   1.595   5.367   6.567 -0.1132  0.3523  0.4450
  888MOL0     H17212   1.643   5.172   6.409 -4.0432 -0.5344 -2.4221
  888MOL0     H17213   1.599   5.267   6.282  0.2467 -0.1567 -0.1314
  888MOL0     H17214   1.995   5.392   6.389  1.3349 -1.8003  2.1224
  888MOL0     H17215   1.084   5.284   6.436 -2.5506 -0.8945 -2.3552
  888MOL0     H17216   0.835   5.335   6.468  0.2419 -0.2527  2.0296
  889MOL0     O17217   1.169   6.313  10.183 -0.6210 -0.6389  0.0770
  889MOL0     C17218   1.187   6.288  10.307 -0.4702 -0.3593  1.0248
  889MOL0     O17219   1.096   6.308  10.397 -0.8841  0.5748 -0.1623
  889MOL0     C17220   0.968   6.333  10.383  0.2534 -0.1113  0.2503
  889MOL0     C17221   0.906   6.335  10.513  0.2306  0.1160  0.1932
  889MOL0     C17222   0.771   6.366  10.526 -0.9048  0.6976 -0.8295
  889MOL0     C17223   0.686   6.390  10.414 -1.3016  0.2168 -0.5009
  889MOL0     O17224   0.560   6.430  10.445 -0.1181 -0.4202  0.2500
  889MOL0     C17225   0.475   6.480  10.343  0.9127 -0.0123 -0.3484
  889MOL0     C17226   0.331   6.511  10.399  0.1832 -0.4524 -0.3745
  889MOL0     C17227   0.241   6.532  10.276 -0.8860  0.1828 -0.1853
  889MOL0     C17228   0.101   6.567  10.322 -0.1134 -0.0321 -0.5136
  889MOL0     C17229   0.021   6.612  10.204 -0.3007  0.4236  0.2182
  889MOL0     C17230  -0.127   6.655  10.218  0.2340 -0.2546  0.2644
  889MOL0     C17231  -0.159   6.732  10.349  0.0872 -0.0175 -0.0509
  889MOL0     C17232  -0.077   6.864  10.350 -0.0032 -0.7286 -0.4314
  889MOL0     N17233  -0.147   6.954  10.454 -0.4774  0.7384  0.4957
  889MOL0     C17234  -0.139   7.098  10.457  0.2670 -0.2151  0.0614
  889MOL0     C17235  -0.217   7.138  10.561  0.9993  0.4848  0.4641
  889MOL0     C17236  -0.272   7.280  10.577  0.0314 -1.3548  0.2110
  889MOL0     C17237  -0.273   7.315  10.722  0.6268 -0.0203 -0.1821
  889MOL0     C17238  -0.300   7.469  10.744 -0.6734  0.2320 -0.1553
  889MOL0     C17239  -0.449   7.497  10.722  0.2002 -0.2754 -0.8707
  889MOL0     O17240  -0.480   7.625  10.785 -0.6414 -0.4173 -0.1432
  889MOL0     C17241  -0.611   7.663  10.792  0.0199 -0.1877  0.4166
  889MOL0     C17242  -0.636   7.803  10.795  0.3220 -0.4161 -0.6533
  889MOL0     C17243  -0.769   7.857  10.816 -0.6723  0.9767  0.2819
  889MOL0     C17244  -0.878   7.765  10.828 -0.4823  0.0553 -0.5471
  889MOL0     C17245  -1.009   7.824  10.864  0.5197 -0.2063  0.1464
  889MOL0     O17246  -1.116   7.737  10.837 -0.0497 -0.1773 -0.0795
  889MOL0     C17247  -1.250   7.766  10.864  0.2524 -0.2893 -0.7124
  889MOL0     C17248  -1.336   7.658  10.889 -0.1143 -0.3511  0.0324
  889MOL0     C17249  -1.475   7.667  10.917  0.9319  0.5209  0.1966
  889MOL0     C17250  -1.526   7.790  10.914  1.2879 -0.0467 -0.5905
  889MOL0     O17251  -1.661   7.785  10.934 -0.2569  0.0980  0.4109
  889MOL0     C17252  -1.730   7.908  10.954  0.0836 -0.8782  0.3609
  889MOL0     C17253  -1.879   7.872  10.978  0.3541  1.1974 -0.1936
  889MOL0     C17254  -1.976   7.991  10.977 -1.4337  0.8278 -0.0738
  889MOL0     C17255  -2.121   7.930  10.987  0.1034  0.3190 -0.1819
  889MOL0     C17256  -2.211   8.044  11.000 -1.1918  1.0412 -0.0733
  889MOL0     C17257  -2.353   8.001  11.002 -0.1295  0.4608  0.0340
  889MOL0     C17258  -2.448   8.118  11.002  0.5734  0.0201  0.8962
  889MOL0     C17259  -2.587   8.082  11.032  0.6216  0.3465 -0.1677
  889MOL0    Cl17260  -2.626   8.044  11.206  0.4805 -0.1560 -0.1159
  889MOL0     C17261  -1.446   7.901  10.894  0.2207  0.2848  0.3552
  889MOL0     C17262  -1.313   7.895  10.868  0.1007  0.6145 -0.7487
  889MOL0     O17263  -1.019   7.938  10.905  0.9420  0.3413  1.0135
  889MOL0     C17264  -0.850   7.633  10.814  0.4998 -0.8722  0.3625
  889MOL0     C17265  -0.724   7.583  10.803  0.5994  0.0682  1.1810
  889MOL0     N17266  -0.263   7.026  10.623 -0.0468  0.0262 -0.1898
  889MOL0     N17267  -0.226   6.923  10.564  0.7503  0.2244 -0.8939
  889MOL0     C17268   0.749   6.391  10.284  0.2923 -0.7552 -0.4042
  889MOL0     C17269   0.886   6.370  10.271 -0.3526  0.3485  0.3581
  889MOL0     C17270   1.330   6.269  10.354 -0.2314  0.0609  0.1653
  889MOL0     C17271   1.435   6.304  10.272  0.0943 -0.3497 -0.1417
  889MOL0     C17272   1.564   6.284  10.318 -0.3783 -0.2301 -0.1232
  889MOL0     C17273   1.589   6.239  10.443 -0.0352 -0.4058 -0.8882
  889MOL0     O17274   1.727   6.217  10.468  0.2278 -0.9110 -0.0903
  889MOL0     C17275   1.763   6.146  10.587 -0.1442  0.6980 -0.6052
  889MOL0     C17276   1.920   6.137  10.594  0.0937  0.3969  0.3088
  889MOL0     C17277   1.976   6.057  10.469  0.3451 -0.4989 -0.3071
  889MOL0     C17278   2.126   6.052  10.472 -0.2644 -0.2734  1.0151
  889MOL0     C17279   2.172   5.963  10.362  0.1133  0.3826 -0.2789
  889MOL0     C17280   2.219   5.900  10.271 -0.2851  0.6677  0.5339
  889MOL0     C17281   1.479   6.222  10.536  0.2462 -0.5130  0.1263
  889MOL0     C17282   1.351   6.228  10.483 -0.0658 -0.4092 -0.6203
  889MOL0     H17283   0.961   6.307  10.603 -1.0230 -1.6526  0.4620
  889MOL0     H17284   0.736   6.370  10.629  2.3657  3.8165  0.3704
  889MOL0     H17285   0.452   6.411  10.262 -3.0956  0.4721  0.1553
  889MOL0     H17286   0.514   6.573  10.301 -0.5675  0.6414 -0.3437
  889MOL0     H17287   0.328   6.599  10.464  2.7282 -0.2440 -0.4702
  889MOL0     H17288   0.291   6.430  10.462 -0.7985 -0.6791 -1.2642
  889MOL0     H17289   0.237   6.452  10.202 -0.7332  1.3116 -1.4562
  889MOL0     H17290   0.293   6.618  10.234  1.8825  0.4889  3.4107
  889MOL0     H17291   0.058   6.476  10.365 -1.0986  0.5170 -0.3168
  889MOL0     H17292   0.103   6.647  10.397 -0.0096 -0.2797 -0.2479
  889MOL0     H17293   0.031   6.533  10.128  0.6057  0.3463  0.4032
  889MOL0     H17294   0.077   6.694  10.157  0.6804  0.5149  1.5098
  889MOL0     H17295  -0.184   6.562  10.208 -1.7918  1.0082 -0.3197
  889MOL0     H17296  -0.151   6.725  10.138 -0.3931 -1.8883 -1.0249
  889MOL0     H17297  -0.265   6.756  10.356  0.3123  1.3203 -0.8070
  889MOL0     H17298  -0.137   6.671  10.438 -0.4588 -1.9665 -1.1898
  889MOL0     H17299  -0.089   6.909  10.251 -1.2619  0.0843  0.0728
  889MOL0     H17300   0.031   6.846  10.358  0.0674 -0.5981 -1.0039
  889MOL0     H17301  -0.088   7.166  10.390  0.1202 -1.5738 -1.4969
  889MOL0     H17302  -0.375   7.289  10.541 -0.8927 -1.2577  2.6911
  889MOL0     H17303  -0.210   7.352  10.522 -0.1855  0.2478  1.9889
  889MOL0     H17304  -0.177   7.284  10.766  0.9028  2.6550  1.3132
  889MOL0     H17305  -0.354   7.261  10.771 -0.2520  0.3990 -1.1348
  889MOL0     H17306  -0.280   7.489  10.850  0.7037  0.7759 -0.4886
  889MOL0     H17307  -0.234   7.539  10.692  1.5858  0.0494  2.2555
  889MOL0     H17308  -0.510   7.422  10.774  0.1240  1.8871  2.4500
  889MOL0     H17309  -0.480   7.498  10.617  0.8237  3.2373 -1.1300
  889MOL0     H17310  -0.551   7.869  10.792 -0.8059  1.1708  0.4141
  889MOL0     H17311  -0.784   7.964  10.823 -0.0037  1.3327 -2.4189
  889MOL0     H17312  -1.302   7.556  10.876  1.3546  0.0702  0.4451
  889MOL0     H17313  -1.524   7.576  10.951 -0.4877  1.1555 -0.0536
  889MOL0     H17314  -1.718   7.965  10.862  0.9551 -1.3276  0.1854
  889MOL0     H17315  -1.701   7.966  11.042 -0.7421 -0.7538  0.5599
  889MOL0     H17316  -1.889   7.820  11.074  1.2216 -0.3029 -0.8976
  889MOL0     H17317  -1.906   7.797  10.903  3.0447 -0.8350  0.7301
  889MOL0     H17318  -1.941   8.040  10.886  2.4911  2.1181  1.9375
  889MOL0     H17319  -1.966   8.056  11.064  0.6884  2.5884 -1.5400
  889MOL0     H17320  -2.150   7.869  10.902 -2.8352  2.6645 -1.0317
  889MOL0     H17321  -2.132   7.875  11.081  3.0380  3.6831  2.4567
  889MOL0     H17322  -2.191   8.121  10.925  1.9114  0.6638  0.2048
  889MOL0     H17323  -2.195   8.088  11.099 -1.5297  1.6786 -0.2973
  889MOL0     H17324  -2.380   7.935  11.086 -2.3693  2.2357  0.8304
  889MOL0     H17325  -2.364   7.935  10.916  1.2275  0.3030 -0.0320
  889MOL0     H17326  -2.416   8.190  11.078 -3.4151  1.9891  0.9834
  889MOL0     H17327  -2.462   8.164  10.903 -1.7426 -1.4930  0.4569
  889MOL0     H17328  -2.623   8.002  10.967  2.7780 -0.0431 -0.9506
  889MOL0     H17329  -2.643   8.174  11.011 -2.0379 -1.4881 -1.7710
  889MOL0     H17330  -1.494   7.999  10.899  0.6644  0.4587  1.6864
  889MOL0     H17331  -1.262   7.986  10.840  1.6240 -0.3232 -1.1157
  889MOL0     H17332  -0.937   7.569  10.815 -1.2493  1.3736  1.7702
  889MOL0     H17333  -0.711   7.476  10.800  1.9389  0.2414  0.1158
  889MOL0     H17334   0.687   6.401  10.195 -2.1425  2.1297  1.3911
  889MOL0     H17335   0.929   6.384  10.173 -0.1548  1.7956  0.6291
  889MOL0     H17336   1.425   6.336  10.168 -0.0659 -0.3782 -0.1344
  889MOL0     H17337   1.649   6.302  10.253 -0.1956  0.4357  0.2836
  889MOL0     H17338   1.727   6.042  10.582  0.6976  0.4237 -1.1561
  889MOL0     H17339   1.715   6.201  10.668 -1.8122  2.1309 -2.4668
  889MOL0     H17340   1.959   6.238  10.584  2.0606 -0.0782  2.1951
  889MOL0     H17341   1.947   6.092  10.691 -2.6367  0.8801  1.3627
  889MOL0     H17342   1.957   6.100  10.370  5.1076  3.6801  0.2147
  889MOL0     H17343   1.933   5.956  10.474 -0.3382 -0.1590  2.5044
  889MOL0     H17344   2.166   6.153  10.460  3.4438 -1.7748 -1.2311
  889MOL0     H17345   2.161   6.009  10.566  0.5457  0.7990  1.2181
  889MOL0     H17346   2.271   5.858  10.187 -0.7565  0.5107  0.3195
  889MOL0     H17347   1.504   6.226  10.642 -1.8160  2.9001  0.6360
  889MOL0     H17348   1.265   6.209  10.546  1.2538 -2.4844  0.7021
  890MOL0     O17349   9.352   2.740   6.590  0.4884 -0.0613  0.1929
  890MOL0     C17350   9.332   2.626   6.627  0.9721  0.4159 -0.9361
  890MOL0     O17351   9.420   2.525   6.632 -0.2035  0.3516  0.5609
  890MOL0     C17352   9.538   2.550   6.570 -0.4388 -0.1047  0.1985
  890MOL0     C17353   9.631   2.619   6.655 -0.2603 -0.5633 -0.0079
  890MOL0     C17354   9.752   2.667   6.605  0.3313  0.3167 -0.3403
  890MOL0     C17355   9.791   2.636   6.473  0.3510  1.1383  0.2967
  890MOL0     O17356   9.905   2.695   6.431 -0.9489  0.1576 -0.4190
  890MOL0     C17357   9.927   2.690   6.286 -0.0260  0.2769 -1.1447
  890MOL0     C17358  10.022   2.569   6.257  0.4995 -0.4107  0.0818
  890MOL0     C17359  10.170   2.604   6.311 -0.8581  0.3708 -0.4801
  890MOL0     C17360  10.258   2.665   6.199 -0.7655 -0.5430 -0.7434
  890MOL0     C17361  10.416   2.668   6.206 -0.9361 -1.0305  0.3445
  890MOL0     C17362  10.471   2.813   6.220 -1.5855 -0.6443 -0.4741
  890MOL0     C17363  10.621   2.813   6.242 -0.7904 -0.2822 -0.5293
  890MOL0     C17364  10.707   2.944   6.222 -0.4934 -0.6309  0.2987
  890MOL0     N17365  10.664   3.050   6.312  0.7183  0.5987  0.0290
  890MOL0     C17366  10.580   3.147   6.278  1.0414 -0.7065  0.0248
  890MOL0     C17367  10.540   3.214   6.387  0.9295  0.0092 -0.3564
  890MOL0     C17368  10.464   3.341   6.387  0.1626  0.1953 -0.6476
  890MOL0     C17369  10.390   3.375   6.522 -0.0411  0.7248 -0.0648
  890MOL0     C17370  10.254   3.300   6.528  0.4904  0.0278 -0.2955
  890MOL0     C17371  10.266   3.158   6.565  0.1323  0.1579 -0.5979
  890MOL0     O17372  10.138   3.090   6.537 -0.5192  0.2717 -0.2481
  890MOL0     C17373  10.031   3.115   6.615 -0.3371 -0.5817  0.4533
  890MOL0     C17374   9.914   3.049   6.573  0.0963 -0.1885 -0.3569
  890MOL0     C17375   9.796   3.069   6.649 -0.4797  0.7310  0.4492
  890MOL0     C17376   9.791   3.143   6.758 -0.4707  0.2089 -0.1831
  890MOL0     C17377   9.670   3.124   6.849  0.4389  0.6111 -0.1125
  890MOL0     O17378   9.557   3.076   6.791 -0.0017  0.2095 -0.1724
  890MOL0     C17379   9.435   3.081   6.849  0.2658  0.2398  0.9085
  890MOL0     C17380   9.393   3.127   6.978  0.3470 -0.7971 -0.3327
  890MOL0     C17381   9.264   3.121   7.023  0.2012 -0.4704  0.4651
  890MOL0     C17382   9.164   3.068   6.943 -0.1454 -0.1159  1.2488
  890MOL0     O17383   9.040   3.067   6.988  0.1699 -0.7797 -0.1413
  890MOL0     C17384   8.942   2.974   6.926 -0.3824 -0.3622 -0.0561
  890MOL0     C17385   8.839   2.947   7.034  0.5195 -0.0242  0.4834
  890MOL0     C17386   8.708   2.892   6.967  0.1347 -0.6654 -0.7093
  890MOL0     C17387   8.619   2.831   7.083  0.2614 -0.6787 -0.7513
  890MOL0     C17388   8.484   2.795   7.021  0.3364 -0.4731  0.6352
  890MOL0     C17389   8.382   2.729   7.118 -0.8482  0.6380 -0.4156
  890MOL0     C17390   8.238   2.714   7.052 -1.0024 -0.0078  0.0877
  890MOL0     C17391   8.251   2.608   6.938 -0.3563  0.6469  1.2144
  890MOL0    Cl17392   8.112   2.528   6.907 -0.1683  0.2034 -0.0618
  890MOL0     C17393   9.200   3.024   6.810  0.0427 -0.3592  0.0527
  890MOL0     C17394   9.334   3.034   6.768  0.4729 -0.1053 -0.3311
  890MOL0     O17395   9.684   3.173   6.957  0.4815 -0.0212  0.4664
  890MOL0     C17396   9.903   3.214   6.803 -0.0530  0.2290  0.1026
  890MOL0     C17397  10.021   3.202   6.729 -0.0389  0.1452  0.5754
  890MOL0     N17398  10.596   3.153   6.499  0.1852  0.5386 -0.1663
  890MOL0     N17399  10.675   3.060   6.446  1.1292  0.0065  0.0338
  890MOL0     C17400   9.707   2.550   6.395  0.3171 -0.2345  0.2458
  890MOL0     C17401   9.578   2.514   6.443 -0.5747 -0.6872  1.0174
  890MOL0     C17402   9.191   2.613   6.679 -0.3613  0.1296  1.1985
  890MOL0     C17403   9.079   2.678   6.621 -1.0468 -0.2187 -0.3525
  890MOL0     C17404   8.955   2.681   6.669  0.3709  0.1212 -1.1024
  890MOL0     C17405   8.928   2.604   6.782 -0.6932  0.3711 -0.1318
  890MOL0     O17406   8.808   2.591   6.836 -0.1548  0.8356 -0.1862
  890MOL0     C17407   8.705   2.497   6.785 -0.7396 -0.3054 -0.4979
  890MOL0     C17408   8.742   2.350   6.814 -0.1551  0.0174  0.9362
  890MOL0     C17409   8.617   2.269   6.823  0.3255  0.8715  0.0580
  890MOL0     C17410   8.635   2.121   6.844  0.7643 -0.0738 -1.1586
  890MOL0     C17411   8.683   2.053   6.731 -0.1816  0.9960 -0.1305
  890MOL0     C17412   8.727   2.003   6.632  0.9108  0.6949  0.2171
  890MOL0     C17413   9.036   2.546   6.855  0.9317 -0.4955  0.1489
  890MOL0     C17414   9.168   2.559   6.805  0.4229  0.2236 -0.4783
  890MOL0     H17415   9.612   2.656   6.755  2.3113 -1.9410  1.0732
  890MOL0     H17416   9.826   2.730   6.651 -1.8672  2.5838  0.3419
  890MOL0     H17417   9.970   2.788   6.260  0.8413  0.3672  0.4449
  890MOL0     H17418   9.834   2.690   6.228 -0.0416  1.7922 -1.1630
  890MOL0     H17419  10.025   2.539   6.152 -2.1006 -1.0292  0.1129
  890MOL0     H17420   9.983   2.490   6.322 -0.6770 -0.4531 -0.6442
  890MOL0     H17421  10.216   2.514   6.354 -0.4611  1.2419  0.9565
  890MOL0     H17422  10.163   2.673   6.395 -0.8140 -0.1983 -0.0011
  890MOL0     H17423  10.231   2.595   6.120 -1.4529  0.5608 -1.5225
  890MOL0     H17424  10.212   2.759   6.166 -1.0580 -1.2644 -2.4858
  890MOL0     H17425  10.466   2.620   6.122  1.7419 -0.9199  1.7546
  890MOL0     H17426  10.452   2.627   6.301  1.0994  1.9515  0.9780
  890MOL0     H17427  10.428   2.867   6.305  0.1959  0.4257 -0.1975
  890MOL0     H17428  10.449   2.861   6.124 -1.6801 -1.0377 -0.6523
  890MOL0     H17429  10.649   2.772   6.340 -0.2779  1.0517 -0.0956
  890MOL0     H17430  10.651   2.747   6.160  3.2108  1.7942 -0.9692
  890MOL0     H17431  10.706   2.987   6.122 -0.6464  1.1175  1.0211
  890MOL0     H17432  10.811   2.920   6.246  0.7967  2.6101 -1.4785
  890MOL0     H17433  10.554   3.184   6.180  3.7446  2.5424  0.3738
  890MOL0     H17434  10.380   3.346   6.317 -1.2014  1.1575  0.9805
  890MOL0     H17435  10.528   3.427   6.367 -0.0054  0.5598  0.3348
  890MOL0     H17436  10.371   3.482   6.529 -2.0080  0.4037  0.1920
  890MOL0     H17437  10.454   3.346   6.606  0.5671 -2.4809 -1.4813
  890MOL0     H17438  10.197   3.347   6.609  3.4022  1.3487  1.1749
  890MOL0     H17439  10.199   3.309   6.434 -0.5008 -0.5076  0.2208
  890MOL0     H17440  10.297   3.137   6.667 -4.1965  0.3272  0.9564
  890MOL0     H17441  10.341   3.111   6.500  3.5468  2.4261  1.3830
  890MOL0     H17442   9.927   2.981   6.489  0.6646  0.4537 -0.7984
  890MOL0     H17443   9.709   3.012   6.618  1.0440 -1.1401 -0.5494
  890MOL0     H17444   9.455   3.165   7.059 -0.9741 -2.6042  1.6498
  890MOL0     H17445   9.241   3.156   7.123 -0.3024  1.0344 -0.1460
  890MOL0     H17446   8.982   2.875   6.904 -1.1438 -0.6522 -0.1493
  890MOL0     H17447   8.902   3.016   6.834 -0.3943 -1.3050 -0.4908
  890MOL0     H17448   8.812   3.031   7.099  0.3100  0.6293 -0.4317
  890MOL0     H17449   8.877   2.870   7.102  1.9451 -1.0642 -1.3940
  890MOL0     H17450   8.729   2.807   6.901  1.1685 -1.3526  0.4624
  890MOL0     H17451   8.660   2.956   6.893  2.4988  2.1965  0.0464
  890MOL0     H17452   8.658   2.739   7.128 -1.0478 -0.7311  0.3096
  890MOL0     H17453   8.593   2.904   7.159  0.1536  0.2143 -1.6262
  890MOL0     H17454   8.496   2.745   6.924  1.6574  1.4426 -0.2397
  890MOL0     H17455   8.452   2.896   6.995  1.2362 -0.0737  1.0555
  890MOL0     H17456   8.374   2.788   7.210 -0.9336  0.7526 -0.4959
  890MOL0     H17457   8.415   2.630   7.148  1.0512  1.4529  0.3051
  890MOL0     H17458   8.161   2.681   7.123 -0.8562 -1.4774 -0.3929
  890MOL0     H17459   8.204   2.809   7.010 -1.6600 -1.5943 -3.2641
  890MOL0     H17460   8.327   2.536   6.970  1.3652  0.1478 -3.2219
  890MOL0     H17461   8.283   2.658   6.846 -1.7991 -3.3721 -1.7705
  890MOL0     H17462   9.118   2.985   6.750 -2.1469  3.2608  0.4215
  890MOL0     H17463   9.371   3.009   6.669  2.2730  3.1809 -0.6276
  890MOL0     H17464   9.890   3.286   6.883 -0.6190  1.5766 -1.1687
  890MOL0     H17465  10.105   3.264   6.758  0.5765 -0.0889 -0.6055
  890MOL0     H17466   9.735   2.529   6.293  1.2099  0.8311  0.2421
  890MOL0     H17467   9.517   2.449   6.380  1.6662 -0.0349 -2.1029
  890MOL0     H17468   9.094   2.735   6.529  2.5003  0.4805  0.4991
  890MOL0     H17469   8.868   2.729   6.627 -0.1914 -0.3409 -0.4969
  890MOL0     H17470   8.700   2.511   6.677  1.1065  2.5816 -0.3088
  890MOL0     H17471   8.609   2.517   6.833 -0.0937 -0.8312  1.0830
  890MOL0     H17472   8.818   2.321   6.741  0.4096 -0.2504  1.6212
  890MOL0     H17473   8.790   2.342   6.912  1.0546 -1.2465  0.2766
  890MOL0     H17474   8.555   2.271   6.733 -1.2062 -1.3613  0.9865
  890MOL0     H17475   8.564   2.313   6.907  2.2846  2.9992  0.2987
  890MOL0     H17476   8.701   2.108   6.930  2.1313  1.6424 -1.8850
  890MOL0     H17477   8.539   2.075   6.869  1.2265  0.4207  1.9340
  890MOL0     H17478   8.778   1.962   6.547  0.9054 -0.4442  0.7393
  890MOL0     H17479   9.008   2.489   6.943  0.8884 -0.1633  0.3487
  890MOL0     H17480   9.238   2.526   6.881 -1.8011  1.8135  2.4635
  891MOL0     O17481   4.784  10.081  10.816 -0.5834 -0.0489 -0.9243
  891MOL0     C17482   4.836  10.174  10.759 -0.3085 -0.0839 -0.2874
  891MOL0     O17483   4.777  10.282  10.715  0.2471  0.1252 -0.1902
  891MOL0     C17484   4.640  10.293  10.735  0.2390  0.8167 -0.5283
  891MOL0     C17485   4.587  10.371  10.836 -1.1001 -0.2202 -0.8063
  891MOL0     C17486   4.453  10.374  10.855  0.0422 -0.2633  0.0726
  891MOL0     C17487   4.353  10.308  10.781 -0.3947  0.2909  0.7264
  891MOL0     O17488   4.219  10.321  10.811  0.1819  0.4891  0.4711
  891MOL0     C17489   4.125  10.251  10.722  1.0591 -0.0331 -0.2660
  891MOL0     C17490   3.986  10.290  10.771  0.1715  0.2535 -0.1752
  891MOL0     C17491   3.884  10.236  10.680 -0.3158  0.6198 -0.4800
  891MOL0     C17492   3.736  10.260  10.712  0.1605 -0.1136 -0.2350
  891MOL0     C17493   3.622  10.223  10.615  0.2268 -0.2255  0.4362
  891MOL0     C17494   3.473  10.250  10.659  0.3615 -0.6615 -0.6865
  891MOL0     C17495   3.428  10.394  10.629 -1.1037 -0.2536 -0.4432
  891MOL0     C17496   3.310  10.435  10.705 -0.0210  0.1137 -0.4426
  891MOL0     N17497   3.191  10.348  10.676 -0.4810 -0.5803  0.3350
  891MOL0     C17498   3.123  10.366  10.558  0.2842  0.4358 -0.1372
  891MOL0     C17499   3.034  10.262  10.552 -0.2728 -0.5571  0.0054
  891MOL0     C17500   2.929  10.238  10.447 -0.5087  0.8807  0.1950
  891MOL0     C17501   2.785  10.239  10.501 -0.2406 -0.5959  0.0695
  891MOL0     C17502   2.676  10.239  10.383 -0.0934 -0.3720  0.5057
  891MOL0     C17503   2.671  10.096  10.333 -0.6625 -1.1731  0.0719
  891MOL0     O17504   2.547  10.077  10.265  0.6564  0.5168 -0.6473
  891MOL0     C17505   2.437  10.039  10.341 -0.3984 -0.0223 -0.7652
  891MOL0     C17506   2.312  10.069  10.281 -0.1296  0.8366  0.4697
  891MOL0     C17507   2.193  10.030  10.342  0.4955  0.2881 -1.5594
  891MOL0     C17508   2.191   9.965  10.467  0.2446  1.4238  0.0062
  891MOL0     C17509   2.062   9.943  10.541 -0.2405  1.0735  1.2860
  891MOL0     O17510   2.056   9.865  10.653  0.1949  0.0567  0.4439
  891MOL0     C17511   1.942   9.857  10.723 -0.8355  0.3468 -0.7040
  891MOL0     C17512   1.829   9.798  10.683 -1.2191 -0.6381  0.5978
  891MOL0     C17513   1.724   9.774  10.772 -0.3645  0.4873 -0.1819
  891MOL0     C17514   1.735   9.817  10.908  0.3677 -0.3807 -0.0388
  891MOL0     O17515   1.637   9.783  10.999 -0.7722  0.2012 -0.5728
  891MOL0     C17516   1.502   9.744  10.963  0.5341 -0.3062  0.2766
  891MOL0     C17517   1.411   9.744  11.083  0.4094 -0.7602  0.2154
  891MOL0     C17518   1.270   9.751  11.041  0.5591  1.0197  0.5032
  891MOL0     C17519   1.161   9.770  11.156 -0.8421  0.1892 -0.1445
  891MOL0     C17520   1.033   9.785  11.077  1.0712  0.1894 -0.4267
  891MOL0     C17521   0.913   9.807  11.163  0.3424  0.0145  0.4452
  891MOL0     C17522   0.776   9.813  11.092  0.1894  0.7480  0.7983
  891MOL0     C17523   0.662   9.853  11.185  0.3887  0.6362  0.4629
  891MOL0    Cl17524   0.631   9.754  11.330  0.4153 -0.1253 -0.3128
  891MOL0     C17525   1.843   9.886  10.944  0.0810  0.2871  0.5890
  891MOL0     C17526   1.947   9.914  10.856  0.2788  0.3629  0.3304
  891MOL0     O17527   1.965   9.996  10.484 -0.8987 -1.0472 -0.7464
  891MOL0     C17528   2.316   9.931  10.534 -0.6240 -0.0994 -0.4233
  891MOL0     C17529   2.440   9.961  10.465 -0.3015 -0.3188  0.8091
  891MOL0     N17530   3.048  10.201  10.674 -0.2334 -0.2965  0.5940
  891MOL0     N17531   3.137  10.253  10.746  0.4701  0.4724  0.7144
  891MOL0     C17532   4.408  10.245  10.665  0.4546  0.6526  0.5456
  891MOL0     C17533   4.549  10.243  10.643 -0.5429 -0.2683 -0.2164
  891MOL0     C17534   4.978  10.152  10.707 -0.1508  0.5789  0.2351
  891MOL0     C17535   5.033  10.026  10.740  0.1383 -0.4958  0.3113
  891MOL0     C17536   5.167   9.997  10.718  0.2213  0.3504 -0.6947
  891MOL0     C17537   5.252  10.100  10.665 -0.0861 -0.6421 -0.2209
  891MOL0     O17538   5.380  10.064  10.620 -0.0514 -0.1014  0.4750
  891MOL0     C17539   5.477  10.071  10.723  0.1859  0.4696 -0.5533
  891MOL0     C17540   5.618  10.043  10.676 -0.1351  0.4462  0.0242
  891MOL0     C17541   5.733  10.063  10.773 -1.1888 -0.2616 -0.3243
  891MOL0     C17542   5.869  10.028  10.720  0.2515 -0.2043  0.9965
  891MOL0     C17543   5.980  10.072  10.806 -0.0260  0.3781  1.0504
  891MOL0     C17544   6.072  10.099  10.878  0.5867 -0.2351  0.0392
  891MOL0     C17545   5.194  10.226  10.636 -0.3441  0.2077  0.0958
  891MOL0     C17546   5.062  10.255  10.659  0.4573 -0.3579 -0.3015
  891MOL0     H17547   4.650  10.433  10.898 -3.2820  1.3875 -0.0489
  891MOL0     H17548   4.407  10.439  10.929  0.1662  0.2193 -0.2668
  891MOL0     H17549   4.146  10.145  10.735  2.5610  0.2587 -0.0549
  891MOL0     H17550   4.119  10.282  10.618 -0.0015  0.1580 -0.1588
  891MOL0     H17551   3.974  10.399  10.779 -3.0221  0.2058 -2.1328
  891MOL0     H17552   3.967  10.245  10.868  1.0216  0.7588  0.2361
  891MOL0     H17553   3.892  10.127  10.672  0.4697  0.6646 -0.4590
  891MOL0     H17554   3.910  10.281  10.584  1.5758  3.4670  1.2166
  891MOL0     H17555   3.717  10.214  10.810 -3.2474 -0.9635 -1.1957
  891MOL0     H17556   3.736  10.370  10.712  2.5717 -0.0435  0.5588
  891MOL0     H17557   3.637  10.116  10.600 -1.0784 -0.7805  2.7149
  891MOL0     H17558   3.636  10.273  10.519 -1.4932  1.5305  1.0393
  891MOL0     H17559   3.467  10.221  10.764 -1.8749 -2.1112 -1.1497
  891MOL0     H17560   3.405  10.186  10.602 -2.2457  2.3455 -1.2723
  891MOL0     H17561   3.512  10.459  10.658 -1.1255 -0.0158 -0.9165
  891MOL0     H17562   3.406  10.413  10.524  2.1004  0.9705 -1.0110
  891MOL0     H17563   3.289  10.541  10.690  1.7822  0.5226 -0.2636
  891MOL0     H17564   3.324  10.409  10.811  0.9093 -2.5091 -1.1167
  891MOL0     H17565   3.124  10.444  10.482 -3.3586  0.0623 -0.7149
  891MOL0     H17566   2.949  10.142  10.398  1.2415  0.7233  1.1230
  891MOL0     H17567   2.939  10.318  10.373  1.9714  0.6771  0.2343
  891MOL0     H17568   2.772  10.331  10.559  3.5167  1.0411 -1.3800
  891MOL0     H17569   2.765  10.163  10.577  0.8233  3.5900  5.1738
  891MOL0     H17570   2.578  10.266  10.424 -0.0643 -0.1197  0.4098
  891MOL0     H17571   2.700  10.305  10.299  1.2699  1.9357  2.5720
  891MOL0     H17572   2.683  10.028  10.418  0.2475 -1.7147 -0.4699
  891MOL0     H17573   2.754  10.084  10.263 -2.1779 -0.3116 -1.9575
  891MOL0     H17574   2.314  10.126  10.188 -0.7108 -1.3783 -0.9717
  891MOL0     H17575   2.098  10.054  10.296 -0.4886 -0.2401  0.1302
  891MOL0     H17576   1.835   9.769  10.579 -3.2765 -0.1763  0.3121
  891MOL0     H17577   1.636   9.721  10.735  0.0755  1.4749 -2.8700
  891MOL0     H17578   1.495   9.639  10.930 -3.6263 -0.0381 -0.2666
  891MOL0     H17579   1.466   9.808  10.882  1.3502  0.8476  0.8075
  891MOL0     H17580   1.444   9.825  11.149 -2.4551  1.6749 -1.0884
  891MOL0     H17581   1.427   9.651  11.138 -0.6300 -1.8933 -1.3232
  891MOL0     H17582   1.235   9.657  10.998  1.5053  1.3414 -1.0508
  891MOL0     H17583   1.261   9.822  10.957  0.2730  0.4734  0.0697
  891MOL0     H17584   1.160   9.686  11.226 -0.6854 -0.2244 -0.6270
  891MOL0     H17585   1.184   9.855  11.220 -0.6054  0.0166  0.0018
  891MOL0     H17586   1.020   9.695  11.015  1.2575  1.1370 -1.8850
  891MOL0     H17587   1.043   9.878  11.021 -1.3687  1.7406  1.4945
  891MOL0     H17588   0.940   9.899  11.216  1.2464 -0.7415  1.3215
  891MOL0     H17589   0.912   9.729  11.239  2.7599 -1.1391 -0.6134
  891MOL0     H17590   0.784   9.889  11.014  3.7502  0.2650  0.5129
  891MOL0     H17591   0.762   9.714  11.046  0.0956 -0.6042  3.5220
  891MOL0     H17592   0.575   9.858  11.119  0.6176 -2.4812 -0.2479
  891MOL0     H17593   0.669   9.957  11.217 -2.4838  0.8682  0.5923
  891MOL0     H17594   1.851   9.924  11.045  1.0396 -1.7301  1.3246
  891MOL0     H17595   2.028   9.977  10.892  0.9345 -0.7552  0.8544
  891MOL0     H17596   2.322   9.881  10.630  1.4112  0.3555 -0.2774
  891MOL0     H17597   2.537   9.924  10.496  1.1743  2.0846 -0.6636
  891MOL0     H17598   4.342  10.184  10.604  1.4325 -1.0755  1.1332
  891MOL0     H17599   4.587  10.196  10.553  1.3068 -0.6321  0.7101
  891MOL0     H17600   4.975   9.950  10.791 -0.0809  1.1663  2.6625
  891MOL0     H17601   5.207   9.900  10.745 -0.8921  0.4078  1.4313
  891MOL0     H17602   5.448   9.996  10.798  1.7495  0.7498  0.3667
  891MOL0     H17603   5.480  10.168  10.773  1.1138 -0.0594  0.4539
  891MOL0     H17604   5.620   9.936  10.653  2.6805  0.4228  0.0980
  891MOL0     H17605   5.647  10.103  10.589 -0.1433 -0.2015 -0.4309
  891MOL0     H17606   5.714   9.997  10.857  0.0714  1.2433  1.2196
  891MOL0     H17607   5.726  10.164  10.815 -0.1469  0.2405 -1.3100
  891MOL0     H17608   5.882   9.921  10.698  1.8974 -0.4881  2.9735
  891MOL0     H17609   5.881  10.081  10.625 -0.4077 -0.3039  0.8589
  891MOL0     H17610   6.163  10.119  10.931 -0.4795 -0.3935  2.0156
  891MOL0     H17611   5.268  10.301  10.609 -0.6524  0.2486 -0.6644
  891MOL0     H17612   5.033  10.359  10.651 -1.6837 -0.8096  0.8559
  892MOL0     O17613   9.890   9.037   0.801 -0.4327  0.3114  0.1512
  892MOL0     C17614   9.953   9.133   0.763  0.1734 -0.2561  0.0534
  892MOL0     O17615  10.100   9.153   0.772  0.1482 -0.4560 -0.2644
  892MOL0     C17616  10.184   9.056   0.814 -0.0961  0.5586  0.4300
  892MOL0     C17617  10.305   9.038   0.755 -0.8214 -0.8226  0.6505
  892MOL0     C17618  10.410   8.956   0.808 -0.3982 -0.2316 -0.2839
  892MOL0     C17619  10.387   8.881   0.921  0.8525 -0.5425 -0.4476
  892MOL0     O17620  10.486   8.808   0.975  0.2538 -0.0834  0.1394
  892MOL0     C17621  10.471   8.766   1.114  0.0870  0.1318  0.6648
  892MOL0     C17622  10.609   8.712   1.167 -0.8730 -0.3397  0.7308
  892MOL0     C17623  10.732   8.799   1.130  0.1406  0.2734 -0.8579
  892MOL0     C17624  10.859   8.753   1.209  0.0578  0.0534 -0.0796
  892MOL0     C17625  10.985   8.834   1.166  0.6077 -0.4552 -0.9983
  892MOL0     C17626  11.124   8.767   1.209  0.4704  0.4094  0.0532
  892MOL0     C17627  11.244   8.837   1.150  0.0983 -0.2078 -0.4206
  892MOL0     C17628  11.371   8.776   1.193  0.1158 -0.0369  0.5077
  892MOL0     N17629  11.494   8.824   1.135  0.1915 -0.5673  0.4448
  892MOL0     C17630  11.623   8.777   1.163 -0.7327  0.3883 -0.4755
  892MOL0     C17631  11.711   8.862   1.105  0.5928 -0.1987 -0.0411
  892MOL0     C17632  11.859   8.854   1.101 -0.5030  0.3829  0.5823
  892MOL0     C17633  11.929   8.806   0.974  0.4960 -0.4452  0.3584
  892MOL0     C17634  12.072   8.756   1.020 -0.3667 -0.4993  0.1758
  892MOL0     C17635  12.158   8.735   0.898 -0.2566  0.3017 -0.6137
  892MOL0     O17636  12.293   8.692   0.944 -0.5214 -0.2097 -0.2936
  892MOL0     C17637  12.394   8.765   0.903 -0.1531 -0.1550  1.7118
  892MOL0     C17638  12.488   8.715   0.813 -0.3333  0.0343  0.1124
  892MOL0     C17639  12.606   8.786   0.781  0.4912  0.4441  0.5215
  892MOL0     C17640  12.616   8.917   0.826 -0.2984  0.0988 -0.1644
  892MOL0     C17641  12.741   8.997   0.792  0.6753 -0.3582  0.4668
  892MOL0     O17642  12.820   8.950   0.693  0.1218  0.2824  0.6969
  892MOL0     C17643  12.928   9.022   0.653  0.3418  0.0714 -0.0157
  892MOL0     C17644  12.936   9.069   0.523  0.0455 -0.4916  0.4481
  892MOL0     C17645  13.051   9.146   0.479  0.2214 -0.3021  0.0674
  892MOL0     C17646  13.159   9.173   0.560 -0.5047  0.0830 -0.5587
  892MOL0     O17647  13.275   9.249   0.534 -0.2514  0.3526  0.0288
  892MOL0     C17648  13.299   9.309   0.408 -0.1401  0.0482 -0.5855
  892MOL0     C17649  13.443   9.365   0.409  0.5006 -0.3471 -0.2168
  892MOL0     C17650  13.551   9.256   0.429 -1.0083 -0.2680  0.5698
  892MOL0     C17651  13.685   9.329   0.400 -0.5714  0.0902 -0.1707
  892MOL0     C17652  13.798   9.224   0.377 -0.1906 -0.9657 -0.1893
  892MOL0     C17653  13.937   9.292   0.392 -0.6485  0.6766 -0.0629
  892MOL0     C17654  14.043   9.184   0.356  0.3380  0.0067 -0.4556
  892MOL0     C17655  14.186   9.235   0.321  0.7868 -0.5674 -0.1561
  892MOL0    Cl17656  14.257   9.326   0.451 -0.4018 -0.2275  0.2510
  892MOL0     C17657  13.146   9.122   0.693  0.7516  0.7145  0.1137
  892MOL0     C17658  13.037   9.050   0.741  0.7968  0.7898  0.6849
  892MOL0     O17659  12.755   9.106   0.845 -0.2935  0.1683  0.5550
  892MOL0     C17660  12.510   8.980   0.894 -0.4035  0.4029 -0.3176
  892MOL0     C17661  12.408   8.899   0.946  0.3756  0.3509 -0.2608
  892MOL0     N17662  11.634   8.961   1.043 -0.4568  0.6581 -0.1646
  892MOL0     N17663  11.508   8.938   1.059 -0.2097 -0.5446 -0.0754
  892MOL0     C17664  10.253   8.885   0.974 -1.1943 -0.0776  0.0904
  892MOL0     C17665  10.155   8.972   0.926  0.2932 -0.2545  0.3931
  892MOL0     C17666   9.881   9.254   0.730  0.2329 -0.3560  0.5304
  892MOL0     C17667   9.952   9.377   0.714  0.2549 -1.1364  0.5569
  892MOL0     C17668   9.883   9.492   0.676 -1.6243 -0.7241  1.0310
  892MOL0     C17669   9.741   9.494   0.664  0.3600 -0.4250 -0.4056
  892MOL0     O17670   9.675   9.622   0.670 -0.2534  0.0035  0.1448
  892MOL0     C17671   9.533   9.640   0.662 -0.2853  0.4388 -0.6897
  892MOL0     C17672   9.496   9.790   0.662 -0.6343  1.1695 -0.0732
  892MOL0     C17673   9.510   9.842   0.803 -0.0427  0.6526  0.0494
  892MOL0     C17674   9.632   9.940   0.819  0.3280  0.3320  0.1081
  892MOL0     C17675   9.625  10.014   0.941 -0.4256  0.3423  0.1690
  892MOL0     C17676   9.626  10.088   1.033 -0.3761  0.2911 -0.5625
  892MOL0     C17677   9.669   9.373   0.671  0.1521  0.0260 -0.2994
  892MOL0     C17678   9.741   9.257   0.718 -0.6218  0.3367 -0.3663
  892MOL0     H17679  10.323   9.097   0.666  1.1246 -0.1203  1.4525
  892MOL0     H17680  10.506   8.947   0.759  0.1411 -2.2500  1.0076
  892MOL0     H17681  10.394   8.688   1.112  0.1081  0.1364 -0.3857
  892MOL0     H17682  10.432   8.847   1.176  1.2564  2.5441 -1.5968
  892MOL0     H17683  10.641   8.618   1.121  2.1124  0.3652  1.1458
  892MOL0     H17684  10.598   8.700   1.275 -3.3977  1.2409  0.7323
  892MOL0     H17685  10.698   8.903   1.135 -2.3716 -0.5268  1.8046
  892MOL0     H17686  10.746   8.783   1.023 -3.1656  1.1777 -1.5444
  892MOL0     H17687  10.841   8.767   1.315 -4.1437  0.8099 -0.7230
  892MOL0     H17688  10.869   8.645   1.196 -0.4190 -0.1011  0.7722
  892MOL0     H17689  10.974   8.939   1.193 -0.7630  0.1500 -3.6277
  892MOL0     H17690  10.980   8.836   1.057 -0.2137 -0.6401 -0.9705
  892MOL0     H17691  11.122   8.658   1.193  1.7951  0.4317 -0.4055
  892MOL0     H17692  11.129   8.771   1.318 -2.1207 -1.0524  0.2958
  892MOL0     H17693  11.236   8.819   1.042 -1.5277 -3.4754  0.1406
  892MOL0     H17694  11.241   8.944   1.172  3.2504 -0.3293  1.2889
  892MOL0     H17695  11.366   8.676   1.148 -0.3755  0.8166 -1.4513
  892MOL0     H17696  11.373   8.763   1.301  0.5880 -2.4931  0.2484
  892MOL0     H17697  11.649   8.691   1.223 -0.9071  0.4565 -0.2993
  892MOL0     H17698  11.907   8.806   1.187  0.3552  4.2960  2.5606
  892MOL0     H17699  11.893   8.958   1.104 -1.7176  0.8309 -0.4483
  892MOL0     H17700  11.944   8.890   0.906  0.8493  1.0507  2.2102
  892MOL0     H17701  11.878   8.722   0.925  3.1139 -3.0430  1.7553
  892MOL0     H17702  12.132   8.826   1.079  1.9759 -1.8846 -0.4658
  892MOL0     H17703  12.050   8.674   1.089 -3.1578  1.2135  1.5147
  892MOL0     H17704  12.166   8.829   0.842  0.3535  2.5777  2.9540
  892MOL0     H17705  12.119   8.667   0.823  0.4211  3.3270 -4.0253
  892MOL0     H17706  12.469   8.615   0.774  0.9792 -0.4498  0.6780
  892MOL0     H17707  12.691   8.734   0.739  0.0287 -0.8977  1.1464
  892MOL0     H17708  12.859   9.052   0.449 -0.8379 -1.5717  1.5891
  892MOL0     H17709  13.041   9.193   0.381 -0.8479 -0.8386 -0.0948
  892MOL0     H17710  13.234   9.397   0.402  2.7127  2.2418 -1.6665
  892MOL0     H17711  13.276   9.237   0.329 -2.6812 -3.1174  2.6802
  892MOL0     H17712  13.445   9.444   0.485 -1.6851 -0.1373 -0.3106
  892MOL0     H17713  13.460   9.427   0.320 -0.2359 -1.0920 -0.8961
  892MOL0     H17714  13.531   9.179   0.354 -0.0080 -1.4364  1.4776
  892MOL0     H17715  13.555   9.205   0.525  1.4169 -1.4176 -0.0600
  892MOL0     H17716  13.693   9.398   0.315  2.0535  2.8721  2.0944
  892MOL0     H17717  13.707   9.383   0.492  1.1542 -3.0704  1.4425
  892MOL0     H17718  13.798   9.194   0.272  2.2479 -1.4784 -0.0914
  892MOL0     H17719  13.790   9.149   0.457  1.3152 -0.1855  0.7363
  892MOL0     H17720  13.950   9.333   0.493 -3.3924  1.6489 -0.0146
  892MOL0     H17721  13.948   9.379   0.327  1.4397  2.7015  2.7446
  892MOL0     H17722  14.046   9.106   0.432  0.1122  1.8954  1.5981
  892MOL0     H17723  14.005   9.128   0.270  0.4792  0.3472 -0.7445
  892MOL0     H17724  14.167   9.305   0.239 -2.5077  1.1859  1.8756
  892MOL0     H17725  14.251   9.151   0.295  0.4268 -1.1287  0.7476
  892MOL0     H17726  13.220   9.127   0.772 -0.4610  2.0325  1.2363
  892MOL0     H17727  13.025   9.027   0.846  0.7997 -1.9511  0.1468
  892MOL0     H17728  12.516   9.087   0.913 -0.4498  0.0214  2.0770
  892MOL0     H17729  12.339   8.948   1.015  2.9858  0.4357  2.4935
  892MOL0     H17730  10.225   8.821   1.057  0.1314  0.8548  1.3012
  892MOL0     H17731  10.059   8.984   0.975  0.0970 -3.0685  0.8540
  892MOL0     H17732  10.060   9.382   0.719  0.1787  2.6105  1.4628
  892MOL0     H17733   9.933   9.588   0.668 -2.4302 -0.1401  2.6890
  892MOL0     H17734   9.489   9.574   0.736  0.9286 -1.2555 -1.3984
  892MOL0     H17735   9.507   9.590   0.568 -2.8967  0.6823 -0.1698
  892MOL0     H17736   9.550   9.850   0.588 -0.6124  0.5086 -0.6003
  892MOL0     H17737   9.392   9.787   0.626 -1.1315 -2.8440  1.2417
  892MOL0     H17738   9.529   9.760   0.872  0.1515  0.2086 -0.5292
  892MOL0     H17739   9.415   9.881   0.841  0.9382  1.8228  1.4422
  892MOL0     H17740   9.732   9.896   0.814  0.5978  1.0240 -0.9487
  892MOL0     H17741   9.628  10.015   0.740 -0.6502  3.8072  3.1885
  892MOL0     H17742   9.631  10.154   1.117 -2.7853 -0.2422  0.0779
  892MOL0     H17743   9.560   9.370   0.673  0.1906 -1.6557  1.0015
  892MOL0     H17744   9.690   9.166   0.747  1.2923 -1.1453 -1.4099
  893MOL0     O17745   4.958   7.827  11.194 -0.3567  0.4680 -0.0329
  893MOL0     C17746   4.940   7.940  11.236 -0.0770 -0.1592  0.1332
  893MOL0     O17747   4.824   7.999  11.264  0.4131  0.4444  0.0946
  893MOL0     C17748   4.709   7.933  11.230  0.0365  0.4775  0.6119
  893MOL0     C17749   4.666   7.822  11.303 -0.0832 -0.6191  0.2798
  893MOL0     C17750   4.544   7.763  11.266  0.9892  0.6211 -0.3552
  893MOL0     C17751   4.463   7.805  11.159  0.7147  0.4615 -0.6508
  893MOL0     O17752   4.340   7.775  11.107 -0.3619  0.2642 -0.3419
  893MOL0     C17753   4.256   7.708  11.203  0.1052 -0.1386 -0.5530
  893MOL0     C17754   4.286   7.559  11.196  0.1513  0.7772  0.2491
  893MOL0     C17755   4.235   7.483  11.064  0.0070  0.3364  0.0322
  893MOL0     C17756   4.102   7.540  11.015 -0.6953  0.7329  0.4535
  893MOL0     C17757   4.039   7.456  10.896  0.0792  0.8196  0.1308
  893MOL0     C17758   4.028   7.305  10.900  0.1098 -0.6816 -0.2415
  893MOL0     C17759   3.936   7.254  11.016 -0.6593 -0.8542 -0.3493
  893MOL0     C17760   3.788   7.304  11.019 -0.1319  0.7116  0.3193
  893MOL0     N17761   3.717   7.294  10.888  0.2429  0.6325  0.7245
  893MOL0     C17762   3.677   7.180  10.823 -0.0003 -0.4887 -0.6929
  893MOL0     C17763   3.638   7.217  10.698 -0.7421 -0.1244  0.9972
  893MOL0     C17764   3.591   7.127  10.589 -0.0548  1.2594  0.2750
  893MOL0     C17765   3.689   7.006  10.563 -0.0743  0.7149 -0.3971
  893MOL0     C17766   3.661   6.942  10.437 -0.4900  0.3248 -0.2596
  893MOL0     C17767   3.515   6.892  10.418  0.2333  0.1761  0.0072
  893MOL0     O17768   3.485   6.838  10.290 -0.0966 -0.8418  0.1019
  893MOL0     C17769   3.374   6.764  10.256 -0.1525  0.2837 -0.1792
  893MOL0     C17770   3.367   6.711  10.126  0.1195 -0.0040 -0.3865
  893MOL0     C17771   3.254   6.652  10.080  0.4205  0.2498 -1.1331
  893MOL0     C17772   3.140   6.645  10.153  0.3578 -0.5537  0.4315
  893MOL0     C17773   3.023   6.574  10.101  0.9021 -0.0337  0.1468
  893MOL0     O17774   2.926   6.539  10.182  0.1823  0.6453  0.1602
  893MOL0     C17775   2.806   6.507  10.127  0.0511  0.9609  0.1768
  893MOL0     C17776   2.709   6.603  10.110 -0.6913 -0.4372  0.0267
  893MOL0     C17777   2.588   6.582  10.061 -0.4363  0.5257  0.0949
  893MOL0     C17778   2.547   6.450  10.044 -0.2090  0.3890 -0.2231
  893MOL0     O17779   2.420   6.421  10.010  0.1713 -0.1062  0.2805
  893MOL0     C17780   2.376   6.287   9.982 -0.4204  0.0161 -0.2521
  893MOL0     C17781   2.234   6.278   9.940 -0.3611  0.4711  0.1751
  893MOL0     C17782   2.133   6.351  10.025 -0.1526 -0.4492 -0.1219
  893MOL0     C17783   2.112   6.293  10.163  0.2393 -0.4692  0.1805
  893MOL0     C17784   2.016   6.384  10.245 -0.1721  0.1154  0.1727
  893MOL0     C17785   2.079   6.515  10.286 -0.0273 -1.0687 -0.4694
  893MOL0     C17786   1.979   6.631  10.289 -0.4842 -0.2649  0.3045
  893MOL0     C17787   2.036   6.767  10.338 -0.3637  0.7474  0.1119
  893MOL0    Cl17788   1.919   6.906  10.311 -0.4166 -0.0060 -0.4273
  893MOL0     C17789   2.640   6.353  10.071  0.3496  0.5934 -0.0538
  893MOL0     C17790   2.771   6.373  10.111 -0.1793 -0.7185 -0.3051
  893MOL0     O17791   3.020   6.565   9.980 -0.2620  0.1736  1.0760
  893MOL0     C17792   3.143   6.696  10.283  0.6089 -0.3698 -0.0064
  893MOL0     C17793   3.258   6.749  10.337  0.6372 -0.6515  0.1504
  893MOL0     N17794   3.664   7.350  10.689  0.1419  0.3341  0.5619
  893MOL0     N17795   3.702   7.402  10.802 -0.2546  0.7122 -0.2740
  893MOL0     C17796   4.523   7.909  11.078  0.2916  0.0296  0.6291
  893MOL0     C17797   4.642   7.975  11.116 -0.4317  0.8909  0.1753
  893MOL0     C17798   5.064   8.023  11.251  0.2636  0.4455  0.0918
  893MOL0     C17799   5.189   7.956  11.212  0.1899 -0.9426  0.0220
  893MOL0     C17800   5.303   8.035  11.212 -0.2358 -0.1516 -0.4239
  893MOL0     C17801   5.310   8.165  11.256  0.4391 -0.1076  0.5555
  893MOL0     O17802   5.433   8.231  11.245 -0.0514  0.6011  0.0783
  893MOL0     C17803   5.442   8.371  11.246  0.6335  0.5176  0.2894
  893MOL0     C17804   5.487   8.406  11.390 -0.7672 -1.2456 -1.2550
  893MOL0     C17805   5.639   8.389  11.415  0.1541 -0.5547  0.8145
  893MOL0     C17806   5.680   8.447  11.549 -0.4266  0.3054 -0.0010
  893MOL0     C17807   5.826   8.441  11.548 -0.0448  0.4575 -0.1296
  893MOL0     C17808   5.946   8.443  11.529 -0.3285  0.6818  0.6838
  893MOL0     C17809   5.191   8.224  11.297 -0.4683  0.1700 -1.0349
  893MOL0     C17810   5.072   8.157  11.295 -0.1447 -0.5804  0.0570
  893MOL0     H17811   4.725   7.784  11.386  3.0192  2.0378 -0.4947
  893MOL0     H17812   4.499   7.690  11.333 -0.4150  1.6667 -0.1091
  893MOL0     H17813   4.151   7.735  11.186  0.9859  2.9703 -1.9196
  893MOL0     H17814   4.279   7.747  11.302 -0.8806 -0.9981  0.0358
  893MOL0     H17815   4.250   7.501  11.281  2.2080 -4.2489 -1.8646
  893MOL0     H17816   4.392   7.534  11.210 -0.2365 -1.2723 -0.2245
  893MOL0     H17817   4.229   7.379  11.096 -1.9118  0.3812 -0.0632
  893MOL0     H17818   4.323   7.488  10.998 -1.5216 -0.2147 -2.1490
  893MOL0     H17819   4.038   7.547  11.103  0.8119  0.3678  1.6187
  893MOL0     H17820   4.125   7.633  10.963 -1.1184 -0.3990 -1.9107
  893MOL0     H17821   4.098   7.468  10.804 -1.1421 -0.0590 -0.7870
  893MOL0     H17822   3.946   7.505  10.868  0.1500  0.6704 -0.3759
  893MOL0     H17823   4.127   7.262  10.919  1.0525  0.4768 -2.1803
  893MOL0     H17824   3.997   7.269  10.801 -0.2506 -1.6048  0.1929
  893MOL0     H17825   3.930   7.145  11.025 -2.4172 -0.6995  0.8033
  893MOL0     H17826   3.983   7.290  11.107  1.2924 -0.2390 -1.5380
  893MOL0     H17827   3.789   7.410  11.043 -2.0289  0.4454  1.7675
  893MOL0     H17828   3.734   7.242  11.091 -0.7167  0.6329 -0.1788
  893MOL0     H17829   3.683   7.076  10.855  0.1600 -0.2375  0.1291
  893MOL0     H17830   3.565   7.190  10.504  1.4802  2.7895  0.8586
  893MOL0     H17831   3.498   7.086  10.629  0.7960 -1.7462 -0.5737
  893MOL0     H17832   3.684   6.930  10.642  0.3528  0.4601 -0.6127
  893MOL0     H17833   3.794   7.039  10.559  0.1954 -0.1016 -0.1975
  893MOL0     H17834   3.674   7.017  10.358 -1.8871  1.0777  0.1962
  893MOL0     H17835   3.731   6.860  10.418  0.8686  1.6614 -1.3914
  893MOL0     H17836   3.462   6.987  10.422  0.1370  0.1333 -0.2136
  893MOL0     H17837   3.474   6.820  10.490 -1.2188 -1.3497 -2.1897
  893MOL0     H17838   3.457   6.708  10.065 -0.0657 -0.0759 -0.6549
  893MOL0     H17839   3.259   6.593   9.990  0.5911  0.1431 -1.0540
  893MOL0     H17840   2.735   6.708  10.124 -1.4166 -0.2901  0.3062
  893MOL0     H17841   2.527   6.664  10.024 -0.0039  0.1272 -1.6037
  893MOL0     H17842   2.395   6.221  10.067 -0.5661  1.5583  1.0376
  893MOL0     H17843   2.419   6.250   9.888  2.4641  3.6258 -0.5972
  893MOL0     H17844   2.218   6.170   9.930  1.1685  0.0547  1.7708
  893MOL0     H17845   2.228   6.326   9.842 -0.0348 -0.9831 -0.5884
  893MOL0     H17846   2.030   6.344   9.990 -0.8105 -2.0626  1.9263
  893MOL0     H17847   2.168   6.455  10.026 -3.3845  0.9235  4.5958
  893MOL0     H17848   2.076   6.192  10.143 -2.0545 -0.0194  1.5498
  893MOL0     H17849   2.210   6.287  10.212 -0.1350 -1.6880  0.8158
  893MOL0     H17850   1.989   6.331  10.337  0.8715  0.0070  0.4247
  893MOL0     H17851   1.925   6.403  10.187 -0.1660  0.4489  0.2752
  893MOL0     H17852   2.166   6.545  10.227  1.0476  0.7584  1.8755
  893MOL0     H17853   2.121   6.500  10.385 -0.8041  1.4547  0.3202
  893MOL0     H17854   1.940   6.644  10.188  0.2946  0.2563  0.0607
  893MOL0     H17855   1.892   6.605  10.350 -0.2855  2.6104  1.9975
  893MOL0     H17856   2.123   6.800  10.281 -0.1165 -1.3778 -0.8440
  893MOL0     H17857   2.059   6.760  10.445 -4.5646 -0.8212  1.1388
  893MOL0     H17858   2.617   6.247  10.070  1.7700  0.2562 -1.3845
  893MOL0     H17859   2.850   6.300  10.126  1.2214  0.0135 -3.2851
  893MOL0     H17860   3.050   6.696  10.340 -0.7002 -3.2058 -1.8818
  893MOL0     H17861   3.252   6.788  10.439  0.9682 -3.1894  1.2128
  893MOL0     H17862   4.473   7.949  10.991  1.1383 -0.6086 -0.1701
  893MOL0     H17863   4.692   8.050  11.056 -0.1719 -0.4740 -1.3969
  893MOL0     H17864   5.195   7.855  11.173  1.7911 -0.1663 -1.8797
  893MOL0     H17865   5.394   7.988  11.176  0.4434 -1.5707  2.7907
  893MOL0     H17866   5.348   8.422  11.223 -0.8359 -2.1046  0.1169
  893MOL0     H17867   5.522   8.404  11.179  0.2386  0.3923 -0.2535
  893MOL0     H17868   5.456   8.507  11.419 -0.8029 -1.7621  0.6553
  893MOL0     H17869   5.430   8.333  11.450  1.6215 -2.1182  0.0915
  893MOL0     H17870   5.693   8.432  11.330 -0.0654  1.3505  1.5905
  893MOL0     H17871   5.657   8.282  11.430  0.0436 -0.7111 -0.1266
  893MOL0     H17872   5.662   8.555  11.558  1.1877  0.9659 -3.2015
  893MOL0     H17873   5.645   8.389  11.635  0.6487  2.1976  1.8128
  893MOL0     H17874   6.053   8.452  11.527 -0.4417  2.1012 -0.4252
  893MOL0     H17875   5.187   8.328  11.328  0.3261  0.1874 -0.9669
  893MOL0     H17876   4.998   8.222  11.340 -0.2710 -1.0040  0.4643
  894MOL0     O17877   3.591  10.049   4.333 -0.6646 -0.3095  0.8523
  894MOL0     C17878   3.657   9.947   4.340 -0.1288  0.3682  0.4605
  894MOL0     O17879   3.632   9.829   4.279 -0.2706  0.2747 -0.1000
  894MOL0     C17880   3.511   9.793   4.223  0.4525 -0.4348 -0.1142
  894MOL0     C17881   3.516   9.753   4.092 -0.8261 -0.3144  1.0880
  894MOL0     C17882   3.392   9.721   4.026  0.1949  0.2337 -0.8034
  894MOL0     C17883   3.266   9.748   4.091 -1.1322  0.8921  0.3406
  894MOL0     O17884   3.141   9.741   4.029  0.1789  0.4414 -0.3111
  894MOL0     C17885   3.135   9.723   3.884  0.0162 -0.1948 -0.3428
  894MOL0     C17886   2.986   9.747   3.854 -0.6354 -0.2937  0.2012
  894MOL0     C17887   2.958   9.730   3.705  0.1510 -1.0778  0.4415
  894MOL0     C17888   2.844   9.806   3.645  0.4355 -0.3700  0.2471
  894MOL0     C17889   2.704   9.777   3.710 -0.5820  0.8006  0.1601
  894MOL0     C17890   2.692   9.624   3.730  0.0570 -0.3022 -0.1175
  894MOL0     C17891   2.557   9.564   3.783  0.7225  0.3262  0.2625
  894MOL0     C17892   2.431   9.590   3.702  0.4172 -0.1335  0.3178
  894MOL0     N17893   2.442   9.548   3.559 -0.1317  0.1472  0.5053
  894MOL0     C17894   2.388   9.623   3.461 -0.9154  0.0293  0.1646
  894MOL0     C17895   2.402   9.559   3.349  0.7026 -0.2672  0.4114
  894MOL0     C17896   2.363   9.611   3.214 -0.1371 -0.4880  0.8996
  894MOL0     C17897   2.224   9.685   3.218 -0.1328 -0.7915  0.3112
  894MOL0     C17898   2.197   9.771   3.096 -0.1034  0.2842  0.4781
  894MOL0     C17899   2.070   9.864   3.106  0.8201  0.1410 -0.6360
  894MOL0     O17900   1.978   9.791   3.175 -0.1774 -0.5796  0.0510
  894MOL0     C17901   1.849   9.845   3.185  0.8053  0.9593  0.1692
  894MOL0     C17902   1.763   9.744   3.240 -0.0272 -0.5656 -0.1641
  894MOL0     C17903   1.634   9.781   3.266 -0.2646 -0.6932  0.0336
  894MOL0     C17904   1.586   9.911   3.247  0.5510  0.1957 -0.0258
  894MOL0     C17905   1.434   9.928   3.267 -0.6611 -0.4461 -0.3108
  894MOL0     O17906   1.370   9.858   3.367 -0.4379  0.4037  0.2029
  894MOL0     C17907   1.234   9.863   3.389 -0.1398 -0.4048  0.2432
  894MOL0     C17908   1.141   9.878   3.285  0.1184  0.5186 -0.0140
  894MOL0     C17909   1.001   9.881   3.313 -0.4566  0.8372 -0.3552
  894MOL0     C17910   0.960   9.880   3.446 -0.1141 -0.0790 -0.0703
  894MOL0     O17911   0.830   9.886   3.485 -0.6154  0.6919 -0.3082
  894MOL0     C17912   0.741   9.967   3.414 -0.8804 -0.5191  0.4214
  894MOL0     C17913   0.598   9.939   3.472  0.3894 -0.2596 -0.3743
  894MOL0     C17914   0.480  10.028   3.409 -0.0310 -0.1528  0.3737
  894MOL0     C17915   0.340  10.001   3.466 -0.0366 -0.1956  0.0696
  894MOL0     C17916   0.216  10.039   3.392 -0.3014  0.2833  0.4940
  894MOL0     C17917   0.244  10.170   3.318  0.4506 -0.5727 -0.6138
  894MOL0     C17918   0.264  10.285   3.412 -0.4098 -0.9120 -0.5743
  894MOL0     C17919   0.236  10.419   3.335 -0.2220 -0.4617 -1.1441
  894MOL0    Cl17920   0.343  10.436   3.189  0.0906  0.2791 -0.1190
  894MOL0     C17921   1.046   9.860   3.547  0.0970  0.3660 -0.1970
  894MOL0     C17922   1.184   9.851   3.514 -0.8001 -0.0446 -0.1202
  894MOL0     O17923   1.380  10.015   3.199  0.1959 -0.7083 -0.6371
  894MOL0     C17924   1.670  10.007   3.189  0.1308 -0.9977  0.2504
  894MOL0     C17925   1.807   9.975   3.162  1.2774  0.2732  0.0214
  894MOL0     N17926   2.470   9.444   3.376  0.3613  0.1659 -0.8754
  894MOL0     N17927   2.491   9.431   3.502  0.0827  0.6634 -0.5079
  894MOL0     C17928   3.263   9.763   4.236 -0.8334  0.5180 -0.3497
  894MOL0     C17929   3.392   9.781   4.296  1.0260 -0.7319 -1.2165
  894MOL0     C17930   3.781   9.960   4.422  0.4613  0.4811  0.1209
  894MOL0     C17931   3.823  10.081   4.485 -0.2528  0.4735  0.8753
  894MOL0     C17932   3.938  10.066   4.567  0.1432 -0.0637  0.0813
  894MOL0     C17933   4.002   9.944   4.587  0.3120  0.0362  0.1711
  894MOL0     O17934   4.115   9.959   4.658  0.2560  0.8140  0.2442
  894MOL0     C17935   4.197   9.842   4.674  1.0710  0.3504 -0.0530
  894MOL0     C17936   4.287   9.823   4.554 -0.1805  0.5473 -0.3782
  894MOL0     C17937   4.390   9.935   4.519 -0.1909  0.3757 -0.3951
  894MOL0     C17938   4.530   9.898   4.579  0.6275 -0.7750  0.1305
  894MOL0     C17939   4.614  10.020   4.566 -0.0638 -0.3468  1.2470
  894MOL0     C17940   4.696  10.112   4.561  0.1379 -0.9605  0.4920
  894MOL0     C17941   3.959   9.834   4.524  1.2628 -0.0684  0.1507
  894MOL0     C17942   3.844   9.841   4.450  0.4311  0.1598  0.8576
  894MOL0     H17943   3.612   9.738   4.043 -1.3648 -0.9373  0.1895
  894MOL0     H17944   3.392   9.686   3.923 -1.5569  0.2602 -0.8428
  894MOL0     H17945   3.150   9.618   3.857  0.3683  0.3429 -2.3494
  894MOL0     H17946   3.190   9.799   3.827 -1.2744  1.6070  0.7025
  894MOL0     H17947   2.970   9.853   3.879  1.1441  0.5564 -1.9209
  894MOL0     H17948   2.921   9.682   3.914  0.9245 -2.8394 -0.7332
  894MOL0     H17949   2.953   9.623   3.685  2.0140 -0.7370 -2.2831
  894MOL0     H17950   3.044   9.764   3.647 -0.5903 -1.1519 -0.7209
  894MOL0     H17951   2.865   9.911   3.665 -1.1448 -0.3395  1.9999
  894MOL0     H17952   2.849   9.787   3.537  0.9343  1.2160 -0.0378
  894MOL0     H17953   2.626   9.805   3.639  0.4822 -2.3645 -2.4785
  894MOL0     H17954   2.692   9.832   3.803  0.5746  1.1314  0.1339
  894MOL0     H17955   2.771   9.587   3.796  1.8609 -1.8343 -2.9226
  894MOL0     H17956   2.717   9.572   3.638 -3.2393 -2.9571  0.2833
  894MOL0     H17957   2.578   9.459   3.804  2.3848  0.6048  0.1448
  894MOL0     H17958   2.547   9.615   3.880 -1.1110 -1.3610  1.0359
  894MOL0     H17959   2.415   9.699   3.702 -2.6502 -0.4636 -1.3792
  894MOL0     H17960   2.342   9.542   3.743  1.3008 -1.4181  0.7722
  894MOL0     H17961   2.342   9.720   3.471  3.5137  2.5248 -1.0229
  894MOL0     H17962   2.369   9.529   3.143  1.6717  1.4864 -1.3989
  894MOL0     H17963   2.443   9.680   3.182  0.1911 -1.5310 -0.6282
  894MOL0     H17964   2.213   9.754   3.303  1.8087  2.2056 -1.7093
  894MOL0     H17965   2.143   9.614   3.238 -1.1580  0.8717  2.4860
  894MOL0     H17966   2.280   9.841   3.085  0.4473 -0.6563 -1.7343
  894MOL0     H17967   2.198   9.707   3.008  0.6590 -5.3414  4.0703
  894MOL0     H17968   2.047   9.891   3.002  3.3017 -2.8696 -2.1244
  894MOL0     H17969   2.080   9.959   3.160 -0.0864  1.2269 -2.2578
  894MOL0     H17970   1.807   9.647   3.262 -0.2534 -0.4083  0.9970
  894MOL0     H17971   1.566   9.715   3.318  0.7360 -0.1845  2.0978
  894MOL0     H17972   1.174   9.884   3.182 -0.1835 -2.1515 -0.3430
  894MOL0     H17973   0.940   9.891   3.224 -1.2972 -1.4188 -0.1005
  894MOL0     H17974   0.746   9.964   3.305  2.1986  2.6440  0.3035
  894MOL0     H17975   0.777  10.068   3.437  0.1689 -0.8226  0.1517
  894MOL0     H17976   0.606   9.952   3.581  0.9323 -3.2146  0.0206
  894MOL0     H17977   0.582   9.832   3.461  0.3769 -0.3992  0.8097
  894MOL0     H17978   0.472  10.001   3.304  0.7353 -0.7094  0.4453
  894MOL0     H17979   0.513  10.132   3.405 -2.3213  0.5709 -1.7426
  894MOL0     H17980   0.331   9.893   3.472 -0.3779 -0.1962 -0.3694
  894MOL0     H17981   0.339  10.044   3.567  1.3860 -1.4092  0.6447
  894MOL0     H17982   0.135  10.040   3.465  0.4840  0.9495  1.3832
  894MOL0     H17983   0.197   9.952   3.329  1.1571  0.7083 -0.5918
  894MOL0     H17984   0.149  10.174   3.263 -0.1050  2.5200  0.4083
  894MOL0     H17985   0.322  10.163   3.241 -0.3971  3.0283 -2.0058
  894MOL0     H17986   0.205  10.265   3.502  1.7713 -0.5432  1.0319
  894MOL0     H17987   0.361  10.270   3.459 -2.3394 -0.8965  3.9373
  894MOL0     H17988   0.261  10.509   3.393 -2.5846  0.8310 -2.0069
  894MOL0     H17989   0.133  10.432   3.303 -0.1814  0.2738 -0.9952
  894MOL0     H17990   0.998   9.864   3.644 -3.0467  3.1299 -1.6509
  894MOL0     H17991   1.261   9.824   3.586 -1.3326 -1.2197  0.0216
  894MOL0     H17992   1.622  10.103   3.172  0.0619 -1.2067 -0.8101
  894MOL0     H17993   1.869  10.053   3.120  0.3392  0.0228 -1.9771
  894MOL0     H17994   3.172   9.788   4.290  0.5495  1.1447  1.8065
  894MOL0     H17995   3.396   9.803   4.402  1.5923 -0.2494 -1.3374
  894MOL0     H17996   3.770  10.175   4.469  1.3188  1.4324  1.0470
  894MOL0     H17997   3.992  10.148   4.613  0.8043 -0.5830  0.2377
  894MOL0     H17998   4.137   9.753   4.691  2.0545 -0.2290  0.4416
  894MOL0     H17999   4.245   9.853   4.772  1.8700  2.4786 -0.6103
  894MOL0     H18000   4.335   9.725   4.561 -2.4163 -0.7405 -1.9948
  894MOL0     H18001   4.223   9.821   4.465 -0.8701  0.1125  0.1260
  894MOL0     H18002   4.352  10.032   4.551 -0.2368  1.4381 -3.3774
  894MOL0     H18003   4.397   9.929   4.410 -0.1451 -0.9337 -0.3423
  894MOL0     H18004   4.515   9.887   4.687 -2.1480  0.4225 -0.0605
  894MOL0     H18005   4.570   9.806   4.534  2.8773  0.4226 -0.4816
  894MOL0     H18006   4.767  10.191   4.558  2.4256 -2.8233  2.2280
  894MOL0     H18007   3.995   9.732   4.530  0.8398 -0.1350  2.3837
  894MOL0     H18008   3.806   9.748   4.408  1.6747  0.2750 -0.6301
  895MOL0     O18009   0.857   6.686   9.775  0.8406  0.3083 -1.0190
  895MOL0     C18010   0.911   6.614   9.858  0.3114 -0.3201 -0.0098
  895MOL0     O18011   0.867   6.599   9.980 -0.2264 -0.3753  0.2763
  895MOL0     C18012   0.745   6.655  10.011 -0.0156 -0.8285 -0.0160
  895MOL0     C18013   0.724   6.764  10.100  0.4045 -0.3379 -0.0029
  895MOL0     C18014   0.608   6.847  10.116 -0.0557  0.8134  0.8456
  895MOL0     C18015   0.497   6.805  10.036  0.5853  0.6073 -0.3880
  895MOL0     O18016   0.371   6.866  10.037 -0.4876  0.1400  0.4172
  895MOL0     C18017   0.352   6.971  10.133  0.7810  0.2003  0.7902
  895MOL0     C18018   0.212   7.032  10.112 -0.6569 -0.2233  0.3348
  895MOL0     C18019   0.201   7.176  10.167 -0.2079 -0.5061 -0.5461
  895MOL0     C18020   0.217   7.188  10.320 -0.0082 -0.9832 -0.5992
  895MOL0     C18021   0.172   7.316  10.391 -0.0300  0.6356 -0.2606
  895MOL0     C18022   0.162   7.283  10.548 -0.2354 -0.5943  0.6295
  895MOL0     C18023   0.176   7.410  10.636 -0.2913  0.0759  0.1502
  895MOL0     C18024   0.085   7.524  10.593  0.7257 -0.9454 -0.1385
  895MOL0     N18025   0.094   7.637  10.700  0.4621  0.1780 -0.3891
  895MOL0     C18026   0.055   7.627  10.833  0.2334 -0.3845 -0.6474
  895MOL0     C18027   0.063   7.753  10.884 -0.3584  1.1325  0.1348
  895MOL0     C18028   0.033   7.795  11.026  0.4603 -1.2077 -0.4920
  895MOL0     C18029  -0.116   7.797  11.062 -0.0094 -0.3075 -0.0634
  895MOL0     C18030  -0.172   7.938  11.069  0.2561 -0.9464  1.2185
  895MOL0     C18031  -0.323   7.942  11.098  0.1496 -0.3117 -0.2861
  895MOL0     O18032  -0.361   7.883  11.220 -0.7046 -0.0301 -1.0672
  895MOL0     C18033  -0.494   7.863  11.227 -0.6557 -0.3254 -0.4813
  895MOL0     C18034  -0.557   7.763  11.153  1.0549 -1.2203  0.4055
  895MOL0     C18035  -0.695   7.741  11.155 -0.3877  0.0281 -0.5557
  895MOL0     C18036  -0.772   7.820  11.242 -0.0647 -0.1922 -0.4626
  895MOL0     C18037  -0.912   7.796  11.262 -0.0224  0.1945  0.0998
  895MOL0     O18038  -0.988   7.907  11.297  0.1651 -0.4110  0.3601
  895MOL0     C18039  -1.122   7.908  11.296  0.3642 -0.4704 -0.8930
  895MOL0     C18040  -1.214   7.823  11.222 -0.4863 -0.8017 -0.0486
  895MOL0     C18041  -1.351   7.830  11.251  0.7467  0.2076 -0.8777
  895MOL0     C18042  -1.401   7.936  11.327 -0.3443  0.5475 -0.3650
  895MOL0     O18043  -1.537   7.944  11.345 -0.0885  0.4436  0.3386
  895MOL0     C18044  -1.600   8.057  11.385  0.1497 -0.0559  0.1223
  895MOL0     C18045  -1.753   8.020  11.365 -0.1482 -0.1843 -0.7648
  895MOL0     C18046  -1.844   8.140  11.378 -0.8069 -0.5190  0.0481
  895MOL0     C18047  -1.989   8.115  11.365  0.6109  0.4097 -0.0425
  895MOL0     C18048  -2.061   8.249  11.344  0.3988 -0.2335  0.2508
  895MOL0     C18049  -2.214   8.223  11.375 -0.3755  0.2454  0.1747
  895MOL0     C18050  -2.302   8.346  11.333  0.2386  0.3083 -0.0407
  895MOL0     C18051  -2.457   8.334  11.340 -0.2645  0.8616 -0.1944
  895MOL0    Cl18052  -2.523   8.283  11.492  0.4127 -0.0111  0.3629
  895MOL0     C18053  -1.313   8.031  11.385  0.0141  0.3325 -0.3152
  895MOL0     C18054  -1.176   8.013  11.379 -0.4863  0.6529  0.3914
  895MOL0     O18055  -0.959   7.683  11.232 -0.8598  0.7635  0.2459
  895MOL0     C18056  -0.708   7.909  11.330 -0.2145 -0.3831 -0.5255
  895MOL0     C18057  -0.569   7.933  11.321 -0.5107 -0.5536 -0.6859
  895MOL0     N18058   0.114   7.833  10.785 -0.2695 -0.0035 -0.0751
  895MOL0     N18059   0.132   7.764  10.674  0.4129  0.1958  0.1065
  895MOL0     C18060   0.510   6.691   9.956 -0.1718 -0.0576  0.5755
  895MOL0     C18061   0.631   6.617   9.939  0.4840  0.4137 -0.3198
  895MOL0     C18062   1.028   6.544   9.812 -0.5157 -0.2202  0.5815
  895MOL0     C18063   1.097   6.464   9.901 -0.1199  0.2696 -0.7686
  895MOL0     C18064   1.211   6.396   9.861 -0.7362  0.6074  0.0704
  895MOL0     C18065   1.264   6.401   9.727  0.1712  0.4031 -1.0598
  895MOL0     O18066   1.381   6.342   9.692  0.0864 -0.4186  0.4254
  895MOL0     C18067   1.454   6.269   9.788 -0.2254 -0.1262 -0.0376
  895MOL0     C18068   1.583   6.210   9.730 -0.8011  0.0483  0.2594
  895MOL0     C18069   1.712   6.299   9.736 -0.1104 -0.4699  0.0023
  895MOL0     C18070   1.827   6.248   9.654 -0.4298  0.5296 -0.3363
  895MOL0     C18071   1.911   6.359   9.612  0.0442 -0.2785 -0.4143
  895MOL0     C18072   1.979   6.449   9.582  0.8577  0.1088 -0.0023
  895MOL0     C18073   1.193   6.472   9.639 -1.1671 -1.3515  0.5959
  895MOL0     C18074   1.082   6.547   9.673 -0.3294 -0.0504  0.2281
  895MOL0     H18075   0.810   6.803  10.154 -0.4466 -1.3392  2.2143
  895MOL0     H18076   0.609   6.933  10.181  1.4559  0.6535  1.0693
  895MOL0     H18077   0.425   7.051  10.117 -0.5247  1.1952 -0.3585
  895MOL0     H18078   0.364   6.943  10.238  3.0754 -0.7868  0.3326
  895MOL0     H18079   0.134   6.970  10.157  1.7505 -1.6139  2.9426
  895MOL0     H18080   0.202   7.051  10.005 -1.2972 -1.8906  0.0732
  895MOL0     H18081   0.101   7.212  10.140  0.3486  0.2096 -1.7192
  895MOL0     H18082   0.280   7.238  10.125 -0.2131  0.0039  0.1779
  895MOL0     H18083   0.170   7.105  10.374  1.1493 -0.4958  1.2401
  895MOL0     H18084   0.323   7.172  10.341 -0.1518 -1.9710 -0.5467
  895MOL0     H18085   0.084   7.357  10.340 -1.4539  1.6574  2.8282
  895MOL0     H18086   0.255   7.386  10.372 -0.3310  0.6115 -1.8453
  895MOL0     H18087   0.242   7.212  10.572  2.7080  2.3868  0.3236
  895MOL0     H18088   0.065   7.234  10.564 -0.4035 -0.1925  0.8557
  895MOL0     H18089   0.166   7.391  10.743 -4.0330 -1.5348 -0.3672
  895MOL0     H18090   0.275   7.455  10.618 -1.1842  2.0316 -0.1319
  895MOL0     H18091  -0.018   7.488  10.593 -0.0936  1.2433 -0.4254
  895MOL0     H18092   0.102   7.565  10.493 -0.2441  0.8613  0.3953
  895MOL0     H18093   0.025   7.537  10.886 -0.6938 -0.3160 -1.0401
  895MOL0     H18094   0.075   7.895  11.039 -1.6033 -0.3149 -0.2158
  895MOL0     H18095   0.073   7.715  11.089 -1.0117 -2.6895 -1.3399
  895MOL0     H18096  -0.132   7.758  11.163  0.4041  0.9802  0.5322
  895MOL0     H18097  -0.177   7.733  10.998 -1.1896 -0.5303  1.2468
  895MOL0     H18098  -0.121   8.002  11.142  2.0852 -1.5164  0.4916
  895MOL0     H18099  -0.150   7.975  10.969 -0.1648 -0.7874  1.1825
  895MOL0     H18100  -0.360   7.896  11.006  1.0722  2.2659 -2.0903
  895MOL0     H18101  -0.353   8.047  11.101 -0.4741 -0.5046  0.6915
  895MOL0     H18102  -0.487   7.698  11.102 -0.1691 -1.0720 -1.5308
  895MOL0     H18103  -0.743   7.664  11.095  0.0030 -2.0615  1.6191
  895MOL0     H18104  -1.172   7.751  11.151 -1.9526 -1.1252 -0.6213
  895MOL0     H18105  -1.431   7.772  11.207  0.6712 -2.1396  2.0190
  895MOL0     H18106  -1.578   8.139  11.315  3.0239 -0.4805  0.4274
  895MOL0     H18107  -1.573   8.078  11.489  1.0088  3.0713 -0.6068
  895MOL0     H18108  -1.791   7.955  11.444 -1.4108 -1.1569 -2.1224
  895MOL0     H18109  -1.771   7.962  11.274 -0.0737 -1.1676 -0.1758
  895MOL0     H18110  -1.819   8.213  11.300  0.2314  0.4791  1.2867
  895MOL0     H18111  -1.832   8.193  11.473 -0.5024  1.1404 -0.8813
  895MOL0     H18112  -2.016   8.047  11.283 -1.7739 -1.6903  2.2885
  895MOL0     H18113  -2.029   8.073  11.458 -0.3811 -0.7442 -0.9576
  895MOL0     H18114  -2.045   8.289  11.243 -2.2206  1.1002  0.2748
  895MOL0     H18115  -2.029   8.325  11.416 -2.4890 -0.6129  2.1042
  895MOL0     H18116  -2.232   8.195  11.479 -1.4737  1.8635  0.4474
  895MOL0     H18117  -2.248   8.140  11.313  1.4544 -0.5586  0.1745
  895MOL0     H18118  -2.283   8.435  11.392 -1.0314  0.4698  0.1642
  895MOL0     H18119  -2.283   8.365  11.227 -1.7102 -1.3057 -0.7550
  895MOL0     H18120  -2.474   8.269  11.254  0.4736  0.1382  0.1848
  895MOL0     H18121  -2.489   8.434  11.312  2.8879  1.2250 -3.1793
  895MOL0     H18122  -1.356   8.098  11.459  0.7946 -1.1004  1.5146
  895MOL0     H18123  -1.095   8.076  11.414 -0.4626  1.3580 -0.8628
  895MOL0     H18124  -0.767   7.960  11.406 -1.4262 -1.7436 -0.5094
  895MOL0     H18125  -0.525   8.001  11.393  0.9253 -2.8736  0.7433
  895MOL0     H18126   0.418   6.658   9.909 -1.3739  1.5068  1.7324
  895MOL0     H18127   0.626   6.523   9.885  1.4402 -1.3185  2.3846
  895MOL0     H18128   1.077   6.475  10.007  1.4823 -1.2693 -0.2638
  895MOL0     H18129   1.264   6.340   9.937  0.8200  1.3904 -0.4038
  895MOL0     H18130   1.396   6.184   9.825 -0.1983 -0.4796 -0.7891
  895MOL0     H18131   1.473   6.332   9.875  1.0688  0.5732 -0.7887
  895MOL0     H18132   1.604   6.114   9.778  0.5343 -1.4716 -3.0533
  895MOL0     H18133   1.562   6.181   9.627 -2.3742 -0.5922  0.7299
  895MOL0     H18134   1.739   6.304   9.842 -0.3650 -0.3953  0.0652
  895MOL0     H18135   1.683   6.401   9.707  0.5651 -0.6377 -1.3265
  895MOL0     H18136   1.884   6.177   9.715 -2.1868  0.6969  1.6271
  895MOL0     H18137   1.785   6.200   9.565  0.7408 -0.3694 -0.4221
  895MOL0     H18138   2.030   6.538   9.548  1.5198 -0.3248 -0.1730
  895MOL0     H18139   1.221   6.500   9.538  0.0148  2.4923  1.8165
  895MOL0     H18140   1.026   6.607   9.603 -0.1767 -1.8601 -1.5463
  896MOL0     O18141   3.691   1.362  10.678  0.2301  0.2266  0.1348
  896MOL0     C18142   3.733   1.325  10.560  0.6614 -0.7895 -0.1745
  896MOL0     O18143   3.657   1.266  10.464 -0.4855  0.0512  0.7058
  896MOL0     C18144   3.521   1.275  10.482 -0.8319  0.2026  0.7394
  896MOL0     C18145   3.448   1.159  10.494 -0.0189 -0.1809  0.1048
  896MOL0     C18146   3.312   1.163  10.476 -0.0674 -0.1009 -0.5769
  896MOL0     C18147   3.246   1.288  10.493 -0.5837 -0.1345 -0.4829
  896MOL0     O18148   3.111   1.309  10.514  0.2899  0.7363 -0.4148
  896MOL0     C18149   3.035   1.327  10.395  1.4625  0.0160  0.2379
  896MOL0     C18150   2.929   1.441  10.403  0.1174  0.0962 -0.2410
  896MOL0     C18151   2.841   1.420  10.528  0.5575 -0.1852  0.6883
  896MOL0     C18152   2.710   1.488  10.511 -1.1810 -0.1372  0.4151
  896MOL0     C18153   2.617   1.463  10.634 -0.2409 -0.1740  0.5917
  896MOL0     C18154   2.478   1.520  10.588  0.5085 -0.4079  0.1365
  896MOL0     C18155   2.380   1.519  10.700 -0.5541 -0.2065 -0.4779
  896MOL0     C18156   2.395   1.638  10.787  0.0521  0.4302 -0.7675
  896MOL0     N18157   2.346   1.755  10.722  0.2747 -0.2014  0.0935
  896MOL0     C18158   2.211   1.759  10.677 -0.0878 -0.0150  0.1298
  896MOL0     C18159   2.190   1.883  10.637 -0.2246 -0.1669  0.4227
  896MOL0     C18160   2.064   1.959  10.598  0.3918 -0.2166 -0.2994
  896MOL0     C18161   2.031   1.942  10.445  0.3430 -1.2490 -0.2695
  896MOL0     C18162   1.964   1.809  10.402 -0.7235  0.8678 -0.1214
  896MOL0     C18163   1.857   1.761  10.499 -0.1401  0.6730 -0.5359
  896MOL0     O18164   1.802   1.634  10.462  0.6744 -0.2616 -0.3718
  896MOL0     C18165   1.699   1.586  10.540  1.1273 -0.3974 -0.1905
  896MOL0     C18166   1.641   1.658  10.648  0.0565 -0.3969 -0.2658
  896MOL0     C18167   1.541   1.598  10.719  0.0564 -0.0528 -0.3206
  896MOL0     C18168   1.475   1.482  10.673 -0.2759 -0.7976  0.1436
  896MOL0     C18169   1.359   1.440  10.759  0.2706 -0.2471  0.3208
  896MOL0     O18170   1.273   1.348  10.704 -0.0106 -0.1797  0.4557
  896MOL0     C18171   1.179   1.294  10.780 -0.3642  0.6625 -0.5604
  896MOL0     C18172   1.205   1.165  10.833 -0.2560 -0.6073  0.4646
  896MOL0     C18173   1.090   1.092  10.894 -0.0311  0.5896 -0.0743
  896MOL0     C18174   0.962   1.159  10.905 -0.7635  0.6591  0.1701
  896MOL0     O18175   0.853   1.087  10.948 -0.0688 -0.2162 -0.1819
  896MOL0     C18176   0.727   1.099  10.878 -0.0168 -0.4301  0.1688
  896MOL0     C18177   0.622   1.014  10.936  0.4155 -0.5133  0.1560
  896MOL0     C18178   0.497   1.081  10.990 -0.6139  0.1416  0.6660
  896MOL0     C18179   0.414   1.137  10.878  1.1165  0.0384 -0.6687
  896MOL0     C18180   0.286   1.215  10.928  0.1657 -1.1040 -0.3213
  896MOL0     C18181   0.202   1.171  11.048 -0.2345 -0.3780  0.1516
  896MOL0     C18182   0.071   1.249  11.034  0.2919  0.8133  0.0255
  896MOL0     C18183   0.068   1.364  11.133  0.2914  0.7524  0.2818
  896MOL0    Cl18184  -0.063   1.488  11.084  0.1061  0.3394 -0.2152
  896MOL0     C18185   0.949   1.292  10.869  0.3497 -0.2903  0.0522
  896MOL0     C18186   1.057   1.357  10.806 -0.0066 -0.2439 -0.5643
  896MOL0     O18187   1.350   1.487  10.869 -0.0067 -0.7049 -0.0383
  896MOL0     C18188   1.524   1.420  10.562 -0.3993 -0.2849 -0.4034
  896MOL0     C18189   1.637   1.459  10.507  0.0421 -0.1884  0.2953
  896MOL0     N18190   2.314   1.946  10.654  0.0261 -0.1088 -0.4694
  896MOL0     N18191   2.410   1.873  10.698 -0.2221  0.3795 -0.3823
  896MOL0     C18192   3.322   1.407  10.481  0.3928 -0.3533  0.2879
  896MOL0     C18193   3.460   1.400  10.475  0.4511  0.5528 -0.2961
  896MOL0     C18194   3.878   1.349  10.534 -0.0376 -0.0723  0.0660
  896MOL0     C18195   3.973   1.370  10.632 -0.6615  0.1535  0.2710
  896MOL0     C18196   4.109   1.390  10.601  0.2358  1.1435  0.0115
  896MOL0     C18197   4.144   1.415  10.469  0.1064  0.6041  0.2939
  896MOL0     O18198   4.263   1.461  10.423  0.2082  0.4272  0.0499
  896MOL0     C18199   4.368   1.508  10.507 -0.5952 -0.1805 -0.6830
  896MOL0     C18200   4.356   1.646  10.561  0.8020 -0.4655  0.6480
  896MOL0     C18201   4.384   1.755  10.458  0.1217  0.0961  0.4662
  896MOL0     C18202   4.525   1.769  10.407  0.3185  0.5007 -0.2692
  896MOL0     C18203   4.632   1.754  10.498 -0.2607  0.0607  0.0617
  896MOL0     C18204   4.728   1.733  10.570  0.1506  0.2025  0.5355
  896MOL0     C18205   4.053   1.394  10.372  0.1211 -0.2631 -0.1025
  896MOL0     C18206   3.927   1.359  10.403  0.0842  0.2233 -0.5777
  896MOL0     H18207   3.496   1.062  10.497 -0.0065 -0.3396 -2.6626
  896MOL0     H18208   3.250   1.073  10.476 -2.1866  1.2733 -0.8734
  896MOL0     H18209   2.985   1.231  10.382  0.5281  0.4829  0.3616
  896MOL0     H18210   3.101   1.338  10.309  2.0069  1.2053  0.7791
  896MOL0     H18211   2.872   1.431  10.310  0.0625 -0.4132 -0.1560
  896MOL0     H18212   2.973   1.541  10.399 -1.4551  0.7784 -1.2141
  896MOL0     H18213   2.895   1.458  10.615  0.9462 -2.2312  1.4047
  896MOL0     H18214   2.822   1.312  10.534  0.4311 -0.2979 -1.0809
  896MOL0     H18215   2.732   1.594  10.497 -0.9333 -0.4791 -2.4102
  896MOL0     H18216   2.660   1.447  10.423  2.7743 -1.9911 -1.2155
  896MOL0     H18217   2.664   1.512  10.719  1.3516  1.8665 -1.3374
  896MOL0     H18218   2.593   1.360  10.661  1.6640 -0.7776  0.1355
  896MOL0     H18219   2.438   1.454  10.510 -0.6537  0.5467 -0.1116
  896MOL0     H18220   2.478   1.621  10.548 -2.6340  0.3666  1.7649
  896MOL0     H18221   2.279   1.505  10.660 -1.5558 -1.0852  2.0996
  896MOL0     H18222   2.396   1.423  10.751  0.3341 -0.5661 -1.4117
  896MOL0     H18223   2.499   1.655  10.819 -0.3179  0.0969  0.7033
  896MOL0     H18224   2.341   1.616  10.880  0.2370  0.2665 -0.6979
  896MOL0     H18225   2.130   1.689  10.694  1.9796 -3.0020 -1.4172
  896MOL0     H18226   2.081   2.064  10.623  0.4928  0.2143 -2.0611
  896MOL0     H18227   1.979   1.922  10.657  0.6480  0.7602  0.7331
  896MOL0     H18228   2.116   1.971  10.383 -0.1333  0.3889 -0.1921
  896MOL0     H18229   1.965   2.027  10.429  2.6397  1.4796  3.2906
  896MOL0     H18230   1.904   1.820  10.311 -2.7050  0.0113  1.0206
  896MOL0     H18231   2.039   1.730  10.388  0.5126  1.2934  3.2346
  896MOL0     H18232   1.779   1.836  10.513  0.6899  1.4298  0.1604
  896MOL0     H18233   1.905   1.736  10.594  0.1507  0.3284 -0.7737
  896MOL0     H18234   1.688   1.751  10.676  1.6948  0.0279 -3.8558
  896MOL0     H18235   1.499   1.642  10.809  2.6247  1.4768  0.2122
  896MOL0     H18236   1.296   1.107  10.822 -0.0769 -0.0284 -1.5012
  896MOL0     H18237   1.101   0.992  10.934 -1.3453 -0.6744 -2.6407
  896MOL0     H18238   0.753   1.069  10.776  2.5773  0.7443  0.3904
  896MOL0     H18239   0.692   1.203  10.879  0.4620 -0.2568  1.6324
  896MOL0     H18240   0.665   0.973  11.028  3.0066 -1.1354 -1.2504
  896MOL0     H18241   0.599   0.937  10.862  2.2980  0.7750 -1.8642
  896MOL0     H18242   0.525   1.166  11.054 -2.0600  1.5493 -0.4773
  896MOL0     H18243   0.453   1.005  11.055  1.9771 -1.5194  0.5766
  896MOL0     H18244   0.479   1.200  10.817  1.5935  0.1252 -0.0873
  896MOL0     H18245   0.375   1.057  10.815 -3.1189 -0.1721  1.7663
  896MOL0     H18246   0.225   1.229  10.838  3.4949 -0.2700 -2.6561
  896MOL0     H18247   0.310   1.320  10.951 -0.1028 -0.8913 -0.9959
  896MOL0     H18248   0.250   1.192  11.145 -0.8958  1.4069  0.1234
  896MOL0     H18249   0.182   1.066  11.026 -1.2696  0.0116 -0.8015
  896MOL0     H18250   0.053   1.297  10.938  0.8617  3.2794  1.0809
  896MOL0     H18251  -0.007   1.177  11.059  2.7102 -2.2287 -0.5305
  896MOL0     H18252   0.166   1.413  11.129 -0.7813  3.0419 -0.0913
  896MOL0     H18253   0.050   1.329  11.234 -0.2217  1.0392  0.2941
  896MOL0     H18254   0.855   1.347  10.874 -0.3758 -1.5960  1.2574
  896MOL0     H18255   1.040   1.458  10.772  1.7003  0.4646  0.5516
  896MOL0     H18256   1.465   1.336  10.524 -2.8801  0.9583  0.4578
  896MOL0     H18257   1.674   1.413  10.416  0.8363  1.9888 -0.5699
  896MOL0     H18258   3.257   1.493  10.467 -0.6327 -1.2679 -0.7855
  896MOL0     H18259   3.508   1.498  10.475  2.2934 -0.1761  3.3271
  896MOL0     H18260   3.962   1.373  10.740  0.1836  0.8599  0.3458
  896MOL0     H18261   4.175   1.412  10.684 -0.8468 -0.6368  1.4091
  896MOL0     H18262   4.466   1.499  10.459  0.0831  2.4521  0.0437
  896MOL0     H18263   4.384   1.445  10.596  1.6056  0.4712 -0.5423
  896MOL0     H18264   4.257   1.658  10.604  0.7027  3.8459 -0.3242
  896MOL0     H18265   4.425   1.656  10.645  1.2865  0.3618  0.1652
  896MOL0     H18266   4.370   1.843  10.523 -0.6346  1.5312 -1.5441
  896MOL0     H18267   4.318   1.765  10.372  1.3819  3.0886 -0.2748
  896MOL0     H18268   4.526   1.688  10.333 -2.3513  0.7602 -0.7056
  896MOL0     H18269   4.540   1.860  10.347  0.4063  0.5145 -0.2260
  896MOL0     H18270   4.814   1.716  10.631  0.9427  1.7596 -0.0981
  896MOL0     H18271   4.075   1.407  10.266  3.0999  1.4895  0.6095
  896MOL0     H18272   3.856   1.345  10.323  0.4189  2.4957 -1.3605
  897MOL0     O18273   8.254   6.356   9.303 -0.0584  0.1572 -0.0984
  897MOL0     C18274   8.271   6.274   9.207 -1.0190 -0.1549 -0.6398
  897MOL0     O18275   8.209   6.154   9.186 -0.0374  0.3536 -0.3164
  897MOL0     C18276   8.087   6.138   9.250 -0.2804  0.0926  0.2705
  897MOL0     C18277   7.986   6.230   9.233 -0.1949 -0.4605  0.4503
  897MOL0     C18278   7.851   6.208   9.280  0.1108 -0.1170  0.3930
  897MOL0     C18279   7.839   6.106   9.370  0.7931 -0.9609 -0.8628
  897MOL0     O18280   7.712   6.078   9.418  0.5019 -0.3283  0.4188
  897MOL0     C18281   7.659   6.187   9.491  0.6075  0.6553  0.9552
  897MOL0     C18282   7.513   6.156   9.509  0.7879  0.7752  0.1470
  897MOL0     C18283   7.437   6.276   9.575  0.5489 -0.3954 -1.1649
  897MOL0     C18284   7.496   6.313   9.713 -0.4427 -0.3325 -0.1785
  897MOL0     C18285   7.388   6.388   9.799 -0.7506  0.3476 -0.3926
  897MOL0     C18286   7.266   6.299   9.838 -0.5240  0.5020  0.7211
  897MOL0     C18287   7.142   6.386   9.881  0.1276  0.0710  0.3085
  897MOL0     C18288   7.047   6.382   9.766  0.6334  0.3583  0.4352
  897MOL0     N18289   6.910   6.422   9.821 -0.1012 -0.0102 -0.1568
  897MOL0     C18290   6.820   6.331   9.855 -0.1829  0.4912  0.2736
  897MOL0     C18291   6.701   6.393   9.841 -0.0642 -0.6170 -0.3735
  897MOL0     C18292   6.576   6.330   9.880 -0.7628 -0.4247  0.7071
  897MOL0     C18293   6.463   6.383   9.788 -0.8380  0.2255  0.6606
  897MOL0     C18294   6.395   6.495   9.839  0.5387 -1.3308  0.3714
  897MOL0     C18295   6.295   6.561   9.745  0.3429  0.6115  0.7133
  897MOL0     O18296   6.177   6.475   9.720 -0.1080  0.0544 -0.6543
  897MOL0     C18297   6.076   6.514   9.644  0.3450 -0.3753  1.0249
  897MOL0     C18298   6.077   6.619   9.550 -0.2562 -0.1964  0.0311
  897MOL0     C18299   5.965   6.642   9.459  0.9878  0.2419 -0.2465
  897MOL0     C18300   5.852   6.552   9.461 -0.1169 -0.1411 -0.3500
  897MOL0     C18301   5.728   6.598   9.397 -0.5055  0.6227 -0.1587
  897MOL0     O18302   5.715   6.726   9.372 -0.1509 -0.3147 -0.3929
  897MOL0     C18303   5.607   6.763   9.309 -0.1690  0.2334 -0.2868
  897MOL0     C18304   5.646   6.839   9.192 -0.2776 -0.2442  0.0493
  897MOL0     C18305   5.541   6.894   9.114 -0.0099  0.7075  0.3914
  897MOL0     C18306   5.409   6.876   9.157 -0.1031 -1.1813 -0.0760
  897MOL0     O18307   5.308   6.935   9.080  0.0342 -0.0273 -0.2632
  897MOL0     C18308   5.219   6.839   9.019 -0.3923 -1.0735 -0.1527
  897MOL0     C18309   5.168   6.901   8.894  0.0339 -0.0138  0.6186
  897MOL0     C18310   5.097   6.804   8.792  0.8048 -1.6134 -0.3145
  897MOL0     C18311   4.963   6.749   8.837  0.1246  0.7309 -0.4832
  897MOL0     C18312   4.851   6.853   8.800  0.6575 -0.3176 -0.8789
  897MOL0     C18313   4.721   6.807   8.858  0.5434 -0.6262 -0.1780
  897MOL0     C18314   4.611   6.914   8.835  0.1256  0.9137 -0.6787
  897MOL0     C18315   4.486   6.882   8.918  0.0930  0.1300  0.5866
  897MOL0    Cl18316   4.364   7.011   8.891  0.1592 -0.4244  0.1415
  897MOL0     C18317   5.369   6.798   9.274 -0.2092 -0.6935 -0.5490
  897MOL0     C18318   5.470   6.740   9.349  0.7300 -0.8395  0.7204
  897MOL0     O18319   5.653   6.506   9.364  0.3711 -0.9573  0.7782
  897MOL0     C18320   5.859   6.444   9.546 -0.2460 -0.2904 -0.2523
  897MOL0     C18321   5.970   6.422   9.633 -0.4114 -0.2217  0.3208
  897MOL0     N18322   6.723   6.527   9.807  0.5009  0.5090  0.4443
  897MOL0     N18323   6.844   6.536   9.794  0.0659  0.3840  0.6447
  897MOL0     C18324   7.939   6.017   9.399  0.3662  0.6902  0.4605
  897MOL0     C18325   8.070   6.032   9.342  0.0397 -0.8760 -0.6483
  897MOL0     C18326   8.382   6.303   9.115 -0.0907  0.0822 -0.1480
  897MOL0     C18327   8.429   6.204   9.024 -0.2363 -0.5831  0.3482
  897MOL0     C18328   8.527   6.239   8.940  0.0210 -0.6301  0.6805
  897MOL0     C18329   8.609   6.359   8.948 -0.5305  0.3994 -0.0526
  897MOL0     O18330   8.720   6.364   8.866  0.0589  0.2391  0.3345
  897MOL0     C18331   8.838   6.430   8.918 -0.0254 -0.3591  0.4583
  897MOL0     C18332   8.949   6.329   8.891 -0.6060 -0.1021 -0.0019
  897MOL0     C18333   9.090   6.371   8.918 -0.6762  0.1901 -0.7198
  897MOL0     C18334   9.208   6.319   8.826  0.3732 -0.6078  0.0466
  897MOL0     C18335   9.229   6.179   8.846 -0.3050  0.1830 -0.0277
  897MOL0     C18336   9.263   6.060   8.864 -0.1552 -0.0445 -0.8069
  897MOL0     C18337   8.580   6.446   9.054  0.0213  0.4696 -0.4654
  897MOL0     C18338   8.465   6.418   9.131 -0.6770 -0.4950  0.7273
  897MOL0     H18339   8.010   6.302   9.156  1.1216 -1.4834 -0.1322
  897MOL0     H18340   7.774   6.278   9.249  0.5708  0.8078  1.2799
  897MOL0     H18341   7.661   6.281   9.436 -1.9474  0.7035  0.8168
  897MOL0     H18342   7.721   6.205   9.580  1.7100  2.2908 -0.0901
  897MOL0     H18343   7.504   6.071   9.577 -0.6308  0.5173 -0.3228
  897MOL0     H18344   7.464   6.132   9.414  1.1296 -0.0385  0.1691
  897MOL0     H18345   7.331   6.253   9.581  0.7033 -0.7701  4.0606
  897MOL0     H18346   7.447   6.368   9.515  0.8912  0.0874 -0.3881
  897MOL0     H18347   7.532   6.226   9.769  0.3417 -0.1150 -0.3321
  897MOL0     H18348   7.584   6.371   9.685 -0.2058  0.1509  1.4217
  897MOL0     H18349   7.354   6.483   9.757 -0.9111  0.6330  0.3791
  897MOL0     H18350   7.431   6.412   9.896 -0.4330 -3.5351  0.6001
  897MOL0     H18351   7.287   6.229   9.919  2.6404 -1.2200 -1.3797
  897MOL0     H18352   7.232   6.234   9.757  1.9892  1.1279 -0.9523
  897MOL0     H18353   7.086   6.348   9.968 -0.0077  2.7826  1.5046
  897MOL0     H18354   7.166   6.490   9.907 -1.0424  0.0095  1.8203
  897MOL0     H18355   7.025   6.284   9.725 -2.1682  0.7848  0.7130
  897MOL0     H18356   7.087   6.449   9.690  1.1769 -0.3902  0.0496
  897MOL0     H18357   6.839   6.226   9.874 -0.9729  0.7454  2.7910
  897MOL0     H18358   6.558   6.356   9.984 -1.1168  0.8615  0.3344
  897MOL0     H18359   6.589   6.222   9.869  1.3122 -0.1095 -0.3517
  897MOL0     H18360   6.382   6.309   9.787 -2.1419  1.5757  1.5074
  897MOL0     H18361   6.504   6.398   9.688  3.8919 -1.6700  2.0314
  897MOL0     H18362   6.335   6.473   9.927  0.9731  0.6374  1.2013
  897MOL0     H18363   6.468   6.576   9.855 -0.3647  0.3733 -3.0212
  897MOL0     H18364   6.339   6.579   9.646  0.7709 -0.7756  0.6236
  897MOL0     H18365   6.270   6.657   9.791  1.0686  0.6699  0.9930
  897MOL0     H18366   6.156   6.693   9.534  1.3239 -1.5596  1.1929
  897MOL0     H18367   5.959   6.729   9.395  2.5824 -0.5449 -1.5324
  897MOL0     H18368   5.746   6.875   9.172 -0.5557 -0.5465 -2.0694
  897MOL0     H18369   5.554   6.941   9.017  1.9933  0.6815  0.5973
  897MOL0     H18370   5.136   6.839   9.090 -1.2163 -0.2423 -1.0939
  897MOL0     H18371   5.275   6.748   8.996  3.3216  0.9432  0.0236
  897MOL0     H18372   5.258   6.945   8.849  0.5286  1.7572  3.0783
  897MOL0     H18373   5.102   6.986   8.916 -1.8997 -0.9653 -1.1736
  897MOL0     H18374   5.157   6.715   8.774 -0.3671 -2.3128 -0.8627
  897MOL0     H18375   5.080   6.857   8.698 -3.1668  1.7456  1.9370
  897MOL0     H18376   4.941   6.669   8.767  0.2131  1.2697 -1.1356
  897MOL0     H18377   4.964   6.716   8.941  1.8766  0.6463 -0.5020
  897MOL0     H18378   4.837   6.868   8.692 -0.2830 -1.5811 -0.9580
  897MOL0     H18379   4.869   6.954   8.837 -1.3691 -0.0939 -0.3932
  897MOL0     H18380   4.736   6.788   8.965  0.0688  0.3469  0.0711
  897MOL0     H18381   4.684   6.715   8.812 -1.6092  0.2291 -0.2589
  897MOL0     H18382   4.654   7.012   8.860 -2.3144  2.1677 -1.1495
  897MOL0     H18383   4.581   6.923   8.730  0.2452  0.4130 -0.7575
  897MOL0     H18384   4.501   6.890   9.026  1.1594  0.7037  0.4045
  897MOL0     H18385   4.452   6.781   8.893 -0.2494 -0.0489  1.6954
  897MOL0     H18386   5.268   6.775   9.306  0.0253  0.0565  0.7862
  897MOL0     H18387   5.446   6.672   9.430 -2.3367 -2.4292 -1.3223
  897MOL0     H18388   5.783   6.368   9.562 -1.0502  0.6714  0.6650
  897MOL0     H18389   5.970   6.334   9.695 -1.0083  0.5173  1.4014
  897MOL0     H18390   7.938   5.946   9.481  1.3946 -0.6561 -0.6253
  897MOL0     H18391   8.158   5.971   9.362 -0.9679 -2.0030  0.5316
  897MOL0     H18392   8.379   6.109   9.007  1.0633 -0.9696 -1.5640
  897MOL0     H18393   8.549   6.163   8.865  1.4837 -1.2315  1.6688
  897MOL0     H18394   8.839   6.454   9.025  3.3121  2.2392  0.0145
  897MOL0     H18395   8.854   6.521   8.860 -0.2648 -0.2722  0.5287
  897MOL0     H18396   8.935   6.247   8.962  2.2985 -1.2993 -0.6951
  897MOL0     H18397   8.937   6.286   8.791 -4.2827 -2.5261  1.2774
  897MOL0     H18398   9.110   6.343   9.022 -3.0445 -1.0656 -0.5362
  897MOL0     H18399   9.100   6.480   8.918  1.0458  0.1123  1.4580
  897MOL0     H18400   9.180   6.335   8.721 -0.3800 -0.6059  0.2391
  897MOL0     H18401   9.301   6.374   8.843 -1.1866  1.5702  2.4059
  897MOL0     H18402   9.295   5.958   8.878  1.9896  0.7427  0.6620
  897MOL0     H18403   8.643   6.533   9.073  0.8229 -0.3619  0.8168
  897MOL0     H18404   8.449   6.496   9.206  3.2883  0.5706  0.7120
  898MOL0     O18405   6.897   8.900   9.598 -0.0715 -0.0900  0.4869
  898MOL0     C18406   6.901   8.984   9.687 -0.1344 -0.2711 -0.0504
  898MOL0     O18407   6.833   8.978   9.806  0.5849 -0.2284 -0.0991
  898MOL0     C18408   6.709   8.914   9.804 -0.3674  0.3898  0.4205
  898MOL0     C18409   6.689   8.781   9.794 -0.0106  1.3982  0.1266
  898MOL0     C18410   6.566   8.732   9.752  0.1315  0.7458 -0.4276
  898MOL0     C18411   6.453   8.811   9.737  1.1289  0.0467  0.1464
  898MOL0     O18412   6.336   8.753   9.690 -0.4535  0.3371 -0.3540
  898MOL0     C18413   6.210   8.822   9.684  0.4020 -0.0519 -0.0580
  898MOL0     C18414   6.089   8.741   9.653  1.3013  0.6822  0.5073
  898MOL0     C18415   5.958   8.835   9.649 -0.5943 -0.1189  0.0119
  898MOL0     C18416   5.829   8.764   9.604  0.3700  0.4252 -0.2611
  898MOL0     C18417   5.805   8.796   9.456  0.1043  0.6449  0.5255
  898MOL0     C18418   5.674   8.718   9.418 -0.3300 -0.6642  0.2586
  898MOL0     C18419   5.659   8.720   9.264 -0.2346 -0.4734 -0.4091
  898MOL0     C18420   5.527   8.666   9.208 -0.1854 -0.4603  0.3927
  898MOL0     N18421   5.407   8.744   9.245  0.1268  0.3680 -0.5443
  898MOL0     C18422   5.385   8.881   9.225 -1.0312  0.8145 -0.7314
  898MOL0     C18423   5.263   8.892   9.282  0.2084 -0.5982 -0.1686
  898MOL0     C18424   5.196   9.028   9.299 -0.9118 -0.6817 -0.6642
  898MOL0     C18425   5.043   9.003   9.323  0.3813  0.5887  0.4603
  898MOL0     C18426   4.964   8.964   9.201  0.2227  0.2976 -0.6203
  898MOL0     C18427   4.810   9.000   9.206 -0.4571 -0.4961 -0.5722
  898MOL0     O18428   4.750   8.894   9.294 -0.0520 -0.4554  0.1898
  898MOL0     C18429   4.619   8.909   9.314 -0.1621  0.0107  0.0599
  898MOL0     C18430   4.533   8.997   9.244  0.4612 -0.8305 -0.1388
  898MOL0     C18431   4.400   9.010   9.289 -0.7071  0.0108  0.3039
  898MOL0     C18432   4.349   8.925   9.386  0.0738  0.7666  0.1105
  898MOL0     C18433   4.212   8.911   9.420 -0.6166 -0.0367 -0.0578
  898MOL0     O18434   4.175   8.827   9.521 -0.1376  0.7957 -0.5870
  898MOL0     C18435   4.044   8.824   9.554  0.4271 -0.1418 -0.4095
  898MOL0     C18436   3.956   8.772   9.453 -0.4578  0.8083 -0.0187
  898MOL0     C18437   3.823   8.748   9.473  0.4591 -0.7048  0.4990
  898MOL0     C18438   3.773   8.780   9.602  0.1233 -0.0118 -0.0411
  898MOL0     O18439   3.640   8.758   9.642  0.6178 -0.1828  0.1041
  898MOL0     C18440   3.557   8.667   9.562  0.3237  0.0991 -0.4885
  898MOL0     C18441   3.424   8.675   9.635  0.0195  0.3415  0.7031
  898MOL0     C18442   3.311   8.593   9.559 -0.1548  0.3253 -0.9582
  898MOL0     C18443   3.198   8.552   9.662  0.1985 -0.1543  0.2879
  898MOL0     C18444   3.077   8.492   9.599 -0.3990  0.4905  0.5662
  898MOL0     C18445   3.109   8.374   9.504  0.6678  0.0074 -0.2450
  898MOL0     C18446   2.968   8.302   9.456  0.0228  0.1407  0.0936
  898MOL0     C18447   2.930   8.194   9.552  0.9367 -0.6894  0.7782
  898MOL0    Cl18448   2.765   8.136   9.514  0.4360  0.3551 -0.2393
  898MOL0     C18449   3.856   8.829   9.703 -0.1526 -0.5388  0.5425
  898MOL0     C18450   3.990   8.846   9.678 -0.4179 -0.0573 -0.3187
  898MOL0     O18451   4.133   8.979   9.353 -0.1941 -0.2451  1.0466
  898MOL0     C18452   4.434   8.839   9.449 -0.1966 -0.4467 -1.0115
  898MOL0     C18453   4.566   8.829   9.409 -0.5132 -0.2203  0.1505
  898MOL0     N18454   5.210   8.773   9.327  0.1737 -0.2220  0.2613
  898MOL0     N18455   5.303   8.679   9.299  1.1062  0.3228 -0.5632
  898MOL0     C18456   6.472   8.942   9.740  0.3138 -0.2509 -0.0779
  898MOL0     C18457   6.597   8.996   9.779  0.1805  0.1433  0.6755
  898MOL0     C18458   7.013   9.087   9.676  0.0599 -0.3460 -0.1695
  898MOL0     C18459   7.130   9.061   9.600 -0.1119  0.0098 -0.6398
  898MOL0     C18460   7.234   9.151   9.602 -0.0088  0.0454 -0.3719
  898MOL0     C18461   7.227   9.271   9.665 -0.4104 -0.5680  0.7669
  898MOL0     O18462   7.324   9.364   9.691 -0.2537 -0.2794  0.1809
  898MOL0     C18463   7.458   9.324   9.726  0.2810  0.5448 -0.2145
  898MOL0     C18464   7.477   9.355   9.874  0.5132 -0.1347 -0.4934
  898MOL0     C18465   7.616   9.297   9.907 -0.6140 -0.2188 -0.2321
  898MOL0     C18466   7.662   9.320  10.054 -0.0314 -0.0881  0.7787
  898MOL0     C18467   7.780   9.240  10.076 -0.8554 -0.4305  0.1776
  898MOL0     C18468   7.873   9.166  10.065 -0.3674  0.2817  0.1150
  898MOL0     C18469   7.111   9.295   9.746  0.0849  0.8062 -0.0500
  898MOL0     C18470   7.009   9.205   9.750 -0.3671 -0.1759 -0.1310
  898MOL0     H18471   6.779   8.720   9.799  0.4353  2.0889  0.6204
  898MOL0     H18472   6.570   8.630   9.716  1.9224  0.4067  0.6077
  898MOL0     H18473   6.212   8.906   9.613 -0.1163  0.9197  1.0422
  898MOL0     H18474   6.188   8.862   9.783  1.3853  0.7680 -0.1523
  898MOL0     H18475   6.080   8.670   9.735 -1.0589  0.6961  0.3087
  898MOL0     H18476   6.096   8.684   9.560 -0.5356  0.5803  0.3993
  898MOL0     H18477   5.982   8.911   9.574 -0.3333 -0.1744  0.0371
  898MOL0     H18478   5.953   8.882   9.748  2.7737 -0.7446  0.6029
  898MOL0     H18479   5.844   8.656   9.614  0.0791  0.4653  0.6304
  898MOL0     H18480   5.739   8.788   9.662 -1.4731  0.0272 -2.7514
  898MOL0     H18481   5.878   8.762   9.381 -1.5115  2.5273 -2.0882
  898MOL0     H18482   5.787   8.903   9.443 -0.1427  0.5141 -0.2873
  898MOL0     H18483   5.586   8.771   9.456 -1.1459 -1.2346 -0.7591
  898MOL0     H18484   5.677   8.614   9.453  0.0620 -1.7901 -2.8330
  898MOL0     H18485   5.665   8.827   9.242  0.1756 -0.6451 -1.1769
  898MOL0     H18486   5.746   8.668   9.224  1.3553  0.8403  1.1832
  898MOL0     H18487   5.504   8.565   9.243 -1.5934  0.0537  1.0437
  898MOL0     H18488   5.555   8.659   9.103  3.0370 -0.4345  1.1511
  898MOL0     H18489   5.444   8.962   9.185 -1.1365  0.6974 -1.1346
  898MOL0     H18490   5.209   9.096   9.215 -2.2908 -0.1516 -0.4758
  898MOL0     H18491   5.230   9.081   9.388 -0.9063  0.6994 -1.4653
  898MOL0     H18492   4.993   9.092   9.361 -0.3678 -0.1997  1.3608
  898MOL0     H18493   5.023   8.934   9.405 -0.5802  3.1446  2.5080
  898MOL0     H18494   5.016   9.024   9.125  0.2476  1.1256  0.0397
  898MOL0     H18495   4.980   8.856   9.192  2.3126  0.2056  2.4761
  898MOL0     H18496   4.772   8.989   9.104 -0.1833 -0.0586 -0.7240
  898MOL0     H18497   4.798   9.101   9.247  1.1026 -0.6945  0.4541
  898MOL0     H18498   4.567   9.061   9.163 -1.2947  1.1038  0.5764
  898MOL0     H18499   4.340   9.084   9.236  1.0189  0.4221 -1.2053
  898MOL0     H18500   4.000   8.747   9.357 -0.1876  4.5605 -1.0178
  898MOL0     H18501   3.770   8.703   9.390  3.4938 -0.0173 -2.0378
  898MOL0     H18502   3.603   8.568   9.563  1.2461  0.5186  0.7635
  898MOL0     H18503   3.547   8.690   9.456 -2.3413 -3.4079 -1.2050
  898MOL0     H18504   3.395   8.780   9.624 -0.1920  0.0428 -2.6160
  898MOL0     H18505   3.434   8.647   9.740  2.8460  0.1472  0.4614
  898MOL0     H18506   3.349   8.505   9.505 -0.7721 -0.4157 -0.2075
  898MOL0     H18507   3.269   8.658   9.483 -1.2849  1.7362  0.7993
  898MOL0     H18508   3.241   8.476   9.729 -0.4365 -1.0927 -0.3521
  898MOL0     H18509   3.170   8.646   9.711 -1.8505  0.3920 -1.7766
  898MOL0     H18510   3.014   8.559   9.539  0.5552 -0.9661 -2.2588
  898MOL0     H18511   3.013   8.463   9.683  1.2720  1.4439  2.2518
  898MOL0     H18512   3.182   8.308   9.551  4.3309  1.5804 -3.2773
  898MOL0     H18513   3.151   8.406   9.409 -1.6850 -0.3420 -1.4747
  898MOL0     H18514   2.890   8.378   9.464  2.1452  2.3854  0.8166
  898MOL0     H18515   2.986   8.275   9.352 -1.5596  0.1239 -0.1866
  898MOL0     H18516   2.942   8.226   9.656  2.0898 -1.1483  0.8011
  898MOL0     H18517   3.001   8.111   9.542  1.5458 -0.0323 -0.6812
  898MOL0     H18518   3.815   8.846   9.802 -0.3308 -0.3878  0.4423
  898MOL0     H18519   4.043   8.878   9.768  1.8567 -0.4720 -1.4318
  898MOL0     H18520   4.399   8.789   9.538  1.1093  2.7247  1.4762
  898MOL0     H18521   4.627   8.762   9.469 -2.6677 -2.3646  0.1012
  898MOL0     H18522   6.385   9.005   9.725 -0.2817 -1.0486 -0.0413
  898MOL0     H18523   6.597   9.104   9.787 -2.9053  0.3232 -0.4718
  898MOL0     H18524   7.142   8.966   9.550 -3.3632 -2.1429  2.2267
  898MOL0     H18525   7.323   9.144   9.540  1.1053  1.5028  0.9972
  898MOL0     H18526   7.525   9.386   9.665  0.0469 -2.1011 -3.4408
  898MOL0     H18527   7.477   9.217   9.713  1.4494  0.2580  2.9355
  898MOL0     H18528   7.473   9.462   9.897  1.5774 -0.8886  4.2638
  898MOL0     H18529   7.395   9.313   9.932  0.4600 -0.1045 -0.5467
  898MOL0     H18530   7.672   9.360   9.838 -4.0946  1.3322 -1.9211
  898MOL0     H18531   7.635   9.196   9.869  2.5757  0.2998 -0.2657
  898MOL0     H18532   7.690   9.422  10.080  1.2323 -0.7490  2.1945
  898MOL0     H18533   7.586   9.283  10.123 -0.2372 -1.4128 -0.1206
  898MOL0     H18534   7.939   9.082  10.057  0.7166  1.0770  0.3677
  898MOL0     H18535   7.105   9.387   9.804 -1.3242  1.3758 -1.0319
  898MOL0     H18536   6.918   9.237   9.801  0.4969 -0.3446  1.5510
  899MOL0     O18537   9.440   1.518   0.726 -0.3331  0.0681  0.5033
  899MOL0     C18538   9.464   1.636   0.713 -0.2926 -0.7033  0.3386
  899MOL0     O18539   9.384   1.736   0.667 -0.5817  0.6413  0.0098
  899MOL0     C18540   9.254   1.710   0.607 -0.9947 -0.1027 -0.6110
  899MOL0     C18541   9.176   1.597   0.617 -1.1270  1.1002  0.4349
  899MOL0     C18542   9.056   1.579   0.546  0.0662  0.6601 -0.1645
  899MOL0     C18543   9.014   1.682   0.458 -0.3683  0.1449 -0.9459
  899MOL0     O18544   8.896   1.651   0.393  0.3452 -0.1116  0.3515
  899MOL0     C18545   8.852   1.750   0.300  0.9151 -0.2569 -0.3226
  899MOL0     C18546   8.702   1.724   0.292  0.0595 -0.0929  0.7032
  899MOL0     C18547   8.657   1.597   0.238 -0.2430 -0.1754  0.3513
  899MOL0     C18548   8.500   1.584   0.219  0.4521  0.3380  0.2368
  899MOL0     C18549   8.451   1.443   0.179  0.9195 -0.1527 -0.0639
  899MOL0     C18550   8.302   1.454   0.133 -0.4078 -0.2655  0.0545
  899MOL0     C18551   8.238   1.310   0.137  0.3011 -0.7679  0.4500
  899MOL0     C18552   8.269   1.232   0.001  0.1799 -1.0225 -0.4411
  899MOL0     N18553   8.205   1.282  -0.121 -0.0118  0.4650  0.8671
  899MOL0     C18554   8.113   1.385  -0.135  0.2219  0.8157  0.1973
  899MOL0     C18555   8.107   1.408  -0.268  0.7194 -0.3034  0.3834
  899MOL0     C18556   8.038   1.516  -0.352  0.0429 -0.7981 -0.2072
  899MOL0     C18557   7.929   1.465  -0.443 -0.3613  0.2175 -0.2970
  899MOL0     C18558   7.809   1.396  -0.371 -0.0492 -0.5524  0.4183
  899MOL0     C18559   7.700   1.338  -0.474 -0.6780  0.1533  0.4025
  899MOL0     O18560   7.643   1.449  -0.544 -0.6955 -0.0058 -0.9831
  899MOL0     C18561   7.536   1.433  -0.630 -0.3368  0.0609 -0.4685
  899MOL0     C18562   7.453   1.322  -0.638 -0.0459  0.0159 -0.2581
  899MOL0     C18563   7.339   1.324  -0.719 -0.2959 -0.1017 -0.3938
  899MOL0     C18564   7.306   1.440  -0.785  0.1483 -0.8568  0.6401
  899MOL0     C18565   7.177   1.444  -0.865  0.0118 -0.1650  0.1572
  899MOL0     O18566   7.168   1.535  -0.967 -0.4059  0.4644 -0.2579
  899MOL0     C18567   7.050   1.565  -1.027  0.0221 -0.1836 -0.4599
  899MOL0     C18568   6.918   1.559  -0.977  0.2749 -0.7587 -0.5057
  899MOL0     C18569   6.807   1.597  -1.051  0.0237  0.1864  0.0633
  899MOL0     C18570   6.824   1.659  -1.180  0.0526 -0.0579 -1.1127
  899MOL0     O18571   6.727   1.731  -1.242 -0.7046  0.7360 -0.4697
  899MOL0     C18572   6.617   1.773  -1.165 -0.9818 -0.0014 -0.0560
  899MOL0     C18573   6.539   1.870  -1.254 -0.6768  0.3103  0.9797
  899MOL0     C18574   6.400   1.900  -1.212 -0.0011  0.3118  0.0617
  899MOL0     C18575   6.316   1.974  -1.328 -0.5524 -0.2622 -0.5243
  899MOL0     C18576   6.352   2.129  -1.333 -1.2978  0.0583  0.5210
  899MOL0     C18577   6.257   2.206  -1.429 -0.4512 -0.0119  0.0371
  899MOL0     C18578   6.233   2.136  -1.561 -0.4191 -0.1256  0.5838
  899MOL0     C18579   6.174   2.239  -1.655  0.9974  0.0528  0.3210
  899MOL0    Cl18580   6.098   2.161  -1.803  0.1073 -0.3661 -0.0205
  899MOL0     C18581   6.949   1.662  -1.226 -0.2613  1.1750 -0.8242
  899MOL0     C18582   7.055   1.619  -1.147 -1.0086 -0.2344  0.2289
  899MOL0     O18583   7.096   1.358  -0.836  0.2056  0.2117  0.1856
  899MOL0     C18584   7.385   1.556  -0.770  0.0936  0.1758  0.3521
  899MOL0     C18585   7.504   1.551  -0.696 -0.2994  0.3473  0.6635
  899MOL0     N18586   8.184   1.322  -0.336  0.4103  0.6477 -0.4409
  899MOL0     N18587   8.243   1.246  -0.246  0.0313  0.0685  0.6468
  899MOL0     C18588   9.097   1.790   0.438  0.3277  0.3448  0.2912
  899MOL0     C18589   9.210   1.802   0.516 -0.6053 -0.4376  0.5284
  899MOL0     C18590   9.605   1.675   0.748  0.2679 -0.3208 -0.2456
  899MOL0     C18591   9.649   1.806   0.707  0.3631 -0.1903 -1.0364
  899MOL0     C18592   9.785   1.835   0.719 -0.0754  0.4123  0.4323
  899MOL0     C18593   9.882   1.740   0.755  0.1712 -0.4847  0.3715
  899MOL0     O18594  10.013   1.766   0.787  0.1946  0.2239 -0.2886
  899MOL0     C18595  10.067   1.891   0.748 -0.2733 -0.4003 -0.4003
  899MOL0     C18596  10.213   1.899   0.773 -0.2848  0.3560 -0.5485
  899MOL0     C18597  10.305   1.804   0.699 -0.8663  0.1620  0.5729
  899MOL0     C18598  10.451   1.850   0.679  0.4707  0.4165  1.0157
  899MOL0     C18599  10.523   1.861   0.805 -0.0152  0.1580 -0.5380
  899MOL0     C18600  10.584   1.863   0.915 -0.4254 -0.2587 -0.3319
  899MOL0     C18601   9.835   1.613   0.785 -0.1244  0.5166  1.0665
  899MOL0     C18602   9.701   1.581   0.780 -0.2703  0.1066 -0.0142
  899MOL0     H18603   9.207   1.511   0.675  1.5474  1.3016 -0.5650
  899MOL0     H18604   9.001   1.486   0.552  1.5057 -0.3380 -1.5553
  899MOL0     H18605   8.896   1.727   0.203  1.9369 -2.0904  0.5038
  899MOL0     H18606   8.867   1.853   0.332  0.1921 -0.5049  0.8954
  899MOL0     H18607   8.664   1.800   0.224  1.6389  0.4756  0.4289
  899MOL0     H18608   8.656   1.741   0.390 -0.1073  2.8069  0.1981
  899MOL0     H18609   8.694   1.508   0.289 -0.1810 -1.2179 -1.4147
  899MOL0     H18610   8.700   1.591   0.137  0.6396  0.3713  0.6802
  899MOL0     H18611   8.450   1.608   0.313  0.2455 -0.4234  0.3277
  899MOL0     H18612   8.460   1.654   0.145  0.0159 -0.2317 -0.0663
  899MOL0     H18613   8.463   1.362   0.252  0.4569  0.8535  1.1722
  899MOL0     H18614   8.509   1.420   0.089  0.4118 -0.7014 -0.2577
  899MOL0     H18615   8.294   1.503   0.035 -2.5533  2.2849  1.3543
  899MOL0     H18616   8.265   1.508   0.221 -0.4333 -0.0446 -0.0918
  899MOL0     H18617   8.275   1.255   0.225  0.2220 -0.8966  0.4034
  899MOL0     H18618   8.131   1.320   0.157  0.2633 -1.1646  0.4637
  899MOL0     H18619   8.233   1.130   0.015 -4.4501  0.7462  3.4500
  899MOL0     H18620   8.378   1.231   0.006  0.1456 -1.0129  0.5096
  899MOL0     H18621   8.061   1.446  -0.062 -3.7838  0.9213 -2.4365
  899MOL0     H18622   8.111   1.567  -0.415 -0.4713 -0.7863 -0.8061
  899MOL0     H18623   7.994   1.597  -0.293 -1.0594 -2.3387  1.1796
  899MOL0     H18624   7.974   1.385  -0.502 -0.1696  1.4550 -1.9067
  899MOL0     H18625   7.894   1.542  -0.512  1.7141 -1.5988 -3.6149
  899MOL0     H18626   7.844   1.309  -0.316 -0.1440 -1.2125 -0.5516
  899MOL0     H18627   7.757   1.458  -0.297 -0.9119 -1.6045  0.7289
  899MOL0     H18628   7.624   1.276  -0.427  0.0014 -0.7758  0.2869
  899MOL0     H18629   7.749   1.269  -0.544  0.0910 -2.7944  3.6088
  899MOL0     H18630   7.482   1.226  -0.597  1.3314  0.0282 -1.1128
  899MOL0     H18631   7.272   1.238  -0.714 -2.2258  1.3613  0.3525
  899MOL0     H18632   6.902   1.523  -0.875  0.3513  0.4177 -0.0588
  899MOL0     H18633   6.711   1.589  -1.001  1.3649  2.8665  3.5919
  899MOL0     H18634   6.656   1.820  -1.074 -0.4289 -1.5685  0.5613
  899MOL0     H18635   6.554   1.691  -1.128  0.1528 -0.5638  0.6943
  899MOL0     H18636   6.523   1.814  -1.346  0.1043  0.1945  0.9036
  899MOL0     H18637   6.601   1.955  -1.284 -1.3391  0.3674 -0.3195
  899MOL0     H18638   6.397   1.965  -1.123  0.7521  2.4114 -1.3679
  899MOL0     H18639   6.347   1.809  -1.184 -0.3972  0.7550  0.7846
  899MOL0     H18640   6.322   1.930  -1.428  1.1984  0.0237 -0.5750
  899MOL0     H18641   6.215   1.983  -1.287 -1.2163 -0.4563 -2.0577
  899MOL0     H18642   6.455   2.134  -1.370 -1.2036 -0.8558  0.6299
  899MOL0     H18643   6.355   2.173  -1.233  1.8540 -1.0327  1.0132
  899MOL0     H18644   6.285   2.310  -1.445 -1.5753  0.4381  0.8567
  899MOL0     H18645   6.158   2.213  -1.383 -1.1123  0.9717 -1.4402
  899MOL0     H18646   6.324   2.087  -1.597 -0.7669 -2.1670  2.2308
  899MOL0     H18647   6.166   2.050  -1.556  1.9231 -2.1489 -0.5479
  899MOL0     H18648   6.255   2.299  -1.698 -0.5414  1.8173 -0.2634
  899MOL0     H18649   6.102   2.304  -1.604  1.8603 -0.2050  1.9663
  899MOL0     H18650   6.972   1.720  -1.315  1.6064  0.7976 -0.6329
  899MOL0     H18651   7.155   1.624  -1.188 -0.3271 -1.3852  1.6686
  899MOL0     H18652   7.352   1.645  -0.823  0.8139  0.1534 -0.1522
  899MOL0     H18653   7.561   1.643  -0.694  1.4683 -0.6538 -0.5113
  899MOL0     H18654   9.073   1.860   0.358  0.5260 -3.2360 -3.1855
  899MOL0     H18655   9.276   1.887   0.502 -0.7374 -0.2797  0.8411
  899MOL0     H18656   9.585   1.881   0.662  1.3800  0.7578 -0.9491
  899MOL0     H18657   9.821   1.935   0.696  0.9836 -0.0339  0.1009
  899MOL0     H18658  10.024   1.974   0.805  0.2685  0.3628 -1.0858
  899MOL0     H18659  10.052   1.904   0.640  0.4729  1.5665 -0.3187
  899MOL0     H18660  10.249   2.002   0.764 -1.1196  1.6340  6.1541
  899MOL0     H18661  10.235   1.878   0.878  1.3767  0.1511 -0.8975
  899MOL0     H18662  10.258   1.796   0.600  1.2782 -1.3830 -0.3861
  899MOL0     H18663  10.313   1.708   0.749  2.2781 -0.3264 -0.6767
  899MOL0     H18664  10.507   1.784   0.613  0.6400 -0.3161  1.8821
  899MOL0     H18665  10.450   1.951   0.637  0.5871  0.5233  1.2688
  899MOL0     H18666  10.640   1.876   1.005  0.3216 -0.4196 -0.7616
  899MOL0     H18667   9.902   1.531   0.811  0.6612  1.2591  1.4241
  899MOL0     H18668   9.668   1.488   0.825 -0.5670  0.7759  1.1950
  900MOL0     O18669   9.792   1.957   7.222  0.0714  0.6102  0.2182
  900MOL0     C18670   9.902   1.971   7.279  0.9116  0.6605 -0.0670
  900MOL0     O18671   9.923   1.961   7.414 -0.4562  0.2770 -0.4131
  900MOL0     C18672   9.819   1.904   7.478 -0.8053  0.2560  0.5258
  900MOL0     C18673   9.818   1.763   7.499  0.8575  0.7553 -0.5169
  900MOL0     C18674   9.715   1.698   7.564  0.4946  0.7158 -0.9530
  900MOL0     C18675   9.601   1.772   7.605  0.0829  0.3206  0.4374
  900MOL0     O18676   9.502   1.707   7.666 -0.3136  0.1693  0.4976
  900MOL0     C18677   9.370   1.743   7.622 -0.0923 -0.2982  0.0252
  900MOL0     C18678   9.276   1.624   7.629 -0.1317  0.2242 -0.4288
  900MOL0     C18679   9.136   1.655   7.567 -0.2980  0.0469 -0.3700
  900MOL0     C18680   9.053   1.737   7.668 -1.7831 -1.2999  0.5214
  900MOL0     C18681   8.917   1.794   7.616 -0.3484  0.2502 -0.2573
  900MOL0     C18682   8.840   1.874   7.724 -1.2376  0.1270  0.1018
  900MOL0     C18683   8.699   1.904   7.673 -0.4366  0.1532 -0.7841
  900MOL0     C18684   8.643   2.025   7.752  0.5015 -0.4434  0.0515
  900MOL0     N18685   8.558   2.126   7.678 -0.0876  0.9178  0.9196
  900MOL0     C18686   8.430   2.121   7.680  0.3274 -0.0042  0.3029
  900MOL0     C18687   8.383   2.218   7.604 -0.0011 -0.1968 -0.2705
  900MOL0     C18688   8.250   2.261   7.580 -0.7050 -0.2735  0.0390
  900MOL0     C18689   8.197   2.227   7.444  0.2053  0.8911 -0.8160
  900MOL0     C18690   8.065   2.310   7.425 -0.6981 -0.0010  1.0227
  900MOL0     C18691   8.020   2.287   7.280 -0.2501  0.0554 -0.3313
  900MOL0     O18692   7.904   2.364   7.258 -0.5585  0.1417  0.4938
  900MOL0     C18693   7.861   2.380   7.127  0.6079 -0.6231 -1.0824
  900MOL0     C18694   7.774   2.485   7.128  0.1354 -0.0160 -0.5097
  900MOL0     C18695   7.707   2.512   7.008 -0.3328  0.3279 -0.7318
  900MOL0     C18696   7.734   2.438   6.888 -0.8188 -0.3958 -0.3377
  900MOL0     C18697   7.664   2.494   6.768  0.1178  0.1122 -0.1546
  900MOL0     O18698   7.686   2.433   6.651 -0.7059 -0.3266 -0.3954
  900MOL0     C18699   7.603   2.463   6.541  0.3357  0.4610 -0.7817
  900MOL0     C18700   7.476   2.417   6.545 -0.2158 -0.9613  0.1463
  900MOL0     C18701   7.390   2.437   6.437  0.3495  0.2396  0.4710
  900MOL0     C18702   7.442   2.504   6.325  0.3759  0.5235  0.5951
  900MOL0     O18703   7.337   2.540   6.239  0.2718  0.5885 -0.0226
  900MOL0     C18704   7.356   2.636   6.143  0.3790  0.1024 -0.5721
  900MOL0     C18705   7.434   2.595   6.020 -0.4101  0.1504 -0.3683
  900MOL0     C18706   7.353   2.498   5.931  0.7726  0.3319  0.5585
  900MOL0     C18707   7.435   2.429   5.813 -0.0062 -0.4550  0.4984
  900MOL0     C18708   7.343   2.324   5.740 -0.4384 -0.0805 -0.5350
  900MOL0     C18709   7.207   2.381   5.688 -0.0391  0.5448 -0.7731
  900MOL0     C18710   7.141   2.282   5.590 -0.0994 -0.3474 -0.2827
  900MOL0     C18711   7.021   2.342   5.530 -0.5770 -0.5064 -0.1277
  900MOL0    Cl18712   6.959   2.251   5.390  0.2885 -0.3760  0.1494
  900MOL0     C18713   7.569   2.567   6.322  0.8392  0.0657  0.5339
  900MOL0     C18714   7.648   2.535   6.435 -0.5940 -0.3240 -0.1507
  900MOL0     O18715   7.600   2.596   6.778 -0.0472 -0.2746 -0.0929
  900MOL0     C18716   7.822   2.334   6.891 -0.2361 -0.5821  0.4677
  900MOL0     C18717   7.889   2.304   7.015  0.3937  0.2347  0.0291
  900MOL0     N18718   8.494   2.283   7.558  0.1478  0.7022  0.1730
  900MOL0     N18719   8.603   2.219   7.596 -0.0251  0.2899 -0.1347
  900MOL0     C18720   9.604   1.911   7.582  0.1608  0.1827  0.9742
  900MOL0     C18721   9.713   1.981   7.525  0.1602  0.7187  0.5796
  900MOL0     C18722  10.025   1.974   7.188 -0.2937 -0.0185  0.4984
  900MOL0     C18723  10.009   1.991   7.048  1.0374 -0.2513 -0.0918
  900MOL0     C18724  10.113   1.998   6.966 -0.5605 -0.1509  0.0052
  900MOL0     C18725  10.245   1.999   7.014  0.9154  0.2375  0.3261
  900MOL0     O18726  10.350   2.019   6.925 -0.0615 -0.4146 -0.7104
  900MOL0     C18727  10.485   2.034   6.958 -0.6704  0.5873 -0.5151
  900MOL0     C18728  10.572   2.011   6.837  0.7774  0.0172 -1.3996
  900MOL0     C18729  10.717   2.019   6.879 -0.0282 -0.2841  0.1470
  900MOL0     C18730  10.802   2.049   6.761  0.0220  0.0418  1.1037
  900MOL0     C18731  10.950   2.038   6.789 -0.0952 -0.2199  0.7831
  900MOL0     C18732  11.067   2.036   6.816  0.5448  0.0767 -0.5792
  900MOL0     C18733  10.274   1.968   7.151  0.1960 -0.2855  0.2613
  900MOL0     C18734  10.157   1.954   7.241 -0.3656 -0.8708 -0.2365
  900MOL0     H18735   9.899   1.707   7.452  0.5436  0.0447 -0.2311
  900MOL0     H18736   9.722   1.592   7.587 -0.1273  0.1396 -3.2118
  900MOL0     H18737   9.364   1.794   7.526 -3.3123  1.1780  0.8799
  900MOL0     H18738   9.331   1.816   7.694 -0.0934 -0.3454  0.0731
  900MOL0     H18739   9.275   1.595   7.734  1.7601 -0.4085 -0.5453
  900MOL0     H18740   9.319   1.543   7.569 -0.0487  0.8798 -1.2698
  900MOL0     H18741   9.085   1.558   7.560  2.2799 -1.3931 -0.5879
  900MOL0     H18742   9.146   1.706   7.471  0.0026  0.2641 -0.2227
  900MOL0     H18743   9.046   1.683   7.763 -1.4525 -1.4331  0.4718
  900MOL0     H18744   9.110   1.827   7.694 -0.1893 -2.0359 -0.2913
  900MOL0     H18745   8.852   1.714   7.579  0.3610 -0.1035 -0.7660
  900MOL0     H18746   8.935   1.871   7.540 -0.7632  1.4951  0.8637
  900MOL0     H18747   8.898   1.966   7.729  0.4026 -0.6092 -3.0059
  900MOL0     H18748   8.848   1.823   7.820 -1.2718 -0.7521 -0.3539
  900MOL0     H18749   8.701   1.936   7.568  1.2938  0.0673 -0.8126
  900MOL0     H18750   8.637   1.817   7.697 -0.5567 -0.1068 -1.9387
  900MOL0     H18751   8.731   2.084   7.780 -0.1462  0.2084  0.7620
  900MOL0     H18752   8.589   1.997   7.843  0.3859 -2.3514 -0.5486
  900MOL0     H18753   8.360   2.061   7.737 -1.8892  2.7613  0.6853
  900MOL0     H18754   8.250   2.371   7.578  1.0343 -0.2353  0.4409
  900MOL0     H18755   8.177   2.227   7.654  0.6004  1.0741  2.0529
  900MOL0     H18756   8.172   2.121   7.436 -0.5055  0.9880  0.0436
  900MOL0     H18757   8.275   2.262   7.375  2.9787  1.5781  2.4189
  900MOL0     H18758   7.985   2.272   7.489  0.6136 -2.2521  1.4311
  900MOL0     H18759   8.079   2.417   7.442 -1.6198  0.1329  1.0248
  900MOL0     H18760   7.986   2.183   7.268 -0.2033  0.1881 -1.7532
  900MOL0     H18761   8.096   2.300   7.202 -0.2061 -4.8733 -1.4685
  900MOL0     H18762   7.755   2.543   7.218 -1.6779 -1.7664  0.3130
  900MOL0     H18763   7.650   2.604   7.012  0.1282  0.5789  0.6755
  900MOL0     H18764   7.448   2.357   6.631 -3.1327 -3.3469 -2.2451
  900MOL0     H18765   7.291   2.392   6.432  0.9974 -1.2307  0.1894
  900MOL0     H18766   7.424   2.714   6.180  2.1776 -0.9505 -1.5124
  900MOL0     H18767   7.265   2.695   6.131  1.0663  2.4715  3.7139
  900MOL0     H18768   7.531   2.552   6.047  1.1885  2.2300 -2.4545
  900MOL0     H18769   7.466   2.678   5.957  0.7411 -0.4946 -0.6657
  900MOL0     H18770   7.264   2.546   5.889  0.4036  1.1995  2.2174
  900MOL0     H18771   7.316   2.415   5.993  2.1096  1.2522  2.7057
  900MOL0     H18772   7.465   2.506   5.742 -1.3914 -0.0759  0.2876
  900MOL0     H18773   7.525   2.380   5.850 -0.3070 -0.3788  1.3521
  900MOL0     H18774   7.320   2.234   5.798  0.1221  0.2336  0.1742
  900MOL0     H18775   7.397   2.283   5.654  2.6421  0.4534  1.0198
  900MOL0     H18776   7.233   2.478   5.645  0.3720  0.9541  0.3437
  900MOL0     H18777   7.151   2.382   5.782  0.0845 -0.3947 -0.6780
  900MOL0     H18778   7.213   2.267   5.509 -0.8670  0.7503 -1.1861
  900MOL0     H18779   7.109   2.186   5.633 -2.3710  0.3398 -0.3446
  900MOL0     H18780   7.037   2.445   5.496 -0.8066 -0.5817 -0.4703
  900MOL0     H18781   6.941   2.357   5.603 -0.4077  0.9231 -0.2014
  900MOL0     H18782   7.608   2.625   6.239  1.3763  0.5281  1.0961
  900MOL0     H18783   7.746   2.579   6.448 -0.8118 -0.3041  1.6616
  900MOL0     H18784   7.849   2.277   6.803 -0.6873 -1.0073  0.6013
  900MOL0     H18785   7.963   2.224   7.012  1.0024  0.8010 -0.2667
  900MOL0     H18786   9.526   1.977   7.619 -0.5456 -0.2762  0.3391
  900MOL0     H18787   9.712   2.089   7.522 -0.8209  0.7202  0.6368
  900MOL0     H18788   9.912   1.980   7.001  1.2720 -1.6704 -0.2829
  900MOL0     H18789  10.104   2.011   6.859 -0.8062  3.6062  0.3351
  900MOL0     H18790  10.514   1.958   7.031  2.5880  2.4981  0.4350
  900MOL0     H18791  10.500   2.129   7.010 -0.1821 -0.2632  0.9380
  900MOL0     H18792  10.543   1.916   6.791 -1.3019  0.1977 -0.5498
  900MOL0     H18793  10.557   2.084   6.757  2.5056  1.2576 -0.6569
  900MOL0     H18794  10.743   1.919   6.917  0.3434 -0.7290 -1.2114
  900MOL0     H18795  10.739   2.096   6.952  0.9242 -1.9890  1.7506
  900MOL0     H18796  10.773   1.988   6.676 -0.4879  0.3860  1.0272
  900MOL0     H18797  10.792   2.155   6.735  1.1390  0.5038  2.4211
  900MOL0     H18798  11.173   2.021   6.826  0.6654  1.7797  1.5176
  900MOL0     H18799  10.370   1.943   7.196  0.8965 -1.2255 -1.6183
  900MOL0     H18800  10.173   1.937   7.347  1.9928  1.4197 -0.1085
  901MOL0     O18801   0.129   4.525   7.124 -0.3504  0.2968  0.2023
  901MOL0     C18802   0.146   4.461   7.015 -0.6796  0.6643 -0.2718
  901MOL0     O18803   0.059   4.455   6.906  1.2222  0.1550 -0.1377
  901MOL0     C18804  -0.080   4.469   6.930  0.1776 -0.0175  0.2693
  901MOL0     C18805  -0.151   4.520   6.827 -0.4590  0.8973 -0.0637
  901MOL0     C18806  -0.287   4.538   6.822 -0.1970 -0.5802  0.2652
  901MOL0     C18807  -0.362   4.508   6.931  0.1953 -0.5096 -1.0982
  901MOL0     O18808  -0.501   4.517   6.926  0.3848  0.6387  0.4425
  901MOL0     C18809  -0.567   4.499   7.049  0.1836 -0.7188  0.5628
  901MOL0     C18810  -0.708   4.516   7.025  0.6561  0.4108 -0.7613
  901MOL0     C18811  -0.807   4.499   7.142  0.0443  1.8781 -1.2641
  901MOL0     C18812  -0.960   4.508   7.093  0.6240 -0.0108  0.5069
  901MOL0     C18813  -1.063   4.474   7.200  0.4563 -0.8334  0.4801
  901MOL0     C18814  -1.031   4.550   7.332  0.5700 -0.5452  0.0524
  901MOL0     C18815  -1.147   4.532   7.434 -0.1050 -0.3979 -1.1053
  901MOL0     C18816  -1.260   4.641   7.420  0.8828 -0.1476  0.1759
  901MOL0     N18817  -1.338   4.653   7.550 -0.3356 -0.4758  0.3515
  901MOL0     C18818  -1.423   4.561   7.591 -0.1993 -0.8128 -0.0220
  901MOL0     C18819  -1.459   4.612   7.712  0.3327  0.1475 -0.2553
  901MOL0     C18820  -1.567   4.550   7.802 -0.2687  0.3936  0.7213
  901MOL0     C18821  -1.704   4.591   7.754  0.0817 -0.4737  0.1021
  901MOL0     C18822  -1.807   4.505   7.824  0.7673  0.2469 -0.0511
  901MOL0     C18823  -1.951   4.546   7.792  0.4350  0.6704  0.1133
  901MOL0     O18824  -2.057   4.490   7.875 -0.2111 -0.5002 -0.7932
  901MOL0     C18825  -2.189   4.512   7.823 -0.4873 -0.1477 -0.4812
  901MOL0     C18826  -2.237   4.603   7.725  0.5904  0.2859 -0.0724
  901MOL0     C18827  -2.372   4.602   7.682  0.2527 -0.2320 -0.3074
  901MOL0     C18828  -2.462   4.525   7.750 -0.1485  0.0086 -0.1442
  901MOL0     C18829  -2.611   4.527   7.712 -0.1227  0.1906 -0.0155
  901MOL0     O18830  -2.658   4.606   7.616 -0.8100  0.2428  0.5038
  901MOL0     C18831  -2.795   4.637   7.597 -0.2823  0.4501 -0.1351
  901MOL0     C18832  -2.870   4.582   7.497 -0.1166  0.6956  0.1785
  901MOL0     C18833  -3.001   4.614   7.473 -0.4377  0.2784 -0.3773
  901MOL0     C18834  -3.065   4.710   7.557 -0.1455  0.0775 -0.5133
  901MOL0     O18835  -3.191   4.743   7.518 -0.1334 -0.9119 -0.8065
  901MOL0     C18836  -3.274   4.828   7.610  0.2123 -0.1152 -0.2859
  901MOL0     C18837  -3.398   4.886   7.544 -0.1787 -0.6483  0.8862
  901MOL0     C18838  -3.475   4.791   7.446 -0.5146  0.1229 -0.7698
  901MOL0     C18839  -3.603   4.860   7.392 -0.8436 -0.0571  0.4459
  901MOL0     C18840  -3.707   4.886   7.503  0.0456  0.6113  0.0066
  901MOL0     C18841  -3.848   4.884   7.451  0.1613 -0.0568 -0.0595
  901MOL0     C18842  -3.879   5.014   7.367  0.1572 -0.1746 -1.2562
  901MOL0     C18843  -4.004   5.009   7.276 -0.5798  1.2601  0.1797
  901MOL0    Cl18844  -4.149   4.922   7.350 -0.0442 -0.1540  0.3521
  901MOL0     C18845  -2.998   4.752   7.670 -0.6329  0.6000  0.3113
  901MOL0     C18846  -2.862   4.718   7.687 -0.1369  0.3013  0.1734
  901MOL0     O18847  -2.673   4.453   7.786  0.2429  0.4768 -0.6823
  901MOL0     C18848  -2.419   4.439   7.854  0.3166 -0.3124 -0.1802
  901MOL0     C18849  -2.288   4.430   7.889 -0.3945 -0.5891  0.7126
  901MOL0     N18850  -1.403   4.733   7.736  0.0505 -0.0339 -0.0603
  901MOL0     N18851  -1.336   4.762   7.631  0.5506  0.4167 -0.9733
  901MOL0     C18852  -0.288   4.465   7.049  0.7851  0.8772  0.1084
  901MOL0     C18853  -0.150   4.436   7.044  0.0102  1.0576 -0.1153
  901MOL0     C18854   0.288   4.398   7.008 -0.7911  0.4366 -0.6510
  901MOL0     C18855   0.391   4.407   7.102  0.9082  0.0362  0.2492
  901MOL0     C18856   0.517   4.341   7.093 -0.0426 -0.4405  0.3308
  901MOL0     C18857   0.543   4.264   6.974  0.0292  0.0074 -0.4937
  901MOL0     O18858   0.659   4.186   6.952  0.2256 -0.6908  0.2989
  901MOL0     C18859   0.752   4.159   7.050  0.0139  0.4031  0.2268
  901MOL0     C18860   0.871   4.106   6.982 -0.2819  0.7685  0.4483
  901MOL0     C18861   0.928   4.199   6.872  0.5417 -0.4602 -1.4399
  901MOL0     C18862   1.073   4.159   6.841 -0.5543  0.0203  0.3385
  901MOL0     C18863   1.173   4.179   6.946 -0.2520 -0.2710 -0.2392
  901MOL0     C18864   1.270   4.202   7.019  1.0648  0.2256  0.2889
  901MOL0     C18865   0.441   4.261   6.876  0.2041  0.3306  1.0969
  901MOL0     C18866   0.311   4.322   6.893  0.1865  0.5592 -0.2753
  901MOL0     H18867  -0.105   4.554   6.735  0.7109  1.3690  0.6725
  901MOL0     H18868  -0.336   4.580   6.735 -1.2390 -1.4638  0.4084
  901MOL0     H18869  -0.537   4.573   7.124  0.5092 -0.3843  0.1019
  901MOL0     H18870  -0.556   4.394   7.080  0.8996 -1.1082 -0.9530
  901MOL0     H18871  -0.731   4.442   6.948  0.0953 -0.4376  0.1975
  901MOL0     H18872  -0.720   4.613   6.975 -2.4721 -0.0008 -0.9796
  901MOL0     H18873  -0.793   4.579   7.216 -2.8699  0.0105  1.5624
  901MOL0     H18874  -0.796   4.405   7.195 -2.0233  0.9868 -2.2927
  901MOL0     H18875  -0.972   4.612   7.059  1.4505 -0.1954 -0.4013
  901MOL0     H18876  -0.965   4.435   7.012 -1.3816  1.6522 -0.9926
  901MOL0     H18877  -1.072   4.368   7.225  0.1581 -0.9280  0.0037
  901MOL0     H18878  -1.157   4.517   7.163  0.1010  0.4421  2.7191
  901MOL0     H18879  -0.989   4.647   7.304  1.1367 -0.4930  1.0581
  901MOL0     H18880  -0.942   4.510   7.382  1.5675  2.7790  1.1970
  901MOL0     H18881  -1.206   4.441   7.420 -0.6695 -0.9233  3.3160
  901MOL0     H18882  -1.119   4.520   7.539 -1.4884  1.0241 -0.5413
  901MOL0     H18883  -1.320   4.614   7.332  1.4387 -3.1677  0.6065
  901MOL0     H18884  -1.223   4.744   7.412 -1.5887  0.7350 -0.9313
  901MOL0     H18885  -1.459   4.468   7.547 -0.3957 -0.8179  0.1493
  901MOL0     H18886  -1.551   4.583   7.905 -2.4873 -1.8708  1.8863
  901MOL0     H18887  -1.538   4.445   7.801  4.4369  1.4165  2.9867
  901MOL0     H18888  -1.710   4.562   7.649  0.6898 -1.2481  0.2707
  901MOL0     H18889  -1.724   4.695   7.780 -0.9143 -0.8563  0.9307
  901MOL0     H18890  -1.787   4.401   7.799  1.3334 -0.3290  2.4844
  901MOL0     H18891  -1.799   4.519   7.932 -2.1392  2.6605 -0.0127
  901MOL0     H18892  -1.979   4.516   7.691 -6.8996  0.3976  1.7212
  901MOL0     H18893  -1.955   4.655   7.800  1.8334  0.6521  1.6905
  901MOL0     H18894  -2.171   4.674   7.677  0.8500  0.0801 -0.0212
  901MOL0     H18895  -2.404   4.653   7.591  2.1713  1.6473 -0.0270
  901MOL0     H18896  -2.815   4.520   7.426  0.9772  3.2440 -1.3365
  901MOL0     H18897  -3.050   4.568   7.388 -0.3324  0.5713 -0.5964
  901MOL0     H18898  -3.211   4.912   7.642  2.6437 -1.5431 -1.0220
  901MOL0     H18899  -3.316   4.773   7.695 -1.5918 -1.5132 -1.9934
  901MOL0     H18900  -3.363   4.977   7.494  0.1834 -0.5895  1.2375
  901MOL0     H18901  -3.473   4.922   7.616 -2.0734 -2.2760 -0.1809
  901MOL0     H18902  -3.508   4.706   7.506  1.0505 -0.5497 -0.7972
  901MOL0     H18903  -3.415   4.753   7.363 -1.2462 -0.9004 -0.8393
  901MOL0     H18904  -3.585   4.958   7.347  0.5485 -0.7952 -0.6937
  901MOL0     H18905  -3.642   4.787   7.321 -1.1039 -0.9519  1.4729
  901MOL0     H18906  -3.693   4.977   7.562 -0.3262  0.7197 -0.0722
  901MOL0     H18907  -3.700   4.804   7.575  1.0211 -0.8173 -1.6475
  901MOL0     H18908  -3.923   4.879   7.530 -1.1068 -0.6176 -1.2728
  901MOL0     H18909  -3.847   4.795   7.386 -0.3211  0.3207 -0.5884
  901MOL0     H18910  -3.896   5.093   7.440 -1.1429 -0.1231 -1.6083
  901MOL0     H18911  -3.789   5.042   7.311  1.6725  0.9170  1.5004
  901MOL0     H18912  -3.978   4.957   7.183  1.1684  1.5177  0.4945
  901MOL0     H18913  -4.008   5.115   7.249  1.7810  1.4843  0.4985
  901MOL0     H18914  -3.047   4.826   7.733 -1.1421 -0.1012  0.7525
  901MOL0     H18915  -2.804   4.750   7.773 -0.3448  0.0170  0.4180
  901MOL0     H18916  -2.492   4.372   7.900 -0.3948 -0.3012 -1.2634
  901MOL0     H18917  -2.258   4.370   7.974 -0.1991 -1.9930 -0.3020
  901MOL0     H18918  -0.328   4.447   7.149  0.4488  1.9208  0.1710
  901MOL0     H18919  -0.086   4.397   7.122  1.2770 -0.8530 -1.9810
  901MOL0     H18920   0.363   4.473   7.182 -0.6937  2.5587 -2.2111
  901MOL0     H18921   0.590   4.354   7.172 -0.5357  0.4997  0.6415
  901MOL0     H18922   0.724   4.083   7.124  1.3724  0.4454  0.8094
  901MOL0     H18923   0.781   4.253   7.099 -2.5549  1.0195  0.7172
  901MOL0     H18924   0.952   4.078   7.050 -0.1538 -0.1600 -0.0666
  901MOL0     H18925   0.848   4.011   6.932 -2.2881 -0.0251  2.7155
  901MOL0     H18926   0.936   4.305   6.896  1.2746 -0.5599 -1.2300
  901MOL0     H18927   0.865   4.202   6.782 -1.0137  0.8718 -0.3751
  901MOL0     H18928   1.051   4.053   6.823 -2.2627  0.3322  0.3919
  901MOL0     H18929   1.106   4.201   6.745 -0.4159  1.2478  0.9123
  901MOL0     H18930   1.355   4.209   7.084 -0.9544 -1.1202  3.3101
  901MOL0     H18931   0.446   4.197   6.788 -2.7822  0.4137  0.7461
  901MOL0     H18932   0.235   4.314   6.816 -0.9461 -1.7896  0.9889
  902MOL0     O18933   8.222   8.164   9.016 -0.0913  0.3499  0.0283
  902MOL0     C18934   8.281   8.255   9.072  0.1214 -0.1094  0.3387
  902MOL0     O18935   8.221   8.360   9.128  0.2089 -0.1483  0.4105
  902MOL0     C18936   8.085   8.346   9.150  0.0115  0.1783 -0.7037
  902MOL0     C18937   8.030   8.257   9.245  0.6933  0.7258 -0.2633
  902MOL0     C18938   7.895   8.252   9.260 -0.9882 -0.7397 -0.5428
  902MOL0     C18939   7.812   8.330   9.177 -0.4855  0.1210 -0.0977
  902MOL0     O18940   7.674   8.322   9.175 -0.6044 -0.3895 -0.4515
  902MOL0     C18941   7.601   8.221   9.251 -0.3941 -0.6449 -0.2060
  902MOL0     C18942   7.459   8.268   9.263  1.0621 -0.1318 -0.5888
  902MOL0     C18943   7.381   8.171   9.358  1.4380 -0.0468  0.3490
  902MOL0     C18944   7.229   8.209   9.354 -0.3240 -0.5735  0.7956
  902MOL0     C18945   7.148   8.089   9.356 -1.2328 -0.0852  0.1734
  902MOL0     C18946   7.000   8.106   9.413  0.1895  0.1826  0.3443
  902MOL0     C18947   6.904   7.989   9.387  0.1568  0.7345 -0.1967
  902MOL0     C18948   6.911   7.883   9.501 -0.7828 -0.0170 -0.1153
  902MOL0     N18949   6.828   7.767   9.472  0.9488 -0.4675 -0.3889
  902MOL0     C18950   6.830   7.676   9.371  0.0117  0.0537 -0.1366
  902MOL0     C18951   6.749   7.573   9.403  0.3678 -0.2592  0.4123
  902MOL0     C18952   6.709   7.461   9.303  1.0041  0.1060 -0.2266
  902MOL0     C18953   6.579   7.484   9.224  0.0566 -0.6768  0.9370
  902MOL0     C18954   6.449   7.425   9.282 -0.2405  0.2028 -0.2520
  902MOL0     C18955   6.326   7.484   9.205 -0.0402 -0.0294  0.0550
  902MOL0     O18956   6.324   7.455   9.065 -0.1915  0.0903 -0.0089
  902MOL0     C18957   6.225   7.509   8.990  0.5449  0.6162 -0.1179
  902MOL0     C18958   6.090   7.526   9.028  0.2621 -0.7335 -0.6322
  902MOL0     C18959   5.989   7.569   8.937  0.2064  0.0919 -0.3442
  902MOL0     C18960   6.021   7.576   8.798 -0.8151  0.5934  0.1662
  902MOL0     C18961   5.917   7.615   8.705 -0.3461 -0.0152 -0.6810
  902MOL0     O18962   5.805   7.679   8.762 -0.1566  0.3274  0.1011
  902MOL0     C18963   5.696   7.693   8.676  0.9013  0.1601 -0.3691
  902MOL0     C18964   5.564   7.673   8.721  0.3016  0.3507 -0.9335
  902MOL0     C18965   5.450   7.688   8.642 -0.2465 -0.3338 -0.7199
  902MOL0     C18966   5.465   7.717   8.511  0.0654 -0.0298 -0.0019
  902MOL0     O18967   5.363   7.743   8.423 -0.0134 -0.2444 -0.0031
  902MOL0     C18968   5.236   7.683   8.441  0.4992 -0.3513 -0.2663
  902MOL0     C18969   5.214   7.551   8.377 -0.2905 -0.1189  0.3154
  902MOL0     C18970   5.079   7.500   8.380  0.9360 -0.4332 -0.7643
  902MOL0     C18971   5.018   7.491   8.524 -0.9232  0.0204  0.3911
  902MOL0     C18972   4.878   7.451   8.521  0.3789  0.3543 -0.7887
  902MOL0     C18973   4.862   7.305   8.485  0.3315 -0.2561  0.1720
  902MOL0     C18974   4.714   7.252   8.505 -0.5482 -0.4433 -0.1759
  902MOL0     C18975   4.653   7.207   8.372  0.0532  0.3549  0.3230
  902MOL0    Cl18976   4.622   7.343   8.280 -0.3351 -0.1764 -0.0776
  902MOL0     C18977   5.596   7.739   8.465  0.1589  0.7998 -0.6045
  902MOL0     C18978   5.708   7.732   8.541  0.0766 -0.3348  0.2565
  902MOL0     O18979   5.932   7.569   8.594  0.1637  0.3662  0.2140
  902MOL0     C18980   6.158   7.564   8.765 -0.1655 -1.1339 -0.1812
  902MOL0     C18981   6.258   7.534   8.860 -0.1232  0.5174 -0.9506
  902MOL0     N18982   6.705   7.598   9.536  0.4630  0.3097  0.4570
  902MOL0     N18983   6.733   7.727   9.561  0.2787  0.2121  0.0932
  902MOL0     C18984   7.866   8.415   9.080 -0.0717 -0.7305  0.8636
  902MOL0     C18985   8.001   8.423   9.069 -0.2115 -0.4822  0.2656
  902MOL0     C18986   8.426   8.253   9.051 -0.1355 -0.3361 -0.7447
  902MOL0     C18987   8.506   8.372   9.086 -0.5241  0.1217  0.3417
  902MOL0     C18988   8.643   8.373   9.083 -0.6845 -0.0717  0.8346
  902MOL0     C18989   8.719   8.259   9.042  0.4849  0.7964 -0.3715
  902MOL0     O18990   8.856   8.262   9.039 -0.3600  0.3314 -0.0742
  902MOL0     C18991   8.924   8.137   9.081 -0.2787 -0.4659 -0.1018
  902MOL0     C18992   9.072   8.158   9.056  0.8365 -0.2553 -0.7902
  902MOL0     C18993   9.144   8.027   9.101  0.8452 -0.8748  0.0586
  902MOL0     C18994   9.292   8.013   9.078 -0.0711 -0.1637  0.7934
  902MOL0     C18995   9.371   8.108   9.154  0.5537  0.3454 -0.1808
  902MOL0     C18996   9.423   8.182   9.236 -0.2824 -0.3006  0.0391
  902MOL0     C18997   8.643   8.141   9.023  0.4638  0.2815  0.9138
  902MOL0     C18998   8.500   8.138   9.018  0.4611 -0.9694 -0.7395
  902MOL0     H18999   8.115   8.220   9.302  0.8908 -1.8214 -2.0747
  902MOL0     H19000   7.857   8.177   9.329  0.8034  0.0229  1.3793
  902MOL0     H19001   7.641   8.196   9.350  2.8632 -3.8726 -2.0976
  902MOL0     H19002   7.607   8.126   9.198 -0.3008 -0.2074 -0.9982
  902MOL0     H19003   7.414   8.292   9.167  0.9554  5.1184  0.4865
  902MOL0     H19004   7.463   8.366   9.311  0.8091 -1.8652  3.4146
  902MOL0     H19005   7.415   8.179   9.462  1.2631 -2.6383  0.6705
  902MOL0     H19006   7.385   8.070   9.316 -1.7096  0.0902 -0.5169
  902MOL0     H19007   7.208   8.272   9.441  1.5838  1.2176  0.0470
  902MOL0     H19008   7.192   8.268   9.269  0.2098  0.2220  1.1095
  902MOL0     H19009   7.193   8.011   9.418 -1.9799  0.0388  0.9029
  902MOL0     H19010   7.147   8.046   9.255  1.6215  1.7017 -0.7273
  902MOL0     H19011   6.955   8.191   9.360 -2.6939 -1.3201  0.1496
  902MOL0     H19012   6.996   8.134   9.518  0.9667  2.3680 -0.1512
  902MOL0     H19013   6.811   8.043   9.368  2.0713  5.4501  1.9376
  902MOL0     H19014   6.933   7.943   9.292 -0.2471 -1.5722  0.7564
  902MOL0     H19015   6.865   7.925   9.591  0.4093 -1.1979  1.0901
  902MOL0     H19016   7.011   7.850   9.529 -0.8824  0.3480  0.7070
  902MOL0     H19017   6.880   7.690   9.276 -1.9295  0.6357 -1.1099
  902MOL0     H19018   6.703   7.373   9.367 -0.8152  0.6115  0.3412
  902MOL0     H19019   6.791   7.461   9.230  1.3620  2.9605  0.0435
  902MOL0     H19020   6.594   7.438   9.125 -1.0833  0.2345  0.3124
  902MOL0     H19021   6.568   7.593   9.219 -0.2271 -0.7454 -0.3101
  902MOL0     H19022   6.445   7.316   9.278 -3.7767  0.1177  1.7802
  902MOL0     H19023   6.443   7.450   9.388 -0.9401 -0.8726 -0.0219
  902MOL0     H19024   6.306   7.590   9.224  0.2312  0.5214 -2.3536
  902MOL0     H19025   6.243   7.422   9.241  2.4369 -3.4508  0.3418
  902MOL0     H19026   6.065   7.506   9.132  1.0773 -1.1770 -0.5189
  902MOL0     H19027   5.889   7.588   8.973  0.7008  2.4803 -0.0627
  902MOL0     H19028   5.551   7.646   8.826 -0.6773  3.4516 -0.1552
  902MOL0     H19029   5.355   7.679   8.693  0.9552 -0.0126  1.7309
  902MOL0     H19030   5.168   7.757   8.399  1.5219 -0.2672 -1.8551
  902MOL0     H19031   5.208   7.677   8.547 -2.1258 -2.7612 -0.9586
  902MOL0     H19032   5.280   7.477   8.421 -1.6872 -0.8601  1.2490
  902MOL0     H19033   5.222   7.560   8.268 -1.0724 -1.0309  0.1621
  902MOL0     H19034   5.064   7.405   8.330  0.0742 -1.1129  0.7054
  902MOL0     H19035   5.017   7.569   8.322  0.1523 -0.0053  0.5231
  902MOL0     H19036   5.078   7.426   8.588  0.2626  2.3368  1.7772
  902MOL0     H19037   5.022   7.587   8.577  2.0481 -0.3412  1.0171
  902MOL0     H19038   4.822   7.511   8.449 -1.1079 -1.9450 -1.6408
  902MOL0     H19039   4.830   7.465   8.618 -0.3913 -1.9356 -0.7882
  902MOL0     H19040   4.932   7.253   8.552 -3.1734 -3.8376  1.4717
  902MOL0     H19041   4.899   7.279   8.385 -0.2349 -3.8776  0.7708
  902MOL0     H19042   4.729   7.166   8.571  2.4094 -0.2162 -0.4391
  902MOL0     H19043   4.651   7.322   8.561  3.6612  0.6108  3.9051
  902MOL0     H19044   4.561   7.152   8.396  0.1317 -1.5098 -3.0519
  902MOL0     H19045   4.723   7.140   8.321  0.3643  2.1021 -1.6449
  902MOL0     H19046   5.615   7.761   8.360 -0.7324  1.6260 -0.6037
  902MOL0     H19047   5.803   7.760   8.499  0.0785 -0.2651  0.3070
  902MOL0     H19048   6.186   7.584   8.662  2.0118 -1.7386  0.2424
  902MOL0     H19049   6.362   7.519   8.836 -0.3409 -1.9725 -0.5686
  902MOL0     H19050   7.807   8.480   9.016  1.1756 -0.7191 -0.3028
  902MOL0     H19051   8.046   8.488   8.994  0.2362 -4.2863 -3.1378
  902MOL0     H19052   8.461   8.466   9.116  1.2701  1.2834 -0.4440
  902MOL0     H19053   8.701   8.460   9.111 -0.8594 -0.7398  3.5306
  902MOL0     H19054   8.900   8.064   9.003 -0.2488 -1.2404  0.6074
  902MOL0     H19055   8.902   8.108   9.184 -0.1642 -0.2739 -0.0221
  902MOL0     H19056   9.080   8.162   8.947  0.9840  1.2392 -0.7367
  902MOL0     H19057   9.117   8.245   9.106 -0.1853  0.9083 -1.8522
  902MOL0     H19058   9.089   7.954   9.041 -1.3572  1.6236 -1.1705
  902MOL0     H19059   9.124   8.006   9.207 -0.2638 -0.4506 -0.0451
  902MOL0     H19060   9.330   7.914   9.106 -1.3726 -1.0948 -0.6042
  902MOL0     H19061   9.317   8.033   8.974 -1.9704  0.6616  0.4616
  902MOL0     H19062   9.485   8.249   9.292 -0.0370  2.7103 -3.4583
  902MOL0     H19063   8.685   8.041   9.013  1.1274  0.4935  1.5034
  902MOL0     H19064   8.444   8.047   9.000  1.5729 -1.7419 -0.4002
  903MOL0     O19065   7.570   0.034  10.809 -0.2150  0.3301 -0.5008
  903MOL0     C19066   7.648   0.077  10.896 -0.0773 -0.4111 -0.3981
  903MOL0     O19067   7.609   0.118  11.020  0.1800 -0.3361  0.0945
  903MOL0     C19068   7.474   0.121  11.047 -0.2029  0.3862 -1.1667
  903MOL0     C19069   7.403   0.244  11.022 -0.5741 -0.2835  0.1047
  903MOL0     C19070   7.269   0.256  11.048  0.2244  0.0694  1.0193
  903MOL0     C19071   7.196   0.138  11.086  0.3701 -0.5559 -0.2502
  903MOL0     O19072   7.055   0.130  11.113  0.0751  0.5014  0.5252
  903MOL0     C19073   6.970   0.241  11.122 -0.0658 -0.3712  0.3322
  903MOL0     C19074   6.856   0.218  11.222 -0.1581  0.1565  0.7354
  903MOL0     C19075   6.794   0.358  11.244  0.1282  0.1797  1.4337
  903MOL0     C19076   6.738   0.429  11.116 -0.2524 -0.4443 -0.7942
  903MOL0     C19077   6.711   0.572  11.152  0.0475  0.8283 -0.1345
  903MOL0     C19078   6.581   0.584  11.213  0.2725 -0.2791 -0.5348
  903MOL0     C19079   6.461   0.596  11.105 -0.2957  0.3003  0.2583
  903MOL0     C19080   6.446   0.724  11.028  0.4548 -0.2830  0.4133
  903MOL0     N19081   6.381   0.833  11.097  0.3437  1.1115  0.6399
  903MOL0     C19082   6.407   0.883  11.218  0.4815 -1.7869  0.0022
  903MOL0     C19083   6.307   0.977  11.235 -0.8023 -0.8110  0.5658
  903MOL0     C19084   6.292   1.063  11.350 -1.1154  0.5466 -1.2347
  903MOL0     C19085   6.151   1.047  11.413 -0.9271  0.4492 -0.0317
  903MOL0     C19086   6.141   1.132  11.532 -0.2374  0.6039  0.0215
  903MOL0     C19087   6.021   1.112  11.633 -0.0918  0.5513  0.1027
  903MOL0     O19088   6.006   0.979  11.672  0.2703 -0.3263  0.5252
  903MOL0     C19089   5.884   0.928  11.705 -0.3384  0.5408 -0.8740
  903MOL0     C19090   5.875   0.789  11.691 -0.5742  0.5642  0.2990
  903MOL0     C19091   5.755   0.722  11.718  0.4292 -0.3743  0.5228
  903MOL0     C19092   5.640   0.796  11.756 -0.4318 -0.1668 -0.6322
  903MOL0     C19093   5.516   0.725  11.797  0.9703  0.6559  0.0111
  903MOL0     O19094   5.402   0.794  11.777  0.3264  0.1806 -0.4838
  903MOL0     C19095   5.273   0.762  11.815  0.0702  0.1637 -0.2116
  903MOL0     C19096   5.170   0.855  11.795 -0.0256  0.4371  0.1356
  903MOL0     C19097   5.038   0.826  11.842  0.2030  0.0151 -0.1729
  903MOL0     C19098   5.004   0.709  11.919 -1.3280  0.3416 -0.3261
  903MOL0     O19099   4.882   0.699  11.987 -0.6053  0.7054 -0.0988
  903MOL0     C19100   4.766   0.738  11.911 -0.6462  0.3395 -0.1830
  903MOL0     C19101   4.644   0.722  11.997 -0.5875  0.4011  0.4895
  903MOL0     C19102   4.522   0.758  11.918 -0.3199  0.3913  0.0225
  903MOL0     C19103   4.398   0.774  12.019 -0.9343  0.6722 -0.3494
  903MOL0     C19104   4.259   0.788  11.965  0.0270  0.8143  0.5960
  903MOL0     C19105   4.207   0.652  11.912 -0.1062 -0.3228 -0.3489
  903MOL0     C19106   4.077   0.665  11.820 -0.6555  0.3445  0.0984
  903MOL0     C19107   4.028   0.532  11.767  0.2805  0.2900  0.1235
  903MOL0    Cl19108   4.026   0.418  11.903 -0.4665 -0.0835 -0.2914
  903MOL0     C19109   5.104   0.610  11.938 -0.4523  0.1855  0.5511
  903MOL0     C19110   5.237   0.641  11.885  0.4568  0.5033  0.5942
  903MOL0     O19111   5.531   0.626  11.871 -0.4531 -0.2787  0.5446
  903MOL0     C19112   5.646   0.931  11.766 -0.3010 -0.4185 -0.5628
  903MOL0     C19113   5.766   1.000  11.731  0.0951  0.0180  0.3809
  903MOL0     N19114   6.219   0.972  11.125 -0.7357 -0.1794  0.2083
  903MOL0     N19115   6.264   0.881  11.046 -0.0022 -0.1188  0.0664
  903MOL0     C19116   7.258   0.015  11.114 -0.3538 -0.0959  0.5936
  903MOL0     C19117   7.399   0.013  11.101  0.3502 -0.1680 -0.3721
  903MOL0     C19118   7.794   0.067  10.876  1.2155 -0.7109 -0.3134
  903MOL0     C19119   7.888   0.071  10.985 -0.5397 -0.0787 -0.7635
  903MOL0     C19120   8.023   0.062  10.965 -0.0563  0.1950  0.6514
  903MOL0     C19121   8.074   0.051  10.832  0.4677 -0.0783 -0.1138
  903MOL0     O19122   8.210   0.038  10.801  0.2398  0.4217 -0.2173
  903MOL0     C19123   8.288  -0.028  10.911 -1.0544  0.5231 -0.4378
  903MOL0     C19124   8.419  -0.095  10.846  0.5130 -0.2520  0.4136
  903MOL0     C19125   8.527   0.004  10.790 -0.7615 -0.0110  0.4957
  903MOL0     C19126   8.642  -0.080  10.731 -0.7459 -0.0406  1.1224
  903MOL0     C19127   8.744   0.017  10.678  0.3972  0.3333  0.0810
  903MOL0     C19128   8.830   0.081  10.617  0.7751 -0.2020  0.2043
  903MOL0     C19129   7.980   0.041  10.733 -0.3998 -0.0301 -0.3200
  903MOL0     C19130   7.846   0.049  10.754  0.4740  0.0286  0.3113
  903MOL0     H19131   7.463   0.325  10.982 -0.1318 -0.4155  0.4939
  903MOL0     H19132   7.211   0.348  11.036  0.0316 -0.2730 -1.0261
  903MOL0     H19133   6.922   0.256  11.025 -2.1176  0.6901  1.4364
  903MOL0     H19134   7.036   0.328  11.136  1.9862 -1.5105 -1.6025
  903MOL0     H19135   6.893   0.183  11.318  1.4209 -2.0813 -0.5821
  903MOL0     H19136   6.798   0.142  11.168  0.3577 -0.5942  1.2265
  903MOL0     H19137   6.868   0.420  11.296 -1.5531  2.4959  1.2540
  903MOL0     H19138   6.705   0.337  11.304  0.2589  0.1087  1.6014
  903MOL0     H19139   6.803   0.428  11.029  2.4586  0.1794  1.1055
  903MOL0     H19140   6.656   0.363  11.086  1.4410 -2.6069 -0.8824
  903MOL0     H19141   6.724   0.633  11.062 -2.1087 -0.9249 -1.7307
  903MOL0     H19142   6.789   0.602  11.223  0.0636  3.3429 -1.0872
  903MOL0     H19143   6.575   0.670  11.280  0.6136 -0.2335 -0.5632
  903MOL0     H19144   6.564   0.494  11.273  1.8737 -0.7134 -0.6840
  903MOL0     H19145   6.468   0.522  11.024 -0.5430 -0.9675  1.3707
  903MOL0     H19146   6.367   0.573  11.155  0.1812 -1.1811  0.5110
  903MOL0     H19147   6.377   0.697  10.947 -1.1317 -0.0307  1.6322
  903MOL0     H19148   6.539   0.759  10.984 -0.0005 -1.0605 -1.2617
  903MOL0     H19149   6.490   0.854  11.280  0.5188 -2.3592 -0.3060
  903MOL0     H19150   6.299   1.166  11.314  0.0596  1.6797  1.9037
  903MOL0     H19151   6.375   1.038  11.416 -1.7604 -2.7775 -1.4988
  903MOL0     H19152   6.136   0.944  11.444  2.7026 -0.1841  0.1086
  903MOL0     H19153   6.068   1.084  11.352 -3.4451 -0.6263  2.5471
  903MOL0     H19154   6.229   1.107  11.593  2.1638  2.6043 -2.3742
  903MOL0     H19155   6.147   1.240  11.516 -1.6572  0.4585 -1.8416
  903MOL0     H19156   5.930   1.152  11.587  0.2113  2.4705  1.0681
  903MOL0     H19157   6.033   1.172  11.724  1.5795 -0.7855  0.8212
  903MOL0     H19158   5.963   0.727  11.675 -0.1848  0.7123  1.7057
  903MOL0     H19159   5.743   0.616  11.702 -1.1407 -0.1147 -0.1867
  903MOL0     H19160   5.206   0.949  11.754  3.2774 -0.4618  0.6722
  903MOL0     H19161   4.963   0.902  11.822  1.2842  0.4583 -3.0445
  903MOL0     H19162   4.765   0.664  11.831 -1.8563 -1.0949  1.0871
  903MOL0     H19163   4.779   0.839  11.872 -0.9727  0.1368 -0.8340
  903MOL0     H19164   4.649   0.779  12.091 -1.1860 -0.7563  1.2474
  903MOL0     H19165   4.639   0.618  12.032 -0.3189  0.1491 -0.2151
  903MOL0     H19166   4.510   0.693  11.831 -3.5706  1.5690 -0.5860
  903MOL0     H19167   4.534   0.858  11.874  1.1515 -0.0724 -0.6697
  903MOL0     H19168   4.394   0.681  12.078  1.7201  0.2341 -0.7748
  903MOL0     H19169   4.422   0.854  12.091 -0.7751 -0.4622  0.9034
  903MOL0     H19170   4.253   0.861  11.884  0.9661  2.0093  1.5638
  903MOL0     H19171   4.199   0.833  12.045 -1.1296 -2.7358  1.9226
  903MOL0     H19172   4.193   0.586  11.997  0.0521 -0.4849 -0.4491
  903MOL0     H19173   4.282   0.609  11.845 -2.5623 -1.7228 -2.3698
  903MOL0     H19174   3.997   0.725  11.865  0.4869  1.4464  0.7551
  903MOL0     H19175   4.108   0.732  11.739  1.5814  0.1568  0.7176
  903MOL0     H19176   4.089   0.497  11.684 -2.8207 -2.0130 -1.3936
  903MOL0     H19177   3.927   0.532  11.727 -0.7067  1.1937  2.4052
  903MOL0     H19178   5.070   0.526  11.997 -2.4953 -0.5473 -1.4708
  903MOL0     H19179   5.299   0.554  11.901  0.4867 -0.0210 -2.0470
  903MOL0     H19180   5.563   0.991  11.802 -0.8106 -0.5404 -1.4992
  903MOL0     H19181   5.763   1.108  11.732 -0.3652  0.0087  0.3817
  903MOL0     H19182   7.195  -0.068  11.146  0.2653 -0.3014  1.3302
  903MOL0     H19183   7.444  -0.078  11.140  1.3031  0.3964 -0.1139
  903MOL0     H19184   7.841   0.081  11.082 -0.9664  1.4718 -1.1007
  903MOL0     H19185   8.092   0.066  11.049 -0.9546 -1.5049  1.5383
  903MOL0     H19186   8.221  -0.103  10.956 -0.1424 -1.6031 -2.4364
  903MOL0     H19187   8.317   0.048  10.984  0.3830  0.1090 -0.5605
  903MOL0     H19188   8.471  -0.157  10.919 -0.3026 -0.2924  0.9773
  903MOL0     H19189   8.375  -0.163  10.772 -1.7273  0.7421  0.7279
  903MOL0     H19190   8.569   0.056  10.877  1.5014 -1.2406  0.2221
  903MOL0     H19191   8.478   0.073  10.720 -1.6279 -0.6659  0.4468
  903MOL0     H19192   8.689  -0.141  10.809 -2.5031 -1.6487  0.9945
  903MOL0     H19193   8.609  -0.136  10.642  2.2163 -2.9514  1.6639
  903MOL0     H19194   8.911   0.126  10.563  0.2290 -0.1795 -0.6286
  903MOL0     H19195   8.025   0.033  10.634  0.1216  3.0003 -0.4333
  903MOL0     H19196   7.777   0.029  10.673 -0.0426 -1.1433  1.0147
  904MOL0     O19197   2.889   4.837   5.203 -0.2696 -0.2115  0.4567
  904MOL0     C19198   2.873   4.795   5.317  0.9049  1.3928 -0.1355
  904MOL0     O19199   2.965   4.720   5.393  0.3331  0.4041  0.0229
  904MOL0     C19200   3.094   4.711   5.343  0.6572 -0.7168  0.2715
  904MOL0     C19201   3.207   4.773   5.402 -0.2937 -0.0776 -0.1199
  904MOL0     C19202   3.341   4.752   5.363 -0.0577  0.0150  0.4610
  904MOL0     C19203   3.359   4.660   5.265 -0.2060  0.6371 -0.4060
  904MOL0     O19204   3.491   4.641   5.228 -0.1076 -0.2048  0.4059
  904MOL0     C19205   3.528   4.548   5.122  0.2286  0.2751 -1.1099
  904MOL0     C19206   3.681   4.569   5.107  0.6049  0.0370  0.1775
  904MOL0     C19207   3.746   4.467   5.018  0.7308 -0.3046  0.1456
  904MOL0     C19208   3.710   4.489   4.866 -0.9490 -0.4962 -0.4534
  904MOL0     C19209   3.792   4.393   4.786 -0.8311  0.5711  0.6963
  904MOL0     C19210   3.789   4.249   4.838  0.2467 -0.3173  0.3488
  904MOL0     C19211   3.787   4.142   4.733 -0.1231  0.7151  0.9232
  904MOL0     C19212   3.773   4.009   4.802  0.2467  0.6322 -0.2375
  904MOL0     N19213   3.634   3.994   4.847  0.3155  0.3918  0.1087
  904MOL0     C19214   3.524   3.968   4.770 -0.4707 -0.9384  0.3220
  904MOL0     C19215   3.415   3.952   4.855 -1.3199 -0.1438 -0.6300
  904MOL0     C19216   3.278   3.935   4.813  0.6706  0.7545 -0.2256
  904MOL0     C19217   3.182   3.940   4.931  0.2554 -0.3951 -0.3735
  904MOL0     C19218   3.036   3.925   4.885 -0.1142 -0.9784  0.1036
  904MOL0     C19219   2.942   3.945   5.000  0.9076  0.0045  0.0669
  904MOL0     O19220   2.815   3.951   4.944 -0.0778  0.3209 -0.0113
  904MOL0     C19221   2.714   4.001   5.023  0.4264  0.7761  0.0646
  904MOL0     C19222   2.724   4.042   5.157  0.3789 -0.2350 -0.2045
  904MOL0     C19223   2.611   4.089   5.227  1.1450  0.8285  0.0797
  904MOL0     C19224   2.484   4.090   5.162 -0.4859 -0.1548  0.1778
  904MOL0     C19225   2.365   4.104   5.245  0.5749  0.2433 -0.0621
  904MOL0     O19226   2.242   4.126   5.186  0.0367 -0.6158 -0.0103
  904MOL0     C19227   2.115   4.127   5.236 -0.3419  0.5903  0.0450
  904MOL0     C19228   2.002   4.080   5.171  0.0488  0.7600 -0.8659
  904MOL0     C19229   1.870   4.106   5.226 -0.9108 -0.8050  0.3477
  904MOL0     C19230   1.857   4.162   5.347  0.6663  0.0694 -0.1687
  904MOL0     O19231   1.733   4.179   5.392  0.8417 -0.1310 -0.0712
  904MOL0     C19232   1.695   4.270   5.500 -0.7771  1.0719  0.7824
  904MOL0     C19233   1.549   4.253   5.537 -0.1122 -0.2289 -0.3258
  904MOL0     C19234   1.534   4.309   5.676 -0.4088  0.2019  0.1993
  904MOL0     C19235   1.393   4.280   5.729  0.2763  0.5924  0.3838
  904MOL0     C19236   1.277   4.345   5.644 -0.3541  0.2705  0.5054
  904MOL0     C19237   1.135   4.328   5.702 -0.7093  0.3493 -0.0205
  904MOL0     C19238   1.025   4.401   5.618  0.1262  0.6475  0.4224
  904MOL0     C19239   0.884   4.357   5.649  0.8633 -0.0514 -0.5946
  904MOL0    Cl19240   0.770   4.427   5.536 -0.6082  0.0103  0.1422
  904MOL0     C19241   1.970   4.202   5.415  0.6449 -0.4246 -0.3817
  904MOL0     C19242   2.093   4.188   5.359  0.6655 -0.4790  0.6329
  904MOL0     O19243   2.387   4.113   5.365 -0.4116  0.4370  0.0188
  904MOL0     C19244   2.477   4.055   5.032  0.6865 -0.0267  0.5770
  904MOL0     C19245   2.585   4.015   4.967 -0.9756  0.3229  0.4277
  904MOL0     N19246   3.458   3.990   4.984 -0.0616 -0.2390  0.3175
  904MOL0     N19247   3.586   4.012   4.974  0.9468  0.2170 -0.5019
  904MOL0     C19248   3.245   4.601   5.203 -0.0638  0.1422  1.2316
  904MOL0     C19249   3.113   4.627   5.244  0.0688  0.7162  0.2845
  904MOL0     C19250   2.757   4.833   5.395 -0.7090  0.2950  0.1503
  904MOL0     C19251   2.731   4.798   5.532 -0.6034  0.2831  0.5185
  904MOL0     C19252   2.606   4.823   5.596  0.7118 -0.2530 -0.0290
  904MOL0     C19253   2.507   4.884   5.525  0.6419  0.4018 -0.3490
  904MOL0     O19254   2.372   4.899   5.555 -0.2004  0.3338 -0.1270
  904MOL0     C19255   2.317   4.871   5.682  0.0951 -0.6428 -0.4521
  904MOL0     C19256   2.190   4.788   5.681 -0.0376 -0.1242  0.6768
  904MOL0     C19257   2.072   4.877   5.649  0.6383  0.1775 -0.4481
  904MOL0     C19258   1.935   4.795   5.658 -0.4657 -0.2390  0.2629
  904MOL0     C19259   1.933   4.684   5.561 -0.6046 -0.5585 -0.6374
  904MOL0     C19260   1.918   4.589   5.488 -0.4064 -0.1975  0.2280
  904MOL0     C19261   2.536   4.916   5.391  0.6874  1.0206  0.1663
  904MOL0     C19262   2.661   4.895   5.327  0.4927 -1.0684 -0.1143
  904MOL0     H19263   3.187   4.832   5.490  1.9809  0.5019  0.0748
  904MOL0     H19264   3.427   4.791   5.417  0.0079 -0.9112  1.0452
  904MOL0     H19265   3.476   4.579   5.031 -0.9048 -0.0099 -0.5722
  904MOL0     H19266   3.496   4.450   5.159 -0.1562  0.7646 -0.1238
  904MOL0     H19267   3.738   4.556   5.200  0.1855  0.0848  0.4403
  904MOL0     H19268   3.706   4.670   5.071  3.3339 -0.9219 -0.9047
  904MOL0     H19269   3.708   4.374   5.060  0.8949 -0.7125 -0.6004
  904MOL0     H19270   3.855   4.460   5.028  1.0367  1.4262 -1.4187
  904MOL0     H19271   3.608   4.478   4.830 -2.2270  3.6586  1.2521
  904MOL0     H19272   3.739   4.591   4.840  1.3440 -0.8736  0.2913
  904MOL0     H19273   3.894   4.434   4.784 -0.6015  0.0220  0.9917
  904MOL0     H19274   3.754   4.400   4.684  0.9891 -0.5035 -0.0964
  904MOL0     H19275   3.698   4.235   4.898 -0.6062  0.2728 -0.7608
  904MOL0     H19276   3.870   4.236   4.910 -2.9370 -1.2566  4.1165
  904MOL0     H19277   3.709   4.149   4.656 -0.4585  0.8129  1.2655
  904MOL0     H19278   3.884   4.142   4.684 -0.4489  3.1320  0.1522
  904MOL0     H19279   3.840   3.999   4.888 -0.3355 -3.5483 -0.0641
  904MOL0     H19280   3.800   3.927   4.736 -4.4903 -1.9800  0.6738
  904MOL0     H19281   3.526   3.958   4.661  1.1340 -0.4580  0.2876
  904MOL0     H19282   3.247   3.842   4.765 -1.7949  0.8275  1.0441
  904MOL0     H19283   3.251   4.017   4.746  2.2435  2.4583  1.1354
  904MOL0     H19284   3.181   4.041   4.973 -2.5608 -0.7359  0.6241
  904MOL0     H19285   3.209   3.870   5.010 -1.8424 -1.1128 -0.2313
  904MOL0     H19286   3.013   4.000   4.809  0.8675 -1.9992 -1.2522
  904MOL0     H19287   3.012   3.826   4.844 -1.3624 -0.2782 -0.9233
  904MOL0     H19288   2.969   4.035   5.056  4.2932 -1.3515  0.8783
  904MOL0     H19289   2.956   3.863   5.072  0.0423 -0.2786 -0.0779
  904MOL0     H19290   2.819   4.027   5.207  1.0726  0.3238 -1.2987
  904MOL0     H19291   2.635   4.105   5.331  0.5726  2.0930  0.0344
  904MOL0     H19292   2.018   4.047   5.069  2.8351  3.0567 -1.2907
  904MOL0     H19293   1.781   4.074   5.174 -1.1637 -1.2152  1.0249
  904MOL0     H19294   1.712   4.372   5.466  0.5917  0.6527  0.1368
  904MOL0     H19295   1.755   4.240   5.587  0.0016  2.4142  0.7330
  904MOL0     H19296   1.513   4.150   5.531  0.3752 -0.4111 -0.1243
  904MOL0     H19297   1.482   4.308   5.470 -2.9835  0.2218  2.6788
  904MOL0     H19298   1.540   4.418   5.680 -3.0045  0.5981 -2.8356
  904MOL0     H19299   1.605   4.267   5.748 -0.6293  1.3180  1.0846
  904MOL0     H19300   1.386   4.171   5.719  0.6179  0.5436  0.6832
  904MOL0     H19301   1.386   4.318   5.831  1.1912  1.0531  0.2826
  904MOL0     H19302   1.271   4.310   5.540 -3.8290  2.3046 -0.1357
  904MOL0     H19303   1.297   4.452   5.631  0.2062  0.0166 -1.0091
  904MOL0     H19304   1.128   4.363   5.806  0.5008 -0.9773  0.5526
  904MOL0     H19305   1.118   4.220   5.705 -0.2736  0.2872  1.1064
  904MOL0     H19306   1.027   4.511   5.614 -0.9276  0.7540  1.9606
  904MOL0     H19307   1.038   4.367   5.515 -2.9267  0.9818 -0.1517
  904MOL0     H19308   0.854   4.401   5.745 -0.6483  0.1166 -1.1140
  904MOL0     H19309   0.872   4.249   5.660 -0.6370  0.1944  0.5410
  904MOL0     H19310   1.969   4.238   5.517  4.3439 -3.8607  1.1539
  904MOL0     H19311   2.168   4.233   5.424  1.5539 -1.9998  0.7261
  904MOL0     H19312   2.376   4.049   4.991  0.8410 -2.7743  0.3936
  904MOL0     H19313   2.585   3.989   4.862  1.7063  1.0525  0.1643
  904MOL0     H19314   3.262   4.523   5.130 -2.9646  0.5067  0.0196
  904MOL0     H19315   3.033   4.571   5.197 -0.2066 -0.5212  2.1320
  904MOL0     H19316   2.799   4.740   5.593 -0.0933  0.1141 -0.2006
  904MOL0     H19317   2.584   4.791   5.697  0.8028 -0.8870 -0.2050
  904MOL0     H19318   2.302   4.966   5.735  2.1699 -0.0383 -0.8455
  904MOL0     H19319   2.390   4.818   5.744 -1.2529 -0.4828  1.3636
  904MOL0     H19320   2.202   4.714   5.602  0.1796  0.9174 -0.2897
  904MOL0     H19321   2.177   4.747   5.782 -1.2734  1.8030  1.3602
  904MOL0     H19322   2.081   4.918   5.548  0.5456  0.8246 -0.1981
  904MOL0     H19323   2.073   4.954   5.727  0.8092  0.0343 -0.3109
  904MOL0     H19324   1.914   4.766   5.761  2.3141 -1.6670  0.5183
  904MOL0     H19325   1.853   4.864   5.635 -0.0814 -0.1331 -0.8800
  904MOL0     H19326   1.926   4.502   5.427 -1.0040 -0.2921  0.2821
  904MOL0     H19327   2.448   4.960   5.345  0.6335  1.3759  0.6079
  904MOL0     H19328   2.675   4.929   5.225 -1.9660  0.1959 -0.1014
  905MOL0     O19329   7.076   0.725   8.678  0.0373  0.5882 -0.3340
  905MOL0     C19330   7.114   0.816   8.609 -0.9128  0.0684  1.3572
  905MOL0     O19331   7.058   0.851   8.490  0.2879 -0.3369 -0.1717
  905MOL0     C19332   6.938   0.789   8.453  0.0594 -0.2274  0.9787
  905MOL0     C19333   6.846   0.864   8.389  0.2133  0.1277  0.9783
  905MOL0     C19334   6.723   0.809   8.339  0.8714  0.0582  0.0304
  905MOL0     C19335   6.690   0.671   8.354 -0.5343  0.8617  0.3709
  905MOL0     O19336   6.568   0.612   8.337  0.0767 -0.0805  0.0655
  905MOL0     C19337   6.494   0.671   8.227  0.8239  0.2935 -0.3282
  905MOL0     C19338   6.386   0.578   8.189  1.2319 -0.0225  0.2576
  905MOL0     C19339   6.434   0.488   8.081  0.8563  0.6135  0.3742
  905MOL0     C19340   6.305   0.412   8.023  0.7820  0.5236  0.7843
  905MOL0     C19341   6.291   0.278   8.085 -0.8547  0.2310  0.1790
  905MOL0     C19342   6.159   0.210   8.054 -0.2681 -0.1574  0.2170
  905MOL0     C19343   6.038   0.274   8.121  0.3739  0.5379 -0.3812
  905MOL0     C19344   5.906   0.201   8.085  0.6052  0.2680 -0.4359
  905MOL0     N19345   5.844   0.209   7.947  0.1936  0.1028 -0.0354
  905MOL0     C19346   5.769   0.106   7.892  0.6665  0.6809 -0.0748
  905MOL0     C19347   5.731   0.158   7.768  0.2908  0.6344  0.1634
  905MOL0     C19348   5.653   0.085   7.662  0.9122 -0.7159  0.3794
  905MOL0     C19349   5.515   0.034   7.720 -0.2909 -0.1636  0.4094
  905MOL0     C19350   5.411   0.004   7.605  0.9133 -0.3696 -0.4089
  905MOL0     C19351   5.287  -0.073   7.653 -0.0194 -0.3941  0.0306
  905MOL0     O19352   5.179   0.020   7.671 -0.2643 -0.1685 -0.0314
  905MOL0     C19353   5.059  -0.030   7.647 -0.2445  0.8007  1.1485
  905MOL0     C19354   5.003  -0.137   7.723  0.0664 -0.4192  0.3127
  905MOL0     C19355   4.866  -0.178   7.698 -1.0497  0.1399  0.1284
  905MOL0     C19356   4.781  -0.099   7.608 -0.2734  0.3487  0.5054
  905MOL0     C19357   4.635  -0.131   7.611 -0.1333  0.6336 -0.2315
  905MOL0     O19358   4.597  -0.217   7.709  0.0637 -0.2885  0.2447
  905MOL0     C19359   4.465  -0.236   7.732 -0.2736 -0.3792 -0.1589
  905MOL0     C19360   4.384  -0.127   7.758 -0.8901 -0.2998 -0.6132
  905MOL0     C19361   4.250  -0.147   7.793 -0.0454 -0.6932 -0.3362
  905MOL0     C19362   4.188  -0.273   7.788  0.3648 -0.7604 -0.3623
  905MOL0     O19363   4.056  -0.297   7.837  0.7830 -0.3519  0.5092
  905MOL0     C19364   3.968  -0.188   7.796  0.0029  0.0687  0.5087
  905MOL0     C19365   3.819  -0.242   7.807 -0.0882  0.5988 -0.2609
  905MOL0     C19366   3.761  -0.215   7.937  0.6144  0.7395  1.1008
  905MOL0     C19367   3.617  -0.251   7.942  0.4450 -0.2337  0.6593
  905MOL0     C19368   3.570  -0.243   8.083 -0.1607  0.1446  0.3379
  905MOL0     C19369   3.421  -0.255   8.091  0.1044  0.6065  0.0754
  905MOL0     C19370   3.360  -0.393   8.060 -0.4343  0.2703  0.2515
  905MOL0     C19371   3.207  -0.384   8.045  0.2209  0.2221  0.5252
  905MOL0    Cl19372   3.124  -0.548   8.063 -0.2452  0.2515  0.3305
  905MOL0     C19373   4.261  -0.385   7.757 -0.2294  0.2630  0.2010
  905MOL0     C19374   4.401  -0.366   7.733 -0.0785  0.3177  0.3818
  905MOL0     O19375   4.566  -0.081   7.527  0.0270  0.7617  0.3125
  905MOL0     C19376   4.839   0.009   7.541  0.3241 -0.8583 -0.2301
  905MOL0     C19377   4.975   0.039   7.560  0.0681  0.7318 -0.1543
  905MOL0     N19378   5.788   0.285   7.765  0.1460  0.5505  0.4655
  905MOL0     N19379   5.848   0.321   7.867  0.2091  0.2451 -0.6298
  905MOL0     C19380   6.786   0.594   8.408 -0.7389 -0.8382 -1.0938
  905MOL0     C19381   6.908   0.650   8.461  0.0770  0.7856  0.0079
  905MOL0     C19382   7.230   0.892   8.661 -0.0373  1.2589  0.0429
  905MOL0     C19383   7.253   1.027   8.651  0.6703 -0.0602 -0.0009
  905MOL0     C19384   7.371   1.089   8.697  0.2163 -0.6559  0.0749
  905MOL0     C19385   7.472   1.014   8.757 -0.5675  0.0546 -0.5632
  905MOL0     O19386   7.585   1.070   8.796  0.3317  0.2337  0.4131
  905MOL0     C19387   7.602   1.209   8.783  0.1922 -1.0296  0.3269
  905MOL0     C19388   7.749   1.249   8.780  1.2274 -0.0201  0.2143
  905MOL0     C19389   7.812   1.219   8.913  1.5107 -0.0831 -0.4195
  905MOL0     C19390   7.959   1.242   8.896 -0.7657 -0.3557  0.3693
  905MOL0     C19391   8.030   1.185   9.008 -0.5236 -0.1988 -0.5340
  905MOL0     C19392   8.113   1.142   9.097  0.5407  0.1626  1.2961
  905MOL0     C19393   7.458   0.871   8.750 -0.2424  0.3052  0.1403
  905MOL0     C19394   7.336   0.814   8.704 -0.4131  0.8891  0.1929
  905MOL0     H19395   6.863   0.969   8.369 -0.0922  0.5671  2.8216
  905MOL0     H19396   6.650   0.875   8.293 -1.0445 -1.3923  0.8978
  905MOL0     H19397   6.562   0.699   8.146  3.4808 -0.2302  1.6010
  905MOL0     H19398   6.446   0.764   8.260 -0.6509 -0.6988  0.4090
  905MOL0     H19399   6.299   0.635   8.155 -0.9919 -2.9696  0.6300
  905MOL0     H19400   6.359   0.516   8.275 -1.2422 -1.1764 -1.2487
  905MOL0     H19401   6.490   0.414   8.139 -0.0760  0.4614  1.1111
  905MOL0     H19402   6.495   0.543   8.009  0.7038  1.1940  0.6776
  905MOL0     H19403   6.217   0.473   8.047  0.3835 -0.1714  1.1174
  905MOL0     H19404   6.310   0.397   7.915  1.2708 -1.9431  1.1001
  905MOL0     H19405   6.304   0.298   8.191  0.0236  0.2982  0.0636
  905MOL0     H19406   6.375   0.217   8.049  1.4271  2.3359  1.6207
  905MOL0     H19407   6.161   0.104   8.081  1.0876 -0.4885 -1.0765
  905MOL0     H19408   6.143   0.208   7.946 -0.3433 -1.0746  0.2314
  905MOL0     H19409   6.045   0.264   8.229 -3.5196  0.8492  0.0148
  905MOL0     H19410   6.027   0.381   8.100 -1.1874  0.7670  1.4380
  905MOL0     H19411   5.820   0.239   8.141  1.8361  1.3343  0.8208
  905MOL0     H19412   5.916   0.094   8.106  0.5088  0.3543  0.0739
  905MOL0     H19413   5.747   0.011   7.937 -1.6802  0.6947 -1.0554
  905MOL0     H19414   5.710   0.002   7.618  2.9174  1.5105 -1.5469
  905MOL0     H19415   5.622   0.157   7.585  1.0940 -1.3467 -0.2906
  905MOL0     H19416   5.478   0.111   7.788 -0.4499  1.4382 -1.4034
  905MOL0     H19417   5.540  -0.060   7.771  1.7434  0.2677  0.2890
  905MOL0     H19418   5.389   0.098   7.553  2.3864  0.8257  0.9920
  905MOL0     H19419   5.461  -0.058   7.531 -0.9504 -0.3728 -1.7372
  905MOL0     H19420   5.305  -0.130   7.745 -0.9282  0.0855  0.5193
  905MOL0     H19421   5.266  -0.147   7.576 -0.5405 -1.3293  1.0439
  905MOL0     H19422   5.065  -0.175   7.804  0.4832 -1.3397 -0.4201
  905MOL0     H19423   4.837  -0.257   7.767  0.1502  0.9926  1.6636
  905MOL0     H19424   4.423  -0.026   7.769 -0.4012 -0.5921  0.4636
  905MOL0     H19425   4.178  -0.066   7.799  0.6170 -0.0443 -0.9159
  905MOL0     H19426   3.985  -0.150   7.695 -2.8976 -0.5209 -0.2971
  905MOL0     H19427   3.972  -0.100   7.862  0.6192 -0.2901  0.9587
  905MOL0     H19428   3.807  -0.349   7.792 -0.4659  0.4678  0.9084
  905MOL0     H19429   3.760  -0.188   7.732  0.2572  2.4645  0.7523
  905MOL0     H19430   3.780  -0.114   7.973  1.7435  1.1761 -0.6059
  905MOL0     H19431   3.806  -0.286   8.007 -3.6740 -1.7000  1.7086
  905MOL0     H19432   3.558  -0.186   7.877 -0.2164 -0.2186  1.2554
  905MOL0     H19433   3.596  -0.352   7.908  1.0046  0.8939 -3.6078
  905MOL0     H19434   3.595  -0.144   8.122  0.4326  2.0288 -4.2161
  905MOL0     H19435   3.610  -0.312   8.159 -4.5629 -3.8378 -0.4756
  905MOL0     H19436   3.372  -0.175   8.034  0.3060  0.9915  0.4328
  905MOL0     H19437   3.404  -0.235   8.197 -0.2170 -0.7153  0.2852
  905MOL0     H19438   3.402  -0.431   7.967 -1.8112 -3.4664  0.9772
  905MOL0     H19439   3.369  -0.465   8.143  1.0421  1.5332  1.2518
  905MOL0     H19440   3.195  -0.355   7.940  1.9829  1.8174  0.7148
  905MOL0     H19441   3.155  -0.324   8.120  0.5318 -0.9523  1.7140
  905MOL0     H19442   4.215  -0.482   7.740 -0.4428  0.0929  1.5901
  905MOL0     H19443   4.466  -0.451   7.713 -2.4542 -1.2767 -0.9477
  905MOL0     H19444   4.779   0.068   7.471  0.5779 -0.9328 -0.5112
  905MOL0     H19445   5.024   0.120   7.506  1.8736  0.5001  1.0560
  905MOL0     H19446   6.764   0.490   8.432 -0.3021 -0.7558 -0.2728
  905MOL0     H19447   6.979   0.588   8.514 -0.9615  0.5514  1.1736
  905MOL0     H19448   7.177   1.092   8.609 -1.5483 -2.3401  0.2129
  905MOL0     H19449   7.371   1.197   8.702 -1.0678 -0.4877 -2.3220
  905MOL0     H19450   7.548   1.270   8.856  3.7483  2.8875  0.0411
  905MOL0     H19451   7.569   1.243   8.684 -1.4682 -2.1446  0.4603
  905MOL0     H19452   7.793   1.185   8.703 -0.4290 -1.8095  0.6663
  905MOL0     H19453   7.768   1.351   8.745 -2.2468 -0.0646 -2.3461
  905MOL0     H19454   7.792   1.112   8.930 -1.6474  0.1491 -1.9588
  905MOL0     H19455   7.762   1.281   8.988 -1.7553 -1.4065 -1.3131
  905MOL0     H19456   7.993   1.200   8.801 -1.0347 -1.7684  0.8636
  905MOL0     H19457   7.978   1.350   8.892  1.1456 -0.6838 -2.4015
  905MOL0     H19458   8.173   1.116   9.181  3.0645 -0.3508 -0.5461
  905MOL0     H19459   7.527   0.797   8.790 -1.3117  0.5980  2.7441
  905MOL0     H19460   7.321   0.707   8.699 -0.1757  0.9051 -3.0783
  906MOL0     O19461   8.106   7.321   1.804  0.1337  0.2253  0.8904
  906MOL0     C19462   8.134   7.431   1.851 -0.2457 -0.0298  0.6227
  906MOL0     O19463   8.042   7.516   1.913 -0.1407 -0.3318  0.2140
  906MOL0     C19464   7.905   7.500   1.916 -0.0760  0.1210  0.1651
  906MOL0     C19465   7.833   7.577   2.004 -0.2750 -0.3942 -0.7807
  906MOL0     C19466   7.694   7.573   2.021 -0.6578  0.8458  0.7016
  906MOL0     C19467   7.624   7.483   1.941  0.1191  0.5260 -0.6425
  906MOL0     O19468   7.487   7.469   1.953  0.0486 -0.2095 -0.0551
  906MOL0     C19469   7.415   7.345   1.961 -0.3329 -0.0913  0.1321
  906MOL0     C19470   7.279   7.368   2.021  0.9746  0.4259 -0.1174
  906MOL0     C19471   7.190   7.453   1.938 -0.5267  0.2202 -0.2697
  906MOL0     C19472   7.054   7.471   2.002  0.4836 -0.2228  0.3145
  906MOL0     C19473   6.955   7.555   1.918 -0.1160 -0.6330  0.2469
  906MOL0     C19474   6.856   7.469   1.842  0.0971  0.7135  0.9238
  906MOL0     C19475   6.923   7.379   1.733 -0.9566  0.3403  0.4002
  906MOL0     C19476   7.009   7.448   1.623  0.0838 -0.7850  0.0845
  906MOL0     N19477   7.098   7.344   1.559  0.5656  0.0192  0.4919
  906MOL0     C19478   7.220   7.296   1.600 -0.9923 -0.4071  0.6189
  906MOL0     C19479   7.242   7.194   1.519  0.1852 -0.0748 -0.4463
  906MOL0     C19480   7.358   7.108   1.542  0.5229 -0.5089  0.3234
  906MOL0     C19481   7.483   7.163   1.472 -0.2890  0.1272 -0.3748
  906MOL0     C19482   7.517   7.312   1.490 -0.2075 -0.2695  0.4151
  906MOL0     C19483   7.651   7.347   1.443 -0.9117  0.4206  0.2129
  906MOL0     O19484   7.753   7.291   1.536  0.3002  0.0417  0.1758
  906MOL0     C19485   7.878   7.270   1.486 -0.1852  0.3098  0.7781
  906MOL0     C19486   7.940   7.146   1.459 -0.3003  0.9086 -0.2409
  906MOL0     C19487   8.069   7.131   1.406  0.3005  0.9421 -0.5991
  906MOL0     C19488   8.141   7.246   1.363  0.0826 -0.2829  0.1499
  906MOL0     C19489   8.279   7.251   1.303  0.2243 -0.1246  0.2625
  906MOL0     O19490   8.330   7.373   1.265  0.0504 -0.4229  0.3751
  906MOL0     C19491   8.460   7.375   1.223  0.8299 -0.0837  0.1429
  906MOL0     C19492   8.558   7.383   1.324 -0.4112 -0.4118 -0.2937
  906MOL0     C19493   8.699   7.381   1.299  0.9447  0.4257  0.1011
  906MOL0     C19494   8.737   7.347   1.164  0.3454  0.0025 -0.4488
  906MOL0     O19495   8.864   7.329   1.109  0.1040 -0.3056  0.4571
  906MOL0     C19496   8.970   7.303   1.204  0.4598  0.1645  0.6923
  906MOL0     C19497   9.085   7.243   1.130  0.3848 -0.0345  0.2819
  906MOL0     C19498   9.210   7.217   1.215  0.0521  0.3285 -0.5216
  906MOL0     C19499   9.335   7.239   1.130  0.4372  0.3830 -0.0927
  906MOL0     C19500   9.470   7.237   1.206 -0.3175 -0.5350  0.3564
  906MOL0     C19501   9.579   7.309   1.116 -0.8007 -0.3049  0.1130
  906MOL0     C19502   9.718   7.312   1.206  0.3756  0.4679  0.2040
  906MOL0     C19503   9.837   7.252   1.131 -0.0064  0.2212 -0.3169
  906MOL0    Cl19504   9.981   7.270   1.243  0.6011  0.0885  0.1049
  906MOL0     C19505   8.629   7.331   1.059 -0.0074 -0.8713  0.0104
  906MOL0     C19506   8.501   7.355   1.093 -0.0069  0.1129 -0.9233
  906MOL0     O19507   8.331   7.141   1.274 -0.6772 -0.1081  0.3975
  906MOL0     C19508   8.077   7.371   1.384  0.6494 -0.2702 -0.0366
  906MOL0     C19509   7.954   7.381   1.444  0.4042 -0.1759 -0.0208
  906MOL0     N19510   7.136   7.184   1.428  0.2606  0.2415  0.7687
  906MOL0     N19511   7.048   7.269   1.461  0.1807  0.2408 -0.0192
  906MOL0     C19512   7.693   7.404   1.849 -0.3124 -0.3389 -0.5701
  906MOL0     C19513   7.831   7.411   1.836 -0.7307  0.4750 -0.6195
  906MOL0     C19514   8.280   7.459   1.866 -0.4034 -0.7246 -0.3905
  906MOL0     C19515   8.367   7.393   1.787 -0.3768  0.1680 -0.6817
  906MOL0     C19516   8.501   7.423   1.801  0.8341 -0.6612  0.2715
  906MOL0     C19517   8.552   7.511   1.897  0.5329  0.7181  0.0807
  906MOL0     O19518   8.679   7.537   1.872 -0.0810 -0.1385  0.0002
  906MOL0     C19519   8.766   7.578   1.985 -0.6148 -0.0532 -0.9228
  906MOL0     C19520   8.854   7.702   1.967 -0.6779 -0.2714 -0.2287
  906MOL0     C19521   8.763   7.820   1.926 -0.4656 -0.7199  0.8167
  906MOL0     C19522   8.840   7.940   1.862 -0.5183  0.3379  0.7310
  906MOL0     C19523   8.889   8.033   1.960  1.2526 -0.3403  0.1214
  906MOL0     C19524   8.948   8.095   2.049  0.1910  0.0341 -0.0012
  906MOL0     C19525   8.464   7.571   1.983  0.0805  0.8322 -0.3305
  906MOL0     C19526   8.325   7.552   1.966 -0.2285  0.5599 -0.4380
  906MOL0     H19527   7.877   7.666   2.047 -0.4101 -0.8374  0.3107
  906MOL0     H19528   7.642   7.624   2.101 -0.0836  1.1678  0.8769
  906MOL0     H19529   7.481   7.272   2.010  1.8841  1.2732 -0.6610
  906MOL0     H19530   7.390   7.299   1.865 -0.9552  0.4206  0.0443
  906MOL0     H19531   7.299   7.401   2.123  3.0117 -1.0209  0.0154
  906MOL0     H19532   7.242   7.265   2.027 -0.8752  1.1448  2.2658
  906MOL0     H19533   7.182   7.398   1.844  2.2092  0.8061 -0.9186
  906MOL0     H19534   7.250   7.542   1.916 -0.0815 -0.3767 -1.5897
  906MOL0     H19535   7.009   7.376   2.033  1.0806 -0.4827  0.3984
  906MOL0     H19536   7.063   7.522   2.098 -0.1951  2.2202 -0.8537
  906MOL0     H19537   7.001   7.633   1.856 -0.6942  1.3427  2.1651
  906MOL0     H19538   6.891   7.605   1.991  0.8100  0.6321  0.2329
  906MOL0     H19539   6.781   7.524   1.784  0.2862  0.4209  0.3989
  906MOL0     H19540   6.800   7.406   1.911  0.5187 -0.0231  0.6006
  906MOL0     H19541   6.979   7.305   1.790 -2.0604  1.3339  2.9115
  906MOL0     H19542   6.840   7.326   1.684 -0.2184 -0.0523 -0.4462
  906MOL0     H19543   7.070   7.523   1.675  0.0392 -0.1962 -0.6966
  906MOL0     H19544   6.950   7.507   1.554  0.6402 -0.6247 -0.2635
  906MOL0     H19545   7.290   7.326   1.677  0.1754 -1.0363 -0.1615
  906MOL0     H19546   7.347   7.006   1.504  2.7228 -0.9197  0.6448
  906MOL0     H19547   7.359   7.101   1.651  0.1941 -2.0077  0.2515
  906MOL0     H19548   7.461   7.144   1.367 -2.6140 -1.5037  0.3359
  906MOL0     H19549   7.572   7.106   1.501 -1.1372 -0.6525  0.7406
  906MOL0     H19550   7.454   7.372   1.423  1.0680  0.9318  0.2485
  906MOL0     H19551   7.504   7.342   1.594 -1.1605 -1.0697  0.5419
  906MOL0     H19552   7.648   7.456   1.439  0.6611  0.4483 -1.6212
  906MOL0     H19553   7.663   7.311   1.340 -2.3942  1.4534 -0.3490
  906MOL0     H19554   7.891   7.050   1.470  1.6053 -0.0656  0.2324
  906MOL0     H19555   8.116   7.033   1.404 -2.8398 -0.6886 -0.6644
  906MOL0     H19556   8.524   7.413   1.423 -0.0366  1.7431 -0.7665
  906MOL0     H19557   8.772   7.411   1.373  1.3885 -1.3819  0.4383
  906MOL0     H19558   8.937   7.236   1.285 -0.8747  2.0353  1.7946
  906MOL0     H19559   9.009   7.394   1.252 -0.1850  1.5935 -1.3667
  906MOL0     H19560   9.101   7.311   1.046 -2.2176 -3.0086 -2.9178
  906MOL0     H19561   9.046   7.153   1.081 -4.1055 -0.2030  3.5779
  906MOL0     H19562   9.213   7.113   1.249  0.0791 -0.7039 -3.4011
  906MOL0     H19563   9.207   7.279   1.305  0.5388  0.4529 -0.5849
  906MOL0     H19564   9.342   7.170   1.045  4.4250  0.3346  0.1035
  906MOL0     H19565   9.323   7.341   1.093 -0.8247 -0.3801 -1.9399
  906MOL0     H19566   9.507   7.137   1.230 -0.6785 -0.4133  1.5214
  906MOL0     H19567   9.466   7.291   1.301  1.4185 -0.3445  0.3521
  906MOL0     H19568   9.560   7.414   1.091 -1.3556 -0.0482  1.5284
  906MOL0     H19569   9.589   7.247   1.027  1.1641  1.3375 -0.8961
  906MOL0     H19570   9.745   7.414   1.233  0.6323  0.1683  1.1385
  906MOL0     H19571   9.703   7.262   1.302  1.8484  0.3444  0.3930
  906MOL0     H19572   9.850   7.312   1.040  0.5763  1.1715  0.3769
  906MOL0     H19573   9.841   7.150   1.092  1.5408  0.8129 -1.8659
  906MOL0     H19574   8.662   7.323   0.956  1.6147 -0.7861  0.4845
  906MOL0     H19575   8.427   7.351   1.014 -2.3027 -1.1680  1.1328
  906MOL0     H19576   8.135   7.456   1.352 -1.0026  1.3338  1.0303
  906MOL0     H19577   7.901   7.476   1.446  0.7978  0.3494 -4.5399
  906MOL0     H19578   7.635   7.334   1.790  0.8479 -3.7089  1.9686
  906MOL0     H19579   7.876   7.343   1.764 -2.2084 -1.7791  0.4630
  906MOL0     H19580   8.336   7.329   1.705  2.9187  2.1600 -3.7982
  906MOL0     H19581   8.580   7.373   1.745  0.9435 -0.4536  0.2414
  906MOL0     H19582   8.826   7.488   2.002 -0.5553 -0.0980 -1.3589
  906MOL0     H19583   8.713   7.597   2.079  1.1275  0.5962 -0.0279
  906MOL0     H19584   8.901   7.726   2.062  0.3408 -0.6448 -0.6320
  906MOL0     H19585   8.937   7.685   1.898  2.0435  0.6315  2.5754
  906MOL0     H19586   8.705   7.859   2.009 -2.0647 -0.4870 -0.3690
  906MOL0     H19587   8.699   7.788   1.843  0.6083  0.8695 -0.7164
  906MOL0     H19588   8.915   7.891   1.800 -0.8081 -0.0407  0.6752
  906MOL0     H19589   8.775   8.006   1.803 -1.4962 -0.1069  1.2850
  906MOL0     H19590   9.011   8.139   2.124  3.2276 -2.4312 -0.8790
  906MOL0     H19591   8.495   7.638   2.063  1.1045 -0.9659  0.8518
  906MOL0     H19592   8.256   7.608   2.029 -0.7146 -0.2561 -0.2325
  907MOL0     O19593   7.086   4.722   1.020  0.5215 -1.5822 -0.3141
  907MOL0     C19594   7.068   4.839   0.989  0.1717 -0.1598 -0.1287
  907MOL0     O19595   6.949   4.893   0.955  0.2814  0.1926 -0.2272
  907MOL0     C19596   6.829   4.827   0.972 -0.3039 -0.6521 -0.2747
  907MOL0     C19597   6.728   4.865   0.884 -0.5832 -0.0580  0.4296
  907MOL0     C19598   6.600   4.807   0.883  0.6262  0.1646 -0.0957
  907MOL0     C19599   6.565   4.710   0.977  0.4155  0.5231  0.7113
  907MOL0     O19600   6.438   4.660   0.985  0.0718  0.4991 -0.0527
  907MOL0     C19601   6.367   4.706   1.105 -0.3771 -0.3345 -0.2401
  907MOL0     C19602   6.306   4.589   1.176  0.7272  0.7141 -0.4214
  907MOL0     C19603   6.184   4.621   1.263 -1.5604  0.3093 -0.1122
  907MOL0     C19604   6.202   4.749   1.362  0.0256  0.9382 -0.1845
  907MOL0     C19605   6.101   4.752   1.474  0.8125  0.0988  0.0207
  907MOL0     C19606   5.955   4.762   1.428  0.8907  0.7764 -0.1073
  907MOL0     C19607   5.856   4.783   1.545 -0.1045  0.5250 -0.4109
  907MOL0     C19608   5.848   4.917   1.621  0.3665  0.6370 -0.5303
  907MOL0     N19609   5.747   4.923   1.725 -0.5757 -0.3239 -0.6009
  907MOL0     C19610   5.732   4.846   1.837 -0.2971  0.2589 -0.2869
  907MOL0     C19611   5.617   4.882   1.890  0.6262 -0.5836 -0.7664
  907MOL0     C19612   5.566   4.842   2.032 -1.2341 -0.4700 -0.0173
  907MOL0     C19613   5.561   4.693   2.016 -0.0512 -0.2545 -0.0680
  907MOL0     C19614   5.478   4.611   2.124  0.0747 -0.2553 -0.2126
  907MOL0     C19615   5.447   4.463   2.097 -0.7436 -0.7354  1.1614
  907MOL0     O19616   5.339   4.430   2.189  0.0434  0.3677  0.6612
  907MOL0     C19617   5.206   4.419   2.143 -0.0787  0.1263 -0.6295
  907MOL0     C19618   5.163   4.433   2.010 -0.0809  0.2536 -0.0044
  907MOL0     C19619   5.029   4.402   1.989  0.4388  1.0087 -0.2462
  907MOL0     C19620   4.928   4.373   2.080 -0.7068  0.1646  0.4333
  907MOL0     C19621   4.785   4.346   2.041  0.2642 -0.1327  0.1114
  907MOL0     O19622   4.753   4.375   1.910  0.0567  0.0835  0.0892
  907MOL0     C19623   4.636   4.334   1.856 -0.4689 -0.0657 -0.0573
  907MOL0     C19624   4.636   4.224   1.769 -0.5904 -0.3570  0.5554
  907MOL0     C19625   4.521   4.176   1.700  0.1762  0.2023  0.4518
  907MOL0     C19626   4.395   4.240   1.729 -0.3122 -0.2535 -0.2178
  907MOL0     O19627   4.271   4.219   1.679  0.2089 -0.2546  0.0539
  907MOL0     C19628   4.255   4.116   1.581 -0.1687 -0.3873 -0.7916
  907MOL0     C19629   4.108   4.094   1.536  0.0225 -1.0025 -0.1209
  907MOL0     C19630   4.051   4.221   1.454 -0.1943  0.3206 -0.1958
  907MOL0     C19631   4.129   4.245   1.324 -0.6226 -0.2225 -0.5212
  907MOL0     C19632   4.058   4.340   1.231  0.5219 -0.9674  0.2303
  907MOL0     C19633   4.146   4.406   1.119 -0.1721 -0.0223  1.1101
  907MOL0     C19634   4.061   4.490   1.016 -0.3027 -0.4175  0.0530
  907MOL0     C19635   4.145   4.574   0.917  0.1436 -0.3951  0.4648
  907MOL0    Cl19636   4.275   4.466   0.860  0.3065  0.2476  0.0482
  907MOL0     C19637   4.396   4.347   1.820 -0.8596  0.0034  0.4037
  907MOL0     C19638   4.514   4.395   1.877 -1.0371 -0.0629  0.0575
  907MOL0     O19639   4.704   4.293   2.128 -0.0268  0.0871 -0.3573
  907MOL0     C19640   4.980   4.354   2.212  0.0254  0.1146 -0.0003
  907MOL0     C19641   5.110   4.377   2.245 -0.4126 -0.8257  0.1733
  907MOL0     N19642   5.557   4.989   1.813 -0.4451  0.7684  0.0843
  907MOL0     N19643   5.640   5.012   1.721  0.3956  0.8565 -0.6416
  907MOL0     C19644   6.661   4.675   1.075  0.7776  0.4680  0.1039
  907MOL0     C19645   6.788   4.733   1.074  0.1185 -0.2231 -0.1664
  907MOL0     C19646   7.185   4.923   0.963  0.1556  0.6298 -0.3980
  907MOL0     C19647   7.175   5.059   0.961 -0.1946 -0.4849 -0.1785
  907MOL0     C19648   7.295   5.137   0.953 -0.0525 -0.3326 -0.4484
  907MOL0     C19649   7.424   5.084   0.943  0.1654 -0.6058  0.2872
  907MOL0     O19650   7.524   5.181   0.938 -0.4015 -0.0471 -0.1882
  907MOL0     C19651   7.654   5.129   0.963  0.4945  0.1514  0.0836
  907MOL0     C19652   7.758   5.235   0.929 -0.6963 -0.5933  0.5824
  907MOL0     C19653   7.882   5.192   1.004 -0.4373 -0.5094 -0.3433
  907MOL0     C19654   8.009   5.208   0.927 -0.4401 -0.5905  0.5235
  907MOL0     C19655   8.109   5.125   0.988 -0.2456  0.1194  0.1812
  907MOL0     C19656   8.184   5.055   1.052 -1.0541 -0.2141  0.3041
  907MOL0     C19657   7.431   4.942   0.954 -0.7662 -0.1397  0.8883
  907MOL0     C19658   7.315   4.872   0.970 -0.2177 -0.1495 -0.6400
  907MOL0     H19659   6.766   4.937   0.812  1.5674 -0.8048  0.7483
  907MOL0     H19660   6.531   4.859   0.819 -2.0388  2.5345  4.2043
  907MOL0     H19661   6.290   4.773   1.065 -0.7645  1.9306  3.8056
  907MOL0     H19662   6.419   4.768   1.178 -1.3163 -3.5426  3.5059
  907MOL0     H19663   6.381   4.537   1.236  1.6335  4.4548  2.0104
  907MOL0     H19664   6.264   4.525   1.098 -1.7944  4.1408 -2.1687
  907MOL0     H19665   6.146   4.547   1.334 -1.2500  2.4270  2.3986
  907MOL0     H19666   6.114   4.646   1.183 -0.7635  1.0828 -0.5876
  907MOL0     H19667   6.295   4.747   1.418  1.1190  6.3038 -1.2413
  907MOL0     H19668   6.214   4.829   1.288  2.2851 -0.1463 -1.0749
  907MOL0     H19669   6.131   4.839   1.533  0.3667  1.7111 -2.0445
  907MOL0     H19670   6.109   4.662   1.537 -1.2028 -0.5144 -0.5333
  907MOL0     H19671   5.924   4.665   1.388 -1.1302  1.6551 -0.8133
  907MOL0     H19672   5.941   4.845   1.358  0.0203  2.0108  1.4571
  907MOL0     H19673   5.756   4.753   1.510 -0.3859  1.3086 -0.2948
  907MOL0     H19674   5.882   4.713   1.624  1.3149  2.5403  1.0022
  907MOL0     H19675   5.823   4.994   1.548 -1.6390 -0.2639 -0.8583
  907MOL0     H19676   5.936   4.942   1.680 -0.7051  1.3642  0.7920
  907MOL0     H19677   5.806   4.778   1.880  1.0144  0.7893 -1.6000
  907MOL0     H19678   5.472   4.886   2.067 -2.1564 -3.2305  1.2858
  907MOL0     H19679   5.644   4.855   2.106 -0.4151 -0.9675 -0.7736
  907MOL0     H19680   5.665   4.659   2.024  0.3084  1.1133  1.6954
  907MOL0     H19681   5.522   4.669   1.917  0.6789  0.7714 -0.6323
  907MOL0     H19682   5.532   4.599   2.218 -0.3607 -0.7934 -0.0284
  907MOL0     H19683   5.390   4.668   2.153 -0.7504  0.5261 -3.8437
  907MOL0     H19684   5.540   4.407   2.111  0.0448 -0.8639 -3.1173
  907MOL0     H19685   5.423   4.458   1.990 -0.5679  2.4067  0.8607
  907MOL0     H19686   5.226   4.432   1.921  1.1937  1.3498  0.8427
  907MOL0     H19687   4.998   4.375   1.888 -0.6833 -0.2101  0.3994
  907MOL0     H19688   4.730   4.176   1.747  1.2012  1.9660  2.5937
  907MOL0     H19689   4.522   4.096   1.628  2.5368 -0.5082  1.1936
  907MOL0     H19690   4.275   4.023   1.634 -0.4802  0.7022  1.3541
  907MOL0     H19691   4.318   4.140   1.495  0.0352  0.1334 -0.5041
  907MOL0     H19692   4.048   4.086   1.627 -0.2005 -0.7567 -0.2419
  907MOL0     H19693   4.109   4.002   1.478  1.9306 -1.4299  0.5386
  907MOL0     H19694   4.071   4.311   1.512  1.1339 -0.7247  1.0344
  907MOL0     H19695   3.945   4.208   1.430 -0.0660  1.1700 -1.3140
  907MOL0     H19696   4.226   4.287   1.352  0.6497 -3.6670  0.7911
  907MOL0     H19697   4.145   4.148   1.275 -2.1164  0.2991 -2.1285
  907MOL0     H19698   4.023   4.425   1.290  1.1441 -1.5518  1.4825
  907MOL0     H19699   3.975   4.283   1.188 -2.2854  1.1669  2.4303
  907MOL0     H19700   4.197   4.322   1.069  0.0464 -0.4261  1.9924
  907MOL0     H19701   4.223   4.461   1.173  0.0621 -1.5093  2.3700
  907MOL0     H19702   4.011   4.413   0.956 -0.2579 -0.9213  0.6433
  907MOL0     H19703   3.989   4.555   1.066 -0.7254 -0.2785 -0.7152
  907MOL0     H19704   4.195   4.652   0.976  0.3288 -0.8725  0.9450
  907MOL0     H19705   4.084   4.625   0.842 -1.2337 -0.3485  1.5525
  907MOL0     H19706   4.310   4.413   1.828  0.4334  1.6748  1.2768
  907MOL0     H19707   4.511   4.477   1.947 -1.0863  1.0708 -1.2175
  907MOL0     H19708   4.905   4.315   2.281 -0.4374  3.1830  1.4200
  907MOL0     H19709   5.145   4.359   2.346 -2.2461 -1.7710  0.6760
  907MOL0     H19710   6.643   4.600   1.152 -0.0976 -1.3482 -1.7709
  907MOL0     H19711   6.858   4.706   1.152 -0.8242 -4.2467 -0.4646
  907MOL0     H19712   7.079   5.110   0.965 -0.2720 -0.5716 -0.7440
  907MOL0     H19713   7.278   5.244   0.945 -0.2782 -0.3901 -0.7614
  907MOL0     H19714   7.670   5.042   0.899  1.7454 -0.2275  0.8662
  907MOL0     H19715   7.666   5.095   1.066 -1.3757  0.3002  0.3769
  907MOL0     H19716   7.781   5.228   0.823  2.8816  0.8575  1.1130
  907MOL0     H19717   7.728   5.335   0.963  2.4676 -0.6246  4.1800
  907MOL0     H19718   7.878   5.089   1.041 -2.9251 -0.3293  0.0134
  907MOL0     H19719   7.894   5.268   1.081  1.4285 -2.5215  1.4903
  907MOL0     H19720   8.005   5.190   0.819  5.0947 -0.9736  0.0595
  907MOL0     H19721   8.057   5.306   0.931 -1.0074 -0.2395 -0.9152
  907MOL0     H19722   8.255   4.999   1.110  0.4591  2.8199  1.6238
  907MOL0     H19723   7.523   4.886   0.958 -2.1578 -2.4644  2.0819
  907MOL0     H19724   7.326   4.765   0.984 -1.1731  0.0375  2.2133
  908MOL0     O19725   5.726   5.161  10.487 -0.5225 -0.4419  0.1874
  908MOL0     C19726   5.742   5.124  10.608 -0.0008  0.1874  0.3777
  908MOL0     O19727   5.805   5.186  10.703  0.0742 -0.2240  0.0643
  908MOL0     C19728   5.880   5.301  10.673 -0.2260  0.9826 -0.1633
  908MOL0     C19729   5.823   5.405  10.602 -0.4504 -0.5651  0.4975
  908MOL0     C19730   5.903   5.526  10.578 -0.0823  0.5618  0.4934
  908MOL0     C19731   6.031   5.541  10.623 -0.5608  0.5552 -0.8806
  908MOL0     O19732   6.095   5.662  10.598 -0.1892  0.2573 -1.5053
  908MOL0     C19733   6.241   5.648  10.581 -0.1813  0.1704  0.0369
  908MOL0     C19734   6.298   5.765  10.512  0.1534  0.1266  0.4796
  908MOL0     C19735   6.414   5.822  10.589 -0.0597 -0.4792  0.5026
  908MOL0     C19736   6.469   5.954  10.528 -0.1320 -0.6122  0.5785
  908MOL0     C19737   6.583   6.011  10.608  1.0073  0.0747 -0.2376
  908MOL0     C19738   6.705   5.919  10.618  0.3225  0.4360  0.5368
  908MOL0     C19739   6.817   5.986  10.702 -0.5050  0.0668  0.5327
  908MOL0     C19740   6.785   6.019  10.847  0.2331  0.8504 -0.3663
  908MOL0     N19741   6.747   5.903  10.926  0.3735  0.3664 -0.5759
  908MOL0     C19742   6.618   5.900  10.991  0.1255 -0.4459  0.9335
  908MOL0     C19743   6.612   5.768  11.028  0.2351  0.7387  0.1836
  908MOL0     C19744   6.512   5.712  11.133  0.3760 -0.7169 -0.1421
  908MOL0     C19745   6.396   5.637  11.076  0.1332 -0.3874 -0.3593
  908MOL0     C19746   6.299   5.579  11.189 -0.4817 -0.1822  0.8804
  908MOL0     C19747   6.161   5.540  11.140  0.5729 -0.7542  0.1213
  908MOL0     O19748   6.160   5.449  11.031 -0.8374  0.2984  0.1402
  908MOL0     C19749   6.083   5.344  11.050 -0.0429 -0.5794 -1.4013
  908MOL0     C19750   6.135   5.216  11.048  0.4964  0.3530  0.2528
  908MOL0     C19751   6.048   5.108  11.065  0.2201 -0.3257 -0.0694
  908MOL0     C19752   5.914   5.133  11.091  0.2550 -0.3156 -0.0805
  908MOL0     C19753   5.836   5.017  11.134 -0.0535 -0.4330 -0.1426
  908MOL0     O19754   5.712   5.054  11.176  0.3879 -0.5370 -0.3840
  908MOL0     C19755   5.637   4.952  11.227 -0.0970  0.1675  0.3069
  908MOL0     C19756   5.516   4.926  11.162  0.2683 -0.5308 -0.2058
  908MOL0     C19757   5.434   4.834  11.223  0.8699  0.2108  0.7263
  908MOL0     C19758   5.469   4.778  11.341 -0.3474 -0.0992 -0.0240
  908MOL0     O19759   5.373   4.700  11.399 -0.0683  0.0564 -0.4095
  908MOL0     C19760   5.339   4.747  11.536 -0.6220 -0.1220 -0.3688
  908MOL0     C19761   5.215   4.696  11.594 -0.2479  0.1636 -0.0044
  908MOL0     C19762   5.094   4.731  11.511 -0.0236  0.4458 -0.8557
  908MOL0     C19763   4.978   4.628  11.539 -0.1902  0.0495  0.6823
  908MOL0     C19764   4.840   4.694  11.501  0.1164  0.4604  0.1274
  908MOL0     C19765   4.792   4.817  11.586 -0.0271 -0.0780  0.4021
  908MOL0     C19766   4.679   4.892  11.512  0.1182  0.7756  0.7068
  908MOL0     C19767   4.640   5.026  11.568  0.3431  0.4621 -0.3886
  908MOL0    Cl19768   4.491   5.078  11.498  0.0359  0.0587 -0.2866
  908MOL0     C19769   5.590   4.789  11.409 -1.5487 -0.6496  0.4088
  908MOL0     C19770   5.676   4.877  11.345 -0.4495  0.2864  0.8002
  908MOL0     O19771   5.878   4.904  11.119 -0.8582  0.2854  0.0890
  908MOL0     C19772   5.858   5.268  11.088  0.5314  0.1119 -0.7060
  908MOL0     C19773   5.949   5.371  11.071  0.2322  0.1417  0.5314
  908MOL0     N19774   6.733   5.704  10.990  0.3833  0.1476 -0.0141
  908MOL0     N19775   6.816   5.786  10.939 -0.3564 -0.7454  0.6495
  908MOL0     C19776   6.090   5.426  10.690  0.2442  0.2044 -0.2761
  908MOL0     C19777   6.012   5.310  10.723 -0.0479 -0.4902  1.2512
  908MOL0     C19778   5.677   4.994  10.651  0.0108  0.3358  0.2133
  908MOL0     C19779   5.652   4.956  10.785  0.0866 -0.4522 -0.0709
  908MOL0     C19780   5.587   4.835  10.817 -0.7511  0.4932  0.4264
  908MOL0     C19781   5.551   4.748  10.709  0.5710  0.0509 -0.5826
  908MOL0     O19782   5.501   4.623  10.715 -0.4350  0.1439 -0.8125
  908MOL0     C19783   5.441   4.576  10.836  0.1105 -0.1280 -0.3941
  908MOL0     C19784   5.395   4.430  10.826  0.4631  0.6539  0.3948
  908MOL0     C19785   5.327   4.367  10.952  0.1248 -0.0911  0.0209
  908MOL0     C19786   5.291   4.213  10.935 -0.5414  0.0929 -0.3233
  908MOL0     C19787   5.187   4.204  10.836 -0.4590 -1.6750 -0.2222
  908MOL0     C19788   5.087   4.201  10.762 -1.0701 -0.7817  0.1848
  908MOL0     C19789   5.568   4.790  10.580 -0.3381  0.7639 -0.1773
  908MOL0     C19790   5.635   4.905  10.551 -0.9996 -0.3805 -0.3645
  908MOL0     H19791   5.725   5.395  10.556 -1.7816  2.7721  2.2384
  908MOL0     H19792   5.862   5.611  10.523  0.7974 -0.4312 -1.8031
  908MOL0     H19793   6.262   5.557  10.525  1.1190  1.0242 -0.9173
  908MOL0     H19794   6.289   5.641  10.679 -0.5248 -1.7070  0.1080
  908MOL0     H19795   6.223   5.844  10.501 -1.6813 -1.6978 -0.6864
  908MOL0     H19796   6.339   5.746  10.413  2.1125  1.9775  0.8569
  908MOL0     H19797   6.494   5.746  10.592  0.0118 -0.4671 -0.5309
  908MOL0     H19798   6.381   5.843  10.691  0.4082  1.5121  0.2767
  908MOL0     H19799   6.516   5.927  10.433 -0.2014  2.0103 -0.2710
  908MOL0     H19800   6.396   6.035  10.524 -1.2817 -1.2267  4.6125
  908MOL0     H19801   6.546   6.040  10.707  0.7586  1.1810 -0.6463
  908MOL0     H19802   6.614   6.106  10.562  1.0216  0.4960  0.6188
  908MOL0     H19803   6.737   5.919  10.513 -2.1994  0.0698 -0.2765
  908MOL0     H19804   6.675   5.817  10.641 -0.0309  0.2699 -0.6230
  908MOL0     H19805   6.909   5.928  10.689  0.4622  1.7301 -0.3581
  908MOL0     H19806   6.850   6.077  10.652  0.7228 -0.6123  0.0702
  908MOL0     H19807   6.708   6.096  10.843  1.0592  1.6275 -1.6693
  908MOL0     H19808   6.869   6.066  10.899 -0.5161  0.8967  0.8455
  908MOL0     H19809   6.563   5.988  11.019  2.6417  1.5727 -0.0059
  908MOL0     H19810   6.471   5.794  11.194  1.5939 -0.1129 -0.1074
  908MOL0     H19811   6.565   5.643  11.200  0.7686 -1.5602 -1.2937
  908MOL0     H19812   6.435   5.557  11.011  1.9876 -0.0244  0.2305
  908MOL0     H19813   6.334   5.712  11.026  1.5295  1.1955  0.2058
  908MOL0     H19814   6.344   5.493  11.240  1.9914  0.4289 -0.1685
  908MOL0     H19815   6.275   5.664  11.254  0.6103  1.0084 -0.2173
  908MOL0     H19816   6.105   5.628  11.108  1.8908  0.0293 -0.0802
  908MOL0     H19817   6.109   5.497  11.226  1.7985 -3.9384 -0.5811
  908MOL0     H19818   6.242   5.209  11.028  0.7236 -1.0819  1.7056
  908MOL0     H19819   6.089   5.008  11.071  1.6546  0.3206  2.1559
  908MOL0     H19820   5.501   4.984  11.072 -0.1406  1.1830  0.9190
  908MOL0     H19821   5.338   4.805  11.180  0.1940 -0.8567  2.8310
  908MOL0     H19822   5.333   4.856  11.531  0.9371 -0.0420 -0.8937
  908MOL0     H19823   5.419   4.717  11.605 -0.3749  1.6433  0.1605
  908MOL0     H19824   5.202   4.732  11.696 -3.1403  0.2214 -0.3264
  908MOL0     H19825   5.217   4.587  11.601 -1.7121  0.0451 -1.0556
  908MOL0     H19826   5.115   4.715  11.404 -1.6318 -1.5452 -0.9309
  908MOL0     H19827   5.065   4.831  11.546 -1.3235 -0.5980  1.1929
  908MOL0     H19828   4.998   4.532  11.489 -0.6913  1.6176 -2.8416
  908MOL0     H19829   4.980   4.604  11.646 -1.5574  0.5022  0.8310
  908MOL0     H19830   4.760   4.620  11.510 -1.3911  2.1386  0.9242
  908MOL0     H19831   4.857   4.719  11.396  2.9312  1.9961  0.8524
  908MOL0     H19832   4.873   4.889  11.603  1.7339 -1.4916 -1.5706
  908MOL0     H19833   4.755   4.780  11.682 -3.8646  1.3669 -0.3312
  908MOL0     H19834   4.710   4.909  11.408 -2.3930 -0.2186 -0.2775
  908MOL0     H19835   4.592   4.827  11.498  1.4663 -0.8625 -0.4958
  908MOL0     H19836   4.716   5.104  11.556  0.4303  0.5972  0.9638
  908MOL0     H19837   4.643   5.019  11.677  1.8888  1.8476 -0.2949
  908MOL0     H19838   5.617   4.733  11.497 -0.5249  1.4582  1.5199
  908MOL0     H19839   5.776   4.894  11.383 -1.0069 -2.0270  3.6350
  908MOL0     H19840   5.755   5.287  11.115  0.9608 -1.1907  2.1767
  908MOL0     H19841   5.917   5.474  11.086  0.5626  0.5585 -1.3608
  908MOL0     H19842   6.184   5.431  10.745 -0.1331  3.5173  0.2669
  908MOL0     H19843   6.046   5.225  10.782 -0.5700 -1.6814 -0.1109
  908MOL0     H19844   5.673   5.025  10.866  1.7775 -1.7986  0.7079
  908MOL0     H19845   5.569   4.790  10.914 -2.4101 -1.1154 -0.5689
  908MOL0     H19846   5.354   4.637  10.858  0.7300  0.9129 -0.7476
  908MOL0     H19847   5.518   4.578  10.914 -0.4742  1.0559  0.1896
  908MOL0     H19848   5.313   4.428  10.754  0.9602 -0.7219 -0.1551
  908MOL0     H19849   5.469   4.362  10.784 -2.1158 -0.9490 -1.8957
  908MOL0     H19850   5.243   4.427  10.990 -0.2392 -0.7059  0.2053
  908MOL0     H19851   5.408   4.385  11.023  0.5549  0.0141 -0.4933
  908MOL0     H19852   5.381   4.158  10.905  0.4734  0.7347  1.3771
  908MOL0     H19853   5.250   4.183  11.032 -1.0872  0.0896 -0.5569
  908MOL0     H19854   5.019   4.206  10.679 -0.8407  0.7890  0.0513
  908MOL0     H19855   5.536   4.729  10.496 -3.3168 -1.5578  2.4439
  908MOL0     H19856   5.643   4.919  10.444  0.3735 -0.4887 -0.2993
  909MOL0     O19857   8.366  11.023   8.456  0.9742  0.4088 -0.0555
  909MOL0     C19858   8.418  11.121   8.506 -0.4100 -0.7189  0.0379
  909MOL0     O19859   8.357  11.232   8.553 -0.1823 -0.1297 -0.0870
  909MOL0     C19860   8.218  11.241   8.552  1.2182  0.4269 -0.0956
  909MOL0     C19861   8.159  11.304   8.442 -0.0717  0.2619  0.0719
  909MOL0     C19862   8.022  11.326   8.438 -0.1500  0.4569 -0.6105
  909MOL0     C19863   7.940  11.270   8.532  0.8922 -0.5167  0.2684
  909MOL0     O19864   7.801  11.277   8.513 -0.0598  0.5623  0.6396
  909MOL0     C19865   7.718  11.261   8.631 -0.3336  0.3102  0.7846
  909MOL0     C19866   7.572  11.316   8.614 -0.7126 -1.1629  0.2152
  909MOL0     C19867   7.480  11.280   8.730  0.1575 -0.4434 -0.3520
  909MOL0     C19868   7.347  11.336   8.679 -0.6789  0.4778 -0.1215
  909MOL0     C19869   7.243  11.298   8.781  0.5794 -0.3581 -0.0267
  909MOL0     C19870   7.212  11.149   8.779  0.5574  0.8731  0.0794
  909MOL0     C19871   7.116  11.121   8.894 -0.5877 -0.6343 -0.2284
  909MOL0     C19872   7.098  10.969   8.916  0.2306  0.1002 -0.0293
  909MOL0     N19873   7.025  10.908   8.796 -0.8483 -0.0498 -0.2954
  909MOL0     C19874   6.907  10.953   8.736 -0.0583  0.7956 -0.2050
  909MOL0     C19875   6.882  10.870   8.630  0.0500  0.0245 -0.8035
  909MOL0     C19876   6.758  10.866   8.542  0.0223 -0.0321 -0.0989
  909MOL0     C19877   6.738  11.000   8.482 -0.0467 -0.1062  0.7461
  909MOL0     C19878   6.618  11.083   8.507  0.0796  0.5295 -0.7365
  909MOL0     C19879   6.582  11.097   8.657  0.1642  0.4410  0.2875
  909MOL0     O19880   6.458  11.172   8.659  0.3965  0.3454  0.6427
  909MOL0     C19881   6.344  11.113   8.706 -0.1954  0.0381  0.1513
  909MOL0     C19882   6.227  11.135   8.632  0.4082 -0.0533 -0.0752
  909MOL0     C19883   6.107  11.100   8.689  0.2064 -0.7065 -0.0667
  909MOL0     C19884   6.095  11.058   8.820 -0.6140  0.7275  0.3662
  909MOL0     C19885   5.968  11.016   8.881  0.0827 -0.3208  0.3407
  909MOL0     O19886   5.866  10.999   8.793  0.2160 -0.7215 -0.1683
  909MOL0     C19887   5.743  10.985   8.851 -0.2873  0.1155 -0.3537
  909MOL0     C19888   5.648  11.092   8.820 -0.2685 -0.2129  0.2233
  909MOL0     C19889   5.516  11.090   8.868 -0.5150  0.2386  0.2827
  909MOL0     C19890   5.479  10.984   8.949  0.0711 -0.9310 -0.3450
  909MOL0     O19891   5.342  10.991   8.978  0.2250 -0.1480  0.0599
  909MOL0     C19892   5.284  10.871   9.030  0.3127  0.3632 -0.4800
  909MOL0     C19893   5.136  10.888   9.011 -0.1180 -0.4361  0.3699
  909MOL0     C19894   5.061  10.761   9.041 -0.1199  0.3705 -1.3303
  909MOL0     C19895   5.087  10.703   9.187  0.3120 -0.2197  0.6038
  909MOL0     C19896   5.001  10.577   9.220  0.1332 -0.1653 -0.3080
  909MOL0     C19897   4.852  10.613   9.245  0.5034  0.9889  0.2486
  909MOL0     C19898   4.789  10.478   9.278  0.2594 -0.4224 -0.1045
  909MOL0     C19899   4.642  10.508   9.306 -0.7165 -0.0361 -0.5508
  909MOL0    Cl19900   4.550  10.545   9.161 -0.0901 -0.2987  0.0099
  909MOL0     C19901   5.567  10.878   8.978  0.2293 -0.1309 -0.3774
  909MOL0     C19902   5.698  10.875   8.925 -0.4393  0.0038 -0.0035
  909MOL0     O19903   5.969  10.982   9.001 -0.2546 -0.7637  0.0503
  909MOL0     C19904   6.216  11.042   8.893  0.2404 -0.1389  0.1447
  909MOL0     C19905   6.343  11.062   8.834  0.0355  0.6435  0.5396
  909MOL0     N19906   6.980  10.776   8.622  0.0689  0.2831 -0.6699
  909MOL0     N19907   7.067  10.799   8.715 -0.7601 -0.0049  0.5346
  909MOL0     C19908   7.998  11.190   8.635 -0.3553 -0.6186  0.3440
  909MOL0     C19909   8.137  11.172   8.643 -0.4251 -0.2850 -0.5076
  909MOL0     C19910   8.564  11.112   8.531  1.1412  0.0947 -0.0464
  909MOL0     C19911   8.627  11.200   8.622 -0.3318 -0.5895 -0.2003
  909MOL0     C19912   8.767  11.202   8.648  0.5383  0.6867 -0.6179
  909MOL0     C19913   8.850  11.121   8.570  1.3789  0.9790  0.2479
  909MOL0     O19914   8.987  11.127   8.587  0.0459  1.2955 -0.3736
  909MOL0     C19915   9.076  11.062   8.503  0.9038 -0.4564  0.1018
  909MOL0     C19916   9.203  11.039   8.582 -0.1725  0.2678  0.3880
  909MOL0     C19917   9.314  10.965   8.497 -0.0965  0.1161  0.4014
  909MOL0     C19918   9.392  11.061   8.399 -0.4675 -0.2308  0.7389
  909MOL0     C19919   9.517  11.005   8.341 -0.1373  0.7144  0.2453
  909MOL0     C19920   9.621  10.951   8.302  0.2770 -1.3648 -0.3136
  909MOL0     C19921   8.791  11.033   8.480  0.7005 -0.0331 -0.0682
  909MOL0     C19922   8.653  11.035   8.457  0.4397 -0.0090 -0.5622
  909MOL0     H19923   8.212  11.343   8.356 -0.0963 -0.9861 -0.5417
  909MOL0     H19924   7.983  11.383   8.354 -1.0088  1.9210  0.7194
  909MOL0     H19925   7.778  11.312   8.707 -0.3405 -3.7025  3.7834
  909MOL0     H19926   7.712  11.161   8.674 -3.0711 -0.4143 -1.0480
  909MOL0     H19927   7.532  11.280   8.519 -2.2974  0.3032  0.2843
  909MOL0     H19928   7.577  11.424   8.602 -3.3497 -0.9844  0.1128
  909MOL0     H19929   7.519  11.321   8.824 -1.6292 -1.4746  0.9147
  909MOL0     H19930   7.474  11.172   8.747  1.3443 -0.5548 -0.5692
  909MOL0     H19931   7.366  11.444   8.677  1.1030  0.2475  1.3779
  909MOL0     H19932   7.312  11.301   8.582  0.3316  3.0983 -1.5484
  909MOL0     H19933   7.157  11.363   8.764  1.9333  1.7040  0.5366
  909MOL0     H19934   7.284  11.321   8.880  0.5828  0.9097 -0.3033
  909MOL0     H19935   7.296  11.081   8.797 -0.7924 -1.8844 -3.0188
  909MOL0     H19936   7.172  11.120   8.682 -0.6181  1.0913  0.4780
  909MOL0     H19937   7.147  11.176   8.983 -3.3419  2.2566 -0.8499
  909MOL0     H19938   7.020  11.171   8.876 -0.8311 -0.4426  1.3976
  909MOL0     H19939   7.029  10.952   9.000  0.8991  1.8796  0.9342
  909MOL0     H19940   7.188  10.912   8.939 -0.5982 -0.8061  1.1492
  909MOL0     H19941   6.848  11.039   8.766 -1.1389 -0.0047  0.0230
  909MOL0     H19942   6.667  10.836   8.594 -0.1083 -1.0131 -0.8654
  909MOL0     H19943   6.775  10.795   8.460  0.0067 -2.1029  1.6131
  909MOL0     H19944   6.748  10.988   8.373  4.4159 -1.1029  1.0453
  909MOL0     H19945   6.824  11.063   8.507  0.0784 -0.0409  0.1872
  909MOL0     H19946   6.633  11.186   8.471  1.3405 -0.2936 -2.7420
  909MOL0     H19947   6.534  11.040   8.452 -1.3292  3.5057 -1.0923
  909MOL0     H19948   6.652  11.152   8.720 -2.5151  4.5389  0.0704
  909MOL0     H19949   6.558  11.003   8.709 -4.1420  0.4802 -1.2220
  909MOL0     H19950   6.225  11.193   8.540  2.1846 -1.8500 -1.3236
  909MOL0     H19951   6.019  11.123   8.628  0.5153  1.6430  0.2604
  909MOL0     H19952   5.690  11.165   8.751 -0.6032 -0.3469 -0.1251
  909MOL0     H19953   5.446  11.171   8.851 -1.1510 -0.3915 -0.1649
  909MOL0     H19954   5.322  10.860   9.132 -0.8946 -1.5880 -0.1820
  909MOL0     H19955   5.312  10.783   8.971 -4.2424 -0.3995 -1.9066
  909MOL0     H19956   5.117  10.910   8.905  0.9793 -4.1959 -0.7707
  909MOL0     H19957   5.100  10.970   9.074  1.8178 -0.1317  1.1246
  909MOL0     H19958   5.090  10.676   8.977 -0.7262 -0.2022 -0.8631
  909MOL0     H19959   4.954  10.766   9.019 -0.2127  0.5246 -0.8446
  909MOL0     H19960   5.193  10.677   9.196  1.2960  3.1447  0.2374
  909MOL0     H19961   5.068  10.792   9.248  0.5382  2.1369 -2.5063
  909MOL0     H19962   5.048  10.536   9.310  0.5962 -1.5314 -1.1387
  909MOL0     H19963   5.022  10.509   9.137  2.9784 -2.3816  2.0156
  909MOL0     H19964   4.801  10.666   9.164 -0.0834  1.4101  0.8833
  909MOL0     H19965   4.834  10.672   9.336 -4.0455 -0.9528  0.8780
  909MOL0     H19966   4.791  10.395   9.205  2.0564 -2.0403  1.6794
  909MOL0     H19967   4.837  10.438   9.368  3.0247  0.7900 -0.9405
  909MOL0     H19968   4.637  10.589   9.380  3.3722 -0.7012  0.6922
  909MOL0     H19969   4.597  10.420   9.351 -2.5170  1.5508  0.9191
  909MOL0     H19970   5.519  10.791   9.023  2.0093 -1.5621 -1.1136
  909MOL0     H19971   5.766  10.794   8.947  2.2420  2.1074 -0.1471
  909MOL0     H19972   6.218  11.019   8.999  2.0388 -0.8693 -0.0095
  909MOL0     H19973   6.427  11.058   8.902  0.1375 -0.6636  0.3565
  909MOL0     H19974   7.933  11.154   8.714 -1.6538  4.4030  1.9318
  909MOL0     H19975   8.172  11.117   8.729 -1.5101 -0.9157 -0.4417
  909MOL0     H19976   8.573  11.277   8.678  0.5510  0.4682 -0.7585
  909MOL0     H19977   8.818  11.269   8.716 -3.3846  2.6775  0.6747
  909MOL0     H19978   9.102  11.128   8.420  0.8346  0.0095  0.4421
  909MOL0     H19979   9.044  10.963   8.471 -1.2850  0.0480  0.5586
  909MOL0     H19980   9.249  11.135   8.610  0.9727  1.3195 -4.2039
  909MOL0     H19981   9.164  10.991   8.672  1.9367  0.5581  1.5169
  909MOL0     H19982   9.270  10.890   8.429 -0.3763  0.1339  0.5620
  909MOL0     H19983   9.375  10.906   8.566 -1.3014 -2.1510 -0.3765
  909MOL0     H19984   9.328  11.077   8.311  0.8818 -1.8587 -0.6306
  909MOL0     H19985   9.402  11.157   8.448 -5.4849  1.5506 -1.0655
  909MOL0     H19986   9.709  10.904   8.262  0.0405 -1.4151 -0.7800
  909MOL0     H19987   8.845  10.968   8.412 -0.4249  1.1520 -2.2176
  909MOL0     H19988   8.610  10.977   8.376  2.3767 -0.1762 -1.5275
  910MOL0     O19989   0.585   5.991   6.237 -0.5292  0.1773 -0.7463
  910MOL0     C19990   0.625   6.018   6.348  0.6070  0.9179  0.2812
  910MOL0     O19991   0.547   6.047   6.457 -0.5572 -0.3498  0.2531
  910MOL0     C19992   0.412   6.056   6.463 -0.4203  0.0694 -0.1787
  910MOL0     C19993   0.324   6.017   6.359 -0.3293  0.1079 -0.7236
  910MOL0     C19994   0.185   6.024   6.375 -0.5289  0.7577 -0.1835
  910MOL0     C19995   0.127   6.043   6.496  0.5082  0.1712 -0.6587
  910MOL0     O19996  -0.012   6.032   6.501  0.3304 -0.7667  0.1290
  910MOL0     C19997  -0.082   6.073   6.624 -0.2954  0.7489 -0.7703
  910MOL0     C19998  -0.228   6.062   6.607 -0.8201  0.3067  0.1257
  910MOL0     C19999  -0.327   6.107   6.726 -0.8945 -0.2611  0.4736
  910MOL0     C20000  -0.477   6.116   6.693 -1.3125  0.8853  0.0578
  910MOL0     C20001  -0.531   5.975   6.671  0.2206 -0.9145  0.3877
  910MOL0     C20002  -0.683   5.974   6.629  0.2438  0.2355 -0.4568
  910MOL0     C20003  -0.727   5.828   6.602 -0.8947 -0.6669 -0.6347
  910MOL0     C20004  -0.870   5.812   6.560  0.1926  0.2257  0.0327
  910MOL0     N20005  -0.959   5.858   6.668  0.7161  0.3036  0.2410
  910MOL0     C20006  -1.009   5.774   6.760  0.0172 -0.0121 -0.6138
  910MOL0     C20007  -1.101   5.839   6.826  0.3120 -0.1625 -0.7177
  910MOL0     C20008  -1.192   5.805   6.938  1.0934 -0.0222 -0.3965
  910MOL0     C20009  -1.329   5.762   6.876  0.6947  0.2555  0.2122
  910MOL0     C20010  -1.428   5.739   6.992  0.5248  0.0351 -0.5616
  910MOL0     C20011  -1.569   5.739   6.938  0.7413 -0.1196 -0.4094
  910MOL0     O20012  -1.643   5.669   7.032  0.1536  0.2078 -0.6203
  910MOL0     C20013  -1.778   5.707   7.045  0.4082  0.1434  0.5676
  910MOL0     C20014  -1.850   5.614   7.120 -0.6287 -0.0763 -1.3014
  910MOL0     C20015  -1.987   5.625   7.131  0.9591 -0.1447  0.2942
  910MOL0     C20016  -2.058   5.734   7.070 -0.2075  0.5500 -0.0445
  910MOL0     C20017  -2.201   5.738   7.093  0.0929  0.2633 -0.4502
  910MOL0     O20018  -2.252   5.854   7.126 -0.1705 -0.6689  0.4162
  910MOL0     C20019  -2.376   5.885   7.168  0.8436  0.0755 -0.1259
  910MOL0     C20020  -2.384   5.995   7.245  0.1395 -0.1279 -0.1669
  910MOL0     C20021  -2.506   6.035   7.296  0.4040  0.2082  0.3781
  910MOL0     C20022  -2.619   5.958   7.295 -0.6700  0.3488  0.9018
  910MOL0     O20023  -2.729   6.004   7.351 -0.4832 -1.1434  0.2319
  910MOL0     C20024  -2.795   5.915   7.438 -0.8326 -0.4272  0.1543
  910MOL0     C20025  -2.943   5.946   7.435 -0.1523  0.0949  0.2805
  910MOL0     C20026  -3.017   5.849   7.348  0.0448  0.0826  0.7731
  910MOL0     C20027  -3.073   5.717   7.416  0.2780 -1.0338  0.5552
  910MOL0     C20028  -3.156   5.627   7.320  0.0182  0.4434 -0.5192
  910MOL0     C20029  -3.176   5.488   7.391  0.7616 -0.1640  0.3660
  910MOL0     C20030  -3.306   5.489   7.474 -0.6131 -1.1219  0.6009
  910MOL0     C20031  -3.329   5.354   7.533 -0.5559  0.3233 -0.0336
  910MOL0    Cl20032  -3.487   5.360   7.622  0.0702  0.2542  0.3869
  910MOL0     C20033  -2.605   5.843   7.223  0.2462  0.6021  0.5488
  910MOL0     C20034  -2.495   5.808   7.147  0.5758  0.2695  0.3701
  910MOL0     O20035  -2.258   5.632   7.071 -0.5071 -0.7405  0.1092
  910MOL0     C20036  -1.992   5.831   7.002 -0.7280 -0.4039  0.4537
  910MOL0     C20037  -1.853   5.809   6.976  0.1968  0.3527 -0.0731
  910MOL0     N20038  -1.112   5.971   6.770 -0.9187  0.6956 -0.3036
  910MOL0     N20039  -1.021   5.977   6.676  0.2485 -0.7805  0.1864
  910MOL0     C20040   0.209   6.074   6.606  0.3711 -0.2555 -0.1867
  910MOL0     C20041   0.349   6.087   6.589 -0.7557 -0.2094  0.1695
  910MOL0     C20042   0.767   6.013   6.372 -0.2428 -0.9310  1.0788
  910MOL0     C20043   0.823   6.102   6.461  0.4337  0.4562 -1.1336
  910MOL0     C20044   0.963   6.112   6.474 -0.9579  1.0164  0.5224
  910MOL0     C20045   1.049   6.033   6.389  0.3467 -0.7163  0.0528
  910MOL0     O20046   1.186   6.018   6.382 -0.7226 -0.4641 -0.2561
  910MOL0     C20047   1.262   6.110   6.460  0.1054  0.0710 -0.2372
  910MOL0     C20048   1.401   6.046   6.497 -0.1192  0.3886 -0.3992
  910MOL0     C20049   1.496   6.035   6.374 -1.0305  0.2957 -0.4818
  910MOL0     C20050   1.635   5.994   6.396 -0.9374 -0.2871 -0.4025
  910MOL0     C20051   1.654   5.894   6.499 -0.3123  0.8805 -0.2595
  910MOL0     C20052   1.688   5.813   6.582 -0.0594 -0.4260  0.2696
  910MOL0     C20053   0.986   5.957   6.297  0.1984 -0.0261 -0.4027
  910MOL0     C20054   0.846   5.943   6.282 -0.3266 -0.2953  0.1358
  910MOL0     H20055   0.362   5.980   6.264  0.7163 -2.9100  0.7415
  910MOL0     H20056   0.115   6.002   6.294  1.4491 -0.5224 -1.6413
  910MOL0     H20057  -0.061   6.175   6.657  1.9693  0.7580 -2.0992
  910MOL0     H20058  -0.053   6.007   6.707 -5.8200 -2.5901 -0.9455
  910MOL0     H20059  -0.249   5.957   6.586 -2.6771  0.6848 -0.0563
  910MOL0     H20060  -0.246   6.125   6.519  2.9447  0.6203 -0.5741
  910MOL0     H20061  -0.300   6.206   6.763 -0.8227 -0.2043  0.2717
  910MOL0     H20062  -0.308   6.036   6.807  2.6940 -1.4121 -1.1285
  910MOL0     H20063  -0.521   6.162   6.782  1.1722 -1.0896  2.4837
  910MOL0     H20064  -0.496   6.169   6.599 -1.6705 -1.4367 -1.2501
  910MOL0     H20065  -0.526   5.924   6.768 -1.4561  1.1575  1.6673
  910MOL0     H20066  -0.478   5.924   6.590 -1.2248 -1.6306 -0.1260
  910MOL0     H20067  -0.703   6.026   6.534  1.8974 -0.3343 -1.1577
  910MOL0     H20068  -0.736   6.027   6.709  1.6091  1.1101 -0.0918
  910MOL0     H20069  -0.654   5.785   6.534  0.7257 -0.0224  0.6107
  910MOL0     H20070  -0.711   5.766   6.691  1.4932 -0.4115 -0.8163
  910MOL0     H20071  -0.899   5.711   6.533  0.5787  0.1406 -0.0773
  910MOL0     H20072  -0.891   5.868   6.468  1.4564  3.6527  1.6381
  910MOL0     H20073  -0.984   5.670   6.778 -0.4069  0.0298  0.2921
  910MOL0     H20074  -1.211   5.895   6.999 -2.2324 -2.8652  3.3172
  910MOL0     H20075  -1.150   5.726   7.001  2.7624 -0.1060 -1.5684
  910MOL0     H20076  -1.312   5.670   6.820  1.7228  1.4315 -1.4974
  910MOL0     H20077  -1.370   5.842   6.813 -3.2658 -0.9053  1.0308
  910MOL0     H20078  -1.387   5.648   7.037  1.2655  0.6620  0.0612
  910MOL0     H20079  -1.439   5.817   7.068 -0.9467 -1.9352  1.3621
  910MOL0     H20080  -1.578   5.689   6.840  1.3847  0.8924 -0.9916
  910MOL0     H20081  -1.593   5.845   6.929 -2.7583 -0.9216 -3.4107
  910MOL0     H20082  -1.792   5.531   7.159 -1.7038 -0.2188  0.0286
  910MOL0     H20083  -2.035   5.555   7.198 -1.0160 -0.9110 -1.7747
  910MOL0     H20084  -2.297   6.059   7.257  1.2832 -1.8190  1.0646
  910MOL0     H20085  -2.526   6.136   7.330  2.0866  0.4586  0.7523
  910MOL0     H20086  -2.755   5.933   7.538 -1.3233  1.3017  0.0777
  910MOL0     H20087  -2.779   5.811   7.409 -1.1432 -0.4426  0.0272
  910MOL0     H20088  -2.963   6.046   7.396  0.5315 -0.6679 -2.2026
  910MOL0     H20089  -2.982   5.939   7.537 -3.8393  2.8832 -0.7000
  910MOL0     H20090  -2.949   5.814   7.269 -0.4685 -0.7405  0.6848
  910MOL0     H20091  -3.097   5.903   7.296  3.3337  2.0737 -2.7126
  910MOL0     H20092  -2.982   5.668   7.450  1.4977  0.6287 -0.1171
  910MOL0     H20093  -3.141   5.745   7.497  1.0274  0.1197  0.8085
  910MOL0     H20094  -3.099   5.613   7.228  0.6519 -2.4553  0.2325
  910MOL0     H20095  -3.243   5.686   7.289  2.5387  4.0999 -1.3932
  910MOL0     H20096  -3.090   5.473   7.457  1.0349  0.2389  0.1098
  910MOL0     H20097  -3.180   5.411   7.314 -2.6016 -0.9437  1.1674
  910MOL0     H20098  -3.304   5.569   7.549 -3.9120 -1.4184  1.1644
  910MOL0     H20099  -3.387   5.523   7.408  1.1171 -0.7492 -1.4304
  910MOL0     H20100  -3.253   5.318   7.603  1.1439  0.2938 -1.8030
  910MOL0     H20101  -3.350   5.274   7.462  0.5368 -0.6810  0.7369
  910MOL0     H20102  -2.681   5.765   7.218  0.8144 -0.0281  1.3795
  910MOL0     H20103  -2.483   5.718   7.088  0.1242 -0.0337  0.7349
  910MOL0     H20104  -2.049   5.905   6.947 -1.1672 -1.2778 -0.3012
  910MOL0     H20105  -1.806   5.882   6.910 -0.1663 -0.9502 -1.8302
  910MOL0     H20106   0.165   6.106   6.700 -0.3829  1.8271 -1.1754
  910MOL0     H20107   0.409   6.125   6.672  0.0824 -0.3961 -0.3321
  910MOL0     H20108   0.749   6.162   6.514  2.7104  2.7510 -0.4003
  910MOL0     H20109   1.015   6.178   6.543  5.5242 -0.9793 -1.6508
  910MOL0     H20110   1.215   6.120   6.558  1.9365 -2.2854  0.9839
  910MOL0     H20111   1.271   6.208   6.413 -2.1223  1.0266  1.1872
  910MOL0     H20112   1.449   6.111   6.571  0.8949  0.2099 -0.8761
  910MOL0     H20113   1.384   5.950   6.545  1.5760  0.2984  0.0782
  910MOL0     H20114   1.488   6.130   6.319 -2.9024  0.5897  0.2169
  910MOL0     H20115   1.445   5.959   6.314 -1.0501 -1.3406  1.4879
  910MOL0     H20116   1.673   5.942   6.308 -0.7722 -2.8407  1.1022
  910MOL0     H20117   1.699   6.080   6.417  0.8450 -1.1585 -1.9736
  910MOL0     H20118   1.735   5.743   6.648 -0.3687  0.9657  2.0171
  910MOL0     H20119   1.050   5.887   6.244  0.4349 -1.2563  1.3838
  910MOL0     H20120   0.797   5.885   6.204  1.1017 -0.3654 -0.7303
  911MOL0     O20121   3.164   4.210   7.366 -0.9760 -0.0840  0.3744
  911MOL0     C20122   3.185   4.330   7.381 -0.1148  0.2931 -0.0406
  911MOL0     O20123   3.087   4.420   7.393  0.4680  0.0133 -0.0177
  911MOL0     C20124   2.955   4.393   7.401  0.4550 -0.2542  0.0689
  911MOL0     C20125   2.883   4.488   7.337  0.3240 -0.1124 -0.1162
  911MOL0     C20126   2.738   4.474   7.333 -0.0993 -0.2346 -0.1846
  911MOL0     C20127   2.669   4.358   7.369 -0.5047 -0.9281 -0.4954
  911MOL0     O20128   2.534   4.328   7.367  0.9094  0.4393 -0.1260
  911MOL0     C20129   2.445   4.433   7.374  0.0243 -1.3300  0.4670
  911MOL0     C20130   2.306   4.375   7.359  0.0589 -1.2353  0.4400
  911MOL0     C20131   2.233   4.354   7.486  0.2777 -0.6691 -0.1150
  911MOL0     C20132   2.125   4.242   7.462 -0.2266  0.1959  0.5439
  911MOL0     C20133   2.015   4.241   7.561  0.5970 -0.6884  0.6788
  911MOL0     C20134   1.910   4.355   7.529  0.0318  0.9238  0.3764
  911MOL0     C20135   1.769   4.328   7.589  0.4696 -0.3635 -0.5398
  911MOL0     C20136   1.765   4.331   7.744 -0.6716  0.4946 -0.2180
  911MOL0     N20137   1.629   4.314   7.800 -0.3549 -0.3068 -0.4234
  911MOL0     C20138   1.511   4.325   7.730  0.1117  0.5106 -0.8962
  911MOL0     C20139   1.416   4.344   7.826 -1.2018  0.5950 -0.7082
  911MOL0     C20140   1.269   4.370   7.808 -0.5449  0.0373  0.2267
  911MOL0     C20141   1.197   4.257   7.744 -0.3174 -0.1042  0.9168
  911MOL0     C20142   1.140   4.146   7.825  0.5206  0.0049 -1.2004
  911MOL0     C20143   1.025   4.194   7.912 -0.0291 -0.1614 -0.2381
  911MOL0     O20144   0.955   4.311   7.862 -0.1157 -0.1328 -0.2204
  911MOL0     C20145   0.823   4.320   7.847 -0.2480  0.1985 -0.1443
  911MOL0     C20146   0.770   4.433   7.784  0.2362  1.2636  0.0252
  911MOL0     C20147   0.637   4.445   7.764  0.0914 -0.2992  0.2225
  911MOL0     C20148   0.544   4.358   7.830 -0.3148 -0.1526  0.5863
  911MOL0     C20149   0.402   4.360   7.816 -0.5739 -0.1146 -0.5705
  911MOL0     O20150   0.359   4.449   7.717 -0.0344  0.6232 -0.0272
  911MOL0     C20151   0.229   4.463   7.678 -0.7800 -0.2390 -0.4470
  911MOL0     C20152   0.219   4.507   7.544 -0.3012 -1.1321  1.2253
  911MOL0     C20153   0.097   4.506   7.472 -0.8845 -0.3920 -0.5108
  911MOL0     C20154  -0.018   4.483   7.549  0.5302  0.7181  0.5712
  911MOL0     O20155  -0.139   4.489   7.478  0.4213  0.6353 -0.4287
  911MOL0     C20156  -0.267   4.498   7.541 -0.5377 -0.2937 -0.6337
  911MOL0     C20157  -0.379   4.460   7.446  0.5221 -1.0505 -0.1304
  911MOL0     C20158  -0.514   4.446   7.512  0.6352  0.0979  0.5107
  911MOL0     C20159  -0.589   4.574   7.523  0.4850  0.1825 -0.1967
  911MOL0     C20160  -0.699   4.576   7.633 -0.2001  0.7047  0.2874
  911MOL0     C20161  -0.748   4.718   7.656  0.2118  0.7652  0.1020
  911MOL0     C20162  -0.842   4.717   7.773  0.4653  0.2542  0.1340
  911MOL0     C20163  -0.940   4.834   7.753 -0.1114 -0.0041  0.0955
  911MOL0    Cl20164  -1.068   4.817   7.880  0.5758 -0.3379  0.4214
  911MOL0     C20165  -0.008   4.448   7.687  0.4601 -0.3400 -1.0072
  911MOL0     C20166   0.115   4.424   7.748 -0.0835  0.0332  0.4733
  911MOL0     O20167   0.337   4.265   7.865  0.7854 -0.4093  0.6102
  911MOL0     C20168   0.600   4.255   7.908 -0.7287 -0.0183 -0.7185
  911MOL0     C20169   0.734   4.237   7.915 -0.5038  0.5489 -0.1974
  911MOL0     N20170   1.486   4.351   7.947  0.0172  0.0150 -0.3014
  911MOL0     N20171   1.612   4.334   7.932  0.0425  0.1926 -0.9704
  911MOL0     C20172   2.754   4.259   7.431  1.0061 -0.4292  0.2423
  911MOL0     C20173   2.892   4.277   7.441 -0.6056 -0.5218 -0.5542
  911MOL0     C20174   3.315   4.394   7.369  0.0756  0.2116  0.2059
  911MOL0     C20175   3.331   4.530   7.401 -0.6313 -0.0028 -0.6432
  911MOL0     C20176   3.468   4.579   7.368 -0.4585  0.7753  0.4857
  911MOL0     C20177   3.563   4.502   7.305 -0.2373 -0.2592 -0.2886
  911MOL0     O20178   3.694   4.546   7.286 -0.2952 -0.4301  0.1734
  911MOL0     C20179   3.704   4.675   7.226  0.9405 -0.2374  0.3653
  911MOL0     C20180   3.840   4.668   7.147 -0.1234  0.3050 -1.1221
  911MOL0     C20181   3.859   4.786   7.053 -0.0144  0.0869  0.6067
  911MOL0     C20182   3.891   4.924   7.130  0.0404  0.5082  0.0486
  911MOL0     C20183   4.016   4.907   7.194 -0.1581 -0.5539  0.5162
  911MOL0     C20184   4.128   4.890   7.236  0.2379  1.0030  0.1065
  911MOL0     C20185   3.534   4.370   7.280 -0.0649 -0.8372 -0.3015
  911MOL0     C20186   3.417   4.315   7.319  1.5806 -1.2033  0.4175
  911MOL0     H20187   2.922   4.578   7.290  0.9487 -0.6296 -0.6008
  911MOL0     H20188   2.683   4.556   7.289  0.0631  0.7543  1.3626
  911MOL0     H20189   2.445   4.491   7.281 -4.3840 -2.3360 -0.3825
  911MOL0     H20190   2.458   4.493   7.464  1.8813  0.3243 -0.7931
  911MOL0     H20191   2.314   4.276   7.312  1.6218 -1.8089  1.8055
  911MOL0     H20192   2.245   4.441   7.297 -0.7634 -0.1790  2.2920
  911MOL0     H20193   2.200   4.450   7.527  0.8151 -0.6672  0.3253
  911MOL0     H20194   2.301   4.316   7.563 -0.3924 -0.6694  0.4786
  911MOL0     H20195   2.079   4.247   7.363  0.4274  0.3983  0.2469
  911MOL0     H20196   2.177   4.147   7.470  0.1685  0.2525 -1.1732
  911MOL0     H20197   2.050   4.247   7.664  0.3275  2.9950  0.6833
  911MOL0     H20198   1.967   4.143   7.551  0.3136 -0.3902 -1.4627
  911MOL0     H20199   1.896   4.373   7.422  1.5042 -0.9118 -0.1862
  911MOL0     H20200   1.948   4.451   7.565 -1.0821  3.1417 -3.6303
  911MOL0     H20201   1.704   4.408   7.554 -2.8913 -1.4595  2.5208
  911MOL0     H20202   1.740   4.226   7.561 -0.3189  0.2275 -1.9692
  911MOL0     H20203   1.798   4.428   7.783 -0.7978  0.5860 -0.3353
  911MOL0     H20204   1.824   4.245   7.774 -0.9347  0.7319  1.0057
  911MOL0     H20205   1.500   4.329   7.622 -2.7395 -1.8215 -0.8029
  911MOL0     H20206   1.256   4.454   7.738  3.1630  0.7195  0.1725
  911MOL0     H20207   1.223   4.385   7.906 -1.2278 -1.2889  0.1288
  911MOL0     H20208   1.269   4.203   7.682 -1.0727 -1.5826  1.2596
  911MOL0     H20209   1.112   4.297   7.687 -0.2423  1.0916  1.6140
  911MOL0     H20210   1.102   4.071   7.755  2.4766  0.7450 -3.1632
  911MOL0     H20211   1.219   4.111   7.892  0.5267  0.3117 -1.0434
  911MOL0     H20212   1.051   4.195   8.018  1.3242  1.2774 -0.5426
  911MOL0     H20213   0.960   4.107   7.906  1.6004 -1.2956 -3.1219
  911MOL0     H20214   0.833   4.505   7.734  2.2104 -0.0952  0.4403
  911MOL0     H20215   0.609   4.530   7.702  2.6147 -1.1276 -2.2298
  911MOL0     H20216   0.308   4.534   7.488 -0.9986 -0.2741  0.4932
  911MOL0     H20217   0.087   4.546   7.371  2.6776  0.6568 -0.5823
  911MOL0     H20218  -0.268   4.595   7.592  1.5858 -1.1200  1.0992
  911MOL0     H20219  -0.279   4.430   7.626 -1.5824 -0.2829 -0.7681
  911MOL0     H20220  -0.360   4.370   7.386  0.5330 -0.6014 -0.8162
  911MOL0     H20221  -0.393   4.537   7.369  2.1055 -0.5729  0.0183
  911MOL0     H20222  -0.494   4.402   7.609 -1.2583  1.2155  1.4737
  911MOL0     H20223  -0.573   4.374   7.454  1.6254 -1.2636  1.1448
  911MOL0     H20224  -0.516   4.651   7.548 -0.4982  1.6148 -1.5551
  911MOL0     H20225  -0.646   4.592   7.431 -1.3567 -0.8804  0.6727
  911MOL0     H20226  -0.667   4.522   7.722 -1.4700 -1.0778 -0.2958
  911MOL0     H20227  -0.777   4.514   7.588  1.7130 -0.4178 -1.7006
  911MOL0     H20228  -0.807   4.747   7.568 -1.1558  1.7237  1.2990
  911MOL0     H20229  -0.666   4.787   7.679  0.0242  1.4547 -1.2148
  911MOL0     H20230  -0.905   4.628   7.786  1.5579 -0.1842  3.3132
  911MOL0     H20231  -0.780   4.724   7.863  2.0115  2.0676 -0.9911
  911MOL0     H20232  -0.984   4.832   7.652 -2.3536 -0.3857  1.0159
  911MOL0     H20233  -0.893   4.933   7.750 -1.8159  0.8527  0.2483
  911MOL0     H20234  -0.100   4.443   7.744  0.1668 -1.4815 -1.5507
  911MOL0     H20235   0.114   4.397   7.853  1.0820 -2.9858 -0.2202
  911MOL0     H20236   0.537   4.183   7.960  1.2950 -1.3684 -0.0380
  911MOL0     H20237   0.771   4.152   7.971 -0.1372 -0.0923 -1.3694
  911MOL0     H20238   2.715   4.168   7.476  0.1906  0.7214  1.9735
  911MOL0     H20239   2.948   4.200   7.494 -1.2296 -1.3117 -1.0219
  911MOL0     H20240   3.246   4.585   7.441 -0.4340  0.2762 -0.6107
  911MOL0     H20241   3.489   4.679   7.405  3.6425  0.8238 -1.4660
  911MOL0     H20242   3.709   4.762   7.292 -3.0120  1.8587 -1.6845
  911MOL0     H20243   3.622   4.695   7.156  1.4578  0.6700  0.0068
  911MOL0     H20244   3.921   4.662   7.219  0.8052  2.5535 -1.8857
  911MOL0     H20245   3.853   4.571   7.098  2.3399  0.8462 -1.6627
  911MOL0     H20246   3.766   4.794   6.996  0.6190 -0.6627 -0.5680
  911MOL0     H20247   3.931   4.768   6.972 -3.1428  2.9774 -3.2187
  911MOL0     H20248   3.894   5.005   7.056  2.0591 -0.9899 -1.6323
  911MOL0     H20249   3.824   4.939   7.215  1.2746 -4.5712  2.3099
  911MOL0     H20250   4.224   4.873   7.279 -0.5780  2.1240  2.5819
  911MOL0     H20251   3.607   4.308   7.228  3.9745  3.1385 -0.0281
  911MOL0     H20252   3.394   4.212   7.290 -1.4199 -1.1805  2.3063
  912MOL0     O20253   4.431   1.291   4.805 -0.8557  0.8398 -0.5817
  912MOL0     C20254   4.486   1.395   4.778  0.1895 -0.1666  0.0932
  912MOL0     O20255   4.440   1.520   4.814  0.6516 -0.7466  0.3111
  912MOL0     C20256   4.324   1.537   4.886 -0.5020 -0.0532  0.0023
  912MOL0     C20257   4.322   1.654   4.973  1.1752  0.4113  0.5971
  912MOL0     C20258   4.202   1.676   5.049 -0.8505 -0.6855  0.5948
  912MOL0     C20259   4.090   1.593   5.031  1.2805 -0.0898  0.3756
  912MOL0     O20260   3.988   1.619   5.120  0.4281  0.6313  0.0371
  912MOL0     C20261   3.916   1.736   5.081 -0.2203 -0.3625 -0.9285
  912MOL0     C20262   3.808   1.697   4.985 -0.0755  0.9460 -0.5294
  912MOL0     C20263   3.745   1.828   4.940 -0.4968 -0.5803 -0.3134
  912MOL0     C20264   3.616   1.803   4.864  0.4015 -0.5843  0.3472
  912MOL0     C20265   3.548   1.935   4.815  0.4773 -0.1693  0.2393
  912MOL0     C20266   3.487   2.027   4.918 -0.4303 -0.8321 -1.3442
  912MOL0     C20267   3.356   1.950   4.955  0.0304  0.7922 -0.5404
  912MOL0     C20268   3.313   2.010   5.084  0.0403 -0.0493 -0.2806
  912MOL0     N20269   3.276   2.156   5.072  0.3802 -0.1807  0.1357
  912MOL0     C20270   3.149   2.196   5.067  0.3352  0.1888  0.1064
  912MOL0     C20271   3.158   2.327   5.037 -0.2521 -0.9939 -0.1589
  912MOL0     C20272   3.044   2.429   5.032  0.3166  0.9057  0.5114
  912MOL0     C20273   3.009   2.455   5.180  0.0847  0.2400 -0.5125
  912MOL0     C20274   2.861   2.503   5.188 -0.4839 -0.9284 -0.1539
  912MOL0     C20275   2.858   2.648   5.120 -0.0445 -0.4044  1.0537
  912MOL0     O20276   2.742   2.721   5.155  0.6196  0.4416  1.4714
  912MOL0     C20277   2.625   2.704   5.074  0.9771  0.3859 -0.1143
  912MOL0     C20278   2.621   2.629   4.955 -0.1616 -0.2554  0.5061
  912MOL0     C20279   2.501   2.622   4.884  0.0135  0.1013  0.2871
  912MOL0     C20280   2.378   2.671   4.942 -0.9466  0.3964  0.4786
  912MOL0     C20281   2.249   2.662   4.871  0.1047 -0.0540  0.0231
  912MOL0     O20282   2.148   2.740   4.925 -0.0706 -0.9504  0.3862
  912MOL0     C20283   2.030   2.746   4.855 -0.3880  0.1008 -0.0660
  912MOL0     C20284   1.997   2.735   4.720  0.0045  0.6846 -0.7394
  912MOL0     C20285   1.867   2.770   4.669 -0.7530 -0.5944  0.5963
  912MOL0     C20286   1.763   2.807   4.755 -0.0842 -0.0976 -0.0502
  912MOL0     O20287   1.635   2.843   4.717  0.3965  0.1142 -0.3887
  912MOL0     C20288   1.576   2.759   4.618 -0.6437  0.0853 -0.4993
  912MOL0     C20289   1.436   2.718   4.650  0.6990  0.1923 -0.7779
  912MOL0     C20290   1.338   2.836   4.669  0.8176  0.0135 -0.5004
  912MOL0     C20291   1.200   2.800   4.733 -0.3512  0.6293  0.4129
  912MOL0     C20292   1.105   2.910   4.753 -0.2273 -0.1148  0.9300
  912MOL0     C20293   1.023   2.943   4.629  0.9247 -0.0191  0.6742
  912MOL0     C20294   0.905   3.045   4.644  0.3599 -0.9830 -0.3378
  912MOL0     C20295   0.936   3.180   4.702  0.2730 -1.2675  0.1902
  912MOL0    Cl20296   0.797   3.290   4.686  0.6859 -0.2907 -0.0312
  912MOL0     C20297   1.798   2.817   4.891 -0.0466 -0.6374 -0.6671
  912MOL0     C20298   1.929   2.796   4.936  0.3220  0.5173 -0.6156
  912MOL0     O20299   2.241   2.584   4.769  0.7274 -0.0466 -0.3859
  912MOL0     C20300   2.385   2.751   5.056  0.4401  1.2827 -1.0216
  912MOL0     C20301   2.508   2.762   5.123 -0.3787  0.0848 -0.0096
  912MOL0     N20302   3.296   2.363   5.043  0.1696  0.3558  0.3157
  912MOL0     N20303   3.367   2.257   5.067 -0.0351  0.1934  0.1938
  912MOL0     C20304   4.091   1.478   4.943 -1.1089 -0.5649 -1.2281
  912MOL0     C20305   4.208   1.457   4.870 -0.1000 -0.3462  0.4951
  912MOL0     C20306   4.608   1.399   4.693 -0.4594  0.6126 -0.1785
  912MOL0     C20307   4.653   1.275   4.633  0.8532 -0.3921  0.6935
  912MOL0     C20308   4.761   1.276   4.537 -0.2277 -0.7053 -0.0480
  912MOL0     C20309   4.823   1.399   4.501 -0.2315  0.0686 -0.8351
  912MOL0     O20310   4.914   1.412   4.406 -0.0787 -0.9840 -0.5334
  912MOL0     C20311   4.914   1.328   4.297  0.5108 -0.0685  0.2336
  912MOL0     C20312   4.994   1.379   4.174 -0.2930 -0.2387 -0.1397
  912MOL0     C20313   5.146   1.360   4.214 -0.2735 -0.1016  0.0518
  912MOL0     C20314   5.238   1.388   4.098 -0.0386 -0.5910 -0.1323
  912MOL0     C20315   5.375   1.356   4.140 -0.0072 -0.7147  0.5996
  912MOL0     C20316   5.496   1.336   4.168  0.4665  0.2584  0.2582
  912MOL0     C20317   4.788   1.503   4.579  0.1192  0.4501 -0.9063
  912MOL0     C20318   4.689   1.512   4.680  0.7174 -0.1072  0.3473
  912MOL0     H20319   4.400   1.727   4.987  1.8756 -0.0671 -0.6453
  912MOL0     H20320   4.199   1.767   5.108  0.3145  0.1992 -0.6497
  912MOL0     H20321   3.978   1.812   5.034 -2.9766  2.9214  0.3492
  912MOL0     H20322   3.866   1.784   5.166 -0.5475 -2.3077  0.0433
  912MOL0     H20323   3.744   1.623   5.033  1.2216 -0.1865 -0.4556
  912MOL0     H20324   3.859   1.654   4.898 -3.7899 -2.5299 -1.2713
  912MOL0     H20325   3.824   1.882   4.887  0.5447  0.3785  2.0935
  912MOL0     H20326   3.729   1.889   5.029  1.2502 -0.9650  0.3073
  912MOL0     H20327   3.637   1.738   4.779 -0.6591 -0.1345 -0.2782
  912MOL0     H20328   3.546   1.760   4.937 -1.4961  2.3209  0.4131
  912MOL0     H20329   3.477   1.914   4.734  0.6740 -0.9179  0.2508
  912MOL0     H20330   3.628   1.988   4.762 -1.2134  0.6279 -1.6463
  912MOL0     H20331   3.475   2.125   4.869 -0.1216 -0.7120 -1.1790
  912MOL0     H20332   3.552   2.045   5.004 -3.7809  0.3035  1.1526
  912MOL0     H20333   3.289   1.990   4.878  0.8636  4.8873  0.6274
  912MOL0     H20334   3.354   1.842   4.943 -1.7861  0.7818 -0.4110
  912MOL0     H20335   3.393   1.998   5.158  1.2638  1.1648 -1.3683
  912MOL0     H20336   3.228   1.956   5.129 -1.7750  2.9074  0.0782
  912MOL0     H20337   3.058   2.137   5.071  0.2372  0.2340 -1.0505
  912MOL0     H20338   2.961   2.380   4.981 -0.2807  1.1406  1.2565
  912MOL0     H20339   3.069   2.519   4.974 -2.3519 -0.6003 -3.4291
  912MOL0     H20340   3.074   2.525   5.233 -1.5942  1.4440  0.0459
  912MOL0     H20341   3.019   2.365   5.241  1.9719  1.5040  1.1595
  912MOL0     H20342   2.794   2.437   5.132  1.0963 -2.6079 -0.1130
  912MOL0     H20343   2.822   2.518   5.289 -0.0428 -0.9847  0.0251
  912MOL0     H20344   2.865   2.645   5.011 -1.7778 -0.0122  0.8931
  912MOL0     H20345   2.941   2.712   5.152 -0.8231  1.1480  0.0979
  912MOL0     H20346   2.709   2.586   4.908 -1.2208 -0.2745 -1.5791
  912MOL0     H20347   2.504   2.574   4.787 -0.4588 -1.0669  0.8409
  912MOL0     H20348   2.083   2.707   4.660  0.4007  0.7357 -0.1926
  912MOL0     H20349   1.841   2.771   4.563 -0.4372 -0.2498  0.5206
  912MOL0     H20350   1.623   2.661   4.611  0.5001  0.6692 -1.2227
  912MOL0     H20351   1.594   2.808   4.521  1.2430 -1.1735 -0.8236
  912MOL0     H20352   1.443   2.654   4.738  0.3397  2.6925  1.1674
  912MOL0     H20353   1.395   2.662   4.565  0.8569  2.5046 -2.4664
  912MOL0     H20354   1.319   2.897   4.580 -1.7231 -0.6552 -0.4693
  912MOL0     H20355   1.393   2.903   4.735  0.3122  1.6681 -1.7008
  912MOL0     H20356   1.150   2.718   4.680  0.5476 -0.3514  1.0329
  912MOL0     H20357   1.227   2.753   4.828 -1.1632 -0.1441  0.2782
  912MOL0     H20358   1.168   2.998   4.770  2.4433 -1.3096 -1.8919
  912MOL0     H20359   1.057   2.885   4.848  3.2986 -0.0299  2.8934
  912MOL0     H20360   0.978   2.845   4.610 -2.3751  1.2643  1.1866
  912MOL0     H20361   1.090   2.985   4.553  1.6636  0.0558  1.3506
  912MOL0     H20362   0.862   3.074   4.548 -2.0381  1.4832  1.3274
  912MOL0     H20363   0.830   3.001   4.710 -0.2000  2.3893  1.4920
  912MOL0     H20364   1.017   3.230   4.648 -1.9755  1.0766 -1.2471
  912MOL0     H20365   0.963   3.176   4.808  0.5345 -1.1431  0.1289
  912MOL0     H20366   1.723   2.856   4.959 -1.5668 -0.7581 -2.2091
  912MOL0     H20367   1.949   2.822   5.040 -0.5333 -3.2506  0.6490
  912MOL0     H20368   2.295   2.797   5.096  0.5668  2.5563 -2.1501
  912MOL0     H20369   2.526   2.817   5.215  3.8554 -1.2175  0.1577
  912MOL0     H20370   4.002   1.418   4.956 -1.6857  0.6783  0.9217
  912MOL0     H20371   4.203   1.372   4.803 -0.6206 -1.7952  2.2791
  912MOL0     H20372   4.594   1.185   4.648 -2.1215  1.4642  0.8968
  912MOL0     H20373   4.780   1.183   4.484  0.9457 -1.2279  1.2192
  912MOL0     H20374   4.808   1.324   4.269 -0.5022  4.6387  2.4124
  912MOL0     H20375   4.944   1.226   4.321  0.1620 -0.4639 -0.9441
  912MOL0     H20376   4.969   1.325   4.083  0.5079  0.0781 -0.5593
  912MOL0     H20377   4.970   1.486   4.164  1.1604  0.1690  0.4374
  912MOL0     H20378   5.158   1.259   4.256 -1.5608 -0.4117 -0.2765
  912MOL0     H20379   5.159   1.426   4.300  0.7713 -2.3212  1.7010
  912MOL0     H20380   5.214   1.325   4.013  1.7742 -0.9731 -0.3928
  912MOL0     H20381   5.224   1.495   4.076 -1.8622 -0.9507 -0.8737
  912MOL0     H20382   5.601   1.317   4.176 -0.1014 -2.9118  1.7214
  912MOL0     H20383   4.830   1.601   4.557 -2.2329  1.3780 -1.5898
  912MOL0     H20384   4.666   1.606   4.729  2.2843  1.0919 -1.1000
  913MOL0     O20385   6.636   9.953   4.195  0.5975 -0.5570 -0.4581
  913MOL0     C20386   6.617  10.061   4.254 -0.0951  0.2470 -0.0737
  913MOL0     O20387   6.524  10.159   4.231 -0.0126 -0.3937  0.0001
  913MOL0     C20388   6.417  10.132   4.152  0.5228  0.2892  0.3458
  913MOL0     C20389   6.362  10.003   4.129  0.0808  0.2710 -0.2427
  913MOL0     C20390   6.248   9.980   4.058 -0.2723  0.3996  0.7285
  913MOL0     C20391   6.172  10.088   4.009  0.0010  1.1716  0.0283
  913MOL0     O20392   6.052  10.080   3.935 -1.0692 -0.3342 -0.2345
  913MOL0     C20393   6.018   9.957   3.883  0.3216  0.8253  0.5221
  913MOL0     C20394   5.936   9.974   3.753 -0.4270  0.4905 -0.5530
  913MOL0     C20395   5.782   9.976   3.765  0.0614 -0.3979  0.3970
  913MOL0     C20396   5.735   9.844   3.829  0.0054  0.0939  0.3713
  913MOL0     C20397   5.587   9.822   3.789  0.2561  0.1373  0.4603
  913MOL0     C20398   5.532   9.684   3.829 -0.0550  0.0581 -0.2275
  913MOL0     C20399   5.556   9.570   3.731 -0.0841 -0.6399 -0.4606
  913MOL0     C20400   5.480   9.445   3.741 -0.5560  0.1401 -0.5360
  913MOL0     N20401   5.339   9.470   3.690  0.2669  0.5316 -0.3153
  913MOL0     C20402   5.293   9.427   3.568  0.0987  1.1123 -0.7059
  913MOL0     C20403   5.157   9.450   3.577 -0.2821  1.1656 -0.5174
  913MOL0     C20404   5.057   9.421   3.468  0.6283  0.1287  0.4841
  913MOL0     C20405   4.986   9.294   3.511  0.2433 -0.3113 -0.3097
  913MOL0     C20406   4.912   9.228   3.389  1.0040  0.4258  0.2062
  913MOL0     C20407   4.834   9.104   3.434  0.9706  1.6976 -0.5205
  913MOL0     O20408   4.787   9.020   3.332  0.2897  0.5548  0.0330
  913MOL0     C20409   4.649   9.032   3.294 -0.6099  1.2312 -0.5809
  913MOL0     C20410   4.550   8.950   3.347 -0.7974 -0.0569  0.3026
  913MOL0     C20411   4.418   8.966   3.298 -0.2141  0.8649  0.0322
  913MOL0     C20412   4.381   9.059   3.201 -0.1628 -0.1289 -0.0946
  913MOL0     C20413   4.238   9.071   3.158  1.3569 -0.5515  0.4190
  913MOL0     O20414   4.165   8.959   3.179  0.3200  0.4321  0.1173
  913MOL0     C20415   4.041   8.952   3.122  0.1481  0.5601 -0.8431
  913MOL0     C20416   3.923   8.984   3.193 -0.3709  0.1366 -0.2957
  913MOL0     C20417   3.794   8.973   3.143  0.3488 -0.4465  1.0731
  913MOL0     C20418   3.777   8.945   3.007  0.8080  0.7619  0.5929
  913MOL0     O20419   3.652   8.947   2.954 -0.2050 -0.5701  0.4515
  913MOL0     C20420   3.560   8.846   2.996  0.5919 -0.2066 -0.7189
  913MOL0     C20421   3.424   8.871   2.922 -0.7707  0.8726 -0.6836
  913MOL0     C20422   3.317   8.768   2.918 -0.2024  0.3749  0.1057
  913MOL0     C20423   3.191   8.808   2.831 -0.4062  0.0786  0.4597
  913MOL0     C20424   3.083   8.699   2.854 -1.0516 -0.2871  0.3300
  913MOL0     C20425   2.955   8.730   2.782  0.0972  0.0282  0.0332
  913MOL0     C20426   2.878   8.852   2.843  0.7719 -0.1328  0.5087
  913MOL0     C20427   2.744   8.889   2.770 -0.1795 -0.1104 -0.1815
  913MOL0    Cl20428   2.755   8.956   2.601 -0.0812  0.1896  0.1837
  913MOL0     C20429   3.887   8.901   2.931 -0.3943 -0.1611 -0.6154
  913MOL0     C20430   4.023   8.901   2.986 -0.5803 -0.2371  0.2780
  913MOL0     O20431   4.199   9.169   3.101 -0.6041 -0.1784 -0.1978
  913MOL0     C20432   4.481   9.136   3.155 -0.0487 -0.4248  0.2267
  913MOL0     C20433   4.614   9.129   3.202  0.3519  0.4990  0.8701
  913MOL0     N20434   5.128   9.517   3.694  0.6148  0.3454  0.1787
  913MOL0     N20435   5.240   9.529   3.761 -0.5607  0.4451  0.4264
  913MOL0     C20436   6.221  10.219   4.040 -0.0444 -0.1994  1.1700
  913MOL0     C20437   6.343  10.242   4.106  0.4396  0.1190  0.1144
  913MOL0     C20438   6.714  10.099   4.360 -0.2667 -0.6531 -0.3045
  913MOL0     C20439   6.842  10.041   4.381 -0.0844 -0.5351  0.3752
  913MOL0     C20440   6.916  10.063   4.500 -0.0090 -0.1178  0.7854
  913MOL0     C20441   6.867  10.154   4.594 -0.5083  0.1008  0.1058
  913MOL0     O20442   6.946  10.187   4.700  0.0800  0.2489 -0.0297
  913MOL0     C20443   6.983  10.086   4.794  0.9676  0.4816  0.7960
  913MOL0     C20444   7.077  10.140   4.902  0.0644 -0.1015 -0.2384
  913MOL0     C20445   7.199  10.196   4.847 -0.3127 -0.3395  0.0808
  913MOL0     C20446   7.288  10.208   4.973  0.4324 -0.3291  0.3010
  913MOL0     C20447   7.406  10.275   4.925  0.2665  0.5674 -0.1408
  913MOL0     C20448   7.510  10.319   4.902 -0.2566 -0.0648  0.1587
  913MOL0     C20449   6.752  10.220   4.568 -0.4031 -0.4323  0.2340
  913MOL0     C20450   6.676  10.192   4.456  0.1517 -0.7971  0.1966
  913MOL0     H20451   6.415   9.914   4.161  1.1264  0.3037 -1.7958
  913MOL0     H20452   6.217   9.876   4.058 -0.0561  0.2461 -2.4606
  913MOL0     H20453   5.957   9.909   3.960  1.5978  0.3372  1.2607
  913MOL0     H20454   6.106   9.893   3.866  0.2901  0.7185  0.7524
  913MOL0     H20455   5.958   9.883   3.697 -1.3969 -0.0260 -0.1293
  913MOL0     H20456   5.976  10.058   3.696 -1.7314  0.4672 -1.5550
  913MOL0     H20457   5.737   9.972   3.666 -2.1032 -2.8887  1.3370
  913MOL0     H20458   5.741  10.063   3.818  1.6123  1.5677 -1.4417
  913MOL0     H20459   5.790   9.753   3.803  0.2124 -0.1527  1.6143
  913MOL0     H20460   5.751   9.840   3.937 -0.4750 -2.1529  0.4117
  913MOL0     H20461   5.581   9.839   3.681  0.9061  0.4698  0.4745
  913MOL0     H20462   5.531   9.902   3.838 -2.3943  0.3153 -2.5220
  913MOL0     H20463   5.427   9.706   3.850  0.4925  1.3907  1.3750
  913MOL0     H20464   5.572   9.643   3.922 -2.5057 -1.4347  0.2395
  913MOL0     H20465   5.554   9.618   3.632  1.0048  1.5052  0.4760
  913MOL0     H20466   5.660   9.539   3.742 -0.1110 -0.2620  1.0526
  913MOL0     H20467   5.468   9.416   3.846 -1.1450 -0.7017 -0.8273
  913MOL0     H20468   5.540   9.369   3.692  2.5556  1.1684  1.4124
  913MOL0     H20469   5.347   9.378   3.488 -2.5520 -0.9131 -1.3848
  913MOL0     H20470   5.113   9.402   3.376  0.8760  1.6758  0.2907
  913MOL0     H20471   4.985   9.501   3.451 -2.1993 -2.4445 -0.5366
  913MOL0     H20472   4.918   9.322   3.592  1.5831  1.4768  0.2802
  913MOL0     H20473   5.059   9.228   3.561  0.2537  1.1553  1.7479
  913MOL0     H20474   4.843   9.297   3.338  0.6611 -2.2399 -3.2933
  913MOL0     H20475   4.982   9.196   3.312  0.3727  0.1009 -0.2444
  913MOL0     H20476   4.747   9.122   3.498 -0.9773 -1.2536 -2.0873
  913MOL0     H20477   4.900   9.042   3.494 -0.5532  0.2108 -0.2997
  913MOL0     H20478   4.567   8.871   3.420  2.1683  0.3112  0.1496
  913MOL0     H20479   4.344   8.895   3.332  0.4319 -0.3955 -1.1139
  913MOL0     H20480   3.930   9.017   3.297  2.1415  0.5819 -0.5397
  913MOL0     H20481   3.715   9.021   3.200  0.7975  3.7538 -1.4327
  913MOL0     H20482   3.547   8.857   3.104  0.4672 -2.4534 -0.4692
  913MOL0     H20483   3.591   8.742   2.986 -0.2363 -0.3593 -1.8647
  913MOL0     H20484   3.456   8.902   2.822  2.0808  1.6670  0.3750
  913MOL0     H20485   3.382   8.964   2.964  0.3007  0.5869  1.0931
  913MOL0     H20486   3.283   8.742   3.019  0.3063  1.1010  0.4695
  913MOL0     H20487   3.366   8.681   2.872  0.8888 -0.1055  2.0479
  913MOL0     H20488   3.164   8.903   2.879  1.2722 -0.5021  2.7136
  913MOL0     H20489   3.209   8.823   2.725 -2.9146  0.8130  0.0536
  913MOL0     H20490   3.067   8.696   2.963 -2.3096 -0.1724  0.1677
  913MOL0     H20491   3.117   8.601   2.819  0.2734  1.2730 -3.2380
  913MOL0     H20492   2.886   8.646   2.790  1.2082 -0.7082  2.8627
  913MOL0     H20493   2.983   8.744   2.677 -1.0807 -0.6800 -0.3913
  913MOL0     H20494   2.856   8.838   2.949 -2.6186  1.4620  0.1801
  913MOL0     H20495   2.945   8.936   2.826 -0.4136  0.3761 -2.2976
  913MOL0     H20496   2.697   8.966   2.832 -0.4551  0.9016 -1.5990
  913MOL0     H20497   2.678   8.803   2.778 -2.2207  1.4413  0.4088
  913MOL0     H20498   3.859   8.868   2.831  0.9639  0.2785 -1.1531
  913MOL0     H20499   4.105   8.872   2.922 -0.8920  1.1305 -0.7991
  913MOL0     H20500   4.463   9.201   3.070  4.8382 -0.9429 -1.5609
  913MOL0     H20501   4.692   9.198   3.172 -0.4943  0.4351 -1.6548
  913MOL0     H20502   6.168  10.297   3.986  3.7994 -0.4621 -3.7434
  913MOL0     H20503   6.381  10.344   4.114 -2.3632  1.4669 -1.8285
  913MOL0     H20504   6.892   9.978   4.308 -0.8489 -0.0991 -0.5563
  913MOL0     H20505   7.004  10.004   4.522  0.8719  1.7100  2.5350
  913MOL0     H20506   7.020   9.999   4.740  2.2309  2.3352 -1.5436
  913MOL0     H20507   6.886  10.052   4.832  1.0515 -1.3404 -0.5150
  913MOL0     H20508   7.027  10.222   4.954 -0.8496  0.8353 -2.4840
  913MOL0     H20509   7.094  10.053   4.966  2.2112  0.3585 -0.1172
  913MOL0     H20510   7.181  10.287   4.789  0.4478 -0.0160  0.3438
  913MOL0     H20511   7.239  10.121   4.778  0.7904  1.1713 -0.9762
  913MOL0     H20512   7.246  10.263   5.058  1.0596  0.6126  0.0166
  913MOL0     H20513   7.318  10.113   5.018 -0.0020 -0.2329  0.8105
  913MOL0     H20514   7.607  10.352   4.872 -0.5161  1.5243  0.9479
  913MOL0     H20515   6.738  10.301   4.639  0.8306 -0.9333  1.1018
  913MOL0     H20516   6.576  10.236   4.458  0.3021 -0.4448  2.3047
  914MOL0     O20517   8.945   7.559   9.745  0.2654 -0.6624 -0.5802
  914MOL0     C20518   9.018   7.530   9.838  0.2419 -1.0228 -0.1036
  914MOL0     O20519   9.006   7.575   9.964  0.2196  0.2193  0.4029
  914MOL0     C20520   8.892   7.651   9.999  0.3059  0.8598 -0.0146
  914MOL0     C20521   8.765   7.603   9.964 -0.5786  0.2979  0.1460
  914MOL0     C20522   8.650   7.657  10.016  0.4328 -0.6083  0.2818
  914MOL0     C20523   8.662   7.775  10.097  0.9580 -0.0852  0.1024
  914MOL0     O20524   8.559   7.840  10.157  0.0889  0.5465  0.7776
  914MOL0     C20525   8.437   7.764  10.183 -0.1587 -0.7204  0.0221
  914MOL0     C20526   8.349   7.840  10.281 -0.2218  0.0908 -0.0785
  914MOL0     C20527   8.208   7.792  10.301  0.4294  0.0783 -0.3084
  914MOL0     C20528   8.139   7.870  10.407  0.0606  0.8005  0.1284
  914MOL0     C20529   7.984   7.853  10.388 -0.3571  0.3808  0.1840
  914MOL0     C20530   7.913   7.938  10.489  0.1717  0.5914 -0.3979
  914MOL0     C20531   7.760   7.941  10.476 -0.0886  0.1151 -0.4196
  914MOL0     C20532   7.698   7.934  10.334  0.5315  0.4580  0.0237
  914MOL0     N20533   7.550   7.920  10.348  0.1778  0.0464 -0.0220
  914MOL0     C20534   7.482   7.807  10.365  0.0415  0.5602  0.8016
  914MOL0     C20535   7.351   7.836  10.367  0.1334 -0.4152 -0.8471
  914MOL0     C20536   7.235   7.748  10.387  0.1037  0.5140 -0.2083
  914MOL0     C20537   7.167   7.711  10.249  0.2996 -0.0381 -0.6166
  914MOL0     C20538   7.248   7.606  10.188  0.7681  1.1755  0.3909
  914MOL0     C20539   7.194   7.564  10.049  0.4935 -0.5506  0.0021
  914MOL0     O20540   7.283   7.481   9.975  0.2027 -0.1311  0.3539
  914MOL0     C20541   7.248   7.451   9.848  0.5992 -0.0717  0.1525
  914MOL0     C20542   7.147   7.513   9.772 -0.2232  0.4892 -0.8098
  914MOL0     C20543   7.110   7.479   9.637 -0.9798  0.3564 -0.4900
  914MOL0     C20544   7.199   7.393   9.565  0.1100  0.2651 -0.4119
  914MOL0     C20545   7.156   7.340   9.433 -0.0123  0.5742 -0.5431
  914MOL0     O20546   7.239   7.249   9.383  0.5681 -0.1040  0.3525
  914MOL0     C20547   7.214   7.194   9.265 -0.7553  0.0625 -0.0880
  914MOL0     C20548   7.232   7.058   9.250  0.3600  0.4048 -0.1204
  914MOL0     C20549   7.202   7.005   9.122 -1.0269  0.7375 -0.5520
  914MOL0     C20550   7.178   7.087   9.006 -0.3923  0.0247 -0.2734
  914MOL0     O20551   7.161   7.030   8.885 -0.4001 -0.2971  0.0572
  914MOL0     C20552   7.251   7.073   8.786 -0.1761  0.8372  0.3685
  914MOL0     C20553   7.340   6.966   8.745 -1.2016  0.0402 -0.5742
  914MOL0     C20554   7.280   6.832   8.698 -0.8789 -0.3327 -0.1155
  914MOL0     C20555   7.365   6.747   8.598  0.4094 -0.1155 -0.6442
  914MOL0     C20556   7.293   6.617   8.561 -0.0896 -0.9340 -0.1112
  914MOL0     C20557   7.350   6.574   8.423 -0.0247  0.0365 -0.5627
  914MOL0     C20558   7.269   6.459   8.382 -0.2348 -0.5632  0.0524
  914MOL0     C20559   7.336   6.386   8.260  0.0839  0.5670 -0.8742
  914MOL0    Cl20560   7.337   6.488   8.114 -0.1122  0.3613 -0.1064
  914MOL0     C20561   7.175   7.222   9.026  0.4308  0.3835  0.4021
  914MOL0     C20562   7.200   7.273   9.153 -0.3542 -0.7995 -0.6585
  914MOL0     O20563   7.052   7.376   9.385 -0.1658  0.0665 -0.3302
  914MOL0     C20564   7.312   7.343   9.633 -0.3613 -0.0794  0.7710
  914MOL0     C20565   7.336   7.376   9.769  0.6508  0.3603  0.0442
  914MOL0     N20566   7.338   7.968  10.334 -0.2178 -0.4876 -0.3880
  914MOL0     N20567   7.455   8.023  10.323 -0.2228  0.2707  0.4647
  914MOL0     C20568   8.785   7.824  10.132 -0.6896 -0.5429 -0.0370
  914MOL0     C20569   8.897   7.764  10.081 -0.0304  0.3408  0.1398
  914MOL0     C20570   9.135   7.451   9.804  0.4695 -0.0581  0.3838
  914MOL0     C20571   9.244   7.434   9.899  0.4085  0.6644 -0.0505
  914MOL0     C20572   9.348   7.344   9.871  0.4697  0.2737 -0.4425
  914MOL0     C20573   9.365   7.277   9.751  0.5492  0.2061  0.2063
  914MOL0     O20574   9.458   7.182   9.715 -0.1249  0.4679  0.1739
  914MOL0     C20575   9.569   7.160   9.809 -0.5546 -0.0508  0.2883
  914MOL0     C20576   9.545   7.022   9.877 -0.2247 -0.2321 -0.2348
  914MOL0     C20577   9.475   7.036  10.015  0.1158 -0.2787  0.5846
  914MOL0     C20578   9.474   6.898  10.079  0.2101 -0.6592  0.4486
  914MOL0     C20579   9.610   6.843  10.111  0.5151 -0.0325 -0.4478
  914MOL0     C20580   9.715   6.799  10.152 -0.3242 -1.0865 -0.0733
  914MOL0     C20581   9.259   7.302   9.659 -0.5236  0.2965 -0.0826
  914MOL0     C20582   9.147   7.384   9.683 -0.7275 -0.3067 -0.8765
  914MOL0     H20583   8.761   7.517   9.897  3.4603 -0.4766  0.6348
  914MOL0     H20584   8.552   7.616   9.995  0.8574 -1.5482  0.0834
  914MOL0     H20585   8.462   7.667  10.226  1.2475 -0.8396 -0.9802
  914MOL0     H20586   8.379   7.757  10.090 -1.2278 -0.4050  0.6474
  914MOL0     H20587   8.349   7.941  10.239  2.5765  0.6412  1.0078
  914MOL0     H20588   8.399   7.833  10.378 -1.2189  1.0283  0.5230
  914MOL0     H20589   8.214   7.689  10.336  0.0439  0.5253  1.1437
  914MOL0     H20590   8.146   7.800  10.211 -1.1459  0.2084  0.7734
  914MOL0     H20591   8.186   7.843  10.503  3.1258 -0.2565 -1.5457
  914MOL0     H20592   8.150   7.978  10.392  0.2950  0.5715 -1.4919
  914MOL0     H20593   7.940   7.753  10.385  2.0891 -0.7997  0.8151
  914MOL0     H20594   7.961   7.902  10.293 -2.4714 -0.2853  0.2951
  914MOL0     H20595   7.945   8.042  10.477 -0.0498  0.6711 -0.2977
  914MOL0     H20596   7.938   7.911  10.592 -3.7088  1.8302  1.0323
  914MOL0     H20597   7.717   7.855  10.528 -0.2139 -2.2021 -4.0293
  914MOL0     H20598   7.726   8.033  10.526 -2.6071 -0.6259 -0.6440
  914MOL0     H20599   7.734   7.849  10.275 -0.4446  0.1051 -0.0885
  914MOL0     H20600   7.721   8.016  10.266 -2.4215  0.5957 -0.9128
  914MOL0     H20601   7.525   7.708  10.378  2.1149  1.1884 -0.6579
  914MOL0     H20602   7.168   7.793  10.461 -2.3639  1.0927 -2.6483
  914MOL0     H20603   7.266   7.652  10.429 -2.6025 -0.0059  0.8151
  914MOL0     H20604   7.176   7.794  10.178  2.2917  0.4734  0.1506
  914MOL0     H20605   7.068   7.678  10.280 -0.3069  2.2162  0.0160
  914MOL0     H20606   7.350   7.634  10.161  1.3353 -0.6169  0.5433
  914MOL0     H20607   7.261   7.517  10.250 -2.2910  0.7221  0.5561
  914MOL0     H20608   7.173   7.657   9.994 -2.0035 -0.9359  0.1791
  914MOL0     H20609   7.093   7.524  10.063  1.1442 -2.6574 -0.9039
  914MOL0     H20610   7.092   7.594   9.818  1.1127  2.2201 -2.1467
  914MOL0     H20611   7.021   7.520   9.590 -0.1775  0.1552 -2.2902
  914MOL0     H20612   7.264   6.997   9.334  1.1070 -0.0704 -0.7413
  914MOL0     H20613   7.204   6.897   9.108 -2.2532  0.3848  1.5539
  914MOL0     H20614   7.303   7.166   8.811 -2.8392  3.2410 -2.1437
  914MOL0     H20615   7.184   7.085   8.701 -1.8278  0.8002  1.6136
  914MOL0     H20616   7.390   6.928   8.835 -2.5680 -0.4856 -0.0033
  914MOL0     H20617   7.402   7.002   8.663 -4.1479  0.0882 -2.9355
  914MOL0     H20618   7.188   6.859   8.646 -1.9228 -3.7187 -0.2428
  914MOL0     H20619   7.258   6.769   8.785  0.9169 -0.9724 -0.0786
  914MOL0     H20620   7.371   6.815   8.512 -0.5312  0.2334 -0.4525
  914MOL0     H20621   7.462   6.728   8.644 -0.4131 -1.5716  0.5500
  914MOL0     H20622   7.184   6.619   8.574  0.0070  0.9452  0.8497
  914MOL0     H20623   7.323   6.546   8.638  0.7820 -0.5710 -0.0994
  914MOL0     H20624   7.458   6.559   8.432  0.1538  0.1791 -2.1374
  914MOL0     H20625   7.336   6.652   8.347 -1.3069  1.1358  0.7615
  914MOL0     H20626   7.258   6.390   8.467 -1.3396 -1.5703 -0.8724
  914MOL0     H20627   7.169   6.496   8.360 -0.8703 -1.4289  1.3420
  914MOL0     H20628   7.289   6.289   8.239  2.7898 -0.9417 -0.3745
  914MOL0     H20629   7.434   6.358   8.300 -0.5401  1.5219  1.4526
  914MOL0     H20630   7.158   7.283   8.938  0.2045 -0.7107 -0.3355
  914MOL0     H20631   7.214   7.379   9.172 -1.3805 -0.9016  0.7614
  914MOL0     H20632   7.384   7.286   9.574 -1.9113 -1.0716 -0.2504
  914MOL0     H20633   7.419   7.333   9.825 -1.1265  0.4664  2.9578
  914MOL0     H20634   8.790   7.899  10.210  1.3037 -2.0102  1.3485
  914MOL0     H20635   8.988   7.822  10.094 -1.5329  2.4008  2.1683
  914MOL0     H20636   9.243   7.471  10.001 -1.5195 -1.4369  0.7766
  914MOL0     H20637   9.416   7.312   9.949  1.5782 -1.5284 -2.0552
  914MOL0     H20638   9.578   7.241   9.881  1.5507 -0.1657  0.1929
  914MOL0     H20639   9.664   7.146   9.756 -1.9049  2.9760 -3.4116
  914MOL0     H20640   9.492   6.951   9.813 -2.3084 -0.9540  2.1271
  914MOL0     H20641   9.645   6.981   9.894  0.0611  0.2939 -0.5921
  914MOL0     H20642   9.376   7.079   9.992 -1.3325 -1.9034  3.3273
  914MOL0     H20643   9.513   7.118  10.076 -2.1388 -0.1156  1.8829
  914MOL0     H20644   9.435   6.900  10.182  1.0411 -1.4245  0.7946
  914MOL0     H20645   9.425   6.824  10.015  2.5270 -2.1171  0.2575
  914MOL0     H20646   9.798   6.749  10.198 -0.2908 -0.4296  0.5987
  914MOL0     H20647   9.258   7.260   9.559  1.1410 -3.0295  1.1457
  914MOL0     H20648   9.072   7.398   9.605 -1.6940  1.1973  0.2663
  915MOL0     O20649   1.659   8.055   3.119  0.0483 -0.2242 -0.1867
  915MOL0     C20650   1.710   8.009   3.015 -0.4484 -0.2308 -0.9125
  915MOL0     O20651   1.655   7.909   2.937  0.0949 -0.3146  0.4483
  915MOL0     C20652   1.534   7.862   2.976  0.0988 -0.1871 -1.0412
  915MOL0     C20653   1.426   7.948   3.001  0.5407 -0.2106  0.3284
  915MOL0     C20654   1.301   7.905   3.032  0.2420 -0.9933  0.0044
  915MOL0     C20655   1.288   7.772   3.061 -0.8855  0.3888 -0.0386
  915MOL0     O20656   1.166   7.739   3.111  0.3876  0.1032  0.6481
  915MOL0     C20657   1.122   7.598   3.107 -0.9522 -0.4935  0.3979
  915MOL0     C20658   0.973   7.605   3.134 -0.0690 -0.5131 -0.7113
  915MOL0     C20659   0.897   7.479   3.107  0.7489 -0.4845 -0.3976
  915MOL0     C20660   0.746   7.502   3.105  0.1950  0.2111  0.1424
  915MOL0     C20661   0.659   7.377   3.096 -0.3507  0.8147 -0.4458
  915MOL0     C20662   0.513   7.398   3.143  0.1389 -0.1557  0.8362
  915MOL0     C20663   0.398   7.304   3.108 -0.1400  0.5011  0.1153
  915MOL0     C20664   0.406   7.212   2.985 -0.2820  0.0153  0.5316
  915MOL0     N20665   0.279   7.148   2.970  0.2692 -0.1319 -0.4114
  915MOL0     C20666   0.246   7.022   3.005  0.0693 -0.1724 -0.4703
  915MOL0     C20667   0.130   6.992   2.946 -0.9575  1.1549 -0.8475
  915MOL0     C20668   0.059   6.853   2.965 -0.2743 -0.2461  0.4655
  915MOL0     C20669   0.114   6.765   2.851 -0.3847 -0.3172 -0.2169
  915MOL0     C20670   0.068   6.616   2.869 -0.2076 -0.8203  0.0043
  915MOL0     C20671  -0.086   6.601   2.835  0.6331 -0.1484  0.5104
  915MOL0     O20672  -0.151   6.715   2.770 -0.2441 -0.0619 -0.2500
  915MOL0     C20673  -0.272   6.768   2.814  0.0876  1.3808 -0.2900
  915MOL0     C20674  -0.303   6.897   2.794  0.9128  0.0920  0.0071
  915MOL0     C20675  -0.440   6.939   2.798 -0.0899  0.1193  0.8017
  915MOL0     C20676  -0.539   6.850   2.840 -0.6871 -0.0392 -0.5388
  915MOL0     C20677  -0.675   6.909   2.855  0.0908  1.0623  0.2884
  915MOL0     O20678  -0.774   6.815   2.850 -0.0555  0.1639 -0.2117
  915MOL0     C20679  -0.905   6.852   2.842  1.0088  0.8950 -0.8752
  915MOL0     C20680  -0.994   6.788   2.926  0.0029  0.0573  0.4547
  915MOL0     C20681  -1.128   6.809   2.903  0.0708  0.2095 -0.5147
  915MOL0     C20682  -1.180   6.896   2.810 -1.1894 -0.4659 -1.0410
  915MOL0     O20683  -1.307   6.932   2.802 -0.0686 -0.2112  0.6585
  915MOL0     C20684  -1.405   6.884   2.894 -0.2308 -0.7746  1.0951
  915MOL0     C20685  -1.543   6.921   2.835 -0.0818  0.2021  0.1663
  915MOL0     C20686  -1.590   6.824   2.719 -0.3634 -0.4045 -0.0179
  915MOL0     C20687  -1.740   6.839   2.708  0.0140  0.3182 -0.3787
  915MOL0     C20688  -1.801   6.742   2.608  0.3661  0.5276  0.1627
  915MOL0     C20689  -1.948   6.722   2.603 -0.2741  0.5923  0.7833
  915MOL0     C20690  -2.007   6.649   2.730 -0.2615  0.7142  0.6293
  915MOL0     C20691  -2.154   6.605   2.693  0.2855  0.5317  0.0668
  915MOL0    Cl20692  -2.259   6.744   2.666 -0.2080 -0.1805 -0.0563
  915MOL0     C20693  -1.088   6.963   2.729  0.4543 -0.4601  0.4877
  915MOL0     C20694  -0.952   6.949   2.745  0.4615 -0.1479  0.0569
  915MOL0     O20695  -0.694   7.033   2.867 -0.1345  0.6025  0.0323
  915MOL0     C20696  -0.502   6.725   2.885  0.4005  0.7941  0.0474
  915MOL0     C20697  -0.370   6.683   2.862  0.6980 -0.3073  0.4070
  915MOL0     N20698   0.085   7.097   2.875  0.3315  0.2735  0.0022
  915MOL0     N20699   0.181   7.186   2.882 -0.2018 -0.5897 -0.1817
  915MOL0     C20700   1.394   7.678   3.026  0.1175  0.6351 -0.8580
  915MOL0     C20701   1.513   7.725   2.986 -1.0439  0.0123  0.0413
  915MOL0     C20702   1.848   8.052   2.996 -0.7538 -0.0758 -0.7562
  915MOL0     C20703   1.916   8.151   3.077  0.8884 -0.3124  0.3831
  915MOL0     C20704   2.052   8.180   3.060  0.6841  0.7082 -0.3202
  915MOL0     C20705   2.130   8.098   2.972 -0.4578 -0.2073  0.5320
  915MOL0     O20706   2.266   8.099   2.958  0.4045 -0.0506 -0.9139
  915MOL0     C20707   2.337   8.192   3.041 -0.0382  0.1016  0.2190
  915MOL0     C20708   2.489   8.184   3.015  0.5827  0.0236  0.2275
  915MOL0     C20709   2.522   8.027   3.045  0.7807  0.5205 -0.2454
  915MOL0     C20710   2.667   8.018   3.069 -0.4349 -0.0143  0.1453
  915MOL0     C20711   2.708   7.891   3.124  0.4380  0.2555 -0.0409
  915MOL0     C20712   2.742   7.790   3.173  0.5303  0.1942 -1.1154
  915MOL0     C20713   2.066   8.008   2.894 -0.2609  0.1450  0.0472
  915MOL0     C20714   1.928   7.983   2.898  0.4247 -0.0349 -0.2612
  915MOL0     H20715   1.431   8.054   2.980 -2.3069 -0.3262 -1.4867
  915MOL0     H20716   1.213   7.968   3.032 -0.2093 -1.5889 -1.3243
  915MOL0     H20717   1.169   7.540   3.187 -2.8716 -2.0541  0.4766
  915MOL0     H20718   1.145   7.553   3.010 -2.7291 -2.0127  0.6137
  915MOL0     H20719   0.939   7.688   3.071 -0.3353  2.1743  2.6390
  915MOL0     H20720   0.955   7.635   3.238 -0.9386  0.1006 -1.0308
  915MOL0     H20721   0.929   7.398   3.173  0.1738 -0.8219 -0.5320
  915MOL0     H20722   0.922   7.449   3.004 -0.0336 -0.3579 -0.6269
  915MOL0     H20723   0.721   7.559   3.196  1.1918 -0.6766  1.0024
  915MOL0     H20724   0.720   7.570   3.024 -0.7856  1.1954  1.2453
  915MOL0     H20725   0.680   7.303   3.173 -2.8720  0.5196  0.0714
  915MOL0     H20726   0.670   7.336   2.995 -0.3765  0.9321 -0.4969
  915MOL0     H20727   0.490   7.496   3.101 -4.4000 -1.4227 -0.1213
  915MOL0     H20728   0.526   7.416   3.250 -1.5764  0.5812  0.9574
  915MOL0     H20729   0.357   7.243   3.188  3.1442 -5.6991 -2.2845
  915MOL0     H20730   0.317   7.371   3.077 -1.6357 -0.6779  1.3482
  915MOL0     H20731   0.489   7.142   2.996 -0.5145 -1.1915 -3.6648
  915MOL0     H20732   0.429   7.279   2.902 -0.5006 -0.0905  0.3846
  915MOL0     H20733   0.308   6.951   3.059  0.3002 -0.8741 -1.6184
  915MOL0     H20734  -0.049   6.862   2.949 -0.5915 -5.7456 -3.1213
  915MOL0     H20735   0.081   6.811   3.064  2.6122  0.8676  0.4174
  915MOL0     H20736   0.224   6.761   2.854 -0.3817 -1.4894  3.1202
  915MOL0     H20737   0.083   6.809   2.757  1.8918  1.1634 -0.3509
  915MOL0     H20738   0.117   6.548   2.799 -3.4884 -0.2419 -3.1497
  915MOL0     H20739   0.087   6.584   2.972  1.3841  1.8164  0.6345
  915MOL0     H20740  -0.135   6.567   2.926 -1.0468 -2.4371 -1.1580
  915MOL0     H20741  -0.087   6.513   2.770  2.3017 -1.6277  2.3600
  915MOL0     H20742  -0.231   6.967   2.754 -0.3216 -0.0488 -2.6448
  915MOL0     H20743  -0.474   7.037   2.764  0.7487 -0.5913 -2.5054
  915MOL0     H20744  -0.961   6.702   2.983  1.9942 -0.2553 -1.0796
  915MOL0     H20745  -1.199   6.754   2.964 -1.4062  0.7910 -1.6453
  915MOL0     H20746  -1.389   6.928   2.993  1.0264 -0.3680  0.7303
  915MOL0     H20747  -1.405   6.775   2.900 -1.1699 -0.8047  0.7532
  915MOL0     H20748  -1.533   7.029   2.817  0.2711  0.3532  1.1750
  915MOL0     H20749  -1.613   6.918   2.920  0.6678  0.3816  0.8039
  915MOL0     H20750  -1.551   6.722   2.727 -0.0931 -0.4534 -1.6312
  915MOL0     H20751  -1.536   6.870   2.636 -0.6119  0.6874  0.4059
  915MOL0     H20752  -1.781   6.829   2.809 -0.8114 -2.6097 -0.9036
  915MOL0     H20753  -1.762   6.940   2.671 -3.1585 -0.4506 -0.8921
  915MOL0     H20754  -1.751   6.647   2.625  0.8711  0.7666  0.0388
  915MOL0     H20755  -1.781   6.788   2.511  1.4029 -2.6318 -1.2436
  915MOL0     H20756  -1.973   6.655   2.521  0.2887  0.0761  1.0315
  915MOL0     H20757  -2.002   6.816   2.587 -2.5018 -0.9467 -1.3940
  915MOL0     H20758  -1.950   6.557   2.745  0.7875  1.1536 -0.5009
  915MOL0     H20759  -2.016   6.712   2.819  1.5033  0.0721  1.3023
  915MOL0     H20760  -2.197   6.556   2.781  0.3701  1.6748  0.7722
  915MOL0     H20761  -2.161   6.529   2.615 -2.4121  0.2049  0.5597
  915MOL0     H20762  -1.141   7.031   2.663  1.0076  0.1530  0.6611
  915MOL0     H20763  -0.890   7.002   2.673 -2.1635  2.7786 -0.2975
  915MOL0     H20764  -0.576   6.663   2.936 -1.1694  3.2570  0.9775
  915MOL0     H20765  -0.334   6.583   2.881  0.6851 -0.5966 -0.9605
  915MOL0     H20766   1.371   7.572   3.031 -4.7779  1.4637 -0.0986
  915MOL0     H20767   1.594   7.662   2.950 -0.8431  0.0229  0.4725
  915MOL0     H20768   1.859   8.219   3.140  1.9719 -0.2837  1.3681
  915MOL0     H20769   2.093   8.257   3.125 -1.3394  0.7044  1.0575
  915MOL0     H20770   2.314   8.167   3.145 -0.7618 -0.8101 -0.1495
  915MOL0     H20771   2.300   8.295   3.033 -2.2781 -0.6760 -0.0390
  915MOL0     H20772   2.500   8.194   2.907 -3.6311  0.0694 -0.3469
  915MOL0     H20773   2.555   8.248   3.074  1.5735 -0.4282 -0.3635
  915MOL0     H20774   2.501   7.967   2.957 -1.5441  0.8421  0.0409
  915MOL0     H20775   2.477   7.997   3.140  0.4320  0.8455 -0.3062
  915MOL0     H20776   2.728   8.049   2.983 -0.2496 -0.4255  0.1290
  915MOL0     H20777   2.683   8.087   3.153 -0.7621  0.9092 -0.5288
  915MOL0     H20778   2.754   7.698   3.225  1.7936  0.6520 -0.5552
  915MOL0     H20779   2.114   7.949   2.817 -0.1200  2.5217 -1.8001
  915MOL0     H20780   1.900   7.913   2.820  1.0750  1.1718 -1.6192
  916MOL0     O20781   4.123   5.194   3.295  0.1578  0.2397  0.3570
  916MOL0     C20782   4.153   5.117   3.383  0.3517 -0.3442 -0.7505
  916MOL0     O20783   4.067   5.075   3.487  0.3319 -0.2377  0.4881
  916MOL0     C20784   3.928   5.096   3.466 -0.0064 -0.1509  1.0066
  916MOL0     C20785   3.866   5.058   3.348 -0.6671  0.3208  0.2164
  916MOL0     C20786   3.722   5.064   3.345 -0.2252  0.8008  1.3894
  916MOL0     C20787   3.637   5.104   3.447 -0.6885  0.2939  0.2764
  916MOL0     O20788   3.505   5.120   3.433 -0.6937  0.1803  0.2367
  916MOL0     C20789   3.419   5.024   3.367  0.0350  1.1565 -0.2858
  916MOL0     C20790   3.280   5.089   3.361  0.3274 -0.6435  0.8677
  916MOL0     C20791   3.160   4.990   3.356  0.7780 -0.8622  1.2607
  916MOL0     C20792   3.020   5.060   3.345 -0.0086 -0.1337  1.6212
  916MOL0     C20793   2.907   4.963   3.362  0.3566 -1.1569 -0.6189
  916MOL0     C20794   2.775   5.022   3.322  0.4446  0.0700 -0.0856
  916MOL0     C20795   2.665   4.924   3.354  0.0440 -0.2658 -0.2516
  916MOL0     C20796   2.534   4.986   3.331  0.0818  0.2024  0.5009
  916MOL0     N20797   2.422   4.886   3.353  0.1497  0.1133 -0.1752
  916MOL0     C20798   2.321   4.913   3.442  0.5226  0.1047  0.7630
  916MOL0     C20799   2.218   4.832   3.402 -0.9121 -0.2952  0.0069
  916MOL0     C20800   2.084   4.863   3.454  0.0419  0.0289  0.2083
  916MOL0     C20801   1.973   4.833   3.357  0.2305 -0.3416 -0.4553
  916MOL0     C20802   1.932   4.686   3.342  0.0266  1.3093  0.4641
  916MOL0     C20803   1.794   4.648   3.401  0.0070  0.1852  0.7093
  916MOL0     O20804   1.782   4.673   3.540 -0.2238 -0.2479 -0.2231
  916MOL0     C20805   1.651   4.674   3.584 -0.6421  0.7428 -1.1319
  916MOL0     C20806   1.624   4.763   3.690  0.2718 -0.7811  0.1840
  916MOL0     C20807   1.500   4.755   3.762  0.8854  0.7601  0.2654
  916MOL0     C20808   1.403   4.654   3.733  0.3849 -0.4118  1.0126
  916MOL0     C20809   1.275   4.648   3.802  0.1102  0.3026 -0.2851
  916MOL0     O20810   1.255   4.751   3.898 -0.7359  0.8866  0.4522
  916MOL0     C20811   1.130   4.762   3.950 -0.4236  0.1525  0.1747
  916MOL0     C20812   1.067   4.650   4.024 -0.4138 -0.0292 -0.5061
  916MOL0     C20813   0.949   4.662   4.088  0.2926 -0.2756  0.1424
  916MOL0     C20814   0.877   4.786   4.076  0.0886  0.3421 -0.3304
  916MOL0     O20815   0.753   4.812   4.126  0.0896  0.1687 -0.7610
  916MOL0     C20816   0.680   4.699   4.175 -0.5865  0.2122  0.4318
  916MOL0     C20817   0.537   4.726   4.233 -0.3645 -1.0606  0.0126
  916MOL0     C20818   0.439   4.756   4.109  0.2423 -0.1286 -0.3951
  916MOL0     C20819   0.294   4.763   4.159  0.1059  0.7427  0.3069
  916MOL0     C20820   0.194   4.783   4.045 -0.2692 -0.5851  0.0168
  916MOL0     C20821   0.059   4.833   4.101 -0.3542 -0.7966  0.2058
  916MOL0     C20822  -0.052   4.863   4.003 -0.0845  0.1445  0.0445
  916MOL0     C20823  -0.105   4.729   3.941  0.0456 -0.6037  0.7287
  916MOL0    Cl20824  -0.263   4.774   3.861 -0.3410  0.1037  0.2131
  916MOL0     C20825   0.938   4.894   4.007  0.9447  1.0453  0.4538
  916MOL0     C20826   1.066   4.886   3.946 -0.4986 -0.2197 -0.3720
  916MOL0     O20827   1.193   4.557   3.774  0.5754 -0.9015 -0.3840
  916MOL0     C20828   1.430   4.569   3.621  0.3677 -0.2287  0.0292
  916MOL0     C20829   1.555   4.578   3.556  0.7152  0.0510  0.1148
  916MOL0     N20830   2.266   4.741   3.309  0.0284  0.1015  0.0552
  916MOL0     N20831   2.389   4.777   3.280 -0.0076  0.1919  0.2611
  916MOL0     C20832   3.699   5.130   3.562  0.4730  0.6572 -0.4773
  916MOL0     C20833   3.842   5.131   3.572  0.0302  0.0758  0.0315
  916MOL0     C20834   4.300   5.059   3.396  0.4846 -0.1768  0.0746
  916MOL0     C20835   4.386   5.085   3.296  0.3324 -0.1648  0.2669
  916MOL0     C20836   4.513   5.030   3.292 -0.0310 -0.3034  0.6032
  916MOL0     C20837   4.558   4.960   3.401 -0.7935  0.1165 -0.1461
  916MOL0     O20838   4.685   4.906   3.395  0.0166  0.1027 -0.1181
  916MOL0     C20839   4.788   4.992   3.436 -0.2440  0.0580  0.4122
  916MOL0     C20840   4.842   4.973   3.569  0.1146  0.7847  1.0491
  916MOL0     C20841   4.998   4.942   3.571  1.1518  0.0511  0.5538
  916MOL0     C20842   5.090   5.063   3.527  0.4165  0.1194  0.3887
  916MOL0     C20843   5.126   5.135   3.651  0.2730  0.6087 -0.2055
  916MOL0     C20844   5.147   5.191   3.757  0.0866 -0.4106  0.7152
  916MOL0     C20845   4.478   4.940   3.512  0.3879  0.1750  0.0307
  916MOL0     C20846   4.344   4.982   3.507  0.1610 -0.7912  0.1398
  916MOL0     H20847   3.911   5.009   3.262 -1.8105 -1.1205  0.4022
  916MOL0     H20848   3.674   5.031   3.253 -0.6748  1.5596  1.3354
  916MOL0     H20849   3.420   4.938   3.434 -0.7583  2.8213  1.9806
  916MOL0     H20850   3.442   4.983   3.268  0.0523  0.4281  0.0181
  916MOL0     H20851   3.294   5.145   3.268 -0.4920  0.6406  1.4824
  916MOL0     H20852   3.262   5.160   3.443 -0.9471  1.7841 -1.3372
  916MOL0     H20853   3.159   4.929   3.447 -0.8846 -0.5180  1.5035
  916MOL0     H20854   3.157   4.927   3.266  0.1153  1.4638 -0.4159
  916MOL0     H20855   3.000   5.139   3.418 -5.0727 -2.0069  2.7154
  916MOL0     H20856   3.007   5.114   3.251 -1.8743 -3.4274 -0.1955
  916MOL0     H20857   2.905   4.935   3.468 -0.7203  2.4887  0.4685
  916MOL0     H20858   2.933   4.872   3.308  3.2353 -1.2587  0.7660
  916MOL0     H20859   2.767   5.061   3.220 -1.8741  0.4743  0.1885
  916MOL0     H20860   2.766   5.102   3.397  1.5899 -1.3099  1.6149
  916MOL0     H20861   2.680   4.847   3.277  2.0719 -1.0950  0.8952
  916MOL0     H20862   2.683   4.886   3.455  3.8023  0.8824 -0.3192
  916MOL0     H20863   2.528   5.013   3.225 -2.8300  0.7090  0.7317
  916MOL0     H20864   2.522   5.080   3.385  0.7471  2.2611 -2.7165
  916MOL0     H20865   2.314   4.981   3.526 -1.1349 -0.2318  0.9127
  916MOL0     H20866   2.073   4.970   3.473 -0.9782  0.3652 -1.9640
  916MOL0     H20867   2.071   4.813   3.550  1.4980 -1.0919 -0.1353
  916MOL0     H20868   2.002   4.873   3.260  2.2285  1.0182  0.6207
  916MOL0     H20869   1.884   4.884   3.394 -0.0846 -0.5463 -0.9261
  916MOL0     H20870   1.910   4.662   3.238  0.7550  1.3135  0.3008
  916MOL0     H20871   2.012   4.618   3.372 -0.4182  0.7579  0.3979
  916MOL0     H20872   1.784   4.543   3.371  2.4466  0.2069 -0.4285
  916MOL0     H20873   1.714   4.693   3.342 -0.2163 -1.4852 -0.3254
  916MOL0     H20874   1.702   4.824   3.733  0.9922 -2.1930  0.9564
  916MOL0     H20875   1.489   4.834   3.836  0.8328  1.7185 -0.7419
  916MOL0     H20876   1.101   4.547   4.032 -0.3654  0.0400  0.2377
  916MOL0     H20877   0.899   4.581   4.141 -2.3290  0.8676 -0.3813
  916MOL0     H20878   0.742   4.655   4.254  0.8509  1.5364  0.0873
  916MOL0     H20879   0.676   4.625   4.095  0.4054 -1.8113  2.1297
  916MOL0     H20880   0.546   4.812   4.300  2.2301 -2.1911  1.2311
  916MOL0     H20881   0.496   4.640   4.287 -0.2214 -0.3092  1.3531
  916MOL0     H20882   0.447   4.677   4.033  1.3360 -0.4991  0.0860
  916MOL0     H20883   0.469   4.849   4.059 -0.9235 -0.9750 -2.8828
  916MOL0     H20884   0.270   4.672   4.215 -1.6992 -0.2168 -1.8618
  916MOL0     H20885   0.285   4.850   4.224 -2.5536 -0.4647  1.7270
  916MOL0     H20886   0.181   4.689   3.990  0.9277 -0.3120 -0.7483
  916MOL0     H20887   0.233   4.856   3.974  0.0242 -0.3126  0.4562
  916MOL0     H20888   0.076   4.925   4.156  0.6195 -1.7152  1.5062
  916MOL0     H20889   0.022   4.763   4.177 -0.8927 -0.2725  0.4324
  916MOL0     H20890  -0.137   4.907   4.056 -0.0497  1.0401 -0.6207
  916MOL0     H20891  -0.003   4.939   3.941 -1.0216  1.0775  0.4234
  916MOL0     H20892  -0.114   4.642   4.007  1.2602 -2.6387 -1.6450
  916MOL0     H20893  -0.034   4.704   3.862 -1.7397 -0.7973 -0.8570
  916MOL0     H20894   0.880   4.983   3.984  1.3648  1.0160 -0.8187
  916MOL0     H20895   1.108   4.971   3.894 -4.0296  0.6849 -2.0094
  916MOL0     H20896   1.355   4.495   3.595  0.9930 -1.0559  0.5512
  916MOL0     H20897   1.568   4.495   3.487 -1.0174 -1.9137  1.9959
  916MOL0     H20898   3.640   5.149   3.651  1.1777  0.8887 -0.0454
  916MOL0     H20899   3.880   5.156   3.670 -0.4919 -1.7270  0.7322
  916MOL0     H20900   4.369   5.143   3.206 -1.0038 -2.7705 -1.2729
  916MOL0     H20901   4.575   5.053   3.207  0.1265  0.8193  0.9997
  916MOL0     H20902   4.741   5.090   3.448 -1.2660 -0.3061 -0.4401
  916MOL0     H20903   4.858   5.010   3.355 -3.2868  2.0395 -1.9926
  916MOL0     H20904   4.822   5.063   3.629  2.1985  0.7035  1.9328
  916MOL0     H20905   4.793   4.888   3.617 -1.2929  1.2317  0.4612
  916MOL0     H20906   5.022   4.855   3.509  0.7664  0.1264  0.2918
  916MOL0     H20907   5.015   4.916   3.676  0.8903 -0.1014  0.5598
  916MOL0     H20908   5.183   5.024   3.485  0.9076  0.5925  1.0157
  916MOL0     H20909   5.040   5.132   3.459  1.2541 -1.9129 -2.4792
  916MOL0     H20910   5.170   5.244   3.847  1.0092  0.9761 -0.3055
  916MOL0     H20911   4.519   4.882   3.593  1.5947 -1.5923 -1.7322
  916MOL0     H20912   4.268   4.964   3.582  0.8083 -0.6044  0.8501
  917MOL0     O20913   7.097   9.052   8.462 -0.4424 -0.2468  0.0579
  917MOL0     C20914   7.064   8.943   8.416  0.0508  0.2988 -0.7154
  917MOL0     O20915   6.934   8.901   8.402 -0.1806 -0.0287 -0.0647
  917MOL0     C20916   6.827   8.984   8.404  1.0430 -0.2869 -0.6710
  917MOL0     C20917   6.828   9.126   8.394  0.5744  0.8833  0.1677
  917MOL0     C20918   6.707   9.186   8.393 -0.4980  0.1411 -0.1546
  917MOL0     C20919   6.580   9.126   8.398 -0.6329  0.4017 -0.3373
  917MOL0     O20920   6.454   9.185   8.392  0.1408  0.4484 -0.2228
  917MOL0     C20921   6.426   9.278   8.489  0.3973  0.4379  0.1908
  917MOL0     C20922   6.306   9.355   8.442  0.0099 -0.0368  0.1580
  917MOL0     C20923   6.341   9.470   8.362  0.5530 -0.5233 -0.4093
  917MOL0     C20924   6.226   9.558   8.318  0.4317 -0.3551  0.3058
  917MOL0     C20925   6.123   9.497   8.223  0.1908 -0.0058  0.5427
  917MOL0     C20926   5.989   9.583   8.239  0.1087  0.4358 -0.1400
  917MOL0     C20927   5.863   9.524   8.184  0.2381 -0.7403 -0.0550
  917MOL0     C20928   5.832   9.371   8.210  0.7652  0.1900  0.7756
  917MOL0     N20929   5.696   9.344   8.154 -0.6268  0.4539  0.1226
  917MOL0     C20930   5.671   9.269   8.044  0.1144 -0.6590  0.1223
  917MOL0     C20931   5.538   9.248   8.048 -0.0602 -0.2618  0.1441
  917MOL0     C20932   5.451   9.188   7.948  0.1160  0.2998  0.6161
  917MOL0     C20933   5.401   9.049   7.990 -0.0799  0.9216 -0.1054
  917MOL0     C20934   5.254   9.042   8.023 -0.7965 -0.0951  0.0058
  917MOL0     C20935   5.215   9.133   8.143 -0.6740  0.1662  0.5608
  917MOL0     O20936   5.070   9.125   8.173 -0.6695  0.5783 -0.3324
  917MOL0     C20937   5.021   9.169   8.301  0.3429  0.3212 -0.0428
  917MOL0     C20938   5.103   9.227   8.397  0.5609 -1.1561  0.7188
  917MOL0     C20939   5.049   9.260   8.523  0.8368  0.1157 -0.1556
  917MOL0     C20940   4.915   9.233   8.552 -0.1864  0.1566 -0.7601
  917MOL0     C20941   4.865   9.266   8.694  0.0505  0.1441 -0.2645
  917MOL0     O20942   4.948   9.327   8.776 -0.2094 -0.1479  0.0284
  917MOL0     C20943   4.908   9.346   8.900  0.1271  0.2631  0.1364
  917MOL0     C20944   4.999   9.322   9.001 -0.5176  0.6138 -0.9709
  917MOL0     C20945   4.961   9.352   9.133 -0.0884  0.0819  0.2972
  917MOL0     C20946   4.833   9.405   9.165 -0.7854 -0.1455 -0.5892
  917MOL0     O20947   4.801   9.414   9.296  0.5941  0.7620 -0.7237
  917MOL0     C20948   4.684   9.487   9.338  0.6622  0.3589 -0.1056
  917MOL0     C20949   4.683   9.486   9.490  0.2319  0.2292  0.3535
  917MOL0     C20950   4.613   9.613   9.553  0.3140 -0.8404  0.1588
  917MOL0     C20951   4.635   9.621   9.707  0.2171 -0.9241  0.1077
  917MOL0     C20952   4.650   9.769   9.752 -0.6712  1.1298 -0.4633
  917MOL0     C20953   4.675   9.783   9.904  0.8603  0.1016  0.2939
  917MOL0     C20954   4.808   9.735   9.952 -0.4858 -0.5455  0.4450
  917MOL0     C20955   4.900   9.854   9.993 -0.0946 -0.0947 -0.1710
  917MOL0    Cl20956   4.973   9.940   9.850  0.6597  0.3208 -0.1915
  917MOL0     C20957   4.744   9.446   9.067  0.2429  0.5604  0.3519
  917MOL0     C20958   4.783   9.404   8.934 -0.0287 -0.0189 -0.5094
  917MOL0     O20959   4.751   9.226   8.717  0.0983 -0.4895 -0.3887
  917MOL0     C20960   4.828   9.193   8.452 -0.1732  0.2431 -0.0281
  917MOL0     C20961   4.880   9.156   8.326 -0.6276 -0.0185 -0.3231
  917MOL0     N20962   5.489   9.304   8.165  0.5195  0.7218  0.2217
  917MOL0     N20963   5.590   9.359   8.229 -0.1831 -0.4686 -0.0472
  917MOL0     C20964   6.581   8.987   8.403  0.4809  0.8673  0.0048
  917MOL0     C20965   6.699   8.920   8.411  0.6518  0.2725  0.2744
  917MOL0     C20966   7.172   8.838   8.409 -1.0181  0.1435 -0.2032
  917MOL0     C20967   7.140   8.705   8.371 -0.4145 -0.5365  0.3145
  917MOL0     C20968   7.238   8.610   8.377  0.4490  0.2480  0.6317
  917MOL0     C20969   7.372   8.638   8.419 -0.2404  0.4031 -0.5033
  917MOL0     O20970   7.477   8.545   8.428  0.0928  0.8340  0.3647
  917MOL0     C20971   7.442   8.405   8.427  0.4699  0.4440 -0.4510
  917MOL0     C20972   7.552   8.322   8.500 -0.1005 -0.0335  0.6279
  917MOL0     C20973   7.704   8.371   8.473  0.7064  0.3111  0.0922
  917MOL0     C20974   7.802   8.282   8.556  0.0983  0.2608 -0.5245
  917MOL0     C20975   7.938   8.330   8.569 -0.0851 -0.1673  0.5546
  917MOL0     C20976   8.037   8.381   8.598 -0.3831 -0.5085 -0.8012
  917MOL0     C20977   7.403   8.768   8.450  0.2936  0.7590 -0.0704
  917MOL0     C20978   7.305   8.869   8.439  0.3341 -0.7782 -0.0256
  917MOL0     H20979   6.912   9.194   8.389  0.1684  1.3740 -0.0663
  917MOL0     H20980   6.698   9.294   8.381  0.4122  0.8939  4.2359
  917MOL0     H20981   6.504   9.354   8.503 -0.2354  1.8255 -2.8840
  917MOL0     H20982   6.397   9.222   8.578 -0.4897 -0.1929 -0.4827
  917MOL0     H20983   6.247   9.385   8.529 -1.0564  2.5585 -1.3557
  917MOL0     H20984   6.248   9.281   8.385  2.0363 -1.2306 -0.4661
  917MOL0     H20985   6.392   9.450   8.267  1.7423 -1.5180  0.4144
  917MOL0     H20986   6.406   9.534   8.422  1.3702 -1.4630 -0.2695
  917MOL0     H20987   6.170   9.585   8.408  0.1839  3.5009 -0.8208
  917MOL0     H20988   6.271   9.649   8.278 -0.9313 -0.0562 -0.5923
  917MOL0     H20989   6.105   9.392   8.246 -1.3818  0.3704  1.1803
  917MOL0     H20990   6.160   9.510   8.121 -2.5993  0.1258 -0.5380
  917MOL0     H20991   6.005   9.684   8.202 -1.0616 -0.4383 -3.4068
  917MOL0     H20992   5.979   9.598   8.347  2.1015  2.9883 -0.2046
  917MOL0     H20993   5.786   9.591   8.222 -0.8229 -1.6145 -0.6106
  917MOL0     H20994   5.856   9.546   8.077  4.2690  2.3662  0.0590
  917MOL0     H20995   5.852   9.351   8.316  2.5997  0.7232  0.5620
  917MOL0     H20996   5.907   9.309   8.160  0.9372 -1.8420  3.2877
  917MOL0     H20997   5.744   9.231   7.974  2.3464 -0.5658  2.2663
  917MOL0     H20998   5.507   9.180   7.854  1.5638  1.3327  1.3518
  917MOL0     H20999   5.363   9.247   7.922 -1.4594 -1.0258  2.7095
  917MOL0     H21000   5.452   9.004   8.075 -0.3945  0.2800 -0.2503
  917MOL0     H21001   5.417   8.979   7.907 -2.7023 -0.7194  0.6573
  917MOL0     H21002   5.197   9.058   7.930 -2.2960 -0.5273  0.8071
  917MOL0     H21003   5.234   8.938   8.049 -0.6960  0.1326  1.0157
  917MOL0     H21004   5.244   9.237   8.127 -1.2138  0.3224  0.5647
  917MOL0     H21005   5.264   9.095   8.233 -1.2928  2.6265  2.0272
  917MOL0     H21006   5.207   9.249   8.378  0.1658 -0.2548 -0.5495
  917MOL0     H21007   5.111   9.294   8.605 -0.5557 -0.6621  1.2865
  917MOL0     H21008   5.101   9.289   8.983  0.1652  1.2525  1.4282
  917MOL0     H21009   5.026   9.313   9.210  0.9847 -1.7641 -1.4690
  917MOL0     H21010   4.588   9.441   9.314  1.6606 -1.8667 -0.1062
  917MOL0     H21011   4.695   9.592   9.309 -1.5194  0.9387  0.9422
  917MOL0     H21012   4.782   9.462   9.529  1.2363 -0.8328 -2.5316
  917MOL0     H21013   4.625   9.399   9.522 -1.3717  0.6088 -1.3293
  917MOL0     H21014   4.506   9.624   9.538  0.4721  0.8606  0.1189
  917MOL0     H21015   4.666   9.700   9.512 -1.0121 -0.6007 -1.1066
  917MOL0     H21016   4.557   9.568   9.763 -0.0290 -1.5357 -0.7955
  917MOL0     H21017   4.729   9.571   9.734 -0.8030 -2.6695  0.5980
  917MOL0     H21018   4.555   9.819   9.731 -1.6946 -0.7001 -0.3909
  917MOL0     H21019   4.730   9.818   9.696 -0.2541  1.8066  0.7055
  917MOL0     H21020   4.587   9.729   9.939 -1.5595 -0.3195 -5.3737
  917MOL0     H21021   4.671   9.883   9.948  2.7696  0.2485  0.2250
  917MOL0     H21022   4.781   9.671  10.036 -1.0790 -0.8061  0.0645
  917MOL0     H21023   4.863   9.683   9.873 -1.9542 -1.1392 -0.2169
  917MOL0     H21024   4.979   9.822  10.062 -0.2012 -0.7466 -0.3473
  917MOL0     H21025   4.850   9.929  10.054  2.1050  3.1548 -2.0369
  917MOL0     H21026   4.648   9.493   9.087 -0.7501 -1.5075  0.7574
  917MOL0     H21027   4.719   9.419   8.847 -1.4066  0.2432  0.5100
  917MOL0     H21028   4.720   9.187   8.462 -0.3421  1.3987 -0.9355
  917MOL0     H21029   4.810   9.133   8.247 -1.6947 -2.6418  1.2537
  917MOL0     H21030   6.486   8.935   8.400  0.3567  1.0559  0.5917
  917MOL0     H21031   6.699   8.812   8.418  0.9813  0.2806  0.4250
  917MOL0     H21032   7.038   8.673   8.351 -0.0064 -1.1047 -0.9607
  917MOL0     H21033   7.206   8.509   8.355 -2.8975  1.0846  1.2292
  917MOL0     H21034   7.433   8.366   8.325 -1.4647 -0.4072  0.0083
  917MOL0     H21035   7.345   8.388   8.474  0.0021  2.6512 -0.5023
  917MOL0     H21036   7.535   8.290   8.604  1.1774 -0.4888  0.7158
  917MOL0     H21037   7.552   8.224   8.452  1.2630 -0.7699  2.0098
  917MOL0     H21038   7.707   8.477   8.499 -1.3706  0.8811 -1.6812
  917MOL0     H21039   7.729   8.351   8.369 -1.5410 -1.2744 -0.2221
  917MOL0     H21040   7.761   8.265   8.656  1.4384  1.0453  0.1812
  917MOL0     H21041   7.788   8.185   8.507 -0.6020  0.4191 -0.6531
  917MOL0     H21042   8.120   8.442   8.628 -2.7495  3.7259 -2.1146
  917MOL0     H21043   7.506   8.782   8.483  0.1645 -0.2861  0.8101
  917MOL0     H21044   7.343   8.964   8.478  0.4422 -1.5271  1.7766
  918MOL0     O21045   0.109  10.060   9.593  0.0169 -0.0512 -0.4711
  918MOL0     C21046   0.121  10.097   9.476  0.3990 -0.3713  0.0575
  918MOL0     O21047   0.240  10.110   9.413 -0.6238  0.4900  0.5088
  918MOL0     C21048   0.349  10.059   9.475 -0.1527 -0.6925  0.5637
  918MOL0     C21049   0.403  10.128   9.585 -0.0646 -0.2948  0.4937
  918MOL0     C21050   0.520  10.080   9.640  0.5361 -0.1284 -0.5677
  918MOL0     C21051   0.590   9.964   9.589  0.6969 -0.0601  0.1412
  918MOL0     O21052   0.716   9.922   9.629  0.3066  0.2243  0.2204
  918MOL0     C21053   0.824   9.935   9.535  1.1332 -0.9734 -0.1404
  918MOL0     C21054   0.954   9.897   9.597  0.1566  0.6711  0.6167
  918MOL0     C21055   0.993   9.994   9.709  0.2642 -0.1219 -0.2173
  918MOL0     C21056   1.125   9.959   9.778 -0.4811 -0.9471  0.0604
  918MOL0     C21057   1.112   9.984   9.930 -0.0905  0.3123  0.0187
  918MOL0     C21058   1.085   9.852  10.005  0.5033  0.0449  0.1219
  918MOL0     C21059   1.080   9.867  10.150 -0.0120 -0.1818 -0.0189
  918MOL0     C21060   0.968   9.937  10.209  0.4639  0.8605  0.2907
  918MOL0     N21061   0.842   9.875  10.180  0.2655 -0.0390 -0.3394
  918MOL0     C21062   0.770   9.909  10.075  0.5847  0.0460  0.1981
  918MOL0     C21063   0.652   9.835  10.086 -0.5764 -0.0682 -0.3765
  918MOL0     C21064   0.550   9.826   9.985 -0.1138 -0.0332 -0.3636
  918MOL0     C21065   0.560   9.706   9.893 -0.0461  0.2253 -0.5942
  918MOL0     C21066   0.428   9.676   9.807  0.3248  0.9192  0.0730
  918MOL0     C21067   0.311   9.655   9.915  0.6665 -0.7084  0.0299
  918MOL0     O21068   0.204   9.573   9.863 -0.2263  0.6573 -0.3319
  918MOL0     C21069   0.087   9.633   9.807 -0.3133  1.1847  0.2418
  918MOL0     C21070  -0.016   9.549   9.768 -0.5850  0.2681 -0.7823
  918MOL0     C21071  -0.140   9.600   9.721 -0.3506  0.3796 -0.7238
  918MOL0     C21072  -0.161   9.733   9.701  0.0329 -0.6483  0.0381
  918MOL0     C21073  -0.292   9.785   9.647  0.6360 -0.0217 -1.2939
  918MOL0     O21074  -0.295   9.913   9.604  0.1291 -0.1741  0.6950
  918MOL0     C21075  -0.406   9.966   9.550  0.4036 -0.2911 -0.1322
  918MOL0     C21076  -0.438  10.081   9.617  0.4300 -0.1008  0.6933
  918MOL0     C21077  -0.555  10.142   9.567 -0.6796  0.3272  0.2811
  918MOL0     C21078  -0.629  10.085   9.468  0.6865 -0.1335 -0.0703
  918MOL0     O21079  -0.730  10.163   9.412  0.1868 -0.6038 -0.7284
  918MOL0     C21080  -0.855  10.110   9.382 -0.5464 -0.0336  0.1301
  918MOL0     C21081  -0.957  10.225   9.340  0.2822  0.7626 -0.1003
  918MOL0     C21082  -0.940  10.358   9.418  0.2525  0.1228  1.4529
  918MOL0     C21083  -1.060  10.444   9.386 -0.5061 -0.2319 -0.6248
  918MOL0     C21084  -1.044  10.583   9.458 -0.1146  0.1416  0.4490
  918MOL0     C21085  -1.159  10.677   9.403 -0.4756  0.0828 -0.6482
  918MOL0     C21086  -1.147  10.808   9.489  0.1708  0.7865  0.0902
  918MOL0     C21087  -1.272  10.889   9.473 -0.7260  0.2845  0.2991
  918MOL0    Cl21088  -1.245  11.059   9.535 -0.0541 -0.1755  0.0275
  918MOL0     C21089  -0.590   9.977   9.394 -0.0389  0.2057 -0.5544
  918MOL0     C21090  -0.470   9.911   9.438  0.2255  0.2775 -0.4773
  918MOL0     O21091  -0.388   9.708   9.652 -0.4867  0.2027 -0.0299
  918MOL0     C21092  -0.056   9.821   9.732 -0.5373 -0.1103  0.0860
  918MOL0     C21093   0.066   9.772   9.786  1.2490  0.2393  0.6454
  918MOL0     N21094   0.666   9.761  10.204 -0.0802  0.6461  0.3118
  918MOL0     N21095   0.770   9.791  10.260 -0.5483 -0.3658  0.2531
  918MOL0     C21096   0.525   9.890   9.487 -0.1291 -0.3748  0.1223
  918MOL0     C21097   0.409   9.938   9.429  0.2729  0.7808 -0.1794
  918MOL0     C21098   0.001  10.146   9.396 -0.1067 -0.1212  0.6036
  918MOL0     C21099   0.018  10.160   9.257  0.2063 -0.8452  0.2616
  918MOL0     C21100  -0.096  10.191   9.185  0.2467  0.7229  0.8152
  918MOL0     C21101  -0.212  10.242   9.247  1.1320 -0.4889 -0.4537
  918MOL0     O21102  -0.323  10.274   9.175  0.2843 -0.4341  0.8611
  918MOL0     C21103  -0.450  10.319   9.226 -0.1996 -0.1303 -0.0177
  918MOL0     C21104  -0.561  10.367   9.128  0.3249 -1.0254 -0.4959
  918MOL0     C21105  -0.574  10.275   9.007  0.6971 -0.0036  0.8582
  918MOL0     C21106  -0.700  10.306   8.927 -0.5632 -0.5155 -0.0287
  918MOL0     C21107  -0.725  10.204   8.833 -0.3937 -0.3603  1.0101
  918MOL0     C21108  -0.741  10.114   8.751 -0.0442 -0.2465 -0.8160
  918MOL0     C21109  -0.219  10.232   9.385  0.1652  0.0645 -0.2032
  918MOL0     C21110  -0.117  10.179   9.463  0.5268 -0.2482 -0.2303
  918MOL0     H21111   0.356  10.219   9.619  1.6827  1.0907 -0.6208
  918MOL0     H21112   0.564  10.131   9.725  0.4207 -1.2805  0.2020
  918MOL0     H21113   0.825  10.038   9.498 -0.7842 -0.6006  0.7584
  918MOL0     H21114   0.814   9.872   9.446 -0.0294  2.0196 -2.2837
  918MOL0     H21115   1.042   9.902   9.532  0.0134  0.2385  0.3815
  918MOL0     H21116   0.939   9.793   9.627 -0.7051 -0.0933 -2.1097
  918MOL0     H21117   0.905   9.995   9.774 -1.3886  1.6658 -2.3318
  918MOL0     H21118   0.997  10.095   9.667  2.5289 -0.2226 -0.3869
  918MOL0     H21119   1.169   9.862   9.753  0.2950 -1.4192  2.8795
  918MOL0     H21120   1.200  10.027   9.736 -1.9180  0.1589 -0.7855
  918MOL0     H21121   1.034  10.058   9.948 -0.6312 -0.0338 -0.8474
  918MOL0     H21122   1.210  10.022   9.962  0.4196 -0.4730 -0.5519
  918MOL0     H21123   1.167   9.786   9.973 -0.4815 -0.9898 -0.3482
  918MOL0     H21124   0.990   9.806   9.975  0.3752  0.6340 -0.3832
  918MOL0     H21125   1.091   9.772  10.203 -2.2432 -0.0566  0.7785
  918MOL0     H21126   1.170   9.924  10.175 -0.3958  2.3173 -3.5665
  918MOL0     H21127   0.968  10.043  10.179  0.2053  0.4977 -1.0396
  918MOL0     H21128   0.989   9.941  10.316  0.6320  2.3407  0.2243
  918MOL0     H21129   0.787   9.976   9.992  1.8985 -1.5403 -0.8724
  918MOL0     H21130   0.539   9.915   9.923 -0.1422  1.0257  1.0986
  918MOL0     H21131   0.456   9.812  10.040  0.3500  2.1242  1.1254
  918MOL0     H21132   0.576   9.616   9.953  0.4796  1.5279  1.3025
  918MOL0     H21133   0.644   9.704   9.823  0.7303 -0.1042  0.3173
  918MOL0     H21134   0.408   9.757   9.736  1.1367 -2.2958 -4.2176
  918MOL0     H21135   0.438   9.582   9.751 -2.2160  1.2222 -1.0009
  918MOL0     H21136   0.265   9.745   9.955  3.0489  2.3484 -3.4867
  918MOL0     H21137   0.347   9.587   9.993  0.4408 -1.2383 -0.3209
  918MOL0     H21138   0.004   9.444   9.781  2.4901  0.8280 -0.2292
  918MOL0     H21139  -0.225   9.533   9.709  1.6205 -2.6684  0.9175
  918MOL0     H21140  -0.398  10.118   9.711  1.4011 -3.0602  1.5559
  918MOL0     H21141  -0.589  10.236   9.610  1.2227  0.7947  0.8810
  918MOL0     H21142  -0.893  10.050   9.466  2.1448 -0.0705  1.3997
  918MOL0     H21143  -0.837  10.035   9.305  1.7536 -1.2242  1.7257
  918MOL0     H21144  -1.056  10.185   9.363  1.9690 -2.6122  2.1651
  918MOL0     H21145  -0.954  10.236   9.232 -2.2975 -0.7130 -0.4131
  918MOL0     H21146  -0.848  10.395   9.374 -0.0110  0.3820  1.1143
  918MOL0     H21147  -0.931  10.334   9.524 -1.6449 -0.7473  1.4738
  918MOL0     H21148  -1.069  10.461   9.278  0.4405  1.5877 -0.4646
  918MOL0     H21149  -1.149  10.395   9.427 -0.4673 -0.6086 -0.9843
  918MOL0     H21150  -0.947  10.633   9.446  1.7705 -2.3626  3.5776
  918MOL0     H21151  -1.053  10.567   9.566  1.6063 -1.7114  0.3716
  918MOL0     H21152  -1.255  10.633   9.428 -0.0131  0.6195  2.5942
  918MOL0     H21153  -1.147  10.694   9.296 -0.9250  1.0515 -0.5621
  918MOL0     H21154  -1.137  10.783   9.594 -2.5946 -0.2400  0.1923
  918MOL0     H21155  -1.057  10.860   9.457  0.6227  0.4645  0.8183
  918MOL0     H21156  -1.340  10.828   9.533 -0.0005 -2.2810 -1.3510
  918MOL0     H21157  -1.307  10.900   9.371  1.9484  0.2209 -0.7114
  918MOL0     H21158  -0.637   9.940   9.304  0.2653 -1.4724 -0.0429
  918MOL0     H21159  -0.448   9.812   9.400 -5.0828 -2.0688  1.5860
  918MOL0     H21160  -0.058   9.929   9.725  0.7481 -0.1157 -0.8527
  918MOL0     H21161   0.153   9.831   9.813  2.9900 -1.4168 -0.9834
  918MOL0     H21162   0.565   9.799   9.443 -1.1472 -0.8872  0.2318
  918MOL0     H21163   0.374   9.876   9.347 -1.5908  2.1629 -0.4914
  918MOL0     H21164   0.117  10.146   9.216 -0.9965 -1.7587 -2.5851
  918MOL0     H21165  -0.101  10.198   9.077 -1.9055  1.2499  0.8965
  918MOL0     H21166  -0.436  10.400   9.298 -0.2185  1.4630 -1.7426
  918MOL0     H21167  -0.498  10.235   9.278 -0.3693 -0.6009 -0.9036
  918MOL0     H21168  -0.657  10.378   9.181  0.2963 -0.9343 -0.5656
  918MOL0     H21169  -0.538  10.471   9.105  1.8246 -0.9074  1.3589
  918MOL0     H21170  -0.573  10.170   9.037 -1.7077 -0.3975 -0.2190
  918MOL0     H21171  -0.480  10.300   8.956  0.9085 -1.3232  0.5751
  918MOL0     H21172  -0.792  10.304   8.986 -1.8406 -2.7722 -1.9382
  918MOL0     H21173  -0.691  10.400   8.873 -1.2399  0.3119  1.2397
  918MOL0     H21174  -0.768  10.034   8.685 -1.2789 -1.0480  0.5855
  918MOL0     H21175  -0.307  10.261   9.441  0.8720  0.1660  0.8797
  918MOL0     H21176  -0.122  10.182   9.572  1.8750 -0.8460 -0.1385
  919MOL0     O21177   9.259   0.831   8.951 -0.9875  0.0134 -0.0536
  919MOL0     C21178   9.172   0.832   8.866  0.0491 -0.0454 -0.5380
  919MOL0     O21179   9.165   0.752   8.757  0.2888 -0.0466 -0.5465
  919MOL0     C21180   9.259   0.663   8.725 -0.8716 -0.5082  0.0451
  919MOL0     C21181   9.310   0.571   8.815 -0.4508 -0.6086 -0.2410
  919MOL0     C21182   9.417   0.485   8.791  0.7436  0.6361  0.3199
  919MOL0     C21183   9.476   0.476   8.667  0.1841 -0.4441 -0.8910
  919MOL0     O21184   9.596   0.406   8.667 -0.2377  0.3015  0.5094
  919MOL0     C21185   9.595   0.317   8.562 -0.1230  0.0170 -0.5455
  919MOL0     C21186   9.650   0.183   8.597  0.6858  0.6120 -0.4592
  919MOL0     C21187   9.566   0.102   8.701 -0.3297  0.0329  0.4281
  919MOL0     C21188   9.607  -0.041   8.708 -0.1485 -0.3363  0.9777
  919MOL0     C21189   9.511  -0.127   8.792  0.3650  0.8280 -0.4965
  919MOL0     C21190   9.555  -0.275   8.783 -0.2186 -0.3485  1.0346
  919MOL0     C21191   9.454  -0.367   8.848  0.3199  0.2883 -0.3737
  919MOL0     C21192   9.476  -0.521   8.826 -0.1473  0.1585  0.4439
  919MOL0     N21193   9.412  -0.568   8.700 -0.2051 -0.5802 -0.9336
  919MOL0     C21194   9.278  -0.570   8.683  0.9935 -0.5024  0.3157
  919MOL0     C21195   9.246  -0.622   8.557  0.3790 -0.0318  0.3583
  919MOL0     C21196   9.113  -0.640   8.486  0.3008 -0.7626 -1.4646
  919MOL0     C21197   8.984  -0.594   8.561 -1.2998  0.2631  0.6201
  919MOL0     C21198   8.851  -0.640   8.494 -0.5723  0.1502  0.0134
  919MOL0     C21199   8.829  -0.612   8.348  0.2346 -0.3606  0.0360
  919MOL0     O21200   8.729  -0.705   8.296 -0.2956 -0.2792 -0.4251
  919MOL0     C21201   8.627  -0.653   8.226  0.5803 -0.0064  0.9173
  919MOL0     C21202   8.650  -0.640   8.088 -0.8932 -0.2632  0.2341
  919MOL0     C21203   8.562  -0.570   8.007  0.9341  0.7859 -0.0999
  919MOL0     C21204   8.451  -0.502   8.064  0.5470  1.2672  0.9070
  919MOL0     C21205   8.359  -0.413   7.990 -0.1543 -0.2349 -0.1761
  919MOL0     O21206   8.280  -0.342   8.076  0.8063  0.1447 -0.4468
  919MOL0     C21207   8.166  -0.275   8.042 -0.1123  1.3537  0.6255
  919MOL0     C21208   8.108  -0.208   8.148 -0.5971 -0.0211 -0.3873
  919MOL0     C21209   7.991  -0.143   8.138 -0.2560  0.6311 -0.1817
  919MOL0     C21210   7.923  -0.136   8.008 -0.0551 -0.2107  0.1849
  919MOL0     O21211   7.800  -0.067   7.994  0.0673  0.5846 -0.1629
  919MOL0     C21212   7.760   0.020   8.094  0.3364 -0.7461  1.1850
  919MOL0     C21213   7.626   0.080   8.043  0.0212 -0.2814 -0.7509
  919MOL0     C21214   7.573   0.208   8.118  0.6884  0.0294 -0.7957
  919MOL0     C21215   7.568   0.189   8.274  0.4718 -0.2142 -1.0172
  919MOL0     C21216   7.515   0.317   8.336  0.5129 -0.7014  0.1303
  919MOL0     C21217   7.363   0.350   8.306 -0.8257 -0.6721 -0.6939
  919MOL0     C21218   7.335   0.487   8.372 -0.8948  0.2308 -0.6176
  919MOL0     C21219   7.264   0.591   8.283 -0.6576  0.7984  0.0754
  919MOL0    Cl21220   7.109   0.525   8.210  0.2113 -0.0221 -0.0037
  919MOL0     C21221   7.983  -0.201   7.898  0.1092 -0.3493 -0.5045
  919MOL0     C21222   8.107  -0.264   7.915 -0.3558  0.2553  0.5088
  919MOL0     O21223   8.376  -0.386   7.874 -0.2840 -0.0275 -0.9993
  919MOL0     C21224   8.425  -0.531   8.198  0.8786  0.5482 -0.0113
  919MOL0     C21225   8.514  -0.600   8.277 -0.3522  0.0364 -0.1466
  919MOL0     N21226   9.369  -0.634   8.495 -0.3128  0.0677  0.0993
  919MOL0     N21227   9.467  -0.593   8.582  0.5948 -0.3983 -0.1755
  919MOL0     C21228   9.419   0.563   8.568 -0.5047  1.1527  0.1113
  919MOL0     C21229   9.319   0.660   8.597  0.5872 -0.3172 -0.4330
  919MOL0     C21230   9.044   0.918   8.896 -0.3404  0.4546  0.6334
  919MOL0     C21231   9.037   0.975   9.022 -0.5096 -0.4754 -0.7187
  919MOL0     C21232   8.925   1.054   9.052  0.7748 -0.7375 -0.7650
  919MOL0     C21233   8.816   1.069   8.956 -0.5588 -0.6913  0.8078
  919MOL0     O21234   8.706   1.139   8.995 -0.3982 -0.2687  0.8263
  919MOL0     C21235   8.589   1.147   8.907 -0.3392 -1.0941  0.4587
  919MOL0     C21236   8.592   1.279   8.819  0.0022  0.3358  0.3280
  919MOL0     C21237   8.545   1.406   8.894 -0.7587 -0.3722 -0.1225
  919MOL0     C21238   8.393   1.425   8.923 -0.0400 -0.3654  0.4426
  919MOL0     C21239   8.328   1.453   8.795  0.0012 -0.0474 -0.3059
  919MOL0     C21240   8.260   1.451   8.695 -0.0356 -0.0512 -0.0712
  919MOL0     C21241   8.837   1.011   8.832  0.0230  0.3897  0.5561
  919MOL0     C21242   8.948   0.934   8.801  0.1347 -0.3531 -0.1445
  919MOL0     H21243   9.261   0.588   8.911  1.6077  1.3995  0.5564
  919MOL0     H21244   9.464   0.417   8.862  0.4859 -0.1328 -0.2404
  919MOL0     H21245   9.657   0.360   8.482  0.3790  1.1633  0.4268
  919MOL0     H21246   9.492   0.298   8.532  0.0507 -0.1265 -1.0623
  919MOL0     H21247   9.753   0.193   8.633  0.2953 -2.5478  1.9441
  919MOL0     H21248   9.650   0.121   8.506 -0.3128 -3.0122  1.8091
  919MOL0     H21249   9.458   0.120   8.692  0.1515  2.9902 -0.4527
  919MOL0     H21250   9.586   0.152   8.797 -1.4185  0.0016  0.6865
  919MOL0     H21251   9.595  -0.086   8.610 -0.6515 -0.8887  1.2833
  919MOL0     H21252   9.711  -0.048   8.740  0.0342  0.3738  0.5518
  919MOL0     H21253   9.407  -0.115   8.760 -0.4985 -1.4665  1.1619
  919MOL0     H21254   9.509  -0.086   8.893  1.2957 -1.8354  0.7215
  919MOL0     H21255   9.654  -0.283   8.828  0.5265  0.4446 -0.4119
  919MOL0     H21256   9.567  -0.304   8.678  0.6036  1.1120  0.7059
  919MOL0     H21257   9.448  -0.358   8.957 -0.2913  0.0399 -0.3839
  919MOL0     H21258   9.355  -0.343   8.807 -1.5692  2.0400  4.4436
  919MOL0     H21259   9.428  -0.568   8.913  1.0273 -2.9320 -0.4193
  919MOL0     H21260   9.582  -0.550   8.830 -0.6316 -1.9244 -0.6076
  919MOL0     H21261   9.196  -0.554   8.752  0.5756 -0.2145 -0.2364
  919MOL0     H21262   9.111  -0.745   8.455 -0.2726 -1.0301 -0.5694
  919MOL0     H21263   9.123  -0.575   8.399 -3.4744  3.9817  1.1516
  919MOL0     H21264   8.986  -0.484   8.566  1.5728  0.3325 -0.4247
  919MOL0     H21265   8.997  -0.628   8.664 -0.9103 -1.0502  0.1505
  919MOL0     H21266   8.851  -0.749   8.505 -0.0039  0.3783  3.3159
  919MOL0     H21267   8.764  -0.613   8.556 -0.1299  0.4476  0.5136
  919MOL0     H21268   8.922  -0.618   8.291  0.3131 -0.4955  0.1757
  919MOL0     H21269   8.797  -0.508   8.343  1.6874  0.0920 -0.3437
  919MOL0     H21270   8.739  -0.687   8.048 -0.3793 -1.0552  2.2019
  919MOL0     H21271   8.593  -0.558   7.903  2.3839  1.7773  0.4263
  919MOL0     H21272   8.149  -0.223   8.247  2.2414 -2.1505 -1.7665
  919MOL0     H21273   7.956  -0.087   8.224 -2.5827 -2.3853  1.0076
  919MOL0     H21274   7.826   0.104   8.115 -0.2578  0.2419 -0.6902
  919MOL0     H21275   7.721  -0.023   8.187 -3.7763 -0.5790 -0.2279
  919MOL0     H21276   7.547   0.006   8.029  2.2425 -2.6372 -1.6449
  919MOL0     H21277   7.650   0.123   7.946  1.5000  1.1894  0.2058
  919MOL0     H21278   7.474   0.234   8.080 -0.2110 -1.6903  0.2317
  919MOL0     H21279   7.634   0.298   8.108 -1.4467  1.8570  1.3402
  919MOL0     H21280   7.499   0.106   8.290 -0.7490  1.1370  1.2220
  919MOL0     H21281   7.654   0.157   8.333 -1.0679  1.2229  2.2084
  919MOL0     H21282   7.581   0.395   8.297 -0.0925 -1.0027 -1.5944
  919MOL0     H21283   7.532   0.308   8.444  0.3298 -0.4022  0.1825
  919MOL0     H21284   7.292   0.278   8.349  0.2050 -1.6066 -0.5301
  919MOL0     H21285   7.349   0.339   8.198  0.8410 -3.1604 -0.7192
  919MOL0     H21286   7.267   0.461   8.454  1.7015 -0.2415  1.5310
  919MOL0     H21287   7.422   0.540   8.411  0.0824 -1.7265 -0.0255
  919MOL0     H21288   7.340   0.622   8.211  0.3686 -0.9977  0.3262
  919MOL0     H21289   7.225   0.670   8.348  1.5486  1.5993  0.5220
  919MOL0     H21290   7.938  -0.202   7.799  2.1972  2.3988 -1.6003
  919MOL0     H21291   8.148  -0.311   7.827  1.7946  0.0504  1.5525
  919MOL0     H21292   8.339  -0.489   8.250 -1.1819 -0.4438 -2.4296
  919MOL0     H21293   8.486  -0.615   8.381 -0.0571  0.3115 -0.0249
  919MOL0     H21294   9.463   0.557   8.469 -0.9594 -1.8582 -0.0283
  919MOL0     H21295   9.285   0.734   8.524 -1.0060 -0.4652  0.1367
  919MOL0     H21296   9.123   0.975   9.089 -1.4348  0.7014  0.5207
  919MOL0     H21297   8.911   1.105   9.147 -1.4204 -4.3056  0.9870
  919MOL0     H21298   8.495   1.142   8.964 -1.5306  0.3628 -1.2582
  919MOL0     H21299   8.581   1.055   8.850 -1.3445 -1.4482  1.1389
  919MOL0     H21300   8.694   1.285   8.782  0.1611  1.3457  0.8972
  919MOL0     H21301   8.538   1.264   8.725  2.3968  1.1623 -1.2722
  919MOL0     H21302   8.569   1.493   8.833 -2.1284  1.3991  1.7385
  919MOL0     H21303   8.594   1.414   8.992 -3.1498  2.1235  0.9956
  919MOL0     H21304   8.351   1.335   8.968  1.3681 -1.2585  0.0312
  919MOL0     H21305   8.372   1.514   8.983  1.1424  1.0177 -1.0877
  919MOL0     H21306   8.196   1.463   8.610 -2.1490  0.1402  1.4729
  919MOL0     H21307   8.772   1.052   8.755  0.7287  0.8398  0.1961
  919MOL0     H21308   8.963   0.887   8.705 -1.8917 -1.0983 -0.1528
  920MOL0     O21309   9.086   5.145   8.500 -0.1108 -0.6022 -0.3586
  920MOL0     C21310   9.138   5.034   8.523  0.1577 -0.9846 -0.7400
  920MOL0     O21311   9.073   4.920   8.570  0.3297 -0.0716 -0.1001
  920MOL0     C21312   8.935   4.916   8.591  0.4643 -0.4046  0.7591
  920MOL0     C21313   8.865   4.829   8.507 -0.1863 -0.6003  0.1488
  920MOL0     C21314   8.730   4.810   8.520 -0.6396  0.2910 -0.7328
  920MOL0     C21315   8.656   4.878   8.611 -0.0581  1.4363 -1.5226
  920MOL0     O21316   8.519   4.870   8.630 -0.1072 -0.7520 -0.6423
  920MOL0     C21317   8.458   4.750   8.582 -0.0298 -0.3906 -0.4465
  920MOL0     C21318   8.314   4.741   8.632 -0.1325  0.2618 -0.4588
  920MOL0     C21319   8.238   4.872   8.616  0.2681 -0.4727  0.4020
  920MOL0     C21320   8.240   4.944   8.480 -0.7100 -0.6572 -0.2074
  920MOL0     C21321   8.135   5.063   8.470  0.4637  0.5207 -0.3430
  920MOL0     C21322   8.066   5.077   8.327  0.7266 -0.7661 -0.3411
  920MOL0     C21323   8.158   5.087   8.210 -0.1486  0.3046 -0.2676
  920MOL0     C21324   8.138   4.975   8.104 -0.2761  0.2474 -0.3967
  920MOL0     N21325   8.171   5.026   7.970 -0.3198  0.4587  0.5248
  920MOL0     C21326   8.292   5.048   7.925 -0.4548  0.7918 -0.2746
  920MOL0     C21327   8.277   5.123   7.815  0.1352  0.7862  0.6613
  920MOL0     C21328   8.392   5.184   7.731  0.6553  0.5874 -0.3857
  920MOL0     C21329   8.379   5.337   7.734  0.7002  0.1098  0.1060
  920MOL0     C21330   8.452   5.409   7.625 -0.8568 -0.3734  0.2258
  920MOL0     C21331   8.602   5.436   7.658  0.6145 -0.4016  1.2886
  920MOL0     O21332   8.664   5.532   7.561  0.5261 -0.1494  0.3594
  920MOL0     C21333   8.799   5.548   7.548  0.4904  0.1394 -0.3132
  920MOL0     C21334   8.834   5.674   7.501  0.3876 -1.1032 -0.2138
  920MOL0     C21335   8.966   5.721   7.515 -0.0645 -0.6497 -0.3184
  920MOL0     C21336   9.068   5.641   7.560 -1.2791 -0.3395  0.3473
  920MOL0     C21337   9.209   5.674   7.553 -0.4850 -0.3213  0.3247
  920MOL0     O21338   9.297   5.590   7.612  0.0844  0.0754 -0.1020
  920MOL0     C21339   9.433   5.604   7.583 -0.5785 -0.2949  0.5156
  920MOL0     C21340   9.475   5.588   7.452 -0.6060 -0.3333 -0.1036
  920MOL0     C21341   9.612   5.607   7.424 -0.7817  0.3937 -0.2431
  920MOL0     C21342   9.707   5.630   7.526 -0.3809 -0.3917 -0.5370
  920MOL0     O21343   9.839   5.616   7.492 -1.1519 -0.6255  0.0150
  920MOL0     C21344   9.888   5.740   7.440  0.5238  0.0272  0.2044
  920MOL0     C21345  10.034   5.732   7.412 -0.8111  0.4800 -0.2258
  920MOL0     C21346  10.082   5.867   7.345 -0.3189  0.1419 -0.1529
  920MOL0     C21347  10.235   5.866   7.329  0.6754  0.4431  0.1840
  920MOL0     C21348  10.294   5.992   7.282  0.7891 -1.2834  0.5788
  920MOL0     C21349  10.280   6.016   7.133  0.0453 -0.2078  0.0939
  920MOL0     C21350  10.375   6.130   7.089  0.3881 -0.0191  0.0591
  920MOL0     C21351  10.530   6.104   7.093  0.0991  0.5942 -0.2269
  920MOL0    Cl21352  10.565   5.977   6.970  0.1111 -0.0963  0.4701
  920MOL0     C21353   9.669   5.644   7.659 -0.0560  0.0612  0.5378
  920MOL0     C21354   9.530   5.635   7.681 -0.3336  0.5495 -0.6955
  920MOL0     O21355   9.238   5.780   7.482  0.3139  0.2525 -0.2764
  920MOL0     C21356   9.032   5.516   7.612 -0.5295 -1.2752 -0.3384
  920MOL0     C21357   8.903   5.469   7.600  1.0603 -0.5614 -0.0375
  920MOL0     N21358   8.146   5.151   7.804 -0.4367  0.2252 -0.3991
  920MOL0     N21359   8.078   5.090   7.897  0.3539  0.3147 -0.3878
  920MOL0     C21360   8.723   4.971   8.704 -0.8915  0.7300  0.3134
  920MOL0     C21361   8.868   4.987   8.688 -0.0099 -0.5778 -0.0028
  920MOL0     C21362   9.284   5.019   8.497  0.1842  0.6832 -0.2838
  920MOL0     C21363   9.334   4.892   8.517 -0.3042  0.2128  0.1879
  920MOL0     C21364   9.473   4.858   8.505  0.4790  0.1246 -0.4724
  920MOL0     C21365   9.554   4.956   8.444  0.2407 -0.3061 -1.0275
  920MOL0     O21366   9.678   4.914   8.403 -0.3635 -0.6228 -0.0148
  920MOL0     C21367   9.789   4.981   8.444  0.0108 -0.1247 -0.1519
  920MOL0     C21368   9.911   4.891   8.389 -0.4422  0.2038  0.0988
  920MOL0     C21369  10.032   4.987   8.391  0.4179 -0.2222  0.6473
  920MOL0     C21370  10.165   4.918   8.377  0.6896 -1.6006 -0.1723
  920MOL0     C21371  10.281   5.017   8.380  0.0221  0.6251  0.4361
  920MOL0     C21372  10.375   5.091   8.391 -0.1432 -0.5408  0.4600
  920MOL0     C21373   9.506   5.088   8.422 -0.0346  0.0151 -0.4037
  920MOL0     C21374   9.372   5.117   8.447  0.1390  0.3679 -0.8637
  920MOL0     H21375   8.934   4.766   8.451 -1.9314 -1.4222 -1.1671
  920MOL0     H21376   8.675   4.737   8.461  2.3408 -2.8163  0.0171
  920MOL0     H21377   8.513   4.657   8.600 -0.8133 -0.2661  3.4828
  920MOL0     H21378   8.452   4.772   8.475 -0.7111 -0.6085 -0.4547
  920MOL0     H21379   8.314   4.704   8.735  0.5530  1.8367  0.1390
  920MOL0     H21380   8.273   4.670   8.560 -1.0221 -0.1796  0.4498
  920MOL0     H21381   8.269   4.950   8.687 -0.4085  1.1047 -0.9783
  920MOL0     H21382   8.136   4.841   8.639 -0.3646  0.1465 -1.4534
  920MOL0     H21383   8.339   4.985   8.458 -0.9859  0.2805  0.2214
  920MOL0     H21384   8.216   4.868   8.405 -0.4768 -3.8675  2.7273
  920MOL0     H21385   8.178   5.159   8.500 -0.1929  1.2616 -1.7072
  920MOL0     H21386   8.053   5.039   8.538 -2.0660  2.6839 -2.4119
  920MOL0     H21387   8.017   5.175   8.334  1.9913 -0.2060  1.1418
  920MOL0     H21388   7.993   4.996   8.314 -0.9081  0.1397  2.4194
  920MOL0     H21389   8.127   5.178   8.158 -0.7163 -0.1585 -0.7542
  920MOL0     H21390   8.261   5.110   8.236 -0.9176  2.1877  1.4218
  920MOL0     H21391   8.034   4.942   8.112 -0.1404  0.1974  2.4197
  920MOL0     H21392   8.197   4.886   8.126 -0.4273  0.0801 -0.6683
  920MOL0     H21393   8.391   5.031   7.966 -1.0925 -0.1482  0.9246
  920MOL0     H21394   8.390   5.151   7.627 -2.2827  0.8257 -0.4914
  920MOL0     H21395   8.492   5.160   7.767  0.9454  1.9154 -0.2401
  920MOL0     H21396   8.412   5.369   7.833 -1.7355 -1.2515  1.4588
  920MOL0     H21397   8.274   5.366   7.723  1.2270  1.7389 -1.1006
  920MOL0     H21398   8.468   5.350   7.534  0.5566  3.2220 -2.0856
  920MOL0     H21399   8.393   5.497   7.598 -0.3267  0.5292  1.9224
  920MOL0     H21400   8.657   5.343   7.640  2.0849  0.6770 -0.1270
  920MOL0     H21401   8.611   5.463   7.764  2.6338 -0.4032  1.1703
  920MOL0     H21402   8.758   5.743   7.468  2.9165  2.0760  0.0383
  920MOL0     H21403   8.990   5.822   7.484  0.5296 -1.1700 -1.5909
  920MOL0     H21404   9.424   5.560   7.360  0.7412  1.2058 -1.3712
  920MOL0     H21405   9.644   5.572   7.326 -0.9618  3.2603 -1.4369
  920MOL0     H21406   9.883   5.814   7.521  0.8622  0.9110 -0.5696
  920MOL0     H21407   9.833   5.783   7.356  1.3167 -0.0524 -0.3669
  920MOL0     H21408  10.054   5.648   7.345 -0.2900 -0.3299  0.9139
  920MOL0     H21409  10.086   5.728   7.509 -1.2364  1.3404  0.0445
  920MOL0     H21410  10.064   5.944   7.421  0.8993  1.1260 -0.8162
  920MOL0     H21411  10.030   5.882   7.250 -3.0063  0.6950  1.2920
  920MOL0     H21412  10.268   5.861   7.433  0.0430 -0.0934  0.3639
  920MOL0     H21413  10.270   5.780   7.270 -3.3894 -0.6492 -0.9848
  920MOL0     H21414  10.396   6.005   7.320  1.3814  4.3293 -1.8524
  920MOL0     H21415  10.232   6.070   7.327  1.0668 -1.3032  1.0012
  920MOL0     H21416  10.174   6.040   7.119  0.8060  2.1213 -2.7585
  920MOL0     H21417  10.299   5.929   7.069  1.6395  0.9497 -1.0792
  920MOL0     H21418  10.350   6.157   6.986 -1.5473  0.6828  0.6723
  920MOL0     H21419  10.340   6.211   7.155 -0.5575  1.2232 -1.8850
  920MOL0     H21420  10.555   6.065   7.192 -2.0373  1.2040  0.6261
  920MOL0     H21421  10.595   6.189   7.069 -2.4672  2.9722  0.6617
  920MOL0     H21422   9.746   5.665   7.732 -1.1439  0.1601  1.6977
  920MOL0     H21423   9.496   5.634   7.784  0.2954  1.5558 -0.4640
  920MOL0     H21424   9.114   5.459   7.655 -0.5768  1.3346  3.7377
  920MOL0     H21425   8.888   5.366   7.632 -1.2821 -0.6325 -1.1485
  920MOL0     H21426   8.664   5.031   8.772 -1.2804  1.3988 -0.5817
  920MOL0     H21427   8.928   5.038   8.762 -2.4148  0.3883  1.3670
  920MOL0     H21428   9.273   4.808   8.549  0.9111 -1.6382 -2.0571
  920MOL0     H21429   9.512   4.759   8.525  0.7166 -0.3419 -2.9027
  920MOL0     H21430   9.779   4.992   8.552 -0.1141 -1.0766 -0.0589
  920MOL0     H21431   9.795   5.081   8.400 -0.1143  0.1398  0.4165
  920MOL0     H21432   9.934   4.810   8.459  1.0479 -0.9021 -1.5862
  920MOL0     H21433   9.872   4.844   8.299  0.8803 -0.0095 -0.3862
  920MOL0     H21434  10.023   5.053   8.478 -0.3625  0.2097  0.2451
  920MOL0     H21435  10.031   5.053   8.303 -0.3846  1.0596  1.5773
  920MOL0     H21436  10.186   4.849   8.459 -1.4111 -1.2655  0.7016
  920MOL0     H21437  10.163   4.853   8.289  0.2522 -2.2278  0.2946
  920MOL0     H21438  10.456   5.162   8.394 -1.1323  0.7055 -0.8997
  920MOL0     H21439   9.565   5.166   8.376 -2.8660  1.6956 -1.4275
  920MOL0     H21440   9.327   5.214   8.434 -0.0785  0.6119  1.2923
  921MOL0     O21441   9.817   5.444  11.103 -0.2454  0.2088 -0.8751
  921MOL0     C21442   9.882   5.551  11.092 -0.2578 -0.3721 -0.7225
  921MOL0     O21443   9.831   5.678  11.083 -0.2813  0.5726 -0.5633
  921MOL0     C21444   9.696   5.676  11.094 -0.5107 -0.3585  0.2443
  921MOL0     C21445   9.624   5.652  10.979  0.1854  0.7068 -0.2866
  921MOL0     C21446   9.482   5.648  10.981 -0.1322  0.2373  0.0627
  921MOL0     C21447   9.413   5.669  11.105  0.4419 -0.3490 -0.0970
  921MOL0     O21448   9.274   5.663  11.116 -0.5437  0.2669 -0.5292
  921MOL0     C21449   9.223   5.537  11.069  0.8374 -0.4339 -0.7511
  921MOL0     C21450   9.237   5.420  11.166  1.4034  0.3546  0.1476
  921MOL0     C21451   9.262   5.290  11.083 -0.4510  0.1688  0.0090
  921MOL0     C21452   9.237   5.171  11.180  0.4649  0.0956 -0.4071
  921MOL0     C21453   9.315   5.041  11.142  0.0709 -0.5170  0.5549
  921MOL0     C21454   9.295   4.995  10.994  0.1089 -0.1416  0.4427
  921MOL0     C21455   9.340   4.851  10.965  1.0698 -0.5344 -0.0052
  921MOL0     C21456   9.277   4.750  11.057 -0.7340  0.3584  0.5391
  921MOL0     N21457   9.131   4.758  11.055 -0.5376  0.5591 -0.2209
  921MOL0     C21458   9.047   4.819  11.142 -0.4680 -0.7041  0.4251
  921MOL0     C21459   8.923   4.797  11.094  0.4389  0.0053 -0.2310
  921MOL0     C21460   8.785   4.841  11.137  0.2829  0.1839  0.2280
  921MOL0     C21461   8.684   4.749  11.206 -0.1691 -1.0798  0.4751
  921MOL0     C21462   8.565   4.835  11.238 -0.4030 -0.7440  0.8593
  921MOL0     C21463   8.443   4.752  11.282  0.2045  0.0277  0.3350
  921MOL0     O21464   8.327   4.838  11.272  0.0745  0.2226 -0.3840
  921MOL0     C21465   8.208   4.795  11.329  0.2978 -0.5437 -0.0050
  921MOL0     C21466   8.093   4.869  11.321 -0.1656 -0.1957 -0.0278
  921MOL0     C21467   7.970   4.826  11.379 -0.7256  0.2804 -0.2585
  921MOL0     C21468   7.952   4.703  11.436 -0.4925  0.2603 -0.2102
  921MOL0     C21469   7.824   4.674  11.505 -0.9733  0.0198  0.4266
  921MOL0     O21470   7.714   4.731  11.448 -0.4265 -0.9661  0.1286
  921MOL0     C21471   7.579   4.701  11.482 -0.0013 -0.3449  0.8992
  921MOL0     C21472   7.474   4.789  11.442  0.1162  0.9836 -0.1655
  921MOL0     C21473   7.341   4.749  11.449 -0.6309  0.1095  0.8962
  921MOL0     C21474   7.305   4.643  11.526  0.8920 -0.5163  0.9841
  921MOL0     O21475   7.174   4.619  11.530 -0.5367 -0.6064 -0.5275
  921MOL0     C21476   7.122   4.510  11.607 -0.7547  0.0789 -0.2110
  921MOL0     C21477   6.967   4.504  11.600 -0.0998  0.9576 -0.0372
  921MOL0     C21478   6.914   4.515  11.455 -0.7544 -0.2877  0.1063
  921MOL0     C21479   6.766   4.536  11.448  0.5978  0.7491 -0.5932
  921MOL0     C21480   6.727   4.559  11.307  0.0403  0.5643 -0.5637
  921MOL0     C21481   6.574   4.550  11.292 -0.7997  0.2208  0.6518
  921MOL0     C21482   6.549   4.561  11.146  0.4047 -0.3623  0.4094
  921MOL0     C21483   6.407   4.549  11.118 -0.8212 -0.2292 -0.4223
  921MOL0    Cl21484   6.306   4.690  11.168  0.2722  0.0230 -0.3863
  921MOL0     C21485   7.402   4.549  11.566  0.0573  0.2456 -0.6555
  921MOL0     C21486   7.532   4.575  11.536  0.0338  0.3216 -0.3348
  921MOL0     O21487   7.830   4.604  11.608  0.3225 -0.1985  0.2776
  921MOL0     C21488   8.068   4.622  11.439  0.2091 -0.2449 -0.9591
  921MOL0     C21489   8.191   4.665  11.392 -0.3386  0.2310  0.2653
  921MOL0     N21490   8.932   4.722  10.982  0.0121  0.0356 -0.4058
  921MOL0     N21491   9.053   4.689  10.968 -0.3603  0.2363  0.7837
  921MOL0     C21492   9.486   5.707  11.213 -0.2763 -0.4751 -0.6373
  921MOL0     C21493   9.625   5.707  11.209 -0.0300  0.0215  0.6575
  921MOL0     C21494  10.021   5.530  11.078 -0.7055  0.7827  0.3204
  921MOL0     C21495  10.087   5.410  11.118 -0.3056  0.7132  0.3964
  921MOL0     C21496  10.224   5.400  11.107  0.1198  0.3522  0.9373
  921MOL0     C21497  10.299   5.517  11.066 -0.5039  0.7630 -0.4511
  921MOL0     O21498  10.435   5.511  11.075 -1.1079 -0.0702  0.0574
  921MOL0     C21499  10.517   5.622  11.033  1.0549  0.8254  0.4062
  921MOL0     C21500  10.663   5.570  10.999  0.1653 -0.3495  0.4668
  921MOL0     C21501  10.753   5.690  10.944 -0.5316 -0.4352 -0.8745
  921MOL0     C21502  10.907   5.652  10.912  0.1424 -0.0865  0.0176
  921MOL0     C21503  10.910   5.549  10.814 -0.2366  0.3115 -0.7644
  921MOL0     C21504  10.930   5.466  10.732 -0.3791 -0.0657  0.3879
  921MOL0     C21505  10.232   5.629  11.021  0.1696 -0.1801 -0.6474
  921MOL0     C21506  10.098   5.638  11.026  0.8605  0.2838  0.3451
  921MOL0     H21507   9.671   5.632  10.883 -0.6346  1.6636 -0.8962
  921MOL0     H21508   9.428   5.625  10.889 -1.2442 -1.6774  1.1355
  921MOL0     H21509   9.258   5.513  10.968 -0.2921  2.2307 -1.8687
  921MOL0     H21510   9.116   5.549  11.053  0.9841 -2.0142 -3.5600
  921MOL0     H21511   9.147   5.420  11.228  1.5073  2.3478  0.3640
  921MOL0     H21512   9.317   5.425  11.240  1.5934 -0.9039  0.0560
  921MOL0     H21513   9.358   5.288  11.031 -0.0082 -0.5662  0.8250
  921MOL0     H21514   9.186   5.268  11.007 -1.5696  0.1254  1.1146
  921MOL0     H21515   9.257   5.199  11.284 -1.1743 -0.6658  0.1493
  921MOL0     H21516   9.128   5.168  11.173  0.3550  1.4933  0.3152
  921MOL0     H21517   9.289   4.951  11.198 -0.3980 -0.6967  0.0656
  921MOL0     H21518   9.419   5.068  11.159 -0.2776  2.4470 -1.3035
  921MOL0     H21519   9.351   5.065  10.932 -0.6902 -0.9922 -1.2987
  921MOL0     H21520   9.187   4.999  10.973  0.6163 -0.2637 -2.5526
  921MOL0     H21521   9.313   4.825  10.862  1.0464 -1.8618  0.3186
  921MOL0     H21522   9.447   4.828  10.968  0.6203 -2.8395  0.0430
  921MOL0     H21523   9.317   4.750  11.159  1.1821  2.1632 -0.1381
  921MOL0     H21524   9.308   4.657  11.009  0.5052  1.8630 -1.7463
  921MOL0     H21525   9.067   4.872  11.235 -0.7164 -0.0985  0.1358
  921MOL0     H21526   8.743   4.884  11.046  2.9198  0.8609 -0.7863
  921MOL0     H21527   8.796   4.921  11.211  0.1882 -1.6591  2.3330
  921MOL0     H21528   8.729   4.715  11.299  1.5618  0.5288  0.2747
  921MOL0     H21529   8.655   4.668  11.137 -1.1928 -1.2474  1.0839
  921MOL0     H21530   8.595   4.902  11.319  0.1782  0.2777 -0.1769
  921MOL0     H21531   8.528   4.897  11.156  1.5063 -2.0791 -1.1169
  921MOL0     H21532   8.465   4.729  11.387  3.5274 -0.7330 -0.3975
  921MOL0     H21533   8.419   4.659  11.229  1.5139 -0.5658  0.7481
  921MOL0     H21534   8.108   4.960  11.263  1.3408 -1.7123 -2.1978
  921MOL0     H21535   7.878   4.884  11.378 -0.2939  0.9837 -0.8832
  921MOL0     H21536   7.490   4.877  11.380  4.9664 -0.7653 -1.9206
  921MOL0     H21537   7.262   4.810  11.406 -0.1011 -1.9319 -3.5610
  921MOL0     H21538   7.159   4.516  11.710 -0.3552  0.1324 -0.3550
  921MOL0     H21539   7.161   4.418  11.562 -1.9815 -0.1739 -0.7771
  921MOL0     H21540   6.929   4.571  11.678  0.6417 -1.9703  3.0712
  921MOL0     H21541   6.921   4.413  11.639  2.1128  0.6148  2.0008
  921MOL0     H21542   6.946   4.428  11.398  1.8613 -0.4771  1.7010
  921MOL0     H21543   6.965   4.603  11.413 -1.3662 -0.4063 -0.9162
  921MOL0     H21544   6.726   4.446  11.496  1.7404  1.4198  1.7917
  921MOL0     H21545   6.731   4.623  11.503 -1.8985  2.2817 -4.2201
  921MOL0     H21546   6.782   4.485  11.249  1.7593 -0.0012  1.6473
  921MOL0     H21547   6.754   4.662  11.280 -2.6407  1.1037 -1.5832
  921MOL0     H21548   6.524   4.634  11.342 -2.5031  1.2681 -2.5250
  921MOL0     H21549   6.533   4.461  11.342  0.4284 -0.3672  0.6474
  921MOL0     H21550   6.597   4.653  11.112  2.9823 -1.4092  1.0071
  921MOL0     H21551   6.600   4.487  11.083  1.3383  0.1248  0.5834
  921MOL0     H21552   6.376   4.450  11.151  0.2388 -0.9461 -1.5136
  921MOL0     H21553   6.388   4.545  11.010 -1.7339 -2.7001 -0.2193
  921MOL0     H21554   7.370   4.457  11.615  0.1218  0.5258 -0.0738
  921MOL0     H21555   7.599   4.490  11.548 -0.6544 -0.2856 -0.6767
  921MOL0     H21556   8.064   4.525  11.487 -0.4179 -0.1436 -0.7916
  921MOL0     H21557   8.281   4.608  11.413  0.4542  1.2980 -0.1399
  921MOL0     H21558   9.431   5.743  11.300  1.6822  2.9088 -0.6194
  921MOL0     H21559   9.672   5.731  11.304  0.5660  1.4919  0.0165
  921MOL0     H21560  10.029   5.329  11.159 -0.1108  0.8485  0.9442
  921MOL0     H21561  10.281   5.314  11.141  0.2307  0.8421  2.0192
  921MOL0     H21562  10.514   5.691  11.117  1.2589  2.4311 -0.8721
  921MOL0     H21563  10.473   5.647  10.936 -1.8822 -0.4280  1.2982
  921MOL0     H21564  10.703   5.541  11.097  0.1952  2.6623  1.4712
  921MOL0     H21565  10.670   5.491  10.925  3.8170  2.4560 -2.5862
  921MOL0     H21566  10.751   5.770  11.020  2.4438  1.4022 -2.5272
  921MOL0     H21567  10.720   5.724  10.846  2.7293 -0.3711 -2.0705
  921MOL0     H21568  10.971   5.734  10.878  1.7560 -0.9143  0.9413
  921MOL0     H21569  10.954   5.616  11.003  1.1276  2.0337  0.4205
  921MOL0     H21570  10.948   5.391  10.658  3.8726  0.7979  0.2942
  921MOL0     H21571  10.283   5.724  11.002 -0.5340 -0.0495 -2.0271
  921MOL0     H21572  10.057   5.737  11.011  1.7498  0.5339 -0.5512
  922MOL0     O21573   8.134   6.773   2.145  0.6582 -0.2749 -0.2877
  922MOL0     C21574   8.013   6.749   2.112 -0.2534  1.2942 -0.0642
  922MOL0     O21575   7.962   6.767   1.987 -0.0905  0.0676  0.3646
  922MOL0     C21576   8.055   6.800   1.888 -0.7296  0.6311 -0.0667
  922MOL0     C21577   8.130   6.697   1.824  0.1827  0.1365 -1.2674
  922MOL0     C21578   8.221   6.736   1.723  0.7392  0.7745 -0.3875
  922MOL0     C21579   8.248   6.868   1.694 -0.8719 -0.1821 -0.8006
  922MOL0     O21580   8.362   6.877   1.612  0.5975  0.2710 -0.0482
  922MOL0     C21581   8.424   7.006   1.594  0.2211  0.7654 -0.0440
  922MOL0     C21582   8.557   7.001   1.530  0.5653 -0.9018  0.0191
  922MOL0     C21583   8.655   7.109   1.572 -0.3806  0.0824  0.2847
  922MOL0     C21584   8.732   7.084   1.703 -0.3136 -0.3263 -0.0135
  922MOL0     C21585   8.847   7.187   1.727  0.5769  0.6151 -0.0531
  922MOL0     C21586   8.914   7.161   1.856  0.3448  0.3366  0.3499
  922MOL0     C21587   9.056   7.223   1.861  0.4958 -1.2427 -0.4729
  922MOL0     C21588   9.117   7.223   1.998 -0.0363 -0.7250 -0.0444
  922MOL0     N21589   9.048   7.309   2.091 -0.5037  0.1936  0.3248
  922MOL0     C21590   8.970   7.265   2.193  0.2261 -0.2961 -0.1439
  922MOL0     C21591   8.918   7.384   2.248 -0.0403  0.4393  0.6070
  922MOL0     C21592   8.828   7.391   2.369 -0.1146 -0.1024 -0.4010
  922MOL0     C21593   8.699   7.345   2.306  0.5732  0.3088  1.1140
  922MOL0     C21594   8.567   7.372   2.389 -0.0521  0.5570  0.0864
  922MOL0     C21595   8.589   7.349   2.541 -0.3377  0.1462  0.0708
  922MOL0     O21596   8.484   7.398   2.627  0.2822  0.0513  0.8987
  922MOL0     C21597   8.361   7.342   2.623  0.0453  0.5172 -0.8956
  922MOL0     C21598   8.256   7.428   2.659 -0.2430  0.1112  0.0934
  922MOL0     C21599   8.126   7.373   2.665 -0.5096  0.2374  0.3500
  922MOL0     C21600   8.097   7.239   2.624  0.0728  0.4618 -0.7486
  922MOL0     C21601   7.958   7.184   2.612  0.4430 -0.5642  0.0216
  922MOL0     O21602   7.863   7.246   2.700  0.1971  0.1450 -0.0372
  922MOL0     C21603   7.733   7.205   2.709  0.7545  0.5938 -0.3961
  922MOL0     C21604   7.661   7.141   2.606 -0.8742  0.4467 -0.3476
  922MOL0     C21605   7.531   7.088   2.635  0.0065 -0.2003  0.1960
  922MOL0     C21606   7.475   7.087   2.768 -0.6498 -0.0408 -0.6230
  922MOL0     O21607   7.359   7.034   2.808 -0.4401  0.0601  0.2738
  922MOL0     C21608   7.241   7.054   2.727  0.1673  0.5205  0.0863
  922MOL0     C21609   7.121   6.983   2.791  0.5142  0.0654  0.2711
  922MOL0     C21610   7.000   6.992   2.696 -0.0983 -0.1247  0.7430
  922MOL0     C21611   6.871   6.953   2.769 -0.5704 -0.2749  0.0686
  922MOL0     C21612   6.757   6.952   2.662 -0.2200 -0.1078 -0.3842
  922MOL0     C21613   6.616   6.970   2.714 -0.3537 -0.2281  0.1923
  922MOL0     C21614   6.580   6.847   2.793  0.2339 -0.5443  0.3817
  922MOL0     C21615   6.461   6.888   2.874  0.2961 -0.2246 -0.0092
  922MOL0    Cl21616   6.307   6.828   2.800 -0.4008 -0.0981  0.6376
  922MOL0     C21617   7.557   7.125   2.866  1.0063  0.3747 -0.4236
  922MOL0     C21618   7.681   7.200   2.837  0.3003  1.2300  0.3257
  922MOL0     O21619   7.945   7.084   2.548  0.4396  0.2740 -0.1119
  922MOL0     C21620   8.206   7.163   2.586  1.0167  0.3793 -0.7343
  922MOL0     C21621   8.329   7.209   2.587  0.4779 -0.4019 -1.1359
  922MOL0     N21622   8.987   7.487   2.190  1.1650  0.7551  1.2979
  922MOL0     N21623   9.066   7.447   2.102  0.4451 -0.0170 -0.6684
  922MOL0     C21624   8.165   6.970   1.748 -0.1963 -0.9259  0.4579
  922MOL0     C21625   8.070   6.932   1.848 -0.2167 -0.0152 -0.2614
  922MOL0     C21626   7.924   6.727   2.222 -0.0770 -0.4771 -0.0274
  922MOL0     C21627   7.794   6.666   2.210 -0.0946  1.0490  0.6860
  922MOL0     C21628   7.705   6.644   2.314 -0.1468  0.5580  0.3993
  922MOL0     C21629   7.750   6.680   2.450  0.0127  0.6607  0.6631
  922MOL0     O21630   7.682   6.668   2.567  0.5332 -0.3840 -1.1190
  922MOL0     C21631   7.547   6.631   2.566 -0.4993  0.0411  0.1444
  922MOL0     C21632   7.509   6.578   2.709 -0.5940  0.2068 -0.1591
  922MOL0     C21633   7.545   6.664   2.825 -0.6894 -0.1806 -0.4686
  922MOL0     C21634   7.545   6.598   2.971  0.1107 -0.3053 -0.7401
  922MOL0     C21635   7.415   6.536   2.996  1.0259 -1.2943  0.4795
  922MOL0     C21636   7.304   6.491   3.025 -0.2233  0.3581  1.1589
  922MOL0     C21637   7.881   6.729   2.467  0.0664  0.2134  0.0500
  922MOL0     C21638   7.960   6.754   2.358  0.6878  0.1486  0.3140
  922MOL0     H21639   8.106   6.598   1.862 -1.8872  1.4205  1.0448
  922MOL0     H21640   8.273   6.659   1.667 -0.6399  0.2335 -0.9816
  922MOL0     H21641   8.427   7.071   1.682 -0.0622 -0.7838  1.1386
  922MOL0     H21642   8.353   7.053   1.525 -0.3725  1.6102  1.0916
  922MOL0     H21643   8.537   7.023   1.425  3.3580  0.3738 -0.3189
  922MOL0     H21644   8.597   6.900   1.542  1.1600 -0.4385  2.5467
  922MOL0     H21645   8.607   7.207   1.580  2.0415  1.1867  3.0405
  922MOL0     H21646   8.736   7.110   1.499 -0.9172 -1.4261 -0.3612
  922MOL0     H21647   8.662   7.106   1.784 -1.7021  2.3222 -1.7793
  922MOL0     H21648   8.770   6.981   1.705 -0.2830 -0.3081  0.4640
  922MOL0     H21649   8.816   7.291   1.739  1.1234  0.6008  2.0057
  922MOL0     H21650   8.923   7.174   1.650  0.6454  2.5484 -0.3516
  922MOL0     H21651   8.918   7.054   1.877  0.1204  0.6055  1.8566
  922MOL0     H21652   8.859   7.217   1.932 -2.7695 -1.2033 -0.6278
  922MOL0     H21653   9.120   7.158   1.801  0.9889 -4.1232  2.9067
  922MOL0     H21654   9.066   7.329   1.833 -0.2176  0.0271  3.4162
  922MOL0     H21655   9.217   7.267   1.994 -0.2103 -0.2304  0.6851
  922MOL0     H21656   9.122   7.118   2.028  0.9766 -0.6688  0.0043
  922MOL0     H21657   8.939   7.167   2.228 -1.3730  0.2032 -0.0829
  922MOL0     H21658   8.831   7.493   2.408  0.8426 -0.4640  0.5128
  922MOL0     H21659   8.857   7.319   2.447 -0.2510 -1.5387 -1.6284
  922MOL0     H21660   8.695   7.236   2.296 -0.6203  0.2785  1.7370
  922MOL0     H21661   8.681   7.389   2.208  2.2759 -3.1436 -0.9532
  922MOL0     H21662   8.543   7.478   2.379  0.4009  0.5111 -1.9903
  922MOL0     H21663   8.484   7.314   2.347 -0.2602 -0.3467  1.6616
  922MOL0     H21664   8.682   7.395   2.575  0.1113 -1.1512  0.6577
  922MOL0     H21665   8.611   7.244   2.559  2.0944  0.9620  2.6737
  922MOL0     H21666   8.285   7.529   2.685  2.4276 -0.8376  1.2002
  922MOL0     H21667   8.042   7.429   2.704 -0.6151 -1.1094  2.2200
  922MOL0     H21668   7.706   7.124   2.509 -1.1373 -0.5970 -0.2986
  922MOL0     H21669   7.461   7.075   2.553 -3.4674  2.7197  2.4162
  922MOL0     H21670   7.246   7.006   2.629  0.7674  2.7577 -1.0271
  922MOL0     H21671   7.230   7.162   2.715  0.1611  0.3892 -1.1801
  922MOL0     H21672   7.110   7.029   2.890 -1.9367 -1.1963  0.6619
  922MOL0     H21673   7.149   6.878   2.800  1.0350  0.0340 -1.3799
  922MOL0     H21674   7.023   6.925   2.613  1.3673  0.3608  0.7398
  922MOL0     H21675   6.984   7.094   2.660 -2.6310 -0.8441 -0.3697
  922MOL0     H21676   6.882   6.854   2.813  0.8359  0.4871  1.5438
  922MOL0     H21677   6.840   7.017   2.852 -0.2814 -0.4596  0.3196
  922MOL0     H21678   6.771   6.854   2.614  1.2376  0.1669 -0.5601
  922MOL0     H21679   6.770   7.037   2.595 -2.5608 -0.6487 -1.6448
  922MOL0     H21680   6.550   6.992   2.630  2.2581 -0.1018 -1.9801
  922MOL0     H21681   6.619   7.062   2.773  0.2836  0.5356 -0.9940
  922MOL0     H21682   6.551   6.772   2.719  2.2841  0.6343 -1.7336
  922MOL0     H21683   6.657   6.802   2.855  1.0975  0.6408  0.1987
  922MOL0     H21684   6.458   6.995   2.894 -0.0991 -0.4626  1.2812
  922MOL0     H21685   6.462   6.838   2.971 -0.9356  0.0933  0.1707
  922MOL0     H21686   7.522   7.119   2.968  0.0207  2.0166 -0.6226
  922MOL0     H21687   7.737   7.243   2.919 -0.4591  0.8726  1.0495
  922MOL0     H21688   8.201   7.059   2.554 -0.7463  0.1704  0.0910
  922MOL0     H21689   8.401   7.139   2.545  0.2408 -0.4094 -1.5331
  922MOL0     H21690   8.178   7.075   1.723  0.2503 -1.5849 -2.3955
  922MOL0     H21691   8.009   7.010   1.891  0.2207  0.6955 -0.9071
  922MOL0     H21692   7.769   6.632   2.110 -3.0839 -1.1303  2.0174
  922MOL0     H21693   7.607   6.600   2.306 -1.2239  3.0743 -1.9449
  922MOL0     H21694   7.539   6.547   2.497  0.2877 -1.5078  1.8273
  922MOL0     H21695   7.484   6.717   2.542 -0.3677  0.7368  2.0521
  922MOL0     H21696   7.402   6.561   2.695 -0.3147 -0.9224 -1.0632
  922MOL0     H21697   7.556   6.480   2.719  1.6716  1.4921  4.2321
  922MOL0     H21698   7.487   6.757   2.815 -0.4198 -0.1580 -2.0653
  922MOL0     H21699   7.649   6.693   2.809 -0.3260 -0.8194  0.6361
  922MOL0     H21700   7.620   6.519   2.976 -0.4639 -0.7549  2.4337
  922MOL0     H21701   7.559   6.672   3.050  1.4954 -1.9532  0.6339
  922MOL0     H21702   7.207   6.457   3.057  0.1070  0.3659  2.2047
  922MOL0     H21703   7.915   6.766   2.564  1.3292 -0.1074 -0.2524
  922MOL0     H21704   8.056   6.802   2.377  1.2576 -1.4310  1.7069
  923MOL0     O21705   3.674   8.266   9.698 -0.3693 -1.1676  0.1626
  923MOL0     C21706   3.696   8.291   9.812  0.1548 -1.0893  0.2991
  923MOL0     O21707   3.622   8.259   9.918  0.9271 -0.4064  0.3060
  923MOL0     C21708   3.513   8.175   9.891 -0.0052  0.3665  0.5878
  923MOL0     C21709   3.476   8.085   9.994 -0.0729 -0.1768 -0.1041
  923MOL0     C21710   3.363   8.001   9.979 -0.4921  0.0241 -0.7317
  923MOL0     C21711   3.281   8.015   9.867 -0.0107  0.0419  0.8498
  923MOL0     O21712   3.188   7.922   9.843  0.4511  0.0469  0.2456
  923MOL0     C21713   3.071   7.914   9.921  0.0564  0.3672  0.2989
  923MOL0     C21714   2.950   7.879   9.833 -0.6897 -0.2415  0.1831
  923MOL0     C21715   2.830   7.853   9.915  0.5641 -0.7668  1.5142
  923MOL0     C21716   2.716   7.848   9.816 -0.1091 -1.0524  0.0255
  923MOL0     C21717   2.584   7.851   9.889 -0.8021 -0.4159  0.0319
  923MOL0     C21718   2.461   7.831   9.804  0.0164  0.2362  0.2421
  923MOL0     C21719   2.446   7.691   9.746  0.5730  0.1797  0.4181
  923MOL0     C21720   2.355   7.599   9.828 -0.1814 -0.5273  0.0857
  923MOL0     N21721   2.220   7.656   9.837 -0.5590 -0.3060  0.5836
  923MOL0     C21722   2.127   7.675   9.740  0.4569 -0.2517  0.0964
  923MOL0     C21723   2.025   7.748   9.794 -0.1313 -0.6165 -0.2876
  923MOL0     C21724   1.912   7.812   9.704 -0.5557 -0.8145 -0.1481
  923MOL0     C21725   1.777   7.794   9.770 -0.2875  0.6758  0.1651
  923MOL0     C21726   1.664   7.848   9.683  0.2918 -0.1863  0.1291
  923MOL0     C21727   1.536   7.796   9.744 -0.5511  0.1442  0.3458
  923MOL0     O21728   1.498   7.855   9.875  0.4330 -0.0763  0.3121
  923MOL0     C21729   1.369   7.847   9.920  0.9760  1.3905 -0.3757
  923MOL0     C21730   1.340   7.930  10.020  0.5717 -0.5896  0.2343
  923MOL0     C21731   1.205   7.930  10.067 -0.0182  0.3563 -0.3102
  923MOL0     C21732   1.096   7.874  10.006 -0.9626  0.2060 -0.4916
  923MOL0     C21733   0.961   7.893  10.059  0.1527  0.4254  0.9128
  923MOL0     O21734   0.947   7.979  10.169 -0.1057 -0.1836  0.0612
  923MOL0     C21735   0.827   8.007  10.222  1.0010  0.7492  0.1490
  923MOL0     C21736   0.809   8.126  10.288 -0.4497 -0.4741  0.1375
  923MOL0     C21737   0.680   8.156  10.345 -0.2800 -0.6676 -0.0142
  923MOL0     C21738   0.581   8.063  10.349  0.9855 -0.2483 -0.5588
  923MOL0     O21739   0.464   8.088  10.423  0.1611 -0.1885 -0.6542
  923MOL0     C21740   0.335   8.031  10.380  0.2814  0.2975  0.0651
  923MOL0     C21741   0.227   8.100  10.463  0.3641 -0.0547 -0.2324
  923MOL0     C21742   0.082   8.070  10.412 -0.5393 -0.2252 -0.5022
  923MOL0     C21743   0.063   8.105  10.253 -0.6045  0.4660  0.8574
  923MOL0     C21744   0.099   8.249  10.223 -0.4906 -0.3560  0.4142
  923MOL0     C21745   0.057   8.277  10.077 -0.1839  0.3993 -0.7996
  923MOL0     C21746   0.098   8.424  10.033  0.7861  0.3760  1.6010
  923MOL0     C21747   0.234   8.420   9.984 -0.0685  0.2307  0.3644
  923MOL0    Cl21748   0.277   8.576   9.903  0.9579  0.2629  0.5380
  923MOL0     C21749   0.601   7.932  10.305  0.6246  0.1056 -0.0849
  923MOL0     C21750   0.725   7.907  10.243  0.4684  0.2791  1.0431
  923MOL0     O21751   0.862   7.841   9.996  0.0109  0.3271  0.3883
  923MOL0     C21752   1.129   7.782   9.904  0.1260 -0.9254  0.5309
  923MOL0     C21753   1.264   7.765   9.864 -0.3301 -0.2046 -0.5681
  923MOL0     N21754   2.059   7.773   9.926  0.0818  0.8067  0.2471
  923MOL0     N21755   2.166   7.710   9.951  0.5506 -0.4282  0.0492
  923MOL0     C21756   3.314   8.103   9.770  0.2555  1.2454  0.4588
  923MOL0     C21757   3.423   8.190   9.785 -0.0113  0.1937 -0.1236
  923MOL0     C21758   3.806   8.389   9.841 -0.9906  1.0676  1.5600
  923MOL0     C21759   3.863   8.458   9.729 -0.2425 -0.8851 -0.2605
  923MOL0     C21760   3.984   8.534   9.758  1.0408  0.2142 -0.1805
  923MOL0     C21761   4.033   8.555   9.889 -0.0826  0.2359 -0.1455
  923MOL0     O21762   4.155   8.621   9.907 -0.2854 -0.1985 -0.2987
  923MOL0     C21763   4.155   8.713  10.022  0.5732  0.4858  0.6956
  923MOL0     C21764   4.271   8.806  10.004 -0.2438  0.6516  0.1508
  923MOL0     C21765   4.392   8.793  10.097  0.1883  0.0174  0.6207
  923MOL0     C21766   4.520   8.863  10.043  0.3861 -0.5298 -0.8003
  923MOL0     C21767   4.636   8.772  10.067 -0.6694 -0.6747 -0.6353
  923MOL0     C21768   4.722   8.687  10.093  0.8503 -0.4512 -0.4449
  923MOL0     C21769   3.956   8.498   9.996 -0.8128 -0.4121 -0.1480
  923MOL0     C21770   3.851   8.410   9.978  0.0272 -0.2347  0.1343
  923MOL0     H21771   3.529   8.073  10.088 -0.1690  1.6659  0.2314
  923MOL0     H21772   3.337   7.930  10.056  0.9541  0.1515 -0.0964
  923MOL0     H21773   3.060   8.008   9.976  1.3944  0.5935  0.2266
  923MOL0     H21774   3.086   7.839   9.998 -2.7289  0.3230  0.8836
  923MOL0     H21775   2.969   7.787   9.778 -1.3409 -0.3875  0.1990
  923MOL0     H21776   2.942   7.963   9.764  2.6779  0.3249  0.2863
  923MOL0     H21777   2.808   7.934   9.985 -1.1404  1.5587 -1.4558
  923MOL0     H21778   2.846   7.759   9.969  0.0274 -0.9078  1.4275
  923MOL0     H21779   2.729   7.932   9.748 -0.2550 -1.8185 -0.9745
  923MOL0     H21780   2.721   7.759   9.752  2.0607  0.9819 -2.9313
  923MOL0     H21781   2.586   7.950   9.934 -0.3181  0.3775 -1.6425
  923MOL0     H21782   2.579   7.774   9.966 -0.0226  2.7735  3.5602
  923MOL0     H21783   2.468   7.889   9.711  3.4188 -2.2136 -1.2606
  923MOL0     H21784   2.366   7.857   9.851 -1.4336 -1.6885 -1.4999
  923MOL0     H21785   2.393   7.702   9.652 -1.3221  1.2616  1.5494
  923MOL0     H21786   2.532   7.624   9.737  0.0523 -0.8615  2.3965
  923MOL0     H21787   2.390   7.589   9.932 -2.2526  1.8422  1.1446
  923MOL0     H21788   2.349   7.500   9.782 -2.5435 -1.0609  1.3878
  923MOL0     H21789   2.146   7.649   9.636 -1.1219 -4.4114  0.6847
  923MOL0     H21790   1.902   7.757   9.609 -0.6683  2.3311 -2.0835
  923MOL0     H21791   1.930   7.917   9.680  0.0918 -0.2516  2.5099
  923MOL0     H21792   1.781   7.850   9.864  1.8399 -1.3804  1.4108
  923MOL0     H21793   1.760   7.693   9.807  2.0459  1.0256  2.4481
  923MOL0     H21794   1.664   7.957   9.685 -1.0871 -0.1610  1.8939
  923MOL0     H21795   1.674   7.812   9.580 -0.4003  1.5790 -0.5877
  923MOL0     H21796   1.529   7.688   9.757 -0.9974  0.1188 -0.1245
  923MOL0     H21797   1.459   7.827   9.674 -1.0217 -1.5068  0.1108
  923MOL0     H21798   1.405   8.005  10.064 -0.4980  2.2028 -2.5927
  923MOL0     H21799   1.198   7.999  10.151  0.8595  3.7284 -2.7594
  923MOL0     H21800   0.870   8.215  10.288 -1.3255  0.1578  1.1957
  923MOL0     H21801   0.662   8.257  10.379 -2.2301 -1.2537  0.8473
  923MOL0     H21802   0.323   7.923  10.392  0.2601  0.3275  0.3167
  923MOL0     H21803   0.326   8.055  10.274  2.8022 -2.6002 -0.9297
  923MOL0     H21804   0.246   8.207  10.478  0.5635 -0.3679  2.1179
  923MOL0     H21805   0.238   8.065  10.566 -1.5603 -0.9337 -0.2818
  923MOL0     H21806   0.012   8.122  10.479 -0.1280 -2.6267  2.0013
  923MOL0     H21807   0.063   7.962  10.416 -1.5515 -0.0390  0.5735
  923MOL0     H21808   0.121   8.039  10.187 -1.3026  2.1435 -1.5563
  923MOL0     H21809  -0.044   8.093  10.234 -0.2674 -0.4525 -0.6236
  923MOL0     H21810   0.206   8.262  10.245 -0.3613  0.0041 -0.3990
  923MOL0     H21811   0.046   8.319  10.288 -1.0146  0.7387 -1.1508
  923MOL0     H21812  -0.045   8.256  10.045 -0.2795  0.4652 -0.5351
  923MOL0     H21813   0.105   8.205  10.009 -0.4848 -0.1296 -0.4637
  923MOL0     H21814   0.025   8.467   9.964  2.1906 -1.3554 -1.1011
  923MOL0     H21815   0.100   8.490  10.120 -0.9146 -1.0430  2.7973
  923MOL0     H21816   0.244   8.341   9.909 -0.7347  0.9424 -0.4903
  923MOL0     H21817   0.289   8.401  10.077  1.2910 -2.7470 -0.9066
  923MOL0     H21818   0.534   7.847  10.306 -0.3669  0.7680 -2.5604
  923MOL0     H21819   0.758   7.807  10.215  1.7808  1.3827 -1.6869
  923MOL0     H21820   1.049   7.722   9.860 -1.6069  2.0722 -0.6635
  923MOL0     H21821   1.282   7.691   9.786  2.8882  0.6192 -0.7600
  923MOL0     H21822   3.248   8.111   9.684 -0.2536  0.0555  0.7220
  923MOL0     H21823   3.437   8.263   9.706 -1.1008 -0.3366 -0.8361
  923MOL0     H21824   3.816   8.459   9.631 -2.0505  2.2450  0.4991
  923MOL0     H21825   4.045   8.584   9.683  1.2627  0.6525  0.2835
  923MOL0     H21826   4.171   8.663  10.118 -3.8330 -0.9967  0.8815
  923MOL0     H21827   4.060   8.767  10.025  0.3278  0.0328  1.1786
  923MOL0     H21828   4.314   8.790   9.905  1.3379  0.6925  0.7926
  923MOL0     H21829   4.238   8.911  10.004  0.8314  1.0249  1.4272
  923MOL0     H21830   4.419   8.689  10.117  3.3223  1.2211  3.6314
  923MOL0     H21831   4.375   8.825  10.201  4.3320  0.9910  1.1725
  923MOL0     H21832   4.514   8.874   9.934 -1.1766  0.7607 -0.6218
  923MOL0     H21833   4.529   8.962  10.090 -3.4215 -1.0743  1.4854
  923MOL0     H21834   4.804   8.621  10.114  2.2945  1.0667 -1.0815
  923MOL0     H21835   3.997   8.504  10.097 -2.5705 -0.0820  0.5747
  923MOL0     H21836   3.813   8.364  10.068  1.7353 -2.1126 -0.0452
  924MOL0     O21837   6.803   0.668  10.535 -0.1244 -0.6910 -0.2111
  924MOL0     C21838   6.739   0.763  10.577  0.4548  0.1718  0.8966
  924MOL0     O21839   6.768   0.842  10.682  0.0954  0.0601 -0.4444
  924MOL0     C21840   6.875   0.813  10.763 -0.3163  0.2499  0.1802
  924MOL0     C21841   6.858   0.814  10.904  0.0638 -0.7067 -0.5397
  924MOL0     C21842   6.956   0.774  10.988 -0.2054  0.5524  0.6700
  924MOL0     C21843   7.075   0.721  10.943 -0.3056 -0.0666  0.4713
  924MOL0     O21844   7.159   0.676  11.045 -0.5607 -0.0542 -0.2815
  924MOL0     C21845   7.298   0.651  11.014 -0.3369 -0.1851  0.0301
  924MOL0     C21846   7.382   0.653  11.149  0.0604  0.7333 -0.6136
  924MOL0     C21847   7.340   0.771  11.232  1.1891 -0.0123 -0.5598
  924MOL0     C21848   7.379   0.907  11.166  0.0776 -0.4517 -0.3422
  924MOL0     C21849   7.381   1.026  11.271  0.3479  0.1964  0.6321
  924MOL0     C21850   7.248   1.038  11.346  0.2320 -0.5115  0.1002
  924MOL0     C21851   7.126   1.076  11.258  0.2108  0.6223  0.0872
  924MOL0     C21852   7.014   1.105  11.345 -0.1257 -0.1269  0.3315
  924MOL0     N21853   6.895   1.104  11.266  0.0116 -0.2088 -0.1243
  924MOL0     C21854   6.866   1.145  11.136 -0.8471  0.1972 -0.3461
  924MOL0     C21855   6.731   1.172  11.128  0.2712 -0.0780  0.1680
  924MOL0     C21856   6.655   1.203  11.001 -0.4300 -0.6191 -0.1714
  924MOL0     C21857   6.511   1.145  10.996  0.1531  0.2074  0.9124
  924MOL0     C21858   6.433   1.210  10.880 -0.1969 -0.8829  0.4820
  924MOL0     C21859   6.313   1.119  10.841 -0.4776 -0.3119  0.4718
  924MOL0     O21860   6.266   1.179  10.714 -0.5008  0.2828  0.1555
  924MOL0     C21861   6.169   1.121  10.641 -0.1037  0.4379  0.1662
  924MOL0     C21862   6.133   0.991  10.654 -0.9528 -0.2172  0.0132
  924MOL0     C21863   6.034   0.940  10.575  0.4838 -0.2158 -0.1423
  924MOL0     C21864   5.969   1.011  10.471 -0.5869 -0.1039  0.6474
  924MOL0     C21865   5.873   0.950  10.376  0.1813  0.4359  0.0561
  924MOL0     O21866   5.843   0.824  10.402  0.4706 -0.4517 -0.8600
  924MOL0     C21867   5.733   0.767  10.340 -0.0837  0.3198 -0.7558
  924MOL0     C21868   5.725   0.748  10.201  0.1720  0.2930 -0.8312
  924MOL0     C21869   5.620   0.689  10.137 -0.1933 -0.5337  0.2156
  924MOL0     C21870   5.510   0.651  10.205  0.4980 -0.1928  0.3617
  924MOL0     O21871   5.419   0.585  10.130  0.4358 -0.0380 -0.1260
  924MOL0     C21872   5.287   0.571  10.185  0.2464  1.0569  0.8436
  924MOL0     C21873   5.195   0.492  10.084  0.3893 -0.3359 -0.0454
  924MOL0     C21874   5.066   0.452  10.133  0.2171  0.5460  0.0165
  924MOL0     C21875   4.984   0.375  10.026 -0.4950 -0.3595 -0.1534
  924MOL0     C21876   4.835   0.362  10.060 -0.1675  1.0874 -0.9236
  924MOL0     C21877   4.756   0.265   9.970  0.0508  0.0489  0.6272
  924MOL0     C21878   4.615   0.256  10.023  0.3290  0.1802  0.3919
  924MOL0     C21879   4.530   0.182   9.919  0.0557 -0.1677  0.1135
  924MOL0    Cl21880   4.362   0.189   9.977  0.2968 -0.5555  0.0193
  924MOL0     C21881   5.501   0.675  10.349  0.4688 -0.1518 -0.3155
  924MOL0     C21882   5.615   0.733  10.407  0.0552  0.1041 -0.5340
  924MOL0     O21883   5.808   1.024  10.304 -0.3488 -0.5809  0.4693
  924MOL0     C21884   6.013   1.146  10.453  0.6961 -0.9493 -0.0345
  924MOL0     C21885   6.114   1.188  10.538 -0.5475 -0.4383  0.0281
  924MOL0     N21886   6.676   1.135  11.254 -1.1118 -0.7982  1.3763
  924MOL0     N21887   6.777   1.102  11.330  0.0840  0.2625 -0.0981
  924MOL0     C21888   7.096   0.715  10.804 -0.0464  0.7643  1.1512
  924MOL0     C21889   7.000   0.769  10.713  0.2850  0.6218 -0.2914
  924MOL0     C21890   6.622   0.801  10.496  0.2737  1.0141  0.3546
  924MOL0     C21891   6.579   0.723  10.390  0.1835  0.5228  1.2293
  924MOL0     C21892   6.472   0.770  10.305 -0.3009  0.8626 -0.5333
  924MOL0     C21893   6.401   0.883  10.340  0.5983 -0.0231  0.0667
  924MOL0     O21894   6.312   0.952  10.262  0.1871 -0.0683 -0.4520
  924MOL0     C21895   6.185   0.893  10.238 -0.2188 -0.4363 -0.2865
  924MOL0     C21896   6.178   0.821  10.096 -0.2291  0.8425  0.1229
  924MOL0     C21897   6.036   0.756  10.061  0.5377 -0.3364 -0.5130
  924MOL0     C21898   6.047   0.687   9.925  0.5367  0.3288 -0.1495
  924MOL0     C21899   5.910   0.660   9.873  0.3019 -0.0564  0.7351
  924MOL0     C21900   5.803   0.667   9.816  0.4164  0.2565  0.7874
  924MOL0     C21901   6.436   0.967  10.451 -0.3317  0.1154  0.5467
  924MOL0     C21902   6.547   0.915  10.526 -0.1273  0.1528  0.1228
  924MOL0     H21903   6.756   0.833  10.934 -1.1427 -1.5513 -3.6908
  924MOL0     H21904   6.932   0.781  11.094  1.5275  0.7946  1.0814
  924MOL0     H21905   7.344   0.728  10.952 -1.7650 -1.0538 -2.2457
  924MOL0     H21906   7.318   0.559  10.958 -0.9548  0.9188 -2.0683
  924MOL0     H21907   7.481   0.671  11.107 -0.2989  1.9880 -0.9630
  924MOL0     H21908   7.363   0.557  11.198 -1.5751  1.0377 -0.5955
  924MOL0     H21909   7.398   0.762  11.324 -1.4589  0.3209  1.2540
  924MOL0     H21910   7.239   0.768  11.274  3.3749  0.3796  5.7901
  924MOL0     H21911   7.474   0.896  11.115 -0.7990  1.1717 -2.4513
  924MOL0     H21912   7.306   0.934  11.090 -1.8783 -1.4474  1.0685
  924MOL0     H21913   7.408   1.123  11.228 -0.4004  0.1738  0.1007
  924MOL0     H21914   7.463   1.005  11.340  2.0983 -1.9686 -1.9008
  924MOL0     H21915   7.258   1.109  11.428 -3.8873  1.0331 -0.4933
  924MOL0     H21916   7.223   0.941  11.392  0.7995 -0.4144  0.6291
  924MOL0     H21917   7.145   1.162  11.192 -1.5414  1.1223  0.1966
  924MOL0     H21918   7.097   1.004  11.181 -2.8825 -0.4964  2.1569
  924MOL0     H21919   7.028   1.202  11.392  0.0535  1.4753 -2.7448
  924MOL0     H21920   7.004   1.033  11.426  3.8509  0.4667  1.5142
  924MOL0     H21921   6.937   1.161  11.055  0.3934 -1.9880  0.2187
  924MOL0     H21922   6.714   1.157  10.921  2.3737  3.5677 -0.7893
  924MOL0     H21923   6.659   1.310  10.978 -0.8130 -0.2623  1.2822
  924MOL0     H21924   6.451   1.164  11.085 -3.4009  1.0104 -1.4590
  924MOL0     H21925   6.514   1.036  10.982  1.1622  0.1203  1.6841
  924MOL0     H21926   6.410   1.316  10.898  1.2988 -0.5678  0.6455
  924MOL0     H21927   6.500   1.216  10.795  0.9900  3.6339  1.4324
  924MOL0     H21928   6.237   1.106  10.919  1.4242  0.9378  2.6700
  924MOL0     H21929   6.352   1.019  10.826  1.9662  0.5709  0.5538
  924MOL0     H21930   6.177   0.927  10.729  1.3102  0.4986 -0.6261
  924MOL0     H21931   6.003   0.838  10.598  2.6390 -0.1623  3.7340
  924MOL0     H21932   5.809   0.782  10.141  1.2465  1.5578  1.2851
  924MOL0     H21933   5.637   0.669  10.032  0.4771 -1.8819  0.5573
  924MOL0     H21934   5.245   0.670  10.204 -0.4830  0.6226  1.5613
  924MOL0     H21935   5.287   0.510  10.276  2.9910 -0.3610  0.0112
  924MOL0     H21936   5.252   0.405  10.048 -1.6868 -1.9903  0.4830
  924MOL0     H21937   5.188   0.548   9.990  1.0377 -1.6886 -0.9504
  924MOL0     H21938   5.013   0.546  10.152 -0.0735  0.9177 -2.3559
  924MOL0     H21939   5.079   0.396  10.226  1.9005  0.9779  0.0875
  924MOL0     H21940   4.989   0.405   9.921 -0.5561 -0.2206 -0.1180
  924MOL0     H21941   5.031   0.276  10.029 -1.2193 -0.6874  0.8064
  924MOL0     H21942   4.789   0.461  10.059 -0.4153  1.1984  3.3424
  924MOL0     H21943   4.826   0.321  10.161 -1.5826 -0.6396 -1.6849
  924MOL0     H21944   4.805   0.168   9.977  0.2980  0.1867  0.8372
  924MOL0     H21945   4.754   0.309   9.870  0.5326  2.0111  1.4207
  924MOL0     H21946   4.610   0.198  10.116  0.0152 -3.2875 -1.6012
  924MOL0     H21947   4.581   0.357  10.047 -1.4077 -0.6493  1.6536
  924MOL0     H21948   4.562   0.078   9.905  0.8409  0.1249 -0.3478
  924MOL0     H21949   4.538   0.229   9.820  0.0438 -0.0535  0.1672
  924MOL0     H21950   5.416   0.653  10.413  0.5849  1.0107  0.2762
  924MOL0     H21951   5.608   0.764  10.511 -1.5726 -0.2442 -0.5074
  924MOL0     H21952   5.971   1.201  10.369 -0.6293 -2.1090 -0.1600
  924MOL0     H21953   6.147   1.292  10.535 -0.1469 -0.5438  0.6461
  924MOL0     H21954   7.187   0.668  10.765 -1.1779 -1.9743  1.5775
  924MOL0     H21955   7.022   0.768  10.607  1.7218 -1.7780 -0.0457
  924MOL0     H21956   6.638   0.634  10.369 -1.3347 -0.3553  0.4896
  924MOL0     H21957   6.449   0.707  10.220 -2.8302  1.2419 -0.1949
  924MOL0     H21958   6.123   0.980  10.260  1.1893  0.6529 -0.5134
  924MOL0     H21959   6.170   0.812  10.310 -1.5110 -0.2970 -0.3803
  924MOL0     H21960   6.218   0.890  10.021  1.6842  1.3570  1.5562
  924MOL0     H21961   6.253   0.742  10.102 -1.2405 -0.2755 -1.3157
  924MOL0     H21962   5.964   0.838  10.049 -1.4700 -1.9925 -0.3316
  924MOL0     H21963   6.005   0.690  10.142 -2.1273  2.7555  1.2395
  924MOL0     H21964   6.094   0.756   9.854  2.1287 -0.1777  0.3743
  924MOL0     H21965   6.113   0.602   9.940  0.3274 -0.1031 -1.4911
  924MOL0     H21966   5.713   0.677   9.759  0.5806 -0.1133  0.4574
  924MOL0     H21967   6.399   1.064  10.485  1.5518  0.1107  2.8739
  924MOL0     H21968   6.567   0.984  10.607  0.8735  1.6546 -1.3297
  925MOL0     O21969   2.307   3.707   1.385 -0.8961 -0.1865 -0.5961
  925MOL0     C21970   2.392   3.646   1.323 -0.0459  0.0017 -0.0778
  925MOL0     O21971   2.368   3.534   1.240  0.2606  0.0629  0.7756
  925MOL0     C21972   2.239   3.495   1.214 -0.4250  0.4786  0.4171
  925MOL0     C21973   2.219   3.366   1.168 -0.0667 -1.2970 -0.3821
  925MOL0     C21974   2.095   3.317   1.119 -0.1060  0.0700 -0.7943
  925MOL0     C21975   1.991   3.398   1.110  0.0574 -0.2068 -0.3022
  925MOL0     O21976   1.880   3.350   1.041  0.6493  0.5825 -0.6220
  925MOL0     C21977   1.751   3.419   1.065 -0.5485 -0.0220  0.6766
  925MOL0     C21978   1.706   3.479   0.927  0.1078  0.5157  0.4913
  925MOL0     C21979   1.562   3.510   0.935  0.3860  0.8051  0.0629
  925MOL0     C21980   1.455   3.389   0.913 -0.8350 -0.0393  0.0046
  925MOL0     C21981   1.312   3.445   0.922 -0.9899  0.2233 -0.4096
  925MOL0     C21982   1.203   3.340   0.900 -0.0614  0.5189 -0.1557
  925MOL0     C21983   1.065   3.388   0.895 -1.0793 -0.7682  0.5670
  925MOL0     C21984   1.024   3.482   1.012  0.3881 -0.9060  0.3500
  925MOL0     N21985   0.889   3.535   1.001  0.2997  0.2611  0.0621
  925MOL0     C21986   0.815   3.536   0.888  0.8505 -0.5500  0.4010
  925MOL0     C21987   0.696   3.601   0.919  0.5996  0.1114 -0.0575
  925MOL0     C21988   0.591   3.633   0.810  0.2467 -0.0710 -0.3483
  925MOL0     C21989   0.501   3.753   0.845  0.7824 -0.4758 -0.9982
  925MOL0     C21990   0.376   3.766   0.765 -0.0580 -0.0799 -0.0760
  925MOL0     C21991   0.305   3.903   0.776  0.1761  0.1379  0.2221
  925MOL0     O21992   0.221   3.902   0.886  0.1166  0.0659 -0.7044
  925MOL0     C21993   0.124   4.010   0.902  0.1856  0.0046 -0.5388
  925MOL0     C21994   0.098   4.119   0.813  0.1424  0.3872 -0.2108
  925MOL0     C21995  -0.014   4.207   0.839  0.3571  0.5676  0.0114
  925MOL0     C21996  -0.091   4.197   0.956 -0.4579  1.2737  0.4370
  925MOL0     C21997  -0.204   4.276   0.994 -0.5435 -0.8947  0.3653
  925MOL0     O21998  -0.205   4.316   1.119  0.6673  0.1152 -0.5466
  925MOL0     C21999  -0.281   4.414   1.160  0.1039  0.5225 -0.6725
  925MOL0     C22000  -0.249   4.546   1.137  1.0675  0.6715 -0.4417
  925MOL0     C22001  -0.328   4.651   1.194 -0.6026  0.5396 -0.0130
  925MOL0     C22002  -0.439   4.624   1.276 -0.1388  0.9242  0.1839
  925MOL0     O22003  -0.513   4.724   1.330 -0.1396  0.6912 -0.1708
  925MOL0     C22004  -0.651   4.703   1.361  0.4378 -0.1373  0.4374
  925MOL0     C22005  -0.721   4.836   1.360  0.4601 -0.1493 -0.0805
  925MOL0     C22006  -0.872   4.826   1.398  0.2867 -0.0220  0.1723
  925MOL0     C22007  -0.938   4.965   1.403  0.3707  0.1704  0.5783
  925MOL0     C22008  -1.095   4.945   1.437 -0.1713  0.3293  1.1221
  925MOL0     C22009  -1.142   5.079   1.484  0.2841 -1.3482 -0.3933
  925MOL0     C22010  -1.286   5.060   1.540 -0.2864 -0.0630  0.4285
  925MOL0     C22011  -1.349   5.190   1.582 -0.5061  0.3593  0.2079
  925MOL0    Cl22012  -1.515   5.148   1.646  0.2749  0.0413  0.2638
  925MOL0     C22013  -0.477   4.491   1.293 -0.4867  1.2978  0.0669
  925MOL0     C22014  -0.398   4.390   1.228 -0.3071  0.5041  0.5282
  925MOL0     O22015  -0.273   4.320   0.904  0.3115  0.5320  0.5237
  925MOL0     C22016  -0.069   4.086   1.039 -0.9283 -0.2810  0.2549
  925MOL0     C22017   0.038   3.999   1.011  0.2818 -0.2650  0.4758
  925MOL0     N22018   0.707   3.642   1.048  0.1736 -0.2043 -0.0638
  925MOL0     N22019   0.819   3.605   1.099  0.1586  0.3506  0.2122
  925MOL0     C22020   2.000   3.527   1.155  0.3437 -0.0804  0.4352
  925MOL0     C22021   2.118   3.576   1.208 -0.2963  0.4728  0.1135
  925MOL0     C22022   2.529   3.690   1.332 -0.9749  1.0658  0.2418
  925MOL0     C22023   2.637   3.602   1.295 -0.1455  0.6578 -0.0637
  925MOL0     C22024   2.769   3.648   1.281  0.2733  0.5584  0.3970
  925MOL0     C22025   2.799   3.783   1.324 -0.4692  1.1222 -0.4630
  925MOL0     O22026   2.920   3.847   1.328 -0.6008  0.4152 -0.1168
  925MOL0     C22027   3.023   3.781   1.270  0.6383  0.5220 -0.0059
  925MOL0     C22028   3.145   3.879   1.286  0.7208  0.5701 -0.0893
  925MOL0     C22029   3.280   3.810   1.260 -0.4033  0.7271  0.1245
  925MOL0     C22030   3.289   3.736   1.128 -1.0221 -0.1891 -1.1543
  925MOL0     C22031   3.425   3.719   1.091  0.7670  0.8031  0.6177
  925MOL0     C22032   3.537   3.718   1.060  0.1141  0.4781 -0.1654
  925MOL0     C22033   2.697   3.856   1.371 -1.2701 -0.4760 -0.6430
  925MOL0     C22034   2.565   3.815   1.363  0.1003  0.3394 -0.4612
  925MOL0     H22035   2.306   3.303   1.184 -0.3536 -1.2412  1.5960
  925MOL0     H22036   2.084   3.215   1.082  1.0870  0.4121 -2.1531
  925MOL0     H22037   1.747   3.488   1.150 -1.5354 -0.1457  0.7470
  925MOL0     H22038   1.689   3.339   1.107 -1.2001 -0.3711 -0.8994
  925MOL0     H22039   1.713   3.403   0.849 -1.2162 -0.3065  1.1315
  925MOL0     H22040   1.762   3.567   0.895 -0.4988  1.7636  2.6661
  925MOL0     H22041   1.543   3.598   0.873 -1.4212  1.6091  1.6724
  925MOL0     H22042   1.556   3.560   1.032  1.9285  1.6589 -0.2431
  925MOL0     H22043   1.470   3.339   0.817 -1.7718  0.5518 -0.4609
  925MOL0     H22044   1.458   3.316   0.995 -1.2394 -1.1349 -0.9338
  925MOL0     H22045   1.305   3.527   0.849  0.3011  1.6709  1.0363
  925MOL0     H22046   1.307   3.488   1.022 -0.7343  0.0291 -0.3149
  925MOL0     H22047   1.219   3.270   0.983  1.3704 -0.6258 -1.3334
  925MOL0     H22048   1.230   3.292   0.805  2.3046 -0.2507  0.8372
  925MOL0     H22049   1.059   3.452   0.806  3.0936  0.4015  0.9038
  925MOL0     H22050   1.001   3.301   0.882 -1.7050 -0.3500  0.7931
  925MOL0     H22051   1.086   3.571   0.997 -1.2336  0.3371  0.8210
  925MOL0     H22052   1.037   3.431   1.108 -1.2227 -0.2612  0.9463
  925MOL0     H22053   0.833   3.500   0.787 -0.2732 -2.4831  0.8583
  925MOL0     H22054   0.526   3.545   0.804  1.0711 -0.6513 -0.9017
  925MOL0     H22055   0.644   3.646   0.716  0.0337 -2.5234 -0.8790
  925MOL0     H22056   0.561   3.842   0.825  1.3427 -0.4827  0.5236
  925MOL0     H22057   0.466   3.747   0.949 -0.2821  1.9905 -1.1593
  925MOL0     H22058   0.418   3.757   0.664  2.1883 -0.3215  0.8403
  925MOL0     H22059   0.301   3.693   0.797  2.7283 -3.1322 -0.0872
  925MOL0     H22060   0.243   3.928   0.689  0.6831  0.2218 -0.1229
  925MOL0     H22061   0.373   3.989   0.781  1.1050 -0.4047 -1.9055
  925MOL0     H22062   0.164   4.130   0.727  0.2365  0.6810 -0.1011
  925MOL0     H22063  -0.047   4.282   0.768  0.7205  0.1256 -0.6321
  925MOL0     H22064  -0.159   4.572   1.082 -0.2142 -0.4828 -3.3414
  925MOL0     H22065  -0.293   4.752   1.177  0.7758  0.4868  2.1846
  925MOL0     H22066  -0.666   4.665   1.462 -3.2390 -0.0500  0.0408
  925MOL0     H22067  -0.693   4.629   1.292  2.5819 -1.4449  0.4263
  925MOL0     H22068  -0.706   4.887   1.265 -0.7295 -1.2598 -0.8943
  925MOL0     H22069  -0.677   4.901   1.437  0.8843  0.5302 -0.8727
  925MOL0     H22070  -0.870   4.775   1.495 -1.2591 -3.7507 -1.5963
  925MOL0     H22071  -0.926   4.767   1.324 -1.7383  2.5600 -0.5564
  925MOL0     H22072  -0.897   5.021   1.488 -1.1748  2.1467  0.0837
  925MOL0     H22073  -0.923   5.024   1.312  1.7111 -1.5811 -0.4128
  925MOL0     H22074  -1.118   4.867   1.511  2.2723 -4.2067 -2.3240
  925MOL0     H22075  -1.154   4.915   1.350  1.0566 -2.6808  1.1948
  925MOL0     H22076  -1.153   5.150   1.402 -2.4534 -0.6065  0.4942
  925MOL0     H22077  -1.075   5.121   1.559  1.4844 -0.5508 -1.8706
  925MOL0     H22078  -1.348   5.019   1.460  0.6046  1.6609 -1.2343
  925MOL0     H22079  -1.286   5.000   1.632 -0.6466 -0.7134  0.0129
  925MOL0     H22080  -1.350   5.267   1.504  3.5479  1.6903  1.2565
  925MOL0     H22081  -1.287   5.231   1.662 -0.6678  1.3970 -0.1784
  925MOL0     H22082  -0.569   4.467   1.345 -0.5022 -1.9111 -1.2076
  925MOL0     H22083  -0.415   4.283   1.233  0.1062  0.4475  0.7804
  925MOL0     H22084  -0.140   4.064   1.119 -2.4898  2.0710 -0.3829
  925MOL0     H22085   0.057   3.928   1.090  2.3615  2.4277  2.6192
  925MOL0     H22086   1.918   3.597   1.150 -1.4905 -2.1740 -0.0577
  925MOL0     H22087   2.133   3.678   1.242  3.4694 -0.6813  2.6216
  925MOL0     H22088   2.617   3.502   1.260  0.0687  1.2579 -2.0538
  925MOL0     H22089   2.844   3.579   1.244 -1.4953  0.6822 -4.1626
  925MOL0     H22090   3.009   3.775   1.162 -1.1573 -0.7264  0.2552
  925MOL0     H22091   3.034   3.680   1.311 -1.7085  1.6242  3.8388
  925MOL0     H22092   3.158   3.976   1.237  3.5447  0.1837 -0.2146
  925MOL0     H22093   3.133   3.909   1.391 -1.9242  0.5844 -0.3240
  925MOL0     H22094   3.297   3.734   1.338  2.7960  0.5598 -0.5770
  925MOL0     H22095   3.362   3.879   1.283  1.3672 -1.6305  1.3387
  925MOL0     H22096   3.222   3.650   1.119 -1.5002  0.1178 -0.6500
  925MOL0     H22097   3.249   3.805   1.054 -1.3864  0.8496 -0.0239
  925MOL0     H22098   3.634   3.731   1.016 -0.3779  4.6484 -0.4001
  925MOL0     H22099   2.706   3.955   1.415  1.6293 -1.2019  0.6139
  925MOL0     H22100   2.486   3.886   1.384 -1.0817 -0.5928 -1.5702
  926MOL0     O22101   6.655   1.622   4.558 -0.7255  0.6529 -0.4426
  926MOL0     C22102   6.684   1.736   4.581 -0.5986  0.2882  0.3254
  926MOL0     O22103   6.596   1.835   4.618 -0.1486  0.4378  0.1396
  926MOL0     C22104   6.459   1.808   4.640 -0.4478  0.6100  0.0778
  926MOL0     C22105   6.392   1.734   4.546 -0.2489  0.0696 -0.1691
  926MOL0     C22106   6.254   1.713   4.555 -0.3169 -0.2596 -1.1780
  926MOL0     C22107   6.185   1.769   4.664  0.0074 -0.4387  0.8729
  926MOL0     O22108   6.045   1.752   4.680  0.3938 -0.0725 -0.5938
  926MOL0     C22109   5.978   1.654   4.612 -0.6643 -0.4692  0.9388
  926MOL0     C22110   5.852   1.630   4.692  0.1065 -0.2021  0.0122
  926MOL0     C22111   5.750   1.546   4.624  0.8073  0.3707 -0.0762
  926MOL0     C22112   5.623   1.541   4.713  1.1825 -0.3574  0.1092
  926MOL0     C22113   5.512   1.472   4.623 -0.4311 -0.2750  0.3762
  926MOL0     C22114   5.378   1.456   4.694  0.1858 -0.2106 -0.4874
  926MOL0     C22115   5.274   1.389   4.607 -0.0776  0.6309  0.2448
  926MOL0     C22116   5.136   1.386   4.680  1.1378  0.3862  0.0631
  926MOL0     N22117   5.139   1.313   4.801 -1.0820  0.4503 -0.1464
  926MOL0     C22118   5.191   1.178   4.821  0.8809 -0.0924  0.8339
  926MOL0     C22119   5.169   1.138   4.943  0.6843  0.1352 -0.4361
  926MOL0     C22120   5.179   0.997   4.997  1.1116 -0.1683 -0.4803
  926MOL0     C22121   5.045   0.935   4.986 -0.5968  0.1240 -0.5897
  926MOL0     C22122   5.048   0.796   5.049 -0.6532  0.8483  0.3101
  926MOL0     C22123   4.911   0.728   5.042  0.0465  1.1707 -0.5840
  926MOL0     O22124   4.918   0.589   5.106 -0.5339 -0.1519 -0.3107
  926MOL0     C22125   4.805   0.529   5.145  0.3787  0.8632 -0.1204
  926MOL0     C22126   4.806   0.456   5.266 -0.1170 -0.3045  0.5143
  926MOL0     C22127   4.689   0.393   5.314 -0.4218 -1.0697  0.0268
  926MOL0     C22128   4.569   0.400   5.239  0.4687 -0.8018  0.1700
  926MOL0     C22129   4.447   0.335   5.297  0.2651  0.1336 -0.1257
  926MOL0     O22130   4.454   0.254   5.400  0.0749  0.1379  0.2085
  926MOL0     C22131   4.332   0.206   5.441 -0.3218  0.5729  0.3881
  926MOL0     C22132   4.294   0.088   5.414 -0.1418 -0.1236  0.2641
  926MOL0     C22133   4.191   0.022   5.468  0.8572 -0.1096 -0.3513
  926MOL0     C22134   4.106   0.088   5.553 -0.3115  0.7257  0.1836
  926MOL0     O22135   4.001   0.025   5.614 -0.5071 -0.2863  0.0707
  926MOL0     C22136   3.875   0.031   5.562 -0.4831 -0.4502 -0.0891
  926MOL0     C22137   3.779   0.024   5.683  0.2608 -0.0478  0.4038
  926MOL0     C22138   3.649   0.074   5.634 -0.1508  0.1482  0.1456
  926MOL0     C22139   3.554   0.118   5.742 -0.8244  0.4710 -0.3277
  926MOL0     C22140   3.508   0.003   5.837 -0.2878 -0.0873  0.8349
  926MOL0     C22141   3.444  -0.121   5.768  0.1825 -0.5032  0.2789
  926MOL0     C22142   3.350  -0.199   5.868 -0.1288 -0.2883 -0.2372
  926MOL0     C22143   3.289  -0.326   5.797 -0.2683  0.5197  0.8316
  926MOL0    Cl22144   3.402  -0.451   5.758  0.3914 -0.2873 -0.4647
  926MOL0     C22145   4.141   0.212   5.596 -0.7557  0.0639  0.1993
  926MOL0     C22146   4.253   0.274   5.535 -0.4719 -0.1133  0.0180
  926MOL0     O22147   4.343   0.372   5.244  0.1356  0.3147  0.1368
  926MOL0     C22148   4.566   0.482   5.114 -0.0170  0.0744  0.8478
  926MOL0     C22149   4.689   0.546   5.073  0.5557  0.8585 -0.2136
  926MOL0     N22150   5.105   1.250   5.002 -0.3493 -0.3607 -0.6324
  926MOL0     N22151   5.091   1.349   4.925  0.3648  0.3633  1.1336
  926MOL0     C22152   6.252   1.844   4.756 -0.4037 -0.1068 -0.8814
  926MOL0     C22153   6.395   1.861   4.752 -0.4838 -0.2651 -0.3766
  926MOL0     C22154   6.833   1.751   4.598  0.3484 -0.5958 -0.4236
  926MOL0     C22155   6.877   1.860   4.668 -0.1837 -1.0415  0.5862
  926MOL0     C22156   7.015   1.876   4.689 -0.2728  0.5381 -0.0856
  926MOL0     C22157   7.116   1.778   4.652  0.4338 -0.5953 -0.0908
  926MOL0     O22158   7.258   1.786   4.673  1.3191 -0.2135 -0.4213
  926MOL0     C22159   7.315   1.883   4.762  0.3823 -0.3589 -0.1554
  926MOL0     C22160   7.435   1.954   4.708  0.5830 -0.7110  0.5304
  926MOL0     C22161   7.568   1.897   4.741 -0.2177 -0.0004  0.0064
  926MOL0     C22162   7.673   1.998   4.705  0.4083 -0.2264 -0.1586
  926MOL0     C22163   7.675   2.043   4.563  0.2176  0.0061 -0.2630
  926MOL0     C22164   7.693   2.069   4.448 -0.5034 -0.3523 -0.3012
  926MOL0     C22165   7.066   1.673   4.571  0.4493 -0.4897 -0.2043
  926MOL0     C22166   6.927   1.659   4.543 -0.6046  0.5385 -0.4755
  926MOL0     H22167   6.433   1.689   4.456 -2.0971 -1.8030 -0.1399
  926MOL0     H22168   6.200   1.651   4.484  1.4441  1.3201 -4.0488
  926MOL0     H22169   6.033   1.561   4.598  0.1970  0.3496 -1.5960
  926MOL0     H22170   5.947   1.690   4.514 -1.7246  0.2194  1.5085
  926MOL0     H22171   5.807   1.729   4.707 -2.1390 -1.1200 -0.2851
  926MOL0     H22172   5.871   1.591   4.792 -0.0310  3.1182  1.4643
  926MOL0     H22173   5.799   1.451   4.599 -0.7063  0.3345 -3.4869
  926MOL0     H22174   5.716   1.587   4.528 -0.7247  0.9108  0.6595
  926MOL0     H22175   5.645   1.489   4.807  4.1355 -1.4390 -1.0543
  926MOL0     H22176   5.586   1.642   4.730  1.4177 -0.2200 -0.1892
  926MOL0     H22177   5.559   1.381   4.586  2.9887  2.0900 -1.7188
  926MOL0     H22178   5.482   1.529   4.534 -2.3244  0.9786  1.7433
  926MOL0     H22179   5.339   1.553   4.727  1.7333 -0.4656  2.4494
  926MOL0     H22180   5.396   1.388   4.779  1.8957  1.3247  0.4471
  926MOL0     H22181   5.262   1.443   4.512 -0.7981 -1.8752 -1.1999
  926MOL0     H22182   5.295   1.284   4.583  1.3419 -0.2099  4.4062
  926MOL0     H22183   5.076   1.315   4.622  1.1515  0.1737  0.3101
  926MOL0     H22184   5.084   1.482   4.685  0.8951  0.5538 -3.3554
  926MOL0     H22185   5.227   1.121   4.737  0.9644  1.6467 -0.3713
  926MOL0     H22186   5.200   0.994   5.104  0.5761  0.5878 -0.3486
  926MOL0     H22187   5.258   0.947   4.940  0.8723  0.6609 -1.5619
  926MOL0     H22188   5.016   0.915   4.883  0.3468 -0.1059 -0.8184
  926MOL0     H22189   4.971   0.992   5.045 -0.7764 -2.3526  1.7807
  926MOL0     H22190   5.113   0.737   4.984 -0.7588  2.6586 -1.5229
  926MOL0     H22191   5.087   0.782   5.150 -0.5911 -0.6178  0.1130
  926MOL0     H22192   4.876   0.721   4.938 -0.7427  0.9467 -0.3072
  926MOL0     H22193   4.833   0.782   5.097 -2.6814 -2.9033 -0.0813
  926MOL0     H22194   4.892   0.446   5.331  1.4815 -0.4269 -1.5165
  926MOL0     H22195   4.681   0.335   5.405  0.5030 -1.2443  0.0155
  926MOL0     H22196   4.364   0.031   5.354  0.7986 -0.7617  1.8863
  926MOL0     H22197   4.177  -0.082   5.442 -0.0757  0.0943 -0.6945
  926MOL0     H22198   3.873  -0.053   5.491  4.5881  0.1535 -1.3249
  926MOL0     H22199   3.876   0.129   5.513  0.0881  0.0613  0.9168
  926MOL0     H22200   3.801   0.083   5.772 -0.5545  0.4289  0.2989
  926MOL0     H22201   3.773  -0.079   5.720 -1.4272  0.6375  2.2388
  926MOL0     H22202   3.605   0.002   5.564  4.5307 -1.8856 -1.1066
  926MOL0     H22203   3.671   0.165   5.577 -0.2591  1.1101  1.5917
  926MOL0     H22204   3.595   0.200   5.802  4.0560 -1.0849 -1.1345
  926MOL0     H22205   3.467   0.166   5.697 -0.7706  0.4298 -0.4758
  926MOL0     H22206   3.440   0.049   5.910 -0.2223  2.7740 -0.7577
  926MOL0     H22207   3.601  -0.035   5.879  0.2755 -1.0083 -1.1197
  926MOL0     H22208   3.515  -0.193   5.725 -0.7102 -1.8986  1.0742
  926MOL0     H22209   3.379  -0.075   5.693 -0.0943  1.5568  1.7222
  926MOL0     H22210   3.412  -0.231   5.953  1.4854  2.3638 -0.2962
  926MOL0     H22211   3.269  -0.133   5.902 -0.5565 -0.9272  0.0040
  926MOL0     H22212   3.241  -0.288   5.707  3.1828  2.6669 -0.2904
  926MOL0     H22213   3.212  -0.358   5.867  0.7884 -2.5715  0.7140
  926MOL0     H22214   4.084   0.262   5.673 -0.2288  0.3931  0.3826
  926MOL0     H22215   4.290   0.370   5.568 -0.7682 -0.8551  2.7428
  926MOL0     H22216   4.476   0.502   5.056  0.9625 -0.5644 -0.9636
  926MOL0     H22217   4.691   0.585   4.972 -1.8470 -1.5452 -1.3294
  926MOL0     H22218   6.190   1.904   4.823 -0.3311  0.6042 -1.4438
  926MOL0     H22219   6.451   1.919   4.825 -0.3022 -0.2769 -0.5065
  926MOL0     H22220   6.810   1.935   4.710 -0.6257 -0.6547 -0.7548
  926MOL0     H22221   7.046   1.965   4.743  2.2808 -1.3883  1.8728
  926MOL0     H22222   7.337   1.837   4.859  0.2797 -2.6029 -1.1333
  926MOL0     H22223   7.240   1.960   4.781  0.9959  0.3434 -0.5363
  926MOL0     H22224   7.423   1.957   4.599 -0.3263  0.2098  0.6344
  926MOL0     H22225   7.427   2.056   4.746 -0.7571 -0.5316 -0.1576
  926MOL0     H22226   7.595   1.812   4.678  2.0578  0.4268  0.3379
  926MOL0     H22227   7.569   1.879   4.849  2.0758 -1.7822 -0.2419
  926MOL0     H22228   7.657   2.084   4.770 -2.5509 -3.2895  3.6578
  926MOL0     H22229   7.768   1.950   4.730  0.3244  0.9642  2.8012
  926MOL0     H22230   7.696   2.083   4.342  2.8246  0.9154 -0.1357
  926MOL0     H22231   7.145   1.607   4.536 -0.0233 -1.0234 -0.2843
  926MOL0     H22232   6.896   1.573   4.484  0.9660 -1.2793  1.2056
  927MOL0     O22233   0.448   3.604  10.501 -0.5233 -0.3903  0.2644
  927MOL0     C22234   0.456   3.507  10.577 -0.5371 -0.2527  0.6777
  927MOL0     O22235   0.347   3.439  10.627 -0.1545 -0.7797 -0.6333
  927MOL0     C22236   0.220   3.499  10.618 -0.1937  0.5580  0.5275
  927MOL0     C22237   0.192   3.638  10.636 -0.6289  0.0921  0.6776
  927MOL0     C22238   0.062   3.697  10.631  0.0475 -0.3300 -0.3683
  927MOL0     C22239  -0.041   3.616  10.592 -0.3744 -1.5978  0.1365
  927MOL0     O22240  -0.149   3.681  10.543  0.2771 -0.1715 -0.6497
  927MOL0     C22241  -0.282   3.633  10.589 -0.0611  0.3313  0.6349
  927MOL0     C22242  -0.360   3.748  10.652  0.1038 -0.8828 -0.1218
  927MOL0     C22243  -0.513   3.720  10.637  0.3440 -0.9660 -0.3255
  927MOL0     C22244  -0.584   3.850  10.673 -0.1216  0.1131 -0.4906
  927MOL0     C22245  -0.735   3.843  10.652  0.1836  0.5126  0.3198
  927MOL0     C22246  -0.803   3.981  10.693  0.3162 -0.0834 -0.2367
  927MOL0     C22247  -0.953   3.976  10.677  0.1894 -0.3835  1.2660
  927MOL0     C22248  -1.017   4.102  10.720  0.0146 -0.5920 -0.1967
  927MOL0     N22249  -1.157   4.083  10.732 -0.0714 -0.0983  0.2167
  927MOL0     C22250  -1.254   4.059  10.634 -0.5070 -0.2881 -0.9223
  927MOL0     C22251  -1.373   4.048  10.704 -1.1123  0.5208 -0.6025
  927MOL0     C22252  -1.504   4.015  10.639  0.6459  0.0623 -0.4347
  927MOL0     C22253  -1.557   3.881  10.689 -0.9344 -0.3352 -0.8385
  927MOL0     C22254  -1.682   3.828  10.619  0.1806  0.6740 -0.3013
  927MOL0     C22255  -1.796   3.926  10.607  0.0390  1.0343 -0.2892
  927MOL0     O22256  -1.840   3.975  10.737  0.0295  0.0561  0.2303
  927MOL0     C22257  -1.950   4.057  10.727 -0.1662  0.6013  0.1310
  927MOL0     C22258  -1.997   4.102  10.604  0.2228 -0.8188 -0.5327
  927MOL0     C22259  -2.108   4.186  10.588 -0.4367 -0.2583 -0.4735
  927MOL0     C22260  -2.178   4.218  10.706  1.0708 -0.4234 -0.2703
  927MOL0     C22261  -2.302   4.303  10.708  0.1475  0.7875  0.6746
  927MOL0     O22262  -2.361   4.313  10.825 -0.6206 -0.3432 -0.2713
  927MOL0     C22263  -2.480   4.385  10.830  0.0131 -0.9208 -0.1714
  927MOL0     C22264  -2.591   4.312  10.857 -0.0133 -0.0382  0.1862
  927MOL0     C22265  -2.713   4.372  10.871 -1.1041 -0.0197 -0.1087
  927MOL0     C22266  -2.718   4.512  10.871  0.4993  0.0541  0.2039
  927MOL0     O22267  -2.837   4.568  10.909  0.5623 -0.0047 -0.7469
  927MOL0     C22268  -2.902   4.629  10.800 -0.0105  0.0172 -0.6575
  927MOL0     C22269  -3.039   4.680  10.835  0.4936 -0.3380 -0.0860
  927MOL0     C22270  -3.052   4.813  10.926  0.4395 -0.2302 -0.4571
  927MOL0     C22271  -3.194   4.869  10.930 -0.2900  0.1855 -0.1718
  927MOL0     C22272  -3.289   4.766  10.968  0.3359 -0.7743 -0.2842
  927MOL0     C22273  -3.423   4.812  11.006  0.3249 -0.6687 -0.2394
  927MOL0     C22274  -3.511   4.708  11.073  0.3834  1.2352  0.6871
  927MOL0     C22275  -3.649   4.771  11.101 -0.0340 -0.7899  0.5303
  927MOL0    Cl22276  -3.724   4.832  10.944 -0.0488  0.1421 -0.0275
  927MOL0     C22277  -2.602   4.587  10.843  0.1223 -0.8801 -0.2564
  927MOL0     C22278  -2.483   4.525  10.823  0.0027  0.2050  0.3649
  927MOL0     O22279  -2.354   4.344  10.606 -0.7286  0.3174  0.3448
  927MOL0     C22280  -2.120   4.182  10.832 -0.0147 -0.1921  1.2598
  927MOL0     C22281  -2.012   4.096  10.838 -0.2048  0.3382 -0.7470
  927MOL0     N22282  -1.346   4.054  10.839 -0.2762  0.1387 -0.5184
  927MOL0     N22283  -1.218   4.068  10.858  1.1020 -0.0886 -0.9950
  927MOL0     C22284  -0.022   3.482  10.574 -0.6556  0.1544 -0.5382
  927MOL0     C22285   0.106   3.421  10.588  0.1678 -0.2810  0.0095
  927MOL0     C22286   0.583   3.450  10.601 -0.1907 -0.1010  0.6492
  927MOL0     C22287   0.689   3.460  10.506  0.2039  0.5659 -0.3536
  927MOL0     C22288   0.820   3.414  10.535  0.5464 -0.2174  0.2765
  927MOL0     C22289   0.861   3.369  10.663  0.4559  0.6972  0.3773
  927MOL0     O22290   0.984   3.346  10.715  0.2851 -0.0885 -0.2095
  927MOL0     C22291   1.077   3.453  10.696 -0.4343 -0.1352  0.2221
  927MOL0     C22292   1.200   3.394  10.777  0.2805 -0.8265 -0.0062
  927MOL0     C22293   1.297   3.499  10.834 -0.0672 -0.1703  0.4750
  927MOL0     C22294   1.359   3.447  10.960  0.1036 -0.5404  0.0639
  927MOL0     C22295   1.442   3.545  11.037  0.2761 -0.1819  0.0542
  927MOL0     C22296   1.506   3.628  11.100 -0.2630 -0.0242  0.6648
  927MOL0     C22297   0.757   3.380  10.758 -0.3179  0.5421  0.3675
  927MOL0     C22298   0.624   3.410  10.731 -0.5595  0.0966 -0.2022
  927MOL0     H22299   0.278   3.696  10.669 -0.3175 -0.7042  1.3403
  927MOL0     H22300   0.056   3.804  10.645  2.1675 -0.2293  0.1665
  927MOL0     H22301  -0.276   3.542  10.649  1.6324 -0.7777 -1.0746
  927MOL0     H22302  -0.337   3.592  10.503 -0.0469 -0.5077  1.0190
  927MOL0     H22303  -0.332   3.846  10.612 -2.1722  0.5553  1.5502
  927MOL0     H22304  -0.337   3.774  10.755  2.4611  0.2357 -0.8761
  927MOL0     H22305  -0.546   3.641  10.705  2.8161 -1.0357  0.8925
  927MOL0     H22306  -0.542   3.681  10.539 -2.8047 -0.8139  0.4379
  927MOL0     H22307  -0.549   3.891  10.768 -0.3100  1.8772 -1.1469
  927MOL0     H22308  -0.554   3.928  10.603  0.0732  2.1214  1.7036
  927MOL0     H22309  -0.773   3.763  10.717 -1.2090  0.3960 -0.5989
  927MOL0     H22310  -0.759   3.822  10.548 -1.8983  0.3292  0.8009
  927MOL0     H22311  -0.757   4.063  10.636 -0.5729  1.1598  0.7740
  927MOL0     H22312  -0.762   3.994  10.793  4.3484  0.2242 -1.7722
  927MOL0     H22313  -0.985   3.971  10.573  1.7092  0.4985  0.7251
  927MOL0     H22314  -1.001   3.896  10.734 -0.1155 -0.5552  0.7658
  927MOL0     H22315  -0.988   4.190  10.661  0.6231 -1.7687 -1.7274
  927MOL0     H22316  -0.988   4.122  10.823 -1.6562  0.4123  0.1124
  927MOL0     H22317  -1.243   4.055  10.526  0.5953 -1.0437 -0.8061
  927MOL0     H22318  -1.493   4.012  10.530 -1.9625 -1.4772 -0.7457
  927MOL0     H22319  -1.581   4.092  10.652  2.5029  1.8083  0.7574
  927MOL0     H22320  -1.571   3.900  10.796 -3.6403 -2.4760 -0.6844
  927MOL0     H22321  -1.486   3.799  10.679 -2.0968 -1.6177  0.6845
  927MOL0     H22322  -1.654   3.793  10.519  2.1212 -0.7778  0.7102
  927MOL0     H22323  -1.717   3.733  10.660  1.9723 -0.7262 -1.8374
  927MOL0     H22324  -1.878   3.867  10.565 -1.6749  0.7024  3.2320
  927MOL0     H22325  -1.757   4.010  10.547 -0.5763  2.2494  0.9455
  927MOL0     H22326  -1.949   4.088  10.507  0.4800 -2.0969 -0.2385
  927MOL0     H22327  -2.130   4.222  10.489  0.5328 -2.0875 -1.4038
  927MOL0     H22328  -2.581   4.204  10.864  1.4906  0.1691  1.8435
  927MOL0     H22329  -2.801   4.314  10.895 -1.2396  1.5175  3.6711
  927MOL0     H22330  -2.919   4.547  10.730 -0.1736  0.3384 -0.9977
  927MOL0     H22331  -2.845   4.716  10.764 -0.6884  1.0732  0.6888
  927MOL0     H22332  -3.088   4.601  10.893 -0.5604 -0.4572 -1.1043
  927MOL0     H22333  -3.098   4.697  10.744  0.6248 -1.4216 -0.3856
  927MOL0     H22334  -2.991   4.891  10.879 -0.9671  0.2950 -1.4797
  927MOL0     H22335  -3.021   4.789  11.028  1.7514 -1.4730 -1.1056
  927MOL0     H22336  -3.206   4.952  11.000 -1.3654 -1.6047  1.8635
  927MOL0     H22337  -3.213   4.896  10.825  0.0891 -0.6914 -0.4719
  927MOL0     H22338  -3.246   4.722  11.059 -0.4450 -1.6980 -0.3465
  927MOL0     H22339  -3.293   4.687  10.894 -0.5228 -1.8952  0.9090
  927MOL0     H22340  -3.459   4.858  10.914 -0.2247 -0.9777 -0.1782
  927MOL0     H22341  -3.411   4.896  11.076 -1.0606 -0.4565 -0.2345
  927MOL0     H22342  -3.526   4.621  11.009  3.1857 -0.1263  1.7482
  927MOL0     H22343  -3.474   4.667  11.167 -0.9084 -2.4250 -0.2284
  927MOL0     H22344  -3.633   4.839  11.184 -0.2772  0.0014 -0.0590
  927MOL0     H22345  -3.715   4.695  11.144  0.7123 -0.3379  2.5641
  927MOL0     H22346  -2.613   4.695  10.843  3.4251 -0.3830 -3.1061
  927MOL0     H22347  -2.399   4.590  10.798 -1.2840  2.0118  0.5430
  927MOL0     H22348  -2.173   4.210  10.922 -0.8978  0.3504  0.5838
  927MOL0     H22349  -1.984   4.064  10.938 -3.1312  0.0943  0.0809
  927MOL0     H22350  -0.111   3.424  10.554 -0.5078 -1.0115  1.8179
  927MOL0     H22351   0.124   3.316  10.567  1.7550  0.1520 -0.9845
  927MOL0     H22352   0.672   3.514  10.413  1.8776  0.0780 -0.9739
  927MOL0     H22353   0.890   3.421  10.452 -1.0038  2.5411 -0.9487
  927MOL0     H22354   1.042   3.548  10.735 -1.0469 -0.1828 -0.1950
  927MOL0     H22355   1.099   3.465  10.589 -0.7881 -1.1245  0.0282
  927MOL0     H22356   1.163   3.329  10.857 -2.3730 -0.8838 -1.1496
  927MOL0     H22357   1.260   3.334  10.708  1.4007  0.3107 -0.0438
  927MOL0     H22358   1.238   3.587  10.863  1.9430  1.5412 -0.3662
  927MOL0     H22359   1.367   3.536  10.758  0.0057  0.0605  0.6533
  927MOL0     H22360   1.281   3.426  11.034 -0.8927  2.2665 -0.0764
  927MOL0     H22361   1.418   3.362  10.924  4.7483  2.8448 -1.3193
  927MOL0     H22362   1.551   3.708  11.155  1.2329 -0.3465 -0.0481
  927MOL0     H22363   0.793   3.361  10.859  2.2935  0.9776 -0.3959
  927MOL0     H22364   0.556   3.413  10.816 -0.0735 -0.2173  0.2053
  928MOL0     O22365   6.868   0.247   6.004 -1.0041  0.5656  0.6743
  928MOL0     C22366   6.782   0.228   5.917  0.5183 -0.6269 -0.1250
  928MOL0     O22367   6.803   0.223   5.780  0.5777 -0.8548 -0.5778
  928MOL0     C22368   6.925   0.256   5.722  0.9943 -0.0003  0.5392
  928MOL0     C22369   6.997   0.365   5.761 -1.2861  0.2672  0.2961
  928MOL0     C22370   7.099   0.416   5.683  0.7599 -0.8984  0.1232
  928MOL0     C22371   7.124   0.368   5.554  0.1663  0.4127  0.8858
  928MOL0     O22372   7.207   0.435   5.465 -0.1810 -0.0969 -0.2800
  928MOL0     C22373   7.266   0.350   5.364 -1.0052 -0.1072  0.1524
  928MOL0     C22374   7.406   0.393   5.346  0.1085 -0.4475  0.2883
  928MOL0     C22375   7.420   0.541   5.305  0.1529  0.5598 -0.0417
  928MOL0     C22376   7.563   0.585   5.280  0.1711  0.0843 -0.5012
  928MOL0     C22377   7.616   0.515   5.159  0.4287 -0.6817 -0.2020
  928MOL0     C22378   7.759   0.568   5.140 -0.0823  0.2069  0.7242
  928MOL0     C22379   7.801   0.487   5.013 -0.4731 -0.0959 -0.1683
  928MOL0     C22380   7.765   0.555   4.883  0.0709 -0.2043 -0.2529
  928MOL0     N22381   7.838   0.680   4.855  0.1481 -0.2150  0.1559
  928MOL0     C22382   7.971   0.688   4.835  0.6612 -0.7135 -0.3327
  928MOL0     C22383   8.012   0.810   4.866 -0.0332 -0.1866  0.3358
  928MOL0     C22384   8.152   0.867   4.878  0.0248  0.1424  0.1636
  928MOL0     C22385   8.201   0.845   5.027  0.3690 -0.0572  0.3383
  928MOL0     C22386   8.116   0.899   5.144 -0.8903  0.6754  0.0142
  928MOL0     C22387   8.108   1.060   5.123  0.3244 -0.1762 -0.0451
  928MOL0     O22388   8.058   1.107   5.254  0.0344 -0.5397  0.3602
  928MOL0     C22389   7.924   1.112   5.284 -0.4182  0.2894 -0.4455
  928MOL0     C22390   7.826   1.070   5.197  0.0948 -0.5433 -0.6977
  928MOL0     C22391   7.697   1.062   5.236 -0.3704 -0.3689  0.0278
  928MOL0     C22392   7.658   1.096   5.366  0.0325 -0.7510 -0.4008
  928MOL0     C22393   7.517   1.086   5.406  0.8722 -0.2150  0.2503
  928MOL0     O22394   7.492   1.034   5.533 -0.0023 -0.1872  0.2066
  928MOL0     C22395   7.368   0.979   5.557 -0.1931 -0.4294 -0.1488
  928MOL0     C22396   7.265   1.069   5.586 -0.3715 -0.3232  0.1228
  928MOL0     C22397   7.130   1.036   5.604 -0.0740 -0.1309  0.1991
  928MOL0     C22398   7.103   0.898   5.604 -0.2439 -0.2836 -0.2513
  928MOL0     O22399   6.973   0.869   5.635  0.3380  0.0179  0.3158
  928MOL0     C22400   6.924   0.736   5.632  0.7933  0.5088 -0.0380
  928MOL0     C22401   6.767   0.730   5.650  0.7025 -0.1193 -0.7123
  928MOL0     C22402   6.720   0.596   5.714 -0.0148 -0.1329  0.1136
  928MOL0     C22403   6.569   0.594   5.738  0.4122  0.3607 -0.7210
  928MOL0     C22404   6.536   0.482   5.845  0.2572 -0.3319 -0.7296
  928MOL0     C22405   6.382   0.472   5.860 -0.2212 -0.2395  0.9761
  928MOL0     C22406   6.341   0.375   5.976 -0.8638  0.6183  0.4452
  928MOL0     C22407   6.192   0.400   5.991  0.8151  1.0709  0.1126
  928MOL0    Cl22408   6.118   0.271   6.080 -0.4213 -0.1271 -0.0125
  928MOL0     C22409   7.204   0.803   5.574  0.5855 -0.3047  0.6815
  928MOL0     C22410   7.334   0.845   5.540  0.4600 -0.0151  0.7640
  928MOL0     O22411   7.430   1.100   5.319 -0.8837  0.4435 -0.4067
  928MOL0     C22412   7.762   1.123   5.463  1.0778 -0.1989  0.2803
  928MOL0     C22413   7.890   1.134   5.421  0.1615 -0.0052  0.2947
  928MOL0     N22414   7.901   0.888   4.892  0.1927 -0.1007  0.0639
  928MOL0     N22415   7.801   0.803   4.885  0.0135  0.0308  0.3663
  928MOL0     C22416   7.046   0.263   5.518  0.2092  0.7329  0.2381
  928MOL0     C22417   6.945   0.205   5.596  0.2189 -0.0903  1.0789
  928MOL0     C22418   6.653   0.176   5.965  0.2374  0.5953  0.4332
  928MOL0     C22419   6.575   0.102   5.873  0.1285  0.9991  0.2805
  928MOL0     C22420   6.459   0.043   5.907 -0.0065  0.4416 -0.0257
  928MOL0     C22421   6.411   0.043   6.039 -0.0973 -0.1221 -0.4200
  928MOL0     O22422   6.287  -0.018   6.070  0.2604 -0.1504  0.1872
  928MOL0     C22423   6.226  -0.019   6.194 -0.0867 -0.5145 -0.2244
  928MOL0     C22424   6.285  -0.124   6.286  0.5547  0.1264  0.0834
  928MOL0     C22425   6.246  -0.257   6.231 -0.7467 -0.1682 -0.2398
  928MOL0     C22426   6.266  -0.373   6.327 -0.5378  0.7813 -0.4610
  928MOL0     C22427   6.219  -0.497   6.266  0.2830  0.1669 -0.3301
  928MOL0     C22428   6.188  -0.596   6.211  0.1320 -0.2932 -0.0213
  928MOL0     C22429   6.497   0.110   6.139 -0.6148  0.2611  0.1361
  928MOL0     C22430   6.611   0.183   6.100  0.3500 -1.3618  0.1446
  928MOL0     H22431   6.969   0.400   5.860 -0.1113  1.6033  0.1919
  928MOL0     H22432   7.152   0.504   5.718  1.9383 -1.9013  0.9878
  928MOL0     H22433   7.208   0.383   5.277 -1.0978  0.6259  0.4804
  928MOL0     H22434   7.255   0.242   5.376 -2.1268  0.0216  0.4078
  928MOL0     H22435   7.451   0.328   5.271  1.9331  1.8898 -0.7838
  928MOL0     H22436   7.455   0.376   5.442 -0.7258  2.3177  1.3067
  928MOL0     H22437   7.381   0.602   5.387 -1.1091 -0.2743  0.0091
  928MOL0     H22438   7.362   0.566   5.216 -2.1390 -1.6568  0.6983
  928MOL0     H22439   7.557   0.694   5.275  0.4003  0.3788  3.1217
  928MOL0     H22440   7.617   0.554   5.370 -1.3081 -1.5964 -0.1238
  928MOL0     H22441   7.557   0.537   5.070  1.1346 -1.3170 -0.8277
  928MOL0     H22442   7.602   0.411   5.191 -4.9229  0.0347  0.7590
  928MOL0     H22443   7.828   0.553   5.224 -0.2047  0.9285  0.9607
  928MOL0     H22444   7.755   0.676   5.122 -2.8105  0.0948  0.1875
  928MOL0     H22445   7.910   0.487   5.022 -0.6500  0.4322  4.5329
  928MOL0     H22446   7.770   0.383   5.027  1.8260 -0.7214  0.7651
  928MOL0     H22447   7.662   0.593   4.886 -0.1222 -0.6052 -1.3481
  928MOL0     H22448   7.766   0.491   4.794 -0.3012  0.5152 -0.7944
  928MOL0     H22449   8.035   0.616   4.785  3.7997  3.3957 -2.9038
  928MOL0     H22450   8.164   0.974   4.857  0.5745 -0.0887 -0.7470
  928MOL0     H22451   8.225   0.816   4.815  0.7467 -1.9428  2.5563
  928MOL0     H22452   8.306   0.874   5.034 -0.3802  2.9273  0.4032
  928MOL0     H22453   8.202   0.736   5.030  1.4695 -0.5247 -5.3615
  928MOL0     H22454   8.016   0.856   5.155 -0.9945  0.9115 -0.0104
  928MOL0     H22455   8.171   0.873   5.234 -0.1737 -2.0753 -1.1106
  928MOL0     H22456   8.038   1.073   5.039 -0.2135 -1.3898  0.1853
  928MOL0     H22457   8.205   1.103   5.096  0.7850 -0.7517  0.6716
  928MOL0     H22458   7.846   1.047   5.093 -2.9738  0.1961 -1.5534
  928MOL0     H22459   7.632   1.044   5.151 -0.1872 -0.7946 -0.0261
  928MOL0     H22460   7.300   1.171   5.594  2.6728 -1.3176  0.8966
  928MOL0     H22461   7.046   1.102   5.624  1.2884  1.7318  0.0607
  928MOL0     H22462   6.960   0.688   5.724  0.6746  0.9191  0.2286
  928MOL0     H22463   6.950   0.683   5.540 -0.8980 -1.5564  0.5874
  928MOL0     H22464   6.712   0.748   5.557  1.6683  1.4684 -1.0225
  928MOL0     H22465   6.739   0.814   5.714  0.0425 -0.0942 -1.0245
  928MOL0     H22466   6.771   0.578   5.810  2.9297 -2.0259 -1.6434
  928MOL0     H22467   6.737   0.516   5.641 -2.1418 -0.0230 -0.5522
  928MOL0     H22468   6.520   0.690   5.755  0.2106 -0.1427  2.0412
  928MOL0     H22469   6.528   0.563   5.641  1.5544  1.1430 -1.4825
  928MOL0     H22470   6.569   0.512   5.945 -2.3629  0.0367  0.1065
  928MOL0     H22471   6.575   0.387   5.807 -3.1398 -1.1305 -2.6308
  928MOL0     H22472   6.340   0.438   5.765 -0.1416 -0.8903  1.1714
  928MOL0     H22473   6.356   0.573   5.892  0.8519  0.1320  0.6987
  928MOL0     H22474   6.360   0.272   5.944  2.5959  1.7823 -1.7441
  928MOL0     H22475   6.387   0.384   6.074  2.1535 -3.1717 -0.3763
  928MOL0     H22476   6.143   0.407   5.894  0.1572  1.4673  0.4650
  928MOL0     H22477   6.186   0.489   6.055  0.9597  0.3179  1.1991
  928MOL0     H22478   7.170   0.700   5.584 -2.2466  0.3504 -1.1045
  928MOL0     H22479   7.416   0.778   5.517  2.4951  2.8109 -1.0283
  928MOL0     H22480   7.730   1.140   5.566 -2.8000  0.0524 -0.7983
  928MOL0     H22481   7.964   1.145   5.500 -0.5406  2.6668  0.6878
  928MOL0     H22482   7.063   0.217   5.421 -0.7629 -0.4395  0.5988
  928MOL0     H22483   6.878   0.144   5.537 -0.0029  0.3668  0.8560
  928MOL0     H22484   6.611   0.081   5.773 -2.1816 -0.8224 -0.2593
  928MOL0     H22485   6.402  -0.015   5.836  1.9156 -0.0102 -1.2638
  928MOL0     H22486   6.118  -0.026   6.181 -0.1400  1.2018 -0.9716
  928MOL0     H22487   6.250   0.072   6.250  0.9098 -1.3677  0.7785
  928MOL0     H22488   6.394  -0.122   6.287  0.6258 -0.7711 -1.8351
  928MOL0     H22489   6.251  -0.108   6.389 -0.2998 -2.8694  0.3409
  928MOL0     H22490   6.303  -0.284   6.142 -2.5810  0.6572 -1.7548
  928MOL0     H22491   6.142  -0.260   6.196 -0.4178 -1.8926 -1.1606
  928MOL0     H22492   6.375  -0.381   6.337 -0.7206 -3.1288 -0.1971
  928MOL0     H22493   6.225  -0.351   6.426  1.0675  0.5658  0.2940
  928MOL0     H22494   6.169  -0.691   6.165 -0.9011 -1.1641  2.0758
  928MOL0     H22495   6.473   0.116   6.245  0.0180 -2.4143  0.5147
  928MOL0     H22496   6.670   0.227   6.180 -1.6640  1.3952  0.2427
  929MOL0     O22497   0.077   0.148  10.445  0.1476 -0.6627 -0.5963
  929MOL0     C22498   0.107   0.037  10.421 -1.0262  0.6525 -0.6262
  929MOL0     O22499   0.038  -0.078  10.474  0.0823  0.3931  0.9387
  929MOL0     C22500  -0.064  -0.048  10.549  0.4605  0.0729  0.2159
  929MOL0     C22501  -0.056  -0.080  10.684  0.0128  0.1347 -0.5058
  929MOL0     C22502  -0.169  -0.056  10.771 -0.6590  0.2722  0.0747
  929MOL0     C22503  -0.289  -0.006  10.729  0.5776 -0.5938 -0.6001
  929MOL0     O22504  -0.382   0.013  10.830 -0.2756 -0.2328  0.3063
  929MOL0     C22505  -0.521   0.042  10.805 -0.6979 -1.0063 -0.3639
  929MOL0     C22506  -0.604  -0.044  10.896  0.6032 -0.0274 -0.9682
  929MOL0     C22507  -0.751   0.006  10.911  1.1351 -0.2048  1.7920
  929MOL0     C22508  -0.844  -0.081  10.999 -0.0600 -0.4911  0.4694
  929MOL0     C22509  -0.957   0.016  11.041 -0.0356  0.0836  0.2984
  929MOL0     C22510  -1.066  -0.069  11.117  0.5228 -0.7202 -0.0310
  929MOL0     C22511  -1.181   0.018  11.166  0.3061  0.1269 -0.3724
  929MOL0     C22512  -1.245   0.089  11.047  0.2150 -0.2426  0.5092
  929MOL0     N22513  -1.383   0.137  11.086 -0.4363 -0.1898  0.2013
  929MOL0     C22514  -1.496   0.078  11.055  0.6034 -0.3903 -0.2779
  929MOL0     C22515  -1.596   0.155  11.105  1.0981  0.2393 -0.0289
  929MOL0     C22516  -1.749   0.126  11.085 -0.5176  0.4695  0.1282
  929MOL0     C22517  -1.784   0.009  11.185 -0.4240 -0.7693  0.4394
  929MOL0     C22518  -1.933  -0.030  11.181  0.5615 -1.0265  0.5734
  929MOL0     C22519  -1.982  -0.053  11.040  0.1979  0.4104  0.0522
  929MOL0     O22520  -2.081  -0.157  11.026  0.8390 -0.5089  0.1558
  929MOL0     C22521  -2.213  -0.157  11.071  0.2287 -0.5378  0.4608
  929MOL0     C22522  -2.270  -0.282  11.059 -0.1891 -0.5163  0.2286
  929MOL0     C22523  -2.404  -0.305  11.109 -0.3361 -0.5769  0.5116
  929MOL0     C22524  -2.485  -0.192  11.145 -0.0580  0.0082 -0.2650
  929MOL0     C22525  -2.631  -0.199  11.193 -0.4984 -0.0416  0.3212
  929MOL0     O22526  -2.682  -0.083  11.238 -0.7304 -1.1180 -0.3305
  929MOL0     C22527  -2.817  -0.069  11.260 -0.1151 -0.4584 -0.5392
  929MOL0     C22528  -2.864   0.060  11.251  0.2742 -0.8616 -1.0741
  929MOL0     C22529  -2.993   0.096  11.287 -0.5793  0.6740  0.7268
  929MOL0     C22530  -3.075   0.002  11.344 -0.9616  0.2289 -0.2660
  929MOL0     O22531  -3.209   0.023  11.367  0.3514 -0.3986 -0.1297
  929MOL0     C22532  -3.268   0.155  11.358  0.8653  0.0082 -0.2862
  929MOL0     C22533  -3.418   0.143  11.395 -0.5539  0.0678 -0.4168
  929MOL0     C22534  -3.516   0.255  11.360  0.1872  0.1560 -0.7207
  929MOL0     C22535  -3.639   0.255  11.445 -0.3598  0.1472  0.0130
  929MOL0     C22536  -3.719   0.386  11.402 -0.1695  0.1679 -0.8784
  929MOL0     C22537  -3.848   0.412  11.470  0.3966  0.3168  0.2936
  929MOL0     C22538  -3.957   0.305  11.423 -0.6464 -0.2794  0.6088
  929MOL0     C22539  -4.093   0.351  11.455  0.2440 -0.2275 -0.3736
  929MOL0    Cl22540  -4.139   0.506  11.375  0.1328  0.0900  0.0977
  929MOL0     C22541  -3.025  -0.127  11.368 -0.6045 -0.2132  0.5779
  929MOL0     C22542  -2.898  -0.167  11.331  0.3361  0.2110 -0.3529
  929MOL0     O22543  -2.689  -0.303  11.169 -0.6101 -0.1417 -0.4185
  929MOL0     C22544  -2.418  -0.066  11.154  0.4017  0.5998  0.5735
  929MOL0     C22545  -2.284  -0.049  11.110  0.6426  0.1707  0.4333
  929MOL0     N22546  -1.541   0.253  11.175 -0.3529 -0.2503  0.2882
  929MOL0     N22547  -1.411   0.243  11.169 -0.0162  0.3549 -0.7997
  929MOL0     C22548  -0.302   0.028  10.595  0.2130  0.9592 -0.1992
  929MOL0     C22549  -0.190   0.003  10.505 -0.8003  0.2692  0.6104
  929MOL0     C22550   0.223   0.021  10.331 -0.3463 -0.0239 -0.0696
  929MOL0     C22551   0.282   0.134  10.264 -0.2871 -0.4238 -0.1962
  929MOL0     C22552   0.380   0.118  10.165 -0.1613  0.8223 -0.1102
  929MOL0     C22553   0.428  -0.010  10.140 -0.4378 -0.2671 -0.2831
  929MOL0     O22554   0.526  -0.023  10.043  0.3700  0.1323 -0.3331
  929MOL0     C22555   0.608  -0.139  10.045  0.5681  0.2499 -0.1773
  929MOL0     C22556   0.731  -0.125   9.954  0.0135 -0.8694  0.7116
  929MOL0     C22557   0.773  -0.269   9.903 -0.5348  0.4054 -0.5782
  929MOL0     C22558   0.899  -0.266   9.822 -0.9917 -0.4680 -0.0299
  929MOL0     C22559   0.950  -0.404   9.795 -0.6170  0.2319  0.0346
  929MOL0     C22560   1.000  -0.511   9.773  0.0981 -0.4595 -0.1750
  929MOL0     C22561   0.374  -0.119  10.212 -0.9419 -0.4436 -0.3415
  929MOL0     C22562   0.275  -0.106  10.308  0.1296  0.1556 -0.0243
  929MOL0     H22563   0.035  -0.136  10.705 -0.6959 -1.8534 -2.4127
  929MOL0     H22564  -0.148  -0.073  10.876  0.9316 -0.7398 -0.3754
  929MOL0     H22565  -0.542   0.014  10.702  0.9131  1.3794 -1.4435
  929MOL0     H22566  -0.543   0.147  10.826  0.4034 -0.8441  0.0321
  929MOL0     H22567  -0.558  -0.036  10.994 -1.2240 -2.1865  0.1607
  929MOL0     H22568  -0.610  -0.145  10.855  3.4128  0.4854 -2.9045
  929MOL0     H22569  -0.777   0.007  10.805  0.1449  1.5852  2.0125
  929MOL0     H22570  -0.753   0.110  10.946  1.0313  0.4874 -0.1948
  929MOL0     H22571  -0.882  -0.168  10.945 -0.0162 -1.4283  1.8790
  929MOL0     H22572  -0.801  -0.106  11.097 -1.7150 -1.7319  0.9245
  929MOL0     H22573  -1.001   0.062  10.952  3.6043 -1.4768 -2.5923
  929MOL0     H22574  -0.914   0.101  11.096  1.2102  0.3672 -1.0380
  929MOL0     H22575  -1.020  -0.111  11.207  0.9943 -2.0697 -0.8620
  929MOL0     H22576  -1.099  -0.155  11.058  1.2132 -0.3866 -0.9417
  929MOL0     H22577  -1.256  -0.047  11.212 -0.3198  0.4293 -0.9475
  929MOL0     H22578  -1.147   0.098  11.233  0.1317  0.9460 -1.2483
  929MOL0     H22579  -1.264   0.027  10.959 -1.0276 -0.1732  0.7217
  929MOL0     H22580  -1.182   0.172  11.016  2.4923 -0.8460  3.0579
  929MOL0     H22581  -1.492  -0.003  10.982  1.1888 -0.2606 -0.3932
  929MOL0     H22582  -1.763   0.103  10.979  4.3282  1.7347 -1.0257
  929MOL0     H22583  -1.806   0.216  11.111  2.2580  2.0997  0.9285
  929MOL0     H22584  -1.760   0.044  11.286 -0.0681 -2.0213  0.8034
  929MOL0     H22585  -1.722  -0.076  11.154  0.7896  0.2871 -0.1326
  929MOL0     H22586  -1.948  -0.123  11.236  1.3491  0.0635  2.7662
  929MOL0     H22587  -1.978   0.050  11.240  2.6872  0.7572 -0.0535
  929MOL0     H22588  -1.897  -0.076  10.974 -1.2240 -1.5551 -1.2204
  929MOL0     H22589  -2.014   0.045  11.002 -2.4351  0.1937  1.4964
  929MOL0     H22590  -2.209  -0.364  11.024  2.0575  0.2890  2.0529
  929MOL0     H22591  -2.450  -0.404  11.108  2.9308 -2.2392 -1.6572
  929MOL0     H22592  -2.790   0.135  11.225 -0.5309 -0.6874 -3.0391
  929MOL0     H22593  -3.034   0.195  11.271  2.6408  1.9994 -0.0745
  929MOL0     H22594  -3.244   0.197  11.260  4.3132 -1.9165 -0.4234
  929MOL0     H22595  -3.214   0.219  11.428  1.0776 -0.7764  0.2794
  929MOL0     H22596  -3.413   0.132  11.503 -0.2295  0.4961 -0.3864
  929MOL0     H22597  -3.467   0.051  11.361 -2.7036 -0.1543  2.8792
  929MOL0     H22598  -3.567   0.241  11.264 -3.7642  2.8852  0.7350
  929MOL0     H22599  -3.459   0.347  11.377  0.5146 -0.2160  0.2527
  929MOL0     H22600  -3.699   0.165  11.428 -2.0813  0.7238  2.4619
  929MOL0     H22601  -3.614   0.258  11.552 -0.1682 -3.4187  0.1849
  929MOL0     H22602  -3.748   0.396  11.297 -0.2058  2.1682 -0.7145
  929MOL0     H22603  -3.648   0.468  11.418 -0.1937  0.7082 -3.2082
  929MOL0     H22604  -3.879   0.514  11.443  1.0516  0.1703 -1.0699
  929MOL0     H22605  -3.838   0.412  11.579 -2.7662 -1.4877  0.7151
  929MOL0     H22606  -3.948   0.299  11.314  1.0233 -2.4543  0.8016
  929MOL0     H22607  -3.935   0.208  11.470 -5.1467 -1.5104  0.6622
  929MOL0     H22608  -4.092   0.369  11.563 -0.1695 -0.6243 -0.3010
  929MOL0     H22609  -4.171   0.279  11.429 -1.6822  1.4423  0.5150
  929MOL0     H22610  -3.083  -0.198  11.425  0.0025 -1.4951 -0.3496
  929MOL0     H22611  -2.850  -0.259  11.361  1.9723  0.9015 -0.7562
  929MOL0     H22612  -2.474   0.024  11.177 -1.9634 -0.1768 -1.6545
  929MOL0     H22613  -2.233   0.047  11.109  1.7640 -0.4095  1.1914
  929MOL0     H22614  -0.388   0.080  10.557  0.2214  0.1155 -1.4151
  929MOL0     H22615  -0.203   0.037  10.402  1.4074 -0.3071  0.0836
  929MOL0     H22616   0.245   0.233  10.291  1.7258 -0.2672  2.3090
  929MOL0     H22617   0.425   0.207  10.123 -0.6430  0.7084 -0.9043
  929MOL0     H22618   0.547  -0.221  10.008  1.0314 -1.3948  2.4690
  929MOL0     H22619   0.642  -0.166  10.145 -1.6793  0.7699  0.7900
  929MOL0     H22620   0.706  -0.066   9.865 -0.3696 -2.2024 -0.0972
  929MOL0     H22621   0.809  -0.070  10.008 -0.6153  0.5742  0.2174
  929MOL0     H22622   0.692  -0.288   9.832 -2.0751  1.4887  0.8191
  929MOL0     H22623   0.785  -0.339   9.986  3.1996  1.9267  0.3872
  929MOL0     H22624   0.884  -0.215   9.726  0.6799 -1.2279 -0.7291
  929MOL0     H22625   0.972  -0.214   9.885  2.6660 -0.9240 -3.5058
  929MOL0     H22626   1.057  -0.599   9.753 -0.3838 -0.2574 -2.7490
  929MOL0     H22627   0.414  -0.218  10.192 -2.6415 -1.2592  0.0547
  929MOL0     H22628   0.228  -0.193  10.352  1.1198  0.1271  1.0151
  930MOL0     O22629   5.397   5.264   4.487  0.0213 -0.1118  0.3826
  930MOL0     C22630   5.452   5.347   4.559  0.1845  0.3753 -0.7522
  930MOL0     O22631   5.409   5.378   4.687  0.5020  0.1749  0.6255
  930MOL0     C22632   5.286   5.327   4.727 -0.9101  0.4174 -0.2755
  930MOL0     C22633   5.248   5.185   4.720  0.5370  0.2708  0.3515
  930MOL0     C22634   5.121   5.148   4.765  0.2211 -0.0662  0.3403
  930MOL0     C22635   5.031   5.243   4.813 -0.5727 -0.2683  0.2642
  930MOL0     O22636   4.900   5.218   4.827  0.3319  0.2285  0.3409
  930MOL0     C22637   4.852   5.077   4.826 -0.8006  0.1068 -0.5300
  930MOL0     C22638   4.704   5.053   4.826  0.1864 -0.6415 -0.0476
  930MOL0     C22639   4.679   4.908   4.876  0.1228 -0.1825  1.1004
  930MOL0     C22640   4.527   4.883   4.870  0.2829 -0.4860 -0.4784
  930MOL0     C22641   4.504   4.727   4.881 -0.4139 -0.5642 -0.0326
  930MOL0     C22642   4.349   4.700   4.878 -0.1988  0.3977 -0.1137
  930MOL0     C22643   4.332   4.549   4.893 -0.2483  0.1821 -0.0690
  930MOL0     C22644   4.189   4.502   4.879 -0.1170  0.1618 -0.3294
  930MOL0     N22645   4.184   4.353   4.894  0.2931 -0.1246  0.3516
  930MOL0     C22646   4.212   4.285   5.006 -0.1800  0.3521  0.3586
  930MOL0     C22647   4.163   4.161   4.997  0.7843 -0.2356  0.0839
  930MOL0     C22648   4.163   4.057   5.101  0.0197 -0.0549 -0.4075
  930MOL0     C22649   4.021   3.997   5.143  0.5898 -0.5999 -0.4649
  930MOL0     C22650   4.035   3.932   5.278 -0.1275 -0.1293  0.4486
  930MOL0     C22651   3.901   3.884   5.334 -0.2016  0.0238 -0.6685
  930MOL0     O22652   3.795   3.977   5.330  0.3389  0.0892 -0.0570
  930MOL0     C22653   3.661   3.950   5.350 -0.0191 -0.2113 -0.5079
  930MOL0     C22654   3.560   4.049   5.317 -0.0173 -0.0545 -0.2952
  930MOL0     C22655   3.424   4.012   5.357 -0.4038 -0.0653  1.0140
  930MOL0     C22656   3.385   3.895   5.411 -0.5960 -0.6103  0.6448
  930MOL0     C22657   3.241   3.873   5.461 -0.2589 -0.1250 -0.2675
  930MOL0     O22658   3.145   3.957   5.430 -0.0356  0.6939  0.0175
  930MOL0     C22659   3.024   3.940   5.490 -0.1872 -0.4128 -0.3336
  930MOL0     C22660   2.916   3.873   5.430 -0.6578 -0.2722  0.5373
  930MOL0     C22661   2.795   3.859   5.501 -0.4043 -0.1364  0.8994
  930MOL0     C22662   2.768   3.920   5.623  0.3034 -0.5536  0.6768
  930MOL0     O22663   2.646   3.930   5.690  0.1265 -0.1751  0.0101
  930MOL0     C22664   2.529   3.925   5.615 -0.1025  0.3615 -1.0889
  930MOL0     C22665   2.421   4.001   5.688  0.5221  0.7748  0.0051
  930MOL0     C22666   2.274   3.961   5.646 -0.0082  0.3517 -0.6229
  930MOL0     C22667   2.162   4.042   5.714 -0.1393  0.2831 -0.7925
  930MOL0     C22668   2.027   3.971   5.712 -0.4794  0.0598 -0.5588
  930MOL0     C22669   1.930   4.040   5.804  0.2005 -0.5435 -0.1961
  930MOL0     C22670   1.789   3.991   5.779 -0.1010 -0.0701  0.1243
  930MOL0     C22671   1.685   4.038   5.874 -0.1734 -0.5589 -1.2107
  930MOL0    Cl22672   1.723   3.984   6.041 -0.5073 -0.0827  0.3242
  930MOL0     C22673   2.873   3.997   5.676  0.8287 -0.6636  0.6230
  930MOL0     C22674   2.998   4.013   5.610  0.0603 -0.7294  0.3747
  930MOL0     O22675   3.227   3.774   5.532 -0.5542  0.1948 -0.6686
  930MOL0     C22676   3.484   3.806   5.438 -0.0372 -0.3574  0.0341
  930MOL0     C22677   3.620   3.832   5.415 -0.4891 -0.1609 -0.2827
  930MOL0     N22678   4.122   4.143   4.867 -0.1590  0.2830  0.3098
  930MOL0     N22679   4.140   4.260   4.802 -0.8495  0.8419 -0.5108
  930MOL0     C22680   5.066   5.376   4.827 -0.4793 -0.2452 -0.2320
  930MOL0     C22681   5.193   5.414   4.788  0.8352 -0.5011 -0.6796
  930MOL0     C22682   5.577   5.410   4.515  0.4682 -0.4816 -0.4657
  930MOL0     C22683   5.624   5.381   4.394  0.1041 -1.1724 -0.4807
  930MOL0     C22684   5.739   5.444   4.349 -0.6482 -0.7293  0.4179
  930MOL0     C22685   5.800   5.554   4.410 -0.1477 -0.5171  0.7741
  930MOL0     O22686   5.898   5.627   4.339  0.6223 -0.6378 -0.0470
  930MOL0     C22687   5.970   5.719   4.409 -0.3329 -0.8952  0.1567
  930MOL0     C22688   6.078   5.776   4.315  0.2002 -0.1283  0.2377
  930MOL0     C22689   6.147   5.891   4.386 -0.1603 -0.5444 -0.9278
  930MOL0     C22690   6.265   5.943   4.294  0.3880  0.1585  0.1986
  930MOL0     C22691   6.311   6.070   4.341 -0.1683 -0.8486  0.0747
  930MOL0     C22692   6.341   6.170   4.391  0.3215 -0.5780 -0.1954
  930MOL0     C22693   5.753   5.582   4.537  0.6132 -0.5805  0.0091
  930MOL0     C22694   5.640   5.512   4.588  0.3090 -0.1061 -0.1944
  930MOL0     H22695   5.319   5.112   4.682 -0.9612  0.2522 -2.7288
  930MOL0     H22696   5.117   5.040   4.767  2.6299 -0.2281  2.8443
  930MOL0     H22697   4.879   5.035   4.924 -1.7653  1.3978  0.3194
  930MOL0     H22698   4.888   5.021   4.739 -1.5587  3.6509 -3.3646
  930MOL0     H22699   4.658   5.067   4.728  0.3339 -1.6363 -0.2594
  930MOL0     H22700   4.664   5.121   4.902 -0.6556 -0.4414 -0.6651
  930MOL0     H22701   4.717   4.897   4.978 -2.7791  0.6983  2.3732
  930MOL0     H22702   4.730   4.838   4.808 -1.1475 -1.0153  0.9853
  930MOL0     H22703   4.486   4.936   4.956  3.0582  1.5358 -0.2958
  930MOL0     H22704   4.483   4.914   4.775  2.0092  0.7482 -0.9151
  930MOL0     H22705   4.551   4.702   4.976  1.4542  0.7448 -0.5519
  930MOL0     H22706   4.549   4.675   4.795 -0.2224  0.0017 -0.2794
  930MOL0     H22707   4.296   4.737   4.790 -0.2792 -0.6463 -0.5169
  930MOL0     H22708   4.304   4.743   4.968  3.6293 -0.4852  2.4899
  930MOL0     H22709   4.394   4.500   4.818 -1.6670  0.0169 -1.1672
  930MOL0     H22710   4.362   4.539   4.998 -1.6408  3.4083  0.7595
  930MOL0     H22711   4.154   4.531   4.780 -0.0633 -0.1906 -0.4508
  930MOL0     H22712   4.124   4.555   4.950  0.3287  0.7554 -0.3570
  930MOL0     H22713   4.251   4.327   5.099 -2.6329  0.2867  1.4879
  930MOL0     H22714   4.233   4.080   5.182  0.5826 -0.7055 -0.6955
  930MOL0     H22715   4.192   3.971   5.039 -2.0339  1.2184 -3.3955
  930MOL0     H22716   3.997   3.926   5.064  0.3375  0.9195 -1.7980
  930MOL0     H22717   3.945   4.075   5.145  3.8327  2.8605  0.9074
  930MOL0     H22718   4.103   3.847   5.266  0.0722 -0.6451  4.0594
  930MOL0     H22719   4.075   4.000   5.353  1.2603  0.6124 -0.9038
  930MOL0     H22720   3.905   3.847   5.437  0.1289  2.4292  0.2292
  930MOL0     H22721   3.850   3.801   5.282 -0.9010 -0.6844  1.0495
  930MOL0     H22722   3.584   4.140   5.262 -0.1968 -0.0888 -0.4303
  930MOL0     H22723   3.343   4.073   5.318  1.7231  1.4581 -1.2620
  930MOL0     H22724   2.939   3.824   5.336 -2.7300  0.1495 -0.2392
  930MOL0     H22725   2.710   3.796   5.478  0.6917 -1.3823  0.1143
  930MOL0     H22726   2.486   3.824   5.611  0.5140  0.1108 -1.4338
  930MOL0     H22727   2.544   3.966   5.514  3.5982  1.2874 -0.3143
  930MOL0     H22728   2.439   4.108   5.675  2.8548  0.4288 -0.1202
  930MOL0     H22729   2.435   3.983   5.795  1.9639 -1.0215 -0.4314
  930MOL0     H22730   2.272   3.856   5.678  4.1289 -0.2600 -1.7186
  930MOL0     H22731   2.270   3.973   5.537 -0.7188 -1.1006 -0.7838
  930MOL0     H22732   2.198   4.068   5.813 -1.8842  0.2134 -0.0983
  930MOL0     H22733   2.146   4.139   5.665  0.8934  0.1096 -1.5108
  930MOL0     H22734   2.047   3.870   5.749 -2.1363 -0.5307 -1.1803
  930MOL0     H22735   1.984   3.975   5.612  3.0047  2.6136 -2.1357
  930MOL0     H22736   1.934   4.149   5.797  1.2044 -0.3004  2.5880
  930MOL0     H22737   1.965   4.015   5.905 -1.9044 -0.6905  0.5494
  930MOL0     H22738   1.752   4.020   5.680  0.5326 -0.4095 -0.2156
  930MOL0     H22739   1.792   3.882   5.781 -1.6989 -0.1445 -0.1092
  930MOL0     H22740   1.592   3.984   5.851  0.3940 -2.0063 -0.2351
  930MOL0     H22741   1.669   4.147   5.875  1.1987 -0.2475 -3.9353
  930MOL0     H22742   2.854   4.062   5.762  2.3534 -0.2635  0.6798
  930MOL0     H22743   3.066   4.077   5.666 -1.8694  0.6396  1.2509
  930MOL0     H22744   3.460   3.713   5.488  1.8263 -0.3701  1.0067
  930MOL0     H22745   3.685   3.747   5.434 -2.8771 -2.1708 -0.4135
  930MOL0     H22746   5.002   5.450   4.873  0.9077  2.0769 -1.8083
  930MOL0     H22747   5.223   5.515   4.815  0.6795 -0.2287 -1.4966
  930MOL0     H22748   5.588   5.307   4.322  0.6187 -0.9599 -0.9677
  930MOL0     H22749   5.769   5.410   4.251  1.0986  0.0652  0.6427
  930MOL0     H22750   6.025   5.684   4.496 -0.1064  2.4958  1.5407
  930MOL0     H22751   5.905   5.795   4.453  0.4649 -1.1036  1.7658
  930MOL0     H22752   6.153   5.701   4.288 -1.2501 -0.7099 -2.4749
  930MOL0     H22753   6.033   5.817   4.225  0.4361  0.9541  0.6071
  930MOL0     H22754   6.197   5.859   4.477  0.3928  0.5990 -0.8091
  930MOL0     H22755   6.081   5.975   4.411  2.1562  1.1829 -0.2564
  930MOL0     H22756   6.356   5.884   4.310  1.8136  1.5539 -2.1109
  930MOL0     H22757   6.238   5.939   4.188 -1.2841 -0.8626  0.6281
  930MOL0     H22758   6.363   6.255   4.452 -0.3042 -0.9935  0.6254
  930MOL0     H22759   5.807   5.660   4.589  0.2388 -0.1441 -0.2513
  930MOL0     H22760   5.615   5.546   4.688  1.4951 -1.1660  0.4934
  931MOL0     O22761   5.712   8.347   5.669 -0.3442  0.7261 -0.7213
  931MOL0     C22762   5.765   8.381   5.775 -0.4787 -0.0755 -0.4204
  931MOL0     O22763   5.693   8.444   5.881  0.1905  0.1355  0.1770
  931MOL0     C22764   5.558   8.452   5.859  0.6825  0.0608 -0.4387
  931MOL0     C22765   5.514   8.563   5.808 -0.2675 -0.7608  0.9179
  931MOL0     C22766   5.380   8.587   5.786  0.3928 -0.5970 -0.2583
  931MOL0     C22767   5.281   8.497   5.830 -0.1406 -0.5930 -0.5217
  931MOL0     O22768   5.152   8.525   5.800 -0.4325 -0.4691 -0.0958
  931MOL0     C22769   5.068   8.410   5.762  0.1204  0.3034 -0.8891
  931MOL0     C22770   4.959   8.478   5.675  0.1810 -0.3594  0.1605
  931MOL0     C22771   4.819   8.419   5.695  0.1679  0.0349 -0.3024
  931MOL0     C22772   4.698   8.505   5.666 -0.8140  0.2853  0.3617
  931MOL0     C22773   4.568   8.420   5.688 -0.0775  1.0361 -0.7904
  931MOL0     C22774   4.451   8.469   5.613  0.8442  0.3310 -0.3842
  931MOL0     C22775   4.329   8.384   5.630 -0.7052 -1.0050  0.1513
  931MOL0     C22776   4.275   8.403   5.769  0.7296  0.0361 -0.3474
  931MOL0     N22777   4.127   8.365   5.773 -0.7541 -0.0903  0.0864
  931MOL0     C22778   4.075   8.233   5.780 -0.7274  0.0627  0.3414
  931MOL0     C22779   3.947   8.267   5.797 -0.4139  0.3251 -0.7470
  931MOL0     C22780   3.846   8.168   5.829  0.0273  0.1239 -0.5096
  931MOL0     C22781   3.717   8.192   5.747  0.4364 -0.1833 -0.0159
  931MOL0     C22782   3.612   8.082   5.767  0.9137  0.6729 -0.4197
  931MOL0     C22783   3.466   8.117   5.735 -0.9431  0.1011  0.2274
  931MOL0     O22784   3.442   8.106   5.595 -0.8069  0.1627 -0.2618
  931MOL0     C22785   3.315   8.083   5.547 -0.1002  0.8117 -1.1236
  931MOL0     C22786   3.304   8.039   5.418  0.3086  0.6402 -0.0762
  931MOL0     C22787   3.179   8.043   5.353 -0.4048 -0.0121 -0.4311
  931MOL0     C22788   3.066   8.096   5.422 -0.2211 -0.1655  0.4820
  931MOL0     C22789   2.938   8.104   5.346 -0.3129  0.2249 -0.0707
  931MOL0     O22790   2.947   8.116   5.214 -0.2388 -0.4020 -0.5059
  931MOL0     C22791   2.839   8.154   5.140  0.3411  0.4948 -0.5293
  931MOL0     C22792   2.733   8.061   5.116 -1.4973 -0.8603  0.1477
  931MOL0     C22793   2.623   8.091   5.047 -0.1644 -0.2846  0.0714
  931MOL0     C22794   2.607   8.227   5.003 -0.0211 -0.3939 -0.0956
  931MOL0     O22795   2.504   8.287   4.936  0.4769  0.0446 -0.5967
  931MOL0     C22796   2.374   8.278   5.000  0.4663 -0.5297  0.9725
  931MOL0     C22797   2.283   8.377   4.929  0.3606  0.2490 -0.2525
  931MOL0     C22798   2.142   8.380   4.998 -0.0634  0.3263 -0.5716
  931MOL0     C22799   2.044   8.463   4.916  0.2326  0.2082  0.3217
  931MOL0     C22800   1.900   8.491   4.971  0.5407 -0.0236 -0.3720
  931MOL0     C22801   1.827   8.578   4.876  0.3751 -0.5033  0.5184
  931MOL0     C22802   1.678   8.585   4.901  0.1003  0.3104 -0.0792
  931MOL0     C22803   1.604   8.463   4.883  0.4012  0.2223 -0.0014
  931MOL0    Cl22804   1.438   8.504   4.839  0.3177 -0.1014 -0.0337
  931MOL0     C22805   2.710   8.316   5.020 -1.1890  0.4008 -0.0806
  931MOL0     C22806   2.828   8.275   5.083  0.6159 -0.3661 -0.7935
  931MOL0     O22807   2.836   8.133   5.414  0.2228 -0.0365  0.3502
  931MOL0     C22808   3.075   8.137   5.558  0.6006 -0.0044 -0.2515
  931MOL0     C22809   3.203   8.122   5.623 -0.3525 -0.6626  0.8245
  931MOL0     N22810   3.923   8.401   5.769 -0.5397 -0.0337  0.5484
  931MOL0     N22811   4.037   8.459   5.748  0.1753  0.8570  0.2926
  931MOL0     C22812   5.323   8.375   5.881 -0.3712 -0.4586  0.4765
  931MOL0     C22813   5.463   8.350   5.886  0.4956  0.6929 -0.3985
  931MOL0     C22814   5.903   8.340   5.802 -0.3699  0.8322 -0.4011
  931MOL0     C22815   5.971   8.240   5.736 -0.3258 -0.5199  0.1761
  931MOL0     C22816   6.103   8.211   5.766 -0.1013 -0.2147  0.4386
  931MOL0     C22817   6.173   8.267   5.871 -0.0590  0.3567  0.3371
  931MOL0     O22818   6.306   8.249   5.897 -0.4253  1.4252  0.2001
  931MOL0     C22819   6.363   8.125   5.855  0.0802  0.1763  0.0868
  931MOL0     C22820   6.509   8.116   5.900 -0.0514 -0.8861  0.4231
  931MOL0     C22821   6.591   8.236   5.843 -0.1507  0.0060 -0.3359
  931MOL0     C22822   6.647   8.317   5.956 -0.5623  0.5858 -0.1316
  931MOL0     C22823   6.770   8.389   5.932 -0.4390  0.3572 -0.6650
  931MOL0     C22824   6.876   8.438   5.908 -0.8765 -0.3856  0.5915
  931MOL0     C22825   6.105   8.365   5.951 -1.4265 -1.1069 -0.3281
  931MOL0     C22826   5.975   8.407   5.909 -0.2471 -0.2946  0.5710
  931MOL0     H22827   5.581   8.635   5.761 -0.3212 -0.1466  1.7599
  931MOL0     H22828   5.332   8.666   5.728 -0.5221 -0.6897  0.3425
  931MOL0     H22829   5.020   8.374   5.853 -1.5676 -0.4053 -2.0130
  931MOL0     H22830   5.122   8.329   5.713  1.3516  0.3508  0.3171
  931MOL0     H22831   4.990   8.474   5.570  0.9676 -0.0124  0.3701
  931MOL0     H22832   4.947   8.581   5.708 -0.2648  0.1551 -1.4892
  931MOL0     H22833   4.816   8.399   5.802 -0.8286  1.6449  0.0038
  931MOL0     H22834   4.814   8.315   5.660  1.9780 -1.3739  3.1715
  931MOL0     H22835   4.691   8.597   5.724 -0.4224  1.8120 -1.9122
  931MOL0     H22836   4.700   8.547   5.565 -0.5897  1.5817  0.8884
  931MOL0     H22837   4.551   8.402   5.795  0.6751  0.4861 -0.7548
  931MOL0     H22838   4.595   8.317   5.663  0.8830  0.8254  0.9298
  931MOL0     H22839   4.469   8.462   5.505 -0.5253 -3.0762 -0.4959
  931MOL0     H22840   4.424   8.570   5.646  0.4487 -0.6054  2.4416
  931MOL0     H22841   4.249   8.411   5.561  0.0144  0.4108 -0.1673
  931MOL0     H22842   4.359   8.280   5.608  1.0236 -0.2797 -1.1939
  931MOL0     H22843   4.281   8.507   5.800  1.0769  0.0696 -0.5134
  931MOL0     H22844   4.318   8.342   5.849 -0.3351 -0.3239 -0.0339
  931MOL0     H22845   4.124   8.136   5.787 -2.5737 -0.8515  1.1603
  931MOL0     H22846   3.829   8.170   5.938 -2.7020 -1.1188 -0.8189
  931MOL0     H22847   3.892   8.071   5.810  2.3933  1.2439 -0.8064
  931MOL0     H22848   3.747   8.207   5.643 -3.4018 -0.9339 -1.4154
  931MOL0     H22849   3.677   8.284   5.789 -0.4766 -1.6285  2.4748
  931MOL0     H22850   3.647   7.996   5.709  2.7563  0.9746  0.1791
  931MOL0     H22851   3.608   8.054   5.873  2.8053  1.5166 -0.0839
  931MOL0     H22852   3.458   8.221   5.767 -1.9334  0.2487 -0.4754
  931MOL0     H22853   3.396   8.058   5.794 -1.2574  1.9421  1.7685
  931MOL0     H22854   3.384   8.005   5.354 -0.0931  1.0079 -0.7885
  931MOL0     H22855   3.172   8.002   5.253 -2.6112 -1.5056  0.2706
  931MOL0     H22856   2.752   7.957   5.141  1.5818 -1.0954 -2.5015
  931MOL0     H22857   2.549   8.018   5.015 -1.6965  1.8198 -1.5134
  931MOL0     H22858   2.382   8.300   5.107  2.4360 -3.3317  1.5288
  931MOL0     H22859   2.337   8.175   4.989 -0.8936  0.0455  0.0596
  931MOL0     H22860   2.276   8.338   4.827 -1.3629 -1.0117  0.2963
  931MOL0     H22861   2.335   8.473   4.930  4.3457 -1.7181  1.7107
  931MOL0     H22862   2.161   8.422   5.097 -1.0882 -1.3695  0.4151
  931MOL0     H22863   2.116   8.276   5.020 -0.3034  0.2736 -1.0765
  931MOL0     H22864   2.089   8.560   4.896 -1.1528  0.8262  0.0536
  931MOL0     H22865   2.036   8.399   4.828  0.9856 -2.1928  1.8837
  931MOL0     H22866   1.902   8.547   5.065 -0.4215 -1.1620  0.3653
  931MOL0     H22867   1.841   8.400   4.988  0.1645  0.4542  0.9945
  931MOL0     H22868   1.839   8.549   4.771 -0.2877 -1.7335  0.7683
  931MOL0     H22869   1.873   8.678   4.883  1.4122 -0.7099 -2.0644
  931MOL0     H22870   1.660   8.623   5.003 -0.3393  2.6455 -0.9670
  931MOL0     H22871   1.637   8.660   4.833 -3.1436  0.3846  1.6987
  931MOL0     H22872   1.609   8.402   4.973 -3.7164  0.4836  0.6149
  931MOL0     H22873   1.647   8.401   4.805  2.6491  1.0274  0.5129
  931MOL0     H22874   2.708   8.416   4.978  2.0403  0.5793 -0.0537
  931MOL0     H22875   2.912   8.343   5.094  0.6619 -0.1974 -2.0477
  931MOL0     H22876   2.988   8.173   5.613  0.1935 -0.9233 -0.2735
  931MOL0     H22877   3.209   8.172   5.719  0.2029 -0.2303  0.5705
  931MOL0     H22878   5.248   8.304   5.916 -2.7757  0.2440 -2.7820
  931MOL0     H22879   5.494   8.250   5.916 -2.2407 -0.0599  0.1461
  931MOL0     H22880   5.917   8.193   5.654 -1.1358  0.9159 -0.1496
  931MOL0     H22881   6.158   8.134   5.713  0.8920  2.2392 -2.4012
  931MOL0     H22882   6.360   8.116   5.746 -0.9939  0.2381  0.1007
  931MOL0     H22883   6.315   8.041   5.906  1.0801  0.8312  2.2456
  931MOL0     H22884   6.510   8.110   6.009  3.5806  2.3977  0.7943
  931MOL0     H22885   6.536   8.018   5.860  1.1367  0.5159 -2.5268
  931MOL0     H22886   6.519   8.300   5.792 -1.3550 -3.0444 -2.7694
  931MOL0     H22887   6.674   8.211   5.776 -0.3047  2.0806 -1.3713
  931MOL0     H22888   6.577   8.396   5.986 -0.1061  1.2302 -0.7319
  931MOL0     H22889   6.663   8.253   6.043 -0.0579  2.0772  0.9301
  931MOL0     H22890   6.968   8.492   5.895 -2.0944  1.0734 -3.5378
  931MOL0     H22891   6.156   8.417   6.031  2.4713 -3.5745 -0.9435
  931MOL0     H22892   5.924   8.483   5.966  0.4982  0.8473 -0.2395
  932MOL0     O22893  11.075   8.335   1.240 -0.4431  0.3603  0.3910
  932MOL0     C22894  11.163   8.369   1.161 -0.2103  0.1094  0.1085
  932MOL0     O22895  11.161   8.378   1.024 -0.5509 -0.0391 -0.1464
  932MOL0     C22896  11.027   8.375   0.986  0.4757 -0.5345 -0.2573
  932MOL0     C22897  10.941   8.267   1.002 -0.4703  0.0922 -0.3582
  932MOL0     C22898  10.811   8.270   0.943 -1.3942  0.2675  0.0164
  932MOL0     C22899  10.761   8.387   0.894 -0.5244  0.7700  0.3629
  932MOL0     O22900  10.631   8.404   0.826 -0.4049  0.3440  0.0467
  932MOL0     C22901  10.530   8.309   0.868  0.0916  0.4429 -0.2568
  932MOL0     C22902  10.404   8.376   0.930 -1.0269 -1.3533 -0.7341
  932MOL0     C22903  10.316   8.455   0.829  0.1922  0.2089  0.1323
  932MOL0     C22904  10.199   8.501   0.902  0.2640 -0.3200 -0.2169
  932MOL0     C22905  10.114   8.598   0.834 -0.0592  0.0560 -0.2844
  932MOL0     C22906  10.052   8.549   0.705  0.2098  0.8532  0.3957
  932MOL0     C22907   9.958   8.655   0.640 -0.0108  0.1939 -0.2626
  932MOL0     C22908   9.817   8.647   0.708  0.6041 -0.3566 -0.3375
  932MOL0     N22909   9.704   8.728   0.641 -0.2864  0.2086 -0.5789
  932MOL0     C22910   9.710   8.857   0.594  0.3039 -0.1317 -0.2933
  932MOL0     C22911   9.582   8.886   0.553  0.7125  0.3040 -0.4197
  932MOL0     C22912   9.546   9.014   0.491  0.1908 -0.0834  0.3691
  932MOL0     C22913   9.575   9.016   0.347 -0.3586  0.3980 -0.9676
  932MOL0     C22914   9.471   8.948   0.251  0.5078  0.0814  0.4117
  932MOL0     C22915   9.328   9.004   0.254 -0.3378 -0.2288 -0.5880
  932MOL0     O22916   9.252   8.941   0.147  0.5860  1.0376 -0.3440
  932MOL0     C22917   9.118   8.910   0.158  0.6910  0.6518 -0.2604
  932MOL0     C22918   9.071   8.820   0.062 -0.1238  0.6230  0.2629
  932MOL0     C22919   8.937   8.780   0.065  0.1910  0.0021 -0.3514
  932MOL0     C22920   8.847   8.831   0.159 -0.2474 -0.4020 -0.3971
  932MOL0     C22921   8.714   8.777   0.162 -0.2933 -0.2248 -0.6624
  932MOL0     O22922   8.633   8.810   0.270 -0.2416 -0.2808 -0.3725
  932MOL0     C22923   8.518   8.739   0.276  1.4732 -0.0406  0.0834
  932MOL0     C22924   8.396   8.808   0.280 -0.9780 -0.0678  0.0559
  932MOL0     C22925   8.273   8.746   0.282  0.5372 -0.8347 -0.0111
  932MOL0     C22926   8.267   8.612   0.313  0.4207 -0.3268  0.7746
  932MOL0     O22927   8.153   8.539   0.331  0.7298 -0.4521  0.0826
  932MOL0     C22928   8.019   8.606   0.313 -0.2552 -0.1447  0.6526
  932MOL0     C22929   7.913   8.514   0.381 -0.2687 -0.6770 -0.3356
  932MOL0     C22930   7.771   8.557   0.350 -0.7267  0.2629  0.3120
  932MOL0     C22931   7.667   8.449   0.387 -0.2247 -0.2690 -0.8028
  932MOL0     C22932   7.536   8.488   0.340  0.2042 -0.1751  0.0758
  932MOL0     C22933   7.417   8.440   0.431 -0.4585 -0.0611  0.4342
  932MOL0     C22934   7.291   8.464   0.346  0.4245 -0.7764 -0.1744
  932MOL0     C22935   7.165   8.410   0.422 -0.2762  0.3726 -0.4582
  932MOL0    Cl22936   7.148   8.495   0.581  0.0901 -0.1488  0.0206
  932MOL0     C22937   8.391   8.540   0.294  0.6497  0.4947 -0.2224
  932MOL0     C22938   8.513   8.599   0.282 -0.0413  0.3042  0.2316
  932MOL0     O22939   8.672   8.717   0.063  0.7302  0.0197  0.1771
  932MOL0     C22940   8.888   8.927   0.257  0.6163  0.3133 -0.9495
  932MOL0     C22941   9.027   8.968   0.246 -0.4536 -0.6065  0.0834
  932MOL0     N22942   9.503   8.766   0.575  0.3412 -0.4090 -1.1769
  932MOL0     N22943   9.575   8.674   0.625 -0.7796  0.2620  0.0796
  932MOL0     C22944  10.842   8.502   0.879  0.0254 -0.2904 -0.4262
  932MOL0     C22945  10.970   8.495   0.929 -0.2780 -0.7890  0.0131
  932MOL0     C22946  11.307   8.377   1.220  0.7103 -0.1217 -0.4196
  932MOL0     C22947  11.331   8.364   1.359  0.0149 -0.5841 -0.3464
  932MOL0     C22948  11.461   8.364   1.414  0.4564  0.0505 -0.3990
  932MOL0     C22949  11.570   8.382   1.334 -0.2713  0.1627 -0.4259
  932MOL0     O22950  11.696   8.360   1.397  1.6996  0.0813  0.1486
  932MOL0     C22951  11.810   8.367   1.322 -0.7160 -0.0642  0.0872
  932MOL0     C22952  11.925   8.300   1.397 -0.2707  0.3521 -0.2602
  932MOL0     C22953  11.952   8.374   1.539 -0.2844  0.3264 -0.0700
  932MOL0     C22954  12.069   8.320   1.618 -0.7422  0.0337  0.0155
  932MOL0     C22955  12.050   8.181   1.641 -0.9362  0.2608  1.0792
  932MOL0     C22956  12.040   8.061   1.662 -0.1783  0.0421 -0.0935
  932MOL0     C22957  11.549   8.422   1.196 -0.4370  0.3339  0.1204
  932MOL0     C22958  11.419   8.415   1.139  0.0070 -0.6482 -0.4395
  932MOL0     H22959  10.981   8.176   1.045  2.0778  1.9367  1.4990
  932MOL0     H22960  10.757   8.177   0.930 -1.2051  0.3041 -1.0796
  932MOL0     H22961  10.573   8.248   0.947  1.2307  1.9563  0.3284
  932MOL0     H22962  10.508   8.256   0.775 -0.0218  0.6721 -0.3636
  932MOL0     H22963  10.440   8.446   1.006 -0.5441 -0.2944 -1.8983
  932MOL0     H22964  10.349   8.294   0.977 -1.2789  0.0678  1.5606
  932MOL0     H22965  10.297   8.392   0.742 -0.9891  0.8286 -0.0723
  932MOL0     H22966  10.380   8.534   0.789  3.1171  0.0317  3.9205
  932MOL0     H22967  10.140   8.412   0.924  2.4782 -2.0203 -0.7898
  932MOL0     H22968  10.223   8.542   1.000 -2.8355  0.5368  0.3093
  932MOL0     H22969  10.162   8.696   0.833 -2.1825  1.1633 -0.0153
  932MOL0     H22970  10.029   8.618   0.899  1.3915  0.4344  1.5710
  932MOL0     H22971  10.013   8.447   0.717  0.6250  0.2371 -2.7691
  932MOL0     H22972  10.134   8.533   0.635 -0.1743 -1.4130  0.3837
  932MOL0     H22973  10.000   8.755   0.652  1.2493 -0.4718  1.3947
  932MOL0     H22974   9.954   8.628   0.534  0.1634 -1.5024  0.1243
  932MOL0     H22975   9.835   8.690   0.807  0.7811  2.7595 -1.6028
  932MOL0     H22976   9.778   8.545   0.716  0.4755 -0.1995  1.4187
  932MOL0     H22977   9.791   8.929   0.600  1.4076 -1.4312  1.3919
  932MOL0     H22978   9.604   9.093   0.541  2.5291 -2.9146  2.4761
  932MOL0     H22979   9.443   9.037   0.517  0.0563  1.1520 -1.0767
  932MOL0     H22980   9.653   8.942   0.327 -3.1924 -2.9537 -0.6187
  932MOL0     H22981   9.594   9.121   0.322 -1.4410  0.6599 -0.7685
  932MOL0     H22982   9.515   8.952   0.151 -1.1242 -1.4516 -0.4374
  932MOL0     H22983   9.465   8.841   0.270  1.2245 -0.0068  0.1575
  932MOL0     H22984   9.325   9.113   0.243 -2.1798 -0.2585 -0.8229
  932MOL0     H22985   9.283   8.996   0.354  0.5761 -0.4833 -0.1956
  932MOL0     H22986   9.150   8.786  -0.005  2.1242  1.8956  2.1434
  932MOL0     H22987   8.914   8.700  -0.004 -0.2991  1.6687 -2.2118
  932MOL0     H22988   8.403   8.917   0.282  0.2295 -0.0963 -1.0899
  932MOL0     H22989   8.187   8.812   0.291  0.7986 -0.7006  2.0570
  932MOL0     H22990   7.994   8.628   0.209 -1.2884  1.0624  1.1402
  932MOL0     H22991   8.022   8.700   0.369  0.5068 -0.9210  1.9616
  932MOL0     H22992   7.931   8.521   0.489 -4.3252  3.9979  0.3499
  932MOL0     H22993   7.948   8.417   0.343 -0.9612 -1.2065  0.3440
  932MOL0     H22994   7.757   8.588   0.247  1.2334  1.5374  0.3828
  932MOL0     H22995   7.751   8.646   0.410 -0.7983  2.0123 -2.1916
  932MOL0     H22996   7.691   8.352   0.344  2.3587  1.1424 -2.8749
  932MOL0     H22997   7.669   8.438   0.496  0.0715 -0.2044 -0.7990
  932MOL0     H22998   7.530   8.442   0.241  1.0788  0.0742 -0.1018
  932MOL0     H22999   7.524   8.597   0.330  0.7280 -0.0909  0.3441
  932MOL0     H23000   7.416   8.499   0.523  0.0158 -1.0861  1.1061
  932MOL0     H23001   7.428   8.336   0.463 -2.8960 -0.4032  0.3555
  932MOL0     H23002   7.271   8.572   0.342  1.7403 -0.4578  0.8676
  932MOL0     H23003   7.297   8.427   0.244  0.7653 -1.0353 -0.0597
  932MOL0     H23004   7.181   8.303   0.433  3.2998  0.5441 -2.4039
  932MOL0     H23005   7.073   8.411   0.363 -1.4751  0.7818  1.3259
  932MOL0     H23006   8.389   8.434   0.316  0.5631  0.5326 -0.0494
  932MOL0     H23007   8.604   8.540   0.287 -1.2665 -1.5964  2.1193
  932MOL0     H23008   8.815   8.973   0.324 -0.1341 -1.4224 -0.5286
  932MOL0     H23009   9.059   9.050   0.309  0.7729 -0.9860 -0.0349
  932MOL0     H23010  10.796   8.592   0.841 -0.7569 -1.7636 -3.2452
  932MOL0     H23011  11.035   8.582   0.934 -0.6184 -0.5514  0.4459
  932MOL0     H23012  11.240   8.350   1.416 -1.2715  1.2240 -1.8151
  932MOL0     H23013  11.467   8.364   1.523  2.3493 -1.3580 -0.4418
  932MOL0     H23014  11.839   8.470   1.296  1.4368 -0.8500 -0.8293
  932MOL0     H23015  11.799   8.310   1.229  5.7332 -1.8890 -0.0441
  932MOL0     H23016  11.895   8.197   1.421 -0.6100 -0.3996 -3.4486
  932MOL0     H23017  12.016   8.315   1.340  0.3014 -0.1756  0.4905
  932MOL0     H23018  11.858   8.377   1.594 -1.3731 -0.6360 -1.7969
  932MOL0     H23019  11.979   8.474   1.503 -1.3097  0.2922 -0.9840
  932MOL0     H23020  12.164   8.328   1.565 -0.2000  0.7099  1.0593
  932MOL0     H23021  12.089   8.366   1.716 -1.7638 -2.7539  1.6417
  932MOL0     H23022  12.029   7.956   1.679 -1.5830 -0.1146 -1.7833
  932MOL0     H23023  11.631   8.445   1.129  1.4479  2.6157  2.9464
  932MOL0     H23024  11.404   8.433   1.033  1.0747  0.8222 -0.3779
  933MOL0     O23025   1.497   1.083   6.478  0.0074 -0.8068  0.2079
  933MOL0     C23026   1.621   1.087   6.482  0.6726  0.1130 -0.3388
  933MOL0     O23027   1.692   1.195   6.508 -0.3071  0.2837 -0.2998
  933MOL0     C23028   1.626   1.314   6.531  0.4613  0.6803  0.4626
  933MOL0     C23029   1.636   1.378   6.649 -0.0558 -0.5824  0.4330
  933MOL0     C23030   1.569   1.490   6.690 -0.2667 -0.2356  0.4714
  933MOL0     C23031   1.477   1.551   6.597 -0.3804  0.2519  0.7238
  933MOL0     O23032   1.407   1.666   6.619  0.5202  0.6202 -0.2845
  933MOL0     C23033   1.349   1.670   6.748  0.2701 -0.0398  0.2556
  933MOL0     C23034   1.233   1.578   6.782 -0.4498 -0.1444 -0.5319
  933MOL0     C23035   1.127   1.583   6.681  0.9476  0.3264  0.4927
  933MOL0     C23036   1.009   1.505   6.735 -0.0547 -0.0264  0.3218
  933MOL0     C23037   0.906   1.501   6.628  0.9687 -0.0896  0.0586
  933MOL0     C23038   0.801   1.393   6.649 -0.9694 -0.1872 -0.3607
  933MOL0     C23039   0.751   1.331   6.524 -0.0525  0.2766  0.8429
  933MOL0     C23040   0.680   1.198   6.562 -0.1898  0.3346  0.1101
  933MOL0     N23041   0.556   1.229   6.647 -0.7090  0.0608 -0.3892
  933MOL0     C23042   0.446   1.301   6.605 -0.6992  0.2541  0.2267
  933MOL0     C23043   0.383   1.342   6.715 -0.3241 -0.0004 -0.0017
  933MOL0     C23044   0.250   1.413   6.731 -0.9107 -1.0144  0.0849
  933MOL0     C23045   0.137   1.329   6.651 -0.2842 -0.0132 -0.1142
  933MOL0     C23046   0.100   1.211   6.740  0.2640  0.0299  0.7576
  933MOL0     C23047   0.009   1.119   6.662  0.5542 -0.4512  0.9926
  933MOL0     O23048  -0.034   1.021   6.758 -0.2234  0.0238  0.7153
  933MOL0     C23049  -0.146   0.944   6.722  0.7001 -0.5175  0.0760
  933MOL0     C23050  -0.279   0.990   6.709  1.2739 -0.4701  1.0851
  933MOL0     C23051  -0.385   0.900   6.678 -0.7709  0.7666 -0.0777
  933MOL0     C23052  -0.361   0.764   6.650 -1.0086  0.1783 -1.2971
  933MOL0     C23053  -0.463   0.677   6.603  0.1794  0.1375 -0.2621
  933MOL0     O23054  -0.446   0.537   6.612  0.7113  0.1974 -1.0373
  933MOL0     C23055  -0.540   0.462   6.544  0.3268  0.0816  0.2044
  933MOL0     C23056  -0.569   0.482   6.411  0.0833  0.3754  0.1331
  933MOL0     C23057  -0.664   0.401   6.352  0.7650  0.2017 -0.2038
  933MOL0     C23058  -0.739   0.301   6.422 -0.1326  0.3168  0.4606
  933MOL0     O23059  -0.842   0.235   6.372  0.3975  0.0518 -0.1042
  933MOL0     C23060  -0.857   0.230   6.227  0.0109 -0.0825 -0.4670
  933MOL0     C23061  -0.957   0.115   6.195 -0.3430  0.0574 -0.1484
  933MOL0     C23062  -0.893  -0.023   6.218  0.0734  0.1105 -0.1181
  933MOL0     C23063  -0.981  -0.136   6.175 -0.3723 -0.2748  0.5733
  933MOL0     C23064  -0.974  -0.164   6.018  0.0330 -0.2152 -0.4381
  933MOL0     C23065  -1.082  -0.263   5.987 -0.0633 -0.5331 -0.2576
  933MOL0     C23066  -1.071  -0.325   5.844 -0.0116 -0.1611 -1.0852
  933MOL0     C23067  -0.934  -0.392   5.820  0.0927 -0.2722  0.0414
  933MOL0    Cl23068  -0.934  -0.508   5.670 -0.3037  0.2168 -0.1573
  933MOL0     C23069  -0.705   0.292   6.554  0.8868 -0.1775  0.2690
  933MOL0     C23070  -0.610   0.371   6.619 -1.2129  0.8961  0.0064
  933MOL0     O23071  -0.555   0.734   6.542  0.1297 -0.0285 -0.0158
  933MOL0     C23072  -0.227   0.718   6.658 -0.3732 -0.5155 -1.1224
  933MOL0     C23073  -0.122   0.809   6.699  0.4055 -0.0652  0.2026
  933MOL0     N23074   0.455   1.294   6.823  0.4845 -0.0026 -0.2624
  933MOL0     N23075   0.561   1.225   6.785 -0.0388  0.0195  0.6777
  933MOL0     C23076   1.471   1.498   6.466 -0.7013 -0.2146 -0.4067
  933MOL0     C23077   1.545   1.380   6.439  0.3297 -0.2639  0.1850
  933MOL0     C23078   1.683   0.965   6.431  0.2222  0.5201 -0.4278
  933MOL0     C23079   1.797   0.978   6.359 -0.3481 -0.5186 -0.8747
  933MOL0     C23080   1.884   0.865   6.335  1.5988 -0.0813  1.2875
  933MOL0     C23081   1.833   0.734   6.363  0.3824  0.1163 -0.3982
  933MOL0     O23082   1.890   0.612   6.334 -0.3202  0.0443 -0.5311
  933MOL0     C23083   2.024   0.612   6.286 -0.1222  0.2797 -0.9080
  933MOL0     C23084   2.061   0.461   6.285 -0.4165  0.5825 -0.3611
  933MOL0     C23085   2.215   0.435   6.250 -0.3473 -0.2584 -0.1017
  933MOL0     C23086   2.230   0.443   6.101 -0.0357 -0.6837  0.3676
  933MOL0     C23087   2.361   0.383   6.065 -0.0880 -0.2330  0.1109
  933MOL0     C23088   2.468   0.329   6.047 -0.7033 -0.1163  0.0952
  933MOL0     C23089   1.704   0.721   6.424  0.0900 -0.1904 -0.4899
  933MOL0     C23090   1.630   0.833   6.445 -0.7033  0.3332 -0.6141
  933MOL0     H23091   1.713   1.344   6.718 -0.3617  0.5305  1.3561
  933MOL0     H23092   1.581   1.530   6.790  1.3250 -0.1001  0.2525
  933MOL0     H23093   1.299   1.766   6.761  1.2404  0.5352 -0.1578
  933MOL0     H23094   1.422   1.669   6.830 -3.2130 -0.6597  3.6884
  933MOL0     H23095   1.199   1.614   6.880  3.2769  0.7124  0.5895
  933MOL0     H23096   1.272   1.478   6.798  1.0303  0.3025 -1.2169
  933MOL0     H23097   1.160   1.547   6.583  1.8348  1.6612  0.2861
  933MOL0     H23098   1.107   1.688   6.657 -0.1501  0.0312  0.0308
  933MOL0     H23099   1.042   1.402   6.750 -1.2364 -0.3029  1.1298
  933MOL0     H23100   0.966   1.546   6.827  0.0703  1.5538 -0.2830
  933MOL0     H23101   0.954   1.477   6.532  1.7727 -2.3896  0.9694
  933MOL0     H23102   0.860   1.601   6.630 -1.1024 -0.9805  2.1420
  933MOL0     H23103   0.716   1.427   6.709 -2.5627 -3.5054 -0.4847
  933MOL0     H23104   0.844   1.320   6.718 -1.5374  1.2846  1.6561
  933MOL0     H23105   0.690   1.407   6.473 -0.2041 -0.9627 -0.9225
  933MOL0     H23106   0.836   1.295   6.465 -0.6997  1.6185 -1.0299
  933MOL0     H23107   0.755   1.142   6.618 -0.9881 -0.7877  0.0886
  933MOL0     H23108   0.650   1.142   6.473  2.4354  2.6450 -2.4395
  933MOL0     H23109   0.409   1.318   6.504  1.0243  1.2031 -0.2822
  933MOL0     H23110   0.264   1.505   6.672 -2.4766 -0.1233  1.0322
  933MOL0     H23111   0.221   1.447   6.831  0.0309  0.8082 -0.1981
  933MOL0     H23112   0.176   1.308   6.551  3.0973  5.8112 -0.4350
  933MOL0     H23113   0.039   1.374   6.632  0.5590  0.9777 -2.4778
  933MOL0     H23114   0.192   1.158   6.768  1.4693  1.8364  0.4336
  933MOL0     H23115   0.048   1.249   6.827  1.6183  3.0223  0.3803
  933MOL0     H23116   0.055   1.075   6.573 -1.0776 -1.9942  0.8588
  933MOL0     H23117  -0.070   1.185   6.625  1.2280  0.0252  0.3613
  933MOL0     H23118  -0.314   1.092   6.720  0.7626 -0.6217  0.8991
  933MOL0     H23119  -0.488   0.932   6.667 -1.6728 -2.2192 -1.5326
  933MOL0     H23120  -0.525   0.562   6.352 -0.4567 -1.0180 -2.2958
  933MOL0     H23121  -0.686   0.427   6.250  3.0064  1.3108 -0.4681
  933MOL0     H23122  -0.766   0.200   6.173 -1.0019 -0.4784 -2.0483
  933MOL0     H23123  -0.891   0.327   6.190  0.5005 -0.6947 -2.6704
  933MOL0     H23124  -0.989   0.127   6.091  0.0262  2.2765 -0.0538
  933MOL0     H23125  -1.050   0.120   6.251  0.3391  0.7599  0.9471
  933MOL0     H23126  -0.880  -0.039   6.325  0.7940  1.2032 -0.0305
  933MOL0     H23127  -0.800  -0.020   6.161 -1.5751  1.7446 -2.9333
  933MOL0     H23128  -0.959  -0.227   6.231 -3.6744 -2.7656 -1.7384
  933MOL0     H23129  -1.086  -0.121   6.203 -0.2593  0.6323  0.5179
  933MOL0     H23130  -0.879  -0.208   5.986 -1.3607 -4.0059  0.0570
  933MOL0     H23131  -0.992  -0.070   5.966  0.5097  0.6259  0.8591
  933MOL0     H23132  -1.180  -0.216   5.999 -0.0347  0.0714 -2.0446
  933MOL0     H23133  -1.092  -0.345   6.059 -2.0340 -0.5611 -0.4887
  933MOL0     H23134  -1.148  -0.402   5.831 -1.5556  1.3286 -1.0865
  933MOL0     H23135  -1.088  -0.246   5.770  0.0211 -0.7426 -1.7180
  933MOL0     H23136  -0.899  -0.445   5.909 -0.6056 -0.6995  0.0673
  933MOL0     H23137  -0.872  -0.307   5.789  0.7753 -0.6033  0.4574
  933MOL0     H23138  -0.771   0.226   6.609  0.5951 -2.3792 -2.5013
  933MOL0     H23139  -0.590   0.374   6.726  0.4297  1.8949 -0.2891
  933MOL0     H23140  -0.198   0.616   6.637  1.2115 -0.2170 -0.5116
  933MOL0     H23141  -0.022   0.770   6.713 -0.0938 -1.0200  1.2827
  933MOL0     H23142   1.403   1.540   6.393  0.2076 -1.9869 -2.3863
  933MOL0     H23143   1.530   1.324   6.347  3.9819  0.4498 -0.9946
  933MOL0     H23144   1.825   1.080   6.332  0.0461 -0.4930 -0.3827
  933MOL0     H23145   1.980   0.870   6.283  1.5817 -0.6462  1.1982
  933MOL0     H23146   2.097   0.655   6.356 -2.3920  0.3023  1.6302
  933MOL0     H23147   2.029   0.663   6.190 -0.2574  2.0540 -0.0119
  933MOL0     H23148   2.046   0.417   6.384 -0.1778  1.1592 -0.0659
  933MOL0     H23149   1.995   0.410   6.214  0.9018 -0.9839 -0.5250
  933MOL0     H23150   2.236   0.334   6.286 -1.5020 -0.0144  1.3481
  933MOL0     H23151   2.283   0.496   6.309  0.1483 -1.6241  0.7819
  933MOL0     H23152   2.148   0.386   6.056 -0.4843 -3.8393  4.5429
  933MOL0     H23153   2.234   0.550   6.075 -0.2508 -0.6812  0.3383
  933MOL0     H23154   2.559   0.278   6.022  0.4710  0.4285  2.9708
  933MOL0     H23155   1.660   0.630   6.464  0.2592  1.0023  2.6662
  933MOL0     H23156   1.539   0.818   6.503 -1.7733  0.9267 -2.0904
  934MOL0     O23157   0.239   3.144   8.688 -0.3622 -0.0378  0.0147
  934MOL0     C23158   0.267   3.241   8.617  0.6390 -0.8513  0.2672
  934MOL0     O23159   0.187   3.300   8.525  0.1632  0.0743  0.1640
  934MOL0     C23160   0.054   3.257   8.529  0.0164  0.1251  0.1175
  934MOL0     C23161   0.014   3.176   8.423  0.3462 -0.1313 -0.4707
  934MOL0     C23162  -0.115   3.132   8.401  0.1636 -0.5194 -0.0360
  934MOL0     C23163  -0.219   3.174   8.488 -0.1363  0.2658 -0.3135
  934MOL0     O23164  -0.349   3.127   8.456 -0.3994 -0.4491 -0.0971
  934MOL0     C23165  -0.464   3.183   8.517 -0.1597  0.1762  0.1439
  934MOL0     C23166  -0.508   3.298   8.432  0.3877 -0.0874  0.4375
  934MOL0     C23167  -0.654   3.335   8.467  1.1964  0.1806  0.3070
  934MOL0     C23168  -0.696   3.480   8.426  0.3706  0.7483  0.3971
  934MOL0     C23169  -0.723   3.496   8.269 -0.7827 -0.0688  0.5729
  934MOL0     C23170  -0.791   3.626   8.239 -0.0061  0.5991 -0.5908
  934MOL0     C23171  -0.704   3.756   8.270 -0.3203  0.4475 -0.7905
  934MOL0     C23172  -0.581   3.754   8.176  0.5923  0.2211  0.9777
  934MOL0     N23173  -0.447   3.748   8.241  0.4312  0.5601 -0.3076
  934MOL0     C23174  -0.353   3.647   8.237  0.7165  0.0691 -0.3666
  934MOL0     C23175  -0.264   3.672   8.337 -0.4192  0.3907 -0.6970
  934MOL0     C23176  -0.147   3.590   8.380 -0.2365 -0.0676 -0.0544
  934MOL0     C23177  -0.017   3.653   8.393 -0.1575  0.8120  0.1710
  934MOL0     C23178   0.071   3.627   8.268  0.3551 -0.3201 -0.0579
  934MOL0     C23179   0.218   3.664   8.289  0.3365 -0.6370 -0.1498
  934MOL0     O23180   0.234   3.804   8.234  0.1847 -0.3968  0.0809
  934MOL0     C23181   0.361   3.864   8.260 -0.1172 -0.1327  0.7157
  934MOL0     C23182   0.484   3.801   8.297  0.2010  0.5386 -0.3712
  934MOL0     C23183   0.595   3.876   8.310 -0.5344 -0.7223  0.2767
  934MOL0     C23184   0.598   4.015   8.291 -0.0898 -0.8200 -0.2076
  934MOL0     C23185   0.721   4.101   8.300 -0.2804  0.4880  0.7542
  934MOL0     O23186   0.716   4.237   8.330  0.8595 -0.0174  0.4418
  934MOL0     C23187   0.829   4.317   8.314  1.0686  0.4708  0.7220
  934MOL0     C23188   0.837   4.402   8.209  0.5480  0.7248  0.0194
  934MOL0     C23189   0.945   4.483   8.188  0.0830 -0.5357  0.8530
  934MOL0     C23190   1.035   4.503   8.289 -0.7832 -0.5441 -0.1571
  934MOL0     O23191   1.130   4.605   8.284  0.1769 -0.0870 -0.3850
  934MOL0     C23192   1.235   4.634   8.378  0.6724  0.1077 -0.1124
  934MOL0     C23193   1.320   4.752   8.319 -0.3930 -0.0807 -0.6492
  934MOL0     C23194   1.429   4.792   8.418 -0.3946 -0.3818  0.0464
  934MOL0     C23195   1.531   4.878   8.348  0.1928  0.9562 -0.4476
  934MOL0     C23196   1.484   5.018   8.354 -0.2431  0.3191  0.0597
  934MOL0     C23197   1.594   5.107   8.279  0.5848  0.5420 -0.3504
  934MOL0     C23198   1.597   5.082   8.126  0.3595 -1.0818  0.5501
  934MOL0     C23199   1.678   5.180   8.042 -0.4763  0.9289  0.0796
  934MOL0    Cl23200   1.630   5.347   8.088 -0.0032 -0.2289 -0.3243
  934MOL0     C23201   1.018   4.422   8.400 -0.5462 -0.0337 -0.5543
  934MOL0     C23202   0.925   4.326   8.415 -0.3577 -0.2104  0.6659
  934MOL0     O23203   0.826   4.048   8.260 -0.3140 -0.3644 -0.4557
  934MOL0     C23204   0.479   4.077   8.250 -0.2706 -0.6500 -0.4912
  934MOL0     C23205   0.365   3.998   8.241  0.2380 -0.1238  0.9080
  934MOL0     N23206  -0.297   3.791   8.389  0.2136  0.2927  0.6228
  934MOL0     N23207  -0.412   3.835   8.342 -0.5008  0.0049  0.1036
  934MOL0     C23208  -0.185   3.270   8.592 -0.9844  0.5652  0.3460
  934MOL0     C23209  -0.050   3.302   8.612 -0.0248 -1.1914  1.1245
  934MOL0     C23210   0.399   3.307   8.648 -0.2002  0.1104  1.1812
  934MOL0     C23211   0.454   3.407   8.565  0.2553  0.1450 -0.2585
  934MOL0     C23212   0.574   3.467   8.590  0.2563  0.3910 -0.7703
  934MOL0     C23213   0.659   3.409   8.689 -0.4397  0.0788 -0.5420
  934MOL0     O23214   0.788   3.461   8.695  0.1164  0.0584 -0.2089
  934MOL0     C23215   0.882   3.431   8.808 -0.9629 -0.7518  0.1345
  934MOL0     C23216   0.998   3.529   8.827  0.1599 -0.1400 -0.4839
  934MOL0     C23217   0.953   3.679   8.822 -0.2233 -0.0621 -0.0673
  934MOL0     C23218   1.057   3.774   8.882  0.5157 -0.2213 -0.4041
  934MOL0     C23219   1.183   3.774   8.817 -0.0985 -0.1360  0.7375
  934MOL0     C23220   1.280   3.778   8.741 -1.2075 -0.1254  0.3360
  934MOL0     C23221   0.612   3.304   8.770  0.4141 -1.1454 -0.4315
  934MOL0     C23222   0.481   3.266   8.755  0.0255 -0.2848  0.8656
  934MOL0     H23223   0.088   3.143   8.352  2.0422 -2.0130  1.9808
  934MOL0     H23224  -0.136   3.087   8.305  0.6566  2.0238 -1.4221
  934MOL0     H23225  -0.467   3.215   8.621 -2.3797 -0.0082  0.1841
  934MOL0     H23226  -0.540   3.105   8.508  0.5460 -0.2451 -3.7995
  934MOL0     H23227  -0.506   3.274   8.326  0.2087  1.6076  0.0268
  934MOL0     H23228  -0.440   3.380   8.456 -0.1313  0.3036  0.5814
  934MOL0     H23229  -0.663   3.333   8.576 -1.4591  1.2828  0.1770
  934MOL0     H23230  -0.734   3.271   8.429  0.5214  1.3635 -0.3198
  934MOL0     H23231  -0.793   3.495   8.475 -0.8990 -3.1573 -0.5408
  934MOL0     H23232  -0.612   3.544   8.454  0.0799  0.9297  0.8568
  934MOL0     H23233  -0.781   3.413   8.228 -1.4213  0.5352  0.2325
  934MOL0     H23234  -0.624   3.492   8.222 -1.0095 -2.4485  0.1441
  934MOL0     H23235  -0.878   3.633   8.306 -0.7800  2.5511 -1.7003
  934MOL0     H23236  -0.839   3.627   8.141 -1.9072 -0.6220  0.2366
  934MOL0     H23237  -0.763   3.842   8.236 -1.8543 -0.5639 -0.7975
  934MOL0     H23238  -0.685   3.759   8.377 -1.0493  1.0962 -0.6727
  934MOL0     H23239  -0.590   3.855   8.133  2.1557  0.0667  0.2295
  934MOL0     H23240  -0.594   3.690   8.089 -2.4050  2.0642 -0.0833
  934MOL0     H23241  -0.368   3.552   8.186 -2.2489 -0.0312  0.4760
  934MOL0     H23242  -0.146   3.488   8.341 -0.8455 -0.1163  0.0376
  934MOL0     H23243  -0.174   3.581   8.486  1.8005  1.5431  0.6734
  934MOL0     H23244   0.037   3.599   8.472 -0.7985 -0.2530 -0.0988
  934MOL0     H23245  -0.019   3.758   8.422  1.5533  0.5060  1.5436
  934MOL0     H23246   0.056   3.519   8.256  2.8691 -0.6926 -0.3833
  934MOL0     H23247   0.042   3.681   8.177 -1.3805  0.0510  0.6792
  934MOL0     H23248   0.282   3.590   8.239  0.8951 -2.1552  2.6160
  934MOL0     H23249   0.248   3.655   8.394  0.8927  0.0696 -0.2424
  934MOL0     H23250   0.485   3.693   8.310 -3.8200  0.3358 -0.7012
  934MOL0     H23251   0.688   3.825   8.331  0.5036  1.2308  0.6177
  934MOL0     H23252   0.752   4.416   8.143 -0.7639  1.1818  1.7502
  934MOL0     H23253   0.942   4.530   8.091  2.1199 -1.3295  0.3671
  934MOL0     H23254   1.291   4.542   8.397 -2.6604 -2.0946 -0.1224
  934MOL0     H23255   1.197   4.655   8.478 -0.8397 -3.3157  0.1742
  934MOL0     H23256   1.259   4.832   8.277  0.7736  0.6165 -1.0665
  934MOL0     H23257   1.380   4.713   8.236  1.4227 -0.9827  0.9941
  934MOL0     H23258   1.477   4.700   8.454  3.0965  0.2991 -2.4005
  934MOL0     H23259   1.392   4.835   8.512 -1.4764 -3.3914  1.1443
  934MOL0     H23260   1.624   4.868   8.405 -0.1051 -1.6028 -0.2843
  934MOL0     H23261   1.531   4.843   8.245 -1.0467 -0.0877 -0.1291
  934MOL0     H23262   1.471   5.043   8.460  0.3631 -0.2668  0.2723
  934MOL0     H23263   1.385   5.032   8.309 -1.3239 -2.9721  1.1058
  934MOL0     H23264   1.693   5.086   8.320  0.5367  2.5408  0.9274
  934MOL0     H23265   1.572   5.213   8.294 -1.2318  0.5103 -2.3224
  934MOL0     H23266   1.634   4.982   8.102  2.1199 -0.7772  1.7758
  934MOL0     H23267   1.492   5.089   8.095  1.1368  0.7050 -1.9848
  934MOL0     H23268   1.656   5.169   7.935 -1.0207 -0.7713  0.3372
  934MOL0     H23269   1.783   5.165   8.066 -0.7434  1.4522  1.6842
  934MOL0     H23270   1.080   4.437   8.488 -1.1359  2.9624 -0.5566
  934MOL0     H23271   0.912   4.259   8.499  1.3930 -1.7721 -0.2333
  934MOL0     H23272   0.477   4.184   8.239  0.5645 -0.3541  1.7015
  934MOL0     H23273   0.281   4.049   8.195  2.5774  1.0832 -2.3575
  934MOL0     H23274  -0.259   3.307   8.662 -2.4992 -3.2045  1.0126
  934MOL0     H23275  -0.021   3.364   8.696 -0.4204 -0.7352  0.9339
  934MOL0     H23276   0.404   3.452   8.480  0.1822  3.6157  1.4513
  934MOL0     H23277   0.600   3.552   8.527 -1.0127  0.6408 -0.9885
  934MOL0     H23278   0.935   3.336   8.798 -0.3184 -0.1789 -2.6060
  934MOL0     H23279   0.814   3.435   8.894 -0.8016  0.9423  0.2189
  934MOL0     H23280   1.039   3.518   8.927 -3.0807  0.1160  1.0133
  934MOL0     H23281   1.081   3.499   8.763  0.4675 -1.2491  0.4136
  934MOL0     H23282   0.857   3.701   8.869  0.0109 -0.7611  0.7872
  934MOL0     H23283   0.936   3.701   8.717  0.7261  2.5133  0.2414
  934MOL0     H23284   1.026   3.878   8.883  1.0726 -0.0141 -1.8119
  934MOL0     H23285   1.073   3.743   8.986 -0.2918 -1.0784 -0.5168
  934MOL0     H23286   1.361   3.794   8.672 -1.1337  3.1303  1.0108
  934MOL0     H23287   0.662   3.258   8.855 -1.6247 -0.0535  1.4822
  934MOL0     H23288   0.434   3.190   8.817 -1.4209 -1.6169 -1.7147
  935MOL0     O23289   1.798   1.658   1.564 -0.0801  0.2680  0.6613
  935MOL0     C23290   1.835   1.555   1.617 -1.1602 -0.0957  0.8076
  935MOL0     O23291   1.763   1.477   1.699  0.1558 -0.2957 -0.7113
  935MOL0     C23292   1.635   1.508   1.728  0.4424 -0.7945  0.6096
  935MOL0     C23293   1.520   1.432   1.685  0.4503  0.3259 -0.5455
  935MOL0     C23294   1.394   1.455   1.751 -0.0581 -0.4524 -0.0428
  935MOL0     C23295   1.375   1.569   1.833 -0.6017 -1.2478  0.5520
  935MOL0     O23296   1.254   1.626   1.862 -0.7060  0.4786 -0.1116
  935MOL0     C23297   1.134   1.579   1.800  0.0284  0.6573  0.2205
  935MOL0     C23298   1.023   1.681   1.847  0.3232  0.3194  1.0469
  935MOL0     C23299   1.016   1.796   1.753  0.4931  0.2477 -0.1945
  935MOL0     C23300   0.958   1.919   1.822 -0.1312  0.6894 -0.7752
  935MOL0     C23301   0.955   2.038   1.731 -0.2659  0.4570 -0.5753
  935MOL0     C23302   0.830   2.127   1.759 -0.2879 -0.3772 -0.4017
  935MOL0     C23303   0.843   2.261   1.682  0.9350 -0.0387  0.0047
  935MOL0     C23304   0.715   2.344   1.699 -0.3660 -0.9532  0.3487
  935MOL0     N23305   0.716   2.429   1.815  0.6550  1.0102 -1.1492
  935MOL0     C23306   0.712   2.561   1.823  0.5086  0.3076  0.1874
  935MOL0     C23307   0.703   2.605   1.955 -0.4537 -0.3350 -0.3358
  935MOL0     C23308   0.688   2.739   2.019 -0.7827 -0.3289  1.0854
  935MOL0     C23309   0.532   2.763   2.008 -0.9232 -0.4699 -1.2102
  935MOL0     C23310   0.434   2.659   2.062 -0.7349 -0.1569  0.2763
  935MOL0     C23311   0.289   2.705   2.080  1.3797 -0.7809 -0.4643
  935MOL0     O23312   0.263   2.786   2.204 -0.0641  0.0422 -0.0090
  935MOL0     C23313   0.146   2.849   2.217  0.2203 -0.4867 -0.1960
  935MOL0     C23314   0.139   2.982   2.262 -0.6406  0.5965  0.0660
  935MOL0     C23315   0.030   3.064   2.273 -0.8010  0.0084  0.4832
  935MOL0     C23316  -0.094   2.997   2.249 -0.3485 -0.0176  0.2881
  935MOL0     C23317  -0.218   3.072   2.271 -0.7183  0.3300 -0.9889
  935MOL0     O23318  -0.330   3.009   2.233  0.0145  0.1898 -0.0320
  935MOL0     C23319  -0.437   3.093   2.229  0.1613  0.8201  0.8225
  935MOL0     C23320  -0.452   3.178   2.109  0.5315 -0.1834  0.3972
  935MOL0     C23321  -0.566   3.260   2.099  0.1260 -0.3505 -0.9527
  935MOL0     C23322  -0.656   3.265   2.199  1.3982  0.3000  0.6960
  935MOL0     O23323  -0.770   3.348   2.193  0.5193 -0.0165 -0.1278
  935MOL0     C23324  -0.785   3.447   2.098  0.3078  0.2991  0.0405
  935MOL0     C23325  -0.875   3.403   1.988  0.9241  0.6326 -0.1403
  935MOL0     C23326  -1.026   3.406   2.029  0.5105 -0.1949  0.1762
  935MOL0     C23327  -1.113   3.343   1.921  1.0493 -0.1802 -0.2885
  935MOL0     C23328  -1.266   3.328   1.938  0.5526  0.0378  0.2330
  935MOL0     C23329  -1.327   3.460   1.999  0.2561 -0.1269 -0.7367
  935MOL0     C23330  -1.478   3.463   1.996  0.1236  1.1464  0.4929
  935MOL0     C23331  -1.542   3.486   1.859 -0.0984  1.4034 -0.0137
  935MOL0    Cl23332  -1.724   3.493   1.895  0.4611 -0.2199 -0.2746
  935MOL0     C23333  -0.642   3.198   2.313  0.3135  0.3202  0.2923
  935MOL0     C23334  -0.534   3.110   2.329 -0.0500  0.6458  0.6527
  935MOL0     O23335  -0.214   3.175   2.339 -0.0643  0.0992 -0.7871
  935MOL0     C23336  -0.095   2.863   2.204 -0.2852 -0.4864  0.2084
  935MOL0     C23337   0.025   2.791   2.192  0.6674 -0.0077  0.0407
  935MOL0     N23338   0.708   2.492   2.028 -0.7858 -0.6242 -0.7735
  935MOL0     N23339   0.713   2.390   1.947 -0.2499 -0.2529  0.2034
  935MOL0     C23340   1.484   1.644   1.860  0.0799  0.0945  0.6790
  935MOL0     C23341   1.614   1.609   1.824 -0.1058  0.1847  0.0534
  935MOL0     C23342   1.983   1.511   1.605  0.4526 -0.2366 -0.6740
  935MOL0     C23343   2.021   1.385   1.651 -0.1637 -0.0285 -0.6484
  935MOL0     C23344   2.153   1.349   1.631 -0.3891 -0.3633 -0.2604
  935MOL0     C23345   2.247   1.427   1.571  0.1859 -0.0178 -0.1415
  935MOL0     O23346   2.380   1.398   1.550  0.2921 -0.3769 -0.4302
  935MOL0     C23347   2.428   1.273   1.589 -0.0595 -0.2375 -0.3700
  935MOL0     C23348   2.577   1.267   1.553  0.2737 -0.3797 -0.0719
  935MOL0     C23349   2.634   1.128   1.566  0.4686  0.1888  0.3494
  935MOL0     C23350   2.657   1.077   1.705  0.1507  0.7655 -0.5402
  935MOL0     C23351   2.743   1.166   1.778 -0.2930  0.4559 -0.1060
  935MOL0     C23352   2.825   1.238   1.834 -0.2864  0.2217  0.0399
  935MOL0     C23353   2.209   1.551   1.526 -0.5064 -0.5952  0.0089
  935MOL0     C23354   2.077   1.592   1.538  1.0476  1.2789  0.2127
  935MOL0     H23355   1.545   1.361   1.607  0.1402 -0.0947 -0.2620
  935MOL0     H23356   1.311   1.401   1.706  0.5539  0.1803 -2.0676
  935MOL0     H23357   1.115   1.479   1.841  0.8429 -0.3767 -1.7402
  935MOL0     H23358   1.147   1.568   1.692 -0.3190 -0.4510  0.2729
  935MOL0     H23359   1.057   1.704   1.949  0.1038 -2.0923  1.7400
  935MOL0     H23360   0.923   1.637   1.858  0.1953  0.3901  0.2281
  935MOL0     H23361   0.961   1.774   1.661  1.5467  0.2822 -0.8505
  935MOL0     H23362   1.121   1.818   1.732  0.6862  1.3291  1.7109
  935MOL0     H23363   0.863   1.889   1.868 -0.6612  0.9475 -1.6894
  935MOL0     H23364   1.024   1.943   1.905 -2.3537 -2.4027  2.1940
  935MOL0     H23365   0.959   2.017   1.624 -1.3711  2.0044 -0.9524
  935MOL0     H23366   1.041   2.102   1.753 -0.1775  0.1618 -0.0424
  935MOL0     H23367   0.826   2.142   1.867  0.3603 -3.4250  0.1495
  935MOL0     H23368   0.738   2.071   1.736  0.2781 -1.2864 -0.5188
  935MOL0     H23369   0.927   2.306   1.735  1.0968 -0.5574  0.1977
  935MOL0     H23370   0.869   2.243   1.577 -0.6040 -1.8528 -0.1261
  935MOL0     H23371   0.617   2.295   1.700 -0.5920 -0.5493 -0.5495
  935MOL0     H23372   0.693   2.420   1.623  0.3186  1.0959  2.0812
  935MOL0     H23373   0.713   2.613   1.728  4.6653  0.0705 -0.0798
  935MOL0     H23374   0.751   2.807   1.962 -1.8460 -1.7406 -1.9749
  935MOL0     H23375   0.716   2.741   2.125  0.4517  0.5425  0.7523
  935MOL0     H23376   0.510   2.785   1.903 -1.5803  1.6142 -0.6758
  935MOL0     H23377   0.522   2.850   2.073  1.7050  0.7351 -2.2754
  935MOL0     H23378   0.427   2.570   2.000 -0.9978  0.0569 -0.0042
  935MOL0     H23379   0.472   2.632   2.161 -0.4731  1.4972  0.6628
  935MOL0     H23380   0.226   2.617   2.065 -2.2237  1.9781 -3.4462
  935MOL0     H23381   0.258   2.753   1.986  0.4500 -2.8194 -1.2552
  935MOL0     H23382   0.237   3.026   2.275 -0.6963  0.5315  0.7075
  935MOL0     H23383   0.031   3.171   2.290  1.1465  0.3879 -1.5779
  935MOL0     H23384  -0.383   3.164   2.026 -1.8594 -0.2404 -1.7003
  935MOL0     H23385  -0.574   3.313   2.005 -1.7505  0.2903 -0.4939
  935MOL0     H23386  -0.687   3.477   2.060  1.2233 -3.2546 -0.7443
  935MOL0     H23387  -0.840   3.534   2.136 -1.1284 -0.2959 -0.5815
  935MOL0     H23388  -0.834   3.305   1.962  3.1178  1.7448 -1.1950
  935MOL0     H23389  -0.864   3.460   1.894 -0.6858 -0.9309 -1.3410
  935MOL0     H23390  -1.061   3.506   2.055 -1.0046 -0.5659 -0.3077
  935MOL0     H23391  -1.043   3.333   2.109  1.0829 -2.0779 -1.3440
  935MOL0     H23392  -1.112   3.403   1.829 -1.0321 -1.3290 -1.1550
  935MOL0     H23393  -1.072   3.248   1.887 -0.4359 -0.7888 -0.4825
  935MOL0     H23394  -1.281   3.245   2.007  1.9394 -0.1743  0.3022
  935MOL0     H23395  -1.315   3.310   1.842 -1.9015  5.4250  0.1065
  935MOL0     H23396  -1.289   3.543   1.939 -0.2486 -1.4356 -3.0028
  935MOL0     H23397  -1.299   3.473   2.104  1.3140 -0.6386 -0.9320
  935MOL0     H23398  -1.509   3.361   2.020 -0.3358  1.3655  0.8528
  935MOL0     H23399  -1.514   3.537   2.068  1.1766  2.2930 -0.1123
  935MOL0     H23400  -1.524   3.400   1.795 -2.7459 -0.4877  1.5709
  935MOL0     H23401  -1.509   3.577   1.808  0.0287  1.2508 -0.2038
  935MOL0     H23402  -0.723   3.202   2.385 -0.1186  0.3228 -0.1927
  935MOL0     H23403  -0.529   3.049   2.419  1.8048  0.7417  0.6455
  935MOL0     H23404  -0.184   2.801   2.202 -1.2099  0.8268 -0.8301
  935MOL0     H23405   0.019   2.684   2.173 -1.3608  0.0411  0.1214
  935MOL0     H23406   1.469   1.731   1.924  0.3680  1.1194 -0.5899
  935MOL0     H23407   1.698   1.665   1.864  1.0316 -0.7021 -1.0616
  935MOL0     H23408   1.956   1.311   1.696 -0.9058  1.0602  0.1184
  935MOL0     H23409   2.198   1.253   1.656  3.7154  1.6390  0.9157
  935MOL0     H23410   2.387   1.188   1.533  1.2078 -0.4569 -1.0168
  935MOL0     H23411   2.406   1.270   1.696 -3.1347  1.3018 -0.8472
  935MOL0     H23412   2.586   1.291   1.447 -0.2565  1.6376  0.3014
  935MOL0     H23413   2.634   1.344   1.607 -1.6534  3.3750 -2.9287
  935MOL0     H23414   2.723   1.124   1.504 -1.6673  1.1463 -3.0515
  935MOL0     H23415   2.559   1.056   1.532  0.5966 -0.1469  0.7668
  935MOL0     H23416   2.564   1.068   1.761  0.2021 -0.7839 -0.6554
  935MOL0     H23417   2.700   0.976   1.708 -1.2049  0.1777  2.4578
  935MOL0     H23418   2.901   1.309   1.861 -0.8385  2.4036 -3.4976
  935MOL0     H23419   2.285   1.607   1.473 -0.2264 -1.3534 -0.3867
  935MOL0     H23420   2.049   1.689   1.499  0.8478  2.9805  4.1240
  936MOL0     O23421  10.898   0.423   1.760  0.0007  0.1998  0.2949
  936MOL0     C23422  10.923   0.399   1.871  0.0416 -0.9863 -1.1555
  936MOL0     O23423  10.841   0.402   1.980  0.3229 -0.3303  0.2347
  936MOL0     C23424  10.714   0.455   1.954  0.1775 -0.0814 -0.5615
  936MOL0     C23425  10.613   0.366   1.938  0.1601  0.2704 -0.5452
  936MOL0     C23426  10.488   0.398   1.902  0.1134 -0.1518 -0.4620
  936MOL0     C23427  10.454   0.537   1.888 -0.4322  0.3765  0.3236
  936MOL0     O23428  10.332   0.592   1.853 -0.0855 -0.4548 -0.1874
  936MOL0     C23429  10.222   0.496   1.853 -1.0237  0.1439  0.5338
  936MOL0     C23430  10.088   0.574   1.848 -0.5162 -0.2077  1.2439
  936MOL0     C23431  10.072   0.670   1.732 -1.0887  0.4213 -0.2338
  936MOL0     C23432   9.937   0.735   1.727 -0.9460  0.3142 -0.6297
  936MOL0     C23433   9.896   0.835   1.611  0.0542 -0.1938  0.3340
  936MOL0     C23434   9.744   0.852   1.592 -0.6443 -0.2097 -0.0194
  936MOL0     C23435   9.710   0.971   1.508 -0.2202  0.4493 -0.4273
  936MOL0     C23436   9.721   0.953   1.361 -0.6691  0.8755 -0.4036
  936MOL0     N23437   9.658   1.072   1.300 -0.6312  0.0100 -0.7647
  936MOL0     C23438   9.706   1.198   1.327 -0.4855 -0.8881  0.1368
  936MOL0     C23439   9.621   1.286   1.264  0.1830  0.2924 -0.0526
  936MOL0     C23440   9.630   1.437   1.273  0.1889 -0.1452 -0.1177
  936MOL0     C23441   9.555   1.520   1.161  0.1738  0.6872 -0.3490
  936MOL0     C23442   9.407   1.529   1.175  0.8228 -0.6552 -0.6668
  936MOL0     C23443   9.357   1.641   1.086  0.8460  0.7106  0.4631
  936MOL0     O23444   9.218   1.671   1.096 -0.1483 -0.3458  0.4642
  936MOL0     C23445   9.128   1.587   1.035 -0.4907 -0.5750 -1.1094
  936MOL0     C23446   9.155   1.484   0.951  0.2586  0.0990 -0.3203
  936MOL0     C23447   9.042   1.419   0.890 -0.3724  0.4962  0.1481
  936MOL0     C23448   8.912   1.444   0.923 -0.3010  0.6804  0.6300
  936MOL0     C23449   8.795   1.363   0.880  0.3373  0.2847 -0.5487
  936MOL0     O23450   8.796   1.311   0.758  0.9149  0.5610 -0.3330
  936MOL0     C23451   8.692   1.242   0.702  0.4025  0.0603 -0.3119
  936MOL0     C23452   8.663   1.112   0.751 -0.9229 -0.5468  0.5523
  936MOL0     C23453   8.550   1.043   0.708  0.9341  0.2247 -0.1108
  936MOL0     C23454   8.451   1.111   0.622  0.3807 -0.8687  0.2748
  936MOL0     O23455   8.345   1.038   0.580 -0.7010  0.6986 -0.2709
  936MOL0     C23456   8.226   1.109   0.533 -0.0392  0.3322 -0.2511
  936MOL0     C23457   8.121   1.001   0.532  1.3258  1.2104 -0.4176
  936MOL0     C23458   7.975   1.050   0.514  0.4294  0.2891 -0.1007
  936MOL0     C23459   7.963   1.144   0.396  0.9176  0.1003  0.2330
  936MOL0     C23460   7.818   1.178   0.350 -0.2993  0.2420  0.6798
  936MOL0     C23461   7.811   1.275   0.230  0.1484 -0.3408  0.7736
  936MOL0     C23462   7.667   1.285   0.172 -0.2844 -0.4629 -0.5066
  936MOL0     C23463   7.675   1.352   0.038 -0.7040  0.3623 -0.2218
  936MOL0    Cl23464   7.750   1.247  -0.084  0.2261 -0.4237  0.3990
  936MOL0     C23465   8.480   1.237   0.580  0.5344  0.7693  0.0921
  936MOL0     C23466   8.594   1.305   0.624  0.0146 -0.9708 -0.5057
  936MOL0     O23467   8.711   1.356   0.966  0.7266 -0.1639  0.1902
  936MOL0     C23468   8.889   1.559   1.004  0.3056 -0.4723 -0.5563
  936MOL0     C23469   8.993   1.624   1.054 -0.5279 -0.0628  0.2541
  936MOL0     N23470   9.524   1.214   1.210  0.6248 -0.1648  0.0995
  936MOL0     N23471   9.543   1.088   1.236  0.5596  0.7939 -0.9645
  936MOL0     C23472  10.557   0.631   1.901 -0.4152 -0.0820 -0.5893
  936MOL0     C23473  10.688   0.591   1.929 -0.3532 -1.0242 -0.0801
  936MOL0     C23474  11.067   0.370   1.904  0.6512  0.5296 -0.1233
  936MOL0     C23475  11.171   0.393   1.811 -0.0924  0.2703  1.2502
  936MOL0     C23476  11.302   0.364   1.841  0.6328  0.6552 -0.5834
  936MOL0     C23477  11.333   0.319   1.964 -0.2277  0.4951 -0.9284
  936MOL0     O23478  11.458   0.304   2.015 -0.6263  0.1574  0.2755
  936MOL0     C23479  11.570   0.371   1.964 -0.9027  0.3611  0.7711
  936MOL0     C23480  11.660   0.283   1.866  0.0280  0.2144  0.2614
  936MOL0     C23481  11.785   0.352   1.838 -0.6992  0.4444 -0.4205
  936MOL0     C23482  11.887   0.262   1.763  0.0959  0.5530  0.1530
  936MOL0     C23483  11.931   0.142   1.827 -0.7762  0.4809 -0.0751
  936MOL0     C23484  11.986   0.048   1.885  0.0373  0.4155 -0.3255
  936MOL0     C23485  11.232   0.276   2.045  0.7869 -0.2532 -0.8127
  936MOL0     C23486  11.096   0.296   2.016  0.0491 -0.2792 -0.2726
  936MOL0     H23487  10.635   0.263   1.966  0.1234  0.9270  2.1907
  936MOL0     H23488  10.406   0.327   1.909 -0.9878  1.1842  4.4763
  936MOL0     H23489  10.225   0.427   1.937  0.6364 -0.9624 -0.3697
  936MOL0     H23490  10.226   0.440   1.759 -0.0016  1.0759 -0.0112
  936MOL0     H23491  10.079   0.626   1.944  1.2707  0.2622  1.1853
  936MOL0     H23492  10.007   0.499   1.847  0.7080 -1.5659  0.0826
  936MOL0     H23493  10.090   0.625   1.634  0.5416  2.1946 -0.7980
  936MOL0     H23494  10.147   0.746   1.752  1.4412 -1.7940 -0.7393
  936MOL0     H23495   9.856   0.662   1.736  0.4919 -1.0110  4.1957
  936MOL0     H23496   9.929   0.793   1.819 -0.1538  1.8975 -1.5027
  936MOL0     H23497   9.934   0.802   1.514  1.1157  2.5386 -0.2867
  936MOL0     H23498   9.944   0.932   1.632  0.6518 -0.5250  0.5197
  936MOL0     H23499   9.699   0.849   1.692 -0.3554 -4.1101  0.1599
  936MOL0     H23500   9.703   0.758   1.552  0.7635 -0.1901 -1.5852
  936MOL0     H23501   9.615   1.012   1.543 -2.3303 -3.5910 -0.7841
  936MOL0     H23502   9.788   1.044   1.534 -0.9116  1.2481 -0.5609
  936MOL0     H23503   9.684   0.856   1.328  0.3234 -0.1661  1.3753
  936MOL0     H23504   9.823   0.958   1.324 -0.9326  0.8118 -1.1534
  936MOL0     H23505   9.790   1.236   1.384 -0.1167  1.2481 -1.6497
  936MOL0     H23506   9.738   1.452   1.273  0.0988  0.7290 -1.7417
  936MOL0     H23507   9.590   1.475   1.367 -3.3825  1.0594 -1.9337
  936MOL0     H23508   9.591   1.484   1.064  2.9991 -0.0574  0.8353
  936MOL0     H23509   9.599   1.620   1.165  0.5290  0.5470 -0.6859
  936MOL0     H23510   9.349   1.437   1.158 -1.0648  0.0654  1.4222
  936MOL0     H23511   9.382   1.559   1.277  0.1200  0.2886 -1.1079
  936MOL0     H23512   9.389   1.617   0.984  1.0160  1.8736  0.2291
  936MOL0     H23513   9.416   1.733   1.090  2.2766 -0.1598  0.0591
  936MOL0     H23514   9.256   1.459   0.922 -1.1352 -2.3443 -3.6490
  936MOL0     H23515   9.056   1.349   0.808  0.4527  0.4239  0.3450
  936MOL0     H23516   8.724   1.063   0.827 -0.4380 -0.0184  0.5108
  936MOL0     H23517   8.515   0.948   0.747 -0.1289  1.2577  1.5825
  936MOL0     H23518   8.240   1.154   0.435 -0.7744 -0.9878 -0.9924
  936MOL0     H23519   8.199   1.195   0.595 -1.6436  1.2407 -2.1291
  936MOL0     H23520   8.128   0.942   0.623 -2.1458 -0.1541 -0.8591
  936MOL0     H23521   8.145   0.927   0.456  0.3826 -0.2011  0.6125
  936MOL0     H23522   7.935   1.107   0.598 -2.6872 -0.4299 -0.9595
  936MOL0     H23523   7.916   0.959   0.497  0.7724  0.4793 -2.8505
  936MOL0     H23524   8.018   1.239   0.394  1.8208 -0.3388 -3.9512
  936MOL0     H23525   8.005   1.109   0.302 -2.0940  0.9427 -1.5620
  936MOL0     H23526   7.766   1.212   0.440 -1.0407  0.6695  0.0960
  936MOL0     H23527   7.777   1.082   0.318 -3.0851  1.7814 -0.6648
  936MOL0     H23528   7.882   1.250   0.150 -1.8552 -2.1971 -0.5472
  936MOL0     H23529   7.840   1.373   0.268 -0.4290  0.0093  0.3345
  936MOL0     H23530   7.632   1.185   0.145  4.1000 -2.1786 -0.5643
  936MOL0     H23531   7.591   1.331   0.236  0.7470  0.4761  0.0759
  936MOL0     H23532   7.740   1.439   0.040  1.2791 -1.0483  2.1185
  936MOL0     H23533   7.574   1.390   0.017 -0.4693  1.3176  0.3196
  936MOL0     H23534   8.416   1.303   0.522 -0.4128  1.3546  1.7437
  936MOL0     H23535   8.603   1.411   0.601 -3.4029 -0.2654  0.7868
  936MOL0     H23536   8.789   1.588   1.035  1.3189  1.0607  1.4290
  936MOL0     H23537   8.975   1.708   1.119 -0.2015 -0.4533  0.8597
  936MOL0     H23538  10.547   0.738   1.912  3.5718  0.3147  0.6368
  936MOL0     H23539  10.771   0.660   1.936  0.4621 -1.4701 -3.4635
  936MOL0     H23540  11.148   0.422   1.709  1.5030  0.1024  0.8109
  936MOL0     H23541  11.388   0.383   1.778  4.4843  2.4574  4.5324
  936MOL0     H23542  11.622   0.411   2.051 -1.6387 -0.0707  1.4247
  936MOL0     H23543  11.529   0.458   1.912 -1.7024 -1.0575 -1.0988
  936MOL0     H23544  11.685   0.188   1.915  3.5621  0.0336 -1.6013
  936MOL0     H23545  11.604   0.261   1.775 -0.9006 -0.4323  0.9615
  936MOL0     H23546  11.817   0.405   1.928 -0.7319  0.6723 -0.5420
  936MOL0     H23547  11.753   0.439   1.780 -1.2533 -0.0111 -0.8025
  936MOL0     H23548  11.823   0.230   1.680 -2.7256  0.9994  2.0216
  936MOL0     H23549  11.966   0.323   1.719  0.5287  0.7857  1.2288
  936MOL0     H23550  12.011  -0.041   1.939 -3.8051 -1.0376 -0.6149
  936MOL0     H23551  11.256   0.225   2.138  1.7067 -0.3425 -1.0861
  936MOL0     H23552  11.020   0.253   2.080 -0.6787 -3.7961 -3.1635
  937MOL0     O23553   5.814   2.074   6.016 -0.1437 -0.2266 -0.1659
  937MOL0     C23554   5.790   2.098   6.135  0.5488 -0.3506  0.8226
  937MOL0     O23555   5.675   2.144   6.183  0.0790 -0.1745  0.7801
  937MOL0     C23556   5.573   2.177   6.100 -0.3390 -0.1427  0.1910
  937MOL0     C23557   5.528   2.312   6.091 -0.3328 -0.8076  0.9183
  937MOL0     C23558   5.408   2.341   6.011  0.2715  0.6965 -0.3500
  937MOL0     C23559   5.338   2.233   5.950 -0.0169  0.2119  0.1422
  937MOL0     O23560   5.212   2.260   5.900 -0.0831 -0.0654 -0.1409
  937MOL0     C23561   5.119   2.153   5.919  0.1153 -0.9206  0.6078
  937MOL0     C23562   4.979   2.221   5.917  0.2709  0.9870 -0.1267
  937MOL0     C23563   4.964   2.318   6.031  0.9775 -0.2708  0.3297
  937MOL0     C23564   4.834   2.392   6.046  0.0916  0.2337  0.0959
  937MOL0     C23565   4.853   2.510   6.145 -0.3066  0.5716 -0.3530
  937MOL0     C23566   4.719   2.563   6.213 -1.0096 -0.0851 -0.0496
  937MOL0     C23567   4.749   2.694   6.293  0.0352  0.1561  0.3064
  937MOL0     C23568   4.632   2.747   6.380 -0.1716  0.2078 -0.1856
  937MOL0     N23569   4.618   2.688   6.511 -0.1492 -0.9654  0.2918
  937MOL0     C23570   4.693   2.717   6.631  0.2440  0.0052  1.2488
  937MOL0     C23571   4.616   2.648   6.723  0.0948  0.1491  0.8638
  937MOL0     C23572   4.641   2.645   6.871  1.0378  0.0331  0.4962
  937MOL0     C23573   4.574   2.761   6.944 -0.7371 -0.6694  0.4342
  937MOL0     C23574   4.416   2.732   6.948 -0.8545  1.1830  0.1581
  937MOL0     C23575   4.342   2.824   7.042  0.6136 -0.9955 -0.5440
  937MOL0     O23576   4.354   2.785   7.183 -1.0758 -0.0127 -0.0150
  937MOL0     C23577   4.286   2.673   7.226  0.4247 -0.3403  0.3293
  937MOL0     C23578   4.212   2.583   7.147 -0.9876  0.2734  0.6063
  937MOL0     C23579   4.149   2.470   7.200  0.2818  0.2556  0.4573
  937MOL0     C23580   4.145   2.445   7.338  0.7906  0.0369  0.3539
  937MOL0     C23581   4.058   2.344   7.388 -0.6758 -0.0577 -0.4818
  937MOL0     O23582   4.013   2.255   7.310 -0.6128  0.8688  0.2386
  937MOL0     C23583   3.926   2.158   7.363 -0.1970 -0.0350 -0.5414
  937MOL0     C23584   3.970   2.026   7.363  0.2359  0.8217  0.4420
  937MOL0     C23585   3.888   1.919   7.412  0.0100 -0.7027 -1.4059
  937MOL0     C23586   3.757   1.957   7.469  0.1323 -1.1641 -0.1180
  937MOL0     O23587   3.692   1.852   7.525 -0.2960 -0.7985  0.3273
  937MOL0     C23588   3.559   1.834   7.497  0.6742  1.0444 -0.4233
  937MOL0     C23589   3.503   1.716   7.578  0.2051 -0.4299 -0.3571
  937MOL0     C23590   3.349   1.693   7.566 -0.4693 -0.1798 -0.0767
  937MOL0     C23591   3.284   1.683   7.710  0.4855  0.3654 -0.4996
  937MOL0     C23592   3.161   1.584   7.699 -0.0465 -0.3958  0.5442
  937MOL0     C23593   3.094   1.565   7.831 -0.0504 -0.6459  0.1165
  937MOL0     C23594   2.977   1.470   7.821 -0.2996  0.4547  0.8551
  937MOL0     C23595   2.954   1.400   7.956 -0.4858  0.0774  0.2054
  937MOL0    Cl23596   2.816   1.289   7.954 -0.0706 -0.3623 -0.1054
  937MOL0     C23597   3.712   2.094   7.463  0.0151  0.3008  0.8825
  937MOL0     C23598   3.797   2.187   7.410  0.4113  0.4633 -0.4400
  937MOL0     O23599   4.043   2.344   7.512  0.0882 -0.0624  0.7316
  937MOL0     C23600   4.213   2.542   7.413 -0.7810  0.4154 -0.1599
  937MOL0     C23601   4.284   2.653   7.361  0.7679 -0.4663 -0.5610
  937MOL0     N23602   4.513   2.571   6.653 -0.2029 -0.4819 -0.0115
  937MOL0     N23603   4.507   2.607   6.536 -0.0687 -0.2662  0.1076
  937MOL0     C23604   5.391   2.113   5.951  0.1079  0.2467 -0.5700
  937MOL0     C23605   5.508   2.081   6.026 -0.7037  0.4098  0.2550
  937MOL0     C23606   5.894   2.106   6.237  0.7894  0.6516  0.4862
  937MOL0     C23607   5.878   2.158   6.369 -0.5712  0.4045  0.1586
  937MOL0     C23608   5.984   2.169   6.459 -0.4633  0.0787 -0.3666
  937MOL0     C23609   6.119   2.131   6.413 -0.3265  0.2925 -0.1875
  937MOL0     O23610   6.224   2.133   6.498  0.0912  0.7011 -0.5841
  937MOL0     C23611   6.331   2.036   6.501 -0.1379 -0.4383  0.7184
  937MOL0     C23612   6.389   2.041   6.644  0.9010 -0.1319  0.5199
  937MOL0     C23613   6.469   1.916   6.679  1.4823  0.6885 -0.1743
  937MOL0     C23614   6.509   1.910   6.825 -0.3555 -0.8297 -0.3395
  937MOL0     C23615   6.629   1.994   6.853  0.4597  0.8846 -0.9474
  937MOL0     C23616   6.734   2.049   6.879 -0.5089  0.3951  0.9995
  937MOL0     C23617   6.135   2.077   6.285 -0.1378  0.7205 -0.0309
  937MOL0     C23618   6.020   2.060   6.199  0.3796 -0.2001  0.0763
  937MOL0     H23619   5.578   2.393   6.143  0.2283  0.3393 -1.2870
  937MOL0     H23620   5.377   2.445   6.007  2.2162  1.4321  1.6048
  937MOL0     H23621   5.142   2.090   6.006 -0.6399 -1.3367  0.5137
  937MOL0     H23622   5.131   2.086   5.833  0.8084  0.5414 -0.4937
  937MOL0     H23623   4.894   2.153   5.929  1.1661 -0.3999 -1.3067
  937MOL0     H23624   4.975   2.271   5.820 -0.6722 -0.6466 -0.9764
  937MOL0     H23625   5.044   2.389   6.007  0.1546 -0.4910 -3.7310
  937MOL0     H23626   4.987   2.276   6.129  2.3991  2.6024  1.3367
  937MOL0     H23627   4.795   2.425   5.949 -2.1133 -1.8916  0.1574
  937MOL0     H23628   4.760   2.317   6.076 -0.8618  0.8068 -0.7310
  937MOL0     H23629   4.892   2.590   6.082  0.6468 -0.6986 -1.4029
  937MOL0     H23630   4.929   2.478   6.216  0.6057 -4.0530 -3.0543
  937MOL0     H23631   4.672   2.487   6.276 -2.2032  1.2071  0.6803
  937MOL0     H23632   4.635   2.589   6.147 -0.4623  0.3322 -0.5895
  937MOL0     H23633   4.836   2.687   6.358  1.3975  1.8756 -1.2307
  937MOL0     H23634   4.772   2.772   6.220 -1.8660  0.2008 -0.2905
  937MOL0     H23635   4.538   2.742   6.325  1.5521  1.0766 -3.4200
  937MOL0     H23636   4.647   2.854   6.392  1.3965  0.4396 -3.2057
  937MOL0     H23637   4.778   2.780   6.652  0.6763  0.9062 -2.4182
  937MOL0     H23638   4.750   2.654   6.877  1.1726 -0.4218 -0.9763
  937MOL0     H23639   4.613   2.544   6.901  3.6449 -1.3311 -1.3253
  937MOL0     H23640   4.601   2.856   6.896  2.6483 -0.9387  1.5326
  937MOL0     H23641   4.616   2.769   7.045  2.8463  0.0445 -0.9764
  937MOL0     H23642   4.372   2.747   6.849  0.5911 -0.3809 -0.7667
  937MOL0     H23643   4.390   2.632   6.982  1.0247  0.6971  0.2834
  937MOL0     H23644   4.237   2.826   7.012  0.1003  0.5285  1.1847
  937MOL0     H23645   4.381   2.926   7.044  0.7597 -1.0474 -0.7213
  937MOL0     H23646   4.183   2.611   7.047  1.1373 -0.1679 -0.1912
  937MOL0     H23647   4.092   2.422   7.121 -0.2606  2.3392 -0.4895
  937MOL0     H23648   4.068   2.004   7.321  0.2845 -1.5884  1.6023
  937MOL0     H23649   3.921   1.815   7.417  0.3677 -0.5426  0.3199
  937MOL0     H23650   3.545   1.821   7.389 -2.6895  2.9611 -0.3769
  937MOL0     H23651   3.503   1.927   7.511 -0.4354  0.5225 -1.2302
  937MOL0     H23652   3.520   1.751   7.680 -0.0982 -0.4488 -0.2987
  937MOL0     H23653   3.548   1.618   7.562 -1.1362 -0.7634 -2.5529
  937MOL0     H23654   3.328   1.602   7.510  2.0642 -0.4332 -0.7187
  937MOL0     H23655   3.303   1.780   7.516 -0.8739 -1.1259 -1.4135
  937MOL0     H23656   3.353   1.636   7.780 -0.8413 -1.9262 -0.6356
  937MOL0     H23657   3.252   1.782   7.745  0.4042  0.1936 -0.0828
  937MOL0     H23658   3.186   1.484   7.663 -0.1169 -0.5518  0.9236
  937MOL0     H23659   3.092   1.632   7.628  0.6177  4.0571  2.5466
  937MOL0     H23660   3.051   1.658   7.870  1.9896  1.1063 -1.5434
  937MOL0     H23661   3.172   1.533   7.902 -1.4100 -0.9971  1.5067
  937MOL0     H23662   2.894   1.536   7.794 -0.3158  0.4301  0.8453
  937MOL0     H23663   2.998   1.399   7.741  1.4154  1.1423  0.6698
  937MOL0     H23664   2.938   1.472   8.036 -1.0028 -0.1652  0.3273
  937MOL0     H23665   3.046   1.345   7.976 -0.9658 -0.4507  1.0353
  937MOL0     H23666   3.614   2.127   7.497 -1.1034 -1.5315 -0.3654
  937MOL0     H23667   3.778   2.294   7.407  1.1597  0.7577  2.4727
  937MOL0     H23668   4.209   2.535   7.522  1.6942 -1.4941 -0.0790
  937MOL0     H23669   4.330   2.712   7.440 -1.8408 -0.0705  0.7783
  937MOL0     H23670   5.342   2.044   5.883 -3.2906  1.8954 -0.0094
  937MOL0     H23671   5.559   1.986   6.036  4.6011  3.1437  2.8202
  937MOL0     H23672   5.782   2.193   6.404 -0.6990  0.1160  0.0938
  937MOL0     H23673   5.963   2.209   6.557  3.0621  0.3475  0.4099
  937MOL0     H23674   6.402   2.067   6.424 -1.7059  0.5315 -0.4189
  937MOL0     H23675   6.298   1.939   6.463 -2.2363  1.3069 -2.4132
  937MOL0     H23676   6.457   2.126   6.648 -0.7272  1.2258  0.2668
  937MOL0     H23677   6.306   2.060   6.713  0.0966  2.7939 -1.0845
  937MOL0     H23678   6.559   1.895   6.620  3.9232  0.3759  3.3919
  937MOL0     H23679   6.399   1.834   6.660  3.8697 -1.4304 -0.4190
  937MOL0     H23680   6.429   1.950   6.889 -0.1180  2.2477 -1.7672
  937MOL0     H23681   6.538   1.807   6.844  1.7090  0.2456  3.5167
  937MOL0     H23682   6.818   2.109   6.908 -0.0868  0.0643  0.4826
  937MOL0     H23683   6.225   2.038   6.238 -0.8569  0.8994 -1.6355
  937MOL0     H23684   6.027   2.034   6.094 -0.8454  1.7899 -0.5577
  938MOL0     O23685   1.127   6.851   6.833  0.7541 -0.1747  0.8631
  938MOL0     C23686   1.048   6.916   6.896 -0.6346  0.0887 -0.0477
  938MOL0     O23687   0.916   6.897   6.897  0.1347  0.3500 -0.4237
  938MOL0     C23688   0.853   6.815   6.808 -0.5239 -0.2034 -0.0965
  938MOL0     C23689   0.870   6.827   6.666 -0.5110 -0.0346 -0.2432
  938MOL0     C23690   0.811   6.740   6.585 -0.0631 -0.0687  0.6373
  938MOL0     C23691   0.729   6.636   6.641 -0.4211  1.0143  0.0884
  938MOL0     O23692   0.679   6.527   6.578  0.0319 -0.6198 -0.2909
  938MOL0     C23693   0.649   6.531   6.445 -0.9447 -0.6872 -0.4386
  938MOL0     C23694   0.560   6.409   6.413  0.5108 -0.3507 -0.0022
  938MOL0     C23695   0.536   6.421   6.263  0.7938 -0.4877 -0.5762
  938MOL0     C23696   0.416   6.333   6.223  0.0652 -0.0010 -0.0835
  938MOL0     C23697   0.392   6.357   6.077 -0.2397 -0.8034 -0.9188
  938MOL0     C23698   0.289   6.255   6.014 -0.0070  0.4989  0.2240
  938MOL0     C23699   0.153   6.259   6.080 -0.0212 -0.5123 -0.1584
  938MOL0     C23700   0.045   6.183   5.997  0.1082  0.2102 -0.1008
  938MOL0     N23701   0.081   6.043   5.981  0.1072 -0.0789 -0.0497
  938MOL0     C23702   0.160   5.983   5.891 -0.3205  0.6440  0.6804
  938MOL0     C23703   0.164   5.848   5.919 -0.8330  0.5119  0.9944
  938MOL0     C23704   0.234   5.731   5.845 -1.7160  0.1966 -0.1338
  938MOL0     C23705   0.387   5.710   5.893 -0.1258  0.1049 -0.1422
  938MOL0     C23706   0.422   5.726   6.037  0.4775  0.2786 -0.5368
  938MOL0     C23707   0.552   5.660   6.076 -0.3514 -0.5023  0.3144
  938MOL0     O23708   0.671   5.730   6.037 -0.9412  0.4184  0.5008
  938MOL0     C23709   0.797   5.666   6.035  0.6128  0.7176 -0.5171
  938MOL0     C23710   0.814   5.548   6.102  0.3420 -0.0077  0.1724
  938MOL0     C23711   0.948   5.501   6.118 -0.3235 -0.0150 -0.0799
  938MOL0     C23712   1.056   5.570   6.067 -0.8153  0.9702 -0.2956
  938MOL0     C23713   1.197   5.526   6.078 -0.8607  0.0377 -0.3856
  938MOL0     O23714   1.287   5.603   6.018  0.2302  0.3416 -0.5214
  938MOL0     C23715   1.418   5.571   6.012  0.3379 -0.8956  0.3410
  938MOL0     C23716   1.471   5.448   5.985  1.1366  0.5082 -0.2455
  938MOL0     C23717   1.614   5.443   5.961 -0.4692 -0.8307 -0.9071
  938MOL0     C23718   1.698   5.546   5.990  0.1673 -0.6362  0.0275
  938MOL0     O23719   1.832   5.515   5.974  0.3497 -0.2578  0.1440
  938MOL0     C23720   1.921   5.575   6.069  0.3751 -0.5743 -0.4767
  938MOL0     C23721   2.065   5.513   6.067  0.0890  0.2957  0.0618
  938MOL0     C23722   2.139   5.586   5.955 -0.6985 -0.5493  0.4600
  938MOL0     C23723   2.290   5.566   5.965  0.3220  0.0550  0.0668
  938MOL0     C23724   2.371   5.642   5.865 -0.2494 -0.0868 -0.3889
  938MOL0     C23725   2.517   5.613   5.888  0.2531  0.7198  0.1302
  938MOL0     C23726   2.597   5.624   5.755  0.9230 -0.1090  0.1541
  938MOL0     C23727   2.742   5.605   5.788 -0.1061  0.0712  0.5606
  938MOL0    Cl23728   2.835   5.599   5.632 -0.1169  0.6458  0.8875
  938MOL0     C23729   1.643   5.673   6.014  0.4783  0.8973  0.5416
  938MOL0     C23730   1.504   5.684   6.016  0.4428  0.2449 -0.8466
  938MOL0     O23731   1.223   5.434   6.149 -0.0126  0.1364  0.6170
  938MOL0     C23732   1.030   5.684   5.997  0.1868  0.6717 -0.6663
  938MOL0     C23733   0.902   5.736   5.981  0.3456  0.1074 -0.1620
  938MOL0     N23734   0.068   5.832   6.017 -0.2379  0.1375  0.0127
  938MOL0     N23735   0.028   5.948   6.058  0.0603  0.5220 -0.1683
  938MOL0     C23736   0.717   6.625   6.780  0.5412 -0.4592 -0.0258
  938MOL0     C23737   0.781   6.707   6.867  0.0689 -0.7344  0.3242
  938MOL0     C23738   1.104   7.018   6.983  0.3309 -0.2869 -0.1758
  938MOL0     C23739   1.035   7.073   7.097  0.6750 -0.5758 -0.4214
  938MOL0     C23740   1.083   7.180   7.170  0.3080  0.0638  0.6271
  938MOL0     C23741   1.203   7.238   7.136  0.0378  0.2690  0.3955
  938MOL0     O23742   1.264   7.350   7.194  0.5627 -0.2942  0.4104
  938MOL0     C23743   1.183   7.448   7.272  0.1832 -0.1623 -0.0641
  938MOL0     C23744   1.199   7.439   7.431 -0.5188 -1.0721 -0.3834
  938MOL0     C23745   1.121   7.317   7.496 -0.8639  0.2746 -0.4795
  938MOL0     C23746   1.150   7.295   7.646  0.2209  0.0593 -0.2707
  938MOL0     C23747   1.140   7.424   7.717  0.8195 -0.2517  0.3837
  938MOL0     C23748   1.115   7.526   7.779 -0.1341 -0.2458 -0.4245
  938MOL0     C23749   1.283   7.174   7.030 -0.7892  0.6928  0.1134
  938MOL0     C23750   1.231   7.068   6.959  0.5782 -0.0679  0.9356
  938MOL0     H23751   0.938   6.900   6.623  2.8069 -3.3136 -1.1698
  938MOL0     H23752   0.830   6.745   6.478 -1.5855  1.2905  0.3954
  938MOL0     H23753   0.742   6.530   6.387 -0.6662  2.0312 -0.1595
  938MOL0     H23754   0.612   6.631   6.419 -0.5230 -0.7519 -1.3471
  938MOL0     H23755   0.467   6.425   6.469  0.8461 -0.5963  0.6365
  938MOL0     H23756   0.584   6.309   6.451  1.0384  0.4422  1.8760
  938MOL0     H23757   0.629   6.384   6.219 -0.1823 -1.7910 -1.6139
  938MOL0     H23758   0.518   6.525   6.236  0.9900 -0.1369  0.5815
  938MOL0     H23759   0.436   6.228   6.247  0.0826  0.4741  2.3256
  938MOL0     H23760   0.327   6.360   6.282  0.3393  0.6769  0.0291
  938MOL0     H23761   0.488   6.334   6.030 -0.6338 -0.2262 -2.0568
  938MOL0     H23762   0.365   6.462   6.058 -1.2215 -0.4898  1.7370
  938MOL0     H23763   0.322   6.153   6.033 -1.3554  0.2499  1.3558
  938MOL0     H23764   0.286   6.274   5.906 -1.2440 -1.8100 -0.2098
  938MOL0     H23765   0.154   6.209   6.177 -1.4896  0.3779  0.3432
  938MOL0     H23766   0.122   6.362   6.100 -1.9461 -1.5016  2.4100
  938MOL0     H23767   0.023   6.241   5.907 -0.1628  2.3422  1.2807
  938MOL0     H23768  -0.051   6.183   6.049  1.1549 -1.6157  2.0205
  938MOL0     H23769   0.217   6.027   5.810 -1.3058  1.1970  0.2636
  938MOL0     H23770   0.238   5.748   5.737 -0.3594 -0.1319 -0.1572
  938MOL0     H23771   0.178   5.642   5.874 -0.9804  0.3420  1.9548
  938MOL0     H23772   0.451   5.784   5.844 -0.2976  0.3337 -0.0230
  938MOL0     H23773   0.423   5.613   5.856  0.6496  0.4401 -0.2800
  938MOL0     H23774   0.417   5.833   6.059  1.9085  0.6118 -1.6364
  938MOL0     H23775   0.349   5.671   6.097  2.3362 -2.2832 -0.4291
  938MOL0     H23776   0.547   5.558   6.038 -0.8285 -1.8049  3.5369
  938MOL0     H23777   0.559   5.662   6.185  0.5638  2.8314  0.3077
  938MOL0     H23778   0.730   5.498   6.150 -1.7046  2.4151 -0.6743
  938MOL0     H23779   0.964   5.406   6.169  0.2956  0.2346  0.2098
  938MOL0     H23780   1.406   5.361   5.982  0.9457  0.5544  1.7215
  938MOL0     H23781   1.653   5.343   5.945  2.6818 -0.6914  3.8551
  938MOL0     H23782   1.875   5.562   6.167  0.1437 -1.1309 -0.6533
  938MOL0     H23783   1.919   5.684   6.057 -2.9373 -0.6662 -2.1014
  938MOL0     H23784   2.062   5.406   6.048  1.7738  0.1243  0.6090
  938MOL0     H23785   2.118   5.533   6.161  0.4552 -1.4901  0.2578
  938MOL0     H23786   2.124   5.693   5.967  0.4778 -0.0813 -1.6264
  938MOL0     H23787   2.109   5.557   5.854  1.1468  0.8459 -0.5522
  938MOL0     H23788   2.335   5.597   6.060  1.3036 -3.0430  0.7516
  938MOL0     H23789   2.318   5.461   5.977  0.9794  0.0543 -1.3426
  938MOL0     H23790   2.343   5.747   5.881 -0.1796 -0.3146  1.4477
  938MOL0     H23791   2.342   5.617   5.763 -2.1280  0.4394 -0.0208
  938MOL0     H23792   2.528   5.512   5.930  1.0276  0.6595 -0.2158
  938MOL0     H23793   2.565   5.673   5.965 -1.3302  1.6423  0.4365
  938MOL0     H23794   2.558   5.557   5.678 -2.9312 -0.5897  2.2609
  938MOL0     H23795   2.574   5.725   5.720  0.3022 -1.1712 -2.7097
  938MOL0     H23796   2.752   5.514   5.847  1.2873  1.4541  2.6062
  938MOL0     H23797   2.776   5.692   5.845 -0.8387  2.2301 -2.1072
  938MOL0     H23798   1.709   5.755   6.041 -0.6842  0.9411  3.7234
  938MOL0     H23799   1.461   5.783   6.034  0.3546 -0.2358  2.1146
  938MOL0     H23800   1.114   5.745   5.966 -0.2132 -0.4871 -4.6744
  938MOL0     H23801   0.884   5.831   5.932 -0.6151 -0.0441 -0.1286
  938MOL0     H23802   0.657   6.545   6.822  0.7739  0.0444  1.3138
  938MOL0     H23803   0.772   6.700   6.975 -2.5291  1.1299  0.3292
  938MOL0     H23804   0.936   7.045   7.130 -0.4548  0.5587 -2.6860
  938MOL0     H23805   1.039   7.228   7.256  2.0836  0.9595  1.0827
  938MOL0     H23806   1.078   7.428   7.248  0.4756  1.6668 -3.6799
  938MOL0     H23807   1.210   7.549   7.239 -0.9724 -0.3583 -1.7329
  938MOL0     H23808   1.305   7.436   7.460 -1.0539  0.0823  1.8962
  938MOL0     H23809   1.152   7.531   7.465 -0.3897 -1.8303  2.0021
  938MOL0     H23810   1.151   7.233   7.433  1.8145  0.8482 -0.1249
  938MOL0     H23811   1.013   7.328   7.496 -1.1111 -1.7885  0.8499
  938MOL0     H23812   1.085   7.218   7.688 -1.3755  1.7125  0.4331
  938MOL0     H23813   1.254   7.263   7.658  0.0597 -0.3371  0.1024
  938MOL0     H23814   1.094   7.617   7.831 -1.6558 -1.5309  1.3498
  938MOL0     H23815   1.377   7.214   6.993 -0.4141  0.8111  1.1464
  938MOL0     H23816   1.288   7.047   6.869 -1.5747  0.6674 -0.6941
  939MOL0     O23817   3.401   2.394   8.209  0.6784  0.1158 -0.8040
  939MOL0     C23818   3.381   2.489   8.138 -0.1638 -0.0609 -0.2111
  939MOL0     O23819   3.264   2.523   8.070  0.0290  0.0112 -0.3310
  939MOL0     C23820   3.139   2.474   8.103  0.4144  0.8950  0.2410
  939MOL0     C23821   3.103   2.369   8.197  0.1001 -0.6077 -0.3251
  939MOL0     C23822   2.973   2.326   8.217  0.3961 -0.2243 -0.2462
  939MOL0     C23823   2.868   2.370   8.138  0.1061  0.0904 -0.0296
  939MOL0     O23824   2.739   2.347   8.158 -0.1770 -0.0836  0.8061
  939MOL0     C23825   2.713   2.227   8.238  1.5591  0.4751  0.0155
  939MOL0     C23826   2.567   2.194   8.193  0.2372  0.2709 -0.5644
  939MOL0     C23827   2.507   2.086   8.273  0.0711  0.8890 -0.7015
  939MOL0     C23828   2.355   2.102   8.269 -1.2417  0.6417  0.1360
  939MOL0     C23829   2.282   2.009   8.375 -0.3748  0.5796  0.0859
  939MOL0     C23830   2.155   1.945   8.318 -1.1445 -0.0878 -0.1893
  939MOL0     C23831   2.113   1.824   8.404 -0.2712  0.1190 -0.2189
  939MOL0     C23832   2.006   1.732   8.336 -1.2289 -0.0433  0.1265
  939MOL0     N23833   1.943   1.632   8.420  0.6649  0.3425 -0.6045
  939MOL0     C23834   1.819   1.573   8.403 -0.3837  0.5510 -0.7485
  939MOL0     C23835   1.811   1.477   8.496  0.5642 -0.1776  1.3677
  939MOL0     C23836   1.693   1.383   8.496 -0.8430  0.3347  0.0222
  939MOL0     C23837   1.717   1.270   8.600  0.1416 -0.1106 -0.8507
  939MOL0     C23838   1.686   1.318   8.745  0.3538  0.4163  0.8096
  939MOL0     C23839   1.538   1.325   8.780 -0.0326  0.0751 -0.2923
  939MOL0     O23840   1.450   1.375   8.678 -0.5101  0.6501  0.1543
  939MOL0     C23841   1.313   1.375   8.704  0.2996  0.2860  0.1920
  939MOL0     C23842   1.244   1.374   8.823 -0.1593 -0.8045  0.2794
  939MOL0     C23843   1.108   1.378   8.833 -0.2303 -0.0014 -0.3872
  939MOL0     C23844   1.031   1.398   8.721  0.3470 -0.6825 -1.2881
  939MOL0     C23845   0.887   1.421   8.730  0.8496  0.0415  0.2142
  939MOL0     O23846   0.811   1.413   8.616 -0.3019  0.2907  1.0513
  939MOL0     C23847   0.677   1.423   8.618  0.8352  0.3209  0.0585
  939MOL0     C23848   0.590   1.495   8.704 -0.6961  0.3529 -0.0564
  939MOL0     C23849   0.451   1.483   8.699 -0.0960  0.2034  0.6995
  939MOL0     C23850   0.392   1.400   8.607  0.2666 -0.4339  0.1048
  939MOL0     O23851   0.254   1.380   8.586  0.7367  0.1641  0.5547
  939MOL0     C23852   0.198   1.336   8.711  0.8611  0.5844 -0.1635
  939MOL0     C23853   0.048   1.354   8.698  0.0383  0.5763  0.0120
  939MOL0     C23854  -0.018   1.263   8.592  0.2932 -0.5555  0.3259
  939MOL0     C23855  -0.019   1.108   8.612 -1.2020 -0.7247  0.2652
  939MOL0     C23856  -0.085   1.031   8.494  0.3566 -0.1301  0.7973
  939MOL0     C23857  -0.237   1.061   8.483 -0.6289  0.7693 -0.6715
  939MOL0     C23858  -0.323   1.015   8.599  0.9824  0.1913  0.7198
  939MOL0     C23859  -0.473   0.995   8.542  0.2090 -0.3048  0.0513
  939MOL0    Cl23860  -0.552   1.149   8.484 -0.0020 -0.6787 -0.3168
  939MOL0     C23861   0.470   1.327   8.515  0.3842 -0.4314 -0.4752
  939MOL0     C23862   0.610   1.331   8.519 -0.4836 -0.6684  0.1170
  939MOL0     O23863   0.839   1.430   8.846 -0.2816 -0.3750  0.4540
  939MOL0     C23864   1.094   1.404   8.599 -0.7914  0.0353  0.4673
  939MOL0     C23865   1.236   1.384   8.588 -1.3894  0.3724 -0.1714
  939MOL0     N23866   1.921   1.492   8.578 -0.4375 -0.0839  0.8848
  939MOL0     N23867   1.999   1.581   8.534  0.0066 -0.2641 -0.1774
  939MOL0     C23868   2.904   2.469   8.044  0.2572  0.6223 -0.2446
  939MOL0     C23869   3.029   2.515   8.030 -1.0713 -0.2901  0.8512
  939MOL0     C23870   3.511   2.553   8.106  0.0307 -0.1407 -0.2564
  939MOL0     C23871   3.638   2.494   8.141 -0.1146 -0.5455 -0.0939
  939MOL0     C23872   3.756   2.552   8.086 -0.7190  0.1245  0.3866
  939MOL0     C23873   3.751   2.681   8.027 -0.8780  0.1317 -0.5269
  939MOL0     O23874   3.851   2.751   7.981 -0.0052  0.1351 -0.0852
  939MOL0     C23875   3.973   2.684   7.959 -1.2319  0.1528  0.2051
  939MOL0     C23876   4.065   2.758   7.859 -0.4406 -0.1123  0.5406
  939MOL0     C23877   4.204   2.703   7.832  0.1661 -0.6279 -0.0796
  939MOL0     C23878   4.210   2.549   7.815 -0.5547 -0.6658 -0.0237
  939MOL0     C23879   4.333   2.529   7.739  0.0515 -0.6818  0.6554
  939MOL0     C23880   4.436   2.512   7.678  0.3497 -0.3429 -0.6979
  939MOL0     C23881   3.626   2.744   8.015 -0.8574 -0.2933  0.1713
  939MOL0     C23882   3.507   2.683   8.042  0.2461 -0.1329  0.5038
  939MOL0     H23883   3.169   2.324   8.271 -1.3935 -1.1264  0.7626
  939MOL0     H23884   2.952   2.258   8.299 -0.3183 -1.9803 -1.8027
  939MOL0     H23885   2.710   2.249   8.345 -0.0512 -2.8283  0.7751
  939MOL0     H23886   2.780   2.144   8.219 -0.5539 -1.4174  0.3931
  939MOL0     H23887   2.556   2.165   8.088 -0.1739  0.9941 -0.7258
  939MOL0     H23888   2.514   2.290   8.200 -1.1369 -0.4649 -0.5876
  939MOL0     H23889   2.530   2.091   8.380  1.7721 -0.2405 -0.9693
  939MOL0     H23890   2.532   1.986   8.237  2.2308  0.5036  1.6063
  939MOL0     H23891   2.331   2.206   8.293 -0.0744  0.5518  1.8870
  939MOL0     H23892   2.319   2.083   8.168  3.0846  1.5577 -1.8078
  939MOL0     H23893   2.261   2.058   8.470 -0.1245 -0.2220  0.5689
  939MOL0     H23894   2.348   1.926   8.402 -1.7820  0.2206  2.7619
  939MOL0     H23895   2.165   1.920   8.212  0.3890 -0.6987  0.0704
  939MOL0     H23896   2.076   2.020   8.331 -0.5585  0.6494 -0.8048
  939MOL0     H23897   2.194   1.759   8.439 -1.0520 -1.6502 -1.5218
  939MOL0     H23898   2.063   1.859   8.495 -3.4006 -1.3644 -1.2383
  939MOL0     H23899   2.075   1.684   8.265  0.7437  2.0044  0.5400
  939MOL0     H23900   1.936   1.799   8.285  0.2949  0.4100 -1.4874
  939MOL0     H23901   1.741   1.584   8.329 -1.2291 -0.7471 -0.0738
  939MOL0     H23902   1.700   1.326   8.403 -1.7049 -0.5601  0.4820
  939MOL0     H23903   1.602   1.441   8.511  0.6671  3.3470 -1.5338
  939MOL0     H23904   1.812   1.218   8.592 -0.7552 -1.8261 -0.8625
  939MOL0     H23905   1.652   1.186   8.575  2.2319 -1.5159 -1.8619
  939MOL0     H23906   1.746   1.257   8.814  2.5462  0.2282 -1.1189
  939MOL0     H23907   1.733   1.416   8.757  2.2603 -0.6279  2.4201
  939MOL0     H23908   1.533   1.387   8.870 -0.4645 -0.5774  0.1364
  939MOL0     H23909   1.507   1.223   8.800  0.3753  0.5466  3.5174
  939MOL0     H23910   1.300   1.384   8.916 -0.6747 -2.7059  0.8359
  939MOL0     H23911   1.072   1.374   8.935  4.8784  1.0922  1.7969
  939MOL0     H23912   0.630   1.553   8.787  0.9691  1.4826 -1.5784
  939MOL0     H23913   0.408   1.549   8.772  0.7135  1.1896  0.3061
  939MOL0     H23914   0.235   1.395   8.794  2.1273  2.9163 -2.2577
  939MOL0     H23915   0.226   1.230   8.714 -0.9345  0.0272 -1.2011
  939MOL0     H23916   0.042   1.457   8.660  1.8395  2.2791  3.7631
  939MOL0     H23917   0.001   1.348   8.797 -1.2045 -0.2668 -0.6030
  939MOL0     H23918   0.028   1.278   8.494  0.2835 -0.7780  0.2868
  939MOL0     H23919  -0.124   1.288   8.588  0.3886 -0.2273 -3.1568
  939MOL0     H23920   0.088   1.083   8.616 -0.7537  0.8394 -0.9402
  939MOL0     H23921  -0.066   1.083   8.708 -1.0391  1.6797  1.0457
  939MOL0     H23922  -0.068   0.923   8.488  0.5721 -0.0704  0.2894
  939MOL0     H23923  -0.041   1.061   8.398  1.9051  0.8026  1.7390
  939MOL0     H23924  -0.273   1.032   8.384  0.8223 -0.0006 -0.9888
  939MOL0     H23925  -0.248   1.169   8.475 -1.2339  0.6223 -2.1271
  939MOL0     H23926  -0.281   0.931   8.656  2.3077 -0.3494 -0.9692
  939MOL0     H23927  -0.329   1.101   8.666  2.1142  1.6123 -0.9544
  939MOL0     H23928  -0.539   0.948   8.616  2.5630 -1.3837  1.5738
  939MOL0     H23929  -0.470   0.931   8.454 -0.6184 -0.2394 -0.0330
  939MOL0     H23930   0.415   1.262   8.448  0.0313 -0.9613  0.3149
  939MOL0     H23931   0.662   1.262   8.453 -0.3866 -1.1108  0.6462
  939MOL0     H23932   1.040   1.422   8.507  1.5075  0.6405 -0.8427
  939MOL0     H23933   1.297   1.392   8.499 -1.8512 -0.6777 -0.5927
  939MOL0     H23934   2.813   2.496   7.992 -1.3547 -0.3765  1.9155
  939MOL0     H23935   3.041   2.598   7.960 -1.1899 -0.7202  0.3165
  939MOL0     H23936   3.647   2.400   8.194  0.2819 -0.7298 -0.4758
  939MOL0     H23937   3.851   2.501   8.099  0.1929  1.4006 -1.0874
  939MOL0     H23938   3.949   2.584   7.923 -0.1767  0.2988 -1.0090
  939MOL0     H23939   4.036   2.673   8.047  1.4587  0.4642 -1.5727
  939MOL0     H23940   4.002   2.772   7.770 -0.9232 -0.2626  0.8560
  939MOL0     H23941   4.089   2.857   7.898 -2.3222 -0.4885  2.8880
  939MOL0     H23942   4.268   2.725   7.918  0.1419  1.5962 -0.5651
  939MOL0     H23943   4.229   2.752   7.738 -2.1136 -0.2342 -0.5468
  939MOL0     H23944   4.201   2.507   7.915 -2.6589 -0.7131 -0.1894
  939MOL0     H23945   4.119   2.516   7.763 -1.6518  1.5860  0.3166
  939MOL0     H23946   4.520   2.481   7.620 -0.0271  0.4539 -1.6921
  939MOL0     H23947   3.634   2.847   7.980  0.9615  0.2776  1.9994
  939MOL0     H23948   3.417   2.725   8.001  0.6331 -0.3683 -0.6166
  940MOL0     O23949   0.021   9.631   8.852 -0.0303 -0.3484  0.1441
  940MOL0     C23950   0.041   9.656   8.734 -0.2228 -0.1723  0.0377
  940MOL0     O23951   0.155   9.663   8.666 -0.2378  1.0293  0.4077
  940MOL0     C23952   0.272   9.630   8.739 -0.0181 -0.6875 -0.1072
  940MOL0     C23953   0.286   9.518   8.813  0.1076 -0.2568 -0.7355
  940MOL0     C23954   0.405   9.480   8.879 -0.6396 -0.5802 -1.0561
  940MOL0     C23955   0.518   9.562   8.870  0.0738  0.9509  0.6229
  940MOL0     O23956   0.626   9.529   8.941  0.0975 -0.1493 -0.5350
  940MOL0     C23957   0.745   9.616   8.931  0.1256  0.1935  0.7411
  940MOL0     C23958   0.860   9.583   9.032  0.3218 -0.1014 -0.2822
  940MOL0     C23959   0.911   9.442   9.027 -0.7938 -0.2060  0.7938
  940MOL0     C23960   1.029   9.420   9.116  0.1733 -0.5376  0.4327
  940MOL0     C23961   1.051   9.290   9.170  0.1544  0.1590 -0.6682
  940MOL0     C23962   1.075   9.186   9.059  0.4428 -0.4942  0.3760
  940MOL0     C23963   1.093   9.036   9.095  0.6259 -0.1790 -0.5782
  940MOL0     C23964   1.118   8.934   8.989 -0.0174 -0.3008  0.4351
  940MOL0     N23965   1.024   8.913   8.877 -0.0087 -0.6789 -0.0355
  940MOL0     C23966   1.002   9.005   8.775  0.3432 -0.7634 -0.3009
  940MOL0     C23967   0.911   8.941   8.697  0.1343 -0.0539  0.2530
  940MOL0     C23968   0.834   8.989   8.571 -0.1934  0.0153 -0.3647
  940MOL0     C23969   0.912   9.078   8.471 -0.7628  0.0224 -0.3402
  940MOL0     C23970   0.817   9.124   8.358  0.7475  0.7197 -0.0605
  940MOL0     C23971   0.776   9.000   8.273  0.3808 -1.3148  1.1096
  940MOL0     O23972   0.695   9.015   8.154  0.1455 -0.4482 -0.0648
  940MOL0     C23973   0.557   9.015   8.178 -0.4770  0.6107  0.4290
  940MOL0     C23974   0.487   9.016   8.060  0.4411  0.3743  0.0044
  940MOL0     C23975   0.353   8.985   8.058  0.1847 -0.1251 -0.4419
  940MOL0     C23976   0.278   8.967   8.177 -0.3828 -0.4522 -0.3375
  940MOL0     C23977   0.136   8.941   8.180 -0.1015 -0.6486  0.6850
  940MOL0     O23978   0.071   8.914   8.302  0.5365 -0.1288  0.1056
  940MOL0     C23979  -0.066   8.898   8.297 -0.3803 -0.4638  0.2049
  940MOL0     C23980  -0.155   8.977   8.212 -0.4910 -0.1785 -0.0344
  940MOL0     C23981  -0.292   8.967   8.217  0.1793 -0.3217 -0.1001
  940MOL0     C23982  -0.350   8.875   8.312 -0.5052  0.6444  0.1031
  940MOL0     O23983  -0.484   8.851   8.331 -0.0107  0.1119 -0.1707
  940MOL0     C23984  -0.574   8.959   8.293 -0.7025  0.0685  0.1357
  940MOL0     C23985  -0.627   8.937   8.153 -0.1103  0.0368  1.2799
  940MOL0     C23986  -0.777   8.960   8.135  0.4011  0.2057 -0.8641
  940MOL0     C23987  -0.813   8.946   7.986 -0.2335  0.7898 -0.9097
  940MOL0     C23988  -0.970   8.982   7.962  0.2543  0.3313  0.1954
  940MOL0     C23989  -1.022   9.112   8.017 -0.4051 -0.0975 -0.4280
  940MOL0     C23990  -1.131   9.168   7.926 -0.6837  0.6654  0.7320
  940MOL0     C23991  -1.222   9.266   8.000  0.2284 -0.1286 -0.6127
  940MOL0    Cl23992  -1.330   9.343   7.881  0.3403 -0.1831 -0.2918
  940MOL0     C23993  -0.270   8.813   8.405 -0.4009  0.0916 -0.9407
  940MOL0     C23994  -0.126   8.827   8.396 -0.0116  0.4987  0.4544
  940MOL0     O23995   0.081   8.949   8.070 -0.4346  0.0634 -0.4048
  940MOL0     C23996   0.349   8.977   8.300 -0.9207 -0.0691 -0.4896
  940MOL0     C23997   0.491   8.988   8.300  0.1134  0.4651 -0.6339
  940MOL0     N23998   0.879   8.819   8.753  0.5009  0.1358 -0.9489
  940MOL0     N23999   0.958   8.800   8.853  0.9377 -0.6347 -0.3420
  940MOL0     C24000   0.506   9.679   8.791 -0.5695 -0.9396  0.5693
  940MOL0     C24001   0.386   9.711   8.730  0.3177  0.1779 -0.0493
  940MOL0     C24002  -0.083   9.676   8.654  0.2952 -1.2173 -0.0997
  940MOL0     C24003  -0.211   9.668   8.709  0.6263  0.7539 -1.2753
  940MOL0     C24004  -0.323   9.672   8.631  0.3422 -0.5586  0.7502
  940MOL0     C24005  -0.318   9.704   8.494  0.2313 -0.2903 -0.0320
  940MOL0     O24006  -0.426   9.737   8.410  0.0890 -0.1607  0.0482
  940MOL0     C24007  -0.556   9.747   8.476  0.5739 -0.3818 -0.2932
  940MOL0     C24008  -0.683   9.795   8.403 -0.6347 -1.0111  0.8740
  940MOL0     C24009  -0.634   9.899   8.295  1.1948 -0.3925 -0.4191
  940MOL0     C24010  -0.744   9.967   8.206 -0.0547  0.8927  0.5987
  940MOL0     C24011  -0.859  10.026   8.282 -0.3488  0.4157 -0.0988
  940MOL0     C24012  -0.951  10.087   8.330 -0.0010 -0.2896  0.0881
  940MOL0     C24013  -0.190   9.724   8.445 -0.3552  0.4676  0.0639
  940MOL0     C24014  -0.074   9.710   8.518  0.1101  0.9822 -0.6350
  940MOL0     H24015   0.209   9.444   8.829  1.5332 -1.8362 -0.9146
  940MOL0     H24016   0.421   9.385   8.929  3.6131  0.8526  0.7663
  940MOL0     H24017   0.713   9.718   8.956  3.2810  1.9754 -1.6554
  940MOL0     H24018   0.781   9.610   8.828 -2.4868  0.4638 -0.2699
  940MOL0     H24019   0.826   9.597   9.135 -0.3767 -1.1930 -0.3528
  940MOL0     H24020   0.948   9.645   9.012  1.3089 -2.4748 -4.5273
  940MOL0     H24021   0.941   9.401   8.930  0.9933  0.3199  1.0742
  940MOL0     H24022   0.825   9.385   9.063 -3.1296  1.9907 -0.9815
  940MOL0     H24023   1.112   9.463   9.059 -1.7546  0.6675 -1.6848
  940MOL0     H24024   1.022   9.477   9.209 -0.2558 -0.8072  0.5696
  940MOL0     H24025   0.960   9.254   9.219 -0.6628  2.5231 -0.3248
  940MOL0     H24026   1.136   9.297   9.238  0.0202 -0.6329 -0.4075
  940MOL0     H24027   1.166   9.213   9.004 -0.5648  3.3316  0.3321
  940MOL0     H24028   0.994   9.197   8.987  1.3792  0.1855 -0.6166
  940MOL0     H24029   1.178   9.035   9.163 -0.7106  1.0212  1.1787
  940MOL0     H24030   1.012   8.990   9.152  1.0006 -0.6003 -0.3779
  940MOL0     H24031   1.117   8.838   9.041  1.3562 -0.6254 -0.0872
  940MOL0     H24032   1.220   8.944   8.949 -0.9767  2.1017 -1.6700
  940MOL0     H24033   1.047   9.102   8.759 -0.7710 -0.1533  0.0872
  940MOL0     H24034   0.741   9.036   8.604  1.3962  2.7737  0.5558
  940MOL0     H24035   0.798   8.902   8.515  0.1913  0.1126 -0.7706
  940MOL0     H24036   1.000   9.028   8.429 -1.4942 -0.0205 -1.8793
  940MOL0     H24037   0.944   9.171   8.518 -1.7877 -0.1290  0.7139
  940MOL0     H24038   0.728   9.169   8.404 -1.3296 -1.0660 -2.0940
  940MOL0     H24039   0.864   9.199   8.294  1.2703 -0.0609 -0.6046
  940MOL0     H24040   0.726   8.925   8.335  0.5538 -0.6988  2.0335
  940MOL0     H24041   0.870   8.957   8.239  0.1145 -0.8235 -0.3146
  940MOL0     H24042   0.532   9.034   7.964 -1.7230  3.0895 -0.6008
  940MOL0     H24043   0.314   8.980   7.956  0.8872 -1.6127 -0.6694
  940MOL0     H24044  -0.132   9.036   8.124 -1.9905  1.5737  0.6905
  940MOL0     H24045  -0.348   9.029   8.148  2.8257  1.7231 -0.6014
  940MOL0     H24046  -0.529   9.058   8.305  1.4625 -1.0800  2.2112
  940MOL0     H24047  -0.652   8.952   8.369 -0.3008 -0.4821  0.5051
  940MOL0     H24048  -0.597   8.839   8.114  1.0316  0.7481  0.2824
  940MOL0     H24049  -0.574   9.019   8.102 -0.3491 -0.5415  0.0641
  940MOL0     H24050  -0.803   9.064   8.158  0.0719  0.4434 -2.2209
  940MOL0     H24051  -0.830   8.890   8.201  4.3771 -2.8836 -0.5332
  940MOL0     H24052  -0.755   9.022   7.934 -0.7767  1.9628  0.1511
  940MOL0     H24053  -0.785   8.850   7.942 -0.8060  1.1585 -2.1091
  940MOL0     H24054  -1.019   8.902   8.018  1.0870  0.7354  1.5327
  940MOL0     H24055  -0.991   8.979   7.854 -0.9177 -1.3543  0.4271
  940MOL0     H24056  -0.931   9.174   8.016 -0.2631 -0.2406  1.1807
  940MOL0     H24057  -1.046   9.103   8.123  2.2263 -1.3059  0.1551
  940MOL0     H24058  -1.084   9.203   7.834  1.0463 -1.6963  0.5994
  940MOL0     H24059  -1.189   9.083   7.889  0.5176  0.4725 -0.8325
  940MOL0     H24060  -1.166   9.344   8.052 -0.2282 -0.0816 -0.1788
  940MOL0     H24061  -1.283   9.210   8.071  2.3038 -2.0714 -0.2558
  940MOL0     H24062  -0.318   8.753   8.481  0.6881 -0.5834 -0.7603
  940MOL0     H24063  -0.054   8.775   8.459  2.4035 -1.4916 -3.5367
  940MOL0     H24064   0.301   8.978   8.398  2.1165 -0.4623  1.1089
  940MOL0     H24065   0.524   8.985   8.403 -1.5192 -2.0774 -0.0818
  940MOL0     H24066   0.586   9.750   8.773 -2.3024  1.1026  0.4937
  940MOL0     H24067   0.378   9.794   8.660  0.3833 -1.6480 -2.3542
  940MOL0     H24068  -0.228   9.666   8.816  0.4116  0.3384 -1.3179
  940MOL0     H24069  -0.422   9.658   8.673 -0.5393  1.1438 -0.6595
  940MOL0     H24070  -0.535   9.827   8.547 -0.0089 -2.1016  1.9077
  940MOL0     H24071  -0.577   9.662   8.541 -0.7945  1.2393  1.4911
  940MOL0     H24072  -0.719   9.703   8.356  0.1855 -0.0972 -1.7049
  940MOL0     H24073  -0.748   9.841   8.478  2.0272 -1.3088  3.5205
  940MOL0     H24074  -0.563   9.848   8.229 -0.5819 -1.6711 -1.4272
  940MOL0     H24075  -0.577   9.976   8.348 -2.0298  1.0855  1.2315
  940MOL0     H24076  -0.694  10.044   8.148  0.0330  2.0036  2.0912
  940MOL0     H24077  -0.783   9.885   8.145 -1.7407 -0.4645  3.3018
  940MOL0     H24078  -1.028  10.157   8.355  0.7715  0.6804 -0.1778
  940MOL0     H24079  -0.174   9.754   8.342  0.6466  0.6517  0.2671
  940MOL0     H24080   0.020   9.738   8.472  1.8109  0.9822  2.5099
  941MOL0     O24081   5.133   5.364   0.898  0.4298  0.2418 -0.0061
  941MOL0     C24082   5.230   5.299   0.945  0.2577 -0.7019 -0.0158
  941MOL0     O24083   5.235   5.233   1.057 -1.4430 -0.5774 -0.2679
  941MOL0     C24084   5.117   5.191   1.113  0.2648  0.1543  0.2055
  941MOL0     C24085   5.069   5.060   1.090 -0.0535  0.3459 -0.7642
  941MOL0     C24086   4.936   5.027   1.139 -0.2371 -0.3598  0.1938
  941MOL0     C24087   4.862   5.126   1.203 -0.0101 -0.5282  0.1178
  941MOL0     O24088   4.743   5.093   1.260  0.6762 -0.7069  0.1104
  941MOL0     C24089   4.635   5.055   1.168 -0.6532 -0.1832  0.0675
  941MOL0     C24090   4.590   5.171   1.092 -0.3885  0.2156 -0.1240
  941MOL0     C24091   4.455   5.155   1.023  1.1156 -0.6610  0.6602
  941MOL0     C24092   4.347   5.162   1.129 -0.5398 -0.8902  0.7147
  941MOL0     C24093   4.201   5.158   1.078 -0.2588 -0.3063 -0.5467
  941MOL0     C24094   4.151   5.016   1.083 -0.1594  0.0059 -0.2877
  941MOL0     C24095   4.003   5.006   1.042 -0.2268  0.0858  0.5414
  941MOL0     C24096   3.969   4.860   1.023  0.1759 -0.5814  0.1569
  941MOL0     N24097   3.828   4.833   1.036 -0.3692 -0.6239 -0.2385
  941MOL0     C24098   3.722   4.918   1.000  0.3825  0.4548 -0.1767
  941MOL0     C24099   3.611   4.865   1.051 -0.0297 -0.7265  0.3660
  941MOL0     C24100   3.464   4.912   1.037 -0.5394  0.4053  0.2304
  941MOL0     C24101   3.405   4.978   1.159  0.2004 -0.2514  0.0309
  941MOL0     C24102   3.458   5.122   1.185  0.2986  0.2131  0.2924
  941MOL0     C24103   3.411   5.187   1.314  0.4902 -0.0548 -0.1360
  941MOL0     O24104   3.269   5.210   1.314 -0.0714  0.2678  0.1297
  941MOL0     C24105   3.199   5.213   1.438  0.7011 -0.9961 -0.0892
  941MOL0     C24106   3.064   5.173   1.423 -0.4947  0.5915 -0.2635
  941MOL0     C24107   2.999   5.138   1.539  0.2527  0.4198  0.5787
  941MOL0     C24108   3.045   5.161   1.667  0.4833 -0.4729 -0.1609
  941MOL0     C24109   2.968   5.114   1.784 -0.5218  1.0732 -0.2006
  941MOL0     O24110   2.832   5.108   1.771 -0.0739  0.1456 -0.3245
  941MOL0     C24111   2.756   5.071   1.882  0.3080 -0.0188 -0.4631
  941MOL0     C24112   2.759   5.125   2.007 -0.2208  0.5994  0.7050
  941MOL0     C24113   2.666   5.089   2.108 -0.1470  0.1872 -0.5446
  941MOL0     C24114   2.559   5.014   2.076 -0.5218 -0.1097  0.1669
  941MOL0     O24115   2.472   5.002   2.182 -0.2279 -0.8069 -0.2790
  941MOL0     C24116   2.399   4.881   2.188 -0.4215 -0.5965  0.2402
  941MOL0     C24117   2.353   4.872   2.328 -0.5201  0.5667 -1.1072
  941MOL0     C24118   2.225   4.949   2.364 -0.1951  0.7658  0.3800
  941MOL0     C24119   2.159   4.884   2.485 -0.3235  0.3901  0.3391
  941MOL0     C24120   2.036   4.955   2.536  0.1159  0.8568  0.3746
  941MOL0     C24121   2.047   5.087   2.605 -0.1112 -0.1324 -0.2652
  941MOL0     C24122   1.914   5.138   2.676 -0.1768 -0.4137  0.2881
  941MOL0     C24123   1.894   5.283   2.671 -0.0802 -0.5555  0.4425
  941MOL0    Cl24124   1.754   5.342   2.761  0.2085 -0.5223  0.0753
  941MOL0     C24125   2.539   4.966   1.944  0.2604  0.3027  0.0283
  941MOL0     C24126   2.642   4.990   1.850 -0.1820 -0.2060  0.5801
  941MOL0     O24127   3.032   5.095   1.886  0.3533  0.2206 -0.4278
  941MOL0     C24128   3.172   5.226   1.685  0.2544 -0.1842 -0.2088
  941MOL0     C24129   3.251   5.247   1.567  0.1962 -0.1356 -0.5897
  941MOL0     N24130   3.646   4.751   1.118  0.7410 -0.5553 -0.5259
  941MOL0     N24131   3.780   4.728   1.109 -0.1358  0.2253  0.1925
  941MOL0     C24132   4.923   5.251   1.242  1.4095 -0.3852  1.5909
  941MOL0     C24133   5.051   5.284   1.196  0.3440  0.8147 -0.0727
  941MOL0     C24134   5.360   5.312   0.878 -0.0117  0.0047 -0.3986
  941MOL0     C24135   5.470   5.234   0.926  0.0639  0.2230 -0.2243
  941MOL0     C24136   5.601   5.244   0.875 -0.0463 -0.5102 -0.1175
  941MOL0     C24137   5.622   5.342   0.770 -0.6064  0.1954 -0.7294
  941MOL0     O24138   5.739   5.377   0.714 -0.3590 -0.4609  0.4747
  941MOL0     C24139   5.853   5.303   0.751 -0.3400  0.3138 -0.5216
  941MOL0     C24140   5.973   5.364   0.675  0.1471  0.3068 -0.0413
  941MOL0     C24141   6.046   5.476   0.744  0.2053 -0.3416 -0.3981
  941MOL0     C24142   6.133   5.432   0.867 -0.3014 -0.4975  0.5691
  941MOL0     C24143   6.237   5.523   0.906  0.3376  0.2356  0.1627
  941MOL0     C24144   6.286   5.623   0.949 -0.0639  0.4887  0.2657
  941MOL0     C24145   5.518   5.427   0.731  0.3577 -0.8426  0.8980
  941MOL0     C24146   5.389   5.414   0.785  0.2129 -0.1744 -0.4195
  941MOL0     H24147   5.117   4.979   1.037 -1.0148  0.0170 -1.1553
  941MOL0     H24148   4.893   4.928   1.126  1.3163 -0.9257 -0.8242
  941MOL0     H24149   4.556   5.013   1.230 -1.4153  0.5847 -0.3729
  941MOL0     H24150   4.663   4.970   1.105 -1.6782  0.2058 -0.9566
  941MOL0     H24151   4.668   5.172   1.015 -0.1187  0.0706  0.1481
  941MOL0     H24152   4.597   5.256   1.160  0.5505  0.4436 -0.4929
  941MOL0     H24153   4.428   5.060   0.978  0.6347 -1.6155  2.8310
  941MOL0     H24154   4.432   5.231   0.948  0.8460 -2.5928 -1.3134
  941MOL0     H24155   4.368   5.091   1.210 -1.2198 -1.0175  0.7872
  941MOL0     H24156   4.357   5.261   1.173 -4.0464 -0.7744  1.6256
  941MOL0     H24157   4.194   5.191   0.974  0.1383  2.1477  0.1362
  941MOL0     H24158   4.131   5.216   1.139  0.3781 -0.7678  0.6587
  941MOL0     H24159   4.170   4.972   1.182  1.1083  1.7369  0.2940
  941MOL0     H24160   4.213   4.959   1.014 -1.6010  0.5032 -2.0822
  941MOL0     H24161   3.953   5.056   1.126  1.7746  0.9082  1.3048
  941MOL0     H24162   3.986   5.064   0.951  1.7910  1.4824  0.9915
  941MOL0     H24163   4.018   4.795   1.096 -0.5247 -2.2182 -0.7649
  941MOL0     H24164   4.006   4.829   0.925  1.9441 -0.2149  0.6775
  941MOL0     H24165   3.737   5.004   0.937  2.2732 -0.7492 -1.4548
  941MOL0     H24166   3.400   4.836   0.993  0.4142  0.0544 -0.5894
  941MOL0     H24167   3.461   4.990   0.960  0.7696  1.1477  0.8826
  941MOL0     H24168   3.420   4.920   1.251  0.6819 -0.8848 -0.4436
  941MOL0     H24169   3.298   4.991   1.144  0.3390  1.2661  0.1208
  941MOL0     H24170   3.567   5.130   1.185  0.2761  0.8513 -1.0667
  941MOL0     H24171   3.429   5.186   1.101  1.4442  1.0759  0.5231
  941MOL0     H24172   3.467   5.274   1.348 -0.6104  0.2572  0.9056
  941MOL0     H24173   3.421   5.109   1.390  2.7075 -0.7037 -1.0019
  941MOL0     H24174   3.034   5.148   1.322  0.4011 -0.5427 -0.2827
  941MOL0     H24175   2.910   5.078   1.525  1.1984 -1.0458  0.6342
  941MOL0     H24176   2.846   5.187   2.028  1.8094 -1.5628 -0.8589
  941MOL0     H24177   2.668   5.131   2.208  0.4496 -1.1956  0.0429
  941MOL0     H24178   2.455   4.792   2.161 -0.3248 -0.3856 -0.2600
  941MOL0     H24179   2.320   4.897   2.114  0.1518 -1.9821 -0.6957
  941MOL0     H24180   2.436   4.880   2.399 -1.0113 -4.3210  0.4330
  941MOL0     H24181   2.329   4.765   2.326 -1.4935  0.7577 -0.5012
  941MOL0     H24182   2.157   4.970   2.281  0.9354  4.5756  0.2048
  941MOL0     H24183   2.255   5.051   2.389  0.9659  0.8038 -1.0276
  941MOL0     H24184   2.141   4.787   2.439 -0.9628  0.8379 -0.3877
  941MOL0     H24185   2.218   4.870   2.576 -1.7190  1.1441  1.3868
  941MOL0     H24186   1.992   4.882   2.605 -3.6478  0.9004 -1.7118
  941MOL0     H24187   1.966   4.969   2.453 -0.9255 -0.1326  1.0530
  941MOL0     H24188   2.071   5.163   2.530  1.6466 -0.1141  0.2841
  941MOL0     H24189   2.122   5.082   2.684 -0.8910 -0.2810  0.4888
  941MOL0     H24190   1.823   5.090   2.637  0.1296 -2.9346  2.3682
  941MOL0     H24191   1.925   5.103   2.779 -1.2813 -2.6145 -0.2719
  941MOL0     H24192   1.896   5.317   2.567 -2.4163 -0.0151  0.5158
  941MOL0     H24193   1.982   5.340   2.703  2.0975 -2.8051 -1.1877
  941MOL0     H24194   2.444   4.916   1.925 -2.0632  4.3013  0.0909
  941MOL0     H24195   2.631   4.961   1.746 -0.4181 -2.0612  1.0935
  941MOL0     H24196   3.220   5.260   1.776 -0.9845 -1.5991  1.0403
  941MOL0     H24197   3.346   5.298   1.576 -0.3784  0.5755  4.2530
  941MOL0     H24198   4.870   5.315   1.312 -0.5807  1.0290 -1.0434
  941MOL0     H24199   5.103   5.378   1.207 -0.7332  1.1683  2.8946
  941MOL0     H24200   5.464   5.170   1.013 -0.5358  1.0308  0.3438
  941MOL0     H24201   5.673   5.178   0.921  0.2829 -1.1896 -1.5589
  941MOL0     H24202   5.829   5.200   0.721  0.1148  0.1032 -0.1811
  941MOL0     H24203   5.874   5.318   0.857  1.0856 -2.1309 -0.3696
  941MOL0     H24204   6.055   5.294   0.660 -0.1335 -0.2175  0.7682
  941MOL0     H24205   5.941   5.393   0.575  0.4240 -0.1169 -0.2544
  941MOL0     H24206   5.979   5.552   0.784  2.1906  0.3489  1.8010
  941MOL0     H24207   6.105   5.534   0.673  2.0749  0.1200  1.4435
  941MOL0     H24208   6.076   5.393   0.952 -0.1244 -3.1814 -0.4436
  941MOL0     H24209   6.189   5.346   0.829  0.8883  0.5285 -0.0670
  941MOL0     H24210   6.332   5.716   0.976  2.9329 -0.8389  0.1697
  941MOL0     H24211   5.540   5.506   0.660 -0.2122 -1.6566 -0.2063
  941MOL0     H24212   5.316   5.489   0.758 -0.2650 -0.9230 -1.2757
  942MOL0     O24213  10.047  11.241   0.660  0.0237  0.5031 -0.8893
  942MOL0     C24214  10.100  11.288   0.763  0.1938 -0.0186  0.1609
  942MOL0     O24215  10.034  11.368   0.857 -0.7038  0.2650 -0.0110
  942MOL0     C24216   9.907  11.418   0.853 -0.6353 -0.3227  0.4466
  942MOL0     C24217   9.836  11.451   0.737  0.7639  0.5785  0.6317
  942MOL0     C24218   9.701  11.482   0.750  0.2370  0.0797  0.4490
  942MOL0     C24219   9.629  11.484   0.871 -0.4178  0.5406  0.8859
  942MOL0     O24220   9.492  11.530   0.871  0.2656 -0.5277  0.4147
  942MOL0     C24221   9.428  11.531   0.997  0.1500 -0.1809 -1.0232
  942MOL0     C24222   9.281  11.508   0.974  0.0627 -0.9154 -0.3041
  942MOL0     C24223   9.207  11.546   1.104 -0.4178  0.0748 -0.9637
  942MOL0     C24224   9.060  11.564   1.077 -0.2610 -0.2047 -0.1894
  942MOL0     C24225   8.970  11.538   1.195  0.0534  0.1675 -0.8623
  942MOL0     C24226   8.824  11.570   1.161 -0.2018  1.1536  0.9148
  942MOL0     C24227   8.722  11.550   1.270  0.0919 -0.2291  0.9679
  942MOL0     C24228   8.579  11.597   1.220  0.3470  0.3939 -0.1995
  942MOL0     N24229   8.475  11.566   1.317  0.3910  0.7959 -0.0425
  942MOL0     C24230   8.354  11.501   1.296 -0.4095  0.8524 -0.4988
  942MOL0     C24231   8.309  11.468   1.414 -0.2630  0.8597 -0.3310
  942MOL0     C24232   8.195  11.374   1.432  0.1856 -0.1929  0.3200
  942MOL0     C24233   8.087  11.415   1.536  0.2027  0.0227 -0.0702
  942MOL0     C24234   7.966  11.331   1.503  0.9458 -0.1254 -0.4585
  942MOL0     C24235   7.858  11.357   1.602  0.4306  0.2400  0.0878
  942MOL0     O24236   7.730  11.335   1.546  0.1703 -0.5431  0.3310
  942MOL0     C24237   7.625  11.351   1.632  0.0227 -0.0051 -0.4819
  942MOL0     C24238   7.632  11.337   1.773 -0.5649  0.6052 -0.6933
  942MOL0     C24239   7.522  11.356   1.860 -0.2956  0.3978  0.3100
  942MOL0     C24240   7.396  11.372   1.799 -1.0354  0.2056 -0.0480
  942MOL0     C24241   7.285  11.375   1.890  0.5686  0.2302 -0.0427
  942MOL0     O24242   7.293  11.313   2.015 -0.3607 -0.2529 -0.0971
  942MOL0     C24243   7.173  11.307   2.081 -0.4805 -0.1442 -0.0046
  942MOL0     C24244   7.056  11.236   2.033 -0.0166  0.0170 -0.1235
  942MOL0     C24245   6.940  11.232   2.108  0.6247 -0.6424  0.5928
  942MOL0     C24246   6.938  11.303   2.232 -0.1944 -0.2896 -0.1237
  942MOL0     O24247   6.834  11.313   2.316  0.0095 -0.7301  0.5247
  942MOL0     C24248   6.717  11.233   2.298 -0.5222 -0.2386  0.0915
  942MOL0     C24249   6.720  11.093   2.348 -0.4339 -0.5059  0.0349
  942MOL0     C24250   6.588  11.012   2.354  0.3343  0.4150 -0.4774
  942MOL0     C24251   6.486  11.070   2.456 -0.7789  0.0142 -0.2876
  942MOL0     C24252   6.401  10.957   2.501  0.3429 -0.4015  1.2311
  942MOL0     C24253   6.251  10.973   2.436 -0.4571 -0.3189  0.0989
  942MOL0     C24254   6.147  10.884   2.501  0.1119 -0.5950 -0.7054
  942MOL0     C24255   6.019  10.962   2.513  0.2443 -0.2564 -0.3677
  942MOL0    Cl24256   5.969  11.037   2.358 -0.0678  0.6137  0.0018
  942MOL0     C24257   7.053  11.375   2.281 -0.6338  0.2314  0.6618
  942MOL0     C24258   7.167  11.379   2.198  0.8987  0.1149 -1.0041
  942MOL0     O24259   7.179  11.431   1.851  0.3821 -0.4585 -0.2473
  942MOL0     C24260   7.384  11.386   1.656 -0.2903  0.9433  0.0319
  942MOL0     C24261   7.499  11.378   1.578 -0.4545 -0.0107 -0.3452
  942MOL0     N24262   8.374  11.540   1.511 -1.2483  0.4551 -0.4225
  942MOL0     N24263   8.476  11.585   1.451  0.3644 -0.4986  0.0690
  942MOL0     C24264   9.715  11.449   0.983  0.5293  0.4261  0.3113
  942MOL0     C24265   9.846  11.427   0.979 -0.5507 -0.4496  0.4531
  942MOL0     C24266  10.240  11.262   0.804  0.6109  0.1385  1.1148
  942MOL0     C24267  10.332  11.221   0.708 -0.1462  0.7336  0.7836
  942MOL0     C24268  10.468  11.197   0.736 -0.0193  0.5712  0.4087
  942MOL0     C24269  10.517  11.199   0.865  0.1204  0.2928 -0.5361
  942MOL0     O24270  10.643  11.157   0.902 -0.3541 -0.4052  0.3094
  942MOL0     C24271  10.747  11.204   0.824  0.1307 -0.0917 -0.4027
  942MOL0     C24272  10.885  11.165   0.868 -0.1685 -0.5794  0.0480
  942MOL0     C24273  10.921  11.015   0.847  0.4431  0.7241  0.1596
  942MOL0     C24274  11.066  10.984   0.875  0.2657 -0.1371 -0.0450
  942MOL0     C24275  11.144  11.016   0.755  0.0951 -1.4089  0.1723
  942MOL0     C24276  11.200  11.033   0.649  0.7318 -0.0177 -0.7501
  942MOL0     C24277  10.426  11.246   0.968 -0.4482  0.5554  1.2841
  942MOL0     C24278  10.293  11.280   0.937 -0.1178 -0.7636 -0.7498
  942MOL0     H24279   9.884  11.454   0.640 -0.5510 -0.6933 -0.0971
  942MOL0     H24280   9.658  11.506   0.654  2.8443  1.2015 -0.5355
  942MOL0     H24281   9.444  11.631   1.038  0.7752  0.1275 -1.9901
  942MOL0     H24282   9.468  11.459   1.069 -1.4185  0.4059  0.4905
  942MOL0     H24283   9.265  11.403   0.948 -0.7890 -0.3528 -2.2648
  942MOL0     H24284   9.246  11.566   0.888  2.9513  1.2663 -0.1976
  942MOL0     H24285   9.244  11.641   1.143 -1.8739  0.3367 -0.1102
  942MOL0     H24286   9.220  11.461   1.172 -0.1902  1.1982  0.4451
  942MOL0     H24287   9.049  11.667   1.043  1.9219  0.3686  0.7109
  942MOL0     H24288   9.033  11.501   0.992 -3.0810 -0.8655  1.0831
  942MOL0     H24289   8.990  11.608   1.277  1.3129 -0.2162 -0.8224
  942MOL0     H24290   8.980  11.436   1.234  2.2985  1.4896  2.4305
  942MOL0     H24291   8.796  11.507   1.076 -0.4289 -0.6265  2.2351
  942MOL0     H24292   8.821  11.675   1.132  1.0824  0.6814 -1.1090
  942MOL0     H24293   8.718  11.445   1.299 -0.5481 -0.6255 -0.4627
  942MOL0     H24294   8.753  11.605   1.359 -0.0628  0.3012  0.7004
  942MOL0     H24295   8.546  11.558   1.124  0.4756  2.8857 -1.3545
  942MOL0     H24296   8.584  11.706   1.205 -2.6315  0.8743  1.5214
  942MOL0     H24297   8.303  11.471   1.205 -1.8676 -2.5365  1.2156
  942MOL0     H24298   8.231  11.278   1.470  1.0564  0.5240  1.3791
  942MOL0     H24299   8.166  11.341   1.332 -1.3988 -0.9487  0.9925
  942MOL0     H24300   8.064  11.520   1.519 -1.1288  0.1346  2.0667
  942MOL0     H24301   8.123  11.390   1.636  2.0113 -3.8219 -1.4880
  942MOL0     H24302   7.932  11.361   1.403  0.1540  2.0463  0.4242
  942MOL0     H24303   7.978  11.222   1.498 -2.5486 -0.6032 -2.1020
  942MOL0     H24304   7.867  11.454   1.652 -0.9003  1.6935 -2.3322
  942MOL0     H24305   7.883  11.280   1.676 -0.5120 -1.0377 -0.8628
  942MOL0     H24306   7.724  11.310   1.823 -0.3481  0.8845 -0.9404
  942MOL0     H24307   7.531  11.343   1.967  4.5304  2.0206  0.3418
  942MOL0     H24308   7.052  11.188   1.935 -1.3212 -0.3088  0.0698
  942MOL0     H24309   6.852  11.192   2.059  0.2569 -1.9395  2.1890
  942MOL0     H24310   6.686  11.232   2.193 -0.7954  1.0264  0.1488
  942MOL0     H24311   6.638  11.281   2.356 -0.1157 -1.1733  1.4519
  942MOL0     H24312   6.766  11.091   2.448  1.4884  0.9636 -0.7567
  942MOL0     H24313   6.791  11.045   2.281  0.9712  0.9607  0.4028
  942MOL0     H24314   6.606  10.905   2.363  0.5701  0.5721  1.2069
  942MOL0     H24315   6.534  11.015   2.258  0.7322  0.0571 -0.7134
  942MOL0     H24316   6.539  11.109   2.543 -2.8042 -1.4851  1.7518
  942MOL0     H24317   6.430  11.155   2.415  1.8699  1.4786 -1.0513
  942MOL0     H24318   6.377  10.965   2.607 -1.4205  0.4920  0.7960
  942MOL0     H24319   6.441  10.862   2.464  0.7033 -0.1819  1.0488
  942MOL0     H24320   6.250  10.959   2.327 -2.5602  1.5587 -0.2106
  942MOL0     H24321   6.225  11.079   2.444 -3.1455 -0.6332 -2.4552
  942MOL0     H24322   6.127  10.815   2.419  1.2979  0.4370 -1.9048
  942MOL0     H24323   6.184  10.831   2.590  2.9532  1.4645 -0.5416
  942MOL0     H24324   6.043  11.038   2.588  0.2442 -1.0439  0.4438
  942MOL0     H24325   5.937  10.901   2.552 -0.8068  0.5208 -1.2833
  942MOL0     H24326   7.058  11.437   2.370  0.5202  3.1439 -1.2786
  942MOL0     H24327   7.254  11.419   2.249 -0.9894  2.5630  0.5862
  942MOL0     H24328   7.294  11.423   1.608  1.5327  2.7151 -2.3088
  942MOL0     H24329   7.499  11.377   1.469  1.2436  0.6181 -0.3814
  942MOL0     H24330   9.687  11.452   1.088 -1.7238  2.0397 -0.2527
  942MOL0     H24331   9.901  11.404   1.070 -1.1313  2.0240  1.5066
  942MOL0     H24332  10.308  11.214   0.602 -0.7707  2.1846  0.8031
  942MOL0     H24333  10.536  11.177   0.654 -1.7435 -2.8190 -0.3719
  942MOL0     H24334  10.748  11.313   0.827  1.9260 -0.0675 -0.6418
  942MOL0     H24335  10.735  11.176   0.719 -1.0630  1.7553 -0.8070
  942MOL0     H24336  10.953  11.226   0.808  1.1550  0.5606  2.5787
  942MOL0     H24337  10.889  11.191   0.974  0.4661 -1.2795  0.2069
  942MOL0     H24338  10.895  10.994   0.743 -0.6204  2.1568  0.1013
  942MOL0     H24339  10.851  10.956   0.906 -1.8213  0.4913 -2.5779
  942MOL0     H24340  11.100  11.036   0.965  0.1981  1.7227 -1.0391
  942MOL0     H24341  11.081  10.876   0.887  0.0560 -0.3337 -1.4368
  942MOL0     H24342  11.248  11.040   0.553 -0.3340  0.4446 -1.2683
  942MOL0     H24343  10.467  11.253   1.068  1.1647 -1.3427  0.8204
  942MOL0     H24344  10.230  11.307   1.021 -0.0685  1.1993 -1.2821
  943MOL0     O24345   9.170   0.991   3.343 -0.0386 -0.2168 -0.6533
  943MOL0     C24346   9.151   0.966   3.229  0.5749 -0.2341  0.1268
  943MOL0     O24347   9.027   0.965   3.164  0.4412  0.2455  0.1905
  943MOL0     C24348   8.912   1.012   3.232 -0.6236  0.1424  0.3338
  943MOL0     C24349   8.917   1.118   3.321  0.0625  0.1391  0.3385
  943MOL0     C24350   8.803   1.160   3.384  0.7545  0.1939 -1.6472
  943MOL0     C24351   8.680   1.090   3.368  0.4656 -0.2031  0.0572
  943MOL0     O24352   8.577   1.140   3.439  0.5065  0.6505  0.2298
  943MOL0     C24353   8.442   1.091   3.427  0.6183 -0.2946  0.9908
  943MOL0     C24354   8.348   1.175   3.516  0.1437  0.3337 -0.8315
  943MOL0     C24355   8.204   1.146   3.467  0.8146 -0.2370  0.4930
  943MOL0     C24356   8.107   1.239   3.539  0.0250  0.0191  0.5414
  943MOL0     C24357   7.965   1.183   3.516 -0.5666 -0.7248 -0.3167
  943MOL0     C24358   7.863   1.285   3.565  0.0055 -0.2255 -0.2257
  943MOL0     C24359   7.726   1.243   3.528  0.1905 -0.7604  0.1038
  943MOL0     C24360   7.677   1.099   3.563  0.2195  0.0011 -0.0207
  943MOL0     N24361   7.532   1.091   3.533  0.6686  0.4068 -0.5851
  943MOL0     C24362   7.430   1.125   3.612  0.1391 -0.6799 -0.4158
  943MOL0     C24363   7.319   1.080   3.543  0.0780  0.0205 -0.5184
  943MOL0     C24364   7.180   1.071   3.596 -0.2984  0.8044  0.8619
  943MOL0     C24365   7.126   1.207   3.660  0.4049  0.8229  0.0448
  943MOL0     C24366   7.005   1.168   3.752 -0.2918  0.2280  0.1912
  943MOL0     C24367   6.904   1.067   3.706 -0.3305 -0.2509 -0.6578
  943MOL0     O24368   6.837   1.032   3.830 -0.1822  0.4196  0.0671
  943MOL0     C24369   6.707   1.075   3.850 -0.3327  0.7822 -0.1885
  943MOL0     C24370   6.633   1.165   3.776 -0.0649  0.8292  0.5587
  943MOL0     C24371   6.500   1.199   3.806  0.1624 -0.8279  0.2193
  943MOL0     C24372   6.441   1.143   3.920  0.5283 -0.0229 -0.4042
  943MOL0     C24373   6.303   1.176   3.966 -0.3857  0.6752  0.1693
  943MOL0     O24374   6.238   1.260   3.879  0.4709 -0.3785  0.5446
  943MOL0     C24375   6.099   1.261   3.880 -0.1801  0.2374 -0.5757
  943MOL0     C24376   6.028   1.361   3.957  0.8092  0.5533 -0.3136
  943MOL0     C24377   5.886   1.373   3.955 -0.2976 -0.2813  0.7279
  943MOL0     C24378   5.812   1.285   3.871  0.7976  0.2270 -0.3432
  943MOL0     O24379   5.676   1.287   3.867  0.3719 -0.8455  0.2393
  943MOL0     C24380   5.614   1.302   3.732 -0.1948 -0.3146  0.2702
  943MOL0     C24381   5.461   1.324   3.770 -0.0186  0.8065 -0.3003
  943MOL0     C24382   5.361   1.353   3.656 -0.6709 -0.6291  0.0807
  943MOL0     C24383   5.217   1.383   3.716 -0.2347 -0.2686 -0.3935
  943MOL0     C24384   5.103   1.378   3.612 -0.1062 -0.0395  0.1024
  943MOL0     C24385   4.978   1.441   3.671  0.0303  0.3225 -1.1665
  943MOL0     C24386   4.913   1.343   3.780 -0.0200 -0.6994 -0.7427
  943MOL0     C24387   4.779   1.411   3.824  0.8372 -0.1200  0.1015
  943MOL0    Cl24388   4.640   1.416   3.707  0.1082  0.2984  0.1353
  943MOL0     C24389   5.881   1.194   3.789 -0.2439 -0.3223  0.0827
  943MOL0     C24390   6.022   1.182   3.801 -0.9653 -0.0831 -0.6597
  943MOL0     O24391   6.260   1.133   4.074  0.2992  0.5190  0.7253
  943MOL0     C24392   6.516   1.050   3.999  0.0273 -0.0566 -0.2662
  943MOL0     C24393   6.645   1.019   3.963 -0.6773 -0.7871 -0.9072
  943MOL0     N24394   7.349   1.036   3.424 -0.4463  0.3760  1.0338
  943MOL0     N24395   7.477   1.041   3.422  0.8291  0.9180 -0.5317
  943MOL0     C24396   8.673   0.979   3.288 -0.8840 -0.2569 -0.3874
  943MOL0     C24397   8.789   0.936   3.218  0.9988  0.0160  0.4320
  943MOL0     C24398   9.270   0.938   3.148  0.3829 -0.0348  0.1546
  943MOL0     C24399   9.261   0.884   3.018 -0.5210  0.1632  0.5300
  943MOL0     C24400   9.372   0.874   2.931 -0.3229  0.1975 -0.5148
  943MOL0     C24401   9.499   0.919   2.979 -0.6976 -0.6640  0.1899
  943MOL0     O24402   9.611   0.916   2.891  0.7160  0.2928  0.2639
  943MOL0     C24403   9.639   0.791   2.821 -0.5867  0.4669 -0.0018
  943MOL0     C24404   9.740   0.708   2.902 -1.1369  0.2211  0.0808
  943MOL0     C24405   9.670   0.639   3.023 -0.6243  0.3428  0.3637
  943MOL0     C24406   9.742   0.516   3.077 -0.0827 -0.2559  0.5443
  943MOL0     C24407   9.873   0.550   3.149 -0.2016 -0.9293  1.0365
  943MOL0     C24408   9.972   0.580   3.209 -0.6265 -0.1323  0.3121
  943MOL0     C24409   9.511   0.961   3.117 -0.6167  0.0196  0.5273
  943MOL0     C24410   9.395   0.967   3.197  0.6073 -0.8037  0.7759
  943MOL0     H24411   9.002   1.183   3.338  0.2950  0.0356 -0.3985
  943MOL0     H24412   8.803   1.241   3.456 -0.9623  0.8078 -2.2900
  943MOL0     H24413   8.436   0.984   3.449  2.5004 -0.3051  1.5898
  943MOL0     H24414   8.425   1.098   3.319 -2.8524  1.5055  1.4979
  943MOL0     H24415   8.380   1.277   3.493 -0.1183  0.9698  1.4002
  943MOL0     H24416   8.368   1.162   3.622  2.3088 -1.9211 -1.4244
  943MOL0     H24417   8.178   1.044   3.494 -1.0598 -0.3102 -1.3206
  943MOL0     H24418   8.198   1.146   3.358  2.2024 -1.2691  0.3833
  943MOL0     H24419   8.133   1.233   3.645  3.4977 -0.1752 -0.1984
  943MOL0     H24420   8.112   1.340   3.499 -0.4623 -0.9580 -2.1841
  943MOL0     H24421   7.959   1.096   3.581 -3.0411 -1.7865 -1.8051
  943MOL0     H24422   7.935   1.154   3.415 -2.6019 -0.5324  0.1805
  943MOL0     H24423   7.889   1.385   3.530  1.9805 -1.2414 -1.8963
  943MOL0     H24424   7.858   1.291   3.674 -0.3670 -0.7068 -0.2115
  943MOL0     H24425   7.649   1.307   3.572  1.0942  0.7442 -0.4220
  943MOL0     H24426   7.706   1.266   3.423 -1.0281 -2.2435 -0.0219
  943MOL0     H24427   7.699   1.081   3.668 -0.1514  0.7915  0.2017
  943MOL0     H24428   7.726   1.019   3.507 -3.5526 -1.8443 -1.0401
  943MOL0     H24429   7.433   1.160   3.714  0.3950 -0.2700 -0.5617
  943MOL0     H24430   7.182   0.990   3.670  1.7251 -1.8608 -1.8404
  943MOL0     H24431   7.117   1.027   3.518 -0.3244 -0.1729  1.4061
  943MOL0     H24432   7.096   1.267   3.574 -1.3835 -0.9442 -0.6509
  943MOL0     H24433   7.209   1.252   3.716  3.6128 -2.7066 -1.4706
  943MOL0     H24434   7.041   1.140   3.851  2.0185 -1.9446 -1.1335
  943MOL0     H24435   6.943   1.256   3.771 -3.0195 -1.3527 -0.8109
  943MOL0     H24436   6.958   0.975   3.679 -0.0300 -0.2363 -0.1124
  943MOL0     H24437   6.835   1.093   3.625 -1.9446 -2.3195 -0.0188
  943MOL0     H24438   6.676   1.209   3.686  1.5528  0.3779  1.0708
  943MOL0     H24439   6.452   1.274   3.744  2.3061 -1.3846 -2.3207
  943MOL0     H24440   6.075   1.427   4.030 -1.3395  1.7936  0.0160
  943MOL0     H24441   5.847   1.455   4.014  1.2961  1.5369 -0.6104
  943MOL0     H24442   5.626   1.214   3.669 -0.8221  0.0834 -0.4194
  943MOL0     H24443   5.659   1.390   3.685  1.6351 -0.6468  1.3223
  943MOL0     H24444   5.460   1.405   3.844  1.7709  0.8949 -0.3391
  943MOL0     H24445   5.433   1.230   3.818  0.7815 -0.8840 -2.9233
  943MOL0     H24446   5.347   1.275   3.581 -1.4642  1.2595 -1.8444
  943MOL0     H24447   5.384   1.443   3.598 -1.9141 -1.0886 -1.1692
  943MOL0     H24448   5.190   1.303   3.786 -1.9550  2.3034  2.0995
  943MOL0     H24449   5.214   1.477   3.772 -0.1722  0.0199 -0.8670
  943MOL0     H24450   5.090   1.274   3.583 -0.4644 -0.1633  0.7074
  943MOL0     H24451   5.119   1.430   3.517 -3.6231 -0.6348 -0.9530
  943MOL0     H24452   4.910   1.466   3.589 -0.1581  3.4719 -0.1898
  943MOL0     H24453   5.007   1.533   3.723  2.1189 -1.3664  0.9022
  943MOL0     H24454   4.884   1.245   3.742 -2.0750 -0.7704  0.8237
  943MOL0     H24455   4.980   1.340   3.867  0.1968 -0.4495 -0.9006
  943MOL0     H24456   4.801   1.515   3.853  0.3289  0.2570 -0.8368
  943MOL0     H24457   4.742   1.361   3.914 -1.3643 -0.8057 -1.1115
  943MOL0     H24458   5.827   1.127   3.723 -4.5918  0.7196  2.1860
  943MOL0     H24459   6.067   1.105   3.738  0.1788 -0.3583  0.4654
  943MOL0     H24460   6.479   0.992   4.083  0.8015  2.6247  2.0538
  943MOL0     H24461   6.709   0.954   4.022  0.2919 -0.7056 -1.8440
  943MOL0     H24462   8.588   0.914   3.270 -0.7077 -0.5214 -0.2806
  943MOL0     H24463   8.779   0.846   3.158  1.8749  0.1292  0.1023
  943MOL0     H24464   9.168   0.846   2.977 -0.4916  1.2423 -0.5572
  943MOL0     H24465   9.365   0.831   2.832  0.6574  0.6336 -0.7872
  943MOL0     H24466   9.683   0.813   2.724 -0.7093 -1.1909 -0.4613
  943MOL0     H24467   9.549   0.733   2.798 -1.4341  1.3794  0.9023
  943MOL0     H24468   9.781   0.642   2.826 -0.1874  1.4471 -0.5009
  943MOL0     H24469   9.824   0.773   2.930  0.8736 -2.0892 -0.2129
  943MOL0     H24470   9.567   0.612   2.997 -0.3411 -0.3793 -0.0182
  943MOL0     H24471   9.661   0.719   3.097 -1.1941  1.6689 -1.0885
  943MOL0     H24472   9.679   0.460   3.146 -1.1882 -3.2037 -2.5368
  943MOL0     H24473   9.748   0.443   2.995  0.3411  0.6394 -0.2312
  943MOL0     H24474  10.064   0.610   3.256 -0.4327 -2.8577  1.8591
  943MOL0     H24475   9.610   0.983   3.158 -1.3110  1.6908  1.4138
  943MOL0     H24476   9.413   1.014   3.293 -1.4428  2.4612 -0.2672
  944MOL0     O24477   4.261   5.279   9.673  0.6661 -0.1538 -0.8717
  944MOL0     C24478   4.269   5.261   9.554  0.5554 -0.0284 -0.6117
  944MOL0     O24479   4.186   5.184   9.479  0.2708 -0.1761  0.0214
  944MOL0     C24480   4.082   5.117   9.534  0.2021  1.0309 -0.2101
  944MOL0     C24481   3.954   5.176   9.558  0.2556  0.5448 -0.2176
  944MOL0     C24482   3.852   5.095   9.611 -0.2287  0.0634  0.6279
  944MOL0     C24483   3.883   4.967   9.659  0.3610  0.5158  0.2671
  944MOL0     O24484   3.784   4.904   9.731  0.1375 -0.7077 -0.2149
  944MOL0     C24485   3.777   4.760   9.718 -0.6719 -1.0825 -0.2335
  944MOL0     C24486   3.666   4.701   9.804  0.4623  0.1181  0.1904
  944MOL0     C24487   3.657   4.548   9.784 -0.1918 -0.2118  0.6004
  944MOL0     C24488   3.559   4.495   9.893 -0.0315 -0.5434 -0.1554
  944MOL0     C24489   3.414   4.521   9.854 -0.5591  0.0634 -0.4188
  944MOL0     C24490   3.333   4.450   9.966  0.3175  0.2405  0.9889
  944MOL0     C24491   3.199   4.415   9.910  0.0804  0.1190 -0.3942
  944MOL0     C24492   3.110   4.535   9.892 -1.0946 -0.5181  0.6548
  944MOL0     N24493   2.970   4.482   9.858 -0.8001  0.3113 -0.4214
  944MOL0     C24494   2.882   4.525   9.761 -0.1252  0.3320 -0.1936
  944MOL0     C24495   2.771   4.453   9.787 -0.1970 -0.5255 -0.3045
  944MOL0     C24496   2.647   4.467   9.705  0.5891  0.7250 -0.0319
  944MOL0     C24497   2.538   4.550   9.790 -0.4308 -0.4169  0.0469
  944MOL0     C24498   2.421   4.579   9.707 -0.8278  0.8903  0.8154
  944MOL0     C24499   2.332   4.454   9.706  0.3376 -0.6702  0.9676
  944MOL0     O24500   2.228   4.490   9.617  0.0348 -0.2571 -0.0564
  944MOL0     C24501   2.104   4.540   9.671  0.5538 -0.1597 -1.5170
  944MOL0     C24502   1.992   4.521   9.594 -0.0477  0.8107 -0.3840
  944MOL0     C24503   1.867   4.551   9.639 -0.3214  0.4439  0.2224
  944MOL0     C24504   1.844   4.607   9.769 -0.2563 -0.9756 -0.2768
  944MOL0     C24505   1.712   4.651   9.815  0.0873  0.3085  0.1536
  944MOL0     O24506   1.690   4.687   9.948 -0.0885  0.6045  0.1673
  944MOL0     C24507   1.581   4.771   9.968  0.2639  0.2132 -0.2761
  944MOL0     C24508   1.464   4.717  10.028 -0.5243  0.2535  0.1044
  944MOL0     C24509   1.348   4.791  10.022  0.9311 -1.1403  0.0564
  944MOL0     C24510   1.353   4.920   9.979 -0.8767  0.9552  0.6740
  944MOL0     O24511   1.237   4.991   9.993 -0.2528  1.0248  0.0492
  944MOL0     C24512   1.240   5.058  10.116  0.0194 -0.2863 -0.5903
  944MOL0     C24513   1.099   5.121  10.145  0.1435  0.3862  0.4416
  944MOL0     C24514   0.978   5.045  10.083  0.0861 -0.0437 -0.1146
  944MOL0     C24515   0.837   5.101  10.117  0.0353  1.7120  0.4372
  944MOL0     C24516   0.743   5.042  10.012  0.0345 -0.4454  0.7569
  944MOL0     C24517   0.604   5.093  10.020  0.2222  0.4097 -0.0695
  944MOL0     C24518   0.524   5.053  10.145 -0.5316 -0.5207  0.5747
  944MOL0     C24519   0.418   5.168  10.179 -0.8388  1.3700 -0.3236
  944MOL0    Cl24520   0.327   5.188  10.045 -0.0974  0.0667  0.4565
  944MOL0     C24521   1.470   4.978   9.936  0.3896 -0.4263  0.2184
  944MOL0     C24522   1.587   4.904   9.927  0.0581  0.0285  0.3427
  944MOL0     O24523   1.622   4.651   9.728  0.3720 -0.4073  0.4179
  944MOL0     C24524   1.963   4.639   9.842  0.0683  0.2344 -0.8483
  944MOL0     C24525   2.081   4.593   9.802 -0.4150 -0.2095 -0.1713
  944MOL0     N24526   2.790   4.377   9.898  0.2863 -0.1036  0.2020
  944MOL0     N24527   2.908   4.399   9.941 -0.2214  0.3203 -0.3055
  944MOL0     C24528   4.012   4.918   9.648 -0.3075 -0.2878  0.4767
  944MOL0     C24529   4.110   4.986   9.575  0.7422  0.3090  0.4056
  944MOL0     C24530   4.387   5.316   9.493  0.2693 -0.4457 -0.4791
  944MOL0     C24531   4.444   5.257   9.379 -0.7075 -0.0102 -0.5533
  944MOL0     C24532   4.563   5.297   9.329 -0.1304 -0.1043  0.2268
  944MOL0     C24533   4.629   5.406   9.384  0.0287 -0.8081 -0.5596
  944MOL0     O24534   4.754   5.459   9.350  0.3599 -0.4801 -0.0533
  944MOL0     C24535   4.827   5.390   9.251  0.3632  0.5584 -0.2437
  944MOL0     C24536   4.933   5.477   9.178 -0.0112 -0.3036 -0.0134
  944MOL0     C24537   5.045   5.526   9.270 -0.2264 -0.1197 -0.4324
  944MOL0     C24538   5.136   5.615   9.188 -1.2267 -0.0571  0.3827
  944MOL0     C24539   5.258   5.548   9.131 -0.1445 -0.2207  0.0137
  944MOL0     C24540   5.355   5.491   9.077  0.1687  0.0737  1.4260
  944MOL0     C24541   4.569   5.471   9.490 -0.2518 -0.5186 -0.1020
  944MOL0     C24542   4.451   5.428   9.550 -0.6181 -0.0767  0.8501
  944MOL0     H24543   3.933   5.282   9.543 -0.6988  0.4596  0.4297
  944MOL0     H24544   3.753   5.131   9.641 -0.5678 -1.8259  1.9332
  944MOL0     H24545   3.872   4.715   9.750  1.1008  0.0994 -3.3734
  944MOL0     H24546   3.754   4.739   9.613 -0.5474  1.2032 -0.7667
  944MOL0     H24547   3.570   4.743   9.773  0.0233 -1.1927 -0.2917
  944MOL0     H24548   3.688   4.723   9.908 -3.7807 -0.3287  1.3788
  944MOL0     H24549   3.748   4.488   9.792  0.8812  1.0166 -1.4064
  944MOL0     H24550   3.617   4.532   9.683 -0.5612 -2.1774  1.0300
  944MOL0     H24551   3.581   4.390   9.915  0.1132 -0.1728  1.6837
  944MOL0     H24552   3.578   4.548   9.987 -3.2508 -1.4277  1.1458
  944MOL0     H24553   3.391   4.471   9.759 -0.7725 -1.5627  0.4543
  944MOL0     H24554   3.394   4.628   9.845  1.0460  0.2379 -3.1297
  944MOL0     H24555   3.319   4.517  10.050 -3.2498 -0.1766  0.8786
  944MOL0     H24556   3.382   4.359  10.003 -1.5696 -1.1564  0.2316
  944MOL0     H24557   3.190   4.356   9.818 -2.8818  0.0403 -0.1454
  944MOL0     H24558   3.148   4.366   9.993  1.7652 -0.8561  0.1055
  944MOL0     H24559   3.143   4.597   9.809 -1.5412  1.0354  1.5883
  944MOL0     H24560   3.102   4.605   9.976 -0.4267  1.4408 -0.8278
  944MOL0     H24561   2.899   4.602   9.686  1.8806 -1.1687 -1.3908
  944MOL0     H24562   2.604   4.371   9.677 -2.5765  2.1603 -0.5977
  944MOL0     H24563   2.679   4.517   9.613  0.5527  2.7270  0.9698
  944MOL0     H24564   2.574   4.647   9.825  0.4109 -0.8030  0.2793
  944MOL0     H24565   2.512   4.497   9.882  0.8121  1.6885  1.6946
  944MOL0     H24566   2.364   4.657   9.759 -0.8875 -0.0867  2.2785
  944MOL0     H24567   2.443   4.605   9.603 -0.2256  0.3440  0.7972
  944MOL0     H24568   2.290   4.436   9.805 -1.2492  0.5966  0.5858
  944MOL0     H24569   2.386   4.367   9.668 -0.0788 -0.4490 -0.1835
  944MOL0     H24570   2.011   4.483   9.495  3.2704  1.6535 -0.1850
  944MOL0     H24571   1.786   4.545   9.566  0.4564  3.5315 -1.0561
  944MOL0     H24572   1.469   4.616  10.065  1.3206 -0.3276 -1.5481
  944MOL0     H24573   1.247   4.755  10.036  1.4252 -2.4306  0.4205
  944MOL0     H24574   1.310   5.140  10.134 -0.9901  0.1947  1.5523
  944MOL0     H24575   1.256   4.986  10.197  3.3126 -2.1142 -2.6398
  944MOL0     H24576   1.097   5.224  10.109  1.0149  0.3736  0.3385
  944MOL0     H24577   1.076   5.116  10.252  2.5772 -0.1750  1.0027
  944MOL0     H24578   0.991   4.942  10.118 -2.0251 -0.2094  0.2929
  944MOL0     H24579   0.994   5.039   9.974  1.0854 -1.8581  0.0884
  944MOL0     H24580   0.805   5.075  10.218  0.5373  0.3567  0.2618
  944MOL0     H24581   0.839   5.211  10.117  0.7423  1.7373  2.3648
  944MOL0     H24582   0.753   4.933  10.017  1.1864 -0.3806  0.0169
  944MOL0     H24583   0.781   5.066   9.912 -0.9175  2.4310  0.9985
  944MOL0     H24584   0.549   5.057   9.932  0.9274 -2.2708  0.5054
  944MOL0     H24585   0.610   5.202  10.008 -0.6568  0.4987  0.2604
  944MOL0     H24586   0.480   4.954  10.127  3.4989 -2.3815 -0.0338
  944MOL0     H24587   0.585   5.040  10.235  0.9495 -2.6167 -0.6610
  944MOL0     H24588   0.474   5.259  10.204  0.1116  0.6304  0.3416
  944MOL0     H24589   0.362   5.131  10.265  2.4128  0.2492  1.5174
  944MOL0     H24590   1.463   5.083   9.910  2.1124 -0.8934 -2.5263
  944MOL0     H24591   1.677   4.949   9.886 -0.6205 -0.7590 -2.2305
  944MOL0     H24592   1.959   4.672   9.945  2.3071 -0.2427 -0.5541
  944MOL0     H24593   2.173   4.604   9.858  1.5079 -1.7758 -2.7591
  944MOL0     H24594   4.041   4.824   9.692 -1.3335 -1.3212 -0.9740
  944MOL0     H24595   4.210   4.959   9.544  0.7645  0.1065  0.6542
  944MOL0     H24596   4.398   5.172   9.329  1.0716  0.3599 -2.9579
  944MOL0     H24597   4.596   5.228   9.253 -0.1490  0.2681 -0.1201
  944MOL0     H24598   4.759   5.358   9.172 -0.3659  2.4244 -0.4333
  944MOL0     H24599   4.862   5.295   9.294  0.8904 -0.1281 -2.1248
  944MOL0     H24600   4.981   5.411   9.105 -1.8321 -2.2215  0.4117
  944MOL0     H24601   4.877   5.556   9.128  0.5151 -1.6108 -2.8587
  944MOL0     H24602   5.099   5.437   9.302  0.7359  0.6024 -0.0199
  944MOL0     H24603   5.009   5.585   9.356 -2.4593 -0.6431 -0.9378
  944MOL0     H24604   5.079   5.666   9.110  1.1498 -0.1427 -1.5569
  944MOL0     H24605   5.187   5.686   9.253  1.8234 -0.7829 -1.0029
  944MOL0     H24606   5.435   5.429   9.040 -1.1386  0.2255 -2.0275
  944MOL0     H24607   4.621   5.557   9.531  0.2921 -1.4711  1.2738
  944MOL0     H24608   4.406   5.466   9.641 -0.9902  1.0977  0.1867
  945MOL0     O24609   6.004   7.863   5.323  0.2841  0.6726  0.3092
  945MOL0     C24610   6.058   7.970   5.355  0.3412  0.1700 -0.3863
  945MOL0     O24611   5.985   8.081   5.391  0.4648 -0.2422  0.4404
  945MOL0     C24612   5.852   8.087   5.355  0.9433  0.1531 -0.6288
  945MOL0     C24613   5.756   8.012   5.414  0.1370  0.0097 -0.3104
  945MOL0     C24614   5.623   8.025   5.373 -0.8675  0.6353  0.7001
  945MOL0     C24615   5.592   8.101   5.266  0.4136  0.1095  0.2495
  945MOL0     O24616   5.456   8.103   5.233  0.4558 -0.2965 -0.3241
  945MOL0     C24617   5.401   8.168   5.120 -0.2547  0.0689  0.4743
  945MOL0     C24618   5.259   8.119   5.091 -0.0500  0.1139  0.4831
  945MOL0     C24619   5.253   7.967   5.079  0.8518 -0.2177 -0.4594
  945MOL0     C24620   5.105   7.947   5.037  0.2713 -0.0454  0.2081
  945MOL0     C24621   5.072   7.794   5.028  0.5982 -1.2132  0.1622
  945MOL0     C24622   4.921   7.773   5.019 -0.9747 -0.2044 -0.0028
  945MOL0     C24623   4.925   7.620   4.985  0.0570  0.0886  0.3904
  945MOL0     C24624   4.779   7.576   4.983 -0.1138 -0.3221 -0.7981
  945MOL0     N24625   4.763   7.439   4.946  0.0703  1.0758 -0.0064
  945MOL0     C24626   4.760   7.397   4.817 -0.7984  0.2081  0.5041
  945MOL0     C24627   4.744   7.267   4.820 -0.1147  0.1967  0.1134
  945MOL0     C24628   4.761   7.164   4.711 -0.6378 -0.4605 -0.2575
  945MOL0     C24629   4.626   7.090   4.671 -0.0253 -0.4675  0.2098
  945MOL0     C24630   4.644   6.971   4.575  0.6763 -0.1677  0.8643
  945MOL0     C24631   4.517   6.911   4.503  0.0278 -0.5125  0.5547
  945MOL0     O24632   4.457   7.002   4.410  0.1697 -0.0489 -0.2031
  945MOL0     C24633   4.366   6.949   4.323 -0.4746  0.8506  1.2171
  945MOL0     C24634   4.235   6.944   4.374 -0.4707  0.1467  0.4838
  945MOL0     C24635   4.134   6.872   4.314 -0.0841 -0.1262  0.8680
  945MOL0     C24636   4.151   6.816   4.183 -0.1881 -0.2168  0.4970
  945MOL0     C24637   4.043   6.733   4.101  0.5261 -0.4980 -0.2953
  945MOL0     O24638   4.087   6.687   3.989  0.1630  0.2384 -0.4721
  945MOL0     C24639   4.010   6.597   3.912  0.5270 -0.4249 -1.1823
  945MOL0     C24640   4.046   6.599   3.782 -1.0225  0.2494 -0.4887
  945MOL0     C24641   3.973   6.529   3.678 -0.1990 -0.9038 -0.2658
  945MOL0     C24642   3.863   6.450   3.714 -0.8238  0.1961  0.3073
  945MOL0     O24643   3.778   6.385   3.621 -0.2919 -0.8875  0.7489
  945MOL0     C24644   3.644   6.395   3.643 -0.3517  0.4328 -0.4807
  945MOL0     C24645   3.589   6.256   3.700  0.2970 -0.5143 -1.0620
  945MOL0     C24646   3.453   6.269   3.776 -0.0166  0.0563 -0.8052
  945MOL0     C24647   3.343   6.323   3.687  0.1071 -0.2894  0.1011
  945MOL0     C24648   3.223   6.365   3.778 -0.1761 -1.1875  0.1606
  945MOL0     C24649   3.114   6.445   3.693  0.9651  0.2519 -0.7624
  945MOL0     C24650   3.009   6.348   3.646 -0.0155  0.0746 -0.1446
  945MOL0     C24651   2.886   6.415   3.582  0.5931  0.2427  0.0760
  945MOL0    Cl24652   2.797   6.304   3.491 -0.0873  0.3075 -0.1813
  945MOL0     C24653   3.830   6.442   3.852 -0.0755 -0.3406 -0.0096
  945MOL0     C24654   3.904   6.514   3.945  0.6899 -0.1315  0.1759
  945MOL0     O24655   3.937   6.708   4.157 -0.8143 -0.1436 -0.0397
  945MOL0     C24656   4.279   6.825   4.131 -0.2179  0.2998  0.0794
  945MOL0     C24657   4.393   6.880   4.201 -0.0327 -0.3204  0.3508
  945MOL0     N24658   4.716   7.232   4.953 -0.5207 -1.5831 -0.3430
  945MOL0     N24659   4.740   7.333   5.027  0.2791 -0.1236 -0.8301
  945MOL0     C24660   5.692   8.189   5.204  0.7208  0.0694 -0.0643
  945MOL0     C24661   5.822   8.175   5.250  0.0162  0.4192 -0.3499
  945MOL0     C24662   6.200   7.965   5.383 -0.2984 -0.0818 -0.0149
  945MOL0     C24663   6.274   8.068   5.446  0.8233 -0.0504 -0.0269
  945MOL0     C24664   6.412   8.064   5.465 -0.0309  0.2056 -0.3341
  945MOL0     C24665   6.486   7.953   5.410  0.1952  0.2164 -0.2443
  945MOL0     O24666   6.624   7.938   5.422 -0.6080 -0.0273 -0.6377
  945MOL0     C24667   6.695   8.025   5.514  1.2380  0.4228 -0.2516
  945MOL0     C24668   6.832   7.982   5.533 -0.6365  0.8760 -0.1364
  945MOL0     C24669   6.915   7.989   5.397 -0.1786  0.0831 -1.1009
  945MOL0     C24670   7.061   7.985   5.431 -0.8815 -0.2460 -0.7940
  945MOL0     C24671   7.142   7.903   5.341  0.0999  0.3962 -0.0830
  945MOL0     C24672   7.209   7.839   5.260 -0.0308  0.2484  0.4514
  945MOL0     C24673   6.415   7.858   5.339 -0.1838  0.3326  0.1081
  945MOL0     C24674   6.275   7.865   5.321  0.3667  0.2026  0.4037
  945MOL0     H24675   5.780   7.948   5.498 -0.0665  1.8653  1.2101
  945MOL0     H24676   5.547   7.976   5.432 -1.7398  1.1465  0.0274
  945MOL0     H24677   5.472   8.152   5.038  2.2320  3.5462  1.7304
  945MOL0     H24678   5.380   8.273   5.141 -0.2001 -0.1965  1.9742
  945MOL0     H24679   5.205   8.176   5.015 -1.8556  2.4790  3.3184
  945MOL0     H24680   5.197   8.148   5.176 -1.2025 -1.8435  0.3752
  945MOL0     H24681   5.267   7.914   5.173  0.7958 -1.7650 -1.2946
  945MOL0     H24682   5.325   7.926   5.008 -1.2516 -1.7673 -1.8248
  945MOL0     H24683   5.039   8.005   5.103  0.6861  1.6695 -0.8177
  945MOL0     H24684   5.094   7.986   4.936  0.5277 -0.0667  0.1727
  945MOL0     H24685   5.121   7.740   5.111  0.1173 -0.1023  1.1986
  945MOL0     H24686   5.126   7.778   4.934 -2.2384 -1.4467 -1.5298
  945MOL0     H24687   4.883   7.838   4.939  0.8700  2.3099  1.0163
  945MOL0     H24688   4.875   7.795   5.115  0.3740  1.1647  0.3809
  945MOL0     H24689   4.968   7.595   4.888 -2.6297  1.0273 -1.1353
  945MOL0     H24690   4.985   7.557   5.052  1.8531  0.0148 -1.2027
  945MOL0     H24691   4.719   7.628   4.907 -1.4478 -1.9406 -0.9048
  945MOL0     H24692   4.741   7.601   5.083  1.2083  0.1393 -0.3916
  945MOL0     H24693   4.781   7.455   4.727 -0.9749 -0.1994  0.1954
  945MOL0     H24694   4.842   7.094   4.734  0.0560  0.0322 -1.1509
  945MOL0     H24695   4.787   7.218   4.620  0.4544  0.7119  0.7093
  945MOL0     H24696   4.563   7.166   4.622  2.4886  1.4860 -0.2083
  945MOL0     H24697   4.583   7.047   4.761 -1.7785  0.8137  0.0400
  945MOL0     H24698   4.718   6.984   4.495 -0.9300 -1.7530 -0.9771
  945MOL0     H24699   4.669   6.883   4.635 -1.4781  0.2776  2.5091
  945MOL0     H24700   4.440   6.877   4.573  0.0186 -0.8059  0.4028
  945MOL0     H24701   4.558   6.823   4.452 -1.5169  0.5340 -2.7841
  945MOL0     H24702   4.230   6.991   4.471  1.7957  1.3265  0.1111
  945MOL0     H24703   4.044   6.853   4.373  0.6358 -3.4906  1.1290
  945MOL0     H24704   4.137   6.642   3.742 -1.7155 -1.0520 -3.8082
  945MOL0     H24705   4.001   6.547   3.575  3.7938  2.7632  1.1945
  945MOL0     H24706   3.599   6.423   3.548 -2.4537  1.8808  0.8504
  945MOL0     H24707   3.623   6.478   3.711  0.6329  0.0358  0.3378
  945MOL0     H24708   3.662   6.207   3.766 -2.2489  0.1942  2.6091
  945MOL0     H24709   3.575   6.201   3.607 -1.9861 -1.3129 -0.3167
  945MOL0     H24710   3.466   6.342   3.856 -1.3800  0.0532 -0.5599
  945MOL0     H24711   3.423   6.175   3.823 -0.0820 -0.2960 -1.5370
  945MOL0     H24712   3.384   6.408   3.631 -1.3252  1.2434  1.2654
  945MOL0     H24713   3.310   6.250   3.612 -0.3834  0.1217 -0.0895
  945MOL0     H24714   3.258   6.439   3.851 -0.8064 -1.6802  0.9931
  945MOL0     H24715   3.180   6.278   3.830 -1.7126  0.5754  2.0385
  945MOL0     H24716   3.151   6.503   3.608  0.9690  0.3610 -0.6856
  945MOL0     H24717   3.059   6.518   3.753 -0.2687 -2.2383  1.3260
  945MOL0     H24718   3.046   6.286   3.564 -4.7195 -0.0870 -2.5421
  945MOL0     H24719   2.984   6.284   3.731  0.0208  1.6792  1.1240
  945MOL0     H24720   2.922   6.503   3.529  0.8728  1.1117  1.6443
  945MOL0     H24721   2.821   6.454   3.662 -0.3861 -0.9816 -0.0907
  945MOL0     H24722   3.747   6.385   3.893  1.1019 -0.7581  1.9213
  945MOL0     H24723   3.889   6.498   4.051  1.3639 -2.1101  0.0221
  945MOL0     H24724   4.304   6.783   4.034  1.7923 -0.4821  0.8868
  945MOL0     H24725   4.493   6.885   4.159  0.0953  0.8755  0.7778
  945MOL0     H24726   5.668   8.265   5.132 -0.4340  1.7268  1.9535
  945MOL0     H24727   5.899   8.233   5.199 -2.2415  2.5667 -1.5673
  945MOL0     H24728   6.220   8.160   5.466 -2.9011 -1.3812 -2.8849
  945MOL0     H24729   6.471   8.135   5.522  2.7527 -1.9542 -0.3464
  945MOL0     H24730   6.634   8.020   5.605  2.0157 -1.1870  0.2157
  945MOL0     H24731   6.704   8.129   5.480  0.9525  0.1836 -1.0788
  945MOL0     H24732   6.872   8.048   5.610  0.0013 -2.1011  2.3093
  945MOL0     H24733   6.841   7.878   5.566  2.1379  0.9018 -0.6169
  945MOL0     H24734   6.881   8.072   5.335 -0.6293  0.7897  0.0508
  945MOL0     H24735   6.893   7.900   5.336 -1.8926 -2.4296  2.7243
  945MOL0     H24736   7.087   8.091   5.429 -0.6769 -0.2143  1.1728
  945MOL0     H24737   7.076   7.942   5.531  0.8593 -4.9681 -2.8283
  945MOL0     H24738   7.250   7.791   5.174 -0.9466  2.5684 -1.3873
  945MOL0     H24739   6.454   7.770   5.289 -3.6943  0.6565 -3.7802
  945MOL0     H24740   6.231   7.780   5.270  2.2085  0.7022 -2.2052
  946MOL0     O24741   1.411   6.312   7.934  0.7139 -0.0404  0.1161
  946MOL0     C24742   1.459   6.260   7.834  0.4175  0.0280  0.0422
  946MOL0     O24743   1.387   6.196   7.741  0.0225 -0.1949 -0.0962
  946MOL0     C24744   1.259   6.157   7.748  0.7043 -0.9576  0.1349
  946MOL0     C24745   1.201   6.131   7.623 -0.4028 -0.5370 -0.4857
  946MOL0     C24746   1.070   6.089   7.627  0.7798 -0.4659  0.2740
  946MOL0     C24747   0.993   6.076   7.737 -0.8174 -0.4610  0.0402
  946MOL0     O24748   0.868   6.029   7.711 -0.3388 -0.5138  0.0445
  946MOL0     C24749   0.766   6.081   7.793 -0.5832  0.2762 -0.3130
  946MOL0     C24750   0.743   5.960   7.890  0.4416 -0.3255  0.0439
  946MOL0     C24751   0.705   5.833   7.820 -0.7753 -0.5731  0.2192
  946MOL0     C24752   0.697   5.722   7.933 -0.8741  0.0508  0.2907
  946MOL0     C24753   0.637   5.599   7.858 -0.3374 -0.5095 -0.4663
  946MOL0     C24754   0.601   5.493   7.965  0.9208 -0.5040 -0.7430
  946MOL0     C24755   0.718   5.414   8.033 -0.1852 -0.2210 -0.9591
  946MOL0     C24756   0.779   5.300   7.941 -0.4210 -0.6713  0.0171
  946MOL0     N24757   0.915   5.271   7.983  0.0769  0.0703 -0.1771
  946MOL0     C24758   1.037   5.333   7.956 -0.1443  0.9995 -0.5161
  946MOL0     C24759   1.134   5.256   8.016 -0.0539  0.2351  0.0949
  946MOL0     C24760   1.275   5.290   8.004  0.0485 -0.4037  0.0985
  946MOL0     C24761   1.311   5.430   8.071 -0.3507 -0.4913 -0.2570
  946MOL0     C24762   1.310   5.410   8.225  1.1230  0.5107 -0.3096
  946MOL0     C24763   1.187   5.463   8.302 -0.3090 -0.3713  0.7393
  946MOL0     O24764   1.161   5.592   8.252 -0.2256  0.6054 -0.2865
  946MOL0     C24765   1.039   5.655   8.267 -0.5619 -0.8123 -0.5951
  946MOL0     C24766   0.916   5.590   8.278 -0.4456 -0.4222  0.6433
  946MOL0     C24767   0.792   5.655   8.282  0.6108 -0.4664  0.2007
  946MOL0     C24768   0.796   5.797   8.294 -0.5644  0.2025 -0.1904
  946MOL0     C24769   0.671   5.864   8.319 -0.0623  0.4720 -0.6988
  946MOL0     O24770   0.557   5.781   8.329 -0.7773  0.1263  0.3088
  946MOL0     C24771   0.437   5.844   8.342 -0.4819  0.4860 -0.3741
  946MOL0     C24772   0.351   5.781   8.437 -0.5715 -0.4211  0.3267
  946MOL0     C24773   0.223   5.822   8.455 -0.1162 -0.4230 -0.8985
  946MOL0     C24774   0.175   5.938   8.390  0.3920  0.1470  0.8113
  946MOL0     O24775   0.045   5.977   8.406 -0.8084 -0.6980  0.1069
  946MOL0     C24776  -0.021   6.041   8.295 -0.3382  0.1908  0.4274
  946MOL0     C24777  -0.160   6.083   8.339  0.3461  0.2048  0.5757
  946MOL0     C24778  -0.251   5.960   8.371 -0.0096 -0.0546  0.1854
  946MOL0     C24779  -0.382   6.010   8.426 -0.7173  0.1340 -1.0883
  946MOL0     C24780  -0.463   5.900   8.495 -0.0172  0.0509 -0.3359
  946MOL0     C24781  -0.589   5.967   8.565 -0.2082 -0.6370  0.4664
  946MOL0     C24782  -0.691   5.861   8.614 -0.4903  0.0296 -1.0290
  946MOL0     C24783  -0.829   5.921   8.633 -0.3702  0.0584  0.1394
  946MOL0    Cl24784  -0.939   5.813   8.723  0.1429  0.0552  0.2122
  946MOL0     C24785   0.269   6.003   8.297 -0.1665 -0.1182  0.2615
  946MOL0     C24786   0.390   5.948   8.268 -1.1795 -1.0040  0.0920
  946MOL0     O24787   0.670   5.984   8.331 -0.2932 -0.5026 -0.2170
  946MOL0     C24788   0.920   5.870   8.292  0.9770 -0.8185  0.8409
  946MOL0     C24789   1.035   5.796   8.267 -0.2712  0.4288 -0.0407
  946MOL0     N24790   1.070   5.157   8.095  0.1752 -0.1613  0.7635
  946MOL0     N24791   0.941   5.165   8.062  0.2101  0.3683  0.1192
  946MOL0     C24792   1.048   6.100   7.859 -0.2830  0.3974  0.4237
  946MOL0     C24793   1.184   6.140   7.863 -0.6927  0.1515  0.0050
  946MOL0     C24794   1.601   6.271   7.825 -0.4160 -0.0182  0.1674
  946MOL0     C24795   1.673   6.380   7.891 -0.1760  0.7731  0.2206
  946MOL0     C24796   1.816   6.378   7.890 -0.2766  0.4795 -0.2559
  946MOL0     C24797   1.886   6.283   7.817  0.7870 -0.1500 -0.1224
  946MOL0     O24798   2.017   6.263   7.817  0.1470 -0.1021  0.7793
  946MOL0     C24799   2.100   6.348   7.900  0.6623  0.5986  0.7322
  946MOL0     C24800   2.236   6.293   7.943  0.5415  0.3475 -0.1747
  946MOL0     C24801   2.299   6.230   7.822 -0.7384  0.1209 -0.6614
  946MOL0     C24802   2.319   6.315   7.695 -0.3721 -0.2916 -0.3118
  946MOL0     C24803   2.396   6.438   7.718 -0.5055  0.7941 -0.4918
  946MOL0     C24804   2.455   6.542   7.726 -0.4496  0.1823  0.1306
  946MOL0     C24805   1.818   6.188   7.739  0.0760  0.8621 -0.8339
  946MOL0     C24806   1.676   6.183   7.749  0.3607  0.1842  0.2601
  946MOL0     H24807   1.270   6.132   7.540  1.7101  0.0412  1.1790
  946MOL0     H24808   1.024   6.059   7.533 -1.1511 -1.7216  1.5543
  946MOL0     H24809   0.674   6.096   7.735 -1.4980 -5.2908 -0.9018
  946MOL0     H24810   0.791   6.177   7.837 -0.4128  1.0814 -2.0572
  946MOL0     H24811   0.671   5.987   7.967  0.3784  2.3200 -0.8489
  946MOL0     H24812   0.836   5.941   7.945 -1.2116 -1.5187  2.6091
  946MOL0     H24813   0.766   5.803   7.734 -1.8741  0.0516 -0.8078
  946MOL0     H24814   0.608   5.845   7.771 -1.5139 -0.1678  1.7373
  946MOL0     H24815   0.792   5.694   7.978 -1.6577 -0.2407  1.8039
  946MOL0     H24816   0.640   5.763   8.016  1.3562 -0.2757  2.0800
  946MOL0     H24817   0.719   5.559   7.797  0.9361 -1.7204  1.8919
  946MOL0     H24818   0.550   5.618   7.794 -0.5967 -1.5894 -0.4572
  946MOL0     H24819   0.527   5.428   7.918  0.5708  0.1057 -1.0413
  946MOL0     H24820   0.559   5.535   8.056  4.1030 -0.2054  0.7214
  946MOL0     H24821   0.798   5.485   8.056 -0.7758 -0.0935  0.9063
  946MOL0     H24822   0.698   5.374   8.133  0.8733  0.1378 -0.5893
  946MOL0     H24823   0.796   5.339   7.840  3.7596  0.6738  1.0195
  946MOL0     H24824   0.710   5.216   7.945 -0.8147 -0.3139  3.8340
  946MOL0     H24825   1.052   5.412   7.884  2.7024  0.9553 -0.1003
  946MOL0     H24826   1.309   5.297   7.901  3.1509  1.2701  1.1072
  946MOL0     H24827   1.330   5.208   8.052 -0.9933 -0.8228  0.6177
  946MOL0     H24828   1.242   5.504   8.029 -0.4340 -0.1267  0.4987
  946MOL0     H24829   1.412   5.462   8.043  0.2294  1.4157  3.3512
  946MOL0     H24830   1.316   5.302   8.244 -1.0467 -0.2090 -3.0429
  946MOL0     H24831   1.400   5.448   8.273  0.2526  0.8498  1.1241
  946MOL0     H24832   1.220   5.469   8.406 -1.9332 -0.9929  1.3256
  946MOL0     H24833   1.101   5.397   8.289  0.0961 -0.4541 -2.1168
  946MOL0     H24834   0.903   5.484   8.295 -0.7215 -0.4997  0.0108
  946MOL0     H24835   0.702   5.595   8.289  1.2210 -1.2881  1.2877
  946MOL0     H24836   0.393   5.692   8.482 -0.6657 -1.1075 -0.9006
  946MOL0     H24837   0.153   5.767   8.518  1.6803 -3.8477 -1.6626
  946MOL0     H24838  -0.020   5.970   8.211 -0.5536 -1.5717  1.8568
  946MOL0     H24839   0.039   6.130   8.274 -0.9255  0.8546  1.4581
  946MOL0     H24840  -0.201   6.137   8.254  0.0777 -1.5902 -0.5019
  946MOL0     H24841  -0.152   6.140   8.432  0.2212  1.2660 -0.0532
  946MOL0     H24842  -0.204   5.892   8.443 -1.0221 -0.7743  0.1808
  946MOL0     H24843  -0.268   5.901   8.280  1.2131  0.1808 -0.2150
  946MOL0     H24844  -0.358   6.085   8.502 -0.1777 -0.3480 -0.7787
  946MOL0     H24845  -0.441   6.062   8.350  0.1727  0.8318 -1.3179
  946MOL0     H24846  -0.405   5.851   8.574 -2.7583  0.0578  1.8556
  946MOL0     H24847  -0.495   5.837   8.412 -2.2314  0.7473 -0.0848
  946MOL0     H24848  -0.643   6.027   8.492  0.7258 -1.4760 -0.9626
  946MOL0     H24849  -0.549   6.033   8.643  0.2870 -0.1712 -0.1654
  946MOL0     H24850  -0.710   5.775   8.548  3.4546 -0.8140 -1.3618
  946MOL0     H24851  -0.645   5.826   8.707  3.3719  3.0518 -1.5313
  946MOL0     H24852  -0.876   5.952   8.539 -0.1606 -2.7641 -1.0009
  946MOL0     H24853  -0.820   6.008   8.698  1.7881  0.4858 -0.6410
  946MOL0     H24854   0.238   6.094   8.246 -3.8062 -1.1014  0.3801
  946MOL0     H24855   0.453   5.990   8.191  0.1250 -0.0486  1.6047
  946MOL0     H24856   0.928   5.977   8.306 -0.9331 -0.4548 -0.5837
  946MOL0     H24857   1.132   5.846   8.262  1.1373 -2.0542  0.5773
  946MOL0     H24858   1.004   6.092   7.958 -1.1107  1.3282  0.1402
  946MOL0     H24859   1.225   6.175   7.957  0.2744  1.6577 -0.9331
  946MOL0     H24860   1.620   6.446   7.959  1.4679 -1.2882  3.8019
  946MOL0     H24861   1.868   6.455   7.946  0.8883  1.0550 -2.0473
  946MOL0     H24862   2.041   6.361   7.992 -2.3035 -2.3828 -0.5269
  946MOL0     H24863   2.112   6.448   7.857 -0.4323  1.3208  2.0102
  946MOL0     H24864   2.289   6.371   7.996 -3.6777  3.7231 -0.3843
  946MOL0     H24865   2.210   6.224   8.024 -0.1181 -1.2716 -1.6948
  946MOL0     H24866   2.224   6.153   7.800 -0.3156 -0.4103 -0.2780
  946MOL0     H24867   2.397   6.186   7.846 -0.5845 -1.5049 -3.7094
  946MOL0     H24868   2.350   6.266   7.603 -1.5721  2.0182 -2.0541
  946MOL0     H24869   2.219   6.339   7.656  0.0869 -1.2876 -2.1776
  946MOL0     H24870   2.493   6.642   7.739 -1.3152  0.4024  1.1127
  946MOL0     H24871   1.868   6.115   7.677 -0.0188  0.0360  0.0428
  946MOL0     H24872   1.624   6.105   7.695 -1.2353  1.2232  0.2429
  947MOL0     O24873   8.237   3.049   0.248 -0.4739  1.0211 -0.3538
  947MOL0     C24874   8.275   3.003   0.144 -0.0119  0.4926  0.6576
  947MOL0     O24875   8.194   2.947   0.044  0.1134  0.2965  0.3665
  947MOL0     C24876   8.063   2.922   0.081  0.0096  0.8926 -1.0100
  947MOL0     C24877   8.000   2.914   0.211  0.5566 -0.3044  0.0514
  947MOL0     C24878   7.868   2.876   0.225  0.5858  0.7146  0.4776
  947MOL0     C24879   7.794   2.837   0.110  0.1714 -0.5967  0.3098
  947MOL0     O24880   7.664   2.807   0.111 -0.1548 -0.7023  0.5486
  947MOL0     C24881   7.585   2.809   0.233 -0.0538  0.0461 -0.1938
  947MOL0     C24882   7.514   2.943   0.251  0.2172  0.0933 -0.2790
  947MOL0     C24883   7.383   2.969   0.187 -0.1628  0.2982  0.0362
  947MOL0     C24884   7.273   2.860   0.208 -0.5979  0.8032 -0.2223
  947MOL0     C24885   7.142   2.898   0.146 -0.2707  0.1646  0.5282
  947MOL0     C24886   7.041   2.979   0.241 -0.5293  0.2347  0.5931
  947MOL0     C24887   6.903   2.978   0.181  0.2629 -0.5034 -0.2461
  947MOL0     C24888   6.798   3.057   0.267 -0.1652  1.3505  0.5878
  947MOL0     N24889   6.660   3.071   0.211  0.0588  0.4401 -0.2087
  947MOL0     C24890   6.614   3.175   0.141  0.0652 -1.3418 -0.9922
  947MOL0     C24891   6.482   3.159   0.144 -0.5551 -0.4087 -0.7258
  947MOL0     C24892   6.390   3.277   0.105 -0.0754  0.6871  0.4343
  947MOL0     C24893   6.383   3.289  -0.045 -0.2600  0.2772 -0.2081
  947MOL0     C24894   6.314   3.174  -0.121  0.3377  0.5695  0.6707
  947MOL0     C24895   6.283   3.211  -0.272  0.9061  0.9688 -0.1806
  947MOL0     O24896   6.141   3.233  -0.306 -0.5641  0.0728 -0.0939
  947MOL0     C24897   6.052   3.129  -0.291  0.6344  0.6491 -0.0106
  947MOL0     C24898   6.076   2.989  -0.290 -1.0457  0.3773 -0.7700
  947MOL0     C24899   5.985   2.891  -0.263  0.6012 -0.3913  0.8566
  947MOL0     C24900   5.854   2.926  -0.251  0.3306  0.3155  1.0894
  947MOL0     C24901   5.754   2.822  -0.222 -0.1944  0.6245  0.5591
  947MOL0     O24902   5.629   2.864  -0.237 -0.1497  0.4392 -0.3595
  947MOL0     C24903   5.512   2.803  -0.194 -0.1127 -0.1107 -0.3184
  947MOL0     C24904   5.392   2.871  -0.204  0.6181  0.0715  0.3076
  947MOL0     C24905   5.268   2.825  -0.153  0.1898 -0.8392 -0.5174
  947MOL0     C24906   5.263   2.695  -0.097  0.5163 -0.0671 -0.3132
  947MOL0     O24907   5.138   2.660  -0.059 -0.1031 -0.6212 -0.5342
  947MOL0     C24908   5.099   2.525  -0.084  0.5189  0.2566  0.2027
  947MOL0     C24909   4.976   2.534  -0.174  0.3450  0.7949  0.3523
  947MOL0     C24910   4.856   2.586  -0.088  0.6861 -0.8807 -0.4964
  947MOL0     C24911   4.724   2.596  -0.185 -0.5414 -0.0778  0.5319
  947MOL0     C24912   4.597   2.628  -0.113  0.0969 -0.1932  0.0911
  947MOL0     C24913   4.525   2.496  -0.076  0.0828 -0.6597  0.2452
  947MOL0     C24914   4.389   2.524  -0.013  0.7823  0.0612  0.1486
  947MOL0     C24915   4.287   2.542  -0.127  0.1875 -0.5335 -0.2482
  947MOL0    Cl24916   4.131   2.584  -0.045 -0.4424 -0.4841 -0.4559
  947MOL0     C24917   5.381   2.623  -0.085 -0.8952 -0.1953  0.2689
  947MOL0     C24918   5.502   2.668  -0.142 -0.0310  0.3686 -0.0797
  947MOL0     O24919   5.787   2.715  -0.168 -1.0422 -0.2241  0.3654
  947MOL0     C24920   5.818   3.058  -0.284 -0.6402 -0.6751 -0.3840
  947MOL0     C24921   5.916   3.161  -0.294 -0.3375  0.8186 -0.2530
  947MOL0     N24922   6.451   3.045   0.217  1.1921  0.5738 -0.5958
  947MOL0     N24923   6.563   2.992   0.260  0.1220  0.1982  1.0005
  947MOL0     C24924   7.851   2.843  -0.017 -1.2198  0.9746  0.5349
  947MOL0     C24925   7.987   2.876  -0.031 -1.2081  0.4104  0.2805
  947MOL0     C24926   8.425   3.014   0.126  0.2629 -1.1284  0.3223
  947MOL0     C24927   8.497   3.123   0.188  0.4330 -1.2960  0.3780
  947MOL0     C24928   8.636   3.146   0.171  0.7390  0.2814  0.6214
  947MOL0     C24929   8.701   3.066   0.078 -0.6753 -0.5995  0.3582
  947MOL0     O24930   8.832   3.087   0.052  0.2512  0.9957  0.5216
  947MOL0     C24931   8.915   3.072   0.171 -0.4677 -0.2141  0.0373
  947MOL0     C24932   9.049   3.146   0.167 -0.0337 -0.1564 -0.5525
  947MOL0     C24933   9.032   3.296   0.179  0.6733 -0.4934  0.3343
  947MOL0     C24934   9.167   3.363   0.137 -0.5662  0.0209 -0.2177
  947MOL0     C24935   9.190   3.355  -0.008 -0.8541 -0.6279 -0.4435
  947MOL0     C24936   9.214   3.351  -0.127  0.3958 -0.2841 -0.1996
  947MOL0     C24937   8.627   2.970   0.012 -0.2456 -0.5836 -0.1028
  947MOL0     C24938   8.491   2.936   0.030  0.3045 -0.5247  0.5669
  947MOL0     H24939   8.047   2.934   0.307 -0.6230  1.2182  0.3393
  947MOL0     H24940   7.824   2.866   0.323  1.3410  0.9999  0.8523
  947MOL0     H24941   7.643   2.776   0.319  1.2114  3.0208  0.2130
  947MOL0     H24942   7.506   2.734   0.226  1.6021 -1.6487 -2.0511
  947MOL0     H24943   7.583   3.023   0.219 -0.8634  1.2492  0.1806
  947MOL0     H24944   7.492   2.972   0.354 -3.4878  0.4742 -1.0310
  947MOL0     H24945   7.392   2.983   0.079  0.3618  2.8556  0.3450
  947MOL0     H24946   7.352   3.066   0.227  0.8110  0.7226 -0.2125
  947MOL0     H24947   7.305   2.767   0.160  0.6653 -0.3884  2.6975
  947MOL0     H24948   7.261   2.832   0.313  4.5143  0.2998  0.4644
  947MOL0     H24949   7.095   2.807   0.107  0.9995 -0.6189  0.7726
  947MOL0     H24950   7.162   2.964   0.062  0.3231  0.4751  0.9088
  947MOL0     H24951   7.078   3.080   0.261  0.9244  0.7900 -3.7629
  947MOL0     H24952   7.045   2.928   0.338  0.2604 -0.1642  0.3570
  947MOL0     H24953   6.907   3.019   0.080  0.9773  1.2518  0.4704
  947MOL0     H24954   6.859   2.879   0.162 -3.7142  1.5476 -3.2651
  947MOL0     H24955   6.829   3.162   0.277  1.2945  1.1071 -1.0247
  947MOL0     H24956   6.794   3.020   0.369 -1.5250 -0.5535 -0.0958
  947MOL0     H24957   6.671   3.256   0.097  0.0372 -0.3352  0.7609
  947MOL0     H24958   6.424   3.368   0.156 -2.8102  2.2886 -0.3461
  947MOL0     H24959   6.288   3.253   0.137  0.0765 -2.0905 -0.8945
  947MOL0     H24960   6.481   3.295  -0.092 -0.3798 -1.1785 -0.7049
  947MOL0     H24961   6.328   3.383  -0.055 -0.1636  0.3889  0.3031
  947MOL0     H24962   6.376   3.084  -0.117  0.2314  0.2539 -2.3719
  947MOL0     H24963   6.216   3.163  -0.074  1.0335 -4.1100  1.5228
  947MOL0     H24964   6.318   3.118  -0.318 -0.4601 -0.8768  2.2758
  947MOL0     H24965   6.334   3.302  -0.306 -1.8150  3.3840  1.7165
  947MOL0     H24966   6.179   2.954  -0.289 -1.9056 -2.3777  0.9678
  947MOL0     H24967   6.012   2.787  -0.252 -1.5025 -1.1073 -0.2013
  947MOL0     H24968   5.397   2.971  -0.244 -1.6810 -0.0835 -0.5360
  947MOL0     H24969   5.182   2.892  -0.152 -1.4675 -2.8373 -1.2140
  947MOL0     H24970   5.074   2.467   0.006  0.6692 -0.5693 -0.2830
  947MOL0     H24971   5.180   2.473  -0.135  0.8682 -0.8614  1.8171
  947MOL0     H24972   4.954   2.442  -0.229  0.6745  1.5113 -1.0119
  947MOL0     H24973   4.997   2.604  -0.255 -2.9397  1.2384 -0.2358
  947MOL0     H24974   4.873   2.684  -0.043 -2.5008 -0.6352  0.3615
  947MOL0     H24975   4.829   2.517  -0.007 -0.3117 -1.2411 -1.1184
  947MOL0     H24976   4.732   2.683  -0.251 -0.6918  0.4602  1.2116
  947MOL0     H24977   4.703   2.512  -0.251 -2.7804  2.6306 -2.5464
  947MOL0     H24978   4.533   2.684  -0.181  0.3027 -2.4777 -2.1373
  947MOL0     H24979   4.627   2.688  -0.026 -1.5761  2.3315 -0.9522
  947MOL0     H24980   4.586   2.429  -0.015  1.0901 -1.1489 -1.2515
  947MOL0     H24981   4.517   2.435  -0.166  0.1070 -0.2123 -0.0597
  947MOL0     H24982   4.355   2.436   0.043 -4.5226  1.1375 -0.8266
  947MOL0     H24983   4.383   2.610   0.053  1.4696 -0.3095  0.7069
  947MOL0     H24984   4.265   2.449  -0.180 -0.9893 -1.4584  1.7527
  947MOL0     H24985   4.319   2.625  -0.191  4.4254 -1.9910 -0.3086
  947MOL0     H24986   5.385   2.526  -0.036 -4.4492  0.0869  1.4446
  947MOL0     H24987   5.585   2.599  -0.138  0.6077  1.1694  0.8424
  947MOL0     H24988   5.712   3.079  -0.273 -0.3092  0.7432  0.2043
  947MOL0     H24989   5.891   3.266  -0.310  0.0665  0.8230 -0.8826
  947MOL0     H24990   7.801   2.805  -0.105  0.7314 -1.1104  0.2215
  947MOL0     H24991   8.030   2.882  -0.131  2.8518  1.8638  1.9347
  947MOL0     H24992   8.433   3.189   0.246 -0.6455 -2.2901  0.3538
  947MOL0     H24993   8.697   3.226   0.212  2.5882 -1.6182  1.8224
  947MOL0     H24994   8.947   2.968   0.160 -1.3000 -0.6153  1.1662
  947MOL0     H24995   8.865   3.093   0.267 -0.4661  1.4595 -0.3017
  947MOL0     H24996   9.109   3.108   0.250 -0.2986 -1.0577 -0.7667
  947MOL0     H24997   9.101   3.117   0.075  0.4090  0.0821 -0.3796
  947MOL0     H24998   8.994   3.319   0.279 -2.5960  0.7378 -1.0565
  947MOL0     H24999   8.952   3.328   0.111  0.7533 -0.3910  0.2882
  947MOL0     H25000   9.171   3.467   0.171  1.0369 -0.8269  2.5849
  947MOL0     H25001   9.245   3.314   0.196 -1.9174 -2.5852 -0.4799
  947MOL0     H25002   9.250   3.353  -0.228  1.2718 -0.7398  0.0899
  947MOL0     H25003   8.691   2.913  -0.055  0.9845  0.2201  0.3575
  947MOL0     H25004   8.442   2.868  -0.039 -0.5343  1.4868 -0.9227
  948MOL0     O25005   7.564  10.889   8.290  0.4418  0.1085 -0.7660
  948MOL0     C25006   7.573  10.937   8.401  0.2527 -0.5749 -0.7763
  948MOL0     O25007   7.471  11.013   8.462 -0.2124 -0.7387 -0.2604
  948MOL0     C25008   7.356  11.033   8.397 -0.4498  0.0424 -0.6483
  948MOL0     C25009   7.350  11.105   8.281  0.3092 -0.5631 -0.0338
  948MOL0     C25010   7.231  11.109   8.201 -0.0272  0.9245  0.5283
  948MOL0     C25011   7.120  11.043   8.256  0.3738  0.0731 -0.2825
  948MOL0     O25012   7.002  11.043   8.201 -0.2709  0.6383  0.0287
  948MOL0     C25013   6.977  10.946   8.095  0.3939 -0.7962 -0.1356
  948MOL0     C25014   6.833  10.898   8.118 -0.5185 -0.2518 -0.0957
  948MOL0     C25015   6.781  10.827   7.994  0.0867 -0.6626 -0.0488
  948MOL0     C25016   6.628  10.794   7.993 -0.3043 -0.6036  0.4845
  948MOL0     C25017   6.556  10.752   8.128  0.7393  0.2332 -0.3456
  948MOL0     C25018   6.413  10.716   8.093 -1.4803  0.4042  0.3353
  948MOL0     C25019   6.331  10.695   8.232 -0.1716 -0.1530  0.4862
  948MOL0     C25020   6.178  10.694   8.210  0.0774 -1.0300 -1.0247
  948MOL0     N25021   6.121  10.586   8.128  0.1884 -0.7143 -0.1597
  948MOL0     C25022   6.039  10.493   8.176 -0.2974  0.3576 -0.4214
  948MOL0     C25023   6.004  10.414   8.070  0.8667  0.2851  0.2142
  948MOL0     C25024   5.892  10.313   8.070  0.0424  0.7793  0.7604
  948MOL0     C25025   5.753  10.356   8.079  0.2183 -0.1233 -0.2046
  948MOL0     C25026   5.669  10.237   8.119 -0.1931 -0.1760 -0.1330
  948MOL0     C25027   5.643  10.136   7.999  0.4883  0.3054 -0.1459
  948MOL0     O25028   5.545  10.041   8.034  0.2368  0.6395 -0.2395
  948MOL0     C25029   5.412  10.071   8.009  0.3170  0.9975  0.3104
  948MOL0     C25030   5.318   9.972   8.028  0.9002 -0.6285 -0.0674
  948MOL0     C25031   5.184   9.986   8.000  0.2423 -0.0144  0.5100
  948MOL0     C25032   5.138  10.105   7.951  0.6260 -0.2958 -0.9132
  948MOL0     C25033   4.989  10.132   7.914 -0.5570 -0.1982 -0.4863
  948MOL0     O25034   4.903  10.025   7.904 -0.3293  0.1937  0.5793
  948MOL0     C25035   4.772  10.029   7.853 -1.3883  0.3302  0.6184
  948MOL0     C25036   4.739   9.945   7.748 -1.0509  1.1203 -0.4304
  948MOL0     C25037   4.609   9.951   7.707  0.4597 -0.0572  0.3501
  948MOL0     C25038   4.505  10.022   7.767 -0.0346  0.4319  0.1927
  948MOL0     O25039   4.380  10.006   7.717  0.0800 -0.0876 -0.8050
  948MOL0     C25040   4.265  10.066   7.780 -0.4869  0.6314  0.4200
  948MOL0     C25041   4.141  10.003   7.722 -0.5466 -0.3723 -0.0682
  948MOL0     C25042   4.017  10.053   7.802  0.3339 -0.4447  0.1091
  948MOL0     C25043   3.887  10.001   7.738  0.1028  0.1501 -0.0580
  948MOL0     C25044   3.854   9.857   7.798 -0.0466  1.0406 -0.0476
  948MOL0     C25045   3.757   9.777   7.710 -0.0449 -0.0557  0.4216
  948MOL0     C25046   3.609   9.822   7.720 -0.4755 -0.0600 -0.1415
  948MOL0     C25047   3.514   9.723   7.660 -0.1662  0.7897  0.2340
  948MOL0    Cl25048   3.349   9.779   7.704 -0.0459 -0.2415  0.0756
  948MOL0     C25049   4.543  10.103   7.873 -0.8872  1.3976 -0.2622
  948MOL0     C25050   4.677  10.108   7.918  0.2098 -0.6651 -0.4609
  948MOL0     O25051   4.953  10.243   7.889  0.1055  0.0117 -0.3892
  948MOL0     C25052   5.223  10.209   7.938 -1.3911 -0.1723 -0.2898
  948MOL0     C25053   5.356  10.191   7.975 -0.0225  0.3356  0.4422
  948MOL0     N25054   6.071  10.451   7.963  0.1728 -0.5897 -0.0478
  948MOL0     N25055   6.142  10.556   7.995 -0.8224  0.8881 -0.3643
  948MOL0     C25056   7.130  10.964   8.365 -0.0394 -0.0632  1.2443
  948MOL0     C25057   7.249  10.961   8.444 -0.3775  0.0464 -0.2679
  948MOL0     C25058   7.699  10.937   8.473  0.7014 -0.1088  0.2530
  948MOL0     C25059   7.821  10.930   8.415 -0.1498  0.2337 -0.5125
  948MOL0     C25060   7.938  10.903   8.492 -0.1454 -0.7685 -0.1920
  948MOL0     C25061   7.930  10.883   8.637  0.0773 -0.5248  0.5587
  948MOL0     O25062   8.021  10.837   8.725 -0.3490  0.0928 -0.3865
  948MOL0     C25063   8.148  10.784   8.676 -0.2365  0.5265  0.4145
  948MOL0     C25064   8.123  10.646   8.617 -1.1018 -0.1285 -0.0339
  948MOL0     C25065   8.255  10.573   8.580 -0.0853  0.1311 -0.2836
  948MOL0     C25066   8.369  10.570   8.684 -0.8976  0.3087 -0.4234
  948MOL0     C25067   8.475  10.470   8.660 -1.1090  0.1433 -0.2345
  948MOL0     C25068   8.576  10.400   8.636  0.1709  0.6229  0.3603
  948MOL0     C25069   7.803  10.898   8.700 -0.1784 -0.6086 -0.2415
  948MOL0     C25070   7.696  10.926   8.623  0.2818  0.3165  0.0706
  948MOL0     H25071   7.438  11.159   8.246 -0.9466  0.9044 -1.0687
  948MOL0     H25072   7.228  11.159   8.105 -0.6850  0.2607  0.1978
  948MOL0     H25073   7.045  10.860   8.093  0.2009 -0.9855  0.8584
  948MOL0     H25074   6.988  10.995   7.998  3.9074  1.4757  1.1771
  948MOL0     H25075   6.756  10.972   8.142 -1.1946 -2.1909  4.7382
  948MOL0     H25076   6.834  10.824   8.198 -2.5094  0.6028  0.7810
  948MOL0     H25077   6.824  10.726   7.991 -2.3196 -1.7593 -0.2061
  948MOL0     H25078   6.809  10.888   7.907 -1.4409 -0.5604 -0.4979
  948MOL0     H25079   6.576  10.885   7.962  2.0112  0.7795  0.4323
  948MOL0     H25080   6.605  10.726   7.911 -1.8687 -2.3843  2.2790
  948MOL0     H25081   6.560  10.842   8.190  0.8337  0.5640 -0.8183
  948MOL0     H25082   6.610  10.667   8.172 -1.2488 -2.4740 -2.7432
  948MOL0     H25083   6.424  10.624   8.033  1.5381  1.1136 -0.3484
  948MOL0     H25084   6.370  10.798   8.034 -2.2350  0.0712  0.3989
  948MOL0     H25085   6.352  10.597   8.277 -1.6971 -0.9793 -0.5149
  948MOL0     H25086   6.369  10.772   8.300  2.5113 -0.8775 -0.0583
  948MOL0     H25087   6.154  10.792   8.167  2.0606  0.4457  0.9974
  948MOL0     H25088   6.133  10.705   8.309  1.3979  0.4082 -0.5327
  948MOL0     H25089   6.015  10.491   8.282  2.3898 -2.8129  0.3116
  948MOL0     H25090   5.914  10.243   8.152 -0.3993  2.1004  2.0530
  948MOL0     H25091   5.905  10.259   7.976  0.2442  1.2073  0.5369
  948MOL0     H25092   5.735  10.400   7.980 -0.2142  1.1949  0.4548
  948MOL0     H25093   5.732  10.428   8.158 -0.3133 -0.4660 -0.0243
  948MOL0     H25094   5.710  10.192   8.210 -2.1297 -0.0845  0.8476
  948MOL0     H25095   5.566  10.261   8.148 -1.2390 -4.5317  0.4625
  948MOL0     H25096   5.731  10.082   7.964 -1.8895 -2.5313 -2.3147
  948MOL0     H25097   5.614  10.200   7.915  3.8879  0.8202 -1.0419
  948MOL0     H25098   5.361   9.873   8.044  1.2533 -0.4922 -0.1453
  948MOL0     H25099   5.110   9.910   8.024 -0.4568  0.3917 -0.3499
  948MOL0     H25100   4.814   9.887   7.695  0.6496 -0.1111  3.0216
  948MOL0     H25101   4.580   9.896   7.618  2.0308  1.1596 -0.9971
  948MOL0     H25102   4.257  10.170   7.744 -0.4087  0.6559  0.4731
  948MOL0     H25103   4.273  10.058   7.889  1.1184 -1.3141  0.2137
  948MOL0     H25104   4.159   9.896   7.734 -1.2124 -0.3707  1.0339
  948MOL0     H25105   4.149  10.029   7.616  3.3173  1.5352  0.5166
  948MOL0     H25106   4.032  10.160   7.786  0.5354 -0.3305  0.9926
  948MOL0     H25107   4.029  10.016   7.905 -0.3469  0.5463  0.5627
  948MOL0     H25108   3.817  10.078   7.772  3.7305  2.9416  1.8458
  948MOL0     H25109   3.906  10.006   7.630 -0.5992  0.2807 -0.1806
  948MOL0     H25110   3.829   9.862   7.904  2.7218 -2.9615  1.0103
  948MOL0     H25111   3.949   9.806   7.814 -1.6639 -2.0457  0.6092
  948MOL0     H25112   3.758   9.669   7.726 -1.6459 -0.1229  0.1741
  948MOL0     H25113   3.793   9.801   7.609 -2.4869  1.1304 -0.2282
  948MOL0     H25114   3.577   9.845   7.821  0.0356 -0.7319  0.1857
  948MOL0     H25115   3.590   9.912   7.661 -2.2276  0.2547  0.8437
  948MOL0     H25116   3.539   9.621   7.688  0.0698 -0.1599 -3.0126
  948MOL0     H25117   3.519   9.708   7.551 -4.3017 -0.9446  0.1055
  948MOL0     H25118   4.473  10.166   7.928 -0.4245 -0.0875  2.1324
  948MOL0     H25119   4.711  10.174   7.996  0.1780 -0.8352 -0.3020
  948MOL0     H25120   5.203  10.305   7.891  3.1235  1.4689  0.5523
  948MOL0     H25121   5.424  10.275   7.963  0.6314 -0.2403  0.0107
  948MOL0     H25122   7.043  10.909   8.398 -0.2188  0.0823  1.0091
  948MOL0     H25123   7.253  10.898   8.532  0.5000  0.3174 -0.1076
  948MOL0     H25124   7.825  10.937   8.306  1.6608 -3.4906 -0.8282
  948MOL0     H25125   8.034  10.890   8.442 -0.9213 -2.2518 -1.3650
  948MOL0     H25126   8.214  10.767   8.762 -0.4049  1.9692  0.8644
  948MOL0     H25127   8.190  10.847   8.598  2.0040 -0.3359  0.8606
  948MOL0     H25128   8.058  10.591   8.686 -1.5231  1.0904  0.5737
  948MOL0     H25129   8.062  10.653   8.527  0.1630 -0.4094 -0.9365
  948MOL0     H25130   8.289  10.603   8.481  1.5540 -1.1949 -0.1784
  948MOL0     H25131   8.221  10.469   8.571 -1.0005  0.1470  2.3069
  948MOL0     H25132   8.420  10.666   8.669 -0.8260  0.1705 -1.1071
  948MOL0     H25133   8.322  10.558   8.782  1.7312  0.4040  0.9352
  948MOL0     H25134   8.660  10.338   8.612 -1.7599 -0.8491 -3.7205
  948MOL0     H25135   7.799  10.863   8.803  0.7207  0.6805  0.2619
  948MOL0     H25136   7.595  10.927   8.663 -0.6131 -0.4756 -1.9861
  949MOL0     O25137  10.778   8.166   5.428 -0.8095 -0.1444 -0.0747
  949MOL0     C25138  10.794   8.252   5.513  0.0841  0.2171 -0.2790
  949MOL0     O25139  10.684   8.305   5.588 -0.9305 -0.2938  0.1510
  949MOL0     C25140  10.559   8.294   5.547 -0.1626 -0.2756  0.5626
  949MOL0     C25141  10.500   8.301   5.422  0.7949 -0.0205  0.7746
  949MOL0     C25142  10.362   8.286   5.405  0.3940  0.8636  0.0219
  949MOL0     C25143  10.270   8.259   5.511 -0.1109 -0.0659  0.2639
  949MOL0     O25144  10.141   8.237   5.468 -0.1175  0.9834 -0.9681
  949MOL0     C25145  10.049   8.261   5.579  0.1104  0.5127 -0.3430
  949MOL0     C25146   9.906   8.245   5.527 -0.2508  0.5436  0.1475
  949MOL0     C25147   9.794   8.242   5.633  0.6117  0.3175 -0.2776
  949MOL0     C25148   9.827   8.187   5.771 -1.4105  0.2925  0.2910
  949MOL0     C25149   9.711   8.183   5.864  0.3186 -0.5162 -0.8009
  949MOL0     C25150   9.652   8.324   5.917  0.4977  0.4007  0.2300
  949MOL0     C25151   9.530   8.314   6.016 -0.6457 -0.1623 -0.6600
  949MOL0     C25152   9.486   8.450   6.063 -0.2639  0.4610  0.6105
  949MOL0     N25153   9.368   8.427   6.154  0.3710 -0.1444 -0.0889
  949MOL0     C25154   9.345   8.475   6.282  0.1183 -1.0636 -0.2827
  949MOL0     C25155   9.219   8.431   6.306 -0.2098  0.6416 -0.3189
  949MOL0     C25156   9.144   8.451   6.437 -0.7483 -1.3056 -0.8162
  949MOL0     C25157   9.080   8.593   6.442 -1.1945  1.1271 -0.9098
  949MOL0     C25158   8.981   8.614   6.561 -0.4996 -0.0638  1.2296
  949MOL0     C25159   9.058   8.592   6.692 -0.2835  0.5325  0.8952
  949MOL0     O25160   9.065   8.704   6.776  0.3090 -0.1071 -0.1785
  949MOL0     C25161   8.950   8.768   6.822  0.1579 -0.4094 -0.1053
  949MOL0     C25162   8.954   8.897   6.878  0.0199 -0.0137  0.2506
  949MOL0     C25163   8.846   8.955   6.941 -0.6236  0.5309 -0.1990
  949MOL0     C25164   8.717   8.890   6.955 -0.2626  0.2221 -0.2436
  949MOL0     C25165   8.599   8.962   7.023  0.3677  1.1492  0.1340
  949MOL0     O25166   8.631   9.085   7.079 -0.1866 -0.4501  0.9062
  949MOL0     C25167   8.534   9.153   7.141 -0.4088 -0.0231 -0.2212
  949MOL0     C25168   8.421   9.208   7.078  0.4915 -0.2271 -0.1961
  949MOL0     C25169   8.341   9.302   7.136  0.9143  0.2231 -0.1933
  949MOL0     C25170   8.356   9.342   7.266 -0.1729  1.1775  0.4607
  949MOL0     O25171   8.282   9.434   7.339  0.6192  0.3924 -0.5602
  949MOL0     C25172   8.157   9.481   7.303  1.0528  0.2891 -0.4981
  949MOL0     C25173   8.159   9.595   7.206  0.3505 -0.8798  0.3931
  949MOL0     C25174   8.017   9.666   7.185 -0.1258  0.1969  0.0577
  949MOL0     C25175   7.963   9.736   7.320 -0.6197  0.6379  0.9446
  949MOL0     C25176   7.838   9.825   7.291  0.3204  0.7476 -0.8870
  949MOL0     C25177   7.755   9.860   7.412 -0.3248  0.2043 -0.7010
  949MOL0     C25178   7.623   9.919   7.367  0.0902 -0.4765 -0.5301
  949MOL0     C25179   7.516   9.922   7.473 -0.5003 -0.3023 -1.1357
  949MOL0    Cl25180   7.536  10.071   7.578  0.2619  0.2879  0.5169
  949MOL0     C25181   8.470   9.285   7.332  0.2118 -0.6147 -0.0972
  949MOL0     C25182   8.559   9.197   7.270 -0.3115  0.2006  0.0704
  949MOL0     O25183   8.495   8.909   7.019 -0.0598  0.0272  0.2515
  949MOL0     C25184   8.706   8.761   6.897 -0.2595  0.1793 -0.5499
  949MOL0     C25185   8.822   8.706   6.833 -0.0195 -0.0775 -0.4004
  949MOL0     N25186   9.168   8.364   6.196  0.1734 -1.1977 -0.0201
  949MOL0     N25187   9.258   8.368   6.111  0.1805 -0.1178 -0.1213
  949MOL0     C25188  10.330   8.254   5.634 -0.0818 -0.4573 -0.3980
  949MOL0     C25189  10.471   8.264   5.654 -0.2780  0.1543  0.3494
  949MOL0     C25190  10.926   8.305   5.536 -0.2725  0.3029  0.1084
  949MOL0     C25191  11.043   8.228   5.497 -0.8430 -0.1127 -0.8546
  949MOL0     C25192  11.172   8.284   5.508  0.2641  0.1875  0.0182
  949MOL0     C25193  11.188   8.411   5.564 -1.4021  0.4085 -0.1434
  949MOL0     O25194  11.318   8.452   5.591 -0.1054 -0.4979  0.3220
  949MOL0     C25195  11.335   8.565   5.669  0.4198 -0.4405  0.2261
  949MOL0     C25196  11.324   8.695   5.588  0.2940  0.6922  0.1074
  949MOL0     C25197  11.352   8.805   5.699  0.3671  0.2659  0.2427
  949MOL0     C25198  11.225   8.880   5.742 -0.1912 -0.1752 -0.0395
  949MOL0     C25199  11.192   8.992   5.650 -1.1237  0.5065 -0.9891
  949MOL0     C25200  11.159   9.086   5.577  0.8669  0.3938 -0.7356
  949MOL0     C25201  11.074   8.484   5.604 -0.4512 -0.0162 -0.3428
  949MOL0     C25202  10.934   8.436   5.587  0.1248  0.0938 -0.4116
  949MOL0     H25203  10.554   8.326   5.331  2.1415  1.1801  1.8512
  949MOL0     H25204  10.315   8.287   5.307  0.6593  0.9249 -0.1059
  949MOL0     H25205  10.063   8.363   5.616  2.0321  0.8217 -1.7774
  949MOL0     H25206  10.061   8.183   5.654  0.7994  0.7543 -0.1905
  949MOL0     H25207   9.902   8.148   5.477  1.0253  1.5581 -2.1114
  949MOL0     H25208   9.882   8.323   5.454 -0.6819  0.0625 -0.2334
  949MOL0     H25209   9.701   8.193   5.603  0.6956  0.6147 -1.0523
  949MOL0     H25210   9.771   8.349   5.641  3.4233  0.8295  3.7712
  949MOL0     H25211   9.866   8.085   5.759  0.4719  0.6243  2.6848
  949MOL0     H25212   9.891   8.262   5.818 -2.0363  2.4255 -2.0944
  949MOL0     H25213   9.754   8.124   5.946  0.5732 -1.3679 -1.5367
  949MOL0     H25214   9.622   8.135   5.824  0.4920 -0.4274 -1.3064
  949MOL0     H25215   9.627   8.389   5.833  0.8360 -0.3616 -0.4797
  949MOL0     H25216   9.734   8.374   5.969  0.9260 -2.2075  2.2551
  949MOL0     H25217   9.441   8.274   5.967 -1.7313  1.8101 -0.3853
  949MOL0     H25218   9.561   8.250   6.099 -0.7103 -1.7945 -1.8255
  949MOL0     H25219   9.460   8.503   5.970 -0.7735  0.9089  1.0001
  949MOL0     H25220   9.572   8.497   6.111  0.0263  1.2464 -0.6231
  949MOL0     H25221   9.413   8.532   6.344  0.0033  0.2830 -1.3559
  949MOL0     H25222   9.214   8.435   6.520 -1.0074  1.1554 -0.0450
  949MOL0     H25223   9.060   8.381   6.439 -0.1499 -2.0209  0.3715
  949MOL0     H25224   9.026   8.613   6.349 -2.5650  0.7914 -0.2180
  949MOL0     H25225   9.153   8.674   6.444  1.5367 -1.1817 -0.5686
  949MOL0     H25226   8.942   8.715   6.552 -1.0688 -0.3399  0.5081
  949MOL0     H25227   8.890   8.553   6.554 -0.4825  0.0515 -0.4966
  949MOL0     H25228   9.166   8.578   6.680 -0.1499 -1.1416  3.3293
  949MOL0     H25229   9.017   8.505   6.743 -0.7863 -1.2724 -2.2808
  949MOL0     H25230   9.044   8.952   6.854 -1.5089  1.6319 -2.2007
  949MOL0     H25231   8.866   9.056   6.977  1.7505 -0.0440  0.2372
  949MOL0     H25232   8.403   9.206   6.971 -1.1519  1.0613  0.0133
  949MOL0     H25233   8.255   9.324   7.073  0.2768 -1.6484 -0.0637
  949MOL0     H25234   8.106   9.506   7.396 -0.1391  2.1277 -1.6065
  949MOL0     H25235   8.100   9.406   7.248  2.0680  1.4471 -3.3587
  949MOL0     H25236   8.198   9.556   7.111 -0.9302  0.8521 -0.9117
  949MOL0     H25237   8.238   9.668   7.229 -1.5576  1.1335  0.8540
  949MOL0     H25238   7.953   9.588   7.143  0.5689 -0.9214  0.9982
  949MOL0     H25239   8.021   9.745   7.110  0.4962 -0.0699 -0.1970
  949MOL0     H25240   7.944   9.653   7.389  0.7118 -0.3586  0.1490
  949MOL0     H25241   8.041   9.807   7.348  1.9368  0.5685 -4.5987
  949MOL0     H25242   7.775   9.773   7.219 -3.2766  1.3019  1.5855
  949MOL0     H25243   7.875   9.915   7.240  0.6528 -0.2786 -2.5303
  949MOL0     H25244   7.816   9.926   7.473  0.0998 -1.4421  0.7201
  949MOL0     H25245   7.734   9.777   7.480  4.8910  0.0003  1.0997
  949MOL0     H25246   7.636  10.020   7.328  1.0843  0.0609  1.1104
  949MOL0     H25247   7.578   9.857   7.289  1.1349 -2.0903  0.0967
  949MOL0     H25248   7.500   9.830   7.530 -1.3445 -0.4245 -1.5534
  949MOL0     H25249   7.420   9.925   7.421 -0.7145 -0.9677 -0.7974
  949MOL0     H25250   8.492   9.311   7.435 -0.0183 -0.0950 -0.1732
  949MOL0     H25251   8.645   9.163   7.326 -2.6761 -2.6391  2.3330
  949MOL0     H25252   8.614   8.704   6.907 -0.6542  0.4471 -2.3358
  949MOL0     H25253   8.808   8.604   6.797  2.9709 -1.3433  1.5587
  949MOL0     H25254  10.273   8.255   5.727 -0.1153 -2.0193 -0.3801
  949MOL0     H25255  10.517   8.263   5.751  2.7401  0.7456 -0.9697
  949MOL0     H25256  11.030   8.127   5.458 -0.5935 -0.7625  0.6616
  949MOL0     H25257  11.257   8.226   5.475 -1.9215 -3.2896 -0.0414
  949MOL0     H25258  11.438   8.556   5.704  0.9609  0.7671 -0.9495
  949MOL0     H25259  11.263   8.565   5.751  1.5427  0.7090  1.2470
  949MOL0     H25260  11.400   8.687   5.510 -0.0255 -1.2801 -0.0489
  949MOL0     H25261  11.225   8.716   5.546 -0.4293 -1.0007  0.8994
  949MOL0     H25262  11.420   8.872   5.646  0.8282 -2.1610 -2.5162
  949MOL0     H25263  11.411   8.775   5.786  1.2600  1.3212  0.0240
  949MOL0     H25264  11.149   8.801   5.746  1.2718 -1.7759 -1.9437
  949MOL0     H25265  11.250   8.932   5.835  2.6719 -1.7338  0.1559
  949MOL0     H25266  11.143   9.174   5.518 -0.2136  0.3393 -0.5461
  949MOL0     H25267  11.086   8.578   5.656 -1.6167 -2.2900  4.6253
  949MOL0     H25268  10.847   8.496   5.609 -0.4179 -0.7070 -0.3397
  950MOL0     O25269   9.545  10.072   4.332  0.4636 -0.2475 -0.4047
  950MOL0     C25270   9.478   9.973   4.296 -0.3549 -0.6899 -0.2883
  950MOL0     O25271   9.347   9.972   4.277  0.0795  0.2036 -0.8215
  950MOL0     C25272   9.257  10.063   4.326 -0.5354  0.1322  0.7065
  950MOL0     C25273   9.132  10.057   4.260 -0.1406  0.4639  0.4179
  950MOL0     C25274   9.024  10.129   4.312 -0.0569 -0.1035 -0.1470
  950MOL0     C25275   9.041  10.218   4.420 -0.3442  0.3128 -0.2673
  950MOL0     O25276   8.940  10.297   4.454 -0.1340  0.0478 -0.1334
  950MOL0     C25277   8.863  10.249   4.564  0.1211  0.2321  0.3771
  950MOL0     C25278   8.781  10.365   4.618  0.5493 -0.2170  0.4115
  950MOL0     C25279   8.689  10.305   4.720  0.0593 -0.1453 -0.7908
  950MOL0     C25280   8.588  10.420   4.765 -0.7203 -0.0573  0.1784
  950MOL0     C25281   8.488  10.375   4.883 -0.1116  0.2174 -0.1573
  950MOL0     C25282   8.419  10.508   4.929 -0.4210  0.8215 -1.0894
  950MOL0     C25283   8.310  10.484   5.040  0.7231  0.8850 -0.5050
  950MOL0     C25284   8.368  10.415   5.173  0.0660  0.4671 -0.4403
  950MOL0     N25285   8.258  10.392   5.271  0.5532 -0.5082  0.2759
  950MOL0     C25286   8.205  10.269   5.306 -0.2451  0.1266  1.0508
  950MOL0     C25287   8.113  10.309   5.398 -0.3831  0.3296 -1.1583
  950MOL0     C25288   8.040  10.208   5.478  0.0288  0.5039 -0.2201
  950MOL0     C25289   7.930  10.265   5.562 -0.8190  0.3185  0.3896
  950MOL0     C25290   7.983  10.341   5.690 -0.3907 -0.4019 -0.6555
  950MOL0     C25291   7.874  10.373   5.790  0.1684  0.5795 -0.3425
  950MOL0     O25292   7.856  10.255   5.872  0.3708  0.3585 -0.0568
  950MOL0     C25293   7.753  10.255   5.962  0.8408 -0.0781  0.3503
  950MOL0     C25294   7.686  10.373   5.997 -0.5388  0.0122  0.0575
  950MOL0     C25295   7.588  10.371   6.100 -0.3046 -0.3773  0.6946
  950MOL0     C25296   7.551  10.252   6.152 -0.2373 -0.3652  1.0549
  950MOL0     C25297   7.472  10.259   6.277 -0.3397 -0.4163  0.1874
  950MOL0     O25298   7.363  10.344   6.283  0.1066 -0.4895  0.3450
  950MOL0     C25299   7.283  10.325   6.390  0.0441  0.4451  0.2786
  950MOL0     C25300   7.166  10.263   6.368 -0.1273 -0.8147  0.1242
  950MOL0     C25301   7.073  10.243   6.472 -0.0604  0.2254  0.0172
  950MOL0     C25302   7.101  10.299   6.600  0.5003 -0.4952 -0.6641
  950MOL0     O25303   7.008  10.284   6.702 -0.3165 -0.1714  1.1140
  950MOL0     C25304   7.033  10.354   6.824 -0.5345 -0.4984  0.2833
  950MOL0     C25305   6.928  10.300   6.918  0.0381  0.3559 -0.0867
  950MOL0     C25306   6.969  10.167   6.995  0.4032  0.3093 -0.1222
  950MOL0     C25307   6.858  10.147   7.100  0.1884 -0.2003 -0.7519
  950MOL0     C25308   6.883  10.021   7.189 -0.0325 -0.0828  0.0272
  950MOL0     C25309   6.803  10.025   7.318  0.0132 -0.3082 -0.3645
  950MOL0     C25310   6.774   9.891   7.381 -0.3328 -0.4690  0.1952
  950MOL0     C25311   6.684   9.893   7.505 -0.2331 -0.1900  0.9887
  950MOL0    Cl25312   6.528   9.975   7.482 -0.0997  0.3123 -0.2039
  950MOL0     C25313   7.230  10.353   6.621 -0.0334  0.5853 -0.6102
  950MOL0     C25314   7.319  10.349   6.519 -0.1894 -0.0853 -0.3116
  950MOL0     O25315   7.513  10.190   6.368  0.1563 -0.9708 -0.1431
  950MOL0     C25316   7.607  10.135   6.104 -0.4520 -0.1763  0.2579
  950MOL0     C25317   7.712  10.129   6.008 -0.0444 -0.2083 -0.1905
  950MOL0     N25318   8.116  10.447   5.413 -0.1834 -0.0730  0.9750
  950MOL0     N25319   8.216  10.490   5.349  1.4354  0.5151  0.4911
  950MOL0     C25320   9.171  10.229   4.480 -0.0077 -0.0157  0.1884
  950MOL0     C25321   9.279  10.154   4.433  0.8098  0.2524  0.1433
  950MOL0     C25322   9.543   9.844   4.277  0.0521 -0.1875  1.0113
  950MOL0     C25323   9.496   9.762   4.171  0.5379  0.1228 -0.5619
  950MOL0     C25324   9.521   9.627   4.188 -0.7661  0.5628  0.3339
  950MOL0     C25325   9.613   9.571   4.286  0.2180  0.3285  0.4131
  950MOL0     O25326   9.641   9.435   4.287 -0.2961 -0.4736  0.1846
  950MOL0     C25327   9.648   9.371   4.158  0.1095 -0.0167  0.7799
  950MOL0     C25328   9.783   9.411   4.092  0.6658  0.4840  0.1076
  950MOL0     C25329   9.907   9.418   4.179  0.8315 -0.3098  0.4457
  950MOL0     C25330  10.033   9.374   4.115 -0.0908  0.4290  0.2167
  950MOL0     C25331  10.030   9.233   4.064 -0.4294 -0.0837 -0.5383
  950MOL0     C25332  10.025   9.121   4.023  0.0004 -0.1404 -0.2005
  950MOL0     C25333   9.686   9.660   4.365 -0.0981 -0.0921 -1.0792
  950MOL0     C25334   9.649   9.798   4.356  0.7021 -0.1168  0.8432
  950MOL0     H25335   9.123   9.974   4.190  1.0244  1.0117 -0.3996
  950MOL0     H25336   8.928  10.120   4.262 -1.0609  1.3217  1.4482
  950MOL0     H25337   8.926  10.213   4.645 -0.0321 -3.2927 -0.8992
  950MOL0     H25338   8.811  10.162   4.522  0.3863  0.8976 -1.4250
  950MOL0     H25339   8.720  10.412   4.540  1.6266 -1.7452 -1.4659
  950MOL0     H25340   8.852  10.437   4.659  2.6461 -1.1805 -1.2969
  950MOL0     H25341   8.742  10.267   4.808 -2.0075 -1.2093  0.0355
  950MOL0     H25342   8.626  10.229   4.675  0.1078 -1.3783  1.1334
  950MOL0     H25343   8.654  10.503   4.791 -1.1583  0.4021 -0.1594
  950MOL0     H25344   8.524  10.457   4.685  0.0033  0.4926 -0.1531
  950MOL0     H25345   8.555  10.319   4.949 -0.1814 -2.5600 -2.2427
  950MOL0     H25346   8.402  10.315   4.853  1.4512 -1.1612 -2.2061
  950MOL0     H25347   8.371  10.557   4.843  3.7960  2.8746 -2.6301
  950MOL0     H25348   8.498  10.571   4.971  1.9136 -2.1766 -0.6571
  950MOL0     H25349   8.264  10.579   5.070 -0.1252  0.1875  0.4828
  950MOL0     H25350   8.238  10.411   5.001  1.4142 -0.7101  1.0738
  950MOL0     H25351   8.453  10.475   5.206  0.3187 -0.4785  0.7211
  950MOL0     H25352   8.417  10.318   5.162  1.5707  1.0738  0.4548
  950MOL0     H25353   8.234  10.172   5.269 -1.3970  0.1230  0.1049
  950MOL0     H25354   8.112  10.148   5.534  2.6931  2.6541 -1.1145
  950MOL0     H25355   7.986  10.142   5.411 -2.4046  1.6919  0.4626
  950MOL0     H25356   7.852  10.199   5.600  0.7741 -0.0947  3.2497
  950MOL0     H25357   7.880  10.339   5.499 -0.4626 -0.9901 -1.5476
  950MOL0     H25358   8.064  10.292   5.746  0.4647 -1.4207 -2.6856
  950MOL0     H25359   8.019  10.437   5.653 -1.5463  0.5187  0.5325
  950MOL0     H25360   7.786  10.408   5.735 -0.0113 -2.9349 -2.5465
  950MOL0     H25361   7.912  10.458   5.849  2.7377  0.2306 -1.3523
  950MOL0     H25362   7.709  10.474   5.964  0.4318 -0.8738 -2.2281
  950MOL0     H25363   7.556  10.467   6.140  1.7030  2.1169 -2.9876
  950MOL0     H25364   7.146  10.229   6.267  0.3113  0.6610 -0.4885
  950MOL0     H25365   6.981  10.187   6.456  1.0644 -2.0358  1.0536
  950MOL0     H25366   7.026  10.464   6.826 -3.3904 -0.5601  4.0650
  950MOL0     H25367   7.131  10.324   6.861  0.8278 -1.1013 -3.3554
  950MOL0     H25368   6.827  10.295   6.876 -0.5685 -2.0825  1.4317
  950MOL0     H25369   6.918  10.381   6.992 -2.9189  0.3972 -0.3912
  950MOL0     H25370   7.065  10.182   7.043 -2.0206  3.0184  4.5635
  950MOL0     H25371   6.964  10.083   6.925 -0.0757  1.4401 -1.5054
  950MOL0     H25372   6.855  10.230   7.171  1.8075 -1.3063  0.6782
  950MOL0     H25373   6.763  10.138   7.045 -1.7475  0.5768  2.2028
  950MOL0     H25374   6.988  10.009   7.215 -0.3725  2.1102  3.0972
  950MOL0     H25375   6.861   9.933   7.128 -1.4147 -1.0673  1.8357
  950MOL0     H25376   6.704  10.063   7.290 -0.5600 -1.1503  0.5037
  950MOL0     H25377   6.836  10.096   7.395 -0.0362  1.7474 -2.1312
  950MOL0     H25378   6.724   9.825   7.309  0.3429 -1.9730  1.0629
  950MOL0     H25379   6.864   9.840   7.415  0.3442  0.9208  0.5403
  950MOL0     H25380   6.754   9.943   7.573  0.2236  0.2515  0.2069
  950MOL0     H25381   6.658   9.791   7.536 -0.9171 -0.3559 -0.0851
  950MOL0     H25382   7.254  10.398   6.716  0.6855 -1.3577  0.1650
  950MOL0     H25383   7.416  10.398   6.533  1.1482 -2.6430  0.0011
  950MOL0     H25384   7.588  10.047   6.164  2.2758  0.8720  2.9289
  950MOL0     H25385   7.769  10.044   5.974  0.1864 -0.4855  0.8707
  950MOL0     H25386   9.189  10.297   4.562 -2.7181  0.7895  0.2039
  950MOL0     H25387   9.373  10.181   4.482  0.1957  0.8578  1.0293
  950MOL0     H25388   9.426   9.787   4.092  1.0276 -1.6183 -1.6009
  950MOL0     H25389   9.469   9.559   4.121 -0.1046  1.0027 -0.6601
  950MOL0     H25390   9.557   9.377   4.098  1.0197 -0.1002 -0.6516
  950MOL0     H25391   9.668   9.264   4.170  2.0532  0.3060  0.8708
  950MOL0     H25392   9.806   9.341   4.011  0.9114  0.6682  0.0162
  950MOL0     H25393   9.766   9.508   4.046 -0.4520  0.0152 -0.5134
  950MOL0     H25394   9.887   9.366   4.274 -2.6506  1.2590  0.7391
  950MOL0     H25395   9.915   9.526   4.196 -2.4760  0.1250 -0.0897
  950MOL0     H25396  10.057   9.444   4.034  0.9398  0.7730  0.8095
  950MOL0     H25397  10.114   9.387   4.187  1.6494  1.0540 -1.7273
  950MOL0     H25398  10.013   9.023   3.982  2.0046 -0.0794 -1.0307
  950MOL0     H25399   9.765   9.617   4.426  1.2826 -1.1095 -3.4159
  950MOL0     H25400   9.684   9.875   4.423 -0.6656  3.5770 -2.3266
  951MOL0     O25401   5.132   3.807   7.125  0.4466  0.0259  0.4403
  951MOL0     C25402   5.056   3.862   7.207 -0.3238  1.0342  0.3989
  951MOL0     O25403   5.052   3.998   7.225  0.6853  0.7037  0.7572
  951MOL0     C25404   5.098   4.084   7.134  0.4073  0.5132  0.9894
  951MOL0     C25405   5.040   4.087   7.009 -0.8304  0.6445  0.6111
  951MOL0     C25406   5.084   4.187   6.921  0.7736  0.4312 -0.3354
  951MOL0     C25407   5.186   4.274   6.950  0.4504 -0.9835  0.6920
  951MOL0     O25408   5.221   4.380   6.872  0.4940 -0.2454 -0.5359
  951MOL0     C25409   5.133   4.435   6.778 -0.4516  0.2021  0.3685
  951MOL0     C25410   4.997   4.466   6.832 -0.4062 -0.3764 -0.2706
  951MOL0     C25411   4.926   4.587   6.765  0.2620 -0.6675  0.6010
  951MOL0     C25412   4.793   4.643   6.829  0.2052 -1.2080  0.0271
  951MOL0     C25413   4.683   4.530   6.828  0.0659  0.1088  0.0644
  951MOL0     C25414   4.565   4.556   6.916 -0.1852  0.5354  0.1541
  951MOL0     C25415   4.519   4.709   6.899  0.3739  0.3202  0.3319
  951MOL0     C25416   4.417   4.755   7.002  0.2911  0.1693  0.0159
  951MOL0     N25417   4.330   4.647   7.059 -0.4720  0.3754  0.5127
  951MOL0     C25418   4.349   4.590   7.181 -0.5077  0.5934  0.0152
  951MOL0     C25419   4.238   4.530   7.219 -0.1039 -0.1161 -0.7315
  951MOL0     C25420   4.224   4.464   7.353 -0.0023 -0.6074  0.5063
  951MOL0     C25421   4.094   4.378   7.349 -0.2118 -0.4136  0.2108
  951MOL0     C25422   4.049   4.320   7.483  0.1356 -0.4454  0.0098
  951MOL0     C25423   3.921   4.242   7.464  0.3071  0.0849 -0.3050
  951MOL0     O25424   3.856   4.211   7.592  0.1183 -0.5997  0.0222
  951MOL0     C25425   3.756   4.117   7.588 -0.2932 -0.2795 -0.9858
  951MOL0     C25426   3.689   4.104   7.715 -0.7847  0.4008 -0.5726
  951MOL0     C25427   3.582   4.028   7.723  0.8581 -0.2348 -0.3483
  951MOL0     C25428   3.534   3.963   7.616 -0.3365  0.2427 -0.0867
  951MOL0     C25429   3.401   3.886   7.619 -0.4535 -0.1878 -0.5134
  951MOL0     O25430   3.328   3.902   7.732  0.4991  0.2896 -0.3624
  951MOL0     C25431   3.189   3.885   7.732 -0.2249  0.2984 -0.2808
  951MOL0     C25432   3.112   3.903   7.618  0.6661  0.2526 -0.4025
  951MOL0     C25433   2.966   3.886   7.632 -0.2123 -0.0040 -0.3730
  951MOL0     C25434   2.904   3.857   7.755  0.6451 -0.0693  0.2918
  951MOL0     O25435   2.768   3.864   7.763 -0.0079 -0.1058  0.0538
  951MOL0     C25436   2.692   3.925   7.877 -0.4253 -0.0984  0.2259
  951MOL0     C25437   2.608   3.818   7.942  0.0370 -0.4218  0.3005
  951MOL0     C25438   2.685   3.707   8.007  0.8211 -0.3543  0.0836
  951MOL0     C25439   2.594   3.610   8.089 -1.1610  0.0906 -0.0241
  951MOL0     C25440   2.494   3.543   7.998 -0.1556  0.0856 -0.1961
  951MOL0     C25441   2.401   3.431   8.063  0.1076  0.4083  0.1247
  951MOL0     C25442   2.480   3.294   8.065  0.1665  0.5699 -0.1531
  951MOL0     C25443   2.408   3.206   8.153  0.0878 -1.1536  0.2991
  951MOL0    Cl25444   2.400   3.286   8.323  0.2392  0.2637  0.0823
  951MOL0     C25445   2.986   3.836   7.861 -0.6097  0.8485  0.4095
  951MOL0     C25446   3.127   3.852   7.854 -0.2197  0.9256  0.4173
  951MOL0     O25447   3.366   3.818   7.523 -0.3976 -0.8098  0.0575
  951MOL0     C25448   3.610   3.954   7.497  0.0521  0.0117 -0.1341
  951MOL0     C25449   3.711   4.044   7.480  0.1054  0.5549 -0.2240
  951MOL0     N25450   4.149   4.546   7.122  0.5386  0.0940 -0.4654
  951MOL0     N25451   4.197   4.616   7.029 -0.9117 -0.0201 -0.1097
  951MOL0     C25452   5.253   4.267   7.067  0.0761 -0.9490  0.5979
  951MOL0     C25453   5.200   4.172   7.158  0.1461 -0.6339 -1.1593
  951MOL0     C25454   4.970   3.782   7.298 -0.2014 -0.3329  0.1787
  951MOL0     C25455   4.971   3.645   7.281  0.4073 -0.6508  0.4788
  951MOL0     C25456   4.907   3.554   7.374  0.4322  0.1343 -0.0656
  951MOL0     C25457   4.828   3.608   7.476 -0.1562  0.3014 -0.1045
  951MOL0     O25458   4.761   3.531   7.571  0.4055 -0.5552 -0.0485
  951MOL0     C25459   4.752   3.391   7.548  0.2905  0.1596 -0.1350
  951MOL0     C25460   4.688   3.331   7.671  0.1550 -0.5939  0.1312
  951MOL0     C25461   4.778   3.344   7.797 -0.1893 -0.0350 -0.7920
  951MOL0     C25462   4.715   3.255   7.904  0.0858  0.5110 -0.3427
  951MOL0     C25463   4.594   3.323   7.951  0.7625 -0.7087 -0.3044
  951MOL0     C25464   4.495   3.393   7.977 -0.0121  0.4262  0.4151
  951MOL0     C25465   4.828   3.751   7.486  0.6342 -0.6350 -0.0948
  951MOL0     C25466   4.894   3.837   7.404 -1.0820 -0.0593  0.6941
  951MOL0     H25467   4.982   4.007   6.965  1.1324 -0.3105 -0.3416
  951MOL0     H25468   5.033   4.177   6.825  2.6475  0.7916 -1.4366
  951MOL0     H25469   5.126   4.361   6.698  1.9882  1.0473 -0.7529
  951MOL0     H25470   5.173   4.520   6.721 -0.4866 -1.3590 -2.1281
  951MOL0     H25471   4.992   4.480   6.941 -1.7026 -0.3917 -0.3062
  951MOL0     H25472   4.938   4.377   6.807 -3.7182  2.2964 -3.0060
  951MOL0     H25473   4.906   4.547   6.666  0.0881 -1.8557  1.1042
  951MOL0     H25474   5.000   4.668   6.763  0.3826 -0.7955 -1.1860
  951MOL0     H25475   4.792   4.684   6.931 -2.5358 -2.1700  0.4611
  951MOL0     H25476   4.776   4.736   6.773  0.7786  0.4733  2.4433
  951MOL0     H25477   4.735   4.441   6.865  0.4205  0.6797  0.9789
  951MOL0     H25478   4.651   4.507   6.726  1.7876  0.5389 -0.6141
  951MOL0     H25479   4.587   4.543   7.022 -2.8280  0.9768  0.8368
  951MOL0     H25480   4.483   4.483   6.908  0.1324  0.2720 -0.8189
  951MOL0     H25481   4.601   4.775   6.930  2.1298 -1.7302  0.3715
  951MOL0     H25482   4.499   4.725   6.793  2.1005 -3.3140 -0.7048
  951MOL0     H25483   4.359   4.827   6.945  0.7258 -0.6086 -1.4794
  951MOL0     H25484   4.469   4.800   7.087  2.1710 -0.3343 -0.8128
  951MOL0     H25485   4.437   4.587   7.245 -1.3191 -0.1429  1.1309
  951MOL0     H25486   4.228   4.551   7.419 -0.4898  1.1141 -1.6179
  951MOL0     H25487   4.305   4.392   7.368  0.5160  0.4663  3.3223
  951MOL0     H25488   4.100   4.301   7.271  3.0787  0.4357 -0.5204
  951MOL0     H25489   4.009   4.441   7.323  1.6355  2.7132  1.2720
  951MOL0     H25490   4.124   4.245   7.509 -0.5051 -2.8490 -4.0614
  951MOL0     H25491   4.036   4.395   7.561  0.1881  2.6889 -2.7853
  951MOL0     H25492   3.945   4.145   7.419  0.6716  0.2588 -0.4939
  951MOL0     H25493   3.850   4.313   7.420 -0.4708  1.7826  3.2695
  951MOL0     H25494   3.721   4.150   7.809 -0.8750 -0.8910  0.1091
  951MOL0     H25495   3.536   4.003   7.818  1.1351  0.0497 -0.1330
  951MOL0     H25496   3.150   3.926   7.519  0.8199 -0.2909 -0.4706
  951MOL0     H25497   2.896   3.889   7.549  1.2866  1.4143 -1.6503
  951MOL0     H25498   2.625   4.001   7.835  1.5256  1.0558 -0.9515
  951MOL0     H25499   2.761   3.972   7.948  2.0176 -1.4117 -1.1332
  951MOL0     H25500   2.549   3.780   7.858  3.1160 -0.6493 -1.9561
  951MOL0     H25501   2.535   3.855   8.014  0.2677 -1.3000  1.0163
  951MOL0     H25502   2.759   3.748   8.076  0.2411  0.3220  0.3136
  951MOL0     H25503   2.741   3.652   7.930 -0.5645 -2.4509  0.4942
  951MOL0     H25504   2.657   3.529   8.126 -1.8458 -0.2196  0.4901
  951MOL0     H25505   2.541   3.662   8.169 -0.2665 -1.2082  1.4836
  951MOL0     H25506   2.546   3.506   7.908  1.4850 -0.2333  0.8404
  951MOL0     H25507   2.424   3.620   7.966 -0.6361  0.6991  2.1748
  951MOL0     H25508   2.306   3.411   8.012  0.6491  0.9873 -1.1519
  951MOL0     H25509   2.370   3.462   8.164 -1.6933 -0.2674 -0.1784
  951MOL0     H25510   2.483   3.248   7.966  1.2574  1.1577 -0.4096
  951MOL0     H25511   2.578   3.318   8.107 -0.6881 -0.8692  2.9158
  951MOL0     H25512   2.446   3.103   8.155 -0.3139 -1.3165 -0.1882
  951MOL0     H25513   2.308   3.204   8.109  0.1259  0.0586  0.1215
  951MOL0     H25514   2.941   3.811   7.956  2.7225 -1.4548  1.5709
  951MOL0     H25515   3.187   3.840   7.943 -0.0705  3.7390  0.7868
  951MOL0     H25516   3.565   3.897   7.416 -1.1307 -0.4310  0.8005
  951MOL0     H25517   3.756   4.059   7.383  1.2177  3.8714  0.7007
  951MOL0     H25518   5.336   4.335   7.088 -1.6239  0.9778  1.4810
  951MOL0     H25519   5.247   4.191   7.254 -0.5871  3.4360 -1.4463
  951MOL0     H25520   5.026   3.606   7.196  0.3618  1.8574 -0.8159
  951MOL0     H25521   4.919   3.447   7.363 -1.9778 -0.0824 -1.2867
  951MOL0     H25522   4.837   3.330   7.515 -0.3759 -0.8389 -0.0691
  951MOL0     H25523   4.677   3.378   7.469  0.7979 -0.1674 -0.5747
  951MOL0     H25524   4.592   3.378   7.694  0.0103  0.3654 -2.1437
  951MOL0     H25525   4.665   3.227   7.648 -2.2689 -0.0938  0.0511
  951MOL0     H25526   4.782   3.446   7.836  2.2414 -0.6945  0.9470
  951MOL0     H25527   4.882   3.314   7.784  1.0477  1.9812  3.0860
  951MOL0     H25528   4.696   3.153   7.867 -0.2064  0.0482  1.0318
  951MOL0     H25529   4.775   3.248   7.995  4.0698  0.8756 -2.7212
  951MOL0     H25530   4.400   3.441   7.973 -1.4965 -2.2596  0.8916
  951MOL0     H25531   4.752   3.795   7.550 -2.1000  1.3425 -4.2788
  951MOL0     H25532   4.883   3.945   7.410 -1.7693 -0.1465  1.0990
  952MOL0     O25533   9.554   5.207   5.325  0.5987 -0.0761 -0.3001
  952MOL0     C25534   9.528   5.324   5.290 -0.8018  0.8965  0.2238
  952MOL0     O25535   9.623   5.419   5.289  0.5021  0.2526  0.5235
  952MOL0     C25536   9.754   5.394   5.295  0.1220  1.2310  0.1447
  952MOL0     C25537   9.827   5.316   5.200  1.1925 -0.0051 -0.4701
  952MOL0     C25538   9.956   5.278   5.222 -0.0469  1.1329  0.2483
  952MOL0     C25539  10.024   5.315   5.340 -0.6287  0.2075 -0.8153
  952MOL0     O25540  10.150   5.276   5.362 -0.1482 -0.3757 -0.0279
  952MOL0     C25541  10.240   5.277   5.255  0.0068 -0.0327 -0.8637
  952MOL0     C25542  10.363   5.358   5.286  0.5532  0.4114 -0.0385
  952MOL0     C25543  10.467   5.338   5.175 -0.1474 -0.1495  0.3065
  952MOL0     C25544  10.581   5.439   5.201 -0.0581 -0.0489  0.0921
  952MOL0     C25545  10.698   5.430   5.107 -0.3211 -0.6171 -0.2675
  952MOL0     C25546  10.657   5.433   4.958 -0.5524  0.1702 -0.5686
  952MOL0     C25547  10.776   5.459   4.864  0.6923 -0.0762  0.9608
  952MOL0     C25548  10.910   5.381   4.880  0.7464 -0.1779  0.4111
  952MOL0     N25549  10.996   5.405   4.764 -0.5829  0.0069  0.1520
  952MOL0     C25550  11.012   5.512   4.676  0.2635 -0.1381 -0.7921
  952MOL0     C25551  11.126   5.491   4.613  0.6386 -0.5109  0.8024
  952MOL0     C25552  11.194   5.580   4.504  0.1036 -0.2190 -0.3354
  952MOL0     C25553  11.088   5.642   4.412  1.1774 -0.3302  0.1830
  952MOL0     C25554  11.029   5.526   4.326 -0.4379  0.3798 -0.5346
  952MOL0     C25555  10.920   5.570   4.227 -0.1099 -0.1323 -0.9237
  952MOL0     O25556  10.800   5.604   4.297 -0.3129  0.7425  0.0042
  952MOL0     C25557  10.700   5.664   4.230  1.5223 -0.0888 -1.2549
  952MOL0     C25558  10.675   5.667   4.092 -0.6018 -0.0155  0.6076
  952MOL0     C25559  10.568   5.732   4.037 -0.4986  0.9551 -0.7810
  952MOL0     C25560  10.481   5.797   4.123  0.7140  0.4766 -0.5389
  952MOL0     C25561  10.361   5.842   4.069  0.6759 -0.0297 -0.1009
  952MOL0     O25562  10.333   5.817   3.938  0.2221 -0.1679 -0.2767
  952MOL0     C25563  10.214   5.852   3.872 -0.0996 -0.6282 -0.6237
  952MOL0     C25564  10.087   5.808   3.914 -0.0522  0.1279  1.5035
  952MOL0     C25565   9.971   5.847   3.850 -0.5744  0.1794 -0.5821
  952MOL0     C25566   9.973   5.953   3.761  0.3114  0.6307  0.2843
  952MOL0     O25567   9.867   6.008   3.700  0.7259  0.1714  0.2147
  952MOL0     C25568   9.729   5.978   3.754  0.0096  1.1506 -0.2743
  952MOL0     C25569   9.695   6.032   3.893  0.4319  0.0671 -0.6573
  952MOL0     C25570   9.560   5.987   3.946  0.7224  0.5241  1.0347
  952MOL0     C25571   9.443   6.079   3.889  0.1309  0.2905 -0.1130
  952MOL0     C25572   9.317   6.067   3.961  0.2433 -0.5409  0.2323
  952MOL0     C25573   9.211   6.127   3.873 -0.6876 -0.0662 -0.3218
  952MOL0     C25574   9.079   6.124   3.953  0.9513  0.5932  0.4984
  952MOL0     C25575   8.975   6.191   3.872  0.2729  0.5167 -0.1816
  952MOL0    Cl25576   8.830   6.233   3.979 -0.3297 -0.6421  0.0929
  952MOL0     C25577  10.100   6.008   3.725  0.0811 -0.3865  0.8414
  952MOL0     C25578  10.209   5.969   3.788 -0.4585  0.2806  0.4060
  952MOL0     O25579  10.282   5.904   4.143 -0.0508 -0.0805  0.6263
  952MOL0     C25580  10.495   5.787   4.265  0.3353 -0.9727  1.1756
  952MOL0     C25581  10.605   5.720   4.317 -0.6225  0.2404  0.0807
  952MOL0     N25582  11.174   5.370   4.648 -0.3671  0.2295 -0.2226
  952MOL0     N25583  11.105   5.326   4.753  0.4512  0.5152  0.0112
  952MOL0     C25584   9.960   5.397   5.427  0.5643 -0.1233 -0.0160
  952MOL0     C25585   9.825   5.441   5.403  0.0663 -0.3726  0.3775
  952MOL0     C25586   9.387   5.365   5.270  0.9503  0.8073  0.0859
  952MOL0     C25587   9.284   5.283   5.310 -0.0595  0.2776  0.1279
  952MOL0     C25588   9.157   5.316   5.281 -0.1434  0.3589  0.6476
  952MOL0     C25589   9.117   5.437   5.226  0.6331 -0.1140 -0.9106
  952MOL0     O25590   8.981   5.470   5.201 -0.1786  0.0871  0.4376
  952MOL0     C25591   8.883   5.397   5.273 -0.4635 -0.5516 -0.2642
  952MOL0     C25592   8.751   5.475   5.275 -0.4138 -0.0046 -0.7509
  952MOL0     C25593   8.728   5.526   5.130  0.4437  0.2546  0.0978
  952MOL0     C25594   8.593   5.600   5.137  0.4413  0.1566 -0.0678
  952MOL0     C25595   8.545   5.634   5.002 -0.6008  0.4019 -0.0302
  952MOL0     C25596   8.511   5.639   4.888 -0.2650  0.7364 -0.1516
  952MOL0     C25597   9.218   5.524   5.178  0.7094  0.1946  0.8080
  952MOL0     C25598   9.353   5.487   5.197  0.1064 -1.2427 -0.5403
  952MOL0     H25599   9.784   5.288   5.104 -1.2470 -0.0394  0.5381
  952MOL0     H25600  10.002   5.214   5.147  1.8489 -1.6645  3.5270
  952MOL0     H25601  10.193   5.330   5.170  1.8638  5.2836  0.9842
  952MOL0     H25602  10.281   5.179   5.230  1.4375  0.1417  0.6447
  952MOL0     H25603  10.394   5.316   5.382 -3.9858  1.6569  2.2848
  952MOL0     H25604  10.348   5.465   5.306  0.9444  0.3167  0.8252
  952MOL0     H25605  10.421   5.355   5.077 -0.3806 -2.9679 -0.1302
  952MOL0     H25606  10.515   5.240   5.168 -0.2795 -0.4649  2.9539
  952MOL0     H25607  10.548   5.544   5.196  0.2543  0.1813  2.1246
  952MOL0     H25608  10.628   5.437   5.300  2.0414  0.8982 -0.7996
  952MOL0     H25609  10.745   5.331   5.112 -0.2941 -0.6502 -1.0613
  952MOL0     H25610  10.762   5.513   5.139 -2.8431  0.8109  1.4751
  952MOL0     H25611  10.588   5.515   4.940 -0.3939 -0.0467 -2.3654
  952MOL0     H25612  10.616   5.334   4.935  2.9744 -1.8679  1.0854
  952MOL0     H25613  10.740   5.446   4.761  2.2385 -1.4400  0.5351
  952MOL0     H25614  10.809   5.562   4.876  3.6381 -0.8447  0.4380
  952MOL0     H25615  10.890   5.275   4.898 -0.2633 -0.1626 -0.5562
  952MOL0     H25616  10.961   5.426   4.966  0.9898  2.9471 -1.2206
  952MOL0     H25617  10.951   5.600   4.656  0.1258 -0.5888 -2.4901
  952MOL0     H25618  11.261   5.513   4.450  1.3736  0.3741  0.4507
  952MOL0     H25619  11.252   5.658   4.555  0.9193 -1.4796  0.7342
  952MOL0     H25620  11.136   5.700   4.332  1.7260 -1.3438 -0.2469
  952MOL0     H25621  11.018   5.708   4.463  0.2113 -0.2933 -1.1254
  952MOL0     H25622  11.111   5.490   4.264 -2.3597 -1.5346 -2.1254
  952MOL0     H25623  10.989   5.445   4.388  2.1325 -0.0344  0.7084
  952MOL0     H25624  10.894   5.492   4.154  1.7821 -1.0406 -0.6897
  952MOL0     H25625  10.954   5.653   4.165 -2.3318  1.3103 -0.3178
  952MOL0     H25626  10.743   5.621   4.021  1.7372  0.5133  2.4215
  952MOL0     H25627  10.567   5.718   3.929  2.9425 -1.8592 -0.6264
  952MOL0     H25628  10.074   5.728   3.986  4.1420 -0.6854  1.6514
  952MOL0     H25629   9.879   5.804   3.890  0.1582 -0.9584 -0.0604
  952MOL0     H25630   9.714   5.871   3.772  1.4497  0.8654 -0.6850
  952MOL0     H25631   9.654   6.017   3.685  0.2922  1.3001 -0.4968
  952MOL0     H25632   9.699   6.141   3.898 -1.4147  0.2534 -2.2147
  952MOL0     H25633   9.779   5.995   3.953 -0.6778 -1.4915 -0.0003
  952MOL0     H25634   9.564   6.001   4.055 -3.6015 -1.0822  1.6079
  952MOL0     H25635   9.545   5.881   3.922 -0.4659  0.7692  0.6397
  952MOL0     H25636   9.482   6.181   3.887  2.1457 -0.4183  0.3828
  952MOL0     H25637   9.428   6.045   3.787  0.3711 -3.7542  1.0119
  952MOL0     H25638   9.319   6.129   4.052 -0.3558  0.3254 -0.3234
  952MOL0     H25639   9.291   5.967   3.995 -0.9830  0.9185  4.1001
  952MOL0     H25640   9.198   6.073   3.779  2.1128 -3.5153  1.0717
  952MOL0     H25641   9.223   6.234   3.854 -1.2003 -0.1736 -1.3163
  952MOL0     H25642   9.050   6.021   3.973  3.0131 -0.2545 -0.5029
  952MOL0     H25643   9.085   6.176   4.049 -0.1395  0.8501  0.4398
  952MOL0     H25644   8.949   6.107   3.806  0.1416 -0.2759  0.8517
  952MOL0     H25645   9.015   6.271   3.810 -0.9792  0.2826 -1.3548
  952MOL0     H25646  10.110   6.095   3.660 -0.4738 -0.9390 -0.0141
  952MOL0     H25647  10.304   6.010   3.755 -0.1878 -0.5357  0.1477
  952MOL0     H25648  10.425   5.832   4.334 -0.4788  2.5265 -1.6560
  952MOL0     H25649  10.617   5.712   4.424 -2.9955  1.9585  0.5721
  952MOL0     H25650  10.009   5.433   5.516 -0.2615 -2.8977  1.6639
  952MOL0     H25651   9.771   5.506   5.470 -1.0602  1.7098 -2.3519
  952MOL0     H25652   9.305   5.188   5.358  4.2775 -0.5135 -2.7304
  952MOL0     H25653   9.084   5.240   5.306 -1.2921  1.3709  0.4353
  952MOL0     H25654   8.914   5.386   5.377 -0.1489  0.3173 -0.2587
  952MOL0     H25655   8.870   5.295   5.236 -1.0217 -2.0346  3.5630
  952MOL0     H25656   8.662   5.415   5.298 -1.6680  1.0360 -2.6119
  952MOL0     H25657   8.760   5.564   5.338  0.7506 -0.9466  0.4601
  952MOL0     H25658   8.719   5.441   5.062 -0.3863  0.5037 -0.1141
  952MOL0     H25659   8.802   5.587   5.078  0.1126 -0.5395 -1.3466
  952MOL0     H25660   8.518   5.537   5.186  2.2156 -1.2116  1.0224
  952MOL0     H25661   8.618   5.677   5.211  0.3500 -1.2078  1.4370
  952MOL0     H25662   8.479   5.622   4.787 -0.3629  5.1949 -1.0787
  952MOL0     H25663   9.190   5.620   5.137 -1.1074  0.6260  2.8952
  952MOL0     H25664   9.435   5.554   5.175 -0.4216 -0.3579  0.1316
  953MOL0     O25665   7.567   4.571   8.023 -0.0548  0.3325  1.0872
  953MOL0     C25666   7.487   4.627   7.950  0.1467 -0.5337 -0.2012
  953MOL0     O25667   7.480   4.767   7.931  0.4250 -0.4718  0.3735
  953MOL0     C25668   7.574   4.845   7.988 -0.1007 -0.9307 -0.2669
  953MOL0     C25669   7.660   4.924   7.914  0.3389 -0.0798  0.1283
  953MOL0     C25670   7.740   5.026   7.971  0.0408 -0.4149 -0.2892
  953MOL0     C25671   7.731   5.051   8.112  0.4970  0.6662  0.7665
  953MOL0     O25672   7.793   5.147   8.179  0.1144 -0.1621  0.1972
  953MOL0     C25673   7.837   5.267   8.111  0.5450  0.2499 -0.3306
  953MOL0     C25674   7.719   5.361   8.078 -0.1430  0.5261  0.4592
  953MOL0     C25675   7.602   5.354   8.177 -0.4097  0.2076 -0.0888
  953MOL0     C25676   7.504   5.472   8.163  0.1721 -0.1562 -0.0431
  953MOL0     C25677   7.396   5.474   8.272 -0.2026  0.2267  0.3620
  953MOL0     C25678   7.285   5.570   8.232 -0.0206  0.4151  0.9489
  953MOL0     C25679   7.313   5.716   8.197 -0.4659  0.2884  0.0039
  953MOL0     C25680   7.364   5.743   8.050 -0.3648 -0.7991 -0.2100
  953MOL0     N25681   7.362   5.886   8.029 -0.1615  0.4725  0.2171
  953MOL0     C25682   7.245   5.957   8.006 -0.3235  0.4973  0.4073
  953MOL0     C25683   7.292   6.075   7.976 -0.0287 -0.2367 -0.5807
  953MOL0     C25684   7.227   6.196   7.923  0.2060  0.4995 -0.1508
  953MOL0     C25685   7.107   6.166   7.842  0.0354  0.3159 -0.1840
  953MOL0     C25686   7.144   6.127   7.701 -0.2434  0.0728 -0.2515
  953MOL0     C25687   7.215   5.991   7.686 -0.1773  0.3854 -0.8983
  953MOL0     O25688   7.219   5.945   7.546 -0.2289 -0.1702  0.4833
  953MOL0     C25689   7.111   5.885   7.487 -0.5624 -0.3117  1.1813
  953MOL0     C25690   7.034   5.789   7.558 -0.4289  0.1748  0.2729
  953MOL0     C25691   6.920   5.743   7.500 -0.2898  0.7818  0.0803
  953MOL0     C25692   6.884   5.780   7.374  0.1122  0.4260  0.1245
  953MOL0     C25693   6.755   5.731   7.316  0.4895 -0.6455 -0.0475
  953MOL0     O25694   6.676   5.652   7.393 -0.5641 -0.0641 -0.0477
  953MOL0     C25695   6.555   5.614   7.348  0.8510 -0.2664 -0.2755
  953MOL0     C25696   6.543   5.486   7.296 -0.1277 -0.4184 -0.6246
  953MOL0     C25697   6.429   5.441   7.232 -0.6175  0.1322  0.2526
  953MOL0     C25698   6.316   5.515   7.242  0.4901 -0.3550 -0.3881
  953MOL0     O25699   6.207   5.452   7.198 -0.2807 -0.5013  0.1670
  953MOL0     C25700   6.087   5.521   7.158 -0.0522  0.3252 -0.0990
  953MOL0     C25701   5.987   5.418   7.098  0.1133  0.2214  0.3294
  953MOL0     C25702   5.846   5.478   7.065 -0.3790 -0.7062  0.4749
  953MOL0     C25703   5.762   5.387   6.971 -0.6225  0.0210 -1.2262
  953MOL0     C25704   5.617   5.439   6.965  0.0044 -0.3913 -1.4640
  953MOL0     C25705   5.515   5.347   6.896  0.0014  0.2003 -0.0447
  953MOL0     C25706   5.368   5.383   6.929  0.2336 -0.4187  0.6644
  953MOL0     C25707   5.289   5.390   6.801 -1.0817 -1.2258  0.1262
  953MOL0    Cl25708   5.306   5.226   6.725  0.0194 -0.2067 -0.2174
  953MOL0     C25709   6.318   5.647   7.295 -0.2610  0.7284 -1.2843
  953MOL0     C25710   6.439   5.697   7.356 -0.5516  0.2018  0.0147
  953MOL0     O25711   6.714   5.794   7.223 -0.4467 -0.1318  0.1709
  953MOL0     C25712   6.962   5.866   7.302 -0.5630  1.1408  0.0859
  953MOL0     C25713   7.081   5.919   7.357 -0.7860  0.6344  0.0504
  953MOL0     N25714   7.428   6.088   7.991  0.4354 -0.2125 -0.2996
  953MOL0     N25715   7.470   5.967   8.027  0.4807  0.0548 -0.9695
  953MOL0     C25716   7.655   4.957   8.185 -0.2770 -0.6490  0.3865
  953MOL0     C25717   7.580   4.855   8.125  0.2135  0.9645  0.4900
  953MOL0     C25718   7.381   4.546   7.890  0.6413  0.0255  0.9749
  953MOL0     C25719   7.346   4.432   7.960  0.9623 -0.2926 -0.5865
  953MOL0     C25720   7.240   4.349   7.916 -0.0460  0.4558  0.5499
  953MOL0     C25721   7.177   4.369   7.793  0.3340  0.1699 -0.2799
  953MOL0     O25722   7.082   4.282   7.753 -0.1888 -0.1096  0.3233
  953MOL0     C25723   7.096   4.267   7.610  0.0436 -0.7202  0.0839
  953MOL0     C25724   7.030   4.130   7.574  0.0422 -0.1893  0.8849
  953MOL0     C25725   7.022   4.098   7.422 -0.4128  0.9406  0.7052
  953MOL0     C25726   6.976   3.958   7.396  0.6154 -0.2392  0.0925
  953MOL0     C25727   6.965   3.951   7.247 -0.5076 -0.4406 -0.4314
  953MOL0     C25728   6.971   3.959   7.123 -0.2254  0.4486 -1.3182
  953MOL0     C25729   7.221   4.486   7.729 -0.2791  0.4021  0.5286
  953MOL0     C25730   7.316   4.574   7.769 -0.2556 -0.2166  0.3188
  953MOL0     H25731   7.667   4.911   7.806  0.5247 -1.1151  0.2536
  953MOL0     H25732   7.798   5.094   7.910 -0.2202  1.4991  1.4571
  953MOL0     H25733   7.898   5.250   8.022  2.1477  0.6448  0.6465
  953MOL0     H25734   7.916   5.317   8.169 -0.2959  0.5012  0.6084
  953MOL0     H25735   7.689   5.322   7.980  0.9220  1.0683 -0.1057
  953MOL0     H25736   7.754   5.464   8.060  1.9532  0.0561  1.4930
  953MOL0     H25737   7.640   5.338   8.278  0.5204 -2.3278 -0.7760
  953MOL0     H25738   7.537   5.269   8.154 -0.4521 -0.1649  1.3026
  953MOL0     H25739   7.568   5.560   8.174  1.9975 -1.6076  1.8486
  953MOL0     H25740   7.455   5.475   8.065  0.1636 -2.8185 -0.2095
  953MOL0     H25741   7.442   5.504   8.366  0.7494 -2.8815  1.0217
  953MOL0     H25742   7.355   5.373   8.282  1.2774 -0.8869 -3.0287
  953MOL0     H25743   7.207   5.585   8.307 -0.2363 -1.0759  1.0647
  953MOL0     H25744   7.232   5.524   8.148  2.3388 -0.2765 -0.2707
  953MOL0     H25745   7.218   5.769   8.205  1.3501  3.6907  1.1067
  953MOL0     H25746   7.378   5.750   8.279 -1.3283 -6.5645  4.3504
  953MOL0     H25747   7.293   5.698   7.980  0.2890  0.8099 -1.9886
  953MOL0     H25748   7.464   5.706   8.029 -0.5855 -0.5562 -1.7726
  953MOL0     H25749   7.146   5.913   7.997  0.2574 -0.9203  0.6688
  953MOL0     H25750   7.306   6.248   7.867 -0.0740  1.6369  0.4856
  953MOL0     H25751   7.199   6.258   8.007 -1.1769  1.5571 -1.3510
  953MOL0     H25752   7.058   6.264   7.847  0.8718  0.7025  0.5905
  953MOL0     H25753   7.043   6.092   7.892 -0.4326  0.5417 -0.4345
  953MOL0     H25754   7.050   6.120   7.645 -2.2151  2.2356  2.4942
  953MOL0     H25755   7.208   6.206   7.660  0.7581 -1.5009 -1.8908
  953MOL0     H25756   7.168   5.914   7.749 -1.1432  0.7127 -1.2102
  953MOL0     H25757   7.317   6.011   7.719 -0.7992 -0.8378  2.1176
  953MOL0     H25758   7.064   5.752   7.656  1.4569 -0.7767 -0.6192
  953MOL0     H25759   6.854   5.691   7.568 -0.9975 -0.2346 -1.3423
  953MOL0     H25760   6.625   5.416   7.305 -1.3632 -1.8383  0.2104
  953MOL0     H25761   6.434   5.339   7.196 -2.1487  0.5509 -1.2471
  953MOL0     H25762   6.115   5.605   7.094  1.3272 -0.1260 -0.1190
  953MOL0     H25763   6.050   5.560   7.253  1.0656  1.2514 -0.0223
  953MOL0     H25764   5.973   5.334   7.166 -1.3299  0.5506  0.4823
  953MOL0     H25765   6.028   5.373   7.007  1.8981  0.4189  1.0077
  953MOL0     H25766   5.847   5.578   7.021 -1.0295 -0.9378 -0.0973
  953MOL0     H25767   5.798   5.498   7.161  1.2494  1.0037  0.9850
  953MOL0     H25768   5.806   5.385   6.871 -0.8780 -2.8830 -1.3494
  953MOL0     H25769   5.760   5.284   7.007  0.6438 -0.7236 -3.1393
  953MOL0     H25770   5.627   5.539   6.922  1.3397  0.7550  1.2439
  953MOL0     H25771   5.581   5.450   7.068  2.7428  1.5377 -0.5962
  953MOL0     H25772   5.527   5.246   6.935 -1.8835 -0.7894 -1.8002
  953MOL0     H25773   5.532   5.343   6.788  1.5681  0.0450  0.1827
  953MOL0     H25774   5.332   5.320   7.010  3.1217  0.7752  3.0550
  953MOL0     H25775   5.356   5.486   6.963  1.8399 -0.9929  3.1961
  953MOL0     H25776   5.337   5.466   6.738 -1.0161 -1.0238  0.4148
  953MOL0     H25777   5.186   5.421   6.820  0.1321  2.8997  1.0049
  953MOL0     H25778   6.224   5.699   7.285 -2.1118 -2.1516 -0.1300
  953MOL0     H25779   6.449   5.801   7.386 -0.0273  0.7395 -1.8781
  953MOL0     H25780   6.928   5.895   7.203 -1.0725  0.5141  0.0686
  953MOL0     H25781   7.150   5.992   7.316  0.9841 -0.3164  1.2282
  953MOL0     H25782   7.643   4.969   8.292  0.8048 -1.6930  0.6417
  953MOL0     H25783   7.513   4.793   8.184  0.4133 -1.5757 -1.7867
  953MOL0     H25784   7.394   4.397   8.051  3.0973  0.0902 -1.5035
  953MOL0     H25785   7.214   4.264   7.979  1.4319 -0.3147  0.1612
  953MOL0     H25786   7.198   4.268   7.572  0.5056  2.6216  1.0624
  953MOL0     H25787   7.041   4.347   7.560  1.0293  0.1267  0.3413
  953MOL0     H25788   7.082   4.056   7.636  2.3522  2.8204  2.7952
  953MOL0     H25789   6.926   4.142   7.609 -1.0090 -1.4560 -1.5753
  953MOL0     H25790   7.125   4.097   7.383  0.3989 -1.5224  2.6383
  953MOL0     H25791   6.965   4.168   7.360  1.4845  2.4464  0.5263
  953MOL0     H25792   7.051   3.885   7.430  1.1007 -0.8602 -2.1840
  953MOL0     H25793   6.878   3.935   7.439  0.1215 -0.5121 -1.1563
  953MOL0     H25794   6.976   3.973   7.017  0.7594  0.2545 -1.3125
  953MOL0     H25795   7.169   4.525   7.642  0.4754  1.6562  0.6176
  953MOL0     H25796   7.344   4.668   7.723  1.9570 -1.5086 -1.1477
  954MOL0     O25797  10.507   3.192   7.491 -0.1507 -0.3597  0.2225
  954MOL0     C25798  10.594   3.131   7.563 -0.3250 -0.3307 -0.5773
  954MOL0     O25799  10.567   3.058   7.678 -0.6129 -0.3477 -0.3502
  954MOL0     C25800  10.429   3.036   7.689  0.0990  0.0899  0.3307
  954MOL0     C25801  10.356   3.078   7.798  0.6283 -0.2864 -0.4748
  954MOL0     C25802  10.215   3.054   7.818 -0.6572  0.2588  0.4370
  954MOL0     C25803  10.155   2.972   7.724 -0.5490 -0.2720  0.5563
  954MOL0     O25804  10.023   2.947   7.733  0.5607  0.0865 -0.0982
  954MOL0     C25805   9.958   3.058   7.677  0.5870 -0.1794 -0.3381
  954MOL0     C25806   9.809   3.020   7.675  0.9634 -0.0030 -0.6465
  954MOL0     C25807   9.733   3.050   7.808 -0.7000 -0.0574  0.6566
  954MOL0     C25808   9.574   3.034   7.796 -0.3163 -0.2356 -0.4093
  954MOL0     C25809   9.515   3.062   7.934  0.2411 -0.1831  0.4037
  954MOL0     C25810   9.402   2.966   7.988  0.6522 -0.6142 -0.5582
  954MOL0     C25811   9.462   2.832   8.017 -0.2904  0.3363  0.4412
  954MOL0     C25812   9.349   2.733   8.069 -0.5607 -0.5386  0.1194
  954MOL0     N25813   9.279   2.777   8.193 -0.4790  0.2368 -0.0714
  954MOL0     C25814   9.332   2.851   8.296 -0.5513  0.0392  0.5972
  954MOL0     C25815   9.233   2.860   8.386 -0.4729 -0.7957  0.3314
  954MOL0     C25816   9.257   2.906   8.530 -1.0884 -0.0531 -0.4984
  954MOL0     C25817   9.224   3.055   8.554 -0.2493 -0.1826 -0.5372
  954MOL0     C25818   9.067   3.085   8.545 -0.2088 -0.8223 -0.6313
  954MOL0     C25819   9.035   3.231   8.503  1.0073  1.0086 -0.0685
  954MOL0     O25820   8.942   3.283   8.599  0.2196 -0.4872 -0.1837
  954MOL0     C25821   8.805   3.253   8.587  0.2010 -0.3660  0.5934
  954MOL0     C25822   8.729   3.337   8.670 -0.5009 -0.0390  0.2252
  954MOL0     C25823   8.588   3.331   8.666  0.0364  0.2919 -0.6259
  954MOL0     C25824   8.515   3.255   8.567 -0.5513  0.8826  0.6770
  954MOL0     C25825   8.369   3.253   8.545 -0.0193 -0.8516 -0.0641
  954MOL0     O25826   8.316   3.180   8.450  0.4002  0.2869  0.0104
  954MOL0     C25827   8.178   3.171   8.425  0.7079  0.5971 -0.2168
  954MOL0     C25828   8.129   3.158   8.296  1.6244  0.5835 -0.0068
  954MOL0     C25829   7.991   3.138   8.271 -0.9401 -0.5307 -0.4497
  954MOL0     C25830   7.900   3.151   8.382 -1.3111  0.0007  0.5957
  954MOL0     O25831   7.766   3.158   8.362 -0.2517  0.2102  0.1742
  954MOL0     C25832   7.667   3.118   8.457  0.2410 -0.3977  0.0811
  954MOL0     C25833   7.541   3.112   8.373  1.0862  0.7504 -0.2465
  954MOL0     C25834   7.405   3.074   8.426  0.5222  0.5331 -0.3127
  954MOL0     C25835   7.301   3.060   8.309  0.0530  0.1703 -0.3019
  954MOL0     C25836   7.175   2.991   8.359  0.6954  0.5709 -0.2706
  954MOL0     C25837   7.053   3.018   8.268 -0.6700  0.2747 -0.4033
  954MOL0     C25838   6.946   2.930   8.335  0.4502 -0.1257  0.1581
  954MOL0     C25839   6.805   2.940   8.265  0.9147 -0.6889 -0.4782
  954MOL0    Cl25840   6.716   3.085   8.304  0.1373  0.7609 -0.1295
  954MOL0     C25841   7.952   3.146   8.513 -1.0754 -0.1621  0.1564
  954MOL0     C25842   8.086   3.152   8.539  0.7858 -0.3775 -0.3618
  954MOL0     O25843   8.301   3.325   8.618 -0.4593 -0.1355  0.7259
  954MOL0     C25844   8.597   3.176   8.478  0.5556 -0.7778 -0.6994
  954MOL0     C25845   8.733   3.173   8.490 -0.3123 -0.7483  0.5229
  954MOL0     N25846   9.111   2.817   8.335 -1.1149  0.0503  0.3898
  954MOL0     N25847   9.144   2.775   8.214 -0.2189  0.2065 -0.3093
  954MOL0     C25848  10.226   2.929   7.614 -0.9205  0.2376  0.2939
  954MOL0     C25849  10.359   2.964   7.593 -0.3916  0.2901 -0.0089
  954MOL0     C25850  10.733   3.169   7.538  0.0725  0.3372  0.1805
  954MOL0     C25851  10.837   3.121   7.626 -0.2599 -0.3836 -0.5970
  954MOL0     C25852  10.974   3.155   7.595  0.0054 -0.9495  0.6635
  954MOL0     C25853  11.011   3.231   7.488  0.1213  0.5972  0.3970
  954MOL0     O25854  11.146   3.247   7.479  0.2282  0.3106  0.6908
  954MOL0     C25855  11.198   3.316   7.363  0.2567  0.3593 -0.1095
  954MOL0     C25856  11.335   3.358   7.395 -0.3287  0.5081 -0.0626
  954MOL0     C25857  11.361   3.416   7.540  0.0401  0.2997 -0.3155
  954MOL0     C25858  11.317   3.563   7.566 -0.2335  0.2808  0.4441
  954MOL0     C25859  11.361   3.666   7.469 -0.2196 -0.0287  0.5269
  954MOL0     C25860  11.376   3.752   7.392 -1.2023 -1.0620  0.3777
  954MOL0     C25861  10.906   3.278   7.408 -0.9447  0.0781 -0.3130
  954MOL0     C25862  10.771   3.245   7.430  0.0434 -1.7459 -0.1708
  954MOL0     H25863  10.421   3.122   7.873  2.0957 -1.5101 -0.9836
  954MOL0     H25864  10.170   3.085   7.911  1.4453 -1.1976  2.0503
  954MOL0     H25865   9.994   3.090   7.578  3.3601  0.9980  0.9541
  954MOL0     H25866   9.973   3.151   7.733  2.6893 -1.3988  1.2424
  954MOL0     H25867   9.803   2.910   7.672  3.7404 -0.3513  1.6604
  954MOL0     H25868   9.764   3.071   7.589 -1.8383  0.9660  1.2537
  954MOL0     H25869   9.760   3.151   7.840 -3.4847  0.9622  0.1044
  954MOL0     H25870   9.767   2.984   7.888 -3.7861 -1.6677  0.8000
  954MOL0     H25871   9.529   3.113   7.735 -1.4883 -2.8747 -3.2149
  954MOL0     H25872   9.539   2.938   7.758 -1.0299 -0.0629 -0.1973
  954MOL0     H25873   9.460   3.156   7.922 -2.2861 -1.7077 -0.7924
  954MOL0     H25874   9.600   3.082   8.000 -0.2256  0.5119  0.8006
  954MOL0     H25875   9.317   2.961   7.920 -0.2449  1.4415  0.3539
  954MOL0     H25876   9.365   3.016   8.078  0.6153 -1.4032 -0.1280
  954MOL0     H25877   9.503   2.797   7.922  0.7671  2.0713  0.2206
  954MOL0     H25878   9.547   2.834   8.086  1.0030  0.2363 -1.0866
  954MOL0     H25879   9.402   2.638   8.089  1.0469  0.3583  0.3113
  954MOL0     H25880   9.272   2.716   7.994 -2.0234  1.5886  1.0714
  954MOL0     H25881   9.439   2.865   8.313 -0.1132  0.9853 -2.4147
  954MOL0     H25882   9.364   2.889   8.549 -0.7573  1.4371 -0.9390
  954MOL0     H25883   9.209   2.840   8.602  3.1497 -3.9616 -0.7771
  954MOL0     H25884   9.274   3.106   8.471  0.9739 -0.6787 -0.1259
  954MOL0     H25885   9.261   3.085   8.652  2.3148 -0.0128 -1.4775
  954MOL0     H25886   9.022   3.016   8.473  0.1050 -2.0634  0.3204
  954MOL0     H25887   9.017   3.062   8.640  1.5946  0.9479  0.8136
  954MOL0     H25888   8.997   3.239   8.401 -2.1094  0.9797  0.9924
  954MOL0     H25889   9.132   3.282   8.502  1.8305 -0.4419 -2.3442
  954MOL0     H25890   8.780   3.409   8.732 -1.3751  0.5460  0.2880
  954MOL0     H25891   8.546   3.408   8.731  0.8017  1.0036 -0.9580
  954MOL0     H25892   8.196   3.173   8.212  1.2325  3.4334  0.0608
  954MOL0     H25893   7.950   3.132   8.171 -1.3442  1.5619 -0.4406
  954MOL0     H25894   7.644   3.199   8.527 -0.1222 -0.6600  0.2687
  954MOL0     H25895   7.678   3.026   8.516 -0.8082 -0.1428  0.7165
  954MOL0     H25896   7.569   3.033   8.302  0.3607  0.7458 -0.5368
  954MOL0     H25897   7.520   3.207   8.323  1.0364  0.8373 -0.0607
  954MOL0     H25898   7.361   3.152   8.488 -1.7295 -0.4951 -0.5342
  954MOL0     H25899   7.416   2.979   8.479 -0.4813  0.6045  0.0430
  954MOL0     H25900   7.280   3.158   8.266 -1.5996  0.2221  0.5849
  954MOL0     H25901   7.341   3.004   8.223 -0.0653 -1.5853  0.7454
  954MOL0     H25902   7.161   2.999   8.468  1.7053 -1.4347  0.0657
  954MOL0     H25903   7.189   2.883   8.348  1.6372  0.8108 -1.6131
  954MOL0     H25904   7.071   2.987   8.165  0.0256  0.0929 -0.2357
  954MOL0     H25905   7.038   3.126   8.276 -3.6278 -0.0756 -0.2943
  954MOL0     H25906   6.978   2.826   8.321  0.1989  0.0439 -2.0921
  954MOL0     H25907   6.927   2.943   8.441  1.3146 -1.1133  0.4469
  954MOL0     H25908   6.752   2.859   8.316 -0.5929  0.9933  0.7567
  954MOL0     H25909   6.805   2.923   8.157  0.6366  0.5803 -0.6938
  954MOL0     H25910   7.888   3.156   8.601  0.7404  1.7508  1.3303
  954MOL0     H25911   8.122   3.141   8.640 -1.9390 -0.2750  0.7140
  954MOL0     H25912   8.554   3.106   8.407  1.2113 -1.6349 -0.2784
  954MOL0     H25913   8.796   3.117   8.420  0.3303  0.3969  0.1526
  954MOL0     H25914  10.181   2.859   7.543  1.0145 -0.9560  0.1670
  954MOL0     H25915  10.418   2.930   7.509 -1.8556  1.6724 -1.6778
  954MOL0     H25916  10.828   3.066   7.719  1.6571  1.8337  1.0079
  954MOL0     H25917  11.048   3.103   7.655 -0.0927 -2.2911 -0.3317
  954MOL0     H25918  11.147   3.409   7.335  0.8612  0.5712 -0.5329
  954MOL0     H25919  11.175   3.248   7.280 -0.1875  2.2057 -1.5637
  954MOL0     H25920  11.393   3.267   7.379  0.0523  0.3740  1.7776
  954MOL0     H25921  11.375   3.427   7.320  1.0332  2.9762  2.7107
  954MOL0     H25922  11.468   3.408   7.560  0.0481 -2.8361 -1.0049
  954MOL0     H25923  11.310   3.355   7.615 -0.0367 -1.1331 -1.4964
  954MOL0     H25924  11.208   3.565   7.558 -0.1886  0.3181 -0.1480
  954MOL0     H25925  11.332   3.593   7.670 -1.9890 -1.7700  1.3708
  954MOL0     H25926  11.378   3.840   7.331 -2.0362 -0.4428  1.2177
  954MOL0     H25927  10.928   3.339   7.321  0.3468  2.6238  1.6570
  954MOL0     H25928  10.699   3.280   7.356  1.0527 -0.0876 -0.4122
  955MOL0     O25929   0.869   5.132   7.624  0.7249 -0.2600  0.5269
  955MOL0     C25930   0.903   5.240   7.579 -0.5086  0.7122  0.2612
  955MOL0     O25931   0.832   5.328   7.504  0.0760  0.7186  0.5971
  955MOL0     C25932   0.694   5.309   7.472 -0.3149  0.6431 -0.4535
  955MOL0     C25933   0.643   5.355   7.354 -0.0485  0.6751  0.9180
  955MOL0     C25934   0.504   5.359   7.340 -0.1069 -0.8172  0.4157
  955MOL0     C25935   0.416   5.331   7.444 -0.1122 -0.7393  0.0849
  955MOL0     O25936   0.281   5.356   7.418  0.0283 -0.4230 -0.2538
  955MOL0     C25937   0.190   5.373   7.528 -0.1555 -0.2687 -0.6189
  955MOL0     C25938   0.037   5.382   7.501  0.3999 -0.1454  0.0729
  955MOL0     C25939  -0.048   5.450   7.606 -0.8070  0.1506  0.4987
  955MOL0     C25940  -0.067   5.352   7.727 -1.3685  1.3249 -0.9508
  955MOL0     C25941  -0.191   5.399   7.808 -0.1732  0.4090  0.0552
  955MOL0     C25942  -0.330   5.357   7.743 -0.6368  1.0452 -0.1036
  955MOL0     C25943  -0.348   5.203   7.726 -0.0636 -0.0985  0.0700
  955MOL0     C25944  -0.485   5.156   7.667  0.3715 -0.7509  0.1952
  955MOL0     N25945  -0.579   5.137   7.783  1.0957  0.3496  1.0285
  955MOL0     C25946  -0.667   5.217   7.839  0.5144 -0.1854  0.0137
  955MOL0     C25947  -0.735   5.145   7.933  0.6750  0.2595 -0.1782
  955MOL0     C25948  -0.838   5.191   8.037 -0.0511  0.0813  0.1189
  955MOL0     C25949  -0.976   5.223   7.979 -0.7741  0.2351  0.2887
  955MOL0     C25950  -1.071   5.282   8.078  0.2928  0.1214 -0.5055
  955MOL0     C25951  -1.221   5.262   8.037 -0.5174 -0.5166  0.4239
  955MOL0     O25952  -1.242   5.121   8.041  0.0369  0.4603 -0.3706
  955MOL0     C25953  -1.368   5.065   8.033 -0.7503  0.5431  0.0361
  955MOL0     C25954  -1.486   5.147   8.031  0.5614  0.5755  0.2031
  955MOL0     C25955  -1.621   5.091   8.049  0.6004 -0.1441 -0.3848
  955MOL0     C25956  -1.641   4.957   8.072 -0.1284  0.8061  0.5528
  955MOL0     C25957  -1.779   4.906   8.097 -0.5081  1.3741  0.5439
  955MOL0     O25958  -1.881   4.995   8.066  0.6315  0.0952 -0.2501
  955MOL0     C25959  -2.019   4.972   8.093 -0.3305 -0.3193  0.4961
  955MOL0     C25960  -2.081   4.853   8.044 -0.4335  0.4758  0.3167
  955MOL0     C25961  -2.208   4.828   8.080  0.6499  0.6887  1.0847
  955MOL0     C25962  -2.285   4.908   8.159  0.3342 -0.1648 -0.2971
  955MOL0     O25963  -2.413   4.884   8.198  0.1523 -0.3760 -0.7128
  955MOL0     C25964  -2.516   4.921   8.100  0.3835  0.0563 -0.0132
  955MOL0     C25965  -2.643   4.846   8.120 -0.3189 -0.0133 -0.2405
  955MOL0     C25966  -2.629   4.703   8.096 -0.1135 -0.1460  0.4938
  955MOL0     C25967  -2.773   4.642   8.099  0.8458  0.3751  0.7074
  955MOL0     C25968  -2.787   4.505   8.154 -0.6399  0.2110  0.1407
  955MOL0     C25969  -2.778   4.512   8.305  0.8914 -0.3148  0.3700
  955MOL0     C25970  -2.850   4.388   8.362 -0.5976  0.3634  0.0984
  955MOL0     C25971  -2.815   4.360   8.509 -0.3762 -0.2722 -0.0314
  955MOL0    Cl25972  -2.645   4.324   8.527 -0.1409  0.4572 -0.6279
  955MOL0     C25973  -2.227   5.028   8.204  0.2273 -0.5635 -0.6363
  955MOL0     C25974  -2.101   5.062   8.170  0.2870 -0.1786  0.0963
  955MOL0     O25975  -1.796   4.793   8.151 -0.5689  0.1259  0.9012
  955MOL0     C25976  -1.526   4.871   8.064  0.1892 -0.1683 -0.4918
  955MOL0     C25977  -1.396   4.925   8.053 -0.5586  0.6033 -0.0206
  955MOL0     N25978  -0.681   5.017   7.922 -0.0562  0.4782  0.4779
  955MOL0     N25979  -0.585   5.019   7.844  0.1776  0.9566  0.7348
  955MOL0     C25980   0.472   5.283   7.568 -0.7298 -0.4648 -0.0582
  955MOL0     C25981   0.609   5.272   7.588  0.7988  0.3314  0.4062
  955MOL0     C25982   1.047   5.269   7.584 -0.3514  0.7166  0.4240
  955MOL0     C25983   1.100   5.387   7.536  0.1422 -1.1406  0.0406
  955MOL0     C25984   1.239   5.412   7.530  0.4847  0.7310 -0.2457
  955MOL0     C25985   1.328   5.315   7.578  0.1507  1.0870  0.0649
  955MOL0     O25986   1.468   5.321   7.577  1.0567 -0.1209 -0.1545
  955MOL0     C25987   1.514   5.411   7.683  0.2818  1.0398  0.3076
  955MOL0     C25988   1.659   5.452   7.666 -0.1511  0.4894  0.1458
  955MOL0     C25989   1.753   5.333   7.655  0.4072 -0.5620  0.6535
  955MOL0     C25990   1.896   5.367   7.625  0.2435  0.8693  0.9376
  955MOL0     C25991   1.922   5.385   7.475 -0.0861 -0.2537 -0.0399
  955MOL0     C25992   1.953   5.407   7.363  0.5503  0.6349 -0.2400
  955MOL0     C25993   1.277   5.195   7.630  0.1209 -0.2979 -0.7959
  955MOL0     C25994   1.143   5.173   7.639  0.7977 -0.3257  0.3047
  955MOL0     H25995   0.718   5.391   7.285 -0.2755 -0.0949  0.2509
  955MOL0     H25996   0.468   5.389   7.242  1.2201  0.8912  0.4021
  955MOL0     H25997   0.209   5.460   7.592 -2.2398  0.7092 -1.2108
  955MOL0     H25998   0.211   5.289   7.594  0.3744  0.9634  0.8392
  955MOL0     H25999  -0.001   5.279   7.494 -0.2598  0.0230  1.0388
  955MOL0     H26000   0.024   5.432   7.405 -0.5021 -2.3480 -1.0417
  955MOL0     H26001  -0.136   5.498   7.563 -0.4953 -0.3460 -0.7113
  955MOL0     H26002   0.010   5.533   7.648  1.3847 -1.0355 -0.0444
  955MOL0     H26003  -0.089   5.250   7.692 -1.3499  0.4218  1.5199
  955MOL0     H26004   0.019   5.350   7.793 -3.6687  3.8010  2.4339
  955MOL0     H26005  -0.190   5.507   7.822  1.3973  0.3403  0.5739
  955MOL0     H26006  -0.194   5.346   7.904  0.8863 -0.1356 -0.1941
  955MOL0     H26007  -0.331   5.395   7.641 -0.2828  0.7543 -0.2175
  955MOL0     H26008  -0.416   5.396   7.798 -1.2895 -0.9693  0.4112
  955MOL0     H26009  -0.280   5.178   7.644  0.6921  1.9224  0.0150
  955MOL0     H26010  -0.327   5.146   7.817 -1.4202  1.6358  1.5450
  955MOL0     H26011  -0.478   5.057   7.621 -0.0189 -0.3765 -0.6949
  955MOL0     H26012  -0.531   5.228   7.598 -0.0727 -1.2848 -0.0712
  955MOL0     H26013  -0.672   5.325   7.832 -1.3070 -0.1637  1.2034
  955MOL0     H26014  -0.804   5.278   8.092  1.1216  0.2783 -0.8693
  955MOL0     H26015  -0.851   5.109   8.109 -0.7248 -0.5472 -0.6918
  955MOL0     H26016  -1.007   5.125   7.942  0.0580 -0.3883  1.1870
  955MOL0     H26017  -0.962   5.284   7.890 -0.6739  1.5275  1.1604
  955MOL0     H26018  -1.068   5.236   8.178 -4.9216  4.1069  1.9763
  955MOL0     H26019  -1.051   5.389   8.090  1.5068  0.0390 -1.5645
  955MOL0     H26020  -1.244   5.291   7.934 -1.3562 -2.1701  0.0984
  955MOL0     H26021  -1.296   5.310   8.101 -3.5381 -4.4978  0.3211
  955MOL0     H26022  -1.478   5.254   8.012 -0.8021  0.7933  0.7501
  955MOL0     H26023  -1.704   5.159   8.056  0.2981 -0.6430  1.1549
  955MOL0     H26024  -2.014   4.791   7.985  1.4173  2.3527  0.2814
  955MOL0     H26025  -2.257   4.739   8.041  2.1338 -0.3447  1.4865
  955MOL0     H26026  -2.480   4.892   8.001  1.2364 -2.8879  1.0588
  955MOL0     H26027  -2.540   5.027   8.105  1.4038  0.3555 -0.9908
  955MOL0     H26028  -2.701   4.888   8.037  1.8582 -0.1738 -1.9642
  955MOL0     H26029  -2.679   4.861   8.222 -0.7597 -4.1308  0.3804
  955MOL0     H26030  -2.570   4.661   8.179  0.8882 -0.3952 -0.3220
  955MOL0     H26031  -2.567   4.688   8.007 -0.6017  3.7558 -0.6752
  955MOL0     H26032  -2.844   4.711   8.144 -0.2287  1.6994 -2.7211
  955MOL0     H26033  -2.798   4.638   7.992  0.0517  0.8150  0.8721
  955MOL0     H26034  -2.722   4.426   8.114 -1.2255  0.7934 -2.0774
  955MOL0     H26035  -2.890   4.476   8.132 -0.7837 -2.2895  3.4250
  955MOL0     H26036  -2.831   4.600   8.342 -0.9990 -0.4432 -1.8223
  955MOL0     H26037  -2.674   4.512   8.338  1.3283 -0.9117 -0.9530
  955MOL0     H26038  -2.959   4.388   8.353 -0.9132  0.2959  2.9013
  955MOL0     H26039  -2.816   4.304   8.301 -0.6517  0.3297  0.1139
  955MOL0     H26040  -2.853   4.263   8.540 -1.2300 -0.9917 -3.0226
  955MOL0     H26041  -2.847   4.447   8.568 -2.3921 -0.0081 -1.4180
  955MOL0     H26042  -2.289   5.093   8.264 -0.0288 -3.5003  2.6304
  955MOL0     H26043  -2.069   5.162   8.196 -2.0862  0.5145  0.6355
  955MOL0     H26044  -1.541   4.763   8.068 -3.5749  0.2436  0.4263
  955MOL0     H26045  -1.302   4.872   8.063 -0.4204  1.1720  2.5702
  955MOL0     H26046   0.410   5.249   7.651  0.0423 -1.5647  0.0884
  955MOL0     H26047   0.647   5.246   7.686 -3.0941 -1.4500  1.6306
  955MOL0     H26048   1.037   5.461   7.487  1.4486 -1.3924 -2.1820
  955MOL0     H26049   1.273   5.491   7.464 -0.1962  0.3820 -1.0378
  955MOL0     H26050   1.503   5.375   7.786  0.7428  1.8373  0.6408
  955MOL0     H26051   1.450   5.498   7.672 -0.9609  0.0808 -0.2953
  955MOL0     H26052   1.667   5.522   7.582 -1.4173 -0.2763 -0.6462
  955MOL0     H26053   1.686   5.503   7.759 -1.9799  2.7628 -0.4779
  955MOL0     H26054   1.718   5.265   7.577 -1.7539  0.9165  0.2558
  955MOL0     H26055   1.748   5.274   7.747  1.5881 -1.4127  0.2102
  955MOL0     H26056   1.921   5.463   7.672 -0.0457  0.8922  1.0447
  955MOL0     H26057   1.965   5.300   7.676 -0.5032  0.1104  0.9583
  955MOL0     H26058   1.980   5.436   7.264 -1.4881  1.8658 -0.4858
  955MOL0     H26059   1.350   5.123   7.668  1.7847 -0.2778 -3.7110
  955MOL0     H26060   1.113   5.076   7.676  1.2559 -0.3105  0.7269
  956MOL0     O26061   4.477   7.635   3.401  0.3496  0.4708  0.1088
  956MOL0     C26062   4.577   7.556   3.392  0.0055 -0.8929 -0.2954
  956MOL0     O26063   4.562   7.418   3.397 -0.3852 -0.2157  0.0108
  956MOL0     C26064   4.436   7.368   3.342 -0.1381 -0.1138  0.6764
  956MOL0     C26065   4.397   7.238   3.375 -0.1264 -0.2945  0.0577
  956MOL0     C26066   4.268   7.185   3.336  0.1563 -0.2461  0.4589
  956MOL0     C26067   4.196   7.252   3.236  0.0091  0.6421 -0.2090
  956MOL0     O26068   4.088   7.197   3.166 -0.4401  0.7670  0.2980
  956MOL0     C26069   4.082   7.058   3.162 -0.1175  1.4104 -0.0043
  956MOL0     C26070   3.989   6.997   3.059  0.7710 -0.3210 -0.2948
  956MOL0     C26071   3.860   6.952   3.114  0.9088 -0.0050  0.7958
  956MOL0     C26072   3.766   6.905   3.003 -0.7421  0.2625  0.2308
  956MOL0     C26073   3.659   6.819   3.061  0.4655  0.8767  0.0131
  956MOL0     C26074   3.540   6.795   2.961 -0.6392 -1.0271  0.1081
  956MOL0     C26075   3.415   6.735   3.038 -0.2005 -0.5492  0.9352
  956MOL0     C26076   3.434   6.592   3.101 -0.1649  1.0708  0.0026
  956MOL0     N26077   3.308   6.509   3.100 -0.0914  1.0285  0.4977
  956MOL0     C26078   3.209   6.508   3.197 -0.0286 -0.5538 -0.7306
  956MOL0     C26079   3.133   6.405   3.170 -0.2291  0.2488  0.5766
  956MOL0     C26080   3.010   6.363   3.240 -0.4296 -0.3506 -0.2276
  956MOL0     C26081   2.884   6.390   3.158 -0.0352 -0.3392  0.1114
  956MOL0     C26082   2.853   6.312   3.036  0.3761  0.6781 -0.6057
  956MOL0     C26083   2.701   6.319   3.014  0.4172 -0.2372  0.2883
  956MOL0     O26084   2.653   6.453   2.975  0.2739  0.3207 -0.7971
  956MOL0     C26085   2.519   6.474   2.939  0.3751 -0.0213 -0.2811
  956MOL0     C26086   2.413   6.416   3.014  0.2159 -0.1318 -0.2126
  956MOL0     C26087   2.282   6.432   2.971 -0.1301 -0.0425 -0.4261
  956MOL0     C26088   2.252   6.508   2.855 -0.4448  0.2939 -0.9632
  956MOL0     C26089   2.114   6.516   2.797 -0.2437  0.2398 -0.3452
  956MOL0     O26090   2.006   6.482   2.879  0.1058  0.7739  0.7808
  956MOL0     C26091   1.885   6.494   2.827  0.6332  0.3999 -0.0454
  956MOL0     C26092   1.798   6.383   2.832  0.3421 -0.7217  0.5992
  956MOL0     C26093   1.664   6.404   2.807  0.2819  0.5719  0.6103
  956MOL0     C26094   1.617   6.530   2.766  0.1541  0.3533 -0.4639
  956MOL0     O26095   1.484   6.562   2.727  0.4879  0.2344 -0.2437
  956MOL0     C26096   1.388   6.511   2.825 -0.7265 -0.0280 -0.4161
  956MOL0     C26097   1.255   6.552   2.771 -0.6994 -0.2910 -0.0981
  956MOL0     C26098   1.128   6.528   2.856 -0.3102 -1.3838  0.5090
  956MOL0     C26099   1.001   6.565   2.765 -0.0037 -0.0158 -0.9174
  956MOL0     C26100   0.879   6.559   2.848 -0.6702 -0.3798 -1.2569
  956MOL0     C26101   0.751   6.533   2.778  0.6117 -0.2299 -0.2880
  956MOL0     C26102   0.623   6.614   2.831  0.7553  0.4099  0.0586
  956MOL0     C26103   0.508   6.593   2.725 -0.6388  0.1648  0.1621
  956MOL0    Cl26104   0.455   6.419   2.699 -0.4014  0.2983 -0.2065
  956MOL0     C26105   1.704   6.637   2.755 -0.4578  0.3271  0.0724
  956MOL0     C26106   1.838   6.619   2.796  1.0846  0.0718  0.2222
  956MOL0     O26107   2.112   6.536   2.680  0.0851 -0.7307  0.3135
  956MOL0     C26108   2.351   6.578   2.789 -0.1498  1.1066  0.3125
  956MOL0     C26109   2.484   6.564   2.836  0.1714 -0.6182  0.4388
  956MOL0     N26110   3.185   6.337   3.053 -0.5222 -0.3360 -0.5995
  956MOL0     N26111   3.279   6.408   3.008  0.4664  0.2901 -0.5688
  956MOL0     C26112   4.240   7.375   3.194 -0.3363 -0.2855 -0.6861
  956MOL0     C26113   4.354   7.434   3.248 -0.3596 -0.1126 -0.3349
  956MOL0     C26114   4.709   7.615   3.397  0.4790 -0.4464 -0.5146
  956MOL0     C26115   4.735   7.751   3.424 -0.5977  0.2033  0.3945
  956MOL0     C26116   4.853   7.804   3.457  0.5885  0.8636 -0.4510
  956MOL0     C26117   4.965   7.709   3.453 -0.2271  0.5094  1.3907
  956MOL0     O26118   5.098   7.738   3.484  1.0620  0.6187  0.5789
  956MOL0     C26119   5.139   7.847   3.576 -0.2170 -0.0929  0.6474
  956MOL0     C26120   5.127   7.787   3.713 -0.1561  0.1118 -0.5792
  956MOL0     C26121   5.152   7.889   3.829  0.2706 -0.0800  0.2569
  956MOL0     C26122   5.266   7.986   3.803  0.8461  0.4074  0.6265
  956MOL0     C26123   5.396   7.921   3.782  0.8145 -0.2277  0.6421
  956MOL0     C26124   5.490   7.846   3.767  0.3096  0.7298  0.4604
  956MOL0     C26125   4.949   7.581   3.403  0.3973  0.1433 -0.2039
  956MOL0     C26126   4.827   7.536   3.371 -0.0789  0.1846  0.9377
  956MOL0     H26127   4.468   7.184   3.436 -0.1684 -1.0258 -0.5375
  956MOL0     H26128   4.234   7.092   3.381 -0.8309 -0.2810 -0.3349
  956MOL0     H26129   4.065   7.013   3.260  1.2916 -1.2747 -0.9085
  956MOL0     H26130   4.182   7.023   3.134  0.8543  1.6900  2.7864
  956MOL0     H26131   4.046   6.923   3.002  2.3156 -0.3078  1.1616
  956MOL0     H26132   3.975   7.079   2.988 -3.0353 -0.8142 -0.3375
  956MOL0     H26133   3.811   7.035   3.166 -1.6598 -0.3125 -0.9731
  956MOL0     H26134   3.875   6.872   3.187 -1.0252  0.5947  1.9188
  956MOL0     H26135   3.732   6.996   2.953 -0.6930  0.1848  0.0551
  956MOL0     H26136   3.822   6.844   2.933 -1.8756 -0.0564 -0.4225
  956MOL0     H26137   3.618   6.872   3.148 -2.8764  3.2803 -2.7690
  956MOL0     H26138   3.705   6.723   3.088 -0.9976  1.5193  6.3189
  956MOL0     H26139   3.571   6.744   2.870 -2.3634 -3.1716  0.6317
  956MOL0     H26140   3.497   6.892   2.932 -3.1807 -1.2253  2.6619
  956MOL0     H26141   3.374   6.807   3.109 -3.5521  1.3689 -2.5629
  956MOL0     H26142   3.333   6.720   2.967 -0.0661 -0.6692  0.8061
  956MOL0     H26143   3.462   6.605   3.206 -5.2996  1.6596  1.5925
  956MOL0     H26144   3.505   6.536   3.040 -0.5618  1.0061 -0.4133
  956MOL0     H26145   3.201   6.569   3.286  0.8439 -0.8753 -0.4232
  956MOL0     H26146   2.996   6.420   3.332 -0.9219 -1.5425  0.4535
  956MOL0     H26147   3.018   6.258   3.268  0.5641  0.3286  2.2736
  956MOL0     H26148   2.886   6.493   3.122  0.1878  0.2110  1.6453
  956MOL0     H26149   2.795   6.384   3.221 -0.7646  1.3565 -0.6900
  956MOL0     H26150   2.916   6.343   2.951 -0.6895  2.4281 -0.8060
  956MOL0     H26151   2.874   6.206   3.051 -4.3063 -0.2799  0.8942
  956MOL0     H26152   2.655   6.290   3.109 -0.6732  0.2226 -0.0866
  956MOL0     H26153   2.672   6.238   2.945  4.1233 -1.4553 -0.0403
  956MOL0     H26154   2.417   6.347   3.098 -0.2246 -1.6163 -1.3640
  956MOL0     H26155   2.196   6.391   3.023  0.3684 -0.6197 -0.0488
  956MOL0     H26156   1.828   6.283   2.860  3.1638 -0.1513 -0.0931
  956MOL0     H26157   1.602   6.315   2.819  2.5667 -0.9621  1.9330
  956MOL0     H26158   1.410   6.546   2.926  2.2051 -2.0986 -0.2349
  956MOL0     H26159   1.389   6.402   2.822 -0.5005 -0.0092 -1.4925
  956MOL0     H26160   1.234   6.493   2.682 -0.9001  0.4237 -0.5243
  956MOL0     H26161   1.268   6.656   2.740  0.0885 -0.3403  0.0274
  956MOL0     H26162   1.140   6.592   2.944 -1.0253 -0.7586  0.1667
  956MOL0     H26163   1.120   6.424   2.889 -0.6038 -1.7276 -0.6180
  956MOL0     H26164   1.028   6.666   2.733  4.2091 -0.0881  1.6175
  956MOL0     H26165   0.997   6.511   2.670 -1.2828 -0.8106 -0.4371
  956MOL0     H26166   0.865   6.658   2.894 -0.6082  0.2286 -2.4940
  956MOL0     H26167   0.891   6.481   2.923 -0.5622  0.5970 -0.2403
  956MOL0     H26168   0.751   6.424   2.772  1.3378 -0.2328 -0.3242
  956MOL0     H26169   0.763   6.560   2.673  2.3321 -1.3434 -0.4006
  956MOL0     H26170   0.587   6.574   2.926 -1.6192 -1.5931 -1.5485
  956MOL0     H26171   0.645   6.719   2.853  0.5697  0.2340  1.1282
  956MOL0     H26172   0.537   6.638   2.630 -0.4462  0.7842  0.5066
  956MOL0     H26173   0.416   6.641   2.760 -0.0685  0.8246  0.7807
  956MOL0     H26174   1.667   6.732   2.717 -3.0739 -0.7415 -0.2674
  956MOL0     H26175   1.895   6.711   2.805 -0.8715  1.3491  0.1395
  956MOL0     H26176   2.336   6.646   2.705  0.1627 -0.0507 -0.7154
  956MOL0     H26177   2.562   6.617   2.783 -2.4599  2.5841 -0.6415
  956MOL0     H26178   4.182   7.446   3.137 -0.2834  2.2514  2.1938
  956MOL0     H26179   4.390   7.526   3.204 -1.6178  0.4535 -0.2333
  956MOL0     H26180   4.644   7.810   3.432 -1.0771 -0.1062 -2.0087
  956MOL0     H26181   4.871   7.908   3.482 -0.3322  1.1657 -1.0034
  956MOL0     H26182   5.077   7.936   3.564  0.2258  0.1691  0.3179
  956MOL0     H26183   5.240   7.879   3.549 -0.2739  0.8075  1.4321
  956MOL0     H26184   5.022   7.760   3.732 -0.2462 -0.5946 -1.9794
  956MOL0     H26185   5.198   7.704   3.717  0.1890  0.2954 -2.2874
  956MOL0     H26186   5.169   7.837   3.923 -0.5827  0.8388  0.9392
  956MOL0     H26187   5.062   7.949   3.843 -0.4610 -1.2509  0.6910
  956MOL0     H26188   5.242   8.053   3.720  0.8964  0.2899  0.5184
  956MOL0     H26189   5.284   8.054   3.887 -1.2950 -0.3484  1.7970
  956MOL0     H26190   5.559   7.769   3.741  1.5247  2.4900 -1.8689
  956MOL0     H26191   5.035   7.517   3.391 -0.0576 -0.9938  1.9915
  956MOL0     H26192   4.797   7.439   3.333 -0.9894  0.6667  0.3973
  957MOL0     O26193   4.587   3.926   6.266  0.1116 -0.0327 -0.1774
  957MOL0     C26194   4.527   3.954   6.162  0.0599 -0.5920  0.3643
  957MOL0     O26195   4.398   3.945   6.141  0.3744 -0.6331 -0.2295
  957MOL0     C26196   4.316   3.903   6.244  0.3156  0.0483 -0.1055
  957MOL0     C26197   4.296   3.774   6.275  0.0826  1.0760 -0.4727
  957MOL0     C26198   4.210   3.734   6.386  0.0808  0.3927  1.3990
  957MOL0     C26199   4.154   3.830   6.472  0.3510 -0.5599  1.0557
  957MOL0     O26200   4.087   3.802   6.585  0.4558  0.2175 -0.5215
  957MOL0     C26201   4.033   3.665   6.606 -0.0043  0.0523  0.2762
  957MOL0     C26202   3.978   3.643   6.747  0.2108  0.6347  0.6012
  957MOL0     C26203   3.832   3.683   6.751 -0.5754 -0.2664 -0.5265
  957MOL0     C26204   3.762   3.629   6.876  0.1846 -0.2726 -0.2098
  957MOL0     C26205   3.613   3.686   6.874  0.2085  0.6439 -0.1574
  957MOL0     C26206   3.524   3.636   6.757  0.6855 -0.4234  0.1106
  957MOL0     C26207   3.374   3.690   6.763 -0.9780  0.7006 -0.8513
  957MOL0     C26208   3.303   3.631   6.888 -0.1669 -1.2590  0.2243
  957MOL0     N26209   3.299   3.487   6.904 -0.4467 -0.7098  0.0152
  957MOL0     C26210   3.362   3.424   7.005  0.2832  0.3232 -0.7880
  957MOL0     C26211   3.324   3.292   6.979 -0.1362 -0.4481  0.2003
  957MOL0     C26212   3.346   3.175   7.065 -0.1457  0.5078 -0.1445
  957MOL0     C26213   3.228   3.114   7.139 -0.1463  0.5191 -0.1430
  957MOL0     C26214   3.265   2.998   7.226 -0.1967  0.8110  0.0337
  957MOL0     C26215   3.139   2.912   7.237  0.5095 -0.2379 -0.4305
  957MOL0     O26216   3.023   2.986   7.291  0.4701  0.4352  0.2256
  957MOL0     C26217   2.920   2.904   7.326 -0.4092  0.2344 -0.3771
  957MOL0     C26218   2.921   2.764   7.317  0.5802 -0.3887  0.7417
  957MOL0     C26219   2.807   2.687   7.362 -0.3720 -0.0144  1.2585
  957MOL0     C26220   2.693   2.751   7.421 -0.4095  1.0814  0.4220
  957MOL0     C26221   2.571   2.670   7.470  0.3508  0.1448 -0.0706
  957MOL0     O26222   2.463   2.745   7.513 -0.7694  0.2116  0.5071
  957MOL0     C26223   2.354   2.680   7.569 -0.4421  0.7325 -0.2808
  957MOL0     C26224   2.357   2.626   7.695 -0.9606  0.1398  0.4919
  957MOL0     C26225   2.242   2.584   7.764 -0.0037 -0.8360  0.0660
  957MOL0     C26226   2.118   2.590   7.706  0.3223 -0.1208  0.0619
  957MOL0     O26227   2.016   2.523   7.758 -0.3108 -0.1258 -0.4434
  957MOL0     C26228   1.907   2.478   7.677 -0.2748 -0.0095 -0.2672
  957MOL0     C26229   1.830   2.388   7.777 -0.7630 -0.5059 -0.0330
  957MOL0     C26230   1.721   2.302   7.722 -0.1553 -0.3142  0.7598
  957MOL0     C26231   1.679   2.185   7.815  0.0822  0.4200  0.3941
  957MOL0     C26232   1.558   2.104   7.748  0.4746 -0.3680 -0.1045
  957MOL0     C26233   1.440   2.189   7.734 -0.0928 -0.3511  0.2004
  957MOL0     C26234   1.308   2.106   7.745 -0.7557  0.0927 -0.3482
  957MOL0     C26235   1.194   2.203   7.707  0.1051 -0.9587  0.9698
  957MOL0    Cl26236   1.029   2.114   7.712  0.0434 -0.0355  0.3241
  957MOL0     C26237   2.112   2.662   7.580 -0.0416 -0.6420  0.2625
  957MOL0     C26238   2.228   2.706   7.510 -1.0270 -0.6278  0.2847
  957MOL0     O26239   2.588   2.551   7.488 -0.1569 -0.1605  0.5289
  957MOL0     C26240   2.696   2.888   7.433 -0.4701  0.4486  1.0071
  957MOL0     C26241   2.799   2.967   7.382  0.3811  0.5782  0.4859
  957MOL0     N26242   3.248   3.291   6.864 -0.1032  0.4628  0.3379
  957MOL0     N26243   3.224   3.405   6.830 -0.4836 -0.6858 -0.0835
  957MOL0     C26244   4.170   3.958   6.430  0.1744  0.7912 -0.2480
  957MOL0     C26245   4.243   3.996   6.317  1.5272 -0.2221 -0.3142
  957MOL0     C26246   4.606   3.991   6.040  0.0831 -0.3852  0.5594
  957MOL0     C26247   4.550   4.004   5.915 -0.0637 -0.4374  1.7359
  957MOL0     C26248   4.630   4.059   5.811 -0.2366 -0.0180  0.5227
  957MOL0     C26249   4.765   4.097   5.833 -0.2936 -0.3118  0.7938
  957MOL0     O26250   4.848   4.164   5.750  0.2669 -0.9374 -0.0603
  957MOL0     C26251   4.814   4.160   5.608 -0.1590  0.8883  0.8692
  957MOL0     C26252   4.931   4.239   5.553  0.6190 -1.1362  0.8213
  957MOL0     C26253   5.036   4.128   5.513  0.1864  0.1519 -0.2462
  957MOL0     C26254   5.147   4.202   5.439 -0.4913  0.7736  0.4596
  957MOL0     C26255   5.255   4.106   5.427 -0.8316  0.4296  0.2369
  957MOL0     C26256   5.343   4.028   5.413 -0.5367 -0.2773  0.8636
  957MOL0     C26257   4.822   4.093   5.965  0.4520  0.7280  0.2389
  957MOL0     C26258   4.742   4.038   6.066 -0.3895  0.0174 -0.3645
  957MOL0     H26259   4.348   3.699   6.216  1.0880  0.6462  0.9295
  957MOL0     H26260   4.203   3.628   6.406  0.4716  0.4201  1.6998
  957MOL0     H26261   4.112   3.591   6.590 -1.8289 -2.0937  0.7614
  957MOL0     H26262   3.957   3.633   6.534  0.9024 -1.0419 -0.2270
  957MOL0     H26263   4.037   3.686   6.829  0.3770  0.2175  0.7002
  957MOL0     H26264   3.984   3.535   6.764 -1.1045  0.2044 -1.3793
  957MOL0     H26265   3.784   3.647   6.660 -0.4473  0.3569 -0.8464
  957MOL0     H26266   3.829   3.793   6.747 -0.9789 -0.3035 -1.4435
  957MOL0     H26267   3.761   3.520   6.869  2.3958 -0.5180  2.0422
  957MOL0     H26268   3.813   3.652   6.970  1.8938 -1.6534 -0.7408
  957MOL0     H26269   3.603   3.795   6.879 -0.1076  0.8410 -3.1368
  957MOL0     H26270   3.565   3.657   6.968  1.5656 -0.5808  0.1980
  957MOL0     H26271   3.535   3.528   6.747 -1.7929 -0.7994  0.7435
  957MOL0     H26272   3.556   3.691   6.668 -1.2074  0.2510 -0.1925
  957MOL0     H26273   3.369   3.799   6.772 -2.5368  0.5033  1.6798
  957MOL0     H26274   3.334   3.667   6.663 -1.3251  2.3200 -1.1152
  957MOL0     H26275   3.202   3.674   6.885 -0.2454 -0.7554  4.4517
  957MOL0     H26276   3.348   3.669   6.980  0.6774 -1.3426 -0.1485
  957MOL0     H26277   3.417   3.456   7.094 -1.9849  0.5322  0.6065
  957MOL0     H26278   3.412   3.204   7.146 -0.5919  0.0880  0.3747
  957MOL0     H26279   3.389   3.100   6.998 -0.7979  0.5984 -0.6853
  957MOL0     H26280   3.154   3.083   7.065  0.5905  0.3588 -0.8395
  957MOL0     H26281   3.172   3.183   7.202 -2.8787 -2.4851  1.0021
  957MOL0     H26282   3.339   2.933   7.178  0.7189  0.2487  2.1055
  957MOL0     H26283   3.293   3.019   7.329 -3.7700  0.6255  1.1901
  957MOL0     H26284   3.162   2.827   7.302 -2.8751 -1.9866 -1.3098
  957MOL0     H26285   3.116   2.867   7.140  2.8832 -0.3666 -0.9978
  957MOL0     H26286   3.004   2.710   7.274 -0.7295 -1.1598 -0.9612
  957MOL0     H26287   2.808   2.579   7.353 -0.6804  0.0757  0.0619
  957MOL0     H26288   2.450   2.623   7.751  0.0951  1.9434 -1.0598
  957MOL0     H26289   2.254   2.536   7.861 -1.6185 -1.3108  0.0623
  957MOL0     H26290   1.958   2.419   7.599  0.5849  1.4057 -0.8176
  957MOL0     H26291   1.836   2.549   7.635 -1.4918 -0.7614  0.4747
  957MOL0     H26292   1.804   2.454   7.860  0.6713  1.0218 -0.7204
  957MOL0     H26293   1.897   2.311   7.815 -0.8404 -1.6151 -1.9914
  957MOL0     H26294   1.750   2.263   7.624 -1.8187  0.4717 -0.0976
  957MOL0     H26295   1.642   2.375   7.700 -1.1390 -1.3131  0.9167
  957MOL0     H26296   1.762   2.118   7.838 -2.3095 -2.9203  0.0068
  957MOL0     H26297   1.652   2.221   7.915  0.5756 -1.3373  1.1883
  957MOL0     H26298   1.538   2.008   7.796  2.5319 -2.1343 -2.5306
  957MOL0     H26299   1.593   2.071   7.649 -0.7601  2.7205 -1.7072
  957MOL0     H26300   1.437   2.253   7.646  1.6371  1.1592  1.1696
  957MOL0     H26301   1.433   2.257   7.819 -2.2497 -0.4970  0.2043
  957MOL0     H26302   1.319   2.017   7.682  5.1776  0.6081 -0.6555
  957MOL0     H26303   1.296   2.077   7.849  1.7220  2.1822  0.6259
  957MOL0     H26304   1.214   2.245   7.608 -0.0820 -1.4070  0.7372
  957MOL0     H26305   1.186   2.285   7.778 -2.0610 -1.6191  1.5691
  957MOL0     H26306   2.015   2.672   7.533  0.2254 -0.7963 -0.3291
  957MOL0     H26307   2.221   2.769   7.421 -0.2633  0.6828  1.1060
  957MOL0     H26308   2.618   2.935   7.492  1.2573  2.0590  2.0999
  957MOL0     H26309   2.812   3.068   7.418  1.6140  0.3596  0.6969
  957MOL0     H26310   4.126   4.037   6.490  0.9439  1.0448 -0.0003
  957MOL0     H26311   4.244   4.100   6.286  0.3283 -0.0310  0.2151
  957MOL0     H26312   4.448   3.971   5.902 -0.0618  0.4765 -1.2298
  957MOL0     H26313   4.577   4.054   5.717  0.8337 -0.3087 -0.0728
  957MOL0     H26314   4.724   4.217   5.582  0.2287  1.2986  0.4084
  957MOL0     H26315   4.796   4.057   5.574  0.6172  0.1312  2.6587
  957MOL0     H26316   4.889   4.294   5.467 -0.2296 -0.5776  1.5754
  957MOL0     H26317   4.964   4.312   5.627  0.9147  2.2025 -2.2655
  957MOL0     H26318   5.004   4.048   5.447  0.8893 -0.0897 -0.3069
  957MOL0     H26319   5.073   4.091   5.609 -2.5962  0.6167  1.1017
  957MOL0     H26320   5.118   4.231   5.337 -3.9848  3.4571  2.0124
  957MOL0     H26321   5.171   4.295   5.492 -0.1438 -0.2985  2.2527
  957MOL0     H26322   5.426   3.961   5.403 -1.4265 -1.4729  1.2331
  957MOL0     H26323   4.918   4.134   5.996  0.5388  0.3255  0.5082
  957MOL0     H26324   4.787   4.045   6.164  1.9683 -2.0380 -1.1843
  958MOL0     O26325   0.697   2.905   6.485 -0.6300  0.4461 -0.1115
  958MOL0     C26326   0.698   2.838   6.378 -0.1553  0.3691 -0.7686
  958MOL0     O26327   0.603   2.845   6.281  0.6633  0.0581 -0.8824
  958MOL0     C26328   0.476   2.875   6.305 -0.1071  1.7563  0.1102
  958MOL0     C26329   0.411   2.855   6.183 -0.2104  0.2088  0.1350
  958MOL0     C26330   0.291   2.925   6.155 -0.4746  0.7499  0.6240
  958MOL0     C26331   0.229   3.004   6.246  0.5181  0.2532  0.4114
  958MOL0     O26332   0.095   3.054   6.240  0.0817 -0.0420  0.0854
  958MOL0     C26333  -0.000   3.007   6.137 -0.2574 -0.7217 -0.1649
  958MOL0     C26334  -0.149   3.047   6.187 -0.8806  0.4228  0.2852
  958MOL0     C26335  -0.163   3.204   6.184 -0.1246  0.6011  0.4889
  958MOL0     C26336  -0.303   3.248   6.225 -0.2544  0.2448  0.1390
  958MOL0     C26337  -0.297   3.399   6.229 -0.3285  0.2527 -0.1796
  958MOL0     C26338  -0.433   3.447   6.291  0.4772  0.4488  0.3553
  958MOL0     C26339  -0.435   3.598   6.315 -1.1394  0.6998  0.2918
  958MOL0     C26340  -0.483   3.674   6.201  0.4776 -0.4350  0.4311
  958MOL0     N26341  -0.631   3.663   6.174 -0.5886 -0.4662 -0.4635
  958MOL0     C26342  -0.735   3.738   6.216  0.2595  0.0765 -0.7900
  958MOL0     C26343  -0.841   3.661   6.177 -0.1900 -0.9657 -0.5118
  958MOL0     C26344  -0.975   3.710   6.214  0.0571  0.6606  1.1715
  958MOL0     C26345  -1.068   3.739   6.096 -0.3576  0.1717  0.3314
  958MOL0     C26346  -1.191   3.815   6.145  0.5800 -0.2328 -0.1616
  958MOL0     C26347  -1.300   3.861   6.046  0.7262  0.7157  0.0044
  958MOL0     O26348  -1.259   3.962   5.947 -0.5806  0.1442 -0.6231
  958MOL0     C26349  -1.345   3.980   5.841 -0.2060 -0.1799  0.1700
  958MOL0     C26350  -1.283   4.029   5.727  0.1260  0.5410 -0.0439
  958MOL0     C26351  -1.349   4.057   5.609  0.6254 -0.3036 -1.0692
  958MOL0     C26352  -1.495   4.024   5.604 -0.1342  0.6535 -0.3127
  958MOL0     C26353  -1.581   4.063   5.495  0.7637  0.6138  0.4744
  958MOL0     O26354  -1.705   4.115   5.533  0.7924 -0.0994  0.3950
  958MOL0     C26355  -1.799   4.159   5.447  0.3566  0.1050 -0.3229
  958MOL0     C26356  -1.826   4.103   5.321  0.4054  0.0472 -0.0852
  958MOL0     C26357  -1.942   4.138   5.255  0.1544  0.1706  0.9142
  958MOL0     C26358  -2.036   4.227   5.319  0.2365  0.6331 -0.5720
  958MOL0     O26359  -2.153   4.268   5.263 -0.3842 -0.4971  0.6802
  958MOL0     C26360  -2.164   4.248   5.116  0.5261 -0.3362 -0.7839
  958MOL0     C26361  -2.299   4.320   5.073  0.4409  0.2877 -0.5088
  958MOL0     C26362  -2.278   4.467   5.090 -0.2032 -0.1526 -0.0686
  958MOL0     C26363  -2.397   4.549   5.041  0.8427 -0.7182  0.1022
  958MOL0     C26364  -2.396   4.705   5.050  0.1779  0.3236 -0.2082
  958MOL0     C26365  -2.535   4.782   5.009 -0.3374  0.9113  0.0689
  958MOL0     C26366  -2.520   4.928   5.057  0.6457  0.1819  0.2297
  958MOL0     C26367  -2.644   4.999   5.019  0.4888 -0.0675  0.4781
  958MOL0    Cl26368  -2.648   5.180   5.060 -0.4122  0.3980 -0.0116
  958MOL0     C26369  -2.015   4.277   5.450  0.4565  0.0210  0.1654
  958MOL0     C26370  -1.897   4.246   5.508  0.1234  0.5268 -0.1836
  958MOL0     O26371  -1.534   4.063   5.380 -0.3883  0.3240 -0.5566
  958MOL0     C26372  -1.558   3.961   5.715  0.0411  1.4310 -0.1469
  958MOL0     C26373  -1.484   3.946   5.833  0.0957 -0.4822  0.0500
  958MOL0     N26374  -0.803   3.554   6.093  0.1109 -0.3525 -0.7517
  958MOL0     N26375  -0.680   3.563   6.098  0.2374 -0.4834 -0.6539
  958MOL0     C26376   0.294   3.026   6.372  0.3174  0.8062  1.6053
  958MOL0     C26377   0.418   2.959   6.401 -0.2971 -0.9302  0.6611
  958MOL0     C26378   0.816   2.758   6.355  0.8998 -0.1680  0.1864
  958MOL0     C26379   0.899   2.720   6.460 -0.2218  0.3554  0.1626
  958MOL0     C26380   1.003   2.627   6.426  0.1694  0.4021 -0.1690
  958MOL0     C26381   1.037   2.606   6.293  0.8152  0.2462 -0.3338
  958MOL0     O26382   1.142   2.527   6.252 -0.3350 -0.0542 -0.2544
  958MOL0     C26383   1.259   2.514   6.338  0.3416 -0.2542 -0.3641
  958MOL0     C26384   1.384   2.464   6.249  0.7319 -0.2166 -0.2126
  958MOL0     C26385   1.491   2.415   6.342  0.6596  0.4317  0.2217
  958MOL0     C26386   1.608   2.348   6.274 -0.2541  0.5466 -0.0070
  958MOL0     C26387   1.648   2.436   6.167  0.1450  0.3639 -0.0720
  958MOL0     C26388   1.686   2.513   6.081 -0.6147 -0.4310  0.4658
  958MOL0     C26389   0.949   2.648   6.199 -0.5903 -0.0148  0.8752
  958MOL0     C26390   0.827   2.716   6.227  0.5238  0.0999  0.0683
  958MOL0     H26391   0.457   2.797   6.103 -1.3980 -0.0420 -0.3886
  958MOL0     H26392   0.258   2.906   6.053  0.0930  2.0296  0.1880
  958MOL0     H26393   0.008   2.898   6.133  2.0656 -0.6056  0.1841
  958MOL0     H26394   0.027   3.057   6.044 -0.6566  1.1676  0.6677
  958MOL0     H26395  -0.169   3.013   6.289 -1.6508  0.8583  0.2836
  958MOL0     H26396  -0.225   2.993   6.130  0.4153 -1.2251  0.0214
  958MOL0     H26397  -0.137   3.241   6.084  3.8111  1.0182  1.5096
  958MOL0     H26398  -0.091   3.250   6.252  0.8963  0.3027 -0.3777
  958MOL0     H26399  -0.385   3.218   6.159 -0.0936 -0.9756  0.4640
  958MOL0     H26400  -0.326   3.204   6.323 -1.5071  0.6477  0.0461
  958MOL0     H26401  -0.274   3.452   6.136  0.3918  4.5182  2.1566
  958MOL0     H26402  -0.219   3.420   6.303 -1.9190  2.3569  1.0219
  958MOL0     H26403  -0.445   3.402   6.390  2.6812  1.7017  1.2658
  958MOL0     H26404  -0.512   3.401   6.230  0.2979  0.5648  0.5004
  958MOL0     H26405  -0.496   3.611   6.405  1.3698  0.2062  2.1693
  958MOL0     H26406  -0.337   3.628   6.353 -0.8285 -0.0119  0.0577
  958MOL0     H26407  -0.428   3.655   6.108  2.0768  1.3466  0.9529
  958MOL0     H26408  -0.466   3.780   6.222  2.4926 -0.8928  1.3190
  958MOL0     H26409  -0.729   3.825   6.281 -1.9054 -0.1146 -0.2781
  958MOL0     H26410  -0.961   3.793   6.283  0.9336  0.0989  1.6780
  958MOL0     H26411  -1.024   3.634   6.277 -2.3017  0.0755 -1.1773
  958MOL0     H26412  -1.094   3.648   6.040 -0.0570  0.4146 -0.2034
  958MOL0     H26413  -1.017   3.797   6.019  1.0884 -5.3225 -3.4637
  958MOL0     H26414  -1.239   3.750   6.218 -4.9295 -0.8041 -3.7192
  958MOL0     H26415  -1.162   3.908   6.195 -0.0560 -0.9784  1.6795
  958MOL0     H26416  -1.388   3.886   6.105  1.3901 -4.1962  3.6729
  958MOL0     H26417  -1.339   3.771   5.997 -0.5561  2.0556 -1.5552
  958MOL0     H26418  -1.183   4.061   5.752 -0.8524  2.5279  1.6516
  958MOL0     H26419  -1.294   4.111   5.533  0.3417  0.4651 -0.7362
  958MOL0     H26420  -1.768   4.021   5.281  1.2982  1.2203 -1.3042
  958MOL0     H26421  -1.968   4.091   5.161 -0.4238 -2.2162  2.1890
  958MOL0     H26422  -2.170   4.143   5.084  1.8349 -0.1626 -1.6649
  958MOL0     H26423  -2.076   4.290   5.068  2.0018 -0.9624  1.2350
  958MOL0     H26424  -2.381   4.272   5.127  1.4066  0.0145  0.7709
  958MOL0     H26425  -2.322   4.305   4.967 -1.1870  1.2727 -0.3294
  958MOL0     H26426  -2.193   4.508   5.035  2.4162 -1.2514  2.8871
  958MOL0     H26427  -2.254   4.491   5.194 -1.5869 -0.7928  0.4279
  958MOL0     H26428  -2.424   4.523   4.938 -1.3483 -1.5686  0.8303
  958MOL0     H26429  -2.481   4.520   5.105 -0.4637 -1.2804 -1.7879
  958MOL0     H26430  -2.317   4.758   4.996 -1.1825  3.9852  1.0735
  958MOL0     H26431  -2.387   4.732   5.156  0.2635 -0.4578 -0.0151
  958MOL0     H26432  -2.616   4.736   5.066 -1.5798 -0.2576 -2.4480
  958MOL0     H26433  -2.564   4.762   4.905  0.4916 -2.8295  0.4129
  958MOL0     H26434  -2.500   4.932   5.165  0.5651  0.6641  0.2262
  958MOL0     H26435  -2.441   4.974   4.998  0.7120 -0.7873 -0.4665
  958MOL0     H26436  -2.738   4.953   5.051 -0.4409  0.5741 -1.1645
  958MOL0     H26437  -2.655   4.983   4.911 -1.1185  0.9205  0.4558
  958MOL0     H26438  -2.078   4.357   5.487  1.8419  0.7708  0.9591
  958MOL0     H26439  -1.882   4.268   5.614 -2.5613 -1.7681  0.8065
  958MOL0     H26440  -1.660   3.926   5.710  0.8060 -0.7258 -1.9319
  958MOL0     H26441  -1.535   3.918   5.924  0.7197  0.9244  0.8658
  958MOL0     H26442   0.241   3.093   6.438 -2.0294  0.5291  0.1258
  958MOL0     H26443   0.471   2.994   6.489  1.0126  3.8004 -1.6668
  958MOL0     H26444   0.872   2.748   6.561 -1.2927  0.9037 -0.2487
  958MOL0     H26445   1.049   2.593   6.518 -2.8156  1.6409  1.9521
  958MOL0     H26446   1.237   2.437   6.413  0.7557 -0.5156 -0.5071
  958MOL0     H26447   1.280   2.608   6.389 -2.3593  0.4908 -0.4721
  958MOL0     H26448   1.359   2.386   6.176  3.3638  1.4322 -3.1251
  958MOL0     H26449   1.414   2.553   6.193 -1.8558 -0.5054 -2.2155
  958MOL0     H26450   1.452   2.351   6.422 -1.0904 -0.8987 -1.6030
  958MOL0     H26451   1.531   2.499   6.400  0.2204 -0.0442  1.2428
  958MOL0     H26452   1.699   2.336   6.334  0.2962  2.2244 -0.4370
  958MOL0     H26453   1.590   2.248   6.234  2.5910  0.9865 -2.7672
  958MOL0     H26454   1.731   2.592   6.024 -0.9818  0.9655  2.0407
  958MOL0     H26455   0.971   2.625   6.095  0.4167  1.7905  0.6445
  958MOL0     H26456   0.754   2.739   6.150  1.1597  0.4744 -0.4339
  959MOL0     O26457   6.547   7.314   3.679 -0.3026  0.4491 -1.1846
  959MOL0     C26458   6.589   7.200   3.694 -0.6878  0.0680  0.2136
  959MOL0     O26459   6.525   7.094   3.738  0.2038 -0.0396 -0.4385
  959MOL0     C26460   6.395   7.106   3.772 -0.7915  0.3578 -0.0789
  959MOL0     C26461   6.362   7.085   3.903 -0.2663  0.2507  0.5674
  959MOL0     C26462   6.235   7.075   3.951 -0.7085 -0.0021 -0.3744
  959MOL0     C26463   6.127   7.086   3.858 -0.2805  0.1059  0.2034
  959MOL0     O26464   5.996   7.113   3.889  0.4965  0.5895 -0.2740
  959MOL0     C26465   5.960   7.139   4.025 -0.0003  0.4239 -0.4600
  959MOL0     C26466   5.815   7.168   4.047  0.0527 -0.2384 -0.5002
  959MOL0     C26467   5.718   7.053   4.016  0.6951  0.0318  0.1908
  959MOL0     C26468   5.572   7.103   4.050 -0.1821  0.8685 -0.2513
  959MOL0     C26469   5.479   6.984   4.036  0.3632  0.0278 -0.4109
  959MOL0     C26470   5.340   7.029   4.105 -0.0039 -0.8380 -0.0845
  959MOL0     C26471   5.252   6.922   4.160 -0.0331  0.2033  0.3307
  959MOL0     C26472   5.186   6.841   4.050 -1.0918 -0.1623  0.7986
  959MOL0     N26473   5.071   6.911   3.991  0.3982  0.1909 -0.1336
  959MOL0     C26474   4.950   6.915   4.050  0.1518 -0.3329 -0.1914
  959MOL0     C26475   4.868   6.997   3.974 -0.2793 -0.1052 -0.0285
  959MOL0     C26476   4.736   7.051   4.002  0.4965  0.3753 -0.9828
  959MOL0     C26477   4.624   6.989   3.926  0.1135  0.1607  0.7723
  959MOL0     C26478   4.613   7.031   3.781 -1.0104 -0.5488  0.4934
  959MOL0     C26479   4.507   6.945   3.706 -0.2548  0.2306 -0.2770
  959MOL0     O26480   4.386   7.006   3.750  0.5522 -0.0045 -0.2880
  959MOL0     C26481   4.270   6.946   3.692  0.2510  0.4548  0.7723
  959MOL0     C26482   4.145   7.001   3.712 -0.2691  0.3764 -0.3074
  959MOL0     C26483   4.024   6.955   3.661  0.3565  0.3150 -0.0947
  959MOL0     C26484   4.024   6.852   3.569 -0.7828 -0.3638  0.0848
  959MOL0     C26485   3.889   6.813   3.515 -0.2218  0.8662  0.2823
  959MOL0     O26486   3.793   6.905   3.532 -0.5999  0.2554  0.0588
  959MOL0     C26487   3.656   6.878   3.498  0.6056 -0.4195  0.1764
  959MOL0     C26488   3.586   6.768   3.544 -0.1218 -0.3351  1.0549
  959MOL0     C26489   3.446   6.763   3.532 -0.4790 -0.1180  0.5275
  959MOL0     C26490   3.369   6.851   3.455 -0.5327 -0.5320  0.9792
  959MOL0     O26491   3.238   6.828   3.438  0.7465 -0.1227  0.1060
  959MOL0     C26492   3.155   6.892   3.338  0.2431  0.3185  0.1234
  959MOL0     C26493   3.016   6.837   3.354  0.1018  0.0856 -0.1294
  959MOL0     C26494   2.932   6.891   3.238  0.9035  0.7852  0.0278
  959MOL0     C26495   2.772   6.874   3.258 -0.3094 -0.0540  0.8363
  959MOL0     C26496   2.730   6.739   3.321 -1.6578  0.4152 -0.1752
  959MOL0     C26497   2.588   6.702   3.308  0.1984 -0.4310 -0.7004
  959MOL0     C26498   2.485   6.815   3.357 -0.2280  0.5197 -0.0419
  959MOL0     C26499   2.338   6.753   3.351 -0.0132  0.1897  0.5195
  959MOL0    Cl26500   2.290   6.701   3.195 -0.2359  0.3430  0.3238
  959MOL0     C26501   3.439   6.957   3.394  0.3083  0.1385 -0.1490
  959MOL0     C26502   3.580   6.975   3.419  0.0766  0.3661 -0.3852
  959MOL0     O26503   3.872   6.714   3.455 -0.5507  0.1568  0.1332
  959MOL0     C26504   4.143   6.796   3.537  0.5711  0.1658 -0.5322
  959MOL0     C26505   4.267   6.848   3.595 -0.8006  0.2520  0.5599
  959MOL0     N26506   4.946   7.031   3.870 -0.4188  0.6404 -0.8020
  959MOL0     N26507   5.069   7.001   3.891  0.7023 -0.0291 -0.2760
  959MOL0     C26508   6.156   7.105   3.723 -0.1079  0.5913 -0.1403
  959MOL0     C26509   6.291   7.116   3.678 -0.3787  0.8533  0.1695
  959MOL0     C26510   6.735   7.172   3.690 -0.0131  1.0701 -0.4356
  959MOL0     C26511   6.828   7.279   3.687  0.0313  0.3244 -0.0691
  959MOL0     C26512   6.960   7.255   3.652  0.0461 -1.2200  0.0594
  959MOL0     C26513   7.005   7.124   3.629  0.3600  0.3690 -0.5273
  959MOL0     O26514   7.132   7.091   3.577  0.0784 -0.2108 -0.4717
  959MOL0     C26515   7.213   7.190   3.517  1.0216 -0.4355  0.2248
  959MOL0     C26516   7.157   7.259   3.392  0.7809 -0.5039 -0.0651
  959MOL0     C26517   7.092   7.174   3.291  0.0822 -0.8581  0.3143
  959MOL0     C26518   6.937   7.153   3.292  0.3216  0.3090 -0.0897
  959MOL0     C26519   6.868   7.278   3.326  0.3419 -0.1857  0.0340
  959MOL0     C26520   6.801   7.375   3.354  0.3076  0.4202  0.0655
  959MOL0     C26521   6.914   7.017   3.653  0.0736 -0.8895 -0.3918
  959MOL0     C26522   6.781   7.042   3.683 -0.0102  0.4698 -0.1470
  959MOL0     H26523   6.435   7.066   3.982 -2.6874 -1.9712  2.4662
  959MOL0     H26524   6.227   7.073   4.059  1.0330 -2.4256 -0.2305
  959MOL0     H26525   6.020   7.217   4.074  0.8334 -1.6829  2.1394
  959MOL0     H26526   5.982   7.042   4.072 -1.9933  1.1280  2.1145
  959MOL0     H26527   5.792   7.260   3.993  2.6817  0.6209 -0.3086
  959MOL0     H26528   5.805   7.184   4.154  0.6229  1.8080 -0.7093
  959MOL0     H26529   5.746   6.962   4.069 -0.1335 -0.3301  0.0237
  959MOL0     H26530   5.728   7.028   3.910 -1.9237 -2.1887  0.3571
  959MOL0     H26531   5.574   7.134   4.155 -0.3011  2.2290 -0.6349
  959MOL0     H26532   5.545   7.188   3.987  0.9502  0.8634 -0.7760
  959MOL0     H26533   5.533   6.897   4.076  0.2648  1.4187  3.1218
  959MOL0     H26534   5.452   6.956   3.934 -1.7914 -4.4896  1.1019
  959MOL0     H26535   5.284   7.096   4.040 -1.5128 -2.2519 -0.3156
  959MOL0     H26536   5.359   7.079   4.200 -2.1193 -1.6729  0.8446
  959MOL0     H26537   5.308   6.852   4.224 -2.2316 -0.7549  1.3020
  959MOL0     H26538   5.167   6.963   4.215 -0.9681  0.7363 -1.4399
  959MOL0     H26539   5.156   6.744   4.091 -0.6952 -0.3452  0.6502
  959MOL0     H26540   5.258   6.819   3.972  1.2548 -0.5550  2.9378
  959MOL0     H26541   4.918   6.861   4.138  2.7629 -1.6020  0.0870
  959MOL0     H26542   4.744   7.157   3.975 -1.0273  0.9738  0.7861
  959MOL0     H26543   4.720   7.043   4.109  0.9532 -2.6874 -1.0537
  959MOL0     H26544   4.529   7.003   3.978  1.2101  1.3549  2.5493
  959MOL0     H26545   4.651   6.882   3.925 -0.7485 -0.0626  1.1462
  959MOL0     H26546   4.587   7.133   3.753 -0.0213 -1.1064 -2.9871
  959MOL0     H26547   4.714   7.020   3.740 -0.8970  2.8138 -0.3470
  959MOL0     H26548   4.521   6.840   3.731  1.0932  0.2151 -1.0345
  959MOL0     H26549   4.521   6.952   3.598  3.0520 -2.9346 -0.2378
  959MOL0     H26550   4.133   7.090   3.773 -4.1826  0.8932 -1.5531
  959MOL0     H26551   3.928   6.997   3.690 -0.9210 -3.0143  0.8869
  959MOL0     H26552   3.639   6.693   3.601 -0.3527 -1.6281 -0.3598
  959MOL0     H26553   3.398   6.686   3.591 -0.8165 -1.6110 -1.6005
  959MOL0     H26554   3.195   6.875   3.238  0.1804  1.9752 -0.2049
  959MOL0     H26555   3.141   6.999   3.355 -0.8723  0.1221  0.5203
  959MOL0     H26556   2.975   6.870   3.450  1.4346 -0.0104  0.5016
  959MOL0     H26557   3.015   6.728   3.346 -1.3424  0.0805 -0.1152
  959MOL0     H26558   2.963   6.837   3.149  0.0863 -0.8260  0.6782
  959MOL0     H26559   2.952   6.999   3.236  1.1105  0.7904  1.2320
  959MOL0     H26560   2.737   6.945   3.333 -2.3107 -1.3206  1.1975
  959MOL0     H26561   2.718   6.876   3.163 -3.9231  0.0541  2.7183
  959MOL0     H26562   2.750   6.746   3.428 -3.1281  1.9935  0.0390
  959MOL0     H26563   2.778   6.657   3.267 -4.1219 -2.4404  1.6931
  959MOL0     H26564   2.586   6.618   3.378 -0.5868 -0.6674 -0.9921
  959MOL0     H26565   2.566   6.667   3.207 -1.1317 -0.0625 -0.5606
  959MOL0     H26566   2.507   6.840   3.461  3.5238  1.7213 -0.9632
  959MOL0     H26567   2.493   6.908   3.300 -1.8883  1.5859  1.3918
  959MOL0     H26568   2.264   6.822   3.392  0.6515  0.2008  1.7769
  959MOL0     H26569   2.346   6.661   3.410 -1.3798 -0.8156 -0.7860
  959MOL0     H26570   3.380   7.025   3.333 -0.5490 -0.1569  0.3447
  959MOL0     H26571   3.628   7.060   3.372  0.7744  0.6726  0.8359
  959MOL0     H26572   4.152   6.724   3.456  0.1646  0.0594 -0.4794
  959MOL0     H26573   4.355   6.801   3.552 -1.6033 -0.8141  0.0562
  959MOL0     H26574   6.080   7.119   3.647  0.1812 -1.7947 -0.9202
  959MOL0     H26575   6.315   7.147   3.577 -1.1821  0.1647 -0.2468
  959MOL0     H26576   6.792   7.380   3.702 -4.4548 -1.1578  0.6277
  959MOL0     H26577   7.023   7.342   3.640 -2.5853  1.0003  1.2635
  959MOL0     H26578   7.311   7.150   3.490  1.0215  0.7344 -1.6883
  959MOL0     H26579   7.230   7.271   3.588  2.8890  1.7599 -2.5056
  959MOL0     H26580   7.098   7.343   3.429  0.5931 -0.7902  0.2935
  959MOL0     H26581   7.240   7.306   3.337  0.3275  2.0287  1.2556
  959MOL0     H26582   7.137   7.075   3.285 -0.8775 -1.2184 -1.9797
  959MOL0     H26583   7.120   7.221   3.196 -0.9710  0.6543  0.7086
  959MOL0     H26584   6.905   7.118   3.193 -1.1946  2.2309 -0.3396
  959MOL0     H26585   6.911   7.084   3.373 -1.9949 -0.0191 -1.0423
  959MOL0     H26586   6.737   7.457   3.381  1.3523  1.3697 -0.2462
  959MOL0     H26587   6.948   6.916   3.636  1.3600 -0.8561  1.5900
  959MOL0     H26588   6.727   6.949   3.695 -0.2025  0.2235 -2.6145
  960MOL0     O26589   9.611   6.436   2.123 -0.2884  0.6021 -0.6531
  960MOL0     C26590   9.688   6.372   2.189  0.2643 -0.0537  0.4194
  960MOL0     O26591   9.660   6.284   2.288  0.8641  0.4503 -0.6507
  960MOL0     C26592   9.524   6.279   2.320  0.4448 -0.3638  0.9863
  960MOL0     C26593   9.455   6.356   2.420 -0.3437  0.3865  1.1828
  960MOL0     C26594   9.314   6.352   2.440  0.0077  0.2954 -0.1069
  960MOL0     C26595   9.239   6.266   2.362  0.0648 -0.6333 -0.4017
  960MOL0     O26596   9.105   6.273   2.402  0.5643  0.9596  0.2637
  960MOL0     C26597   9.003   6.238   2.309  0.0638  0.7078  0.4443
  960MOL0     C26598   8.870   6.223   2.393 -0.3825 -0.4407  0.5645
  960MOL0     C26599   8.807   6.353   2.454 -0.8038  0.6250  0.1108
  960MOL0     C26600   8.801   6.472   2.360 -1.2558 -0.0324  0.1804
  960MOL0     C26601   8.730   6.449   2.222  0.1136 -0.3845  0.5992
  960MOL0     C26602   8.745   6.574   2.129 -0.5665 -0.8202  0.5560
  960MOL0     C26603   8.618   6.590   2.050  0.0178  0.0573 -0.1095
  960MOL0     C26604   8.597   6.694   1.946 -0.8051  0.0480 -0.6778
  960MOL0     N26605   8.572   6.833   2.004 -0.5780  0.4494  0.9426
  960MOL0     C26606   8.451   6.858   2.070 -0.7143  0.4171  0.1595
  960MOL0     C26607   8.463   6.987   2.114 -0.0890 -0.1469  0.8682
  960MOL0     C26608   8.362   7.070   2.185 -0.2086 -0.3536 -0.7819
  960MOL0     C26609   8.332   7.201   2.114  0.9183 -0.7640  0.2042
  960MOL0     C26610   8.212   7.277   2.186  0.4204 -0.6165  0.4592
  960MOL0     C26611   8.079   7.211   2.149  0.1228 -0.4628 -0.5568
  960MOL0     O26612   7.973   7.277   2.235  0.0170  0.5656  0.9323
  960MOL0     C26613   7.853   7.215   2.241 -0.1309 -0.4608  0.0502
  960MOL0     C26614   7.819   7.077   2.238 -0.1017  0.4292 -0.5206
  960MOL0     C26615   7.687   7.035   2.247  0.2002 -0.5627  0.1504
  960MOL0     C26616   7.579   7.128   2.249 -0.0789 -0.7497 -0.9802
  960MOL0     C26617   7.438   7.082   2.260  1.6848 -0.3194  0.3107
  960MOL0     O26618   7.416   6.948   2.300  0.5771  0.5109 -1.0807
  960MOL0     C26619   7.289   6.890   2.314  0.1117 -0.0555  0.0393
  960MOL0     C26620   7.290   6.753   2.325  0.8894  0.2214  0.1582
  960MOL0     C26621   7.180   6.670   2.340 -0.5397  0.3453 -0.1338
  960MOL0     C26622   7.055   6.725   2.337 -0.5535 -0.0225 -0.1645
  960MOL0     O26623   6.957   6.635   2.366 -0.4188  0.6556  0.2593
  960MOL0     C26624   6.827   6.659   2.420  0.3636 -0.3996  0.4940
  960MOL0     C26625   6.731   6.615   2.315 -0.1720 -0.3827 -0.5156
  960MOL0     C26626   6.593   6.676   2.344  0.2298 -0.5821 -0.0297
  960MOL0     C26627   6.478   6.618   2.262 -0.2368 -0.0876 -0.8097
  960MOL0     C26628   6.462   6.685   2.119  0.2011  0.0895  0.5577
  960MOL0     C26629   6.393   6.590   2.022 -0.0196  0.4033 -0.2165
  960MOL0     C26630   6.327   6.655   1.904 -0.5423 -0.1246 -0.5884
  960MOL0     C26631   6.190   6.708   1.935 -0.2263 -0.9880  0.0820
  960MOL0    Cl26632   6.211   6.886   1.972  0.6192 -0.2950  0.4311
  960MOL0     C26633   7.044   6.861   2.319  0.0615  0.0504 -0.2076
  960MOL0     C26634   7.156   6.944   2.298  0.3118 -0.9309 -0.0045
  960MOL0     O26635   7.354   7.158   2.207 -0.5210  0.1503 -0.1594
  960MOL0     C26636   7.616   7.269   2.264 -0.3861 -0.1428 -0.1669
  960MOL0     C26637   7.753   7.309   2.255  0.8175 -0.7928 -0.4671
  960MOL0     N26638   8.592   7.027   2.086  0.3054 -0.2870  0.5776
  960MOL0     N26639   8.657   6.931   2.023  0.3887  0.0426 -0.3435
  960MOL0     C26640   9.295   6.201   2.250  0.4049 -0.1149 -0.2956
  960MOL0     C26641   9.437   6.202   2.244  0.7918 -0.1256  1.3167
  960MOL0     C26642   9.835   6.384   2.145  0.9541  0.5591 -0.4167
  960MOL0     C26643   9.886   6.482   2.064  0.6993 -0.1503 -0.1917
  960MOL0     C26644  10.018   6.484   2.031 -0.1346 -0.4019  1.1597
  960MOL0     C26645  10.108   6.386   2.064 -0.0629  0.6408 -0.8856
  960MOL0     O26646  10.229   6.395   2.002  0.4428  0.1457  0.3122
  960MOL0     C26647  10.299   6.268   1.994 -0.0908  0.8339  0.4015
  960MOL0     C26648  10.215   6.158   1.928 -0.2875 -0.8101 -0.0830
  960MOL0     C26649  10.290   6.020   1.906 -0.1670  0.0091 -0.7837
  960MOL0     C26650  10.333   5.958   2.048 -0.4363 -1.2780  0.3923
  960MOL0     C26651  10.222   5.905   2.120 -0.1031 -0.0750 -0.1769
  960MOL0     C26652  10.127   5.857   2.172  0.2670  0.5157  0.1759
  960MOL0     C26653  10.064   6.296   2.166 -0.0336 -0.7866 -0.4251
  960MOL0     C26654   9.928   6.288   2.200  1.6818 -0.5013 -0.0565
  960MOL0     H26655   9.509   6.420   2.489  0.8354  0.7592 -0.0452
  960MOL0     H26656   9.283   6.414   2.523 -0.2926  0.5113 -0.3782
  960MOL0     H26657   9.031   6.152   2.248  2.1691  2.5398 -1.3772
  960MOL0     H26658   8.995   6.316   2.232 -2.8800 -2.1013 -2.3831
  960MOL0     H26659   8.890   6.150   2.472  1.2886 -2.2781 -1.4301
  960MOL0     H26660   8.789   6.180   2.333 -2.3427  1.4472  1.7054
  960MOL0     H26661   8.874   6.378   2.537  0.5954 -5.1121  1.1566
  960MOL0     H26662   8.704   6.333   2.484 -0.2977 -1.7361  0.4308
  960MOL0     H26663   8.749   6.551   2.414  0.1628  1.0239  0.0588
  960MOL0     H26664   8.907   6.498   2.348 -1.8112  2.4873  0.1323
  960MOL0     H26665   8.627   6.421   2.247 -1.4546  2.2009 -2.2850
  960MOL0     H26666   8.765   6.363   2.164 -2.3810 -0.6724 -0.6382
  960MOL0     H26667   8.827   6.544   2.063 -0.9052 -0.2035 -0.1545
  960MOL0     H26668   8.761   6.670   2.180 -0.4630 -0.2359 -0.5352
  960MOL0     H26669   8.606   6.492   2.002 -0.0033  0.2318 -0.4540
  960MOL0     H26670   8.534   6.598   2.119  1.5657 -0.8391  2.0112
  960MOL0     H26671   8.504   6.672   1.893 -1.6290 -0.5849  0.9872
  960MOL0     H26672   8.693   6.692   1.894 -0.0077  2.0533  0.5853
  960MOL0     H26673   8.372   6.785   2.087  0.9570 -1.2715  1.1026
  960MOL0     H26674   8.407   7.094   2.281 -2.7801 -0.1988  0.4758
  960MOL0     H26675   8.272   7.010   2.202  0.4266 -1.5776 -1.5879
  960MOL0     H26676   8.291   7.191   2.013 -1.8808 -0.0516  1.1672
  960MOL0     H26677   8.427   7.256   2.113  2.5088 -3.3027 -2.2921
  960MOL0     H26678   8.227   7.292   2.293  0.4377 -0.6926  0.4681
  960MOL0     H26679   8.201   7.379   2.148 -0.8969  0.1968  2.8108
  960MOL0     H26680   8.082   7.107   2.183  0.1008 -0.2643  0.0819
  960MOL0     H26681   8.057   7.216   2.042 -1.4923  2.4183 -0.1847
  960MOL0     H26682   7.895   7.002   2.219 -0.7759 -0.5674  0.6273
  960MOL0     H26683   7.669   6.928   2.244 -0.3844 -0.4356 -1.5633
  960MOL0     H26684   7.388   6.707   2.329  0.4210 -1.1727 -2.3362
  960MOL0     H26685   7.194   6.565   2.363  3.6932  1.0243  1.2953
  960MOL0     H26686   6.810   6.763   2.449 -0.1470 -1.0698  2.8692
  960MOL0     H26687   6.818   6.596   2.509  0.0461  0.1131  0.8269
  960MOL0     H26688   6.736   6.507   2.302  0.4012 -0.5573  0.9936
  960MOL0     H26689   6.763   6.661   2.221 -2.0773  1.6893 -0.2399
  960MOL0     H26690   6.598   6.779   2.307 -0.6913 -0.5863 -0.1740
  960MOL0     H26691   6.572   6.675   2.451  5.7805  1.0393  1.4285
  960MOL0     H26692   6.505   6.512   2.252 -2.1740 -0.4639 -2.7198
  960MOL0     H26693   6.385   6.620   2.320 -0.9211 -1.5600 -1.7762
  960MOL0     H26694   6.560   6.716   2.081  0.2493 -1.2206 -0.4562
  960MOL0     H26695   6.398   6.772   2.139  2.2251  1.4370  1.4934
  960MOL0     H26696   6.318   6.525   2.068 -0.1820  1.4924  1.1216
  960MOL0     H26697   6.475   6.528   1.987 -0.7299 -0.6636 -0.0274
  960MOL0     H26698   6.390   6.739   1.873 -1.6275  0.7735 -0.4076
  960MOL0     H26699   6.320   6.596   1.812  0.7729 -0.6935 -0.3524
  960MOL0     H26700   6.137   6.667   2.021 -3.1928  2.6023  0.2184
  960MOL0     H26701   6.126   6.694   1.848  0.8364 -4.0028 -0.3524
  960MOL0     H26702   6.947   6.908   2.316  0.2431  0.7762  2.3762
  960MOL0     H26703   7.135   7.049   2.280  1.0845 -0.5496  1.2768
  960MOL0     H26704   7.540   7.346   2.273  0.6115  1.2457 -2.5782
  960MOL0     H26705   7.772   7.415   2.241  0.7292  0.0563  4.1967
  960MOL0     H26706   9.244   6.133   2.182 -1.3507  1.1116 -0.2939
  960MOL0     H26707   9.479   6.149   2.159 -2.5964 -1.4572  0.2807
  960MOL0     H26708   9.818   6.551   2.014 -1.0201 -1.5443  0.1138
  960MOL0     H26709  10.053   6.553   1.955 -1.9793 -0.4560  0.1971
  960MOL0     H26710  10.329   6.233   2.093 -0.1703 -0.0311  0.1302
  960MOL0     H26711  10.387   6.277   1.929 -0.7469 -0.5012 -0.7260
  960MOL0     H26712  10.121   6.135   1.980 -0.0863 -0.4068  0.4725
  960MOL0     H26713  10.190   6.181   1.824  1.6567 -1.3808 -0.7149
  960MOL0     H26714  10.370   6.028   1.832  0.6837 -4.5079 -0.6310
  960MOL0     H26715  10.231   5.946   1.850  1.6737 -1.6617 -0.6119
  960MOL0     H26716  10.411   5.882   2.048  2.7885  1.7699  1.5609
  960MOL0     H26717  10.375   6.034   2.114 -1.8982 -1.3824  1.5150
  960MOL0     H26718  10.041   5.810   2.215  0.4495  0.7794  0.8533
  960MOL0     H26719  10.134   6.228   2.215 -0.8768  0.2784  2.4658
  960MOL0     H26720   9.893   6.208   2.264  2.5111 -0.8351 -0.0064
  961MOL0     O26721   3.416  10.895   0.452  0.1971 -0.2334  0.1496
  961MOL0     C26722   3.421  10.981   0.539 -0.1655 -0.3939  0.2839
  961MOL0     O26723   3.533  11.041   0.582 -0.2381 -0.3216 -0.1418
  961MOL0     C26724   3.666  11.004   0.541 -0.7996 -0.6951 -1.3281
  961MOL0     C26725   3.731  11.086   0.447  0.0976 -1.3013 -0.3951
  961MOL0     C26726   3.859  11.052   0.411  0.4887 -0.0188 -0.1591
  961MOL0     C26727   3.939  10.962   0.486 -0.2991 -0.7130  0.6436
  961MOL0     O26728   4.069  10.946   0.448  0.1060 -0.2550  0.6364
  961MOL0     C26729   4.166  10.934   0.552 -0.0028  0.1590  0.5081
  961MOL0     C26730   4.290  11.005   0.508  1.2182  0.2679 -0.9731
  961MOL0     C26731   4.376  11.030   0.632  0.2608  0.2636  0.3424
  961MOL0     C26732   4.506  11.094   0.574  0.5847  0.1290 -0.4333
  961MOL0     C26733   4.620  11.110   0.671 -0.1445 -0.5738 -0.8857
  961MOL0     C26734   4.728  11.192   0.598 -0.5364  0.3850 -0.2140
  961MOL0     C26735   4.844  11.210   0.685  0.8872  0.5154  0.3397
  961MOL0     C26736   4.949  11.283   0.609  0.0965 -0.6724 -0.1666
  961MOL0     N26737   5.077  11.304   0.682 -0.2381  0.5395  0.3823
  961MOL0     C26738   5.158  11.218   0.745  0.1401 -0.4373 -0.3783
  961MOL0     C26739   5.246  11.289   0.802 -1.1115 -1.0273 -0.9006
  961MOL0     C26740   5.350  11.242   0.905  0.9577  0.9688 -0.3181
  961MOL0     C26741   5.265  11.209   1.036  0.3059  0.3150 -0.5331
  961MOL0     C26742   5.204  11.330   1.106 -0.0040  0.1688 -0.1714
  961MOL0     C26743   5.077  11.277   1.185 -0.5257  0.2730  0.6697
  961MOL0     O26744   4.979  11.228   1.094 -0.0265  0.0789 -0.3288
  961MOL0     C26745   4.855  11.219   1.146  0.8059  0.5947  0.2386
  961MOL0     C26746   4.822  11.170   1.266 -0.4601  0.2383 -0.0815
  961MOL0     C26747   4.699  11.132   1.304  0.1675 -0.3872  0.0987
  961MOL0     C26748   4.588  11.159   1.225  0.0502 -0.2103 -0.5886
  961MOL0     C26749   4.450  11.138   1.279 -0.0889 -0.9524 -0.5236
  961MOL0     O26750   4.425  11.149   1.410  0.1457 -0.2038 -0.5445
  961MOL0     C26751   4.288  11.159   1.437 -0.3156  0.2953 -0.2192
  961MOL0     C26752   4.200  11.056   1.411  0.5082 -0.0531  0.8173
  961MOL0     C26753   4.065  11.056   1.454 -0.1551  0.0565 -0.4407
  961MOL0     C26754   4.016  11.164   1.521 -0.1644  0.3605  0.3785
  961MOL0     O26755   3.882  11.167   1.574 -0.2670 -0.0835  0.6103
  961MOL0     C26756   3.808  11.043   1.585 -1.2530  0.8579  0.1129
  961MOL0     C26757   3.689  11.069   1.679  0.4704  1.0477  0.4900
  961MOL0     C26758   3.599  11.192   1.653 -0.1879  1.3685  0.9634
  961MOL0     C26759   3.463  11.181   1.725  0.1933  0.4550  0.5562
  961MOL0     C26760   3.380  11.309   1.718  0.3448 -0.3337 -0.4575
  961MOL0     C26761   3.266  11.308   1.831  0.1099  0.0331  0.1069
  961MOL0     C26762   3.160  11.203   1.812  0.4550  0.0236  0.2947
  961MOL0     C26763   3.098  11.183   1.947  0.1512  0.3616  0.1990
  961MOL0    Cl26764   2.943  11.107   1.898 -0.0348 -0.1913 -0.1465
  961MOL0     C26765   4.105  11.269   1.551  0.2213  0.0910 -1.0666
  961MOL0     C26766   4.231  11.273   1.500 -0.3864  0.4228  0.4528
  961MOL0     O26767   4.369  11.124   1.196  0.1713 -0.1593  0.2201
  961MOL0     C26768   4.615  11.207   1.097 -0.1897 -0.5758 -0.6544
  961MOL0     C26769   4.743  11.235   1.056 -0.5950  0.2406 -0.3623
  961MOL0     N26770   5.220  11.422   0.773 -0.2282 -0.6873  0.1377
  961MOL0     N26771   5.114  11.432   0.701  0.2056 -0.1230 -0.2444
  961MOL0     C26772   3.874  10.887   0.585 -0.4468 -0.4492 -0.3764
  961MOL0     C26773   3.737  10.906   0.610  1.1309  0.7520  0.1983
  961MOL0     C26774   3.300  11.002   0.619 -0.0988  0.2636  0.4333
  961MOL0     C26775   3.173  10.982   0.553 -0.0679 -0.3448 -0.8804
  961MOL0     C26776   3.060  11.002   0.636  0.9390  0.0127 -0.0937
  961MOL0     C26777   3.064  11.026   0.776 -0.7955  0.0018  0.6903
  961MOL0     O26778   2.950  11.044   0.840  0.5500 -0.4133  0.8669
  961MOL0     C26779   2.953  11.129   0.954 -0.2713 -0.3075  0.1883
  961MOL0     C26780   2.812  11.172   0.996  1.1751  0.0436 -0.5434
  961MOL0     C26781   2.737  11.058   1.069  0.9092 -0.0089 -0.3866
  961MOL0     C26782   2.722  11.098   1.220  0.1382 -0.0673  0.0540
  961MOL0     C26783   2.660  10.991   1.307 -0.0672  0.1934 -0.3295
  961MOL0     C26784   2.619  10.893   1.371 -0.1475  0.0788  0.1359
  961MOL0     C26785   3.190  11.042   0.835 -0.3983 -0.1749  0.3359
  961MOL0     C26786   3.308  11.035   0.756  0.5504  0.1005  1.6740
  961MOL0     H26787   3.691  11.170   0.392  1.1554 -0.2813  0.3301
  961MOL0     H26788   3.906  11.101   0.326  0.5731  0.4920  0.1786
  961MOL0     H26789   4.178  10.829   0.581  1.6945 -0.2321 -1.3642
  961MOL0     H26790   4.137  10.990   0.641 -0.7238  0.2145  0.2466
  961MOL0     H26791   4.265  11.102   0.463 -0.5105 -0.1738 -1.0299
  961MOL0     H26792   4.336  10.936   0.437  1.8589  0.2608 -0.5594
  961MOL0     H26793   4.389  10.947   0.703 -1.8948 -0.8666 -0.5044
  961MOL0     H26794   4.323  11.107   0.689 -0.8163 -1.8220  2.3331
  961MOL0     H26795   4.539  11.026   0.494  1.1218 -1.7374  1.2822
  961MOL0     H26796   4.466  11.188   0.535 -1.6446 -0.4126  0.3711
  961MOL0     H26797   4.647  11.015   0.718  2.1574  0.2795 -0.3596
  961MOL0     H26798   4.582  11.178   0.747  2.8415 -0.0125  0.2330
  961MOL0     H26799   4.685  11.290   0.574  1.5888  1.2002 -0.8753
  961MOL0     H26800   4.747  11.136   0.506  1.0344 -1.5706  1.2234
  961MOL0     H26801   4.812  11.269   0.771 -0.8749 -0.7902  0.6329
  961MOL0     H26802   4.873  11.111   0.721  0.3910  0.1703 -0.1818
  961MOL0     H26803   4.910  11.384   0.595  0.7166  0.1429  3.2534
  961MOL0     H26804   4.977  11.242   0.511  0.9348  1.0857 -0.7108
  961MOL0     H26805   5.139  11.112   0.754  1.0743 -0.5803 -0.0445
  961MOL0     H26806   5.437  11.307   0.918  2.0516 -0.5104 -0.0761
  961MOL0     H26807   5.406  11.154   0.874  1.3235  1.4817 -1.1332
  961MOL0     H26808   5.332  11.177   1.116  1.8344  2.5440 -0.8115
  961MOL0     H26809   5.196  11.125   1.020 -1.1420  1.0704  1.3149
  961MOL0     H26810   5.277  11.365   1.179 -0.5449 -0.9096  0.9208
  961MOL0     H26811   5.160  11.401   1.035 -0.2499  0.6971  0.5099
  961MOL0     H26812   5.029  11.361   1.235 -3.9562 -0.6628 -0.7375
  961MOL0     H26813   5.109  11.210   1.265 -1.6280 -2.8737 -1.3086
  961MOL0     H26814   4.901  11.141   1.335 -0.3108 -1.2226 -0.8453
  961MOL0     H26815   4.683  11.092   1.404 -0.9369 -0.1889  0.0127
  961MOL0     H26816   4.221  10.967   1.352  0.8881  0.8505 -0.4808
  961MOL0     H26817   4.010  10.964   1.434  0.7488 -0.4480 -0.6591
  961MOL0     H26818   3.870  10.961   1.621  0.5465  1.6545 -1.0317
  961MOL0     H26819   3.773  11.018   1.484  2.6036 -2.2680 -0.6845
  961MOL0     H26820   3.724  11.077   1.782 -0.5275 -0.0487  0.9349
  961MOL0     H26821   3.636  10.975   1.661  1.0035  0.8557 -0.1305
  961MOL0     H26822   3.588  11.222   1.548  2.8009  2.2275  0.8024
  961MOL0     H26823   3.656  11.274   1.698  0.5965  0.8359  0.9575
  961MOL0     H26824   3.413  11.104   1.665  0.6661  1.7399 -1.5648
  961MOL0     H26825   3.467  11.141   1.827  0.8210  0.0481  0.3775
  961MOL0     H26826   3.345  11.316   1.615  1.3144  1.9941 -0.7015
  961MOL0     H26827   3.438  11.401   1.734 -0.7613  0.3983 -0.5630
  961MOL0     H26828   3.222  11.408   1.842  3.8657  2.0719 -1.4317
  961MOL0     H26829   3.316  11.288   1.925 -1.2777 -1.5887  0.5580
  961MOL0     H26830   3.084  11.245   1.745  1.6273  0.2597 -0.9532
  961MOL0     H26831   3.187  11.104   1.775  2.0176  0.2378  0.7904
  961MOL0     H26832   3.080  11.281   1.992 -0.6741  1.1391 -1.7313
  961MOL0     H26833   3.160  11.128   2.019 -0.4268 -0.2500  0.2389
  961MOL0     H26834   4.067  11.352   1.610  0.1318 -0.4134 -0.4050
  961MOL0     H26835   4.295  11.360   1.511  0.5996 -0.3127  0.7866
  961MOL0     H26836   4.529  11.227   1.034 -0.0576  4.6495  0.3626
  961MOL0     H26837   4.768  11.272   0.957  1.2788 -0.0327 -0.0388
  961MOL0     H26838   3.936  10.823   0.647  3.3446  3.2726  0.1345
  961MOL0     H26839   3.684  10.851   0.688 -0.9876  2.2729 -0.0748
  961MOL0     H26840   3.162  10.955   0.448  0.9999  2.2258 -1.7474
  961MOL0     H26841   2.966  10.985   0.586 -0.2146  3.4083  0.6586
  961MOL0     H26842   3.019  11.215   0.937  0.4884 -0.7776  0.7054
  961MOL0     H26843   2.999  11.063   1.028 -0.9203  0.4002  1.2485
  961MOL0     H26844   2.813  11.253   1.069 -0.4925 -0.9969  0.7204
  961MOL0     H26845   2.761  11.192   0.901  0.9938  0.8454 -0.2752
  961MOL0     H26846   2.797  10.967   1.059 -0.8235 -1.3535  0.7307
  961MOL0     H26847   2.639  11.053   1.021 -0.4680  0.5252  2.2110
  961MOL0     H26848   2.820  11.109   1.266 -0.1651 -1.4934  1.1033
  961MOL0     H26849   2.669  11.193   1.234 -0.0297  0.0978 -1.5021
  961MOL0     H26850   2.591  10.809   1.432 -0.0844 -0.3503 -0.4250
  961MOL0     H26851   3.206  11.059   0.941  0.2719 -0.7987  0.3412
  961MOL0     H26852   3.409  11.045   0.794  0.5820  0.6918  1.4516
  962MOL0     O26853   4.731   0.679   0.120  0.5286 -0.6700  0.6483
  962MOL0     C26854   4.745   0.617   0.219 -0.6488 -0.8358 -0.0588
  962MOL0     O26855   4.652   0.611   0.321 -0.2173  0.0326 -0.4547
  962MOL0     C26856   4.531   0.655   0.277  0.4537  0.9575  1.3197
  962MOL0     C26857   4.490   0.777   0.311  0.7253 -0.0149  0.7438
  962MOL0     C26858   4.357   0.814   0.284  0.3743  0.1352  0.0212
  962MOL0     C26859   4.263   0.733   0.223 -0.0343 -1.0936 -0.0489
  962MOL0     O26860   4.133   0.789   0.219  0.5119 -0.3618  0.5593
  962MOL0     C26861   4.026   0.704   0.195 -0.3706  0.3552 -0.2342
  962MOL0     C26862   3.903   0.800   0.184 -0.0791  0.2872  0.3769
  962MOL0     C26863   3.774   0.732   0.127  0.4272  0.1546 -0.3173
  962MOL0     C26864   3.655   0.817   0.115  0.7278  0.9064  0.6060
  962MOL0     C26865   3.546   0.718   0.063  1.0444  0.0310 -0.0604
  962MOL0     C26866   3.428   0.803   0.001  0.0442  0.4405 -0.4047
  962MOL0     C26867   3.305   0.714  -0.026 -0.3684 -0.1917  0.4580
  962MOL0     C26868   3.219   0.795  -0.122 -0.6212  0.5102 -1.5950
  962MOL0     N26869   3.081   0.742  -0.117  0.2217 -0.1539 -0.1125
  962MOL0     C26870   2.959   0.791  -0.093  0.4713 -1.0327  0.3920
  962MOL0     C26871   2.868   0.700  -0.132  0.1263 -1.0835  0.4834
  962MOL0     C26872   2.723   0.710  -0.117  0.9058  0.0819  0.1760
  962MOL0     C26873   2.680   0.677   0.028  0.6073  0.2713 -0.5197
  962MOL0     C26874   2.531   0.702   0.050 -0.7661 -0.7821  0.3174
  962MOL0     C26875   2.435   0.634  -0.045 -0.5119 -0.4579 -0.3404
  962MOL0     O26876   2.302   0.693  -0.037  0.6722  0.7798 -0.0722
  962MOL0     C26877   2.238   0.678   0.085  0.7389 -0.1129  0.2303
  962MOL0     C26878   2.217   0.799   0.153  0.6246  0.2115  0.8483
  962MOL0     C26879   2.166   0.801   0.281 -0.2419 -1.0883 -0.3931
  962MOL0     C26880   2.121   0.682   0.345 -0.0890  0.0555 -0.3561
  962MOL0     C26881   2.052   0.680   0.485 -0.9160  0.1768  1.0249
  962MOL0     O26882   1.963   0.573   0.508 -1.1905  0.4936 -0.7350
  962MOL0     C26883   1.891   0.557   0.630 -0.5484 -0.6070  0.2748
  962MOL0     C26884   1.776   0.487   0.612  0.3833  1.0828 -0.1846
  962MOL0     C26885   1.693   0.458   0.727  0.0805 -0.0108  0.1454
  962MOL0     C26886   1.731   0.500   0.857 -0.6537 -0.2395 -1.0421
  962MOL0     O26887   1.651   0.456   0.962 -0.4961 -0.0652  0.1525
  962MOL0     C26888   1.624   0.554   1.067 -0.5995  0.6862 -0.5267
  962MOL0     C26889   1.511   0.646   1.042 -0.0827 -0.0869 -0.1587
  962MOL0     C26890   1.405   0.574   0.962 -0.3565  0.8974  0.4593
  962MOL0     C26891   1.276   0.663   0.971 -0.0048 -0.3544  0.4462
  962MOL0     C26892   1.173   0.608   0.882  0.3088  0.6632  0.1272
  962MOL0     C26893   1.042   0.684   0.900 -0.0588 -0.1026 -0.1306
  962MOL0     C26894   1.011   0.816   0.846 -0.5071 -0.7010 -0.3875
  962MOL0     C26895   0.906   0.908   0.917  0.3517  0.5531  0.5189
  962MOL0    Cl26896   0.768   0.807   0.948 -0.2120  0.1439 -0.2192
  962MOL0     C26897   1.855   0.565   0.866  0.1417  0.6908  0.1204
  962MOL0     C26898   1.930   0.601   0.757 -0.7017  0.3256 -0.3523
  962MOL0     O26899   2.086   0.772   0.565  0.2066  0.6015  0.8195
  962MOL0     C26900   2.150   0.563   0.279  0.5809 -0.4955  0.1346
  962MOL0     C26901   2.199   0.561   0.152  0.1017 -0.0982  0.3917
  962MOL0     N26902   2.927   0.585  -0.170 -0.5625  0.3131  0.6750
  962MOL0     N26903   3.054   0.611  -0.149 -0.1862 -0.7149  0.5100
  962MOL0     C26904   4.306   0.613   0.179  0.1520  0.1009 -0.5761
  962MOL0     C26905   4.439   0.570   0.201  0.0080 -0.1021 -0.2466
  962MOL0     C26906   4.877   0.548   0.244 -0.5721  0.5436 -0.5159
  962MOL0     C26907   4.979   0.564   0.148  0.0474  0.4603 -0.6070
  962MOL0     C26908   5.105   0.497   0.161  0.7307 -0.3877  0.3097
  962MOL0     C26909   5.135   0.418   0.276  0.4374 -0.2405  0.0072
  962MOL0     O26910   5.260   0.355   0.293 -0.1183 -0.0480 -0.3094
  962MOL0     C26911   5.304   0.287   0.417  0.5964 -0.1529 -0.1389
  962MOL0     C26912   5.443   0.228   0.402  0.8788 -0.4910  0.6957
  962MOL0     C26913   5.539   0.343   0.415 -0.0020 -0.2626 -0.3877
  962MOL0     C26914   5.687   0.303   0.384  0.4736 -0.4262  0.0052
  962MOL0     C26915   5.761   0.222   0.486  0.0945 -0.6927  0.3333
  962MOL0     C26916   5.814   0.153   0.559 -0.1163  0.5916 -0.2526
  962MOL0     C26917   5.034   0.406   0.380  0.6531  0.0268 -0.4971
  962MOL0     C26918   4.906   0.464   0.361 -0.0686 -0.4245  0.0611
  962MOL0     H26919   4.543   0.849   0.372 -3.7676  3.3382  1.2357
  962MOL0     H26920   4.311   0.906   0.319  3.0837  1.1805  1.0891
  962MOL0     H26921   4.026   0.646   0.287  3.2265 -0.0783 -0.3818
  962MOL0     H26922   4.046   0.650   0.102 -1.3872 -1.3009  0.4637
  962MOL0     H26923   3.917   0.882   0.112 -1.2116  0.5528  0.4493
  962MOL0     H26924   3.878   0.828   0.286 -1.0930 -1.9215  0.7839
  962MOL0     H26925   3.752   0.645   0.189  1.1882 -0.3248 -0.7028
  962MOL0     H26926   3.799   0.697   0.026  0.6371 -1.6351  0.3227
  962MOL0     H26927   3.618   0.850   0.212  0.5142  2.3331  0.0610
  962MOL0     H26928   3.673   0.888   0.034 -0.0120 -0.0582 -0.4549
  962MOL0     H26929   3.500   0.652   0.137  0.2448  0.6116 -0.0245
  962MOL0     H26930   3.582   0.665  -0.026  1.4033  1.6700 -0.9302
  962MOL0     H26931   3.467   0.858  -0.085 -0.3126  1.6704  0.1906
  962MOL0     H26932   3.389   0.871   0.078  0.9614 -0.0502  0.5141
  962MOL0     H26933   3.336   0.619  -0.070  0.4339 -0.1481  0.9066
  962MOL0     H26934   3.260   0.691   0.071 -0.7943 -0.3694  0.2212
  962MOL0     H26935   3.272   0.785  -0.217  0.5123 -0.8632 -0.8585
  962MOL0     H26936   3.216   0.901  -0.096  2.4753  1.1986 -3.6093
  962MOL0     H26937   2.939   0.894  -0.065  1.1486 -0.4731 -1.1384
  962MOL0     H26938   2.673   0.641  -0.185  0.7153 -0.4549  0.8407
  962MOL0     H26939   2.690   0.804  -0.162  0.7464 -1.2177 -2.6499
  962MOL0     H26940   2.751   0.730   0.093  1.2615 -0.5020 -0.5728
  962MOL0     H26941   2.696   0.574   0.062 -1.4472  0.7171  2.1182
  962MOL0     H26942   2.517   0.659   0.150 -0.0370  0.7367  1.1077
  962MOL0     H26943   2.516   0.810   0.053  1.8557 -0.3701  2.0062
  962MOL0     H26944   2.426   0.529  -0.017  2.1377 -0.2872  1.5616
  962MOL0     H26945   2.479   0.641  -0.144  2.8708  0.8592  1.1081
  962MOL0     H26946   2.237   0.889   0.097 -0.9756  0.7205  1.0451
  962MOL0     H26947   2.152   0.895   0.332 -2.8708 -0.2198 -2.4708
  962MOL0     H26948   1.757   0.450   0.512  0.9074 -1.9211  0.7146
  962MOL0     H26949   1.605   0.395   0.716  0.2065 -0.2891  0.6738
  962MOL0     H26950   1.708   0.616   1.101 -2.0149  1.2946  2.1011
  962MOL0     H26951   1.592   0.495   1.153  0.1170 -0.3081 -0.9204
  962MOL0     H26952   1.536   0.731   0.978  2.0543  0.3810  1.2153
  962MOL0     H26953   1.464   0.692   1.129 -0.5574  1.3984 -1.1601
  962MOL0     H26954   1.372   0.481   1.009 -1.8264  0.2574 -1.6658
  962MOL0     H26955   1.445   0.555   0.862  0.3678  1.6140  0.6084
  962MOL0     H26956   1.241   0.654   1.074 -3.9056 -1.5513 -0.7836
  962MOL0     H26957   1.291   0.765   0.935  0.5276 -1.1659 -1.7638
  962MOL0     H26958   1.158   0.507   0.922 -1.3573  0.2826 -1.3161
  962MOL0     H26959   1.206   0.613   0.777 -2.3657  0.5374 -0.7957
  962MOL0     H26960   1.045   0.702   1.008 -3.1197  1.2691 -0.1668
  962MOL0     H26961   0.958   0.619   0.874 -0.4968 -0.1916  1.3949
  962MOL0     H26962   1.103   0.874   0.831 -0.0201 -1.0172  1.1616
  962MOL0     H26963   0.966   0.792   0.749 -1.1994  2.0351 -0.8304
  962MOL0     H26964   0.880   0.994   0.855 -0.4110  1.4647  2.0450
  962MOL0     H26965   0.945   0.950   1.010 -1.4040  2.8015  0.3164
  962MOL0     H26966   1.878   0.598   0.967  0.7967  1.9728 -0.4280
  962MOL0     H26967   2.020   0.660   0.769 -0.8307  0.0986  2.3483
  962MOL0     H26968   2.123   0.481   0.345 -1.0210 -0.4270 -0.4127
  962MOL0     H26969   2.211   0.463   0.108 -4.5651 -1.1381  0.8584
  962MOL0     H26970   4.242   0.539   0.131  0.2027  0.4442 -1.1873
  962MOL0     H26971   4.475   0.474   0.167  0.9332  0.8704 -2.1578
  962MOL0     H26972   4.984   0.639   0.070 -1.8463  0.0051 -1.2222
  962MOL0     H26973   5.179   0.509   0.083 -1.5706  1.5266 -1.7591
  962MOL0     H26974   5.234   0.205   0.438  2.0500 -0.9688  1.8861
  962MOL0     H26975   5.317   0.354   0.502  1.2140 -1.8487  1.1712
  962MOL0     H26976   5.454   0.151   0.479  3.6413 -0.8547  0.0539
  962MOL0     H26977   5.450   0.188   0.300 -1.1680 -0.4796  0.4973
  962MOL0     H26978   5.538   0.382   0.517  0.9540 -0.5484 -0.2579
  962MOL0     H26979   5.512   0.416   0.338 -2.2125  0.2837  0.8035
  962MOL0     H26980   5.687   0.232   0.300 -2.5322  1.2790 -1.6040
  962MOL0     H26981   5.730   0.401   0.364 -0.3335 -0.1569 -0.4453
  962MOL0     H26982   5.867   0.087   0.624  3.9131  2.7162 -1.0573
  962MOL0     H26983   5.050   0.352   0.472 -1.2649  1.2381  0.6257
  962MOL0     H26984   4.828   0.443   0.434  0.1642 -1.0676  0.1289
  963MOL0     O26985   6.798   4.975   2.197 -0.4522  0.1381 -0.2203
  963MOL0     C26986   6.852   5.086   2.196 -0.2279  0.0174  1.0503
  963MOL0     O26987   6.782   5.202   2.177  0.2196 -0.1845  0.3596
  963MOL0     C26988   6.642   5.197   2.175 -0.0356  0.4857  0.1082
  963MOL0     C26989   6.584   5.259   2.064  0.1252  0.3509  0.0467
  963MOL0     C26990   6.448   5.286   2.057 -0.1881 -1.1469  0.5169
  963MOL0     C26991   6.366   5.227   2.159 -0.2346  0.1690 -0.3939
  963MOL0     O26992   6.229   5.244   2.167 -0.4649 -0.8950  0.0478
  963MOL0     C26993   6.191   5.379   2.152  0.9161 -1.0288  0.4203
  963MOL0     C26994   6.039   5.379   2.167  0.1329 -0.0916  0.5623
  963MOL0     C26995   5.979   5.520   2.128 -0.3015  0.5670 -0.4786
  963MOL0     C26996   5.826   5.533   2.163  0.2928  0.2093 -0.0906
  963MOL0     C26997   5.756   5.640   2.073  0.8104 -0.4250  0.7774
  963MOL0     C26998   5.606   5.633   2.094 -0.0870 -0.3486  0.4083
  963MOL0     C26999   5.535   5.759   2.032  0.1280 -0.1336 -0.2623
  963MOL0     C27000   5.385   5.775   2.069  0.4703  0.3382 -0.1091
  963MOL0     N27001   5.344   5.913   2.067 -0.4236  0.6241 -0.9319
  963MOL0     C27002   5.217   5.941   2.108 -0.9169 -0.5179 -1.0699
  963MOL0     C27003   5.223   6.073   2.148  0.2415  0.1358 -0.6236
  963MOL0     C27004   5.114   6.157   2.201  0.7579 -0.3056 -0.2671
  963MOL0     C27005   5.166   6.228   2.326 -0.0304  0.1700 -0.2681
  963MOL0     C27006   5.049   6.313   2.395 -1.1058  0.3655  0.0157
  963MOL0     C27007   4.912   6.252   2.381  0.3955  0.3671 -0.7335
  963MOL0     O27008   4.847   6.342   2.474  0.2548  0.1280 -0.0986
  963MOL0     C27009   4.716   6.311   2.494  0.5137 -0.6511 -0.0634
  963MOL0     C27010   4.639   6.201   2.432  0.7776  0.2695  0.2638
  963MOL0     C27011   4.503   6.184   2.463  0.2490 -0.6452 -0.4692
  963MOL0     C27012   4.445   6.267   2.566 -0.2886  0.7686  0.5078
  963MOL0     C27013   4.302   6.240   2.610 -0.1048  0.2312  0.2964
  963MOL0     O27014   4.243   6.130   2.567  0.3367 -0.0765 -0.4022
  963MOL0     C27015   4.132   6.078   2.625 -1.1852  0.0386 -1.0297
  963MOL0     C27016   4.134   5.940   2.655 -0.5927  0.3875 -0.5842
  963MOL0     C27017   4.007   5.876   2.675 -0.3263  0.1150  1.0707
  963MOL0     C27018   3.892   5.951   2.690  0.0964 -0.0846  0.2827
  963MOL0     O27019   3.780   5.875   2.727 -0.4346 -0.3961 -0.6005
  963MOL0     C27020   3.648   5.918   2.697 -0.1347  0.0363 -0.2539
  963MOL0     C27021   3.562   5.790   2.715 -0.0430 -0.2137 -1.0688
  963MOL0     C27022   3.416   5.801   2.677 -0.6376  0.2579  0.0950
  963MOL0     C27023   3.343   5.901   2.758  0.4617 -0.5489 -0.4717
  963MOL0     C27024   3.331   5.865   2.903 -0.4811 -0.1690  0.6532
  963MOL0     C27025   3.223   5.954   2.966 -0.0731 -0.5452 -0.6961
  963MOL0     C27026   3.207   5.942   3.119 -0.0161 -0.3313  0.8596
  963MOL0     C27027   3.081   5.983   3.164  0.6007 -0.0466  0.3064
  963MOL0    Cl27028   2.928   5.896   3.095 -0.0538  0.0403 -0.3948
  963MOL0     C27029   3.894   6.085   2.665 -1.0215  0.4556  0.6246
  963MOL0     C27030   4.011   6.151   2.628  0.0258 -0.0040  0.8097
  963MOL0     O27031   4.253   6.325   2.687 -0.0597  0.0579 -0.2658
  963MOL0     C27032   4.513   6.379   2.607 -0.6216 -0.8607  0.7539
  963MOL0     C27033   4.647   6.401   2.572  0.0502 -0.0844 -1.6061
  963MOL0     N27034   5.343   6.125   2.124 -0.0578 -0.7391 -0.0857
  963MOL0     N27035   5.417   6.027   2.077  0.2524 -0.2205 -0.7872
  963MOL0     C27036   6.419   5.166   2.268 -0.0559  0.8013  0.9672
  963MOL0     C27037   6.557   5.158   2.284  0.6522 -0.4110 -0.6943
  963MOL0     C27038   7.003   5.087   2.208  0.3166  0.3988 -0.2985
  963MOL0     C27039   7.081   5.205   2.233  0.0936  0.3027  0.7386
  963MOL0     C27040   7.222   5.200   2.227 -0.2282 -0.1916 -0.9825
  963MOL0     C27041   7.279   5.065   2.200  0.2358 -0.7355  0.1042
  963MOL0     O27042   7.415   5.042   2.195 -0.2608 -0.3456  0.3875
  963MOL0     C27043   7.503   5.157   2.222  0.4033 -0.8305 -0.3462
  963MOL0     C27044   7.645   5.111   2.188 -1.0222  0.4748  0.2273
  963MOL0     C27045   7.679   4.982   2.275 -0.1713 -0.0442  0.3294
  963MOL0     C27046   7.801   4.909   2.210  0.2715 -0.0407  0.6957
  963MOL0     C27047   7.921   4.946   2.280 -0.7052  0.5474 -0.2024
  963MOL0     C27048   8.004   4.987   2.365  0.0335 -0.3937  0.1321
  963MOL0     C27049   7.200   4.960   2.172  0.7014  0.9220  0.0343
  963MOL0     C27050   7.069   4.970   2.183 -0.2980  0.3541 -0.0488
  963MOL0     H27051   6.659   5.292   1.992  1.8228  1.1693  2.0688
  963MOL0     H27052   6.398   5.339   1.977 -1.1128 -2.0706  0.4602
  963MOL0     H27053   6.218   5.428   2.058 -0.5536 -0.9548  0.0139
  963MOL0     H27054   6.228   5.443   2.234 -2.6710 -0.2883  1.6250
  963MOL0     H27055   6.008   5.371   2.272 -0.0796  3.2180  0.8441
  963MOL0     H27056   5.992   5.302   2.105  1.1999  1.0961 -1.8503
  963MOL0     H27057   5.993   5.549   2.024  1.6516  3.9065  0.5631
  963MOL0     H27058   6.044   5.586   2.186  0.5959 -0.7846  0.1035
  963MOL0     H27059   5.773   5.438   2.156 -0.3395  0.4633  1.0683
  963MOL0     H27060   5.808   5.564   2.266  0.3594  0.3570 -0.1230
  963MOL0     H27061   5.775   5.621   1.967 -0.2373  0.0960  0.4798
  963MOL0     H27062   5.796   5.739   2.099  1.7812 -0.2201 -1.2791
  963MOL0     H27063   5.584   5.634   2.201  0.8809  1.1288  0.6247
  963MOL0     H27064   5.564   5.542   2.050  1.4509  0.0905 -2.1936
  963MOL0     H27065   5.583   5.837   2.092  1.7694 -0.6584 -0.8529
  963MOL0     H27066   5.567   5.775   1.929 -0.9077 -0.4104 -0.6393
  963MOL0     H27067   5.373   5.734   2.170  0.8583  2.2603  0.7602
  963MOL0     H27068   5.316   5.714   2.010 -0.6229 -0.8568  2.2457
  963MOL0     H27069   5.123   5.887   2.107 -2.0415  1.2817  0.4943
  963MOL0     H27070   5.023   6.099   2.219  0.6017 -0.4972 -1.5803
  963MOL0     H27071   5.084   6.227   2.122 -2.4887  0.1832  1.2440
  963MOL0     H27072   5.241   6.303   2.298 -1.4750  1.5676 -0.5826
  963MOL0     H27073   5.216   6.162   2.397  0.7436 -0.1364 -1.0789
  963MOL0     H27074   5.089   6.316   2.497 -0.5141 -0.4028 -0.1801
  963MOL0     H27075   5.054   6.412   2.349 -0.7574  0.2315 -0.2381
  963MOL0     H27076   4.903   6.152   2.423 -0.7591  0.6498 -0.2942
  963MOL0     H27077   4.881   6.250   2.276  0.3123  1.5213 -0.7387
  963MOL0     H27078   4.691   6.126   2.375 -0.5597 -0.2992 -0.2463
  963MOL0     H27079   4.435   6.110   2.422 -1.4316 -0.4072  1.7106
  963MOL0     H27080   4.227   5.886   2.643 -0.3891  0.8369 -1.0782
  963MOL0     H27081   4.012   5.768   2.683  0.2400 -0.0426 -0.8141
  963MOL0     H27082   3.636   5.967   2.600  1.3102  1.0620  0.0584
  963MOL0     H27083   3.621   6.001   2.763  0.8123  0.2661 -0.1486
  963MOL0     H27084   3.567   5.755   2.819 -0.5992 -1.8653 -1.5588
  963MOL0     H27085   3.613   5.711   2.658  0.8264 -1.9045  1.8141
  963MOL0     H27086   3.369   5.705   2.698 -1.6354  1.2237  2.6941
  963MOL0     H27087   3.413   5.828   2.571  0.2645  2.9801  0.6700
  963MOL0     H27088   3.391   5.999   2.753  2.5391 -1.1519  3.3537
  963MOL0     H27089   3.238   5.904   2.728  0.3586 -1.9951 -0.3205
  963MOL0     H27090   3.425   5.880   2.956  0.8018 -0.1385 -1.5397
  963MOL0     H27091   3.309   5.759   2.920 -0.2513 -0.0936  1.4869
  963MOL0     H27092   3.136   5.911   2.916 -1.0262 -1.1788  1.4065
  963MOL0     H27093   3.246   6.056   2.934 -0.5776 -0.7089 -1.6121
  963MOL0     H27094   3.213   5.834   3.138 -1.0389 -0.3681  1.0343
  963MOL0     H27095   3.291   5.991   3.169  1.1095 -1.0289 -0.2734
  963MOL0     H27096   3.067   6.090   3.146  3.2751  0.5721  1.3551
  963MOL0     H27097   3.073   5.961   3.271 -1.2959 -0.0752  0.1924
  963MOL0     H27098   3.804   6.144   2.677  0.3803  2.5041  1.6305
  963MOL0     H27099   4.012   6.259   2.619  0.8253  0.0765  1.6697
  963MOL0     H27100   4.464   6.444   2.680 -1.5218 -1.3162  0.5627
  963MOL0     H27101   4.698   6.474   2.634  0.2123 -1.2991 -0.2559
  963MOL0     H27102   6.350   5.130   2.344 -0.7548 -0.1180 -0.0566
  963MOL0     H27103   6.589   5.113   2.377 -1.0152  1.7635  1.0451
  963MOL0     H27104   7.033   5.300   2.256 -0.0662  0.5413 -0.5012
  963MOL0     H27105   7.273   5.295   2.238  2.3451 -1.1256 -3.4642
  963MOL0     H27106   7.506   5.175   2.329  1.3879  1.8123 -0.7319
  963MOL0     H27107   7.476   5.254   2.179  1.5053 -0.7297 -0.8643
  963MOL0     H27108   7.662   5.099   2.081 -2.8991 -0.1347 -0.0360
  963MOL0     H27109   7.720   5.184   2.220  3.6195 -3.8118  0.3410
  963MOL0     H27110   7.593   4.915   2.280  0.5874 -1.3022 -1.8875
  963MOL0     H27111   7.708   5.002   2.379  2.6038  0.0077 -0.3634
  963MOL0     H27112   7.780   4.801   2.208  0.7368 -0.2057  2.7978
  963MOL0     H27113   7.818   4.949   2.109 -0.6981  0.8096  0.8565
  963MOL0     H27114   8.080   5.015   2.436  0.1541 -0.4826  0.0402
  963MOL0     H27115   7.243   4.861   2.161 -0.6894  0.1954  0.7697
  963MOL0     H27116   7.010   4.882   2.158 -2.8428  1.2769  2.2494
  964MOL0     O27117   0.543   8.833  10.826  0.3399 -0.1803  0.1674
  964MOL0     C27118   0.547   8.757  10.729 -1.3109 -0.7196  0.8158
  964MOL0     O27119   0.573   8.799  10.602  0.0408  0.6843 -0.6964
  964MOL0     C27120   0.550   8.928  10.566  0.6846 -0.1852 -0.0648
  964MOL0     C27121   0.638   8.992  10.473 -0.3777 -1.2281 -0.0814
  964MOL0     C27122   0.626   9.128  10.438 -1.0005  0.0814  0.8157
  964MOL0     C27123   0.528   9.202  10.503 -0.2480  0.3314  0.3433
  964MOL0     O27124   0.508   9.342  10.477 -0.3620  0.1526  0.3123
  964MOL0     C27125   0.550   9.391  10.352  0.0640  0.0996 -0.1439
  964MOL0     C27126   0.481   9.522  10.335  0.4247 -0.3885  0.4007
  964MOL0     C27127   0.327   9.512  10.310  0.3244  0.3284 -0.4232
  964MOL0     C27128   0.273   9.661  10.290 -0.5120 -0.4227 -0.1566
  964MOL0     C27129   0.136   9.654  10.236  0.9382  0.3767 -0.3712
  964MOL0     C27130   0.056   9.781  10.227  0.3361  0.0573 -0.0320
  964MOL0     C27131  -0.077   9.761  10.154 -0.2214 -0.0702  0.1315
  964MOL0     C27132  -0.134   9.890  10.094 -0.2675 -0.3023 -0.5704
  964MOL0     N27133  -0.278   9.890  10.073  0.9572  0.0685  0.5530
  964MOL0     C27134  -0.350   9.947   9.963  0.2659 -0.0451  0.1342
  964MOL0     C27135  -0.475   9.913   9.985  0.0700  0.8527 -0.0715
  964MOL0     C27136  -0.575   9.952   9.881 -0.6201  0.2389  0.2354
  964MOL0     C27137  -0.710   9.947   9.941 -0.5932  0.3424 -0.7652
  964MOL0     C27138  -0.816   9.975   9.838  0.0566  0.0089  0.4439
  964MOL0     C27139  -0.943   9.952   9.891  0.4374  1.2180  0.0670
  964MOL0     O27140  -1.033   9.986   9.782  0.4157 -0.5101 -0.3982
  964MOL0     C27141  -1.170  10.009   9.805 -0.2285  0.1706  0.0453
  964MOL0     C27142  -1.234  10.007   9.932  0.0633 -0.8731 -0.9117
  964MOL0     C27143  -1.370  10.034   9.948 -0.8025 -0.5619 -0.2138
  964MOL0     C27144  -1.448  10.062   9.834  0.3094  0.2370  0.7405
  964MOL0     C27145  -1.592  10.095   9.840  0.3687  0.2089  0.3186
  964MOL0     O27146  -1.656  10.127   9.719  0.3794 -0.3227  0.3103
  964MOL0     C27147  -1.785  10.163   9.728  1.7971  0.3764  0.3361
  964MOL0     C27148  -1.840  10.271   9.801 -0.7873 -0.2553 -0.0763
  964MOL0     C27149  -1.976  10.299   9.806 -0.2904  0.4778 -0.1116
  964MOL0     C27150  -2.063  10.215   9.734 -1.0053  0.6501  0.0214
  964MOL0     O27151  -2.192  10.252   9.739  0.0312  1.0876 -0.0304
  964MOL0     C27152  -2.291  10.146   9.727  0.0435 -0.0451  0.6177
  964MOL0     C27153  -2.420  10.203   9.795 -0.0886  0.2090  0.2001
  964MOL0     C27154  -2.469  10.339   9.743  0.1535  0.2339 -0.6703
  964MOL0     C27155  -2.573  10.393   9.835  0.8902  0.0470  0.5158
  964MOL0     C27156  -2.645  10.518   9.771 -0.8052  0.0313 -0.3380
  964MOL0     C27157  -2.748  10.577   9.867 -0.0184 -0.3425 -0.0615
  964MOL0     C27158  -2.676  10.647   9.988  0.1620 -0.0678  0.0191
  964MOL0     C27159  -2.765  10.718  10.085  0.6673 -0.3040  0.0978
  964MOL0    Cl27160  -2.920  10.634  10.134  0.1505 -0.0067  0.6829
  964MOL0     C27161  -2.013  10.112   9.657  0.0613 -0.1056 -0.1972
  964MOL0     C27162  -1.876  10.083   9.652  0.7810 -0.5615 -0.4929
  964MOL0     O27163  -1.651  10.095   9.948 -0.1196  0.1654 -0.3340
  964MOL0     C27164  -1.384  10.079   9.708  0.1151 -0.1970 -0.1894
  964MOL0     C27165  -1.250  10.048   9.696 -0.1284  0.3424 -0.8657
  964MOL0     N27166  -0.482   9.852  10.109  0.4635 -0.1052  0.1186
  964MOL0     N27167  -0.363   9.836  10.160 -0.9396 -0.0950  0.1670
  964MOL0     C27168   0.448   9.153  10.597 -0.3634  1.0582 -0.3000
  964MOL0     C27169   0.449   9.012  10.626  1.0149  0.5188 -0.6953
  964MOL0     C27170   0.558   8.609  10.757  0.4214  0.4659 -1.0374
  964MOL0     C27171   0.528   8.554  10.891 -0.0155 -0.7088  0.2148
  964MOL0     C27172   0.555   8.420  10.917 -0.0626 -0.0340 -0.0565
  964MOL0     C27173   0.606   8.332  10.818 -0.6345 -0.0289 -0.1904
  964MOL0     O27174   0.649   8.217  10.863 -0.2079  0.6808 -0.8674
  964MOL0     C27175   0.729   8.120  10.787 -0.4921  0.2952 -0.1378
  964MOL0     C27176   0.643   8.015  10.700  0.1171 -0.3016  0.4352
  964MOL0     C27177   0.576   7.903  10.782 -0.1429 -0.4816  0.1052
  964MOL0     C27178   0.456   7.844  10.710 -0.6467 -1.5879 -1.1462
  964MOL0     C27179   0.485   7.746  10.607  0.3285  0.9974 -0.7727
  964MOL0     C27180   0.511   7.661  10.525  0.1678 -0.3187 -0.7584
  964MOL0     C27181   0.615   8.379  10.688 -0.4132  0.1960  0.8584
  964MOL0     C27182   0.591   8.520  10.653  0.5220  0.8051 -0.4954
  964MOL0     H27183   0.727   8.943  10.435 -0.0530 -0.6060 -0.1355
  964MOL0     H27184   0.685   9.179  10.362 -1.8368 -1.6464 -1.0684
  964MOL0     H27185   0.518   9.323  10.273  1.9227  1.1307 -1.8853
  964MOL0     H27186   0.659   9.386  10.345  0.2579  0.6538  1.7212
  964MOL0     H27187   0.516   9.576  10.246 -0.6536  0.7728  0.6487
  964MOL0     H27188   0.497   9.587  10.422 -0.5765  0.8937 -0.3311
  964MOL0     H27189   0.279   9.463  10.395 -0.9056  0.4603 -1.0299
  964MOL0     H27190   0.298   9.448  10.226 -2.0123  0.1843  0.4190
  964MOL0     H27191   0.260   9.717  10.383 -0.8377  1.1268 -1.1082
  964MOL0     H27192   0.338   9.723  10.228 -1.5882  2.0511  1.0408
  964MOL0     H27193   0.069   9.581  10.283  1.4159 -2.5587 -3.8095
  964MOL0     H27194   0.140   9.616  10.134 -0.9544 -1.6731  0.2357
  964MOL0     H27195   0.116   9.852  10.169  1.7690 -0.4225  0.8148
  964MOL0     H27196   0.034   9.828  10.323  1.6287 -0.9629  0.7883
  964MOL0     H27197  -0.063   9.689  10.072 -3.9868 -2.3860  1.2728
  964MOL0     H27198  -0.149   9.714  10.221  0.4806 -0.3896  0.6733
  964MOL0     H27199  -0.073   9.914  10.007 -0.2222 -3.1315 -1.4198
  964MOL0     H27200  -0.116   9.977  10.158 -0.1665  0.6423 -1.8494
  964MOL0     H27201  -0.312   9.998   9.875 -1.3271 -0.1361 -0.6425
  964MOL0     H27202  -0.572   9.882   9.798  0.4502  1.2906 -0.6546
  964MOL0     H27203  -0.557  10.053   9.843 -1.3019  0.9218  1.6454
  964MOL0     H27204  -0.713  10.022  10.020  2.4365  1.9758 -2.0200
  964MOL0     H27205  -0.731   9.846   9.977  0.8392  0.0347 -0.7023
  964MOL0     H27206  -0.805  10.082   9.819 -2.8570 -0.0009 -1.9807
  964MOL0     H27207  -0.795   9.913   9.750  0.7250 -3.1189  2.6240
  964MOL0     H27208  -0.951  10.007   9.986  1.7014  2.3580 -0.4432
  964MOL0     H27209  -0.967   9.847   9.908 -2.3052  1.5332 -1.2445
  964MOL0     H27210  -1.188   9.990  10.028 -0.6320  0.7433 -0.2598
  964MOL0     H27211  -1.416  10.040  10.046  0.0862 -0.4352  0.2079
  964MOL0     H27212  -1.768  10.317   9.867  1.4192 -0.5451 -2.1765
  964MOL0     H27213  -2.017  10.384   9.859  0.7237  0.4311  0.7891
  964MOL0     H27214  -2.266  10.052   9.776 -1.0292 -0.5833  0.1667
  964MOL0     H27215  -2.308  10.129   9.620  0.1851 -0.1175  0.6069
  964MOL0     H27216  -2.402  10.202   9.903  1.2746 -2.8177  0.0234
  964MOL0     H27217  -2.503  10.134   9.777  1.6677 -2.4106  1.6425
  964MOL0     H27218  -2.501  10.334   9.639 -0.3493  0.3342 -0.5261
  964MOL0     H27219  -2.381  10.404   9.753  0.9955 -1.0207  0.3217
  964MOL0     H27220  -2.647  10.317   9.861  0.2667  0.8648  1.2050
  964MOL0     H27221  -2.516  10.420   9.924 -0.3207 -0.5709  1.5124
  964MOL0     H27222  -2.698  10.492   9.679 -0.3879 -1.8179 -0.0782
  964MOL0     H27223  -2.568  10.590   9.742  0.0344 -0.6700  0.1333
  964MOL0     H27224  -2.814  10.501   9.909  0.9970  0.4428  3.3003
  964MOL0     H27225  -2.809  10.652   9.815  3.3872  2.0490 -0.9843
  964MOL0     H27226  -2.631  10.564  10.044 -1.8758  0.4875  2.6672
  964MOL0     H27227  -2.596  10.716   9.958  0.8693 -0.6741  0.4656
  964MOL0     H27228  -2.796  10.813  10.041 -1.5688 -0.5702  1.0123
  964MOL0     H27229  -2.703  10.735  10.173  0.5984 -0.0518  0.0999
  964MOL0     H27230  -2.088  10.052   9.607 -1.1475  0.8984  0.3803
  964MOL0     H27231  -1.859   9.990   9.599  1.6565 -0.3883 -0.5314
  964MOL0     H27232  -1.438  10.116   9.621 -3.3327 -0.3240  1.6937
  964MOL0     H27233  -1.207  10.054   9.597 -0.2398 -0.5528 -0.9706
  964MOL0     H27234   0.372   9.215  10.643 -1.9457 -0.3571 -0.8906
  964MOL0     H27235   0.377   8.963  10.691  0.5727  3.7321  1.4761
  964MOL0     H27236   0.493   8.623  10.967  0.4134  3.4801 -3.0423
  964MOL0     H27237   0.548   8.387  11.020 -2.1651 -3.2431 -1.0930
  964MOL0     H27238   0.799   8.068  10.854 -1.1809 -0.2881  0.1428
  964MOL0     H27239   0.795   8.176  10.720  0.8506 -1.5012 -0.4115
  964MOL0     H27240   0.567   8.075  10.650 -1.0841 -1.9116  0.2568
  964MOL0     H27241   0.715   7.967  10.633 -1.4817 -1.3824 -0.5671
  964MOL0     H27242   0.560   7.947  10.881  3.0627  0.9152  0.1206
  964MOL0     H27243   0.648   7.821  10.789 -0.6909 -0.9090  0.8604
  964MOL0     H27244   0.388   7.807  10.787 -0.7067  2.7247  1.2040
  964MOL0     H27245   0.389   7.917  10.664  0.9072  1.3637  0.9425
  964MOL0     H27246   0.523   7.600  10.437  0.2585  0.4724 -1.3056
  964MOL0     H27247   0.639   8.317  10.602  1.4371  3.4016 -1.1210
  964MOL0     H27248   0.605   8.552  10.550 -0.8600  1.1010 -0.6156
  965MOL0     O27249  10.670  10.817   2.156  0.0649  0.5010  0.0223
  965MOL0     C27250  10.587  10.911   2.157 -0.2251 -0.3029  0.7188
  965MOL0     O27251  10.605  11.035   2.090 -0.1350  0.6487 -0.0845
  965MOL0     C27252  10.725  11.073   2.031 -0.0562  0.0062 -0.4698
  965MOL0     C27253  10.832  11.102   2.110 -0.4532 -0.4405  0.0430
  965MOL0     C27254  10.949  11.155   2.057  0.1201  1.0150  0.1215
  965MOL0     C27255  10.953  11.185   1.921 -0.3260  0.4723  0.1646
  965MOL0     O27256  11.067  11.241   1.864 -0.3708  0.0756 -0.4406
  965MOL0     C27257  11.174  11.147   1.837  0.3741 -0.1700 -0.1849
  965MOL0     C27258  11.289  11.225   1.760  0.0327  0.5568 -0.5238
  965MOL0     C27259  11.341  11.142   1.639  0.5741  0.2549  0.1184
  965MOL0     C27260  11.450  11.210   1.563 -0.2062 -0.7395  0.1062
  965MOL0     C27261  11.523  11.108   1.473 -0.2665 -0.2025 -0.2844
  965MOL0     C27262  11.598  11.180   1.364 -0.5714 -0.4044  0.5800
  965MOL0     C27263  11.705  11.281   1.416 -0.8470 -1.0820 -0.2462
  965MOL0     C27264  11.758  11.380   1.320 -0.6157  0.3525 -0.7431
  965MOL0     N27265  11.801  11.307   1.198  0.2071 -0.3085  0.6736
  965MOL0     C27266  11.902  11.219   1.187 -0.4296  0.6146 -0.1732
  965MOL0     C27267  11.895  11.153   1.069 -0.5799  0.2640  0.8011
  965MOL0     C27268  11.976  11.030   1.023  0.0256  0.1730 -0.3046
  965MOL0     C27269  12.090  11.071   0.934  0.6833 -0.2725  0.0599
  965MOL0     C27270  12.047  11.085   0.789 -0.0668 -0.0808  1.3761
  965MOL0     C27271  12.167  11.120   0.693 -0.2487  0.6075  0.0837
  965MOL0     O27272  12.260  11.015   0.680 -0.8403  0.3487  0.2176
  965MOL0     C27273  12.255  10.936   0.566 -0.1795  0.2605 -0.0727
  965MOL0     C27274  12.385  10.884   0.546  0.4771 -0.1133 -0.0622
  965MOL0     C27275  12.406  10.806   0.434 -0.4367 -0.0113  0.6325
  965MOL0     C27276  12.306  10.778   0.347  0.3691  0.2496  0.1773
  965MOL0     C27277  12.335  10.703   0.219 -0.0464 -0.1147  0.1190
  965MOL0     O27278  12.474  10.699   0.196  0.2187 -0.3896  0.5558
  965MOL0     C27279  12.530  10.602   0.107 -0.4324  0.2949 -0.4854
  965MOL0     C27280  12.469  10.480   0.065  0.6897 -0.5395 -0.1530
  965MOL0     C27281  12.539  10.393  -0.019  0.7614 -0.7505 -0.2358
  965MOL0     C27282  12.675  10.420  -0.058 -0.2910  0.2854 -0.3531
  965MOL0     O27283  12.760  10.336  -0.133  0.5886  0.1008 -0.1773
  965MOL0     C27284  12.705  10.212  -0.191 -0.4696 -0.1535 -0.1173
  965MOL0     C27285  12.813  10.159  -0.275 -1.0894  0.5527  0.6152
  965MOL0     C27286  12.869  10.252  -0.387 -0.3909  0.2756 -0.2343
  965MOL0     C27287  12.958  10.177  -0.493 -0.5901  0.0226 -0.0587
  965MOL0     C27288  13.029  10.275  -0.583 -0.4170 -0.4485  0.3952
  965MOL0     C27289  13.147  10.352  -0.515 -0.6000 -0.2239  0.1037
  965MOL0     C27290  13.284  10.311  -0.561 -0.8553  0.0854 -0.0019
  965MOL0     C27291  13.383  10.427  -0.526  0.8096 -0.0728  0.1361
  965MOL0    Cl27292  13.546  10.410  -0.592  0.0189  0.3613 -0.1455
  965MOL0     C27293  12.729  10.539  -0.018  0.1393  0.3947 -0.1855
  965MOL0     C27294  12.658  10.628   0.061 -0.4024  0.6419  1.2761
  965MOL0     O27295  12.244  10.655   0.140 -0.6907  0.4348  0.4658
  965MOL0     C27296  12.187  10.846   0.353 -0.5730  1.0161  0.6244
  965MOL0     C27297  12.158  10.928   0.463 -0.5784  0.5121 -1.4136
  965MOL0     N27298  11.783  11.206   1.012  0.1920 -0.1924 -0.0844
  965MOL0     N27299  11.730  11.291   1.087  0.5916  0.3436 -0.4398
  965MOL0     C27300  10.840  11.152   1.842 -0.2050  0.0262 -0.3974
  965MOL0     C27301  10.719  11.103   1.895 -0.9800  0.2725  1.4433
  965MOL0     C27302  10.451  10.874   2.217  0.4992 -0.5199  0.6101
  965MOL0     C27303  10.349  10.973   2.241 -0.1022  0.8284 -0.3804
  965MOL0     C27304  10.230  10.937   2.299  0.2738  0.1077  0.3468
  965MOL0     C27305  10.206  10.798   2.344  0.2141 -0.2623 -0.3381
  965MOL0     O27306  10.094  10.748   2.408  0.1677 -0.1623  0.7683
  965MOL0     C27307   9.979  10.836   2.431 -0.0794 -0.4409  0.1576
  965MOL0     C27308   9.897  10.785   2.550 -0.0836 -0.9294 -0.4061
  965MOL0     C27309   9.760  10.857   2.576 -0.0300 -0.2911 -0.0111
  965MOL0     C27310   9.702  10.814   2.706 -0.2419  0.4060  0.6043
  965MOL0     C27311   9.769  10.894   2.810  0.2516 -0.1494 -0.0681
  965MOL0     C27312   9.828  10.962   2.890  0.6360  0.2868  0.0805
  965MOL0     C27313  10.304  10.706   2.326 -0.0418  0.4291  0.6007
  965MOL0     C27314  10.419  10.745   2.258  0.3691 -0.0691 -0.2914
  965MOL0     H27315  10.815  11.084   2.216 -0.3471 -1.3000 -0.0805
  965MOL0     H27316  11.036  11.179   2.118 -0.0778 -1.8013  1.6454
  965MOL0     H27317  11.137  11.064   1.775  2.2025 -0.0239 -1.5883
  965MOL0     H27318  11.220  11.105   1.927  0.8446  0.1391 -0.2743
  965MOL0     H27319  11.368  11.230   1.835 -0.3072  2.3350 -0.2490
  965MOL0     H27320  11.251  11.321   1.723 -1.4674  0.3309  0.3348
  965MOL0     H27321  11.256  11.133   1.570  0.8017  1.7662 -0.3871
  965MOL0     H27322  11.378  11.044   1.672 -0.3292  0.1474  0.8610
  965MOL0     H27323  11.404  11.282   1.495  2.8029  0.3769 -0.9089
  965MOL0     H27324  11.524  11.254   1.631  0.8305 -0.8315 -0.9420
  965MOL0     H27325  11.453  11.038   1.426 -0.4136 -1.4516  1.6999
  965MOL0     H27326  11.594  11.057   1.539 -0.2021  3.3126  2.6721
  965MOL0     H27327  11.534  11.244   1.303 -1.5238 -1.7772  0.1096
  965MOL0     H27328  11.645  11.107   1.298  0.3766  1.0977 -0.4672
  965MOL0     H27329  11.667  11.347   1.494  1.1391 -2.1709  1.7544
  965MOL0     H27330  11.786  11.230   1.469 -1.1338  2.0522  3.6893
  965MOL0     H27331  11.843  11.437   1.356  0.2488 -1.2300 -0.1996
  965MOL0     H27332  11.684  11.454   1.286  1.7502  2.4647 -1.6183
  965MOL0     H27333  11.979  11.211   1.264  0.3233  1.6628 -0.7915
  965MOL0     H27334  11.919  10.951   0.973  1.7955  0.1526 -2.4277
  965MOL0     H27335  12.023  10.981   1.109 -0.4249 -1.4582 -0.9519
  965MOL0     H27336  12.169  10.996   0.941 -0.6979 -1.7247  0.7575
  965MOL0     H27337  12.125  11.170   0.965 -0.9831  0.7761 -1.2242
  965MOL0     H27338  12.016  10.988   0.748  0.0790  1.2837 -2.2513
  965MOL0     H27339  11.974  11.164   0.773  2.4623  1.8348 -1.8422
  965MOL0     H27340  12.210  11.209   0.741  3.3589  0.1677 -1.9952
  965MOL0     H27341  12.125  11.150   0.596 -1.3995 -3.0833 -0.7010
  965MOL0     H27342  12.467  10.889   0.617  2.2409 -0.6379 -1.9470
  965MOL0     H27343  12.508  10.770   0.439 -0.2066  0.6117  0.5618
  965MOL0     H27344  12.382  10.439   0.113  1.0181  0.3907  1.2952
  965MOL0     H27345  12.489  10.300  -0.045 -2.4387 -0.5456  3.9974
  965MOL0     H27346  12.618  10.236  -0.252 -1.1486 -2.8398 -0.3402
  965MOL0     H27347  12.686  10.143  -0.108 -1.9762  0.6583  0.2447
  965MOL0     H27348  12.789  10.070  -0.333  4.9651 -2.1433  1.4118
  965MOL0     H27349  12.893  10.132  -0.205 -0.7201  0.6950  0.2569
  965MOL0     H27350  12.922  10.336  -0.340 -0.7957  0.6590 -0.4536
  965MOL0     H27351  12.790  10.306  -0.441  1.4404  2.3300 -1.0148
  965MOL0     H27352  13.036  10.113  -0.451 -0.0902  0.3779 -0.4353
  965MOL0     H27353  12.882  10.123  -0.550 -2.7662  3.6759 -0.9658
  965MOL0     H27354  12.960  10.350  -0.623  1.0207  0.6809 -0.0635
  965MOL0     H27355  13.069  10.220  -0.670  1.5261  0.3375  0.7255
  965MOL0     H27356  13.135  10.350  -0.407  2.7981  2.0585  0.6683
  965MOL0     H27357  13.125  10.457  -0.537  1.0283  0.5243  1.7959
  965MOL0     H27358  13.311  10.219  -0.509 -1.3578  0.1632  0.4002
  965MOL0     H27359  13.273  10.286  -0.667 -3.0497 -1.4321  0.5311
  965MOL0     H27360  13.383  10.438  -0.418 -0.0026  3.2392 -0.0849
  965MOL0     H27361  13.341  10.521  -0.565  0.4289 -0.4594 -0.4191
  965MOL0     H27362  12.824  10.571  -0.061 -0.0062 -0.7773 -1.4622
  965MOL0     H27363  12.697  10.723   0.096 -0.7403  0.1523  3.1014
  965MOL0     H27364  12.110  10.840   0.277  0.1603 -1.1593 -0.0310
  965MOL0     H27365  12.068  10.987   0.474 -0.5312  0.2545  0.8643
  965MOL0     H27366  10.838  11.164   1.734 -3.2023 -0.3640 -0.4554
  965MOL0     H27367  10.636  11.078   1.830  0.2330  1.9941 -0.9105
  965MOL0     H27368  10.368  11.075   2.212  0.2211  0.4807 -1.4361
  965MOL0     H27369  10.145  11.004   2.298 -2.2554 -2.7806 -2.4218
  965MOL0     H27370   9.906  10.850   2.351 -1.2531 -0.6495  1.1620
  965MOL0     H27371  10.006  10.940   2.452 -4.1956  1.0402 -0.8510
  965MOL0     H27372   9.877  10.678   2.538 -0.3084 -1.0753  1.0591
  965MOL0     H27373   9.958  10.803   2.638  2.3088  1.1492 -2.3247
  965MOL0     H27374   9.694  10.820   2.498 -0.7229  1.0091 -0.0762
  965MOL0     H27375   9.770  10.966   2.575  0.7775 -0.3187 -3.1649
  965MOL0     H27376   9.594  10.823   2.720 -0.8628 -1.0547 -2.5070
  965MOL0     H27377   9.727  10.708   2.712 -0.4701  0.2472 -0.8610
  965MOL0     H27378   9.887  11.021   2.958  1.1182 -0.8301  0.6712
  965MOL0     H27379  10.287  10.602   2.351  2.9632 -1.0810 -2.7542
  965MOL0     H27380  10.487  10.661   2.244 -2.0225 -1.7896 -2.7643
  966MOL0     O27381   1.818   9.683   6.430  0.1769 -0.4408  0.0455
  966MOL0     C27382   1.866   9.614   6.336 -0.4988 -0.2433 -0.0583
  966MOL0     O27383   1.798   9.536   6.247  0.4063  0.2343  0.4198
  966MOL0     C27384   1.664   9.540   6.237  0.0520 -0.0161  0.6097
  966MOL0     C27385   1.592   9.664   6.230  0.4047 -0.5828 -0.3863
  966MOL0     C27386   1.448   9.662   6.228  0.0717 -0.4340 -0.1319
  966MOL0     C27387   1.382   9.537   6.234 -0.0561  0.4291  0.3919
  966MOL0     O27388   1.249   9.521   6.212  0.3818  0.7389  0.3963
  966MOL0     C27389   1.185   9.440   6.316 -0.2589  0.4912  0.2149
  966MOL0     C27390   1.070   9.504   6.382 -0.4409 -0.6068  0.5788
  966MOL0     C27391   1.004   9.435   6.501  0.1313  0.2962  0.3910
  966MOL0     C27392   0.957   9.286   6.465  0.5298 -0.0045  0.7346
  966MOL0     C27393   0.864   9.239   6.589 -0.1963 -0.1001  0.0240
  966MOL0     C27394   0.727   9.298   6.580 -0.2894  0.8831  1.0141
  966MOL0     C27395   0.632   9.227   6.680  0.1639  0.4155  1.0173
  966MOL0     C27396   0.662   9.213   6.829 -0.5099 -0.2837  0.1379
  966MOL0     N27397   0.568   9.122   6.897 -0.1771 -0.2510  0.4452
  966MOL0     C27398   0.427   9.134   6.907 -0.3059 -0.2576 -0.7045
  966MOL0     C27399   0.397   9.020   6.974 -0.0329  0.0471 -0.3565
  966MOL0     C27400   0.265   8.986   7.035  0.5500 -0.0335  0.5329
  966MOL0     C27401   0.161   9.007   6.923  0.5423  0.3448 -0.2389
  966MOL0     C27402   0.019   8.960   6.975 -0.7160  0.0990  0.9585
  966MOL0     C27403  -0.032   9.023   7.104  1.2086 -0.4518 -0.3896
  966MOL0     O27404  -0.162   9.084   7.079 -0.4168 -0.3612  0.3901
  966MOL0     C27405  -0.272   9.011   7.079 -0.3041 -0.7332  0.0935
  966MOL0     C27406  -0.391   9.091   7.058  0.0589  0.0825  0.2225
  966MOL0     C27407  -0.515   9.039   7.055  0.1597  0.3488  0.3444
  966MOL0     C27408  -0.532   8.898   7.056  0.5125 -0.3092  0.2772
  966MOL0     C27409  -0.670   8.844   7.050  0.3296  0.0957 -0.4847
  966MOL0     O27410  -0.760   8.911   7.121  0.0441  0.3246  0.5404
  966MOL0     C27411  -0.891   8.885   7.122  0.1023 -0.5443 -0.2655
  966MOL0     C27412  -0.963   8.924   7.240 -0.0511  0.6692 -0.3858
  966MOL0     C27413  -1.092   8.895   7.258 -0.4000 -0.6093 -0.1612
  966MOL0     C27414  -1.168   8.833   7.158  0.5055 -0.4333 -0.0279
  966MOL0     O27415  -1.300   8.790   7.167  0.0018  0.3095  0.0097
  966MOL0     C27416  -1.398   8.886   7.141  0.1454  0.4293  0.6034
  966MOL0     C27417  -1.449   8.947   7.270 -0.2567 -1.0116 -0.1515
  966MOL0     C27418  -1.581   8.899   7.315 -0.5563  0.0181 -0.0613
  966MOL0     C27419  -1.593   8.751   7.324 -0.4157 -0.3772  0.1826
  966MOL0     C27420  -1.715   8.716   7.408  0.5844  0.4060  0.1613
  966MOL0     C27421  -1.775   8.583   7.374 -0.6642  0.1818  0.6498
  966MOL0     C27422  -1.864   8.545   7.494 -0.1850  1.4332  0.2840
  966MOL0     C27423  -1.932   8.406   7.490  0.3292  0.7365  0.0454
  966MOL0    Cl27424  -1.860   8.285   7.381 -0.1492 -0.1611 -0.1093
  966MOL0     C27425  -1.103   8.810   7.038 -0.4140  0.4586 -0.3738
  966MOL0     C27426  -0.973   8.830   7.017  0.4962  0.1174 -0.6194
  966MOL0     O27427  -0.683   8.725   7.010 -0.1411 -0.3525  0.3523
  966MOL0     C27428  -0.413   8.817   7.086  1.0773  0.5641 -0.8154
  966MOL0     C27429  -0.288   8.873   7.104 -0.8258 -0.1293 -1.1815
  966MOL0     N27430   0.507   8.931   6.977  0.3822 -0.1367  0.6560
  966MOL0     N27431   0.613   8.999   6.935  0.7263  0.5542  0.4709
  966MOL0     C27432   1.454   9.418   6.245  0.1704  0.3255 -0.3650
  966MOL0     C27433   1.598   9.417   6.248  0.1316 -0.0056  0.1718
  966MOL0     C27434   2.008   9.613   6.316 -0.4097 -1.2051  0.4437
  966MOL0     C27435   2.069   9.522   6.230 -0.3401 -0.6817  0.4342
  966MOL0     C27436   2.204   9.526   6.213  0.4050 -0.4691 -0.6863
  966MOL0     C27437   2.283   9.616   6.280  0.0815 -0.2255 -0.4588
  966MOL0     O27438   2.420   9.621   6.250 -0.1696  0.1759  0.2133
  966MOL0     C27439   2.502   9.533   6.322  1.0101  0.1853  0.1235
  966MOL0     C27440   2.587   9.467   6.212  0.6436  0.1459 -0.0757
  966MOL0     C27441   2.679   9.368   6.279  0.1052  0.2121  0.9539
  966MOL0     C27442   2.735   9.260   6.179  0.5409  0.0914 -0.2425
  966MOL0     C27443   2.813   9.181   6.267 -0.3859  0.3616  0.4587
  966MOL0     C27444   2.888   9.125   6.341  0.1724  0.4971 -0.6750
  966MOL0     C27445   2.228   9.709   6.362  0.7779  0.6631  0.4731
  966MOL0     C27446   2.089   9.709   6.387  0.2572 -0.1517  0.4089
  966MOL0     H27447   1.644   9.760   6.232  0.1495 -0.4286 -0.8157
  966MOL0     H27448   1.395   9.755   6.213  1.5616  0.7686  1.7067
  966MOL0     H27449   1.258   9.419   6.396  1.0632 -0.0385 -1.0736
  966MOL0     H27450   1.154   9.345   6.272  2.2348 -0.0312 -0.6189
  966MOL0     H27451   0.995   9.527   6.306  1.1604 -0.2418 -0.9712
  966MOL0     H27452   1.099   9.605   6.412 -2.0198 -0.1374  0.5858
  966MOL0     H27453   0.922   9.506   6.516 -0.3046  0.2943 -1.7045
  966MOL0     H27454   1.059   9.418   6.594 -2.3209 -2.7951  1.4409
  966MOL0     H27455   0.916   9.269   6.365  1.8338 -0.4316  0.2499
  966MOL0     H27456   1.052   9.233   6.463  1.3074  1.1257  3.4001
  966MOL0     H27457   0.904   9.275   6.684  0.0731  1.5189 -0.6576
  966MOL0     H27458   0.848   9.131   6.579 -0.6890 -0.4362  3.5066
  966MOL0     H27459   0.675   9.305   6.484 -1.0863 -2.8601  1.0030
  966MOL0     H27460   0.720   9.399   6.621 -0.7782  0.6214  1.5877
  966MOL0     H27461   0.534   9.273   6.669  0.6745  1.7546  1.8600
  966MOL0     H27462   0.624   9.128   6.634 -0.5550 -0.1350  2.2939
  966MOL0     H27463   0.645   9.318   6.856  1.2668 -0.2837  1.3735
  966MOL0     H27464   0.763   9.177   6.850 -0.3207  1.2279  2.1623
  966MOL0     H27465   0.364   9.220   6.887 -0.7503 -0.4861 -0.3126
  966MOL0     H27466   0.256   9.057   7.118 -1.2511 -2.2630  2.3925
  966MOL0     H27467   0.271   8.883   7.074  0.2613 -0.7953 -1.3347
  966MOL0     H27468   0.182   8.934   6.844 -0.9248 -1.8551  1.2944
  966MOL0     H27469   0.156   9.110   6.887  1.8655  0.1465 -1.0480
  966MOL0     H27470  -0.043   8.993   6.891  0.9974  0.0476 -0.3784
  966MOL0     H27471   0.007   8.851   6.986 -1.3029 -0.0730 -1.0188
  966MOL0     H27472   0.028   9.098   7.158 -3.4261  1.9819  2.0053
  966MOL0     H27473  -0.025   8.948   7.183 -1.0686  0.8701  1.1965
  966MOL0     H27474  -0.384   9.198   7.048 -2.6742  0.3752  0.6659
  966MOL0     H27475  -0.601   9.104   7.045  0.0476  1.1249  4.3311
  966MOL0     H27476  -0.911   8.979   7.317 -0.1410  0.8059 -0.4224
  966MOL0     H27477  -1.147   8.910   7.351 -2.1030  2.4767 -1.5200
  966MOL0     H27478  -1.481   8.844   7.084  0.2907 -0.1385  0.7965
  966MOL0     H27479  -1.362   8.969   7.080 -2.4080  1.3595  0.2463
  966MOL0     H27480  -1.451   9.055   7.256 -1.9494 -1.1305 -1.0603
  966MOL0     H27481  -1.377   8.926   7.350 -0.7261 -1.2981  0.2028
  966MOL0     H27482  -1.662   8.948   7.258  0.2617 -0.2525 -1.5101
  966MOL0     H27483  -1.580   8.949   7.412  2.0779  1.5737 -0.8034
  966MOL0     H27484  -1.600   8.720   7.219 -3.1276  0.5106  0.0265
  966MOL0     H27485  -1.503   8.714   7.374 -3.0942 -2.8488  3.6732
  966MOL0     H27486  -1.794   8.789   7.387  0.2624  1.3486  3.9078
  966MOL0     H27487  -1.689   8.718   7.514  0.1439 -1.4752  0.3386
  966MOL0     H27488  -1.698   8.505   7.374 -1.8366 -1.0013  0.9446
  966MOL0     H27489  -1.824   8.585   7.276 -0.0419  1.8189  0.3311
  966MOL0     H27490  -1.814   8.547   7.591 -0.1643 -0.3055  0.3382
  966MOL0     H27491  -1.947   8.616   7.488  1.8794  3.8850 -1.1072
  966MOL0     H27492  -2.036   8.420   7.458 -0.1788  3.6733  2.5360
  966MOL0     H27493  -1.945   8.374   7.594 -2.7734 -1.3587 -0.8298
  966MOL0     H27494  -1.160   8.759   6.960  1.5164  0.7118 -2.0445
  966MOL0     H27495  -0.940   8.813   6.915  0.4279 -1.1129 -0.4576
  966MOL0     H27496  -0.425   8.710   7.094 -0.6389  0.7962  0.3818
  966MOL0     H27497  -0.202   8.806   7.101 -1.1826 -0.5484 -2.3950
  966MOL0     H27498   1.409   9.320   6.243  0.7210  0.0643 -0.2423
  966MOL0     H27499   1.652   9.326   6.269 -1.9025 -1.4950 -0.7343
  966MOL0     H27500   2.015   9.447   6.174  0.9629 -1.4140  0.1364
  966MOL0     H27501   2.241   9.434   6.169 -0.2542 -1.0416 -0.0613
  966MOL0     H27502   2.448   9.465   6.388  1.5258  1.1351  1.5678
  966MOL0     H27503   2.570   9.595   6.381  2.8582 -0.9508 -0.7300
  966MOL0     H27504   2.525   9.408   6.144  1.3353 -1.3424  0.5445
  966MOL0     H27505   2.646   9.539   6.154  0.0078  0.2218 -0.6371
  966MOL0     H27506   2.635   9.319   6.366 -0.5305 -1.2800 -0.1556
  966MOL0     H27507   2.767   9.425   6.310  1.7036 -1.4825 -0.2688
  966MOL0     H27508   2.650   9.207   6.135 -0.6905 -0.3355  2.4230
  966MOL0     H27509   2.797   9.305   6.101  0.0168 -1.9148 -1.9071
  966MOL0     H27510   2.964   9.085   6.404 -0.8658 -0.0256  0.2896
  966MOL0     H27511   2.295   9.782   6.408  0.5942  0.6416  0.7785
  966MOL0     H27512   2.051   9.791   6.447 -1.5526  0.6589 -1.7073
  967MOL0     O27513   6.992   6.022   9.773 -0.2797  0.4542  0.4869
  967MOL0     C27514   7.052   5.933   9.836 -0.1673 -0.0390 -0.0777
  967MOL0     O27515   7.020   5.895   9.959  0.1370  0.2424  0.2997
  967MOL0     C27516   6.910   5.947  10.016  1.0373  0.3088 -0.1304
  967MOL0     C27517   6.892   6.071  10.072  0.7154 -0.1593 -0.2200
  967MOL0     C27518   6.761   6.107  10.125  0.3866  0.7551 -0.1166
  967MOL0     C27519   6.652   6.024  10.097  0.9101 -0.2202 -0.7563
  967MOL0     O27520   6.526   6.064  10.135 -0.7907 -0.4706 -0.6504
  967MOL0     C27521   6.421   6.000  10.073  0.7038  0.3354 -0.2534
  967MOL0     C27522   6.294   6.094  10.087 -0.0906 -0.7664  0.6478
  967MOL0     C27523   6.166   6.023  10.048  0.5127  0.2567 -0.3535
  967MOL0     C27524   6.112   5.946  10.170 -0.4586 -0.3248 -0.4825
  967MOL0     C27525   6.001   5.855  10.119  0.7865  0.1420  0.2175
  967MOL0     C27526   5.911   5.822  10.231  0.3160 -0.0379  0.2323
  967MOL0     C27527   5.780   5.753  10.193  0.0521 -0.2317 -0.4189
  967MOL0     C27528   5.797   5.637  10.094  0.0561 -0.9199  0.2875
  967MOL0     N27529   5.669   5.568  10.065  0.9060 -0.1612 -0.2322
  967MOL0     C27530   5.583   5.507  10.152  0.2577 -0.5260 -0.2831
  967MOL0     C27531   5.459   5.499  10.093 -0.2920  0.2388  0.4491
  967MOL0     C27532   5.339   5.425  10.143 -0.3090  0.2520  0.1269
  967MOL0     C27533   5.353   5.278  10.103 -0.7645  0.1491  0.2993
  967MOL0     C27534   5.367   5.240   9.956  0.4345 -0.5505  0.2216
  967MOL0     C27535   5.347   5.092   9.933  0.1434 -0.2618 -0.7187
  967MOL0     O27536   5.460   5.048   9.850  0.3841 -0.2222 -0.1714
  967MOL0     C27537   5.478   4.917   9.825  0.3964  1.3202 -0.0859
  967MOL0     C27538   5.567   4.879   9.719  0.2448  0.8092 -0.4291
  967MOL0     C27539   5.595   4.749   9.679 -0.3751  0.3151 -0.6361
  967MOL0     C27540   5.521   4.641   9.744  0.1015  0.3520 -0.4412
  967MOL0     C27541   5.558   4.499   9.715 -0.0838 -0.1542  0.7328
  967MOL0     O27542   5.649   4.471   9.608 -0.1578 -0.9360 -0.0510
  967MOL0     C27543   5.636   4.354   9.534  0.0265  0.0746 -1.2374
  967MOL0     C27544   5.522   4.290   9.487  0.3783  0.3012 -0.4755
  967MOL0     C27545   5.524   4.183   9.394 -0.3747 -0.2104  0.1530
  967MOL0     C27546   5.649   4.138   9.350  0.8708 -0.1054  0.0688
  967MOL0     O27547   5.642   4.012   9.283  0.0531  0.5083 -0.1485
  967MOL0     C27548   5.734   3.983   9.178  0.1679 -0.0012 -0.3180
  967MOL0     C27549   5.666   3.878   9.096 -0.3003  0.1973  0.1231
  967MOL0     C27550   5.750   3.809   8.987 -0.0881  0.1386 -0.5634
  967MOL0     C27551   5.666   3.703   8.915  0.4798 -0.2510  0.1808
  967MOL0     C27552   5.722   3.669   8.783  0.7000  0.7656 -0.0428
  967MOL0     C27553   5.859   3.599   8.787  1.1971 -0.3020 -0.2545
  967MOL0     C27554   5.925   3.575   8.651 -0.1910  0.3786 -0.0307
  967MOL0     C27555   6.064   3.507   8.658 -0.1195  0.6696 -0.8320
  967MOL0    Cl27556   6.061   3.353   8.749 -0.0284  0.2015 -0.5664
  967MOL0     C27557   5.764   4.210   9.388  0.6909 -0.5040 -0.4634
  967MOL0     C27558   5.755   4.322   9.477 -0.1117  1.4923  0.0455
  967MOL0     O27559   5.479   4.418   9.773 -0.7708  0.0634 -0.3250
  967MOL0     C27560   5.430   4.682   9.847  0.9721  1.1354  0.0673
  967MOL0     C27561   5.406   4.815   9.880  0.1392  0.1978 -0.6200
  967MOL0     N27562   5.471   5.550   9.964 -0.7582  0.3160  0.5386
  967MOL0     N27563   5.599   5.584   9.956  0.7452 -0.4194  0.5121
  967MOL0     C27564   6.675   5.898  10.044  0.6517 -0.1343 -0.5521
  967MOL0     C27565   6.797   5.859  10.003 -0.1316 -0.1947 -0.1372
  967MOL0     C27566   7.170   5.867   9.775 -0.4078 -0.5403 -0.3433
  967MOL0     C27567   7.224   5.747   9.829 -0.1942 -0.1136 -0.1654
  967MOL0     C27568   7.322   5.677   9.758 -0.5810 -0.0030  0.0245
  967MOL0     C27569   7.375   5.738   9.641 -0.4042 -0.0165 -0.2184
  967MOL0     O27570   7.471   5.665   9.588  0.1547 -1.0262 -0.2066
  967MOL0     C27571   7.559   5.727   9.498 -0.6600 -0.1253  0.3453
  967MOL0     C27572   7.678   5.625   9.482  0.3295  0.1145 -0.4755
  967MOL0     C27573   7.814   5.690   9.448 -0.1779  0.6310 -0.6239
  967MOL0     C27574   7.915   5.579   9.422  0.0888 -0.0301 -0.4710
  967MOL0     C27575   8.046   5.631   9.433  0.2949 -0.2823 -0.2572
  967MOL0     C27576   8.162   5.679   9.448  1.0692 -0.0091  0.4351
  967MOL0     C27577   7.327   5.859   9.596  0.5591  0.9005  0.3912
  967MOL0     C27578   7.224   5.922   9.661 -0.1723 -0.2937 -1.0157
  967MOL0     H27579   6.981   6.131  10.084  2.2337 -2.4604  0.7967
  967MOL0     H27580   6.743   6.200  10.178 -0.4339  0.5793 -0.0833
  967MOL0     H27581   6.401   5.902  10.118 -0.2219 -0.1043 -1.5907
  967MOL0     H27582   6.439   5.976   9.968  2.0507 -3.0912  0.6257
  967MOL0     H27583   6.305   6.188  10.033 -0.6276 -1.1905 -0.2116
  967MOL0     H27584   6.290   6.131  10.190 -0.2149 -0.7126  0.6237
  967MOL0     H27585   6.196   5.959   9.964 -1.5527 -0.6256 -0.4723
  967MOL0     H27586   6.086   6.090  10.016 -1.3133 -0.8535  1.5746
  967MOL0     H27587   6.202   5.896  10.207 -0.8911  1.0936  2.8432
  967MOL0     H27588   6.077   6.021  10.241 -1.2486 -1.4197  0.3193
  967MOL0     H27589   6.041   5.762  10.078  2.0646  0.1614  1.3624
  967MOL0     H27590   5.945   5.911  10.043  0.0854  0.0310  0.6437
  967MOL0     H27591   5.882   5.913  10.285 -2.5173 -0.2257 -0.8028
  967MOL0     H27592   5.973   5.770  10.304  1.8273  3.0974  1.3758
  967MOL0     H27593   5.722   5.716  10.279 -1.1839 -1.2256 -1.6367
  967MOL0     H27594   5.705   5.821  10.152 -1.0237 -1.2997 -0.2688
  967MOL0     H27595   5.877   5.571  10.129  0.2323 -1.6999 -1.4919
  967MOL0     H27596   5.837   5.681  10.002 -2.6021  0.7403 -0.1809
  967MOL0     H27597   5.617   5.481  10.252 -2.1500 -0.4016  0.6181
  967MOL0     H27598   5.249   5.469  10.100 -1.4249 -2.6720 -0.7750
  967MOL0     H27599   5.338   5.437  10.251  2.0897  0.1637  0.2058
  967MOL0     H27600   5.269   5.215  10.136  0.4868 -1.4757  0.5048
  967MOL0     H27601   5.436   5.244  10.164 -1.2210 -0.4266  0.6143
  967MOL0     H27602   5.286   5.294   9.907 -0.4752 -1.1593  1.0056
  967MOL0     H27603   5.460   5.277   9.911  0.1705  0.4701  0.4866
  967MOL0     H27604   5.248   5.068   9.893  0.2858 -0.7979 -0.7551
  967MOL0     H27605   5.355   5.037  10.027  1.3621  0.7016 -0.2378
  967MOL0     H27606   5.615   4.964   9.672  1.1999  0.2557 -0.4759
  967MOL0     H27607   5.641   4.725   9.584 -3.1933 -1.4711 -1.6860
  967MOL0     H27608   5.427   4.312   9.534  0.4670 -1.1386  0.4235
  967MOL0     H27609   5.445   4.115   9.367 -0.4005  0.5766 -1.9652
  967MOL0     H27610   5.828   3.951   9.222 -0.4412 -1.7496 -0.2176
  967MOL0     H27611   5.747   4.070   9.113  0.8932 -2.2105 -3.3606
  967MOL0     H27612   5.578   3.927   9.054 -0.6086 -1.3223 -1.0996
  967MOL0     H27613   5.620   3.795   9.151 -0.5279  1.0024  1.1704
  967MOL0     H27614   5.839   3.754   9.018  0.1484 -0.8837 -2.8338
  967MOL0     H27615   5.783   3.884   8.914 -0.6062  0.1281 -0.8141
  967MOL0     H27616   5.649   3.614   8.977  1.1518  0.6421  1.6917
  967MOL0     H27617   5.566   3.740   8.893  0.1153 -0.6357  1.1315
  967MOL0     H27618   5.721   3.761   8.724 -1.5632  0.8414  0.0356
  967MOL0     H27619   5.648   3.600   8.742 -0.1015  1.3265  0.4111
  967MOL0     H27620   5.866   3.505   8.843  2.0571 -0.7172 -1.0223
  967MOL0     H27621   5.928   3.668   8.837 -2.0987  1.2246  2.5591
  967MOL0     H27622   5.864   3.512   8.586  2.4252 -0.6611 -1.6414
  967MOL0     H27623   5.941   3.672   8.604 -0.2567  0.3797 -0.0498
  967MOL0     H27624   6.133   3.574   8.711  0.9080  0.4249 -1.8372
  967MOL0     H27625   6.102   3.497   8.557 -0.4192 -0.8422 -0.8064
  967MOL0     H27626   5.864   4.189   9.352  0.8036  2.7051 -2.4038
  967MOL0     H27627   5.841   4.385   9.497  1.2524  0.4348 -2.1621
  967MOL0     H27628   5.360   4.606   9.882  1.6085  0.3844 -0.2496
  967MOL0     H27629   5.321   4.829   9.946  0.6852 -0.2573  0.1923
  967MOL0     H27630   6.593   5.826  10.041 -0.5342  1.2083 -2.1940
  967MOL0     H27631   6.809   5.762   9.956  2.5298 -1.0424  2.0529
  967MOL0     H27632   7.179   5.699   9.915 -3.1559  0.6458 -1.1920
  967MOL0     H27633   7.350   5.580   9.798 -0.2053  0.8965  2.0530
  967MOL0     H27634   7.598   5.818   9.543  1.7714 -0.6768 -0.5113
  967MOL0     H27635   7.512   5.740   9.400 -0.0878 -0.0774  0.0749
  967MOL0     H27636   7.692   5.566   9.573  1.3880  0.5305 -0.3552
  967MOL0     H27637   7.647   5.556   9.403  0.8495 -0.5211 -0.1420
  967MOL0     H27638   7.843   5.750   9.535  0.2064  0.3356 -0.5521
  967MOL0     H27639   7.790   5.744   9.356  2.6860  0.2689 -1.6755
  967MOL0     H27640   7.898   5.501   9.497  2.7744  0.5907  0.9151
  967MOL0     H27641   7.892   5.538   9.324 -0.0794  2.1773 -1.4132
  967MOL0     H27642   8.256   5.721   9.478  1.0262 -1.1857  2.4223
  967MOL0     H27643   7.360   5.899   9.501 -1.4640  1.2976 -0.1819
  967MOL0     H27644   7.193   6.017   9.618 -0.1857  0.8244  1.3111
  968MOL0     O27645  10.455   5.396   0.696 -0.1834 -0.5221  0.2028
  968MOL0     C27646  10.462   5.518   0.676  0.7278  0.1982  1.4164
  968MOL0     O27647  10.357   5.606   0.678  0.0797  0.3190  0.1910
  968MOL0     C27648  10.230   5.567   0.706  1.3590  0.0872 -0.7243
  968MOL0     C27649  10.131   5.616   0.623  0.1078  0.4541  0.2078
  968MOL0     C27650   9.996   5.592   0.637  0.5704 -0.3316  0.5887
  968MOL0     C27651   9.962   5.514   0.742 -0.2553  0.2515 -0.8220
  968MOL0     O27652   9.824   5.494   0.749 -0.3363 -0.0625  0.3592
  968MOL0     C27653   9.765   5.398   0.833 -0.3384 -0.8527 -0.4730
  968MOL0     C27654   9.619   5.379   0.815 -0.4531  0.2550  0.0318
  968MOL0     C27655   9.574   5.353   0.675 -0.1261 -0.2601  0.0065
  968MOL0     C27656   9.423   5.342   0.671  0.2561  0.6746 -0.3224
  968MOL0     C27657   9.368   5.310   0.536 -0.4503  0.3397 -0.3136
  968MOL0     C27658   9.218   5.358   0.525 -0.4262 -0.1620 -0.4002
  968MOL0     C27659   9.163   5.309   0.388  0.0791 -0.7060  0.4020
  968MOL0     C27660   9.013   5.330   0.371  0.2398 -0.3488 -0.3835
  968MOL0     N27661   8.945   5.218   0.309  0.5525  0.7119  0.4579
  968MOL0     C27662   8.930   5.090   0.350 -0.5474  0.1415 -0.1907
  968MOL0     C27663   8.868   5.019   0.252 -0.8623  1.0999  0.0136
  968MOL0     C27664   8.839   4.870   0.268  0.3439 -0.7048 -0.5693
  968MOL0     C27665   8.707   4.854   0.351  0.5986  0.0244  0.6728
  968MOL0     C27666   8.662   4.705   0.366  0.5690  0.1570 -0.6703
  968MOL0     C27667   8.517   4.699   0.418  0.2428  0.9886 -0.2464
  968MOL0     O27668   8.472   4.555   0.438 -0.8096 -0.1971 -0.1087
  968MOL0     C27669   8.353   4.526   0.508 -1.1345  0.0067  0.0998
  968MOL0     C27670   8.353   4.387   0.542 -1.6718  0.1043 -0.1848
  968MOL0     C27671   8.244   4.343   0.619  0.3542 -0.5091  0.5464
  968MOL0     C27672   8.146   4.434   0.665 -0.7419 -0.0142  0.1517
  968MOL0     C27673   8.028   4.384   0.741  0.4068  0.1813  0.3569
  968MOL0     O27674   7.946   4.479   0.788  0.7639 -0.4569 -0.3320
  968MOL0     C27675   7.817   4.438   0.806  0.2024 -0.0657  1.0317
  968MOL0     C27676   7.785   4.362   0.914  0.9931  0.1793  0.4461
  968MOL0     C27677   7.643   4.334   0.945 -0.1727 -0.4163  0.2818
  968MOL0     C27678   7.545   4.379   0.854 -0.0330 -0.2758 -0.1540
  968MOL0     O27679   7.411   4.386   0.889 -0.0545 -1.1264  0.1790
  968MOL0     C27680   7.333   4.499   0.852  0.2762 -0.1395 -0.0508
  968MOL0     C27681   7.264   4.470   0.715  0.4843  0.6763  0.3987
  968MOL0     C27682   7.132   4.396   0.724  0.2503 -0.3018  0.3807
  968MOL0     C27683   7.019   4.494   0.758  0.1194  0.2168  0.1434
  968MOL0     C27684   6.892   4.408   0.762  0.5741  0.1836  0.4172
  968MOL0     C27685   6.768   4.502   0.752 -0.9494  0.0050 -0.1282
  968MOL0     C27686   6.636   4.427   0.774  1.1173  0.3620  0.9653
  968MOL0     C27687   6.527   4.464   0.672 -0.0351  0.1245 -0.5493
  968MOL0    Cl27688   6.585   4.418   0.508  0.2203  0.3898 -0.4849
  968MOL0     C27689   7.592   4.451   0.739  0.7235  0.2337  0.9140
  968MOL0     C27690   7.727   4.479   0.711 -0.5991  0.2096 -0.9083
  968MOL0     O27691   8.021   4.263   0.762  0.2690  0.7336 -0.4299
  968MOL0     C27692   8.151   4.567   0.618 -0.3695  0.5467 -0.0290
  968MOL0     C27693   8.254   4.614   0.544  0.2621 -0.7108  0.6855
  968MOL0     N27694   8.845   5.109   0.151  0.3633 -0.1350  0.5962
  968MOL0     N27695   8.888   5.225   0.190  0.5736  0.6327  0.3523
  968MOL0     C27696  10.055   5.454   0.833  0.2297 -0.8088 -0.1248
  968MOL0     C27697  10.184   5.490   0.809 -0.1787 -0.3408  0.0736
  968MOL0     C27698  10.597   5.570   0.627  0.0169 -0.2850  0.1669
  968MOL0     C27699  10.717   5.500   0.653  0.3844  0.1811 -0.4852
  968MOL0     C27700  10.832   5.560   0.617  0.9238 -0.4622  0.6876
  968MOL0     C27701  10.841   5.685   0.557  0.2486  0.4842 -0.0535
  968MOL0     O27702  10.959   5.747   0.548 -0.0371  0.0996 -0.1425
  968MOL0     C27703  11.083   5.679   0.575  0.3254  0.1879 -0.5857
  968MOL0     C27704  11.204   5.747   0.517 -0.6838  0.5775  0.7177
  968MOL0     C27705  11.210   5.895   0.544  0.4590  0.1532  0.2469
  968MOL0     C27706  11.219   5.928   0.694 -0.0484  0.8229 -0.6686
  968MOL0     C27707  11.284   6.056   0.726 -0.1861 -0.6749  0.3835
  968MOL0     C27708  11.340   6.164   0.751 -0.1125  0.5992  0.2423
  968MOL0     C27709  10.721   5.746   0.518  0.2600  0.5613 -0.0227
  968MOL0     C27710  10.601   5.687   0.550  0.7336  0.2768  0.2304
  968MOL0     H27711  10.167   5.673   0.538  0.3893  0.2923  0.2153
  968MOL0     H27712   9.924   5.635   0.568  0.0215  1.1215  1.9967
  968MOL0     H27713   9.780   5.431   0.937  0.7060  0.3392 -0.9764
  968MOL0     H27714   9.820   5.304   0.834 -0.3491 -0.9004  1.6921
  968MOL0     H27715   9.580   5.471   0.861 -1.8326 -0.7591  0.9813
  968MOL0     H27716   9.601   5.297   0.885  0.5996  3.0791  3.9556
  968MOL0     H27717   9.615   5.257   0.643 -0.2081  0.4721 -2.5033
  968MOL0     H27718   9.608   5.434   0.609  0.8153 -2.4028 -2.2834
  968MOL0     H27719   9.391   5.262   0.738  0.4643 -0.4048 -1.4704
  968MOL0     H27720   9.376   5.438   0.694 -1.4825 -0.1955 -0.0780
  968MOL0     H27721   9.376   5.201   0.527  0.1948  0.3577 -0.0212
  968MOL0     H27722   9.424   5.359   0.456  0.8252 -1.0969 -0.3559
  968MOL0     H27723   9.217   5.467   0.534 -0.9399 -0.3068  2.5048
  968MOL0     H27724   9.167   5.311   0.610  2.5361  0.4953  1.9583
  968MOL0     H27725   9.222   5.358   0.309 -0.5805  3.1079  2.0687
  968MOL0     H27726   9.170   5.200   0.391  0.2023 -0.6791  1.4648
  968MOL0     H27727   8.992   5.425   0.320 -2.2439 -0.0904  0.9464
  968MOL0     H27728   8.962   5.345   0.467 -0.2228 -1.9972 -0.3425
  968MOL0     H27729   8.966   5.048   0.444 -2.1387 -1.0122 -0.0513
  968MOL0     H27730   8.926   4.826   0.317  1.2317  0.5505 -0.9513
  968MOL0     H27731   8.841   4.822   0.170  1.7384 -1.9456  0.0369
  968MOL0     H27732   8.622   4.910   0.311  1.5182  0.7513 -0.3433
  968MOL0     H27733   8.737   4.894   0.449  1.2649  0.5395  0.2711
  968MOL0     H27734   8.664   4.660   0.266  1.7515  0.8369 -0.9632
  968MOL0     H27735   8.732   4.644   0.424  1.4921  1.4221 -0.4027
  968MOL0     H27736   8.438   4.755   0.368 -0.4900  3.3184  3.1265
  968MOL0     H27737   8.518   4.747   0.517  0.7393 -1.3141  0.9603
  968MOL0     H27738   8.418   4.318   0.490  0.2439  1.0445  0.8724
  968MOL0     H27739   8.230   4.235   0.628  0.3946 -0.5339  0.3157
  968MOL0     H27740   7.864   4.338   0.985  1.2666  2.1978  0.8886
  968MOL0     H27741   7.620   4.277   1.034 -1.5352 -0.5749 -0.1541
  968MOL0     H27742   7.390   4.589   0.830  0.6122 -1.0548 -3.4982
  968MOL0     H27743   7.254   4.503   0.927  1.2702 -1.7423  1.1484
  968MOL0     H27744   7.329   4.413   0.649  0.2032  0.5202  0.2551
  968MOL0     H27745   7.255   4.569   0.669 -0.6839 -0.5004 -2.0648
  968MOL0     H27746   7.139   4.321   0.804  0.7526 -0.3082  0.3351
  968MOL0     H27747   7.105   4.349   0.629  0.0728  0.1830  0.1880
  968MOL0     H27748   7.021   4.540   0.857  3.3585  0.1281  0.2134
  968MOL0     H27749   7.031   4.548   0.663  3.4284 -3.0647 -1.5315
  968MOL0     H27750   6.886   4.343   0.850  1.7218 -0.7421 -0.1510
  968MOL0     H27751   6.886   4.332   0.683  1.3667 -1.6666  2.0518
  968MOL0     H27752   6.785   4.554   0.658 -1.4043  3.0821  1.3791
  968MOL0     H27753   6.787   4.582   0.824  0.9103  0.8486 -1.5040
  968MOL0     H27754   6.662   4.322   0.763  1.2869  0.5582 -0.6516
  968MOL0     H27755   6.599   4.441   0.876 -2.9630  0.6007 -0.3352
  968MOL0     H27756   6.505   4.571   0.684 -1.1475 -0.3557  2.4009
  968MOL0     H27757   6.432   4.420   0.702  0.8543  0.3565  3.1362
  968MOL0     H27758   7.527   4.470   0.654  1.4781 -1.7209 -0.1504
  968MOL0     H27759   7.756   4.530   0.620 -0.6034  0.9186 -0.5249
  968MOL0     H27760   8.063   4.627   0.639 -0.1152  0.7808  0.3717
  968MOL0     H27761   8.244   4.717   0.511 -0.9117 -1.5152 -1.6102
  968MOL0     H27762  10.035   5.393   0.921  1.1121 -1.4452 -0.3457
  968MOL0     H27763  10.261   5.458   0.878 -0.4051 -0.6426  0.1887
  968MOL0     H27764  10.718   5.417   0.723  2.6697  1.7758  1.5070
  968MOL0     H27765  10.920   5.513   0.660  0.8039 -0.0544  1.3880
  968MOL0     H27766  11.071   5.577   0.537 -3.0832 -0.7279  2.4317
  968MOL0     H27767  11.099   5.664   0.682 -0.5700  1.5576 -0.2284
  968MOL0     H27768  11.289   5.689   0.554  0.6214 -0.0812 -2.9268
  968MOL0     H27769  11.206   5.736   0.409 -0.1340  3.3275  0.3771
  968MOL0     H27770  11.125   5.950   0.502 -0.0856 -1.3884 -0.7765
  968MOL0     H27771  11.297   5.939   0.494  3.1317 -1.4119  3.1351
  968MOL0     H27772  11.125   5.941   0.748  2.3997  4.4460  3.4310
  968MOL0     H27773  11.284   5.856   0.744 -0.4548 -0.3461 -1.7818
  968MOL0     H27774  11.384   6.257   0.779  0.0101  0.7009 -0.2952
  968MOL0     H27775  10.726   5.844   0.470 -1.8057  0.2514 -1.0086
  968MOL0     H27776  10.507   5.736   0.527 -0.6473 -2.7081 -1.0616
  969MOL0     O27777   8.917  10.002   9.220 -0.5449 -0.0227  0.1754
  969MOL0     C27778   9.020  10.057   9.247 -0.5669  0.1306  0.3105
  969MOL0     O27779   9.032  10.166   9.322  0.1807 -0.5791 -0.3635
  969MOL0     C27780   8.931  10.260   9.340 -0.5553  0.8220 -0.0093
  969MOL0     C27781   8.982  10.377   9.401 -1.0540 -0.1536  0.1125
  969MOL0     C27782   8.905  10.488   9.434  0.5548  0.3425 -0.5002
  969MOL0     C27783   8.765  10.481   9.401  0.5012 -0.1039  0.5658
  969MOL0     O27784   8.689  10.589   9.436  0.3650 -0.1180  0.1674
  969MOL0     C27785   8.548  10.580   9.399  0.2206  0.5585  0.1204
  969MOL0     C27786   8.482  10.701   9.442 -0.0424 -0.9065  0.0919
  969MOL0     C27787   8.331  10.712   9.409 -0.1804 -0.0934  0.3976
  969MOL0     C27788   8.264  10.837   9.463 -0.6197  0.2027  0.4808
  969MOL0     C27789   8.112  10.843   9.438 -0.1603 -0.1728 -0.2818
  969MOL0     C27790   8.078  10.974   9.511 -0.1235  0.0781 -0.1241
  969MOL0     C27791   7.941  11.030   9.469  0.0198 -0.1083  0.0471
  969MOL0     C27792   7.826  10.952   9.536 -0.6624  0.2547 -0.4201
  969MOL0     N27793   7.709  11.027   9.554  0.3706 -0.2035  0.1719
  969MOL0     C27794   7.690  11.119   9.647  0.0049 -0.3320 -0.8155
  969MOL0     C27795   7.560  11.150   9.654 -0.5343 -0.3007  0.1644
  969MOL0     C27796   7.518  11.248   9.756  1.2183 -0.4721  0.2117
  969MOL0     C27797   7.362  11.255   9.761  0.0534  0.4597  0.1751
  969MOL0     C27798   7.310  11.366   9.842 -0.1311 -0.7054  0.1678
  969MOL0     C27799   7.163  11.366   9.874  0.7347  0.2925 -0.6494
  969MOL0     O27800   7.081  11.368   9.757 -0.1808  0.2054  0.6115
  969MOL0     C27801   6.965  11.306   9.749  0.6756 -0.1365 -0.3629
  969MOL0     C27802   6.905  11.303   9.623  0.1962 -0.1205 -0.3335
  969MOL0     C27803   6.776  11.254   9.609 -0.0989 -0.9449  0.3209
  969MOL0     C27804   6.704  11.225   9.724  0.2369  0.3923  0.5385
  969MOL0     C27805   6.567  11.165   9.707 -0.4821 -0.2409 -0.9890
  969MOL0     O27806   6.505  11.182   9.587  0.5197  0.1277  0.2893
  969MOL0     C27807   6.370  11.144   9.567  0.0942 -0.0609 -0.6059
  969MOL0     C27808   6.322  11.141   9.432  0.7421  0.5621 -0.2257
  969MOL0     C27809   6.185  11.120   9.401 -0.2411 -0.5644 -0.3539
  969MOL0     C27810   6.097  11.098   9.500  0.4700  0.4962 -0.4080
  969MOL0     O27811   5.969  11.042   9.485  0.5580  0.0165  0.0261
  969MOL0     C27812   5.920  11.019   9.351  0.2487  0.1895  0.1181
  969MOL0     C27813   5.797  10.944   9.346  1.1543 -0.5437 -0.5945
  969MOL0     C27814   5.688  11.020   9.422 -0.4438 -0.8910  0.5298
  969MOL0     C27815   5.546  10.968   9.373  0.6364  0.2554 -0.2600
  969MOL0     C27816   5.435  11.023   9.460 -0.1381 -0.1148  0.0580
  969MOL0     C27817   5.301  10.963   9.416  0.1607  1.2255  0.2826
  969MOL0     C27818   5.187  11.006   9.513  0.5243 -0.0433 -0.1996
  969MOL0     C27819   5.038  10.994   9.472 -0.8178  0.4687  0.3485
  969MOL0    Cl27820   5.037  11.043   9.298  0.0784  0.2699  0.3119
  969MOL0     C27821   6.142  11.094   9.629  0.3101  0.1610  0.1096
  969MOL0     C27822   6.272  11.128   9.669 -0.2145  0.2264  0.3289
  969MOL0     O27823   6.526  11.096   9.803 -0.2959 -0.3245  0.1797
  969MOL0     C27824   6.760  11.229   9.855  0.2762 -0.3733  0.0080
  969MOL0     C27825   6.897  11.267   9.865 -0.1082 -0.2620 -0.2391
  969MOL0     N27826   7.493  11.085   9.558  0.6267 -0.0516  0.4343
  969MOL0     N27827   7.586  11.008   9.500 -0.1803 -0.4378 -0.1375
  969MOL0     C27828   8.715  10.362   9.339  1.5300  0.3929  0.1303
  969MOL0     C27829   8.799  10.257   9.303 -1.0392 -0.7167  0.1306
  969MOL0     C27830   9.137  10.009   9.164 -1.0539  0.5973 -0.3083
  969MOL0     C27831   9.265  10.051   9.200 -0.2376  0.3224  0.9711
  969MOL0     C27832   9.372  10.008   9.116  0.7932 -0.8886 -0.9011
  969MOL0     C27833   9.354   9.932   9.002 -0.7397 -0.1410 -1.2043
  969MOL0     O27834   9.475   9.912   8.930  0.1893  0.7483  0.2022
  969MOL0     C27835   9.463   9.876   8.789 -0.0839 -0.1226  0.3247
  969MOL0     C27836   9.588   9.919   8.712  0.1658 -0.4287  0.7470
  969MOL0     C27837   9.713   9.912   8.799  0.5609 -0.4273  0.0816
  969MOL0     C27838   9.768   9.775   8.840  0.0843  0.0613  0.0634
  969MOL0     C27839   9.867   9.798   8.944 -0.7063  1.2516  1.4191
  969MOL0     C27840   9.946   9.824   9.036 -0.1515 -0.4377  0.7924
  969MOL0     C27841   9.229   9.886   8.970 -0.4933  0.6075  0.1138
  969MOL0     C27842   9.121   9.919   9.059 -0.9209 -0.7400  0.3019
  969MOL0     H27843   9.083  10.378   9.439 -0.1929 -2.0024 -1.9250
  969MOL0     H27844   8.948  10.577   9.478 -0.3157  0.2816  0.5074
  969MOL0     H27845   8.506  10.491   9.447 -0.0281 -0.2137 -1.4551
  969MOL0     H27846   8.536  10.561   9.292 -1.5164 -1.3686  0.5963
  969MOL0     H27847   8.538  10.786   9.400  0.2753  0.9526  3.8498
  969MOL0     H27848   8.489  10.709   9.551  1.3964 -1.0987  0.0328
  969MOL0     H27849   8.279  10.631   9.461 -0.8734  0.8803  1.2466
  969MOL0     H27850   8.315  10.700   9.301  1.8020  2.0863 -0.2399
  969MOL0     H27851   8.278  10.853   9.570 -1.3125 -2.2637  0.9966
  969MOL0     H27852   8.317  10.922   9.419 -0.5846 -1.0998 -2.2193
  969MOL0     H27853   8.065  10.763   9.495  2.4513 -1.0959  0.7579
  969MOL0     H27854   8.103  10.860   9.330 -0.6654  3.1653  0.1976
  969MOL0     H27855   8.149  11.049   9.475 -0.0783 -0.1719 -0.5520
  969MOL0     H27856   8.092  10.980   9.620  1.9195 -0.8943 -0.2865
  969MOL0     H27857   7.942  11.128   9.516  1.3912 -1.4555  3.1748
  969MOL0     H27858   7.937  11.023   9.360  2.6939 -5.0447 -0.0339
  969MOL0     H27859   7.852  10.931   9.640 -0.8606 -2.5153 -0.8559
  969MOL0     H27860   7.804  10.859   9.482 -0.3004 -0.3903  0.5208
  969MOL0     H27861   7.759  11.173   9.711 -1.0521  1.0250 -0.7791
  969MOL0     H27862   7.560  11.343   9.719 -0.4792  0.3493  0.2893
  969MOL0     H27863   7.559  11.216   9.852 -2.3704 -2.5986  1.2074
  969MOL0     H27864   7.330  11.155   9.793  0.8764 -0.0159 -0.4661
  969MOL0     H27865   7.318  11.262   9.661 -0.3702 -3.2244 -0.0272
  969MOL0     H27866   7.357  11.372   9.940 -1.4868 -0.4361  0.8312
  969MOL0     H27867   7.327  11.458   9.784 -4.0766 -0.3731 -0.7679
  969MOL0     H27868   7.148  11.465   9.920 -0.4943 -0.3804  0.4621
  969MOL0     H27869   7.150  11.286   9.947  0.4498 -0.3286 -1.3694
  969MOL0     H27870   6.973  11.329   9.542  1.3365 -2.3678 -0.2029
  969MOL0     H27871   6.731  11.268   9.510  0.2219 -3.8570 -0.3215
  969MOL0     H27872   6.391  11.156   9.350 -1.6368 -1.3992 -2.7978
  969MOL0     H27873   6.154  11.114   9.297 -1.1473 -1.4793 -0.0487
  969MOL0     H27874   5.995  10.964   9.292  1.1031  1.3917  0.0474
  969MOL0     H27875   5.907  11.117   9.304  2.4999  0.2702 -0.4729
  969MOL0     H27876   5.814  10.842   9.380 -0.6442 -0.3189  1.1851
  969MOL0     H27877   5.764  10.942   9.242 -1.3084 -2.1181  0.1359
  969MOL0     H27878   5.687  11.126   9.395  0.0336 -1.3185 -1.3206
  969MOL0     H27879   5.701  11.008   9.530  2.7539 -0.6105  0.2643
  969MOL0     H27880   5.531  11.000   9.269  2.1813  1.2040 -0.2267
  969MOL0     H27881   5.534  10.860   9.378 -0.7009  0.3903 -0.1474
  969MOL0     H27882   5.422  11.132   9.458 -2.2361 -0.3048 -2.6110
  969MOL0     H27883   5.452  10.997   9.565  2.3244  0.4827 -0.1458
  969MOL0     H27884   5.311  10.854   9.417 -0.7574  1.1376  1.2146
  969MOL0     H27885   5.287  10.998   9.313  1.2021  0.4046 -0.1571
  969MOL0     H27886   5.199  10.952   9.607 -0.8634 -1.3863 -0.7569
  969MOL0     H27887   5.207  11.114   9.521  0.7100 -0.0725 -0.2783
  969MOL0     H27888   4.967  11.055   9.529 -1.1322 -1.1771  1.8119
  969MOL0     H27889   5.011  10.888   9.480  0.1962  0.1223 -0.6100
  969MOL0     H27890   6.069  11.071   9.705  1.6603 -3.5033  0.5253
  969MOL0     H27891   6.297  11.130   9.775 -0.3299 -1.0833  0.3917
  969MOL0     H27892   6.711  11.203   9.948  1.5522  1.5940  1.3029
  969MOL0     H27893   6.936  11.289   9.964  0.2507  1.2665 -0.6908
  969MOL0     H27894   8.611  10.351   9.310  1.3728 -1.2510  1.1776
  969MOL0     H27895   8.756  10.174   9.248 -1.0361 -1.6099  1.4225
  969MOL0     H27896   9.278  10.122   9.282  2.0044  0.9484  0.1538
  969MOL0     H27897   9.471  10.040   9.146  1.4495 -2.5187 -1.2201
  969MOL0     H27898   9.370   9.918   8.748  0.2346  0.2422 -0.0466
  969MOL0     H27899   9.454   9.767   8.791  0.9494 -0.1990  1.9820
  969MOL0     H27900   9.575   9.854   8.625 -0.9383  0.1357  0.4779
  969MOL0     H27901   9.581  10.025   8.685  0.7487  0.0907  2.4674
  969MOL0     H27902   9.697   9.963   8.894 -0.2239 -1.6384  0.6125
  969MOL0     H27903   9.788   9.961   8.736 -1.2187  0.9791 -1.0272
  969MOL0     H27904   9.685   9.724   8.891  1.9919 -1.4629  1.7912
  969MOL0     H27905   9.796   9.710   8.757 -2.6516 -1.7503  0.4183
  969MOL0     H27906  10.007   9.860   9.116  2.3091  0.8009 -1.4594
  969MOL0     H27907   9.202   9.817   8.890 -0.2340  0.9083 -0.2335
  969MOL0     H27908   9.025   9.875   9.033 -0.8312 -1.2411  0.7975
  970MOL0     O27909   5.661   9.778   8.579  0.1567 -0.3598  0.2753
  970MOL0     C27910   5.656   9.830   8.465  0.3681  0.2922 -0.2265
  970MOL0     O27911   5.544   9.851   8.391 -0.1168  1.0930 -0.0751
  970MOL0     C27912   5.418   9.826   8.437 -0.0290  0.5555 -0.8791
  970MOL0     C27913   5.333   9.761   8.342 -0.8089  0.3312 -0.8895
  970MOL0     C27914   5.205   9.733   8.368 -0.8832 -0.8218 -0.0643
  970MOL0     C27915   5.151   9.776   8.487 -0.5708 -0.3650 -0.4063
  970MOL0     O27916   5.017   9.754   8.505 -0.1822  0.6148 -0.6734
  970MOL0     C27917   5.000   9.634   8.584  0.4057 -0.1214 -0.3846
  970MOL0     C27918   4.865   9.646   8.651  0.7239 -0.5100 -0.3149
  970MOL0     C27919   4.747   9.646   8.557  1.0630  0.0661 -0.5153
  970MOL0     C27920   4.617   9.719   8.617 -0.7088 -0.0623  0.4035
  970MOL0     C27921   4.499   9.675   8.529  0.1002  0.0755 -0.1590
  970MOL0     C27922   4.461   9.533   8.503  0.3055  0.2285 -0.0431
  970MOL0     C27923   4.449   9.443   8.623 -0.1898  0.2110 -0.2028
  970MOL0     C27924   4.351   9.492   8.729 -0.3847 -0.0973 -0.1271
  970MOL0     N27925   4.354   9.413   8.855  0.2505  0.1780  0.3809
  970MOL0     C27926   4.314   9.465   8.974 -0.7912 -0.2313 -0.6643
  970MOL0     C27927   4.335   9.370   9.061 -0.1525  0.3270  0.1264
  970MOL0     C27928   4.312   9.398   9.204  0.1515  0.8066 -0.3686
  970MOL0     C27929   4.171   9.343   9.228  0.0140  0.6618  0.3232
  970MOL0     C27930   4.133   9.342   9.378  0.4009  0.7593 -0.7238
  970MOL0     C27931   4.000   9.280   9.402  0.5561 -0.1279 -0.7739
  970MOL0     O27932   3.874   9.351   9.371 -0.1938 -0.4357 -0.1168
  970MOL0     C27933   3.757   9.279   9.395  0.3270 -0.2828 -0.2993
  970MOL0     C27934   3.748   9.141   9.432  0.1724 -0.3171 -0.2190
  970MOL0     C27935   3.624   9.080   9.448 -0.3370 -0.5524  0.7884
  970MOL0     C27936   3.505   9.150   9.432  0.1076 -0.4680  0.0480
  970MOL0     C27937   3.368   9.085   9.444 -0.8327  0.5663  0.2492
  970MOL0     O27938   3.256   9.158   9.413 -0.0303 -0.1949  0.0354
  970MOL0     C27939   3.139   9.087   9.422  0.1116 -0.2437  0.8439
  970MOL0     C27940   3.049   9.133   9.523  0.2756  0.0152 -0.8730
  970MOL0     C27941   2.919   9.075   9.527 -0.1327 -0.3189  0.1694
  970MOL0     C27942   2.880   8.977   9.433 -0.9461  0.5528  0.3508
  970MOL0     O27943   2.750   8.937   9.436  0.2744 -0.0303 -0.1404
  970MOL0     C27944   2.727   8.800   9.477 -0.2824 -0.4861 -0.9093
  970MOL0     C27945   2.598   8.780   9.543 -0.0136 -0.1197  0.1821
  970MOL0     C27946   2.607   8.650   9.630  0.6215  0.3707 -0.1868
  970MOL0     C27947   2.622   8.512   9.559  0.5877 -0.0018 -0.2883
  970MOL0     C27948   2.492   8.470   9.489 -0.4505  0.1442  0.5276
  970MOL0     C27949   2.506   8.337   9.414 -0.1913 -0.0753  0.2708
  970MOL0     C27950   2.397   8.313   9.304 -0.3348 -0.9458  0.9191
  970MOL0     C27951   2.425   8.201   9.212  0.1579 -0.0268 -0.2450
  970MOL0    Cl27952   2.272   8.152   9.129  0.3073  0.1427  0.0695
  970MOL0     C27953   2.976   8.938   9.336 -0.1269  0.3666  1.0684
  970MOL0     C27954   3.101   8.995   9.327  0.4014  0.4946  0.1530
  970MOL0     O27955   3.367   8.960   9.457 -0.9301  0.1889 -0.3917
  970MOL0     C27956   3.519   9.289   9.388  0.1395  0.3695 -0.0114
  970MOL0     C27957   3.644   9.353   9.374  0.0353 -0.1188  0.6908
  970MOL0     N27958   4.383   9.259   8.997 -1.1186  0.2567  1.0376
  970MOL0     N27959   4.393   9.285   8.869 -0.2198 -0.1553 -0.0381
  970MOL0     C27960   5.232   9.843   8.583 -0.3656  0.7406 -0.3901
  970MOL0     C27961   5.367   9.863   8.564  0.8424  0.4034  0.3864
  970MOL0     C27962   5.785   9.871   8.408  0.5885  0.3945  0.0750
  970MOL0     C27963   5.902   9.858   8.494 -0.7962  0.1617  0.0480
  970MOL0     C27964   6.028   9.882   8.440  0.5684 -0.0855  0.5352
  970MOL0     C27965   6.048   9.951   8.317  0.9259 -0.1166  0.4307
  970MOL0     O27966   6.172   9.974   8.264 -0.4404  0.2408  0.4753
  970MOL0     C27967   6.193  10.104   8.192  0.6974 -0.3348 -0.6635
  970MOL0     C27968   6.335  10.165   8.206  0.1555 -0.0218  0.3768
  970MOL0     C27969   6.363  10.282   8.110  0.4127  0.7784  0.1114
  970MOL0     C27970   6.514  10.275   8.060  0.3248 -0.2071  0.1092
  970MOL0     C27971   6.600  10.289   8.174  0.1449  0.4689 -0.3308
  970MOL0     C27972   6.681  10.280   8.262 -0.2300 -0.0486 -0.7978
  970MOL0     C27973   5.930   9.974   8.247  0.3816 -0.1730 -0.0645
  970MOL0     C27974   5.800   9.934   8.282  0.1894 -0.0267 -0.2113
  970MOL0     H27975   5.353   9.733   8.239 -4.9141 -0.0127 -1.7540
  970MOL0     H27976   5.142   9.680   8.297 -0.2334 -1.6561 -0.0343
  970MOL0     H27977   5.071   9.630   8.667  0.6379  1.0626 -0.5126
  970MOL0     H27978   5.002   9.545   8.520 -1.7964  0.0975 -0.8572
  970MOL0     H27979   4.862   9.751   8.682  1.3728  0.0465 -1.9845
  970MOL0     H27980   4.845   9.578   8.734  2.3761 -2.1429 -1.1779
  970MOL0     H27981   4.718   9.541   8.556 -3.2191  0.9728  2.6091
  970MOL0     H27982   4.774   9.687   8.459  2.2784  0.0308 -0.2156
  970MOL0     H27983   4.592   9.697   8.721 -3.3986 -2.8692 -0.6824
  970MOL0     H27984   4.628   9.827   8.605 -1.8104  0.0538  0.3916
  970MOL0     H27985   4.525   9.712   8.430 -0.8063 -1.5705 -1.0600
  970MOL0     H27986   4.415   9.735   8.565 -0.6507 -1.1336  0.1653
  970MOL0     H27987   4.534   9.482   8.440  0.3457  0.0113  0.1776
  970MOL0     H27988   4.365   9.541   8.451 -1.6992  0.0944  3.2805
  970MOL0     H27989   4.424   9.349   8.574  2.2348 -0.3414 -0.4839
  970MOL0     H27990   4.547   9.448   8.670 -0.3683  1.7122  0.0586
  970MOL0     H27991   4.250   9.469   8.693 -0.1717 -1.6323  0.1827
  970MOL0     H27992   4.361   9.597   8.757 -0.0158  0.3250 -1.7338
  970MOL0     H27993   4.260   9.555   9.002  0.9925  0.5995  0.2388
  970MOL0     H27994   4.314   9.505   9.227  0.4778  0.6513  0.3480
  970MOL0     H27995   4.387   9.339   9.257 -2.6204 -1.7432  1.0233
  970MOL0     H27996   4.170   9.238   9.197 -1.4372  1.0034 -0.8983
  970MOL0     H27997   4.094   9.390   9.167  0.9468  1.0173 -0.6091
  970MOL0     H27998   4.198   9.275   9.436  0.7916  0.2359 -1.7539
  970MOL0     H27999   4.138   9.445   9.416 -3.0314  1.1911 -1.0897
  970MOL0     H28000   3.991   9.240   9.503 -1.7909 -0.1058 -0.9066
  970MOL0     H28001   3.986   9.189   9.343 -0.4838  1.0267 -2.3988
  970MOL0     H28002   3.838   9.085   9.457  1.0522  1.6977  1.4915
  970MOL0     H28003   3.613   8.978   9.481  0.4705 -0.6432  0.7854
  970MOL0     H28004   3.072   9.209   9.597  1.2663  0.1943 -1.3570
  970MOL0     H28005   2.853   9.116   9.603  0.2873  1.4585 -0.3839
  970MOL0     H28006   2.813   8.768   9.536  0.0561  0.7733 -0.7016
  970MOL0     H28007   2.722   8.747   9.381 -1.3698  2.9850 -2.9409
  970MOL0     H28008   2.532   8.763   9.457 -0.7605 -1.5049  0.9778
  970MOL0     H28009   2.561   8.858   9.610 -1.3271  1.1640 -1.9235
  970MOL0     H28010   2.512   8.646   9.686  0.9133 -0.6566  0.2638
  970MOL0     H28011   2.687   8.667   9.703  2.1430  2.6371 -2.2486
  970MOL0     H28012   2.712   8.509   9.496  0.4528  0.7602 -0.5326
  970MOL0     H28013   2.645   8.445   9.643  0.8771  2.6632  1.8945
  970MOL0     H28014   2.460   8.557   9.430  1.4949  3.4099  3.8891
  970MOL0     H28015   2.407   8.453   9.554 -0.4861  1.9295  0.9824
  970MOL0     H28016   2.522   8.259   9.489  1.4679 -0.0407 -0.0147
  970MOL0     H28017   2.599   8.343   9.356 -0.6653 -2.1491 -0.8315
  970MOL0     H28018   2.303   8.297   9.357 -2.1883  3.3787 -0.6064
  970MOL0     H28019   2.385   8.403   9.244  2.1285 -0.5673  0.8862
  970MOL0     H28020   2.464   8.120   9.272 -3.3675 -0.5994  1.5210
  970MOL0     H28021   2.508   8.226   9.145  2.4604 -1.2070  1.9848
  970MOL0     H28022   2.929   8.868   9.269 -1.4784  0.3360  2.0152
  970MOL0     H28023   3.154   8.970   9.235 -1.7128 -0.4291 -0.8848
  970MOL0     H28024   3.426   9.340   9.364 -2.4387 -3.3667  1.0746
  970MOL0     H28025   3.651   9.455   9.339  0.6560  0.2262  1.7871
  970MOL0     H28026   5.182   9.868   8.676 -1.6547  1.5792 -1.2671
  970MOL0     H28027   5.422   9.910   8.645  1.8979 -1.9772  1.1474
  970MOL0     H28028   5.905   9.801   8.587  0.8034 -1.6941 -1.0797
  970MOL0     H28029   6.120   9.848   8.487  1.7727  1.4136 -0.6508
  970MOL0     H28030   6.125  10.185   8.222  0.4946 -1.3424  1.8090
  970MOL0     H28031   6.168  10.091   8.086  0.8144 -0.7713 -0.6374
  970MOL0     H28032   6.355  10.204   8.306 -1.5952  2.7662 -0.2514
  970MOL0     H28033   6.404  10.081   8.192  1.4492  0.9732  0.5323
  970MOL0     H28034   6.337  10.380   8.150  0.2570  0.8545 -0.1733
  970MOL0     H28035   6.288  10.279   8.030 -1.5912  0.4753  1.8914
  970MOL0     H28036   6.542  10.181   8.011 -0.5688  0.6951 -2.2716
  970MOL0     H28037   6.539  10.358   7.993  0.0807 -1.1637 -1.2213
  970MOL0     H28038   6.768  10.276   8.324 -0.8231 -0.6929  0.0190
  970MOL0     H28039   5.936  10.028   8.153  1.4049 -0.2364 -0.0485
  970MOL0     H28040   5.721   9.951   8.209  0.4121 -1.6493 -0.8809
  971MOL0     O28041  10.852   9.450   8.959  0.1076 -0.1490 -0.4556
  971MOL0     C28042  10.899   9.358   8.897 -0.3738  0.2790  0.0993
  971MOL0     O28043  10.854   9.313   8.775 -0.2191 -0.0672 -0.2001
  971MOL0     C28044  10.735   9.356   8.709 -0.6836  0.1635  0.5197
  971MOL0     C28045  10.637   9.438   8.753  0.7502 -0.0444 -0.9535
  971MOL0     C28046  10.524   9.470   8.685  0.0407  0.0719 -0.7927
  971MOL0     C28047  10.518   9.429   8.549  1.4397  0.1327 -0.0160
  971MOL0     O28048  10.424   9.495   8.482  0.8647 -0.0408  0.6268
  971MOL0     C28049  10.328   9.412   8.415 -0.4941  0.3424 -0.6059
  971MOL0     C28050  10.344   9.394   8.261  0.1011  0.1138  0.2711
  971MOL0     C28051  10.332   9.523   8.184  0.6050 -0.1047 -0.0875
  971MOL0     C28052  10.202   9.606   8.215  0.1999 -0.4490 -0.5871
  971MOL0     C28053  10.175   9.720   8.118  0.0193  0.3061  0.2911
  971MOL0     C28054  10.036   9.774   8.137 -0.8000  0.0805 -1.1460
  971MOL0     C28055   9.988   9.889   8.042  0.2800  0.3674  0.0024
  971MOL0     C28056  10.075  10.009   8.035 -0.1214 -0.2818 -0.3036
  971MOL0     N28057   9.993  10.108   7.960 -1.0597 -0.5146 -0.4309
  971MOL0     C28058   9.860  10.146   7.991 -0.2174  0.2105 -0.5335
  971MOL0     C28059   9.828  10.226   7.887  0.3291  0.0756  0.7612
  971MOL0     C28060   9.686  10.284   7.870  0.0722  0.4161 -0.5426
  971MOL0     C28061   9.685  10.440   7.900 -0.4752 -0.0603  0.2341
  971MOL0     C28062   9.684  10.470   8.047 -0.4112  0.8510  0.5200
  971MOL0     C28063   9.724  10.619   8.056 -0.1340 -0.2292 -0.2821
  971MOL0     O28064   9.638  10.699   7.969 -0.2830  0.2565  0.3068
  971MOL0     C28065   9.512  10.723   8.014  0.9481 -0.2152 -1.1631
  971MOL0     C28066   9.451  10.813   7.926 -0.7813 -0.1023 -0.6727
  971MOL0     C28067   9.333  10.882   7.966  0.4510  0.4194  0.5186
  971MOL0     C28068   9.259  10.828   8.074 -0.3872  0.4169  0.3006
  971MOL0     C28069   9.124  10.867   8.105 -0.5066 -0.8583  0.0184
  971MOL0     O28070   9.065  10.937   8.003  0.1036  0.2600  0.0344
  971MOL0     C28071   8.956  11.012   8.027 -0.6691  0.2831 -0.1858
  971MOL0     C28072   8.962  11.143   8.031 -0.6043 -0.1290 -0.3771
  971MOL0     C28073   8.843  11.216   8.048 -0.4248 -0.0444 -0.3137
  971MOL0     C28074   8.717  11.158   8.068 -0.4502  0.0702  0.4862
  971MOL0     O28075   8.608  11.243   8.067 -0.3583 -0.2217  0.2621
  971MOL0     C28076   8.482  11.190   8.118  0.1021 -1.2186  0.1634
  971MOL0     C28077   8.383  11.300   8.089 -0.3670 -0.3202 -0.3362
  971MOL0     C28078   8.332  11.293   7.944  0.0299 -0.2552 -0.0670
  971MOL0     C28079   8.245  11.418   7.906  0.3496 -0.2678 -0.2497
  971MOL0     C28080   8.106  11.426   7.969 -0.4357  1.4348  0.5078
  971MOL0     C28081   8.016  11.526   7.907 -0.3343  0.0982 -0.9525
  971MOL0     C28082   7.982  11.512   7.766 -0.4729  0.1426  0.3950
  971MOL0     C28083   7.867  11.593   7.719  0.0163  0.1706 -0.6728
  971MOL0    Cl28084   7.858  11.553   7.540  0.4983 -0.0173 -0.4338
  971MOL0     C28085   8.714  11.018   8.056 -0.2273  0.6235 -0.1510
  971MOL0     C28086   8.838  10.948   8.042 -0.1747 -0.5557  0.9416
  971MOL0     O28087   9.066  10.836   8.210  0.0194  0.1173  0.9615
  971MOL0     C28088   9.319  10.723   8.151  0.7761 -0.1906  0.0727
  971MOL0     C28089   9.446  10.674   8.128 -0.5920 -0.5372  0.1517
  971MOL0     N28090   9.936  10.236   7.797 -0.0776 -0.4813  0.0581
  971MOL0     N28091  10.028  10.164   7.839  0.4870  0.3376 -0.3264
  971MOL0     C28092  10.618   9.348   8.496 -0.6269 -0.3552  0.7859
  971MOL0     C28093  10.719   9.312   8.579 -0.0569 -0.0000  0.3029
  971MOL0     C28094  11.024   9.313   8.951 -0.1855 -0.2556 -0.4245
  971MOL0     C28095  11.091   9.388   9.052 -0.8783  0.2121  1.2912
  971MOL0     C28096  11.210   9.341   9.101 -0.6234  0.3848  0.1789
  971MOL0     C28097  11.251   9.211   9.068  0.2831  0.1457 -0.5429
  971MOL0     O28098  11.364   9.153   9.129 -0.1648  0.5652 -0.8164
  971MOL0     C28099  11.491   9.209   9.095 -0.1300 -0.5357  0.2088
  971MOL0     C28100  11.577   9.107   9.015  1.1915 -0.5266  0.3199
  971MOL0     C28101  11.499   9.060   8.894 -0.8660  0.5349 -0.0859
  971MOL0     C28102  11.603   9.000   8.795  0.2428 -0.6129 -0.1178
  971MOL0     C28103  11.655   9.100   8.700  0.5744 -0.0025  0.4571
  971MOL0     C28104  11.706   9.176   8.625  0.9002 -1.3430 -0.3875
  971MOL0     C28105  11.176   9.128   8.986  0.0305 -0.9672 -0.5354
  971MOL0     C28106  11.066   9.179   8.924 -0.2403  0.6050  0.5381
  971MOL0     H28107  10.636   9.481   8.853  2.0136  2.8492 -2.0709
  971MOL0     H28108  10.448   9.535   8.727  0.1399  0.5080 -1.2805
  971MOL0     H28109  10.238   9.470   8.439  0.0650  2.8941 -3.9456
  971MOL0     H28110  10.320   9.310   8.454  0.6498  0.3669 -0.2746
  971MOL0     H28111  10.272   9.317   8.230 -0.4556  0.9750 -0.6336
  971MOL0     H28112  10.446   9.356   8.248  0.4205 -0.2891  3.2247
  971MOL0     H28113  10.321   9.491   8.080  0.3514  1.1265 -0.4612
  971MOL0     H28114  10.430   9.570   8.191  1.1251 -0.4741 -3.3176
  971MOL0     H28115  10.117   9.537   8.206 -2.0930  1.8187  1.8454
  971MOL0     H28116  10.206   9.642   8.318  2.8492 -1.3463 -0.2898
  971MOL0     H28117  10.189   9.680   8.017  0.1694  1.8178 -0.3143
  971MOL0     H28118  10.244   9.805   8.119 -1.2014  1.3165  0.4569
  971MOL0     H28119  10.039   9.809   8.240 -1.2207 -0.4062 -0.9686
  971MOL0     H28120   9.960   9.696   8.139 -0.8568  0.1400 -1.0133
  971MOL0     H28121   9.973   9.848   7.942  0.9825  1.4552 -0.5626
  971MOL0     H28122   9.893   9.913   8.091  2.6515  2.3192  4.2352
  971MOL0     H28123  10.166   9.984   7.981 -1.9432  0.8890 -4.3430
  971MOL0     H28124  10.085  10.051   8.135  0.2775 -2.4324  0.6102
  971MOL0     H28125   9.795  10.113   8.070 -0.7185  0.1390 -0.9704
  971MOL0     H28126   9.607  10.237   7.929  0.3115  1.1864  0.4395
  971MOL0     H28127   9.658  10.279   7.765 -1.7392  1.7523 -0.1849
  971MOL0     H28128   9.602  10.486   7.844 -1.0403 -1.2532  0.0624
  971MOL0     H28129   9.779  10.481   7.863 -1.8448  2.5494 -0.6314
  971MOL0     H28130   9.585  10.451   8.090 -1.2953  2.0096 -0.8949
  971MOL0     H28131   9.763  10.414   8.097 -1.0409  0.0068  0.5847
  971MOL0     H28132   9.825  10.628   8.016 -0.5986 -1.8124 -1.9558
  971MOL0     H28133   9.725  10.648   8.161  1.2070 -4.5284  1.1155
  971MOL0     H28134   9.503  10.840   7.834  0.7876 -3.4706 -0.9135
  971MOL0     H28135   9.284  10.948   7.896  2.1365 -0.1843 -1.3087
  971MOL0     H28136   9.059  11.191   8.017 -0.8054 -0.1170 -1.8856
  971MOL0     H28137   8.867  11.320   8.032 -0.5963 -0.1489 -1.3557
  971MOL0     H28138   8.492  11.168   8.225 -2.3026 -3.1051  0.0860
  971MOL0     H28139   8.454  11.097   8.068 -1.1221 -2.1754  2.4815
  971MOL0     H28140   8.411  11.401   8.119 -1.0192 -0.7268  1.8316
  971MOL0     H28141   8.290  11.274   8.140  1.0697  1.4689  3.6118
  971MOL0     H28142   8.278  11.198   7.941  0.3792 -0.4598 -2.5795
  971MOL0     H28143   8.410  11.277   7.868 -2.0498 -0.4905 -2.2846
  971MOL0     H28144   8.292  11.513   7.936 -1.9082  0.1868  2.2026
  971MOL0     H28145   8.236  11.417   7.797  1.6999 -1.1350 -0.3769
  971MOL0     H28146   8.114  11.444   8.077 -0.8220  1.0703  0.6004
  971MOL0     H28147   8.064  11.328   7.945 -3.5420  2.8733 -0.4298
  971MOL0     H28148   8.063  11.624   7.921 -1.6795  0.3018  5.2657
  971MOL0     H28149   7.927  11.529   7.971 -0.2776 -0.3739 -0.8487
  971MOL0     H28150   8.061  11.550   7.701 -0.3112  2.2675  1.7373
  971MOL0     H28151   7.969  11.406   7.739  1.9593 -0.0588 -0.1564
  971MOL0     H28152   7.886  11.701   7.721  2.2805 -0.1635  1.9300
  971MOL0     H28153   7.785  11.566   7.785  0.6332 -0.3624 -0.1112
  971MOL0     H28154   8.619  10.966   8.066 -1.3787  2.8175  1.1650
  971MOL0     H28155   8.832  10.840   8.032 -1.3527 -0.5398  1.3346
  971MOL0     H28156   9.267  10.698   8.243 -1.4108  0.8705 -0.8224
  971MOL0     H28157   9.494  10.604   8.196 -0.6773 -0.5782  0.1686
  971MOL0     H28158  10.628   9.320   8.392  1.6239  0.0184  0.8477
  971MOL0     H28159  10.797   9.250   8.535  0.7619  0.6010  0.8801
  971MOL0     H28160  11.055   9.486   9.081 -2.9461  0.1859 -0.8651
  971MOL0     H28161  11.266   9.405   9.169 -0.1839 -1.2636  1.4475
  971MOL0     H28162  11.544   9.240   9.186 -0.9241  3.8635 -0.5753
  971MOL0     H28163  11.482   9.303   9.040 -1.0451 -0.6972  0.0606
  971MOL0     H28164  11.677   9.146   8.992  1.8358 -1.5920  1.1836
  971MOL0     H28165  11.602   9.020   9.077  1.2647 -0.7185  0.0289
  971MOL0     H28166  11.462   9.147   8.839  1.4671 -0.0731 -2.7968
  971MOL0     H28167  11.422   8.990   8.929  1.7638 -1.3594  2.3400
  971MOL0     H28168  11.686   8.956   8.852  0.5327  2.0960  1.7906
  971MOL0     H28169  11.555   8.919   8.740  0.9597 -1.0428 -0.1264
  971MOL0     H28170  11.738   9.256   8.561  1.2730 -3.2315 -2.7429
  971MOL0     H28171  11.213   9.029   8.960  2.8671 -0.3983  0.8790
  971MOL0     H28172  11.005   9.119   8.858 -1.5119  0.1109  2.0984
  972MOL0     O28173   0.534   0.832  10.596  0.2239  0.1212  0.4862
  972MOL0     C28174   0.592   0.765  10.689  0.5690 -0.8047  0.5183
  972MOL0     O28175   0.520   0.691  10.786  0.1073 -0.7578  0.2599
  972MOL0     C28176   0.383   0.714  10.792  0.4717  0.1027 -0.5840
  972MOL0     C28177   0.285   0.668  10.703  0.6591  0.0761 -0.0510
  972MOL0     C28178   0.146   0.676  10.742 -1.1237  0.2832  0.0338
  972MOL0     C28179   0.104   0.729  10.862  0.0139 -0.0092 -0.7008
  972MOL0     O28180  -0.024   0.736  10.910 -0.4809 -0.1635  0.2410
  972MOL0     C28181  -0.123   0.664  10.841  0.0501 -0.1416 -0.0318
  972MOL0     C28182  -0.247   0.674  10.935 -0.6766  0.0178 -0.1071
  972MOL0     C28183  -0.302   0.807  10.932  0.2179 -0.1647  0.1582
  972MOL0     C28184  -0.409   0.826  11.042 -0.3461 -0.4899 -0.7310
  972MOL0     C28185  -0.463   0.966  11.044  0.1381  0.0473  0.1499
  972MOL0     C28186  -0.351   1.064  11.076  0.5030 -0.0630  0.3203
  972MOL0     C28187  -0.393   1.199  11.136  0.4266  1.6115 -0.1040
  972MOL0     C28188  -0.500   1.264  11.051 -0.0210  0.4602  0.3341
  972MOL0     N28189  -0.635   1.229  11.084  0.2953  0.5750 -0.2808
  972MOL0     C28190  -0.695   1.273  11.196 -0.4806 -0.3792 -0.1146
  972MOL0     C28191  -0.804   1.195  11.209 -0.3560  0.9363  0.9183
  972MOL0     C28192  -0.892   1.191  11.319 -0.3036  0.1467 -0.9128
  972MOL0     C28193  -0.826   1.208  11.457 -0.1202 -0.7620 -0.3702
  972MOL0     C28194  -0.763   1.065  11.493 -0.1352 -0.8783 -0.0149
  972MOL0     C28195  -0.683   1.077  11.621 -0.0164  0.9500  0.0864
  972MOL0     O28196  -0.574   1.173  11.609  0.2693  0.4811 -0.9530
  972MOL0     C28197  -0.455   1.128  11.562  0.0953  0.1279 -0.8075
  972MOL0     C28198  -0.430   0.998  11.510 -0.7695 -0.7282 -0.0503
  972MOL0     C28199  -0.307   0.955  11.466  0.1416  0.4419 -0.0322
  972MOL0     C28200  -0.203   1.054  11.455  0.3976 -0.5893  0.2631
  972MOL0     C28201  -0.073   1.027  11.399 -0.4433  0.1184  0.0479
  972MOL0     O28202  -0.028   0.903  11.405  0.2834  0.1697  0.1603
  972MOL0     C28203   0.093   0.875  11.351 -0.3231  0.7956  0.8640
  972MOL0     C28204   0.116   0.746  11.303 -0.0929 -1.9728  0.5491
  972MOL0     C28205   0.243   0.699  11.277  0.3843  0.3718 -0.2305
  972MOL0     C28206   0.352   0.782  11.284  0.0865 -0.6583 -0.3587
  972MOL0     O28207   0.474   0.723  11.243 -1.0520 -0.4168 -0.1447
  972MOL0     C28208   0.596   0.758  11.314 -0.1915 -0.1399  0.6644
  972MOL0     C28209   0.703   0.650  11.285  0.6707  0.4559  0.1378
  972MOL0     C28210   0.678   0.519  11.359 -0.0389  0.0279  0.4636
  972MOL0     C28211   0.782   0.428  11.331 -0.4065 -0.5317  0.1492
  972MOL0     C28212   0.757   0.313  11.428 -0.0330 -0.2023  0.0393
  972MOL0     C28213   0.831   0.175  11.382 -0.8925  0.5474 -0.5470
  972MOL0     C28214   0.806   0.048  11.473 -0.5032  0.0988  0.1163
  972MOL0     C28215   0.663   0.033  11.507 -0.4096  0.1674 -0.3839
  972MOL0    Cl28216   0.638  -0.136  11.564  0.1043 -0.1601 -0.4108
  972MOL0     C28217   0.332   0.916  11.317  1.0458  0.4716 -0.0285
  972MOL0     C28218   0.210   0.958  11.370 -0.7251  0.8452  0.1693
  972MOL0     O28219  -0.031   1.122  11.329 -0.1865 -1.0057  0.6982
  972MOL0     C28220  -0.231   1.185  11.494 -0.4071 -0.3153  0.3536
  972MOL0     C28221  -0.354   1.224  11.551 -0.3582  0.8187 -0.2796
  972MOL0     N28222  -0.819   1.117  11.087  0.9476 -0.0356 -0.0449
  972MOL0     N28223  -0.711   1.147  11.017  0.6328 -0.1564 -0.0831
  972MOL0     C28224   0.203   0.774  10.945 -0.5571  0.7811  0.4287
  972MOL0     C28225   0.340   0.750  10.918 -0.2026  0.2743  0.8368
  972MOL0     C28226   0.735   0.760  10.681  0.2841  0.5455 -0.4016
  972MOL0     C28227   0.804   0.812  10.573 -0.1371  0.5206  0.1488
  972MOL0     C28228   0.942   0.807  10.568  0.1962 -0.3689  0.5242
  972MOL0     C28229   1.021   0.775  10.684 -0.5042  0.0237 -0.2628
  972MOL0     O28230   1.154   0.788  10.697 -0.3649 -0.0658  0.8175
  972MOL0     C28231   1.221   0.868  10.587 -0.3777 -0.3752  0.7518
  972MOL0     C28232   1.372   0.879  10.619  0.3884  0.2127 -0.6910
  972MOL0     C28233   1.445   0.745  10.618 -0.6145  0.3288 -0.0558
  972MOL0     C28234   1.593   0.751  10.658 -1.0527  0.0631  0.7589
  972MOL0     C28235   1.675   0.819  10.555  0.3596  0.5618  0.5327
  972MOL0     C28236   1.725   0.873  10.452  0.0262  0.0010 -0.1150
  972MOL0     C28237   0.943   0.727  10.791 -0.1625  0.1242  0.0690
  972MOL0     C28238   0.801   0.721  10.795 -0.4341 -0.6272 -0.5214
  972MOL0     H28239   0.314   0.622  10.609  1.0301  2.9928 -1.5017
  972MOL0     H28240   0.071   0.641  10.671 -0.5222  0.7633 -0.8641
  972MOL0     H28241  -0.098   0.560  10.818  3.9610  0.6037  0.1618
  972MOL0     H28242  -0.147   0.724  10.753 -0.8583  1.9307  1.5390
  972MOL0     H28243  -0.211   0.640  11.032  2.9838 -0.0385 -1.3344
  972MOL0     H28244  -0.318   0.602  10.892 -2.6940  0.8078  1.7211
  972MOL0     H28245  -0.351   0.821  10.835  0.8659 -1.5358 -0.3847
  972MOL0     H28246  -0.222   0.881  10.935  1.3223 -1.2217 -1.5450
  972MOL0     H28247  -0.496   0.761  11.035  0.0810 -1.0272 -1.1478
  972MOL0     H28248  -0.360   0.813  11.139  2.1531 -2.1383 -2.1129
  972MOL0     H28249  -0.541   0.976  11.120 -2.0937 -1.0186 -1.8946
  972MOL0     H28250  -0.514   0.984  10.949  2.4866 -0.0745 -1.2108
  972MOL0     H28251  -0.295   1.080  10.984 -3.3988  1.3585 -2.0357
  972MOL0     H28252  -0.286   1.038  11.161 -1.8478 -1.0514  1.9426
  972MOL0     H28253  -0.441   1.179  11.232  1.4367 -1.0879 -0.0571
  972MOL0     H28254  -0.298   1.253  11.142  1.7570 -0.6732  0.5281
  972MOL0     H28255  -0.462   1.254  10.948  3.8295 -4.6829  1.8128
  972MOL0     H28256  -0.479   1.369  11.072  0.9758  0.2394  0.5254
  972MOL0     H28257  -0.661   1.346  11.269 -1.2462  1.0405 -1.1183
  972MOL0     H28258  -0.952   1.100  11.323 -2.2284  1.3795  0.5956
  972MOL0     H28259  -0.971   1.266  11.307  0.5390  1.2001 -0.1503
  972MOL0     H28260  -0.906   1.227  11.529  0.8531  1.1967  0.2628
  972MOL0     H28261  -0.749   1.285  11.467 -0.0229 -1.2154  3.9412
  972MOL0     H28262  -0.847   0.997  11.509 -1.6610  0.9725  0.2142
  972MOL0     H28263  -0.702   1.016  11.417  1.8449 -2.6539  2.5294
  972MOL0     H28264  -0.650   0.978  11.654 -1.5361 -0.8177 -3.2263
  972MOL0     H28265  -0.755   1.119  11.692 -1.1129  0.5971 -0.7845
  972MOL0     H28266  -0.500   0.915  11.512  0.2072 -1.5656 -0.0566
  972MOL0     H28267  -0.287   0.854  11.433  1.5373  0.4579  0.7100
  972MOL0     H28268   0.038   0.673  11.283 -0.9656 -0.7069 -0.8186
  972MOL0     H28269   0.266   0.597  11.247 -0.1662  0.2003 -0.0695
  972MOL0     H28270   0.583   0.759  11.423 -0.5109 -2.2906  0.6942
  972MOL0     H28271   0.634   0.856  11.284  0.4323  0.0946  2.1612
  972MOL0     H28272   0.801   0.686  11.316 -0.3211  3.6086 -0.0097
  972MOL0     H28273   0.723   0.625  11.180  3.7004  0.7386  0.5717
  972MOL0     H28274   0.581   0.477  11.332  0.2647 -0.1882 -0.3239
  972MOL0     H28275   0.668   0.547  11.464  0.0900  1.1092  0.1983
  972MOL0     H28276   0.796   0.398  11.226  2.4479  2.0802 -0.3838
  972MOL0     H28277   0.877   0.474  11.360 -0.1245 -0.2820 -1.0928
  972MOL0     H28278   0.653   0.280  11.435 -0.3134  0.4113 -1.0687
  972MOL0     H28279   0.788   0.343  11.528 -0.2361  1.7703 -0.4551
  972MOL0     H28280   0.940   0.181  11.383 -0.8526 -0.1338 -0.1321
  972MOL0     H28281   0.798   0.156  11.279 -1.5474  0.3928 -0.3164
  972MOL0     H28282   0.839  -0.044  11.425  0.4481  0.6412 -0.2764
  972MOL0     H28283   0.865   0.057  11.565  1.0864  0.6785 -0.9222
  972MOL0     H28284   0.589   0.068  11.435 -1.1139  0.3082  0.3796
  972MOL0     H28285   0.645   0.087  11.601 -0.9753 -3.3223  1.7203
  972MOL0     H28286   0.418   0.981  11.329  0.7092  1.1478 -1.1517
  972MOL0     H28287   0.201   1.058  11.410  1.0457  1.2329 -0.3184
  972MOL0     H28288  -0.154   1.260  11.505 -0.1145 -0.7123  1.0663
  972MOL0     H28289  -0.355   1.319  11.604 -0.5124 -0.7794  2.8157
  972MOL0     H28290   0.173   0.796  11.047 -0.5396  0.7512  0.4401
  972MOL0     H28291   0.412   0.759  10.999 -0.4468  1.3696  0.9544
  972MOL0     H28292   0.748   0.840  10.485 -5.1642  0.9807  3.1390
  972MOL0     H28293   0.985   0.828  10.471 -1.1271 -1.3078 -0.2951
  972MOL0     H28294   1.174   0.967  10.584 -2.3314 -1.2515  0.4481
  972MOL0     H28295   1.205   0.811  10.495  0.2337 -0.8958  0.9670
  972MOL0     H28296   1.424   0.954  10.558  1.2695  1.7538  1.7701
  972MOL0     H28297   1.382   0.924  10.719  0.4106  0.9824 -1.0354
  972MOL0     H28298   1.428   0.699  10.520 -1.2208 -3.0645  1.4936
  972MOL0     H28299   1.406   0.682  10.698  0.6079  1.8465  1.8025
  972MOL0     H28300   1.614   0.804  10.751  2.1305 -2.3513  1.5843
  972MOL0     H28301   1.629   0.649  10.676  0.5181  0.2878 -0.8139
  972MOL0     H28302   1.765   0.895  10.355  0.7650 -0.5394  0.0583
  972MOL0     H28303   1.001   0.713  10.882 -1.8775  1.3729  1.4189
  972MOL0     H28304   0.758   0.687  10.888 -0.4741  1.0388  0.0917
  973MOL0     O28305  11.085  10.103   2.450 -0.2229 -0.1445 -0.5139
  973MOL0     C28306  11.024  10.206   2.420 -0.1088  0.4763 -1.0114
  973MOL0     O28307  10.895  10.234   2.462 -0.3585 -0.2649  0.5426
  973MOL0     C28308  10.839  10.131   2.539  0.6623 -0.7220 -0.2670
  973MOL0     C28309  10.855  10.126   2.678  0.6636 -0.3825  0.0625
  973MOL0     C28310  10.790  10.025   2.755 -0.6143  0.4399  0.1623
  973MOL0     C28311  10.714   9.927   2.689  0.7419  0.2820  0.6052
  973MOL0     O28312  10.638   9.846   2.764  0.0164 -0.0120  0.8102
  973MOL0     C28313  10.633   9.854   2.905  0.4279 -0.4595  0.0541
  973MOL0     C28314  10.532   9.750   2.948  0.6229  0.5805  0.0749
  973MOL0     C28315  10.385   9.783   2.906 -0.0267  0.4692  0.0904
  973MOL0     C28316  10.333   9.906   2.989 -0.3884  0.3131  0.1482
  973MOL0     C28317  10.176   9.910   2.966  0.3176  0.2020 -0.0331
  973MOL0     C28318  10.115  10.039   3.021  0.1854  0.7238 -0.3173
  973MOL0     C28319   9.964  10.032   3.041  0.3879  0.0918 -0.1709
  973MOL0     C28320   9.882  10.004   2.915  0.3895 -1.0531  0.0984
  973MOL0     N28321   9.889  10.121   2.831 -0.4243  0.2194 -0.3564
  973MOL0     C28322   9.786  10.214   2.816  0.2484 -0.0398 -0.8495
  973MOL0     C28323   9.829  10.297   2.725 -0.1653  0.0353 -1.0232
  973MOL0     C28324   9.753  10.410   2.655 -0.0242  1.7779  0.2990
  973MOL0     C28325   9.626  10.361   2.589  0.0072  0.0190 -0.3510
  973MOL0     C28326   9.533  10.477   2.585  0.2925 -0.6397  0.6173
  973MOL0     C28327   9.408  10.433   2.507 -0.1164  1.1102  0.5341
  973MOL0     O28328   9.333  10.333   2.592  0.2398 -0.2760 -0.6908
  973MOL0     C28329   9.204  10.369   2.638  0.1233 -0.6729  0.8058
  973MOL0     C28330   9.180  10.350   2.781  0.2209 -0.0960  0.1977
  973MOL0     C28331   9.059  10.410   2.837  0.1916 -0.7775 -0.5807
  973MOL0     C28332   8.958  10.459   2.756  0.2515  0.8774  0.3130
  973MOL0     C28333   8.839  10.511   2.821 -0.0834  0.1164  0.2618
  973MOL0     O28334   8.728  10.506   2.757  0.5893  0.1185 -0.0518
  973MOL0     C28335   8.606  10.539   2.808  0.8195 -0.4266 -0.1108
  973MOL0     C28336   8.562  10.448   2.912 -0.1133 -0.3343 -0.3452
  973MOL0     C28337   8.431  10.470   2.968 -0.1693 -0.4202 -0.1057
  973MOL0     C28338   8.338  10.567   2.911  0.4133 -0.2736 -1.1594
  973MOL0     O28339   8.208  10.589   2.949  0.0491 -0.0507 -1.0234
  973MOL0     C28340   8.151  10.519   3.068 -0.8691  0.5655 -0.0719
  973MOL0     C28341   8.006  10.574   3.095  0.1566  0.1930 -0.4413
  973MOL0     C28342   7.948  10.491   3.213 -0.0481  0.1989 -0.0246
  973MOL0     C28343   7.805  10.535   3.246  0.4322 -0.3847 -0.0479
  973MOL0     C28344   7.702  10.457   3.167  0.6373 -0.4779  0.3216
  973MOL0     C28345   7.567  10.533   3.176 -0.1062  0.3096  0.3493
  973MOL0     C28346   7.462  10.472   3.093  0.1386 -0.4068 -0.5288
  973MOL0     C28347   7.481  10.513   2.945 -0.1856 -0.1108  0.3081
  973MOL0    Cl28348   7.335  10.451   2.856  0.2292  0.7157  0.0524
  973MOL0     C28349   8.389  10.646   2.806  0.2942  0.2815  0.6156
  973MOL0     C28350   8.518  10.634   2.759  0.8488  0.0744 -0.2299
  973MOL0     O28351   8.850  10.558   2.931 -0.1066 -0.0770  0.1453
  973MOL0     C28352   8.977  10.458   2.615  0.3198  0.3034  0.3293
  973MOL0     C28353   9.106  10.433   2.556  0.0856  0.7174 -0.4809
  973MOL0     N28354   9.962  10.266   2.691 -0.5008  0.7210  0.0301
  973MOL0     N28355   9.993  10.153   2.749  0.0132 -0.8472  1.1846
  973MOL0     C28356  10.703   9.929   2.546  1.8079 -0.5435 -0.1280
  973MOL0     C28357  10.753  10.038   2.476 -0.5626  1.0452 -0.4114
  973MOL0     C28358  11.078  10.303   2.318 -0.1472  0.4786 -0.6800
  973MOL0     C28359  11.011  10.429   2.300 -0.6133  0.1665 -0.4787
  973MOL0     C28360  11.071  10.519   2.216  0.8834  0.0500 -0.4314
  973MOL0     C28361  11.196  10.498   2.147  1.2387 -0.6850 -0.4565
  973MOL0     O28362  11.232  10.599   2.060  0.1129  0.8963 -0.5386
  973MOL0     C28363  11.355  10.585   1.998  0.6478 -0.4994 -0.2514
  973MOL0     C28364  11.381  10.713   1.918 -0.5079 -0.2504 -0.2144
  973MOL0     C28365  11.511  10.723   1.839 -0.2850  0.0733 -0.2049
  973MOL0     C28366  11.484  10.745   1.698 -0.5600 -0.0262 -0.7643
  973MOL0     C28367  11.395  10.635   1.644  0.0015  0.2167 -1.2763
  973MOL0     C28368  11.305  10.560   1.600  0.2012 -0.4815 -0.7337
  973MOL0     C28369  11.251  10.371   2.170  0.1622 -0.0705 -0.8528
  973MOL0     C28370  11.188  10.267   2.242  0.1329 -0.7344 -0.8458
  973MOL0     H28371  10.923  10.199   2.722  2.9138 -2.9292  1.1193
  973MOL0     H28372  10.803  10.022   2.862  2.1401  0.0463 -0.1219
  973MOL0     H28373  10.594   9.949   2.943  1.7420  0.2623 -0.3458
  973MOL0     H28374  10.735   9.835   2.942  0.9911  1.2830 -0.5239
  973MOL0     H28375  10.531   9.725   3.054 -0.7063 -1.4035 -0.3557
  973MOL0     H28376  10.563   9.659   2.896 -2.2607 -0.3337 -0.2403
  973MOL0     H28377  10.320   9.698   2.926  0.0774  0.4460  0.3403
  973MOL0     H28378  10.364   9.813   2.803 -1.3245  2.2252  0.8126
  973MOL0     H28379  10.358   9.884   3.093  1.6280 -1.5324 -0.6404
  973MOL0     H28380  10.396   9.995   2.977  2.1540 -1.5840 -1.8192
  973MOL0     H28381  10.130   9.822   3.011 -1.1383  0.0066 -1.8049
  973MOL0     H28382  10.155   9.916   2.859  2.4399  0.0171 -0.5052
  973MOL0     H28383  10.125  10.123   2.952 -2.0800  0.0418 -1.5664
  973MOL0     H28384  10.165  10.061   3.116  1.0991 -3.4517  0.3750
  973MOL0     H28385   9.950   9.949   3.111  2.8859  1.0924  1.6483
  973MOL0     H28386   9.935  10.129   3.082  2.0821  0.7429 -0.4463
  973MOL0     H28387   9.779   9.986   2.947  0.1353 -1.4627 -0.9267
  973MOL0     H28388   9.906   9.912   2.862  1.8039 -0.9502  0.5181
  973MOL0     H28389   9.699  10.218   2.881 -1.1265  1.8162 -2.6892
  973MOL0     H28390   9.821  10.465   2.589  2.5863  2.0620  2.9976
  973MOL0     H28391   9.727  10.482   2.733  0.1073  1.3988  0.6958
  973MOL0     H28392   9.582  10.279   2.646 -0.4464 -2.0414 -3.3875
  973MOL0     H28393   9.657  10.324   2.491  0.3846  2.9747 -1.4357
  973MOL0     H28394   9.495  10.486   2.687 -1.0357 -0.4456  0.1228
  973MOL0     H28395   9.571  10.570   2.543 -0.2385 -0.1978  1.1103
  973MOL0     H28396   9.448  10.379   2.421  4.5469 -1.0679  3.6118
  973MOL0     H28397   9.344  10.518   2.484 -0.7641  0.5046  0.0705
  973MOL0     H28398   9.269  10.333   2.840 -0.2469  3.8835  2.4494
  973MOL0     H28399   9.060  10.424   2.944  3.7086  2.3425 -0.8221
  973MOL0     H28400   8.626  10.368   2.947 -1.2701 -1.1956 -0.1345
  973MOL0     H28401   8.395  10.410   3.051 -1.3362  0.5437  0.1147
  973MOL0     H28402   8.212  10.536   3.158  0.7656  1.4077 -1.2934
  973MOL0     H28403   8.140  10.411   3.056 -3.7700  0.9017 -1.1655
  973MOL0     H28404   7.948  10.554   3.005 -0.9992 -0.0627  0.3503
  973MOL0     H28405   8.017  10.682   3.107  2.6361  0.3858 -3.1234
  973MOL0     H28406   8.014  10.510   3.298 -0.8514  0.0773  0.6455
  973MOL0     H28407   7.944  10.385   3.190 -1.2859  0.0811  0.6142
  973MOL0     H28408   7.788  10.517   3.352  0.3707  0.7126  0.1361
  973MOL0     H28409   7.801  10.644   3.243  1.4403 -0.2584 -4.8098
  973MOL0     H28410   7.692  10.352   3.195 -0.5230 -0.4548  0.0385
  973MOL0     H28411   7.720  10.461   3.059 -2.1356 -2.1851 -0.3076
  973MOL0     H28412   7.576  10.642   3.176  1.3772  0.2165  1.0556
  973MOL0     H28413   7.532  10.517   3.278 -0.1811 -1.0595  0.1295
  973MOL0     H28414   7.464  10.363   3.099  2.8914 -0.4680 -1.1820
  973MOL0     H28415   7.361  10.510   3.116 -0.9825 -1.6976 -2.9259
  973MOL0     H28416   7.569  10.458   2.911 -1.1730 -1.3142 -0.3741
  973MOL0     H28417   7.510  10.615   2.916 -1.2288 -0.1029 -0.7691
  973MOL0     H28418   8.321  10.719   2.763 -0.1697  1.8007  3.6298
  973MOL0     H28419   8.537  10.700   2.675  2.3249  1.7584  1.3339
  973MOL0     H28420   8.897  10.480   2.544  0.7461  1.4912  0.1923
  973MOL0     H28421   9.118  10.460   2.451  1.6349  1.4962 -0.1291
  973MOL0     H28422  10.633   9.861   2.499  0.5516  0.2173  0.5990
  973MOL0     H28423  10.748  10.056   2.369 -0.6058  1.3013 -0.3686
  973MOL0     H28424  10.924  10.456   2.360 -1.8683  1.7777 -2.8670
  973MOL0     H28425  11.014  10.607   2.190  1.3309  0.0374 -1.4825
  973MOL0     H28426  11.368  10.503   1.926  1.3113 -2.7445  2.2427
  973MOL0     H28427  11.427  10.564   2.078 -1.4949  0.1887  1.9979
  973MOL0     H28428  11.297  10.753   1.860  2.1429  1.0467 -3.5693
  973MOL0     H28429  11.399  10.795   1.988  1.6154 -0.0602 -0.9150
  973MOL0     H28430  11.579  10.639   1.855  0.8543  1.0667  0.4301
  973MOL0     H28431  11.563  10.815   1.870 -0.0877  0.6375 -2.1066
  973MOL0     H28432  11.449  10.847   1.681 -1.1569 -0.1245 -0.1740
  973MOL0     H28433  11.580  10.740   1.645 -1.3673  0.0700 -2.2882
  973MOL0     H28434  11.223  10.494   1.579 -0.0530 -1.1520  2.0357
  973MOL0     H28435  11.350  10.344   2.136 -0.7960 -1.0559 -3.0310
  973MOL0     H28436  11.237  10.174   2.267 -3.5397 -2.0823  2.4743
  974MOL0     O28437   5.865   3.663   5.453 -0.4405 -0.1875 -0.5798
  974MOL0     C28438   5.863   3.741   5.362  0.6144 -0.0356  0.4471
  974MOL0     O28439   5.958   3.826   5.326 -0.0361  0.1204  0.2335
  974MOL0     C28440   6.063   3.843   5.415  0.0649 -0.4661  0.5131
  974MOL0     C28441   6.035   3.948   5.498 -0.1784  0.6158  0.1426
  974MOL0     C28442   6.122   3.992   5.591 -0.1248 -0.1337  0.7364
  974MOL0     C28443   6.247   3.934   5.600  0.1723  0.1542 -0.2051
  974MOL0     O28444   6.319   3.980   5.708  1.1185  0.1898  0.4621
  974MOL0     C28445   6.445   3.921   5.734 -0.4544 -0.3479  0.4057
  974MOL0     C28446   6.535   3.992   5.834 -0.5598  0.6744  0.0799
  974MOL0     C28447   6.578   4.123   5.776  0.2508 -0.3861 -1.4249
  974MOL0     C28448   6.699   4.182   5.847 -0.0667  0.1459 -0.8084
  974MOL0     C28449   6.763   4.309   5.801  0.5834 -0.2761 -0.2731
  974MOL0     C28450   6.806   4.308   5.659 -0.5710 -0.7697 -0.2248
  974MOL0     C28451   6.895   4.429   5.618 -0.1676  0.2761 -0.8325
  974MOL0     C28452   6.937   4.410   5.473  0.0920  0.3318  0.3067
  974MOL0     N28453   6.810   4.425   5.388 -0.0847  0.8140  0.3057
  974MOL0     C28454   6.745   4.539   5.363  0.3018  0.4790 -0.8805
  974MOL0     C28455   6.685   4.521   5.243 -0.0996  0.2398  0.1702
  974MOL0     C28456   6.596   4.609   5.159 -0.1374  0.8235  0.3108
  974MOL0     C28457   6.515   4.716   5.232 -0.4587  0.1700 -0.4347
  974MOL0     C28458   6.423   4.770   5.121  0.6420  0.0038 -0.1491
  974MOL0     C28459   6.344   4.894   5.181  0.0348  0.1353  0.1171
  974MOL0     O28460   6.292   4.860   5.315 -0.5037  0.2764  0.4374
  974MOL0     C28461   6.175   4.920   5.352  0.9045  0.4131 -0.2017
  974MOL0     C28462   6.127   5.038   5.298 -0.3294 -0.3942  0.0201
  974MOL0     C28463   6.012   5.101   5.356  0.9765  0.5525 -0.4381
  974MOL0     C28464   5.940   5.042   5.465 -1.1660 -0.5929 -0.2418
  974MOL0     C28465   5.813   5.101   5.518  0.4497  0.4597  0.0574
  974MOL0     O28466   5.769   5.051   5.634  1.0054  0.0263 -0.7057
  974MOL0     C28467   5.638   5.083   5.677  0.1240  0.5009  0.1151
  974MOL0     C28468   5.630   5.099   5.817  0.5776 -0.3882  0.0493
  974MOL0     C28469   5.505   5.125   5.866 -0.0983 -0.2071  0.5890
  974MOL0     C28470   5.389   5.125   5.780 -0.3140  1.3991 -0.1155
  974MOL0     O28471   5.264   5.144   5.832  0.1546  0.2378 -0.0498
  974MOL0     C28472   5.242   5.085   5.960  0.2481 -0.2889  0.0360
  974MOL0     C28473   5.111   5.146   6.006 -0.0029  0.0376 -0.2216
  974MOL0     C28474   5.106   5.153   6.157 -0.3489  0.4852  0.0722
  974MOL0     C28475   5.071   5.010   6.213  0.2703 -0.2023  1.0785
  974MOL0     C28476   5.063   5.017   6.363 -0.3825  0.7126  0.0324
  974MOL0     C28477   4.930   5.073   6.413 -1.6408  0.4453  0.1212
  974MOL0     C28478   4.932   5.048   6.565 -0.4824  0.4308  0.2584
  974MOL0     C28479   4.841   5.148   6.639 -0.7958  0.2850  0.9495
  974MOL0    Cl28480   4.934   5.307   6.631 -0.1606  0.1174 -0.2543
  974MOL0     C28481   5.394   5.100   5.640  0.2487 -0.1979 -0.5379
  974MOL0     C28482   5.527   5.074   5.586 -0.0123  0.3616  0.4246
  974MOL0     O28483   5.756   5.187   5.451 -0.1538  0.3863  0.4594
  974MOL0     C28484   5.993   4.924   5.517 -0.2225 -0.9198 -0.0935
  974MOL0     C28485   6.108   4.871   5.456  0.2145  0.5640  0.0800
  974MOL0     N28486   6.714   4.398   5.194  0.5945  0.4751 -0.4946
  974MOL0     N28487   6.789   4.339   5.284 -0.0215  0.0998  0.6101
  974MOL0     C28488   6.287   3.831   5.513 -0.1442 -0.2513 -0.3114
  974MOL0     C28489   6.195   3.786   5.415  0.1943  1.0283  0.5917
  974MOL0     C28490   5.744   3.740   5.276  0.4870  0.1707  1.3500
  974MOL0     C28491   5.684   3.853   5.225  0.3206 -0.1808  0.1071
  974MOL0     C28492   5.566   3.850   5.149  0.1167 -0.2361  0.2201
  974MOL0     C28493   5.500   3.728   5.133  0.3380  0.1809  0.5504
  974MOL0     O28494   5.375   3.713   5.075  0.3820 -0.0442 -0.0070
  974MOL0     C28495   5.309   3.813   4.998  0.2242  0.5065 -0.3350
  974MOL0     C28496   5.167   3.770   4.969 -0.5129  0.7713  0.4414
  974MOL0     C28497   5.076   3.770   5.092 -0.0020  0.0365  0.5778
  974MOL0     C28498   5.105   3.884   5.198  0.8120  0.3801 -0.7932
  974MOL0     C28499   5.082   4.022   5.144  0.7568  0.0960  0.1754
  974MOL0     C28500   5.050   4.135   5.099  0.2086  0.0777 -0.2953
  974MOL0     C28501   5.555   3.611   5.185  0.2338 -0.2283 -1.3865
  974MOL0     C28502   5.671   3.623   5.259 -0.4117 -0.0152 -0.1628
  974MOL0     H28503   5.939   3.996   5.488 -0.9373 -1.0971 -1.3675
  974MOL0     H28504   6.082   4.068   5.657 -0.3081  0.8983 -0.5091
  974MOL0     H28505   6.499   3.902   5.641 -2.0346 -1.0556 -0.4201
  974MOL0     H28506   6.430   3.826   5.786  0.2434 -0.5602  0.2286
  974MOL0     H28507   6.623   3.930   5.851 -0.1963  1.1526 -0.0204
  974MOL0     H28508   6.485   4.003   5.931  0.8629  0.4500  0.8701
  974MOL0     H28509   6.496   4.196   5.771 -0.3672 -1.0283 -0.7928
  974MOL0     H28510   6.603   4.106   5.670 -0.8608 -1.0013 -1.6011
  974MOL0     H28511   6.673   4.207   5.951  2.0522  0.1094 -0.2354
  974MOL0     H28512   6.776   4.104   5.849 -1.3195 -1.1366 -0.7339
  974MOL0     H28513   6.853   4.320   5.863  0.8080  0.8622 -0.7723
  974MOL0     H28514   6.708   4.401   5.825  3.1290  1.5991 -1.1672
  974MOL0     H28515   6.722   4.294   5.590  0.0785  0.3793 -1.2908
  974MOL0     H28516   6.882   4.229   5.653  1.1560  0.3125  3.5834
  974MOL0     H28517   6.840   4.523   5.628  1.6444  1.1543  2.8607
  974MOL0     H28518   6.979   4.432   5.688 -0.9431  1.3023  0.0883
  974MOL0     H28519   6.978   4.310   5.458  0.4385  0.4929  0.1748
  974MOL0     H28520   7.015   4.484   5.455  1.1776 -0.4053  1.7657
  974MOL0     H28521   6.746   4.620   5.436 -0.7279 -2.8353  3.2105
  974MOL0     H28522   6.521   4.540   5.120  0.2694  0.3309  0.3911
  974MOL0     H28523   6.655   4.658   5.081  0.1692  0.7374  0.4867
  974MOL0     H28524   6.579   4.797   5.267  0.0462  0.7812 -2.6003
  974MOL0     H28525   6.459   4.672   5.315 -0.9103 -0.2718 -0.9648
  974MOL0     H28526   6.473   4.797   5.027 -1.3066  0.8168 -1.0124
  974MOL0     H28527   6.354   4.693   5.084  0.1713 -0.5668  1.7956
  974MOL0     H28528   6.260   4.921   5.116 -1.3351  0.2654  1.8624
  974MOL0     H28529   6.407   4.983   5.183 -1.1355  1.0898 -2.2640
  974MOL0     H28530   6.166   5.091   5.211 -2.7461  2.0519  0.2953
  974MOL0     H28531   5.970   5.191   5.310  0.3979 -0.1416 -1.2977
  974MOL0     H28532   5.719   5.090   5.878  1.8311 -0.8418 -1.7460
  974MOL0     H28533   5.491   5.137   5.973 -1.5608  2.4404  0.1890
  974MOL0     H28534   5.314   5.099   6.041  1.5790 -2.9007 -0.6052
  974MOL0     H28535   5.244   4.979   5.935 -0.6387  0.0420 -1.5425
  974MOL0     H28536   5.024   5.096   5.962 -0.6759  0.9110  0.0846
  974MOL0     H28537   5.096   5.248   5.968  0.0391 -0.4291 -1.5437
  974MOL0     H28538   5.030   5.224   6.191 -0.8538 -0.4204  0.9173
  974MOL0     H28539   5.200   5.191   6.198 -0.3754  0.1307  0.4720
  974MOL0     H28540   4.976   4.967   6.177  0.3772 -1.5726  2.3549
  974MOL0     H28541   5.151   4.943   6.179 -0.9776 -0.8966 -0.6394
  974MOL0     H28542   5.145   5.082   6.395 -0.7543  1.8939 -1.3211
  974MOL0     H28543   5.071   4.914   6.399 -1.1233 -0.1953 -2.1954
  974MOL0     H28544   4.846   5.012   6.378 -0.4379 -3.4436  3.2039
  974MOL0     H28545   4.929   5.178   6.385 -0.4844  0.5607  0.4508
  974MOL0     H28546   4.894   4.948   6.588  0.1183  0.4814  1.5221
  974MOL0     H28547   5.030   5.056   6.613  0.4152 -2.5618 -0.8025
  974MOL0     H28548   4.835   5.112   6.742  1.9437 -0.6095  0.8770
  974MOL0     H28549   4.746   5.160   6.585 -0.0335  2.5427 -0.0395
  974MOL0     H28550   5.303   5.099   5.581 -0.1143  2.4089 -0.1056
  974MOL0     H28551   5.547   5.058   5.481  1.0639  0.4426  0.6025
  974MOL0     H28552   5.948   4.868   5.599 -1.1708  1.6780  1.2975
  974MOL0     H28553   6.142   4.774   5.493 -1.1648 -0.8832 -2.2521
  974MOL0     H28554   6.390   3.797   5.519  0.1464  0.6680 -0.0130
  974MOL0     H28555   6.232   3.706   5.352 -1.1689 -0.7272  1.9026
  974MOL0     H28556   5.734   3.946   5.251 -1.4715  1.0192 -0.5610
  974MOL0     H28557   5.523   3.937   5.100 -0.9657 -0.8957 -0.0379
  974MOL0     H28558   5.368   3.816   4.906 -0.7749  0.8757 -0.9741
  974MOL0     H28559   5.316   3.911   5.045  4.2003  0.7999 -1.1313
  974MOL0     H28560   5.128   3.850   4.905  1.7971  0.7459 -1.1261
  974MOL0     H28561   5.173   3.679   4.908 -4.2247  1.0056 -0.5454
  974MOL0     H28562   5.086   3.673   5.141  2.2886 -0.3839 -0.5545
  974MOL0     H28563   4.972   3.768   5.061  0.3217 -4.7589 -1.0673
  974MOL0     H28564   5.018   3.876   5.264  0.0665 -1.3630 -1.9299
  974MOL0     H28565   5.200   3.876   5.252  0.4070  0.1291 -0.1116
  974MOL0     H28566   4.996   4.224   5.070  0.8142  1.6669  3.0329
  974MOL0     H28567   5.493   3.522   5.188 -0.9219  0.5555  1.4525
  974MOL0     H28568   5.712   3.530   5.297 -0.2027 -0.5425 -1.5767
  975MOL0     O28569   6.183   3.539   8.086  0.0696  0.0288 -0.2216
  975MOL0     C28570   6.240   3.572   8.189 -0.0054 -0.3506 -0.4687
  975MOL0     O28571   6.173   3.621   8.296 -0.6292  0.1618  0.1825
  975MOL0     C28572   6.036   3.632   8.298 -0.5274  0.4330  0.5280
  975MOL0     C28573   5.957   3.529   8.255 -0.0632  0.1712 -0.2103
  975MOL0     C28574   5.826   3.533   8.266  0.2954  1.0462  0.8972
  975MOL0     C28575   5.763   3.645   8.329 -0.2298 -0.8717  0.0619
  975MOL0     O28576   5.634   3.671   8.359 -0.2890  0.1651  0.0336
  975MOL0     C28577   5.535   3.570   8.315 -0.2392 -0.4394 -0.5267
  975MOL0     C28578   5.391   3.623   8.337  0.1326 -0.3686  0.0765
  975MOL0     C28579   5.357   3.760   8.287  0.2093 -0.4320  0.3185
  975MOL0     C28580   5.212   3.775   8.293 -0.4229 -0.8114  0.7592
  975MOL0     C28581   5.188   3.917   8.243  0.3161  0.8128 -0.3593
  975MOL0     C28582   5.041   3.937   8.236 -0.0407 -0.5314 -0.5668
  975MOL0     C28583   4.952   3.939   8.356  0.4420  0.1136 -0.6532
  975MOL0     C28584   4.802   3.977   8.335 -0.4397  0.5145  0.6462
  975MOL0     N28585   4.710   3.886   8.282 -0.4379  0.5744  1.5820
  975MOL0     C28586   4.582   3.920   8.250 -0.1328  0.0864 -0.5317
  975MOL0     C28587   4.538   3.809   8.178  0.2588 -0.0051 -1.0379
  975MOL0     C28588   4.409   3.802   8.103  0.2301 -0.2062 -0.1807
  975MOL0     C28589   4.302   3.749   8.196 -0.0107  0.3431  0.2037
  975MOL0     C28590   4.175   3.740   8.107  1.1867  0.0409  0.6248
  975MOL0     C28591   4.043   3.697   8.179  0.4157 -0.1068  0.4165
  975MOL0     O28592   3.941   3.761   8.111  0.2855 -0.3344  0.2246
  975MOL0     C28593   3.810   3.744   8.156  0.6510  0.5442 -0.7093
  975MOL0     C28594   3.768   3.627   8.233  1.1227 -0.1392  0.7039
  975MOL0     C28595   3.633   3.605   8.257  0.4704 -0.1627  0.0861
  975MOL0     C28596   3.534   3.698   8.213 -0.1781 -0.8192  0.1053
  975MOL0     C28597   3.388   3.674   8.218 -0.9562  0.6860  0.4666
  975MOL0     O28598   3.357   3.549   8.265 -0.4587 -0.1171 -0.5956
  975MOL0     C28599   3.230   3.506   8.291  0.3809  0.0444 -1.5768
  975MOL0     C28600   3.212   3.371   8.297 -0.5853  0.0358 -0.4700
  975MOL0     C28601   3.081   3.312   8.330  0.3972  0.2910 -0.7105
  975MOL0     C28602   2.985   3.400   8.374 -0.2967 -0.1895  1.0969
  975MOL0     O28603   2.861   3.356   8.410 -0.5269 -0.5819  0.6876
  975MOL0     C28604   2.806   3.405   8.534 -0.0455 -0.0111 -0.5246
  975MOL0     C28605   2.701   3.304   8.578  0.1336 -0.0783  0.0449
  975MOL0     C28606   2.651   3.318   8.723  0.8066  0.0360  0.6092
  975MOL0     C28607   2.571   3.445   8.746  0.7650  0.4642 -1.3835
  975MOL0     C28608   2.498   3.446   8.876  0.1993 -0.2534 -0.3835
  975MOL0     C28609   2.577   3.426   8.999  0.5289 -0.1534 -0.2540
  975MOL0     C28610   2.674   3.547   9.028  0.3427  0.3041 -0.8285
  975MOL0     C28611   2.817   3.542   8.973  1.2003 -0.4797 -0.9314
  975MOL0    Cl28612   2.901   3.400   9.019  0.4664 -0.1419 -0.1338
  975MOL0     C28613   3.005   3.542   8.375  0.5134 -0.1640 -0.0451
  975MOL0     C28614   3.132   3.595   8.351 -0.3272  0.0722  0.9864
  975MOL0     O28615   3.312   3.762   8.186  0.2061  0.3461 -0.3094
  975MOL0     C28616   3.578   3.806   8.142  0.9353  0.3861 -0.2041
  975MOL0     C28617   3.712   3.822   8.107  0.1873 -0.5175  0.1593
  975MOL0     N28618   4.633   3.710   8.200  0.5533 -0.8761  0.2656
  975MOL0     N28619   4.739   3.762   8.261  0.0569  0.3341  0.7707
  975MOL0     C28620   5.844   3.746   8.370 -0.2363 -0.3971 -0.0728
  975MOL0     C28621   5.979   3.738   8.364 -0.7421 -0.7703  0.9240
  975MOL0     C28622   6.385   3.568   8.202  0.1200  1.1434 -0.8449
  975MOL0     C28623   6.451   3.639   8.297  0.1299 -0.3533 -0.8024
  975MOL0     C28624   6.579   3.618   8.322  0.5048  0.1581 -0.3346
  975MOL0     C28625   6.652   3.520   8.254 -0.5230 -1.3755  0.7506
  975MOL0     O28626   6.791   3.515   8.269 -0.5049 -0.2127  0.0442
  975MOL0     C28627   6.875   3.434   8.186  0.8323  0.7791  0.5174
  975MOL0     C28628   7.017   3.499   8.200  0.2716  0.2868 -0.0256
  975MOL0     C28629   7.084   3.467   8.336  0.1481 -0.4944  0.3492
  975MOL0     C28630   7.232   3.508   8.329 -0.2060  0.1415  0.0145
  975MOL0     C28631   7.290   3.463   8.450  0.1690 -0.4253 -0.3444
  975MOL0     C28632   7.341   3.412   8.550  0.7168 -0.1781  0.5122
  975MOL0     C28633   6.586   3.436   8.162  0.8405 -0.2277  0.4865
  975MOL0     C28634   6.452   3.466   8.133  0.1938  0.1293 -1.1847
  975MOL0     H28635   6.011   3.445   8.212  0.7370  0.4194  0.2831
  975MOL0     H28636   5.772   3.447   8.225 -0.1482  0.3756  2.8057
  975MOL0     H28637   5.528   3.493   8.393 -2.0179  3.1224  3.2338
  975MOL0     H28638   5.547   3.533   8.213  0.1959 -2.4478  0.2192
  975MOL0     H28639   5.372   3.621   8.445  3.3811 -0.7713  0.7365
  975MOL0     H28640   5.327   3.545   8.294 -0.9389 -0.5568  1.9046
  975MOL0     H28641   5.392   3.746   8.184  0.2336 -2.2631  0.5326
  975MOL0     H28642   5.410   3.836   8.346 -0.0932 -0.6527  0.8804
  975MOL0     H28643   5.159   3.703   8.229 -1.9197  1.8106 -1.1382
  975MOL0     H28644   5.176   3.778   8.396 -0.5621  4.3601  0.8269
  975MOL0     H28645   5.227   3.931   8.142 -3.8923  0.0981 -2.2784
  975MOL0     H28646   5.235   3.985   8.315 -0.6762 -0.6950  1.8203
  975MOL0     H28647   5.008   3.860   8.165 -1.8078  1.1571 -1.6597
  975MOL0     H28648   5.031   4.036   8.192  0.2966  0.0055  0.5349
  975MOL0     H28649   4.965   3.837   8.394  0.9044 -0.3681 -2.0448
  975MOL0     H28650   4.988   4.016   8.424 -2.6513 -0.3419  1.7495
  975MOL0     H28651   4.797   4.072   8.280  2.0217 -0.4107 -1.3645
  975MOL0     H28652   4.755   3.990   8.433  0.7675  0.2606  1.2780
  975MOL0     H28653   4.530   4.014   8.265 -2.6984 -1.5078  1.3120
  975MOL0     H28654   4.431   3.742   8.015  1.0318  1.1922 -0.9797
  975MOL0     H28655   4.378   3.900   8.065 -1.2341 -1.3275 -2.0324
  975MOL0     H28656   4.292   3.825   8.274  4.5690  0.4983  0.8846
  975MOL0     H28657   4.331   3.652   8.237  1.1342  1.6266  2.5990
  975MOL0     H28658   4.159   3.840   8.064 -1.1874  0.2465  1.8349
  975MOL0     H28659   4.184   3.676   8.019 -1.0825 -0.0273  0.3734
  975MOL0     H28660   4.038   3.729   8.283  0.2116 -1.7482  0.9440
  975MOL0     H28661   4.039   3.588   8.172 -0.3753 -0.0091 -1.4035
  975MOL0     H28662   3.839   3.551   8.261  0.6096 -0.7260  0.4309
  975MOL0     H28663   3.602   3.513   8.306 -1.3727  1.1206  1.4300
  975MOL0     H28664   3.298   3.308   8.276  1.3747  2.9591 -1.8983
  975MOL0     H28665   3.074   3.205   8.314  1.9457  0.1794 -0.8531
  975MOL0     H28666   2.753   3.501   8.532  0.7207  0.4806  0.9847
  975MOL0     H28667   2.883   3.412   8.612  0.1176  0.4178 -0.7204
  975MOL0     H28668   2.735   3.200   8.569 -1.1584 -0.4371 -1.1633
  975MOL0     H28669   2.613   3.314   8.514  0.0750  1.1674  0.3078
  975MOL0     H28670   2.735   3.312   8.793  1.2167  0.6417  0.1779
  975MOL0     H28671   2.579   3.238   8.743 -0.9033  1.1859 -0.6283
  975MOL0     H28672   2.643   3.527   8.748 -1.1250  2.2096 -0.8496
  975MOL0     H28673   2.491   3.457   8.672 -2.2022  2.3591  1.7897
  975MOL0     H28674   2.417   3.373   8.882  1.0059 -1.0828  0.9525
  975MOL0     H28675   2.453   3.546   8.877  0.1487 -0.1724 -3.0624
  975MOL0     H28676   2.641   3.338   8.988  0.4663 -0.0664 -1.4702
  975MOL0     H28677   2.509   3.420   9.085 -0.6056 -1.8475 -1.2050
  975MOL0     H28678   2.629   3.638   8.986  2.7031  0.8345 -2.4027
  975MOL0     H28679   2.688   3.566   9.135  1.4064 -1.5718 -0.5970
  975MOL0     H28680   2.867   3.630   9.015  0.2442  0.5401 -1.8602
  975MOL0     H28681   2.819   3.562   8.866 -3.3648 -0.9985 -1.3096
  975MOL0     H28682   2.920   3.602   8.405 -1.7055 -1.2245 -3.6056
  975MOL0     H28683   3.170   3.696   8.367  2.0641 -1.0739  3.2739
  975MOL0     H28684   3.505   3.868   8.091  1.9980  0.3874 -1.7806
  975MOL0     H28685   3.749   3.908   8.052 -0.7616  0.8790  1.6267
  975MOL0     H28686   5.802   3.832   8.422  4.0258  0.2497  2.7914
  975MOL0     H28687   6.050   3.812   8.403  1.9551 -1.6067 -1.9907
  975MOL0     H28688   6.392   3.716   8.347  1.5985 -0.1349  0.7192
  975MOL0     H28689   6.622   3.676   8.403 -0.2212  1.9452 -1.1608
  975MOL0     H28690   6.859   3.439   8.077  2.4744 -0.5404  0.1814
  975MOL0     H28691   6.878   3.331   8.222  0.5761  1.2392  1.9020
  975MOL0     H28692   7.079   3.461   8.119 -0.0076  0.9463 -0.5634
  975MOL0     H28693   7.005   3.608   8.198  0.5906  0.3518 -2.9469
  975MOL0     H28694   7.079   3.360   8.357 -0.2276 -0.3641  0.9634
  975MOL0     H28695   7.034   3.513   8.422  0.5631  0.4012  0.1277
  975MOL0     H28696   7.261   3.454   8.238 -1.4639 -2.0855  0.8372
  975MOL0     H28697   7.234   3.617   8.328 -0.8115  0.1493 -0.9177
  975MOL0     H28698   7.396   3.369   8.631  0.5170 -0.2083  0.6320
  975MOL0     H28699   6.639   3.357   8.110  0.9132  1.2058 -1.7664
  975MOL0     H28700   6.389   3.412   8.064  0.8270 -0.0656 -1.6195
  976MOL0     O28701   4.294   8.848   5.458  0.2851 -0.3627  0.5718
  976MOL0     C28702   4.285   8.815   5.341 -0.8973  0.2836  0.1052
  976MOL0     O28703   4.378   8.835   5.247  0.5026  0.5763 -0.3606
  976MOL0     C28704   4.510   8.865   5.282 -0.3743 -1.1629 -1.0081
  976MOL0     C28705   4.590   8.944   5.196  0.2669  0.4073  1.2636
  976MOL0     C28706   4.722   8.992   5.227 -0.0065 -0.4557 -0.7910
  976MOL0     C28707   4.782   8.942   5.347  0.4110  0.3958 -0.1461
  976MOL0     O28708   4.912   8.982   5.388 -0.4863  0.2471  0.2523
  976MOL0     C28709   4.998   8.863   5.420 -0.1852  0.1661 -0.3515
  976MOL0     C28710   5.132   8.894   5.498  0.0618 -0.2755  0.0695
  976MOL0     C28711   5.235   8.985   5.412  0.0312 -0.6022  0.0027
  976MOL0     C28712   5.349   9.018   5.508  1.0016  0.5409  0.2703
  976MOL0     C28713   5.466   8.924   5.495  0.3697  0.9599  0.3083
  976MOL0     C28714   5.582   8.955   5.595  0.9945 -0.4292  0.5284
  976MOL0     C28715   5.708   8.871   5.555  0.3358 -0.6115  0.1139
  976MOL0     C28716   5.844   8.882   5.628  0.3241  0.2703 -0.4127
  976MOL0     N28717   5.845   8.861   5.773  0.6076  0.3282  0.0931
  976MOL0     C28718   5.811   8.955   5.864  0.5154 -0.9874  0.2030
  976MOL0     C28719   5.801   8.892   5.985  0.5151  0.5836  0.1621
  976MOL0     C28720   5.739   8.929   6.119  0.5522  0.0055  0.6327
  976MOL0     C28721   5.621   9.019   6.088 -0.0766 -0.3460  0.8115
  976MOL0     C28722   5.501   9.012   6.193  0.0922  0.0309 -0.4742
  976MOL0     C28723   5.358   9.060   6.156  1.4816  0.0272  0.3377
  976MOL0     O28724   5.334   8.995   6.036  0.0415  0.0817 -0.4674
  976MOL0     C28725   5.201   8.987   5.984 -0.5482  0.0746 -0.7911
  976MOL0     C28726   5.106   9.065   6.037 -0.3394 -0.2240  0.2071
  976MOL0     C28727   4.973   9.055   5.994 -0.8991  0.4863  0.1266
  976MOL0     C28728   4.941   8.953   5.899 -0.0763  0.3025  0.0799
  976MOL0     C28729   4.799   8.924   5.854 -0.5103 -1.3117  0.5691
  976MOL0     O28730   4.708   8.987   5.938  0.4072 -0.0874  0.1478
  976MOL0     C28731   4.574   8.971   5.929  0.2912  0.4105 -0.2524
  976MOL0     C28732   4.497   8.964   6.046  0.4273  1.0135  0.8151
  976MOL0     C28733   4.356   8.955   6.041 -0.3978 -0.2495 -0.0953
  976MOL0     C28734   4.293   8.953   5.918  0.6166 -0.4055  0.3801
  976MOL0     O28735   4.152   8.953   5.925  0.4534 -0.6089  0.1306
  976MOL0     C28736   4.081   8.887   5.818  0.7633  0.3216 -0.2501
  976MOL0     C28737   3.929   8.887   5.835  0.3689 -0.1973  0.1149
  976MOL0     C28738   3.874   8.761   5.774  0.6984  0.1448  0.2753
  976MOL0     C28739   3.734   8.773   5.721 -0.6204  0.0569  0.0760
  976MOL0     C28740   3.692   8.642   5.645 -0.4354 -0.1907 -1.5841
  976MOL0     C28741   3.544   8.635   5.626  1.0008 -0.1236 -0.3094
  976MOL0     C28742   3.495   8.488   5.613 -0.2301 -0.3224 -0.0607
  976MOL0     C28743   3.347   8.479   5.593 -0.1725  0.0020 -0.4798
  976MOL0    Cl28744   3.270   8.522   5.751  0.0158 -0.6163  0.2422
  976MOL0     C28745   4.369   8.955   5.800  0.2371  0.3857  0.9552
  976MOL0     C28746   4.504   8.970   5.809  0.1484 -0.0108  0.1542
  976MOL0     O28747   4.778   8.856   5.758 -0.4971 -0.2235  0.3866
  976MOL0     C28748   5.041   8.872   5.844  0.4537  0.0763 -0.6077
  976MOL0     C28749   5.175   8.898   5.888  0.6554  0.0304 -0.2758
  976MOL0     N28750   5.828   8.759   5.961 -0.2428  0.0493  0.5637
  976MOL0     N28751   5.867   8.747   5.835  0.2019 -0.4549 -0.8639
  976MOL0     C28752   4.705   8.863   5.433  0.8314 -0.7246  0.5292
  976MOL0     C28753   4.571   8.825   5.403 -0.0470  0.1076 -0.3494
  976MOL0     C28754   4.152   8.752   5.297 -0.8578  0.9211  0.2284
  976MOL0     C28755   4.073   8.690   5.397 -0.4363  0.6197  0.0140
  976MOL0     C28756   3.958   8.618   5.359  0.2486 -0.2430 -0.2240
  976MOL0     C28757   3.913   8.613   5.229  0.0061  0.4568  0.2376
  976MOL0     O28758   3.805   8.538   5.183 -0.2030  0.4997 -0.0431
  976MOL0     C28759   3.674   8.551   5.246 -0.6018  0.0885  0.0049
  976MOL0     C28760   3.567   8.478   5.159 -0.5627 -0.0291 -0.8138
  976MOL0     C28761   3.445   8.474   5.243  0.5975  0.3003  0.8706
  976MOL0     C28762   3.324   8.423   5.160 -0.1848 -0.4034 -0.6088
  976MOL0     C28763   3.210   8.407   5.251 -0.2970 -0.1303  0.2157
  976MOL0     C28764   3.105   8.388   5.300  0.4383  0.0935 -0.2087
  976MOL0     C28765   3.996   8.665   5.129 -0.1846 -0.4121 -0.2872
  976MOL0     C28766   4.111   8.735   5.163  0.5902 -0.8777  0.2369
  976MOL0     H28767   4.535   8.983   5.110  2.0269 -0.0415 -0.1260
  976MOL0     H28768   4.778   9.056   5.160 -1.8170  1.8862 -0.2051
  976MOL0     H28769   5.021   8.802   5.333  0.6290 -2.3516  1.5195
  976MOL0     H28770   4.951   8.791   5.487 -0.2915  2.3941  2.1302
  976MOL0     H28771   5.185   8.801   5.521  0.6161  0.5257  2.3734
  976MOL0     H28772   5.106   8.955   5.585 -2.3776 -0.1840 -0.6524
  976MOL0     H28773   5.190   9.082   5.390 -0.8816  0.1741  4.2708
  976MOL0     H28774   5.264   8.937   5.318  0.6688 -3.2326  1.4298
  976MOL0     H28775   5.394   9.111   5.472  0.3714  0.3038 -1.2204
  976MOL0     H28776   5.324   9.040   5.612  2.6953 -1.7123  1.2401
  976MOL0     H28777   5.498   8.929   5.391 -0.8027 -1.8251 -0.2781
  976MOL0     H28778   5.449   8.818   5.513 -0.5510  0.5763 -2.4023
  976MOL0     H28779   5.553   8.939   5.699 -1.9272 -1.2858 -0.3378
  976MOL0     H28780   5.595   9.064   5.585  1.7712 -0.4784  0.9451
  976MOL0     H28781   5.674   8.768   5.570  0.6687 -0.4418  2.2242
  976MOL0     H28782   5.719   8.884   5.447 -0.4924 -0.3244  0.0563
  976MOL0     H28783   5.885   8.981   5.609  3.5640 -0.1858  2.9127
  976MOL0     H28784   5.917   8.810   5.588  0.2332 -0.1064  0.0822
  976MOL0     H28785   5.770   9.053   5.845  0.0292 -1.0893  0.6795
  976MOL0     H28786   5.816   8.984   6.172  2.5615 -1.7040 -0.3649
  976MOL0     H28787   5.711   8.839   6.175  1.0978 -1.2678 -1.0779
  976MOL0     H28788   5.586   8.999   5.986  1.9563  2.5251 -0.5831
  976MOL0     H28789   5.655   9.123   6.083  0.4981 -0.5779 -0.5415
  976MOL0     H28790   5.494   8.908   6.225  1.2360 -0.5451 -1.9922
  976MOL0     H28791   5.530   9.075   6.278 -0.3147  3.3635 -2.6126
  976MOL0     H28792   5.363   9.169   6.145 -4.2866  0.6665  1.0519
  976MOL0     H28793   5.280   9.036   6.228 -0.0213  1.2465 -0.8182
  976MOL0     H28794   5.116   9.130   6.123 -2.9161 -0.2450  0.6102
  976MOL0     H28795   4.898   9.125   6.027  0.0976  2.9024 -2.3071
  976MOL0     H28796   4.546   8.975   6.142  0.3461  1.0808  0.8484
  976MOL0     H28797   4.303   8.952   6.135  0.0394 -0.1148  0.1568
  976MOL0     H28798   4.114   8.783   5.819  0.6815  0.2791  1.3393
  976MOL0     H28799   4.107   8.931   5.722  4.0176 -0.2391  0.2740
  976MOL0     H28800   3.892   8.981   5.792  3.6212  2.7920  3.1338
  976MOL0     H28801   3.888   8.892   5.937 -1.0840 -0.4496 -0.4229
  976MOL0     H28802   3.891   8.672   5.835 -1.6423  1.5543  3.2529
  976MOL0     H28803   3.926   8.727   5.683 -2.3134 -2.2049 -0.7355
  976MOL0     H28804   3.679   8.801   5.812  1.3643 -0.7460  1.5987
  976MOL0     H28805   3.720   8.859   5.655 -0.0038 -1.0966 -1.6398
  976MOL0     H28806   3.722   8.559   5.710  1.0783  0.5060 -1.3544
  976MOL0     H28807   3.745   8.636   5.549  1.5430  2.1402 -0.7386
  976MOL0     H28808   3.519   8.692   5.535  1.1801 -2.5454 -1.9726
  976MOL0     H28809   3.494   8.680   5.712  0.8217  1.1861 -1.0651
  976MOL0     H28810   3.556   8.427   5.545 -0.5752 -1.2067  0.3945
  976MOL0     H28811   3.508   8.443   5.712 -0.5620 -1.1700 -0.3894
  976MOL0     H28812   3.320   8.376   5.569 -1.3256 -0.2570  1.6868
  976MOL0     H28813   3.317   8.558   5.523  0.4000  0.8344  0.1988
  976MOL0     H28814   4.325   8.957   5.701  1.2886  1.2903  0.4811
  976MOL0     H28815   4.563   8.989   5.719 -1.6966  0.4155 -1.0082
  976MOL0     H28816   5.014   8.799   5.769 -1.7644 -0.3850  0.5556
  976MOL0     H28817   5.247   8.826   5.849 -0.4637  0.2529 -3.0354
  976MOL0     H28818   4.744   8.830   5.529 -0.1682  0.7116  1.4654
  976MOL0     H28819   4.519   8.762   5.475  1.4456  0.0786  0.7428
  976MOL0     H28820   4.101   8.696   5.501 -0.4922 -3.7685  0.4848
  976MOL0     H28821   3.900   8.572   5.438 -1.6539  3.0998  0.5015
  976MOL0     H28822   3.655   8.659   5.251 -2.7562 -0.2115 -0.6821
  976MOL0     H28823   3.668   8.520   5.351  0.1315  1.1494  0.3797
  976MOL0     H28824   3.546   8.534   5.068  0.2625 -0.3719 -1.2267
  976MOL0     H28825   3.600   8.376   5.137 -1.9458 -0.8220  0.6011
  976MOL0     H28826   3.417   8.571   5.286 -2.6099 -0.0413 -0.1588
  976MOL0     H28827   3.441   8.402   5.325 -1.7282 -0.3150  0.2862
  976MOL0     H28828   3.306   8.493   5.077  0.0674  2.6185  1.7138
  976MOL0     H28829   3.342   8.324   5.117 -0.8616 -1.4783  1.4386
  976MOL0     H28830   3.005   8.394   5.337  0.9606  3.3822  0.9504
  976MOL0     H28831   3.970   8.644   5.026 -0.6071 -3.5423  0.3654
  976MOL0     H28832   4.174   8.780   5.087 -0.7271  0.5569 -0.0550
  977MOL0     O28833   9.468   9.209   1.852  0.5594  0.6316 -0.4971
  977MOL0     C28834   9.466   9.253   1.738 -0.7098 -0.4560  0.5693
  977MOL0     O28835   9.362   9.241   1.641 -0.5718  0.5205  0.3459
  977MOL0     C28836   9.245   9.176   1.669 -0.1085  0.1030  0.2881
  977MOL0     C28837   9.135   9.258   1.704  0.2337  0.0586 -0.4926
  977MOL0     C28838   9.004   9.209   1.703  0.0028 -0.1125  0.7834
  977MOL0     C28839   8.977   9.074   1.675  0.5696 -0.5412  0.0896
  977MOL0     O28840   8.852   9.015   1.686  0.1270 -0.4115 -0.3427
  977MOL0     C28841   8.753   9.095   1.763 -0.2023 -0.4321  1.0170
  977MOL0     C28842   8.637   8.996   1.795  0.4406  0.3252  0.4582
  977MOL0     C28843   8.580   9.029   1.933  0.6561  0.6714 -1.3812
  977MOL0     C28844   8.511   9.163   1.934  0.2846 -1.2848 -0.4097
  977MOL0     C28845   8.385   9.184   2.016 -1.2485 -0.1453 -0.1698
  977MOL0     C28846   8.420   9.223   2.171  0.7505  0.4235 -0.1077
  977MOL0     C28847   8.301   9.180   2.258  1.0146 -0.5204 -0.2484
  977MOL0     C28848   8.182   9.270   2.270  0.5448 -0.0315 -0.1945
  977MOL0     N28849   8.077   9.210   2.348 -0.3421  0.3742 -0.3760
  977MOL0     C28850   7.948   9.203   2.309 -0.5340 -0.3856  0.2725
  977MOL0     C28851   7.872   9.182   2.416  0.3981 -0.2105 -0.6502
  977MOL0     C28852   7.716   9.177   2.434 -0.5905 -0.4881  0.2806
  977MOL0     C28853   7.648   9.083   2.331  0.7105  0.5178 -0.1448
  977MOL0     C28854   7.514   9.026   2.378 -0.3205  0.3003 -0.8763
  977MOL0     C28855   7.399   9.127   2.416 -0.5072 -0.1064 -0.6308
  977MOL0     O28856   7.393   9.162   2.554  0.3382  0.5637 -0.2123
  977MOL0     C28857   7.306   9.263   2.578 -0.4355  0.1813 -0.0842
  977MOL0     C28858   7.353   9.395   2.596 -0.0568  0.6536  0.0516
  977MOL0     C28859   7.271   9.500   2.635  0.0131  0.2262 -0.5008
  977MOL0     C28860   7.135   9.488   2.649 -0.8307 -0.7085  0.0970
  977MOL0     C28861   7.050   9.598   2.701 -1.0714 -0.1022  0.3973
  977MOL0     O28862   6.920   9.561   2.715 -0.3949  0.2380  0.2577
  977MOL0     C28863   6.831   9.656   2.744 -0.8824 -0.5936 -0.4846
  977MOL0     C28864   6.711   9.686   2.673 -0.3123  0.4638  0.5782
  977MOL0     C28865   6.609   9.770   2.725 -0.2777  0.5767  0.2925
  977MOL0     C28866   6.631   9.833   2.851 -0.0979  0.5952 -0.5295
  977MOL0     O28867   6.530   9.908   2.910 -0.3927 -1.1179 -0.5894
  977MOL0     C28868   6.396   9.905   2.854 -0.4176  0.4122  0.7143
  977MOL0     C28869   6.290   9.936   2.961 -0.5352 -0.0399  0.3637
  977MOL0     C28870   6.153   9.985   2.911  0.1729  0.4202 -0.5850
  977MOL0     C28871   6.045   9.954   3.026 -1.1082 -0.0638 -0.2125
  977MOL0     C28872   5.926  10.046   3.030  1.1566 -0.6584  0.0186
  977MOL0     C28873   5.823  10.001   3.145  0.5444  0.3403 -0.2472
  977MOL0     C28874   5.702  10.103   3.153 -0.0847  1.0118 -1.2623
  977MOL0     C28875   5.608  10.053   3.270 -0.9134 -0.4066  0.2214
  977MOL0    Cl28876   5.485  10.166   3.280  0.1744 -0.1953  0.3751
  977MOL0     C28877   6.756   9.821   2.916  0.9309 -0.0982 -0.2389
  977MOL0     C28878   6.847   9.731   2.860  0.1580 -0.2466  0.2742
  977MOL0     O28879   7.108   9.709   2.732 -0.2402  1.1614  0.0571
  977MOL0     C28880   7.082   9.359   2.617  0.1742  0.2035  0.6411
  977MOL0     C28881   7.161   9.246   2.578  0.5845  0.2141  0.9693
  977MOL0     N28882   7.962   9.186   2.522  0.2632  0.2837  0.0700
  977MOL0     N28883   8.088   9.206   2.479  0.1300 -0.2652 -0.4123
  977MOL0     C28884   9.088   8.990   1.654  1.2619  0.4738 -0.4997
  977MOL0     C28885   9.219   9.040   1.641 -0.0995 -0.7275  0.2250
  977MOL0     C28886   9.602   9.295   1.686  0.2568  0.8832  0.0806
  977MOL0     C28887   9.712   9.329   1.770  0.3052  0.0681 -1.4006
  977MOL0     C28888   9.831   9.386   1.729  0.7134 -0.0649 -0.6122
  977MOL0     C28889   9.858   9.398   1.598 -0.2668 -0.4077  0.3272
  977MOL0     O28890   9.984   9.444   1.567  0.0938  0.0689  0.6455
  977MOL0     C28891  10.022   9.458   1.431  0.4702 -0.2728  0.4836
  977MOL0     C28892  10.169   9.499   1.420  0.0724  0.4340 -0.0558
  977MOL0     C28893  10.199   9.617   1.320 -0.3465  0.4726 -0.3756
  977MOL0     C28894  10.319   9.594   1.236  0.6966  1.2540 -0.0348
  977MOL0     C28895  10.439   9.567   1.310  1.2102  0.8751 -0.1340
  977MOL0     C28896  10.536   9.526   1.364  0.0331 -0.4600 -0.3761
  977MOL0     C28897   9.761   9.359   1.501  0.0982  0.0838  0.1826
  977MOL0     C28898   9.635   9.304   1.555 -0.6730  0.5040  0.3964
  977MOL0     H28899   9.151   9.364   1.723 -1.5880 -0.0027  1.7605
  977MOL0     H28900   8.920   9.278   1.707  0.9329  1.4020 -2.2971
  977MOL0     H28901   8.712   9.179   1.705  0.2429 -0.2321  0.9898
  977MOL0     H28902   8.804   9.126   1.854 -0.4826 -1.0333  1.3844
  977MOL0     H28903   8.666   8.890   1.792  0.3919  0.2956  1.0308
  977MOL0     H28904   8.558   8.999   1.719 -0.7010 -4.2370  1.1216
  977MOL0     H28905   8.655   9.021   2.013 -1.2955 -2.8722  0.3557
  977MOL0     H28906   8.506   8.956   1.967  0.5449  2.6267  3.3031
  977MOL0     H28907   8.590   9.234   1.959 -1.3968  0.9289 -1.0390
  977MOL0     H28908   8.482   9.175   1.829  1.3903 -2.3485 -0.8748
  977MOL0     H28909   8.333   9.089   2.010  1.3933 -1.7200  0.1232
  977MOL0     H28910   8.325   9.266   1.976 -2.3569 -1.7604 -1.9747
  977MOL0     H28911   8.436   9.329   2.194  0.1478  0.4115  0.3936
  977MOL0     H28912   8.501   9.172   2.223  1.8603  0.6320 -1.5679
  977MOL0     H28913   8.262   9.086   2.216 -1.0011  0.9038 -1.7716
  977MOL0     H28914   8.336   9.152   2.358 -4.0213  0.3925  2.0430
  977MOL0     H28915   8.149   9.296   2.169 -1.3796 -0.0626  0.3986
  977MOL0     H28916   8.216   9.357   2.326 -0.7594  1.7521 -2.0346
  977MOL0     H28917   7.916   9.203   2.206 -0.8172 -1.3244  0.3554
  977MOL0     H28918   7.678   9.278   2.416 -1.3536 -0.2843  2.7180
  977MOL0     H28919   7.702   9.143   2.537  5.5129 -1.4383  1.1965
  977MOL0     H28920   7.710   9.003   2.289  0.6934  0.7727 -0.6612
  977MOL0     H28921   7.634   9.147   2.243 -0.8379  1.2707  0.5972
  977MOL0     H28922   7.478   8.972   2.289  2.3618  0.7985 -2.3759
  977MOL0     H28923   7.520   8.951   2.458 -0.6597 -1.9502 -2.8524
  977MOL0     H28924   7.303   9.078   2.400 -1.3489  1.4049 -0.3486
  977MOL0     H28925   7.394   9.218   2.355  0.5660  0.9356  0.7673
  977MOL0     H28926   7.461   9.410   2.595 -0.0780  1.3639  2.5711
  977MOL0     H28927   7.317   9.597   2.650  0.4592  0.2116 -1.7007
  977MOL0     H28928   6.690   9.634   2.580  0.5376 -0.5372  0.9168
  977MOL0     H28929   6.519   9.788   2.666 -2.5729 -1.0660  2.9972
  977MOL0     H28930   6.372   9.807   2.811  0.1748  1.4421 -2.1395
  977MOL0     H28931   6.382   9.991   2.788  2.4423  0.7777  0.4322
  977MOL0     H28932   6.333  10.012   3.026 -0.8274  1.3222 -0.9778
  977MOL0     H28933   6.281   9.847   3.025  1.9206  1.2768  2.7561
  977MOL0     H28934   6.118   9.932   2.822  2.3685 -1.5243 -0.3871
  977MOL0     H28935   6.160  10.092   2.892 -0.3344  0.5814  0.0857
  977MOL0     H28936   6.024   9.847   3.018  0.1952 -0.3497 -0.0222
  977MOL0     H28937   6.100   9.965   3.120 -1.7807 -0.3625  0.2221
  977MOL0     H28938   5.876  10.049   2.933  1.5233 -0.8696 -0.1797
  977MOL0     H28939   5.962  10.146   3.055  2.1437 -0.8615 -0.5236
  977MOL0     H28940   5.878   9.991   3.240  0.2193 -0.6016 -0.1493
  977MOL0     H28941   5.783   9.903   3.120  1.4773 -0.5146  1.3949
  977MOL0     H28942   5.753  10.196   3.179  2.6092 -0.6554 -0.1872
  977MOL0     H28943   5.651  10.114   3.056 -0.8596 -1.3598 -1.2094
  977MOL0     H28944   5.658  10.047   3.367  0.2911  0.4471 -0.3127
  977MOL0     H28945   5.562   9.957   3.247 -2.4093 -0.5838  3.4340
  977MOL0     H28946   6.778   9.863   3.013 -2.9715  1.7820  0.0123
  977MOL0     H28947   6.928   9.700   2.926  1.2554  1.2990 -0.2714
  977MOL0     H28948   6.977   9.341   2.638 -0.6000  1.7243 -1.5627
  977MOL0     H28949   7.115   9.149   2.563  2.3377 -0.3456 -1.5222
  977MOL0     H28950   9.073   8.882   1.654  0.6055  0.5297  1.2370
  977MOL0     H28951   9.297   8.974   1.604 -0.4749 -1.0788  0.0516
  977MOL0     H28952   9.717   9.308   1.877 -1.8267 -0.5749 -1.3794
  977MOL0     H28953   9.909   9.404   1.803 -0.1108  0.4652  0.1420
  977MOL0     H28954   9.963   9.536   1.383 -2.2182 -2.3505  0.1534
  977MOL0     H28955  10.004   9.359   1.387  0.7536 -1.0984  2.1251
  977MOL0     H28956  10.218   9.520   1.515  0.9545  0.0583 -0.4101
  977MOL0     H28957  10.214   9.405   1.386 -0.3764 -0.3757  1.5050
  977MOL0     H28958  10.201   9.715   1.369 -3.4058 -0.0849  1.1216
  977MOL0     H28959  10.109   9.631   1.259 -0.3545 -0.9776 -0.7536
  977MOL0     H28960  10.290   9.513   1.169  0.1144  0.0209  1.6399
  977MOL0     H28961  10.331   9.685   1.177  0.5246  0.8803 -0.6546
  977MOL0     H28962  10.617   9.481   1.417 -1.5964 -0.9528  1.8220
  977MOL0     H28963   9.775   9.352   1.394 -1.0666 -0.9137  0.0835
  977MOL0     H28964   9.560   9.273   1.483  1.8524 -3.2368 -0.9444
  978MOL0     O28965   1.762   9.859   0.674 -0.5694  0.6566  0.4383
  978MOL0     C28966   1.845   9.824   0.589 -0.5666 -0.1571 -0.1712
  978MOL0     O28967   1.821   9.718   0.499 -0.4891 -0.1538 -0.0227
  978MOL0     C28968   1.698   9.649   0.520 -0.2653 -0.3502  0.2680
  978MOL0     C28969   1.692   9.528   0.577  0.0505  0.9990 -0.2215
  978MOL0     C28970   1.586   9.449   0.592 -0.4678 -0.2485 -0.4440
  978MOL0     C28971   1.465   9.502   0.538  0.0440  0.3351 -0.7381
  978MOL0     O28972   1.342   9.444   0.554  0.1747  0.1434 -0.1481
  978MOL0     C28973   1.335   9.302   0.506  0.0632  0.4366  1.2078
  978MOL0     C28974   1.202   9.231   0.519  0.3637  0.1780  0.6039
  978MOL0     C28975   1.124   9.250   0.646  0.0025 -0.5171  0.4570
  978MOL0     C28976   0.995   9.186   0.638  0.7572 -0.3624 -0.6170
  978MOL0     C28977   0.909   9.221   0.766 -0.3196  0.6147 -0.6273
  978MOL0     C28978   0.768   9.159   0.771 -0.1726  0.0676  0.8975
  978MOL0     C28979   0.686   9.194   0.886  0.1662 -0.4588 -0.1911
  978MOL0     C28980   0.650   9.338   0.889  0.5201 -0.3793 -0.4258
  978MOL0     N28981   0.541   9.367   0.984  0.3726 -0.0274  0.4198
  978MOL0     C28982   0.427   9.290   0.996  0.6488  0.2421  0.3580
  978MOL0     C28983   0.359   9.352   1.098  0.6623  0.9680 -0.6304
  978MOL0     C28984   0.231   9.296   1.160 -0.6187  0.6820  0.6972
  978MOL0     C28985   0.168   9.387   1.269  0.2748 -0.7712  0.5046
  978MOL0     C28986   0.108   9.506   1.178  0.1526 -0.8455 -0.5111
  978MOL0     C28987   0.027   9.606   1.262  0.0968  0.4422  0.6699
  978MOL0     O28988  -0.102   9.543   1.286  0.0581  0.7222  0.1365
  978MOL0     C28989  -0.182   9.609   1.374 -0.0194 -0.6793 -0.4593
  978MOL0     C28990  -0.175   9.750   1.415 -0.2753  1.5701 -0.2785
  978MOL0     C28991  -0.274   9.798   1.490 -0.4166  0.2690 -0.4379
  978MOL0     C28992  -0.375   9.709   1.539  0.4904 -0.1263 -0.6526
  978MOL0     C28993  -0.482   9.752   1.626  0.7294 -0.2521  0.5007
  978MOL0     O28994  -0.516   9.667   1.726 -0.2488  0.0354  0.0432
  978MOL0     C28995  -0.646   9.687   1.789  0.2164 -0.2877  0.3045
  978MOL0     C28996  -0.653   9.685   1.925 -0.6901  0.1361  0.4281
  978MOL0     C28997  -0.781   9.711   1.977  0.0554  0.6905 -0.0642
  978MOL0     C28998  -0.901   9.719   1.902 -0.3617 -0.3837 -0.0786
  978MOL0     O28999  -1.021   9.759   1.956 -0.0031  0.0639  0.3674
  978MOL0     C29000  -1.045   9.752   2.096  0.4555 -0.3399  0.8403
  978MOL0     C29001  -1.194   9.786   2.126 -1.0930  0.2549 -0.6076
  978MOL0     C29002  -1.276   9.671   2.088  0.0917  0.2596  0.2162
  978MOL0     C29003  -1.430   9.705   2.108  0.3566 -0.1065  0.7312
  978MOL0     C29004  -1.540   9.594   2.097 -0.0032  1.0027 -0.2180
  978MOL0     C29005  -1.497   9.478   2.184  0.1721 -0.3836  0.1081
  978MOL0     C29006  -1.617   9.408   2.240  0.3976  0.2044  0.2760
  978MOL0     C29007  -1.686   9.323   2.138 -0.1992  0.1364  0.0387
  978MOL0    Cl29008  -1.803   9.215   2.225 -0.5093  0.3690 -0.0862
  978MOL0     C29009  -0.886   9.712   1.760  0.4135  0.9754 -0.3478
  978MOL0     C29010  -0.761   9.706   1.704  0.4392 -0.0490 -0.6125
  978MOL0     O29011  -0.519   9.869   1.613  0.4918 -0.6493  0.2659
  978MOL0     C29012  -0.365   9.568   1.521 -1.0479  0.7364  0.3519
  978MOL0     C29013  -0.277   9.528   1.425 -0.0795  0.4257 -1.2627
  978MOL0     N29014   0.427   9.469   1.135 -0.0779  0.4950  0.1923
  978MOL0     N29015   0.536   9.474   1.066 -0.0965  0.3224 -0.5435
  978MOL0     C29016   1.459   9.629   0.477 -0.3963 -0.6456 -0.9326
  978MOL0     C29017   1.578   9.700   0.464 -0.3457 -0.1910 -0.3294
  978MOL0     C29018   1.973   9.890   0.589 -0.2514 -0.7089 -0.7728
  978MOL0     C29019   2.075   9.822   0.524  0.1699  0.5820 -0.0711
  978MOL0     C29020   2.198   9.893   0.501 -0.0390 -0.0250 -0.3143
  978MOL0     C29021   2.206  10.032   0.534 -0.0956 -0.8486 -0.4135
  978MOL0     O29022   2.318  10.116   0.507 -0.0410  0.1315 -0.6237
  978MOL0     C29023   2.409  10.072   0.405  0.6394  0.7097 -0.4072
  978MOL0     C29024   2.517  10.183   0.391  0.5922 -0.0922 -0.6803
  978MOL0     C29025   2.602  10.189   0.524  0.1905  0.2562 -0.4847
  978MOL0     C29026   2.718  10.276   0.503 -0.1646  0.7281 -0.2648
  978MOL0     C29027   2.818  10.264   0.610  0.0582  0.4766 -0.7964
  978MOL0     C29028   2.909  10.252   0.680  0.5281 -0.5552  0.2510
  978MOL0     C29029   2.108  10.087   0.611  0.5526  0.2758  0.8020
  978MOL0     C29030   1.985  10.028   0.634  0.7055 -0.4406 -0.1286
  978MOL0     H29031   1.780   9.486   0.623 -1.1956 -1.5934 -0.0327
  978MOL0     H29032   1.584   9.348   0.632  1.6585 -0.8159 -1.6012
  978MOL0     H29033   1.389   9.244   0.581  0.6445 -0.9198 -0.2178
  978MOL0     H29034   1.386   9.287   0.411 -1.6781  0.5686  0.2085
  978MOL0     H29035   1.218   9.124   0.505  3.7105  0.8426 -2.0742
  978MOL0     H29036   1.142   9.256   0.431  3.2215 -0.5126 -1.6909
  978MOL0     H29037   1.122   9.358   0.664  1.3639 -0.4777  0.4609
  978MOL0     H29038   1.174   9.201   0.729  0.4703 -0.1285  0.4131
  978MOL0     H29039   0.941   9.220   0.549  2.6994  0.2165 -1.6137
  978MOL0     H29040   1.001   9.077   0.644  0.9637 -0.2564  2.5685
  978MOL0     H29041   0.901   9.330   0.761 -1.2711  0.5322 -1.2683
  978MOL0     H29042   0.964   9.194   0.857 -0.3813  2.7225  0.0786
  978MOL0     H29043   0.791   9.052   0.763 -0.4721 -0.0180  1.1506
  978MOL0     H29044   0.719   9.187   0.677  0.5439 -1.6797 -0.0537
  978MOL0     H29045   0.599   9.128   0.885 -1.2746  1.3429  0.4229
  978MOL0     H29046   0.739   9.169   0.979 -1.3502 -2.7896  0.1151
  978MOL0     H29047   0.609   9.365   0.791  2.2226  0.8442 -0.8528
  978MOL0     H29048   0.739   9.396   0.914  0.5819 -0.1207 -1.1956
  978MOL0     H29049   0.400   9.197   0.947 -0.2100  0.9406 -0.5488
  978MOL0     H29050   0.257   9.199   1.203  2.5958 -0.7444 -3.7808
  978MOL0     H29051   0.163   9.290   1.075  1.9943 -0.1531 -1.4372
  978MOL0     H29052   0.243   9.426   1.338 -2.1878  1.7707  1.9531
  978MOL0     H29053   0.100   9.328   1.332 -0.1396  0.7677  1.5481
  978MOL0     H29054   0.188   9.549   1.117  0.3418  0.5572  0.6816
  978MOL0     H29055   0.037   9.468   1.104 -0.3502  0.6580 -0.8363
  978MOL0     H29056   0.023   9.697   1.202  1.0580  0.1257  0.1080
  978MOL0     H29057   0.085   9.630   1.351 -1.2521  2.6605  1.0420
  978MOL0     H29058  -0.098   9.820   1.383  2.2231 -0.7480  0.2660
  978MOL0     H29059  -0.292   9.900   1.523  0.8776  0.5970 -0.6712
  978MOL0     H29060  -0.565   9.654   1.980  0.1536  1.4286 -0.1233
  978MOL0     H29061  -0.790   9.691   2.084 -1.6735 -3.1779 -0.7283
  978MOL0     H29062  -0.983   9.827   2.145 -0.5364  1.9400 -1.1459
  978MOL0     H29063  -1.022   9.654   2.138 -3.7966 -0.5961  3.1728
  978MOL0     H29064  -1.222   9.884   2.086  0.6009  1.4891  1.0676
  978MOL0     H29065  -1.206   9.796   2.234  0.3037 -1.0724 -0.2851
  978MOL0     H29066  -1.257   9.585   2.154  0.6267 -0.1784 -0.4923
  978MOL0     H29067  -1.263   9.646   1.982 -1.2241  1.4666 -0.2532
  978MOL0     H29068  -1.433   9.737   2.213 -1.1382 -0.1077  0.7078
  978MOL0     H29069  -1.447   9.790   2.041  1.4658 -0.7677 -0.4268
  978MOL0     H29070  -1.564   9.563   1.995 -0.8086 -0.0911  0.2805
  978MOL0     H29071  -1.637   9.632   2.129 -2.0602 -4.8765  1.8829
  978MOL0     H29072  -1.444   9.519   2.271  2.0644  1.9125 -1.9844
  978MOL0     H29073  -1.435   9.404   2.133  0.2931 -0.1263 -0.1175
  978MOL0     H29074  -1.577   9.339   2.315 -2.6755 -1.5591  0.4245
  978MOL0     H29075  -1.688   9.475   2.289  0.3601 -0.3242  0.9588
  978MOL0     H29076  -1.606   9.263   2.094 -2.0853 -2.0380 -0.6174
  978MOL0     H29077  -1.731   9.383   2.058 -0.4513 -0.4903 -0.2890
  978MOL0     H29078  -0.975   9.733   1.702 -1.3551 -1.3016  1.3561
  978MOL0     H29079  -0.743   9.712   1.597  1.7903 -1.8524 -0.5276
  978MOL0     H29080  -0.441   9.496   1.551 -2.5802  2.5185  0.9131
  978MOL0     H29081  -0.266   9.426   1.391  1.1665 -0.1128  0.6303
  978MOL0     H29082   1.362   9.665   0.444 -1.6676 -1.3706  1.6917
  978MOL0     H29083   1.584   9.793   0.409  0.2344 -0.1905 -0.2693
  978MOL0     H29084   2.072   9.721   0.486 -0.1339 -0.0833  1.6585
  978MOL0     H29085   2.276   9.847   0.441 -1.5193  0.2603 -2.5339
  978MOL0     H29086   2.360  10.047   0.311  0.2510  1.2324 -0.3474
  978MOL0     H29087   2.457   9.978   0.436 -0.8584  0.6042  1.8440
  978MOL0     H29088   2.579  10.142   0.310  1.1005 -3.3197  1.1538
  978MOL0     H29089   2.468  10.276   0.361 -1.0840 -0.8974 -0.5485
  978MOL0     H29090   2.626  10.090   0.565  2.3620  1.3769  1.1655
  978MOL0     H29091   2.542  10.234   0.603 -2.3845 -2.6606 -0.6165
  978MOL0     H29092   2.773  10.253   0.412  0.8015 -0.6416  0.6211
  978MOL0     H29093   2.692  10.382   0.501  0.0563  0.8425  1.1913
  978MOL0     H29094   3.004  10.250   0.729  0.7100 -0.7300 -0.1053
  978MOL0     H29095   2.117  10.187   0.652 -2.2538  0.3483  1.4549
  978MOL0     H29096   1.904  10.084   0.680 -2.6280 -3.4301 -1.8469
  979MOL0     O29097  10.137   7.118   4.663  0.6099  0.4514 -0.1525
  979MOL0     C29098  10.163   7.053   4.564 -0.3576 -0.3599 -1.0195
  979MOL0     O29099  10.073   7.020   4.469  0.0106 -0.2936 -0.0982
  979MOL0     C29100   9.951   7.084   4.474 -0.0860  0.3756 -1.0313
  979MOL0     C29101   9.849   7.026   4.559 -0.4605  0.1069 -0.0394
  979MOL0     C29102   9.724   7.081   4.556 -0.4558  0.6220  0.2074
  979MOL0     C29103   9.687   7.192   4.467  0.2647 -0.0936 -0.2579
  979MOL0     O29104   9.558   7.238   4.447  0.1247 -0.1628 -0.0478
  979MOL0     C29105   9.452   7.189   4.532 -0.3447  0.0334 -0.5067
  979MOL0     C29106   9.321   7.261   4.510 -0.4100  0.5319 -0.2748
  979MOL0     C29107   9.339   7.412   4.527 -0.4056  0.4248 -0.3538
  979MOL0     C29108   9.217   7.496   4.523 -0.3268  0.6795  1.0119
  979MOL0     C29109   9.144   7.517   4.655  0.6552  0.5007  0.1776
  979MOL0     C29110   8.994   7.568   4.644 -1.1044 -0.1755  0.0474
  979MOL0     C29111   8.939   7.615   4.783  0.6533 -0.4202  0.9194
  979MOL0     C29112   8.807   7.678   4.761  0.5002  0.3582 -0.1374
  979MOL0     N29113   8.698   7.580   4.741  0.2879 -0.1800 -0.2930
  979MOL0     C29114   8.642   7.492   4.829 -0.5829  1.1456 -0.7656
  979MOL0     C29115   8.580   7.400   4.759  0.8763 -0.9102 -0.2741
  979MOL0     C29116   8.479   7.294   4.800 -0.1199  0.0008 -0.3912
  979MOL0     C29117   8.335   7.335   4.837 -0.0336  0.9363  0.8573
  979MOL0     C29118   8.246   7.356   4.721  0.3692  0.5534 -1.1160
  979MOL0     C29119   8.113   7.384   4.770 -0.2457 -0.6498  0.4882
  979MOL0     O29120   8.018   7.386   4.664  0.0265 -0.7547  0.4719
  979MOL0     C29121   7.890   7.409   4.712 -0.0373 -0.2502  0.6742
  979MOL0     C29122   7.795   7.397   4.613 -0.1068 -0.2669  0.4784
  979MOL0     C29123   7.654   7.414   4.646 -0.4681 -0.8011 -0.3522
  979MOL0     C29124   7.619   7.436   4.783 -0.6734  0.2551  0.1492
  979MOL0     C29125   7.480   7.439   4.822 -0.2905  0.2449 -0.4932
  979MOL0     O29126   7.402   7.342   4.766 -0.0073 -0.2823 -0.0465
  979MOL0     C29127   7.278   7.309   4.819 -0.5699 -0.4783 -0.3743
  979MOL0     C29128   7.245   7.319   4.950  0.0157  0.2331 -0.1183
  979MOL0     C29129   7.110   7.301   4.985  0.1724 -0.4386 -0.4343
  979MOL0     C29130   7.011   7.280   4.894 -0.2109  0.4013  0.0177
  979MOL0     O29131   6.878   7.283   4.936 -0.2744  0.3265  0.9017
  979MOL0     C29132   6.775   7.282   4.835  0.8466 -1.0015  0.3601
  979MOL0     C29133   6.638   7.299   4.899 -0.0690  1.1723 -0.2569
  979MOL0     C29134   6.518   7.288   4.805  0.4288  0.2488 -0.7563
  979MOL0     C29135   6.386   7.288   4.892  0.2570  0.5703 -0.3554
  979MOL0     C29136   6.264   7.282   4.800  0.2742  0.1916  0.5414
  979MOL0     C29137   6.135   7.311   4.878 -1.1801  0.0317 -0.2833
  979MOL0     C29138   6.024   7.258   4.787 -0.1494 -0.0993 -0.5158
  979MOL0     C29139   5.880   7.286   4.815  0.9635 -0.6060  0.2050
  979MOL0    Cl29140   5.786   7.194   4.688  0.0968  0.1753 -0.0500
  979MOL0     C29141   7.049   7.242   4.762 -0.1631 -0.3727  1.0482
  979MOL0     C29142   7.184   7.263   4.723  0.9247  0.5596 -0.3354
  979MOL0     O29143   7.449   7.516   4.908 -0.1950  0.2467  0.0494
  979MOL0     C29144   7.722   7.458   4.879  0.5512  0.1310 -0.2098
  979MOL0     C29145   7.854   7.437   4.848 -0.6798  0.1881  0.2200
  979MOL0     N29146   8.604   7.420   4.624  0.6515 -0.8625  0.5449
  979MOL0     N29147   8.669   7.535   4.621 -0.2733 -0.3892  0.7567
  979MOL0     C29148   9.785   7.247   4.386 -0.0776  1.0332  0.1296
  979MOL0     C29149   9.920   7.191   4.386  0.6413  0.6499 -0.6198
  979MOL0     C29150  10.299   7.026   4.538 -0.3158  0.8606  0.0551
  979MOL0     C29151  10.340   6.929   4.443  0.5336 -0.1535 -0.0448
  979MOL0     C29152  10.474   6.899   4.412 -0.3795  0.3358 -0.4231
  979MOL0     C29153  10.582   6.981   4.469 -0.1185 -0.0005 -0.6133
  979MOL0     O29154  10.713   6.961   4.444  0.0222 -0.1560  0.5231
  979MOL0     C29155  10.766   6.839   4.394  0.3044 -0.0060  0.3087
  979MOL0     C29156  10.780   6.737   4.496  0.3400  0.5363 -0.3779
  979MOL0     C29157  10.877   6.769   4.605 -1.0948 -0.3360  0.3169
  979MOL0     C29158  11.017   6.731   4.562 -0.8849  0.0586  0.5792
  979MOL0     C29159  11.110   6.748   4.674 -0.4220  0.8429 -0.1117
  979MOL0     C29160  11.170   6.783   4.774  0.1582  0.0694 -0.4234
  979MOL0     C29161  10.536   7.079   4.563 -0.6285 -0.2785 -0.4225
  979MOL0     C29162  10.405   7.091   4.600  1.4534  0.0526 -0.1024
  979MOL0     H29163   9.875   6.953   4.636  1.8522  0.7964 -0.0821
  979MOL0     H29164   9.649   7.037   4.621  1.5928 -3.2862  0.2352
  979MOL0     H29165   9.488   7.209   4.634  0.3051 -0.3041 -0.6634
  979MOL0     H29166   9.438   7.082   4.515 -0.9710  0.0018  0.1457
  979MOL0     H29167   9.251   7.225   4.586  0.9467 -3.0741 -0.5623
  979MOL0     H29168   9.277   7.245   4.411 -1.2594  2.0495 -0.1831
  979MOL0     H29169   9.398   7.453   4.445  1.0438  0.6881  0.7777
  979MOL0     H29170   9.384   7.435   4.624 -3.6611  2.0955  0.9259
  979MOL0     H29171   9.244   7.596   4.489 -0.4026  0.8919  1.5623
  979MOL0     H29172   9.141   7.443   4.465  0.5376 -0.7437  1.1183
  979MOL0     H29173   9.202   7.591   4.711  2.1189 -1.6233  1.6206
  979MOL0     H29174   9.135   7.424   4.711  0.6428 -0.0865 -0.7641
  979MOL0     H29175   8.925   7.499   4.597  0.3084 -0.7088 -1.3431
  979MOL0     H29176   8.994   7.651   4.573  0.0252 -0.2998 -0.1200
  979MOL0     H29177   8.926   7.519   4.835  1.6108 -0.0135  1.9486
  979MOL0     H29178   9.009   7.679   4.838  2.9886 -1.4334 -0.6882
  979MOL0     H29179   8.820   7.740   4.672  1.6905  0.0396 -0.2019
  979MOL0     H29180   8.785   7.744   4.846  1.8185  1.6571 -0.7607
  979MOL0     H29181   8.641   7.512   4.935  0.4897  3.4006 -1.1130
  979MOL0     H29182   8.514   7.252   4.894 -0.7836 -1.9787 -0.9665
  979MOL0     H29183   8.467   7.213   4.727 -0.6373  0.6181 -1.0103
  979MOL0     H29184   8.329   7.419   4.907 -1.6623  3.8000 -2.4104
  979MOL0     H29185   8.295   7.250   4.893 -5.0420  1.9766 -0.6147
  979MOL0     H29186   8.277   7.433   4.650  1.6564  1.2252  0.1241
  979MOL0     H29187   8.244   7.260   4.669  0.6259  1.6958 -3.3829
  979MOL0     H29188   8.111   7.478   4.827  3.3950 -0.8126  1.1049
  979MOL0     H29189   8.086   7.303   4.838  2.4768 -0.7485  1.5828
  979MOL0     H29190   7.829   7.384   4.511 -0.1357  0.3657  0.3783
  979MOL0     H29191   7.573   7.405   4.575 -1.0939  2.0280 -0.1456
  979MOL0     H29192   7.312   7.345   5.031 -0.9203  2.7005 -0.0606
  979MOL0     H29193   7.084   7.315   5.089  2.1057 -1.1760  0.1901
  979MOL0     H29194   6.779   7.187   4.780 -4.5297 -0.8660 -0.8610
  979MOL0     H29195   6.785   7.366   4.766  0.4271 -2.3557 -1.4472
  979MOL0     H29196   6.640   7.397   4.948  0.6648  0.5999  0.9010
  979MOL0     H29197   6.624   7.218   4.970 -1.4554 -0.7043 -2.5048
  979MOL0     H29198   6.518   7.213   4.726  2.1680  0.8943 -1.4007
  979MOL0     H29199   6.513   7.372   4.735 -0.6575  3.7490  3.0794
  979MOL0     H29200   6.384   7.199   4.956  1.3255 -0.5054 -1.7512
  979MOL0     H29201   6.384   7.380   4.951  0.5064  1.9741 -2.4054
  979MOL0     H29202   6.266   7.184   4.751 -1.2016  0.9686 -1.1896
  979MOL0     H29203   6.279   7.349   4.714  0.2848  0.0909  0.4641
  979MOL0     H29204   6.146   7.419   4.890 -0.4972  0.3600 -3.1500
  979MOL0     H29205   6.133   7.263   4.977 -0.5879  0.6376  0.0348
  979MOL0     H29206   6.035   7.292   4.684  0.0821  1.9471  0.1459
  979MOL0     H29207   6.031   7.149   4.785  1.5614 -0.0028 -0.8090
  979MOL0     H29208   5.861   7.394   4.814 -1.7533 -0.8330  3.9745
  979MOL0     H29209   5.840   7.254   4.912 -0.2296  0.2221 -0.0019
  979MOL0     H29210   6.975   7.213   4.687 -0.8037 -0.2534  1.6246
  979MOL0     H29211   7.231   7.243   4.627  2.0481 -2.6793  0.7727
  979MOL0     H29212   7.685   7.482   4.978 -0.7481 -3.5908  0.3848
  979MOL0     H29213   7.931   7.428   4.924  2.1315 -0.1332 -2.4960
  979MOL0     H29214   9.753   7.324   4.316 -3.0561  0.3055  0.5613
  979MOL0     H29215  10.003   7.225   4.326 -0.3319  1.9358 -1.2967
  979MOL0     H29216  10.261   6.877   4.390  1.0183 -1.6676  0.6747
  979MOL0     H29217  10.495   6.821   4.340  1.7210 -2.5796  2.9802
  979MOL0     H29218  10.868   6.860   4.359  0.8535 -2.9997 -0.1706
  979MOL0     H29219  10.704   6.787   4.321  1.7188 -0.7802 -0.3853
  979MOL0     H29220  10.683   6.709   4.539  0.2267 -0.5656 -1.2998
  979MOL0     H29221  10.814   6.645   4.446 -0.1823 -0.1806  0.5440
  979MOL0     H29222  10.849   6.713   4.695 -0.3687 -3.7804 -1.3999
  979MOL0     H29223  10.879   6.877   4.622  0.3734  0.0176 -1.7373
  979MOL0     H29224  11.022   6.626   4.531 -0.4744  0.4644 -0.7788
  979MOL0     H29225  11.053   6.787   4.475  0.8940 -2.2888 -0.3315
  979MOL0     H29226  11.245   6.795   4.850  1.0063 -1.2440 -1.0121
  979MOL0     H29227  10.611   7.142   4.609 -3.5363  2.0784  1.4835
  979MOL0     H29228  10.385   7.164   4.678  2.0864  3.4082 -2.8328
  980MOL0     O29229   5.550   3.854   4.257  0.0651  0.3918 -0.5218
  980MOL0     C29230   5.492   3.900   4.359 -0.3446 -0.5243 -0.0677
  980MOL0     O29231   5.369   3.905   4.387 -0.4907 -0.4120 -0.3426
  980MOL0     C29232   5.280   3.895   4.291 -0.1594  0.2752  0.1360
  980MOL0     C29233   5.239   4.005   4.217 -1.0412 -0.1425  0.1268
  980MOL0     C29234   5.153   3.996   4.108  0.6644 -0.6317 -0.7327
  980MOL0     C29235   5.088   3.877   4.079  0.1478  0.6854 -0.1653
  980MOL0     O29236   4.978   3.843   3.995 -0.0747 -0.0723  0.3266
  980MOL0     C29237   4.973   3.905   3.866  0.4408 -0.3760 -0.3316
  980MOL0     C29238   4.854   3.841   3.784 -0.1004 -0.2748  0.0409
  980MOL0     C29239   4.728   3.897   3.838  0.3117 -0.0872 -0.3929
  980MOL0     C29240   4.597   3.829   3.786 -0.2236 -1.1214 -0.0797
  980MOL0     C29241   4.465   3.863   3.859 -0.4100 -0.1992  0.1816
  980MOL0     C29242   4.444   4.007   3.887 -0.5021  0.2967 -0.4062
  980MOL0     C29243   4.301   4.047   3.931  0.4035  0.7452 -1.2777
  980MOL0     C29244   4.269   4.184   3.995 -0.6506 -0.3919 -0.5511
  980MOL0     N29245   4.301   4.296   3.901 -0.4446 -0.0004 -0.1375
  980MOL0     C29246   4.271   4.312   3.768 -0.4615  0.0347 -0.7974
  980MOL0     C29247   4.299   4.443   3.743  0.3172 -0.5297 -0.2514
  980MOL0     C29248   4.293   4.510   3.611 -0.1542  0.2725  0.9719
  980MOL0     C29249   4.221   4.644   3.620 -0.7966 -0.2761 -0.2675
  980MOL0     C29250   4.073   4.624   3.657  0.3718 -0.1927 -0.5985
  980MOL0     C29251   4.004   4.751   3.691 -0.1279  0.2007  0.8580
  980MOL0     O29252   3.867   4.751   3.714  0.6229 -0.4292 -0.0280
  980MOL0     C29253   3.768   4.743   3.613  0.2124 -0.3018 -0.5942
  980MOL0     C29254   3.803   4.739   3.478  0.5054  0.0261 -0.6784
  980MOL0     C29255   3.715   4.725   3.377  0.7087  0.3555 -0.2656
  980MOL0     C29256   3.579   4.702   3.409  0.1800  1.1028  0.3471
  980MOL0     C29257   3.472   4.677   3.307 -0.2162  0.7467 -0.1564
  980MOL0     O29258   3.371   4.593   3.337  0.4978  0.3188 -0.2082
  980MOL0     C29259   3.257   4.593   3.275 -0.2890 -0.5638  0.4321
  980MOL0     C29260   3.210   4.686   3.183  0.5599 -0.4145  0.0558
  980MOL0     C29261   3.091   4.651   3.108 -0.7121 -0.0255 -0.2842
  980MOL0     C29262   3.011   4.542   3.132 -0.0385 -0.2625  0.4586
  980MOL0     O29263   2.900   4.528   3.051  0.3877 -0.3829  0.2926
  980MOL0     C29264   2.801   4.437   3.092  0.2855  0.3685 -0.2326
  980MOL0     C29265   2.664   4.477   3.030  0.0918  0.7044 -0.5817
  980MOL0     C29266   2.546   4.402   3.097  0.4402 -0.8492 -0.7832
  980MOL0     C29267   2.423   4.417   3.005  0.2708 -0.1335 -0.8884
  980MOL0     C29268   2.312   4.328   3.056 -0.3966  0.8690  0.3606
  980MOL0     C29269   2.266   4.355   3.197  0.4122 -0.0359  1.1517
  980MOL0     C29270   2.140   4.284   3.240 -0.9245  0.2939  0.8520
  980MOL0     C29271   2.115   4.317   3.385  0.2264 -0.1107 -0.5182
  980MOL0    Cl29272   1.953   4.254   3.424  0.2123 -0.2927  0.2426
  980MOL0     C29273   3.061   4.450   3.221  0.1227 -0.1136 -0.1695
  980MOL0     C29274   3.184   4.475   3.292  0.6474  0.0636 -0.1699
  980MOL0     O29275   3.494   4.731   3.204  0.0156 -0.1045 -0.6898
  980MOL0     C29276   3.544   4.709   3.542 -0.4907 -0.1566 -1.3275
  980MOL0     C29277   3.640   4.721   3.643  0.2396 -0.6914 -0.7346
  980MOL0     N29278   4.336   4.509   3.862 -0.2586  0.5013 -0.6984
  980MOL0     N29279   4.332   4.424   3.954 -0.2570 -0.0353 -0.1651
  980MOL0     C29280   5.120   3.771   4.168 -0.1227  0.2650 -0.1215
  980MOL0     C29281   5.218   3.778   4.268  0.2989  0.3807 -0.3729
  980MOL0     C29282   5.583   3.947   4.462 -0.0195 -0.0185  1.0544
  980MOL0     C29283   5.717   3.953   4.435  1.0416 -0.4090 -0.5828
  980MOL0     C29284   5.806   3.995   4.534 -0.2795  0.7375 -0.0859
  980MOL0     C29285   5.764   4.031   4.661  0.3749 -0.2733 -0.5465
  980MOL0     O29286   5.842   4.071   4.761 -0.4119  0.6594  0.5114
  980MOL0     C29287   5.985   4.082   4.738 -0.0362  0.0523  0.0957
  980MOL0     C29288   6.027   4.177   4.853  0.3565 -0.0179 -0.3799
  980MOL0     C29289   6.179   4.201   4.840  0.4665 -0.3428  0.1900
  980MOL0     C29290   6.235   4.282   4.958  0.5774  0.2154 -0.2540
  980MOL0     C29291   6.374   4.312   4.936 -1.0389 -0.0361  0.0255
  980MOL0     C29292   6.490   4.353   4.934 -0.2544 -0.4343 -0.1220
  980MOL0     C29293   5.628   4.023   4.685  0.7373  0.8779  0.1259
  980MOL0     C29294   5.540   3.987   4.585 -0.6607  0.1082  0.5447
  980MOL0     H29295   5.291   4.098   4.238 -4.6788  3.3419 -4.2608
  980MOL0     H29296   5.137   4.085   4.048 -2.3582 -0.9680 -0.5786
  980MOL0     H29297   5.068   3.895   3.812 -0.6853 -0.7100 -2.3178
  980MOL0     H29298   4.951   4.011   3.885  3.5788 -0.1903  3.8159
  980MOL0     H29299   4.848   3.733   3.803 -0.8754 -0.7325 -2.4101
  980MOL0     H29300   4.853   3.870   3.679 -1.9697 -0.2810  0.0339
  980MOL0     H29301   4.736   4.006   3.842  4.0072 -0.2553  3.1087
  980MOL0     H29302   4.723   3.867   3.943 -2.1491  1.6016  0.0535
  980MOL0     H29303   4.585   3.855   3.680  1.1565  3.7606  0.7250
  980MOL0     H29304   4.602   3.719   3.786 -2.8070 -1.3087  0.1177
  980MOL0     H29305   4.461   3.800   3.948  1.3541 -1.4045 -0.5383
  980MOL0     H29306   4.380   3.838   3.794  0.3116  1.3821 -1.4691
  980MOL0     H29307   4.469   4.065   3.798 -0.0353 -1.5313 -1.5180
  980MOL0     H29308   4.510   4.033   3.969 -0.8348  2.1887 -0.6988
  980MOL0     H29309   4.236   4.042   3.843 -1.4253 -0.5451  0.0584
  980MOL0     H29310   4.267   3.973   4.003  6.6267 -0.7002  0.7649
  980MOL0     H29311   4.330   4.203   4.084  0.0205  0.7172 -1.2361
  980MOL0     H29312   4.166   4.195   4.031 -1.2642  0.6234 -2.4881
  980MOL0     H29313   4.243   4.250   3.683  0.9779  0.5492 -1.6871
  980MOL0     H29314   4.249   4.446   3.534 -0.9672  2.0453 -0.1060
  980MOL0     H29315   4.394   4.527   3.574 -1.0443  0.9169 -1.3486
  980MOL0     H29316   4.229   4.690   3.521 -2.2488  1.0501  0.1801
  980MOL0     H29317   4.267   4.715   3.689 -0.2422 -1.0682  0.1910
  980MOL0     H29318   4.026   4.577   3.570  2.0975 -0.8435 -1.2363
  980MOL0     H29319   4.064   4.557   3.743  1.7088  1.1731  0.6747
  980MOL0     H29320   4.029   4.826   3.615  1.7894  0.5476  1.7727
  980MOL0     H29321   4.053   4.779   3.784 -0.7443  1.1183  0.9206
  980MOL0     H29322   3.907   4.764   3.462  1.6154 -1.7599  2.7838
  980MOL0     H29323   3.749   4.729   3.275  0.7990  1.8497 -0.2019
  980MOL0     H29324   3.267   4.777   3.164 -0.4225  0.3983  0.8529
  980MOL0     H29325   3.064   4.720   3.029  0.1973  0.1275 -0.4755
  980MOL0     H29326   2.793   4.431   3.201  1.1119 -3.1147 -0.2214
  980MOL0     H29327   2.825   4.335   3.061 -0.5225 -0.0650  0.5146
  980MOL0     H29328   2.657   4.455   2.923 -1.9303  2.1331 -0.8125
  980MOL0     H29329   2.654   4.586   3.033  1.3024  0.8162  1.9412
  980MOL0     H29330   2.530   4.443   3.197 -2.1710 -2.7220 -0.3450
  980MOL0     H29331   2.568   4.295   3.108 -0.8123 -0.8954  1.6916
  980MOL0     H29332   2.385   4.520   3.006 -1.3583 -0.6050  3.0769
  980MOL0     H29333   2.450   4.394   2.902 -3.5768 -0.7252 -1.9060
  980MOL0     H29334   2.348   4.225   3.047 -2.6100  0.1494 -0.8557
  980MOL0     H29335   2.224   4.336   2.991 -3.1377 -1.1305  3.5104
  980MOL0     H29336   2.242   4.461   3.202 -3.1938 -0.6527 -0.2367
  980MOL0     H29337   2.337   4.330   3.278  0.8560 -0.3774  0.6683
  980MOL0     H29338   2.059   4.301   3.169  0.3450 -2.2373 -1.4159
  980MOL0     H29339   2.151   4.175   3.237 -0.5017  0.3476 -0.2812
  980MOL0     H29340   2.111   4.426   3.399  3.5284  0.0024  0.2911
  980MOL0     H29341   2.186   4.276   3.457 -1.7244  2.7080  3.4517
  980MOL0     H29342   3.002   4.361   3.241 -0.6309  1.1278  3.9796
  980MOL0     H29343   3.213   4.400   3.365  0.7147  0.8772  0.6563
  980MOL0     H29344   3.443   4.687   3.574 -0.6142  0.2326 -1.4356
  980MOL0     H29345   3.612   4.723   3.748 -0.3967  1.3930 -0.9026
  980MOL0     H29346   5.057   3.684   4.155 -0.1916  0.4086 -0.7789
  980MOL0     H29347   5.238   3.696   4.337 -0.9672 -0.9659 -1.5221
  980MOL0     H29348   5.743   3.923   4.334 -0.5293 -2.8039 -0.3497
  980MOL0     H29349   5.908   3.984   4.497 -0.5206 -2.7786 -0.0496
  980MOL0     H29350   6.006   4.138   4.646 -1.1936  0.5052  0.0853
  980MOL0     H29351   6.036   3.985   4.739  0.5596  0.3709  1.1658
  980MOL0     H29352   5.980   4.275   4.844  0.1834 -0.2993 -3.9128
  980MOL0     H29353   6.013   4.126   4.948 -0.2649  0.4690 -0.1993
  980MOL0     H29354   6.192   4.259   4.747  0.2009 -0.2080  0.2362
  980MOL0     H29355   6.234   4.108   4.826  4.1697  1.6404  0.1651
  980MOL0     H29356   6.173   4.371   4.959  0.2989  0.0965 -2.4015
  980MOL0     H29357   6.221   4.227   5.052  2.0816  0.2503  0.0189
  980MOL0     H29358   6.593   4.382   4.925 -0.2319  0.5137  2.4373
  980MOL0     H29359   5.589   4.045   4.784  0.9690 -1.1891  0.7214
  980MOL0     H29360   5.435   3.969   4.607 -1.4645  2.3614 -1.1639
  981MOL0     O29361   1.172   5.595   5.011  0.5343 -0.4626  0.1093
  981MOL0     C29362   1.094   5.678   5.069 -0.2840  0.2452 -0.0251
  981MOL0     O29363   1.128   5.779   5.155 -0.5354  0.4394 -0.3609
  981MOL0     C29364   1.259   5.818   5.167  1.2254  1.4238  0.1990
  981MOL0     C29365   1.371   5.733   5.180 -0.1361  0.6068  0.1961
  981MOL0     C29366   1.502   5.781   5.193 -0.4695 -0.3746 -0.4609
  981MOL0     C29367   1.522   5.921   5.207 -0.5831 -0.3499  0.3761
  981MOL0     O29368   1.644   5.984   5.217  0.0589 -0.7280 -0.1977
  981MOL0     C29369   1.758   5.916   5.178 -0.0956  0.1255  0.1795
  981MOL0     C29370   1.860   6.019   5.134  0.9845 -0.5211 -0.7059
  981MOL0     C29371   1.996   5.971   5.099  0.3418  0.2956 -0.0797
  981MOL0     C29372   2.096   6.087   5.084 -0.5221 -0.0427 -1.0692
  981MOL0     C29373   2.224   6.033   5.014 -0.0845 -0.4294  0.1871
  981MOL0     C29374   2.279   5.900   5.070  0.0735 -0.0178  0.4663
  981MOL0     C29375   2.412   5.872   4.996  0.4713  0.8232 -0.1719
  981MOL0     C29376   2.467   5.721   5.007 -0.1468 -0.1331 -0.4006
  981MOL0     N29377   2.575   5.720   4.914 -0.0070 -0.3537  0.0023
  981MOL0     C29378   2.710   5.697   4.945 -0.3403  0.3038  0.4537
  981MOL0     C29379   2.776   5.691   4.827  0.1350 -0.7649  0.3628
  981MOL0     C29380   2.922   5.674   4.784 -0.5412  0.6797 -0.5908
  981MOL0     C29381   3.017   5.695   4.903 -0.3290 -0.1484  0.4916
  981MOL0     C29382   3.034   5.847   4.937  1.1324  1.5062  0.4738
  981MOL0     C29383   3.113   5.861   5.065  0.6011 -0.2595 -0.4409
  981MOL0     O29384   3.068   5.773   5.165  0.1359 -0.0725 -0.5249
  981MOL0     C29385   2.942   5.797   5.216  0.2030 -0.2948 -0.3559
  981MOL0     C29386   2.893   5.700   5.292 -0.1778 -0.6595 -0.4786
  981MOL0     C29387   2.763   5.704   5.349  0.4341 -0.1555  0.8263
  981MOL0     C29388   2.687   5.830   5.334  0.6203  0.1880 -0.6636
  981MOL0     C29389   2.544   5.837   5.380  0.4319 -0.4875  0.0278
  981MOL0     O29390   2.466   5.724   5.387  0.0102  0.6691  0.1166
  981MOL0     C29391   2.340   5.737   5.439  0.3905 -1.1847  0.3144
  981MOL0     C29392   2.236   5.708   5.345  0.2103 -0.2001 -1.0005
  981MOL0     C29393   2.095   5.712   5.396 -1.4181  0.6332  0.6587
  981MOL0     C29394   2.066   5.767   5.518 -0.4981  0.6188  0.9479
  981MOL0     O29395   1.928   5.756   5.534 -0.0469  0.5161 -0.2707
  981MOL0     C29396   1.877   5.835   5.644 -0.8154  0.5830 -0.4535
  981MOL0     C29397   1.724   5.862   5.622 -0.5646  0.1695  0.5197
  981MOL0     C29398   1.652   5.723   5.610  0.0548 -0.6296  0.7727
  981MOL0     C29399   1.503   5.754   5.598  0.4578 -0.3000 -0.0084
  981MOL0     C29400   1.423   5.624   5.614  0.6326 -0.8014  1.0500
  981MOL0     C29401   1.278   5.665   5.630 -0.6646  1.1539 -0.4025
  981MOL0     C29402   1.208   5.712   5.501 -0.4516 -0.4504  0.2420
  981MOL0     C29403   1.055   5.730   5.519 -0.1812 -0.6949  0.0938
  981MOL0    Cl29404   0.998   5.851   5.630  0.0996 -0.4651  0.0054
  981MOL0     C29405   2.173   5.806   5.603  0.2835  0.2402 -1.1314
  981MOL0     C29406   2.308   5.785   5.569 -0.2325 -0.5387 -0.4754
  981MOL0     O29407   2.496   5.948   5.376 -0.1718 -0.0779  1.1714
  981MOL0     C29408   2.741   5.936   5.261 -0.1343  1.2159 -0.0786
  981MOL0     C29409   2.863   5.914   5.200  0.0266 -0.2783 -0.1035
  981MOL0     N29410   2.685   5.721   4.729 -0.6918 -0.0312 -0.1339
  981MOL0     N29411   2.571   5.745   4.778  0.8953 -0.8959  0.1733
  981MOL0     C29412   1.409   6.002   5.197 -0.4754 -0.0462  0.3000
  981MOL0     C29413   1.285   5.949   5.185  0.1786 -0.3146 -0.2262
  981MOL0     C29414   0.955   5.657   5.053  0.7662  0.1459  0.5474
  981MOL0     C29415   0.912   5.543   4.980 -0.0859 -0.0623 -0.1622
  981MOL0     C29416   0.776   5.529   4.947 -0.0513  0.5898 -0.0110
  981MOL0     C29417   0.678   5.624   4.992 -0.6656  0.4872  0.3121
  981MOL0     O29418   0.548   5.611   4.979 -0.3878 -0.3884 -0.2059
  981MOL0     C29419   0.500   5.493   4.911  0.2458  0.4975 -0.3314
  981MOL0     C29420   0.342   5.501   4.911 -0.2228  0.3283 -0.3379
  981MOL0     C29421   0.259   5.380   4.856 -0.1837  0.1262 -1.0997
  981MOL0     C29422   0.291   5.343   4.703 -0.3048 -0.0301 -0.2325
  981MOL0     C29423   0.401   5.247   4.697 -1.0489 -0.3671  0.0714
  981MOL0     C29424   0.493   5.172   4.684 -0.4231  0.7883  0.0751
  981MOL0     C29425   0.725   5.735   5.058  0.1516  0.2248  0.2055
  981MOL0     C29426   0.859   5.751   5.096  0.3602  0.0673 -0.0017
  981MOL0     H29427   1.360   5.626   5.190  3.0571  0.1057 -0.7077
  981MOL0     H29428   1.586   5.714   5.183 -0.4802 -0.2454 -1.5939
  981MOL0     H29429   1.738   5.841   5.101  0.8562  0.3338 -0.2873
  981MOL0     H29430   1.794   5.866   5.269  0.0863 -1.7844 -0.8996
  981MOL0     H29431   1.857   6.091   5.216 -1.5850 -3.0731  1.6722
  981MOL0     H29432   1.824   6.070   5.044  0.3558  0.7439  0.2211
  981MOL0     H29433   1.988   5.904   5.013 -1.5393 -0.2073  0.4445
  981MOL0     H29434   2.040   5.920   5.185  4.6921  3.1881 -0.2948
  981MOL0     H29435   2.043   6.170   5.036 -2.9381  0.9482  2.8270
  981MOL0     H29436   2.130   6.123   5.181 -2.9893 -1.3022  0.3833
  981MOL0     H29437   2.301   6.110   5.023 -0.9944  0.4381  0.6350
  981MOL0     H29438   2.200   6.019   4.908  3.1200 -0.8252 -0.5901
  981MOL0     H29439   2.208   5.822   5.041 -0.0758  0.2789  0.0267
  981MOL0     H29440   2.284   5.902   5.179 -0.6598 -0.9767  0.5376
  981MOL0     H29441   2.417   5.895   4.889 -1.9784  0.2693 -0.4534
  981MOL0     H29442   2.487   5.933   5.047 -0.4147  2.0961 -0.3516
  981MOL0     H29443   2.385   5.650   4.991  0.0105 -0.6933  1.0611
  981MOL0     H29444   2.494   5.703   5.112 -2.5011  2.3470  0.7663
  981MOL0     H29445   2.747   5.682   5.045  0.9654  0.4601  0.0069
  981MOL0     H29446   2.959   5.729   4.697  2.0983 -2.1772 -1.4487
  981MOL0     H29447   2.938   5.568   4.760 -1.2303  0.3795  0.2169
  981MOL0     H29448   3.116   5.659   4.871 -0.0974  1.3078 -0.5054
  981MOL0     H29449   2.987   5.636   4.989  0.5223 -2.7440 -0.8675
  981MOL0     H29450   3.085   5.900   4.856 -0.1602 -0.1420 -1.5346
  981MOL0     H29451   2.933   5.889   4.944 -0.7240 -2.5538  1.1777
  981MOL0     H29452   3.103   5.964   5.098  0.5711 -0.0586 -1.0657
  981MOL0     H29453   3.220   5.845   5.052  0.6107 -0.7833  0.2396
  981MOL0     H29454   2.962   5.619   5.312 -0.5534 -0.8935 -0.0873
  981MOL0     H29455   2.724   5.620   5.406  1.3040 -1.0550  0.1451
  981MOL0     H29456   2.264   5.686   5.243  1.9658 -0.1976 -0.5652
  981MOL0     H29457   2.017   5.676   5.331 -0.8316 -0.9709  0.7991
  981MOL0     H29458   1.926   5.933   5.642 -0.3531  0.3629 -0.2157
  981MOL0     H29459   1.904   5.778   5.733 -0.5974 -1.5178 -1.7865
  981MOL0     H29460   1.696   5.926   5.537  0.2581 -0.9746 -0.6473
  981MOL0     H29461   1.691   5.920   5.709 -0.4737 -1.0931  1.4223
  981MOL0     H29462   1.689   5.665   5.695 -0.0477  0.4681  1.5970
  981MOL0     H29463   1.678   5.664   5.522  0.8260 -0.2827  0.7616
  981MOL0     H29464   1.477   5.825   5.678 -0.4916 -1.4081  0.7129
  981MOL0     H29465   1.481   5.814   5.510  0.4050  2.3355  1.6837
  981MOL0     H29466   1.461   5.582   5.707 -0.7350 -0.2515  1.8998
  981MOL0     H29467   1.430   5.561   5.525  0.8037 -0.5050  0.8515
  981MOL0     H29468   1.280   5.739   5.711  2.5634  1.4548 -0.6031
  981MOL0     H29469   1.226   5.576   5.666 -2.5143  1.8460 -1.2563
  981MOL0     H29470   1.257   5.805   5.470  2.8609 -2.0057  0.4312
  981MOL0     H29471   1.221   5.633   5.426 -0.2374 -2.1408  1.9855
  981MOL0     H29472   1.011   5.634   5.547  0.5494 -1.0123  0.1759
  981MOL0     H29473   1.017   5.758   5.421 -1.1435 -2.3292 -0.0424
  981MOL0     H29474   2.152   5.838   5.704  1.8298 -0.1921 -0.6460
  981MOL0     H29475   2.387   5.819   5.636 -1.2717 -0.1886  0.5876
  981MOL0     H29476   2.675   6.020   5.242 -1.9223 -0.3065 -0.9184
  981MOL0     H29477   2.893   5.996   5.135  1.4437 -0.8965 -0.2620
  981MOL0     H29478   1.424   6.110   5.206 -0.7488 -0.1510  2.2622
  981MOL0     H29479   1.203   6.020   5.186  2.0061  1.8842  0.5390
  981MOL0     H29480   0.982   5.468   4.946 -0.0365 -1.2796  2.3456
  981MOL0     H29481   0.746   5.436   4.901  0.3571  0.0074  0.8668
  981MOL0     H29482   0.530   5.406   4.970  0.8909  0.4636 -0.6993
  981MOL0     H29483   0.537   5.497   4.808  0.4331 -1.4797 -0.3803
  981MOL0     H29484   0.325   5.515   5.018 -0.6135  2.7778 -0.6796
  981MOL0     H29485   0.301   5.594   4.870 -1.5506 -0.2093 -0.3006
  981MOL0     H29486   0.154   5.392   4.882  0.7305  0.6122  3.1571
  981MOL0     H29487   0.290   5.292   4.913 -0.8748  0.6053  0.0559
  981MOL0     H29488   0.198   5.315   4.652  0.0089 -0.9859 -0.3006
  981MOL0     H29489   0.317   5.433   4.645  1.4562 -0.9209 -0.8932
  981MOL0     H29490   0.588   5.126   4.663 -1.3067 -1.2971  0.4715
  981MOL0     H29491   0.655   5.817   5.068  1.4339  1.6294 -1.5228
  981MOL0     H29492   0.882   5.832   5.164  1.2231 -1.3617  1.4805
  982MOL0     O29493   3.120   4.381   2.053  0.4084  0.2508 -0.7355
  982MOL0     C29494   3.075   4.405   2.170 -1.1183  0.5401  0.2240
  982MOL0     O29495   3.122   4.505   2.254  0.2242  0.6731  0.7559
  982MOL0     C29496   3.247   4.544   2.234  0.1662  0.5479  0.1550
  982MOL0     C29497   3.265   4.677   2.219  0.2701 -0.3010 -0.5560
  982MOL0     C29498   3.394   4.738   2.199  0.4166  0.3136  0.4886
  982MOL0     C29499   3.501   4.659   2.183  0.6118  0.5398  0.2662
  982MOL0     O29500   3.629   4.683   2.148 -0.9364 -0.2364  0.0144
  982MOL0     C29501   3.671   4.820   2.115  0.3822  0.4042 -0.4271
  982MOL0     C29502   3.773   4.818   1.995  0.5689  0.2107 -0.3111
  982MOL0     C29503   3.865   4.945   2.006 -0.1176 -0.6310 -0.0975
  982MOL0     C29504   3.982   4.937   1.901 -0.5669  0.4234 -0.1472
  982MOL0     C29505   4.091   4.839   1.957 -0.1718  0.6463 -0.8721
  982MOL0     C29506   4.213   4.851   1.866  0.0198 -0.0616 -0.0002
  982MOL0     C29507   4.314   4.738   1.882  0.0404  0.0506 -0.8015
  982MOL0     C29508   4.375   4.732   2.029  0.6418 -0.0323  0.4540
  982MOL0     N29509   4.443   4.854   2.081 -0.8601  0.7035  0.5407
  982MOL0     C29510   4.512   4.945   2.002  0.2148 -0.0115  0.4346
  982MOL0     C29511   4.533   5.053   2.084  0.0145 -1.1283  0.9491
  982MOL0     C29512   4.604   5.179   2.035  1.0251 -0.1381  0.1070
  982MOL0     C29513   4.508   5.243   1.934  0.4027 -0.5539  0.3291
  982MOL0     C29514   4.410   5.337   1.999  0.5640  0.1882  0.4374
  982MOL0     C29515   4.306   5.272   2.092 -0.4499  0.4815 -0.2946
  982MOL0     O29516   4.211   5.370   2.108 -0.5814  0.8792  0.6706
  982MOL0     C29517   4.102   5.330   2.183 -0.6494 -0.1558 -0.7339
  982MOL0     C29518   3.977   5.289   2.133  0.2423 -0.1253 -0.2884
  982MOL0     C29519   3.880   5.255   2.229  0.4936  0.4529 -0.8446
  982MOL0     C29520   3.909   5.245   2.366 -0.0966 -0.0467  0.3432
  982MOL0     C29521   3.806   5.199   2.459  0.8270  0.3448 -0.5802
  982MOL0     O29522   3.703   5.126   2.407 -0.5247  0.1587 -1.2195
  982MOL0     C29523   3.619   5.031   2.470  0.1745  0.1068 -0.1109
  982MOL0     C29524   3.643   4.968   2.598 -0.1491 -0.3646  0.2156
  982MOL0     C29525   3.546   4.878   2.651  0.6809  0.6914 -0.0217
  982MOL0     C29526   3.431   4.845   2.590  0.7254  0.2950  0.4678
  982MOL0     O29527   3.345   4.750   2.655  0.1530 -0.6270  1.1072
  982MOL0     C29528   3.210   4.736   2.599 -0.4116 -0.2793  0.5196
  982MOL0     C29529   3.136   4.641   2.696 -1.0415  0.0411  0.3024
  982MOL0     C29530   2.997   4.595   2.634 -0.8250 -0.9876  0.0689
  982MOL0     C29531   2.900   4.701   2.578 -0.2415  0.3856 -1.2147
  982MOL0     C29532   2.847   4.807   2.680 -0.4090 -0.7435  0.0792
  982MOL0     C29533   2.799   4.750   2.816  0.0203 -0.4286  0.5379
  982MOL0     C29534   2.721   4.854   2.894  0.2053 -0.1529  0.1598
  982MOL0     C29535   2.591   4.899   2.841 -0.5008  0.8453 -0.5256
  982MOL0    Cl29536   2.476   4.756   2.826  0.1583 -0.3919 -0.6054
  982MOL0     C29537   3.399   4.907   2.464 -0.1711 -0.0838 -0.5430
  982MOL0     C29538   3.499   4.988   2.403 -0.6208 -0.8910 -0.6603
  982MOL0     O29539   3.821   5.226   2.581  0.5914  0.0988 -0.0363
  982MOL0     C29540   4.036   5.272   2.406  0.2725  0.3715 -0.8216
  982MOL0     C29541   4.125   5.325   2.320 -1.4708 -0.0271  0.1607
  982MOL0     N29542   4.487   5.021   2.212  0.0042 -0.6011 -0.2794
  982MOL0     N29543   4.422   4.909   2.202  0.7690 -0.8535  0.1011
  982MOL0     C29544   3.477   4.517   2.213  0.2774  0.0970 -0.3681
  982MOL0     C29545   3.356   4.458   2.239 -0.2736 -0.1778  0.2197
  982MOL0     C29546   2.965   4.315   2.221 -0.3158 -0.2039 -1.3870
  982MOL0     C29547   2.873   4.350   2.330 -0.5889 -0.1618  0.4016
  982MOL0     C29548   2.769   4.267   2.373 -0.2209 -1.0461 -0.4721
  982MOL0     C29549   2.762   4.142   2.316  0.7834  0.6912  0.5800
  982MOL0     O29550   2.661   4.073   2.372 -0.4364 -0.0770 -0.6624
  982MOL0     C29551   2.622   3.935   2.344  1.2656 -0.1219 -0.5145
  982MOL0     C29552   2.539   3.905   2.222 -0.5472 -1.3626 -0.2611
  982MOL0     C29553   2.396   3.975   2.215 -0.3292  0.0358 -0.2769
  982MOL0     C29554   2.399   4.124   2.219  0.1534 -0.7022  0.7284
  982MOL0     C29555   2.265   4.175   2.183 -0.6042  0.7401 -0.8304
  982MOL0     C29556   2.150   4.183   2.159  0.6952 -0.2876  0.3358
  982MOL0     C29557   2.833   4.103   2.210 -0.7873  0.5146  0.2236
  982MOL0     C29558   2.932   4.191   2.157 -0.2589 -0.3012  0.4434
  982MOL0     H29559   3.172   4.732   2.232  1.6057  1.4845  2.3528
  982MOL0     H29560   3.398   4.843   2.170 -3.0476  0.5130  0.2614
  982MOL0     H29561   3.724   4.876   2.193  0.5535  0.7235 -0.7662
  982MOL0     H29562   3.588   4.881   2.078  0.5211  3.2626  3.3881
  982MOL0     H29563   3.715   4.811   1.903 -1.8766 -1.0192  1.1892
  982MOL0     H29564   3.839   4.735   2.023  0.5178  0.5400  0.8706
  982MOL0     H29565   3.903   4.948   2.109 -2.7247 -1.0929  0.9616
  982MOL0     H29566   3.801   5.032   1.990  1.1439  1.4799  4.5159
  982MOL0     H29567   3.941   4.893   1.810  2.7083 -2.3494 -0.4777
  982MOL0     H29568   4.034   5.033   1.892  2.2401 -0.9156  0.6624
  982MOL0     H29569   4.062   4.735   1.941 -0.3372  0.5062  0.3126
  982MOL0     H29570   4.126   4.856   2.059  0.7610  0.4438 -1.1501
  982MOL0     H29571   4.267   4.942   1.893  0.0986 -0.2017  0.3172
  982MOL0     H29572   4.190   4.863   1.760  1.2481  2.3995 -0.0625
  982MOL0     H29573   4.266   4.645   1.850 -1.3812  0.3573  0.3317
  982MOL0     H29574   4.400   4.770   1.823 -0.7339  0.7836 -1.5641
  982MOL0     H29575   4.448   4.651   2.038  0.5065 -0.1246  0.7090
  982MOL0     H29576   4.304   4.718   2.110  1.6208  1.0123  1.5235
  982MOL0     H29577   4.532   4.938   1.896  2.5176 -1.6504  0.9018
  982MOL0     H29578   4.691   5.147   1.977  0.1353 -2.1483 -0.2288
  982MOL0     H29579   4.627   5.243   2.121  1.5432  0.4916 -0.4899
  982MOL0     H29580   4.455   5.162   1.883 -2.1381 -0.8335  3.2072
  982MOL0     H29581   4.571   5.297   1.862 -0.8118  0.4573 -0.0081
  982MOL0     H29582   4.465   5.415   2.051 -0.8553  1.6210 -0.1138
  982MOL0     H29583   4.352   5.390   1.922  0.4798 -2.1704 -1.2480
  982MOL0     H29584   4.353   5.241   2.186  1.7223  0.7898 -1.2207
  982MOL0     H29585   4.269   5.184   2.038 -2.0357 -1.2631  3.2555
  982MOL0     H29586   3.953   5.318   2.031 -0.0677  0.0926 -0.1530
  982MOL0     H29587   3.776   5.238   2.203  0.9479 -1.3700 -1.6295
  982MOL0     H29588   3.726   5.011   2.653  0.2756 -0.7032 -0.1496
  982MOL0     H29589   3.564   4.830   2.747  1.1515 -0.7557 -0.8090
  982MOL0     H29590   3.218   4.692   2.500 -0.3390  0.9579 -0.0372
  982MOL0     H29591   3.166   4.836   2.595  1.1446  0.6504  3.6275
  982MOL0     H29592   3.123   4.695   2.791  1.2806  1.3242 -0.0291
  982MOL0     H29593   3.201   4.554   2.704 -1.2059 -0.3158 -1.8127
  982MOL0     H29594   2.938   4.536   2.706  0.1593  0.2461  1.9820
  982MOL0     H29595   3.020   4.536   2.545  0.4535 -0.8078  0.2624
  982MOL0     H29596   2.950   4.746   2.492  1.1260  0.3959 -0.4481
  982MOL0     H29597   2.814   4.640   2.549  1.3263 -0.7130 -3.9304
  982MOL0     H29598   2.770   4.868   2.632 -1.3619 -0.4223  1.9167
  982MOL0     H29599   2.930   4.875   2.703 -0.6741 -0.7605  1.1456
  982MOL0     H29600   2.888   4.730   2.876  0.2409 -0.1912  0.2964
  982MOL0     H29601   2.735   4.662   2.801 -0.6391 -0.1622  1.6900
  982MOL0     H29602   2.708   4.805   2.991  0.5810 -0.2266  0.1727
  982MOL0     H29603   2.789   4.938   2.908  0.2581  0.5408 -3.2534
  982MOL0     H29604   2.606   4.953   2.747  0.1694 -2.2499 -2.3334
  982MOL0     H29605   2.547   4.976   2.905 -0.8496  2.7358 -2.8914
  982MOL0     H29606   3.301   4.886   2.422 -0.6449 -0.2092  0.5804
  982MOL0     H29607   3.467   5.029   2.308  1.1845 -1.1489 -1.4090
  982MOL0     H29608   4.066   5.260   2.509  0.9932 -1.1760 -1.1800
  982MOL0     H29609   4.219   5.354   2.366 -2.4352 -1.8263  3.6255
  982MOL0     H29610   3.560   4.448   2.208 -1.3257 -1.8335 -1.4313
  982MOL0     H29611   3.354   4.351   2.254  2.4310 -1.3560 -5.1089
  982MOL0     H29612   2.891   4.453   2.360  2.3358 -1.0801  2.0887
  982MOL0     H29613   2.702   4.305   2.449  2.2090  2.0383  0.3049
  982MOL0     H29614   2.561   3.912   2.431  1.5504 -1.6294 -0.6888
  982MOL0     H29615   2.717   3.881   2.351  2.5375  1.6547 -2.4685
  982MOL0     H29616   2.597   3.931   2.133  3.0748 -2.0658  1.7253
  982MOL0     H29617   2.527   3.796   2.227  1.1082 -1.5756 -0.5153
  982MOL0     H29618   2.351   3.936   2.306  0.4454 -0.8917 -0.2800
  982MOL0     H29619   2.343   3.939   2.127  0.6570 -2.1212 -0.0480
  982MOL0     H29620   2.426   4.162   2.318 -2.8023  0.0907  1.3150
  982MOL0     H29621   2.472   4.162   2.146 -0.5124  2.8618  1.7333
  982MOL0     H29622   2.047   4.194   2.133 -0.0907 -1.9008  2.5453
  982MOL0     H29623   2.822   4.005   2.165 -3.3310  1.3068 -1.0562
  982MOL0     H29624   2.989   4.166   2.068  0.1113  0.8791  0.3396
  983MOL0     O29625   1.167   7.955   6.607 -0.6168 -0.1452 -1.2905
  983MOL0     C29626   1.135   7.985   6.718  0.5057 -0.0678 -0.0877
  983MOL0     O29627   1.009   7.966   6.769 -0.1909  0.1273  0.5102
  983MOL0     C29628   0.916   7.888   6.715 -0.0983 -0.1177  0.3574
  983MOL0     C29629   0.784   7.923   6.708  0.5076 -0.9471 -0.2886
  983MOL0     C29630   0.685   7.837   6.663  0.1774  0.1209  0.7756
  983MOL0     C29631   0.717   7.708   6.614 -0.4922 -0.1474  0.0554
  983MOL0     O29632   0.620   7.629   6.553 -0.9138  0.4963 -0.1969
  983MOL0     C29633   0.594   7.507   6.626  0.0097  0.1025  0.4347
  983MOL0     C29634   0.600   7.393   6.529  0.4609 -0.6744  0.2063
  983MOL0     C29635   0.496   7.391   6.409 -0.2448 -0.3201 -0.2467
  983MOL0     C29636   0.352   7.374   6.458 -1.1461  0.2270 -1.2288
  983MOL0     C29637   0.247   7.360   6.354 -1.1344  0.2002  0.0439
  983MOL0     C29638   0.111   7.324   6.421  0.8496  0.2686 -0.5767
  983MOL0     C29639  -0.021   7.330   6.337  0.3906 -0.7027 -0.2130
  983MOL0     C29640  -0.137   7.307   6.430 -0.1585  0.5805 -0.3801
  983MOL0     N29641  -0.126   7.161   6.453  0.4471 -0.4487  0.1907
  983MOL0     C29642  -0.185   7.068   6.379  0.3825  0.0789  0.4547
  983MOL0     C29643  -0.188   6.955   6.450  0.5123 -0.5051 -0.1081
  983MOL0     C29644  -0.245   6.823   6.397 -0.0459 -0.6705 -0.5940
  983MOL0     C29645  -0.377   6.809   6.475  0.2603  0.2507 -0.1485
  983MOL0     C29646  -0.447   6.669   6.484  0.5475  0.6375 -0.0074
  983MOL0     C29647  -0.540   6.664   6.606  0.0217  0.0261 -0.1765
  983MOL0     O29648  -0.596   6.535   6.621 -0.7191  0.0621 -1.2898
  983MOL0     C29649  -0.702   6.503   6.701 -0.0990 -0.1647  0.2005
  983MOL0     C29650  -0.782   6.599   6.761  0.3828  0.5372  0.9061
  983MOL0     C29651  -0.893   6.574   6.832 -0.6504  0.8493 -0.1417
  983MOL0     C29652  -0.944   6.443   6.848 -0.4167 -0.1471 -0.3020
  983MOL0     C29653  -1.077   6.419   6.915  0.5143 -0.0408  0.5397
  983MOL0     O29654  -1.140   6.298   6.921  0.3056  0.0348  0.0507
  983MOL0     C29655  -1.233   6.262   7.020 -0.4073 -0.2762 -0.4082
  983MOL0     C29656  -1.319   6.161   6.990 -0.3856 -1.2038  0.4468
  983MOL0     C29657  -1.415   6.116   7.080  0.2750  0.1267  0.0107
  983MOL0     C29658  -1.425   6.165   7.206  0.2986  0.1440  0.0386
  983MOL0     O29659  -1.513   6.128   7.310 -0.1399  0.0706 -0.8366
  983MOL0     C29660  -1.619   6.034   7.280 -0.3212  0.0709  0.2537
  983MOL0     C29661  -1.730   6.058   7.382  0.0661 -0.1208  1.1169
  983MOL0     C29662  -1.809   6.182   7.338 -0.7018  0.0169 -0.3586
  983MOL0     C29663  -1.897   6.235   7.439  0.7509  0.2998 -0.6909
  983MOL0     C29664  -1.998   6.127   7.489  0.1334  0.0810  0.5320
  983MOL0     C29665  -2.109   6.181   7.577 -0.0054  1.0454  1.0072
  983MOL0     C29666  -2.214   6.061   7.601 -0.5087  0.2505 -0.0264
  983MOL0     C29667  -2.339   6.109   7.667  0.0071  1.6604  0.3999
  983MOL0    Cl29668  -2.451   5.959   7.665  0.2066  0.2608 -0.2611
  983MOL0     C29669  -1.343   6.273   7.241 -0.4712 -0.5234 -0.0379
  983MOL0     C29670  -1.243   6.317   7.147 -0.4641 -0.2027 -0.8057
  983MOL0     O29671  -1.121   6.523   6.965 -0.0505  0.2837 -0.0207
  983MOL0     C29672  -0.867   6.340   6.787  0.4255  0.5743  0.2453
  983MOL0     C29673  -0.752   6.371   6.709 -0.5800 -0.6270 -0.3131
  983MOL0     N29674  -0.138   6.987   6.579 -0.2086  0.6269 -0.0746
  983MOL0     N29675  -0.106   7.113   6.577  0.0925 -0.3307  0.1994
  983MOL0     C29676   0.856   7.672   6.611 -0.1555 -0.4598  0.8452
  983MOL0     C29677   0.952   7.761   6.668  0.3592  0.0244  0.4720
  983MOL0     C29678   1.229   8.056   6.802  0.7021  0.5957 -0.5061
  983MOL0     C29679   1.210   8.046   6.941  0.4116 -0.4224  0.8675
  983MOL0     C29680   1.296   8.127   7.022 -0.0125  0.1211  0.5546
  983MOL0     C29681   1.381   8.221   6.965 -0.7588  0.0262 -0.4889
  983MOL0     O29682   1.447   8.299   7.056 -0.0303  1.3749  0.3267
  983MOL0     C29683   1.498   8.426   7.022  0.0891 -0.1361  0.4029
  983MOL0     C29684   1.513   8.515   7.147 -0.2700  0.3932 -0.3258
  983MOL0     C29685   1.375   8.540   7.212  0.0818  1.0036 -0.3800
  983MOL0     C29686   1.373   8.624   7.336 -0.3852 -0.3430  0.4395
  983MOL0     C29687   1.413   8.765   7.298  0.5068 -0.5012 -0.4573
  983MOL0     C29688   1.439   8.878   7.267  0.6740  0.0942  0.1142
  983MOL0     C29689   1.402   8.223   6.826 -0.6325 -0.7687  0.6378
  983MOL0     C29690   1.320   8.140   6.746  0.2422  0.3296 -0.2886
  983MOL0     H29691   0.752   8.021   6.742  1.4424 -0.1096 -1.7013
  983MOL0     H29692   0.578   7.855   6.668  0.6048  2.8590  2.2693
  983MOL0     H29693   0.497   7.504   6.677  0.1972 -0.0665  0.7917
  983MOL0     H29694   0.676   7.489   6.697 -0.6276 -2.0551  0.6767
  983MOL0     H29695   0.589   7.301   6.587  1.4280 -0.5291  0.6386
  983MOL0     H29696   0.699   7.389   6.483 -0.3116 -0.2284 -1.6153
  983MOL0     H29697   0.523   7.316   6.334 -1.5995 -0.8914 -0.1981
  983MOL0     H29698   0.493   7.492   6.367 -3.6778  0.3371  1.2239
  983MOL0     H29699   0.339   7.297   6.534  3.7059  0.5912  0.3128
  983MOL0     H29700   0.331   7.464   6.517 -1.1740 -1.1143  0.9055
  983MOL0     H29701   0.262   7.273   6.290 -3.3560 -1.5206  1.6857
  983MOL0     H29702   0.234   7.446   6.288 -0.2715 -0.9080 -1.6441
  983MOL0     H29703   0.098   7.394   6.504 -2.2756  1.0320 -1.6098
  983MOL0     H29704   0.119   7.223   6.463  1.0897  0.6038  0.2011
  983MOL0     H29705  -0.043   7.430   6.296  0.2259 -0.4656  0.4356
  983MOL0     H29706  -0.022   7.266   6.249  3.1786  0.7887 -1.4770
  983MOL0     H29707  -0.234   7.336   6.390  0.3282 -1.8781 -3.8345
  983MOL0     H29708  -0.124   7.352   6.529  0.8335  2.1514 -1.1786
  983MOL0     H29709  -0.223   7.065   6.278  0.4994 -1.6882  0.4300
  983MOL0     H29710  -0.178   6.739   6.414  0.3272 -0.7418 -2.2034
  983MOL0     H29711  -0.260   6.822   6.288 -0.5334 -1.3108 -0.5227
  983MOL0     H29712  -0.442   6.893   6.447  1.2562  1.5783  1.2984
  983MOL0     H29713  -0.350   6.829   6.579  0.4550 -0.6207 -0.0299
  983MOL0     H29714  -0.502   6.668   6.390 -1.2559  1.2576  1.0049
  983MOL0     H29715  -0.373   6.589   6.488  1.6208  1.6141  3.1765
  983MOL0     H29716  -0.617   6.738   6.582 -0.1629 -0.2734 -0.5184
  983MOL0     H29717  -0.490   6.695   6.698 -0.5307 -1.5383  0.6766
  983MOL0     H29718  -0.754   6.704   6.754 -2.5789  1.4947  1.8529
  983MOL0     H29719  -0.946   6.656   6.878 -0.6960  2.0934 -2.3343
  983MOL0     H29720  -1.309   6.111   6.894  0.1894 -1.8126  0.8068
  983MOL0     H29721  -1.498   6.054   7.048  1.2754 -0.3756 -1.6614
  983MOL0     H29722  -1.588   5.931   7.305 -3.1811 -0.7877  0.5450
  983MOL0     H29723  -1.663   6.039   7.181  0.8230  1.3474 -0.2195
  983MOL0     H29724  -1.678   6.074   7.477  1.0744  0.6355  0.4615
  983MOL0     H29725  -1.804   5.977   7.393 -1.7830  1.6105  2.0466
  983MOL0     H29726  -1.876   6.142   7.262 -4.0911  1.7540  1.4623
  983MOL0     H29727  -1.739   6.260   7.306 -0.5347 -0.3487 -0.8869
  983MOL0     H29728  -1.839   6.269   7.525  0.6659  1.2430 -0.9940
  983MOL0     H29729  -1.951   6.321   7.399 -1.0643  0.4855  1.8749
  983MOL0     H29730  -1.956   6.042   7.544 -0.4913 -0.3172  0.4052
  983MOL0     H29731  -2.036   6.087   7.395  4.1119 -0.6901 -0.9293
  983MOL0     H29732  -2.156   6.271   7.536  0.1781  0.7466  0.1281
  983MOL0     H29733  -2.059   6.205   7.672  2.7630 -2.4529  0.6259
  983MOL0     H29734  -2.251   6.048   7.499 -3.1074  2.6668  0.4547
  983MOL0     H29735  -2.168   5.976   7.652  1.5996  1.6463  0.4783
  983MOL0     H29736  -2.383   6.195   7.617 -0.2644  1.7448  0.7735
  983MOL0     H29737  -2.323   6.152   7.767 -1.1745  2.4163  0.2796
  983MOL0     H29738  -1.347   6.335   7.330  1.2538 -1.1181  0.4899
  983MOL0     H29739  -1.171   6.389   7.184  0.5099 -2.9009  3.1254
  983MOL0     H29740  -0.894   6.235   6.796  2.4968  0.1851  4.0392
  983MOL0     H29741  -0.692   6.301   6.652  0.2265 -0.3148  0.1423
  983MOL0     H29742   0.884   7.573   6.577 -2.3714 -0.6393 -0.7021
  983MOL0     H29743   1.057   7.732   6.661 -0.3684 -2.3773 -2.9121
  983MOL0     H29744   1.132   7.990   6.992 -0.4153 -0.2921 -0.1993
  983MOL0     H29745   1.274   8.133   7.128 -2.4560 -1.2276  0.2008
  983MOL0     H29746   1.431   8.470   6.947 -1.1379  0.1644  1.6425
  983MOL0     H29747   1.597   8.410   6.976  0.3693  0.7170  0.6911
  983MOL0     H29748   1.568   8.452   7.218 -0.8402 -2.4764 -2.2859
  983MOL0     H29749   1.569   8.607   7.126  0.1319 -0.0152 -1.0685
  983MOL0     H29750   1.338   8.444   7.247  1.3503  0.1426 -1.3122
  983MOL0     H29751   1.307   8.580   7.136 -0.1470  0.6545 -0.3617
  983MOL0     H29752   1.286   8.618   7.402 -0.2319 -1.0423  0.5785
  983MOL0     H29753   1.456   8.583   7.394 -0.6545 -1.0210  0.3547
  983MOL0     H29754   1.475   8.971   7.229 -0.0116 -0.0200 -0.8462
  983MOL0     H29755   1.476   8.290   6.784 -1.5396 -0.1048  0.0638
  983MOL0     H29756   1.328   8.144   6.638 -3.3110  0.2357 -0.6475
  984MOL0     O29757   1.361   2.000   5.721 -0.3194  0.9094 -0.1603
  984MOL0     C29758   1.456   2.008   5.800 -1.1011 -0.5182 -1.3434
  984MOL0     O29759   1.469   2.105   5.898 -0.4422 -0.2230 -0.1530
  984MOL0     C29760   1.359   2.183   5.926  1.1492 -0.5048  0.1128
  984MOL0     C29761   1.252   2.136   5.997  1.0374  0.2634  0.4765
  984MOL0     C29762   1.125   2.199   5.988  0.2438 -1.0606  0.2323
  984MOL0     C29763   1.104   2.318   5.921  0.7188  0.4785 -0.5525
  984MOL0     O29764   0.982   2.392   5.902 -0.2673  0.2849  0.7671
  984MOL0     C29765   0.866   2.308   5.933  0.1452 -0.0600  0.4360
  984MOL0     C29766   0.739   2.369   5.887 -0.7791 -0.0461  0.6133
  984MOL0     C29767   0.722   2.519   5.942  0.1383  0.0871  0.7988
  984MOL0     C29768   0.581   2.569   5.912 -0.1778 -0.2487  0.2874
  984MOL0     C29769   0.552   2.586   5.769 -0.4176 -0.1779  0.5176
  984MOL0     C29770   0.423   2.652   5.740  0.3565 -0.1702  0.2576
  984MOL0     C29771   0.409   2.801   5.788 -0.3132  0.2025  0.0657
  984MOL0     C29772   0.302   2.883   5.711 -0.7203  0.5641 -0.1575
  984MOL0     N29773   0.171   2.833   5.754 -0.2761 -0.4501 -0.1161
  984MOL0     C29774   0.102   2.729   5.692 -0.5133  0.1625  0.3337
  984MOL0     C29775  -0.015   2.712   5.768 -0.2104 -0.4342 -0.4863
  984MOL0     C29776  -0.132   2.622   5.746 -0.4689  0.1359 -0.5619
  984MOL0     C29777  -0.271   2.688   5.761 -0.4344 -0.8810  0.1797
  984MOL0     C29778  -0.395   2.601   5.735 -0.7163  0.2775  0.1550
  984MOL0     C29779  -0.529   2.679   5.770  0.7101  0.3690 -0.2021
  984MOL0     O29780  -0.632   2.589   5.754  0.1382 -0.9873  0.3231
  984MOL0     C29781  -0.755   2.631   5.797  0.5853  0.1583  0.6061
  984MOL0     C29782  -0.853   2.535   5.776  0.3913 -0.2117 -0.4968
  984MOL0     C29783  -0.987   2.568   5.796 -0.6214  0.6626 -0.0095
  984MOL0     C29784  -1.024   2.692   5.851  0.7807  0.7187 -0.3977
  984MOL0     C29785  -1.165   2.719   5.868 -0.0257 -1.1547 -0.2111
  984MOL0     O29786  -1.257   2.626   5.818 -0.4110 -0.4805 -0.5599
  984MOL0     C29787  -1.391   2.660   5.804 -0.0506 -0.4326 -0.2575
  984MOL0     C29788  -1.436   2.687   5.677 -0.8039 -0.4472  0.4568
  984MOL0     C29789  -1.564   2.742   5.660 -0.3194 -0.2007  0.8286
  984MOL0     C29790  -1.651   2.769   5.770  0.0506  0.2060  0.1470
  984MOL0     O29791  -1.780   2.811   5.739 -0.7960 -0.4406 -0.5099
  984MOL0     C29792  -1.886   2.793   5.833 -0.7537 -0.1769 -1.5673
  984MOL0     C29793  -1.937   2.649   5.822  0.3665  0.0491  0.0587
  984MOL0     C29794  -2.045   2.609   5.918  0.1934 -0.0984  0.1659
  984MOL0     C29795  -2.002   2.604   6.068 -0.1204  0.3563  0.2677
  984MOL0     C29796  -2.093   2.510   6.155  0.2196  0.5741  0.1254
  984MOL0     C29797  -2.246   2.536   6.161  0.5858  0.2875  0.7691
  984MOL0     C29798  -2.333   2.486   6.283  0.5321 -0.0409 -0.0522
  984MOL0     C29799  -2.337   2.335   6.294 -0.3086 -0.3587 -0.5975
  984MOL0    Cl29800  -2.417   2.283   6.446  0.4088 -0.2615  0.1665
  984MOL0     C29801  -1.601   2.741   5.897 -0.3665  0.3987  0.6728
  984MOL0     C29802  -1.476   2.685   5.914 -0.3465 -0.2325 -0.3203
  984MOL0     O29803  -1.197   2.823   5.930  0.3043  0.0718  0.0497
  984MOL0     C29804  -0.921   2.779   5.876 -0.2760  0.2236  0.7435
  984MOL0     C29805  -0.790   2.749   5.848  0.7446 -0.1018 -0.0576
  984MOL0     N29806  -0.013   2.803   5.870  0.0576 -0.3304 -0.4393
  984MOL0     N29807   0.102   2.868   5.867  0.2700 -0.3096 -0.2260
  984MOL0     C29808   1.214   2.379   5.871  0.1711 -0.9235  0.5870
  984MOL0     C29809   1.341   2.317   5.876 -0.6574 -0.4243 -0.0628
  984MOL0     C29810   1.565   1.914   5.787 -0.6619  0.3673 -0.0536
  984MOL0     C29811   1.700   1.954   5.792  0.3565  0.5714  0.4905
  984MOL0     C29812   1.804   1.860   5.771  0.3373  0.0401  0.1791
  984MOL0     C29813   1.769   1.729   5.739 -0.4131  0.8281 -0.3336
  984MOL0     O29814   1.868   1.630   5.724 -0.7287 -0.0766  0.1139
  984MOL0     C29815   2.011   1.663   5.721  0.6625 -0.7001  0.2363
  984MOL0     C29816   2.090   1.536   5.708 -0.2245 -0.1308 -0.2782
  984MOL0     C29817   2.242   1.564   5.719 -0.0625 -0.1226 -1.3557
  984MOL0     C29818   2.321   1.441   5.688 -0.0733  0.9974 -0.2347
  984MOL0     C29819   2.467   1.461   5.728 -0.3209  1.1552  0.0733
  984MOL0     C29820   2.585   1.458   5.756 -0.0724 -0.0238  0.2479
  984MOL0     C29821   1.641   1.688   5.730 -0.0803  0.3106 -0.6976
  984MOL0     C29822   1.537   1.777   5.757 -0.0687 -0.1310 -0.1759
  984MOL0     H29823   1.261   2.036   6.037  0.7513  0.4757  1.0797
  984MOL0     H29824   1.038   2.144   6.024 -1.3632  2.0631  1.5165
  984MOL0     H29825   0.852   2.286   6.039 -1.2484 -0.2784  0.2207
  984MOL0     H29826   0.881   2.211   5.883 -3.3625 -0.0059 -1.0455
  984MOL0     H29827   0.656   2.306   5.919 -0.1655 -1.5699 -0.6982
  984MOL0     H29828   0.738   2.371   5.778 -0.7265 -2.5811  0.5200
  984MOL0     H29829   0.797   2.588   5.903 -1.7952  2.8090  1.5989
  984MOL0     H29830   0.737   2.524   6.050  0.3416  2.2169  0.7185
  984MOL0     H29831   0.510   2.493   5.947 -0.8912  0.4784  0.4643
  984MOL0     H29832   0.566   2.659   5.973 -1.9803 -1.3393  1.5648
  984MOL0     H29833   0.557   2.493   5.713 -0.6392  1.3800 -2.2346
  984MOL0     H29834   0.633   2.647   5.728  0.4116 -1.0119  0.8806
  984MOL0     H29835   0.334   2.605   5.783  0.6109 -1.2260 -0.3306
  984MOL0     H29836   0.408   2.644   5.632 -0.3692 -2.1910  0.4712
  984MOL0     H29837   0.390   2.807   5.896 -0.7747  0.9493 -0.0511
  984MOL0     H29838   0.509   2.831   5.756  0.2106 -2.5287 -1.1923
  984MOL0     H29839   0.312   2.858   5.605  2.3134  1.1495 -0.0952
  984MOL0     H29840   0.307   2.991   5.728 -1.9858  0.6854 -0.4279
  984MOL0     H29841   0.136   2.672   5.606  3.2993  1.0487  1.0903
  984MOL0     H29842  -0.126   2.541   5.818  3.9879  2.1131  1.6995
  984MOL0     H29843  -0.121   2.570   5.651 -1.9792 -0.4020 -0.4666
  984MOL0     H29844  -0.268   2.779   5.700  0.7891  0.0736  1.6008
  984MOL0     H29845  -0.267   2.721   5.865  0.5229  2.1366 -0.7102
  984MOL0     H29846  -0.399   2.585   5.627  0.3469  1.1590 -0.0295
  984MOL0     H29847  -0.390   2.512   5.798 -1.7920 -0.7709 -1.1777
  984MOL0     H29848  -0.544   2.762   5.700  1.7112  0.0636 -0.7806
  984MOL0     H29849  -0.519   2.705   5.876  1.3066 -3.4304  0.8121
  984MOL0     H29850  -0.814   2.440   5.740  0.5774 -0.2617 -0.1682
  984MOL0     H29851  -1.059   2.502   5.750 -1.3272  1.6722 -0.3798
  984MOL0     H29852  -1.370   2.676   5.591  0.9881  0.9464  1.5788
  984MOL0     H29853  -1.601   2.763   5.560 -0.0139  0.7568  0.9095
  984MOL0     H29854  -1.968   2.857   5.800 -0.1967  0.4068 -1.8454
  984MOL0     H29855  -1.848   2.814   5.933  1.4797  1.2163 -2.6224
  984MOL0     H29856  -1.848   2.587   5.838 -0.2597 -0.5434  1.3991
  984MOL0     H29857  -1.975   2.641   5.720  1.5377  0.6043 -0.4392
  984MOL0     H29858  -2.080   2.512   5.882 -3.5511  1.3286 -0.5376
  984MOL0     H29859  -2.120   2.689   5.909  2.6046  2.4219  0.9132
  984MOL0     H29860  -1.895   2.583   6.078  0.1271  1.5450  0.2780
  984MOL0     H29861  -2.016   2.706   6.107  0.1028  0.1723  0.8451
  984MOL0     H29862  -2.042   2.510   6.252 -0.7432  2.0817  0.6756
  984MOL0     H29863  -2.084   2.406   6.122 -3.8067 -0.0314  0.4121
  984MOL0     H29864  -2.290   2.509   6.064  1.4735 -0.5792  0.5959
  984MOL0     H29865  -2.267   2.644   6.157 -2.6042 -0.2395  0.0863
  984MOL0     H29866  -2.304   2.526   6.380  2.3395 -2.8624  0.6865
  984MOL0     H29867  -2.434   2.511   6.250  0.3805 -0.3264  0.2011
  984MOL0     H29868  -2.232   2.306   6.304  0.0300  1.4272  2.0826
  984MOL0     H29869  -2.386   2.296   6.204  3.3053 -1.0964 -2.4483
  984MOL0     H29870  -1.658   2.786   5.978 -0.9897 -2.6478  2.0512
  984MOL0     H29871  -1.434   2.663   6.011  0.8007  2.4116 -0.1211
  984MOL0     H29872  -0.944   2.873   5.925 -4.1136 -0.0542 -0.1722
  984MOL0     H29873  -0.716   2.824   5.876  0.0498  0.9748 -1.0508
  984MOL0     H29874   1.211   2.469   5.811  2.1131 -1.6616 -0.7201
  984MOL0     H29875   1.424   2.359   5.820 -3.1171  1.7994 -2.3328
  984MOL0     H29876   1.732   2.058   5.790  0.9579  0.3827 -0.7506
  984MOL0     H29877   1.909   1.886   5.768  1.0750 -2.5608  1.1262
  984MOL0     H29878   2.036   1.710   5.816 -1.6733  0.2500  0.4357
  984MOL0     H29879   2.042   1.726   5.638  2.7036 -2.4831 -0.4288
  984MOL0     H29880   2.051   1.467   5.783 -0.7736  1.6432  1.1288
  984MOL0     H29881   2.070   1.490   5.611 -0.3385  2.5446 -1.6104
  984MOL0     H29882   2.252   1.597   5.823 -1.1041  2.0398 -1.8969
  984MOL0     H29883   2.270   1.648   5.655 -1.9517 -0.0037 -2.0708
  984MOL0     H29884   2.274   1.359   5.743  0.8935  0.0870 -0.7416
  984MOL0     H29885   2.314   1.419   5.582 -0.7661 -1.3349  0.2432
  984MOL0     H29886   2.692   1.462   5.765 -0.0619  1.2366 -0.2450
  984MOL0     H29887   1.629   1.584   5.703  2.5340 -1.0862  2.7504
  984MOL0     H29888   1.436   1.740   5.748 -0.8851  1.6972  0.8879
  985MOL0     O29889   2.126   2.573  10.386  0.1644  0.6870  0.7403
  985MOL0     C29890   2.196   2.528  10.478  0.4611 -0.7163 -0.2382
  985MOL0     O29891   2.150   2.467  10.592 -0.0982 -0.6362 -0.1324
  985MOL0     C29892   2.017   2.441  10.605  0.4689  0.6555  0.6678
  985MOL0     C29893   1.942   2.541  10.669 -0.3626 -0.0422 -0.0498
  985MOL0     C29894   1.807   2.519  10.679 -1.0994  0.6496  0.0500
  985MOL0     C29895   1.742   2.408  10.625 -0.1897  0.5237 -0.2243
  985MOL0     O29896   1.607   2.372  10.640  0.2252 -0.0008  0.0063
  985MOL0     C29897   1.522   2.472  10.706 -0.9937  0.3954  0.0489
  985MOL0     C29898   1.468   2.576  10.611 -0.8899  1.2996  0.0451
  985MOL0     C29899   1.341   2.531  10.536 -0.4066  0.0080 -0.3877
  985MOL0     C29900   1.222   2.540  10.633 -0.9432 -0.2559 -0.0528
  985MOL0     C29901   1.097   2.457  10.600 -0.5909  0.8844  0.7759
  985MOL0     C29902   1.039   2.497  10.461 -0.8022 -0.3278  0.2853
  985MOL0     C29903   0.988   2.644  10.482 -0.0153 -1.3538 -1.1276
  985MOL0     C29904   0.907   2.697  10.364  0.4872 -0.7395  0.6709
  985MOL0     N29905   0.767   2.647  10.362 -0.0516  0.6336  0.6415
  985MOL0     C29906   0.734   2.524  10.322  0.8419  0.0816  0.9556
  985MOL0     C29907   0.600   2.523  10.317  0.3972 -0.7213 -0.2070
  985MOL0     C29908   0.522   2.401  10.275  0.1517 -0.1946  1.5734
  985MOL0     C29909   0.403   2.377  10.374  0.4687 -0.2316 -0.0931
  985MOL0     C29910   0.323   2.254  10.341  0.8690  0.4140 -0.1669
  985MOL0     C29911   0.207   2.236  10.428  1.0435  0.3708  0.0593
  985MOL0     O29912   0.113   2.139  10.385 -0.6580  0.1463 -0.4802
  985MOL0     C29913  -0.002   2.130  10.451 -0.7422  0.4337 -0.6478
  985MOL0     C29914  -0.020   2.157  10.590 -0.2371 -1.0754  0.3719
  985MOL0     C29915  -0.147   2.151  10.643 -0.9036  1.3948  0.1842
  985MOL0     C29916  -0.256   2.118  10.570 -0.3631  0.7545  0.4586
  985MOL0     C29917  -0.388   2.105  10.644 -0.1892 -0.5393 -0.4063
  985MOL0     O29918  -0.395   2.149  10.773 -0.7921  0.4002  1.2090
  985MOL0     C29919  -0.504   2.134  10.849 -0.4730 -1.0195 -0.0640
  985MOL0     C29920  -0.583   2.022  10.850 -0.0275  0.0914  0.2988
  985MOL0     C29921  -0.694   2.007  10.928  0.0905  0.2778 -1.3378
  985MOL0     C29922  -0.747   2.113  11.006  0.3129  0.2558  0.1033
  985MOL0     O29923  -0.862   2.111  11.084  0.8215 -0.3729 -1.0440
  985MOL0     C29924  -0.910   1.984  11.134  0.4261  0.7771  1.3346
  985MOL0     C29925  -1.028   2.013  11.225 -0.7723 -0.0641 -0.1649
  985MOL0     C29926  -0.974   2.032  11.371 -0.6387 -0.3457  0.1012
  985MOL0     C29927  -1.091   2.018  11.476  0.1195  0.0156 -0.2090
  985MOL0     C29928  -1.189   2.137  11.459 -1.1953  0.7480  0.8548
  985MOL0     C29929  -1.293   2.136  11.568 -0.9169  1.1069  0.1773
  985MOL0     C29930  -1.398   2.032  11.535 -0.1288 -0.3568 -0.7539
  985MOL0     C29931  -1.493   2.011  11.659 -1.0423  0.6712  0.6389
  985MOL0    Cl29932  -1.647   1.945  11.601 -0.3855  0.4341 -0.2509
  985MOL0     C29933  -0.677   2.236  10.993 -0.4499  0.3408  0.2795
  985MOL0     C29934  -0.559   2.242  10.913 -0.1381 -0.9635 -0.6317
  985MOL0     O29935  -0.481   2.057  10.584  0.3745  0.2014  0.5570
  985MOL0     C29936  -0.236   2.092  10.440  0.2030  0.9967  0.1767
  985MOL0     C29937  -0.112   2.082  10.376 -0.2317  0.4249 -0.0245
  985MOL0     N29938   0.555   2.648  10.354 -0.2196  1.0399  0.0381
  985MOL0     N29939   0.655   2.724  10.383 -0.0200  0.3679 -0.9092
  985MOL0     C29940   1.816   2.320  10.554 -0.1245  1.1958 -0.0539
  985MOL0     C29941   1.948   2.345  10.529 -0.5663 -0.2194 -0.6454
  985MOL0     C29942   2.345   2.535  10.463 -0.9970  0.4381 -0.7298
  985MOL0     C29943   2.420   2.499  10.581  0.3682  0.3560  0.3887
  985MOL0     C29944   2.562   2.490  10.583  0.1464 -0.1859 -0.1609
  985MOL0     C29945   2.623   2.518  10.458 -0.2267  0.4767  0.4393
  985MOL0     O29946   2.759   2.502  10.440 -0.0894 -1.1771 -0.2883
  985MOL0     C29947   2.823   2.615  10.388  0.1219  0.1592  0.0897
  985MOL0     C29948   2.932   2.670  10.476 -0.5546 -0.3449 -0.6752
  985MOL0     C29949   3.073   2.589  10.470  0.1624  0.3856  0.7077
  985MOL0     C29950   3.184   2.669  10.529 -0.8664 -0.2832  0.0125
  985MOL0     C29951   3.309   2.589  10.519  0.6320  0.4976  0.1127
  985MOL0     C29952   3.405   2.509  10.523 -0.0266 -1.1063 -1.4577
  985MOL0     C29953   2.553   2.558  10.345  0.3386 -0.9483 -0.2873
  985MOL0     C29954   2.415   2.576  10.356  0.7359  0.0418 -0.6572
  985MOL0     H29955   1.998   2.614  10.726  2.9087 -1.4739 -1.2013
  985MOL0     H29956   1.750   2.580  10.749 -0.1088 -0.9700  2.4382
  985MOL0     H29957   1.565   2.515  10.797 -2.4402  2.0191  0.0226
  985MOL0     H29958   1.434   2.416  10.740 -3.2711  3.3962 -0.4076
  985MOL0     H29959   1.546   2.588  10.535  0.6157  0.0652  1.3286
  985MOL0     H29960   1.454   2.675  10.655 -1.0239  2.0616 -1.6057
  985MOL0     H29961   1.362   2.426  10.513  6.8974  0.8449  0.1860
  985MOL0     H29962   1.322   2.582  10.441 -0.7057  2.2567  0.8114
  985MOL0     H29963   1.253   2.510  10.733 -0.3658 -1.2427 -0.5125
  985MOL0     H29964   1.188   2.644  10.633 -1.6315 -0.4009 -2.8253
  985MOL0     H29965   1.021   2.481  10.675 -0.4075  0.1567  1.2035
  985MOL0     H29966   1.121   2.350  10.602 -1.1559  0.5852 -2.5634
  985MOL0     H29967   0.953   2.435  10.434 -2.3422  2.1258 -0.9467
  985MOL0     H29968   1.105   2.496  10.374 -0.9172  0.8957  0.1627
  985MOL0     H29969   0.937   2.639  10.578  0.9747 -1.8099 -0.6125
  985MOL0     H29970   1.067   2.719  10.491 -1.0572 -0.0987 -2.0238
  985MOL0     H29971   0.956   2.661  10.272  0.4147  1.7475 -0.4293
  985MOL0     H29972   0.913   2.805  10.375  1.2648 -0.9398  2.4602
  985MOL0     H29973   0.793   2.443  10.280 -0.2613 -0.3619  0.2253
  985MOL0     H29974   0.582   2.311  10.289  1.0137  0.6358  3.5969
  985MOL0     H29975   0.470   2.404  10.178 -0.7862 -1.1961  2.0158
  985MOL0     H29976   0.343   2.466  10.396 -0.0302 -1.0053  1.9131
  985MOL0     H29977   0.443   2.360  10.474  0.6046  0.4836 -0.0158
  985MOL0     H29978   0.287   2.272  10.239  0.9727 -0.6987 -0.4032
  985MOL0     H29979   0.395   2.173  10.359  0.5035  0.2185  0.4436
  985MOL0     H29980   0.150   2.329  10.434 -0.4252 -0.3084 -2.3242
  985MOL0     H29981   0.244   2.199  10.525 -0.2516 -1.5176 -0.1046
  985MOL0     H29982   0.063   2.202  10.645  0.1891 -3.2639  1.6270
  985MOL0     H29983  -0.162   2.178  10.747 -2.4435  0.0384  0.3671
  985MOL0     H29984  -0.549   1.937  10.790  0.2203  0.4297 -0.0458
  985MOL0     H29985  -0.739   1.908  10.933  0.1260  0.2902 -0.7059
  985MOL0     H29986  -0.822   1.929  11.171 -1.2021 -1.6403  1.8161
  985MOL0     H29987  -0.950   1.917  11.057 -2.0520  2.2654  1.2207
  985MOL0     H29988  -1.103   1.934  11.236 -0.9707  0.4088  2.5133
  985MOL0     H29989  -1.072   2.104  11.183  2.3189  1.9123  0.5599
  985MOL0     H29990  -0.936   2.134  11.379 -0.5313 -0.4168  0.4851
  985MOL0     H29991  -0.905   1.950  11.394 -0.2830  0.3619  1.6534
  985MOL0     H29992  -1.133   1.921  11.448  0.8467 -0.1823 -0.6389
  985MOL0     H29993  -1.042   2.015  11.573  0.4831 -2.5683 -0.3944
  985MOL0     H29994  -1.234   2.152  11.360 -1.2560  2.2003  1.0745
  985MOL0     H29995  -1.121   2.222  11.468  0.7950 -0.8884  2.1073
  985MOL0     H29996  -1.329   2.239  11.572 -2.1797  0.7779 -1.5030
  985MOL0     H29997  -1.242   2.105  11.660  1.1704  3.7244  0.0468
  985MOL0     H29998  -1.456   2.084  11.457 -0.8794 -0.9008 -0.5704
  985MOL0     H29999  -1.347   1.943  11.499  0.8755 -0.2097  0.2828
  985MOL0     H30000  -1.502   2.099  11.723  0.3068  1.1334  0.2268
  985MOL0     H30001  -1.448   1.936  11.726 -0.5442  1.2861  1.0068
  985MOL0     H30002  -0.717   2.326  11.039 -2.5224 -0.3130 -0.1418
  985MOL0     H30003  -0.501   2.332  10.893  1.1954 -1.9538 -1.4196
  985MOL0     H30004  -0.316   2.070  10.370 -0.0264  0.7438  0.5158
  985MOL0     H30005  -0.090   2.045  10.277  1.1878 -2.0785  1.1410
  985MOL0     H30006   1.772   2.231  10.510  2.4153 -1.0101  1.4620
  985MOL0     H30007   1.994   2.279  10.456 -1.8093 -0.6334 -1.0838
  985MOL0     H30008   2.367   2.492  10.676 -2.2197  1.9531 -0.8270
  985MOL0     H30009   2.622   2.455  10.666  2.5317 -0.5440 -1.9085
  985MOL0     H30010   2.755   2.700  10.378 -0.7206 -0.5879 -0.6422
  985MOL0     H30011   2.860   2.593  10.287 -2.3372 -1.8891 -0.4580
  985MOL0     H30012   2.947   2.777  10.462 -1.1345 -0.0678  0.6442
  985MOL0     H30013   2.896   2.639  10.575  0.1531  1.3241  0.1436
  985MOL0     H30014   3.084   2.569  10.363 -2.1399  2.4381 -0.0001
  985MOL0     H30015   3.063   2.499  10.532 -1.8754  0.1613  0.1431
  985MOL0     H30016   3.193   2.762  10.472 -1.5828  0.7849  1.5399
  985MOL0     H30017   3.153   2.696  10.631 -0.2952  0.9307 -0.1180
  985MOL0     H30018   3.485   2.438  10.525  1.6956  0.7439 -1.2816
  985MOL0     H30019   2.592   2.587  10.248 -3.4183  1.0996 -1.3833
  985MOL0     H30020   2.354   2.614  10.275 -0.9607  1.0984  1.0435
  986MOL0     O30021   4.956   2.438   2.601  0.1566  0.4738 -0.4272
  986MOL0     C30022   4.934   2.318   2.582  0.4019 -0.5581 -0.0336
  986MOL0     O30023   5.028   2.213   2.579  0.0406  0.3277 -0.0856
  986MOL0     C30024   5.155   2.241   2.615  0.6511  1.0643  1.1976
  986MOL0     C30025   5.198   2.165   2.729  0.4722  0.1585  0.7573
  986MOL0     C30026   5.331   2.177   2.769  0.2774  0.2290  0.6135
  986MOL0     C30027   5.411   2.268   2.698  0.4404  0.1443  0.2637
  986MOL0     O30028   5.543   2.287   2.719 -0.1148  0.2974 -0.8719
  986MOL0     C30029   5.614   2.213   2.826  0.7452 -0.2931  0.2570
  986MOL0     C30030   5.760   2.219   2.802  0.2242  0.0270 -0.0345
  986MOL0     C30031   5.826   2.131   2.909  0.1827  0.4251 -0.5800
  986MOL0     C30032   5.977   2.121   2.895 -0.0313 -0.7850  0.0760
  986MOL0     C30033   6.034   2.063   3.015  0.0414  0.0928 -0.3999
  986MOL0     C30034   6.188   2.039   2.990  0.6504  0.0697 -0.2900
  986MOL0     C30035   6.247   1.970   3.114  0.1548 -0.0244 -0.5909
  986MOL0     C30036   6.352   1.864   3.061  0.4289 -0.0407 -0.0990
  986MOL0     N30037   6.304   1.734   3.015  0.8424 -0.7043 -0.0782
  986MOL0     C30038   6.228   1.647   3.093 -0.2521  0.0854  0.5607
  986MOL0     C30039   6.242   1.517   3.044 -0.3114 -0.2716 -0.2121
  986MOL0     C30040   6.180   1.386   3.068  0.4581  0.4016 -0.4250
  986MOL0     C30041   6.250   1.259   3.012  0.1506  0.6158 -0.0364
  986MOL0     C30042   6.185   1.126   3.059 -0.0413  0.9161  0.1375
  986MOL0     C30043   6.081   1.082   2.957  0.3481  0.1726 -0.3312
  986MOL0     O30044   6.021   0.952   3.004 -0.3446 -0.0382  0.7785
  986MOL0     C30045   5.889   0.959   3.006 -0.1973 -0.2739  0.1569
  986MOL0     C30046   5.816   0.866   2.924 -0.3143 -0.3078 -0.7283
  986MOL0     C30047   5.671   0.866   2.932 -0.0515 -0.5061  0.2557
  986MOL0     C30048   5.599   0.956   3.013 -0.8837  0.1984  0.2573
  986MOL0     C30049   5.453   0.969   3.010  0.2284 -0.4469  0.4320
  986MOL0     O30050   5.391   0.887   2.920  0.4152  0.5664 -0.3563
  986MOL0     C30051   5.254   0.876   2.925 -0.2230  1.2041 -0.0349
  986MOL0     C30052   5.170   0.990   2.929 -0.2805  0.6662  0.1393
  986MOL0     C30053   5.029   0.973   2.921 -0.0719  0.4988 -0.0033
  986MOL0     C30054   4.977   0.845   2.917 -0.1696 -0.2937  0.4411
  986MOL0     O30055   4.838   0.846   2.906  0.2232 -0.1120  0.4527
  986MOL0     C30056   4.763   0.727   2.904 -0.6610  0.0195 -0.0953
  986MOL0     C30057   4.668   0.717   3.024 -0.4851 -0.8222  0.7223
  986MOL0     C30058   4.584   0.582   3.024  0.6180 -0.9041  0.6064
  986MOL0     C30059   4.528   0.562   3.170  0.2580  0.0763 -0.1134
  986MOL0     C30060   4.405   0.479   3.195  1.0781  0.5468  0.1639
  986MOL0     C30061   4.294   0.495   3.093  0.8603  0.6880  0.5279
  986MOL0     C30062   4.166   0.422   3.146 -0.0994 -0.7883 -0.0593
  986MOL0     C30063   4.070   0.373   3.036 -0.1234 -0.1160 -0.0516
  986MOL0    Cl30064   3.918   0.471   3.049 -0.2688  0.8335  0.0014
  986MOL0     C30065   5.056   0.730   2.929  0.3147 -0.8236 -0.4730
  986MOL0     C30066   5.193   0.743   2.920 -0.7862  0.2379 -0.0422
  986MOL0     O30067   5.402   1.042   3.094 -0.7508 -0.4070  0.4221
  986MOL0     C30068   5.674   1.052   3.074 -0.9398 -0.1524  0.1169
  986MOL0     C30069   5.815   1.054   3.078 -0.0063  0.5941 -0.3546
  986MOL0     N30070   6.337   1.537   2.943 -0.1177  0.2069  0.2059
  986MOL0     N30071   6.359   1.663   2.912 -1.3557 -0.1867  0.2866
  986MOL0     C30072   5.368   2.354   2.599 -0.2745 -0.0418  0.3096
  986MOL0     C30073   5.237   2.337   2.545  0.5452 -0.2213 -0.3173
  986MOL0     C30074   4.790   2.289   2.569 -0.2852  0.3192 -0.3829
  986MOL0     C30075   4.695   2.380   2.522  0.3961 -0.3510 -0.2598
  986MOL0     C30076   4.569   2.336   2.497  0.2643  0.5593  0.1128
  986MOL0     C30077   4.522   2.210   2.540 -0.0036  0.2873 -0.5260
  986MOL0     O30078   4.391   2.178   2.549  0.2619  0.8388 -0.5283
  986MOL0     C30079   4.293   2.271   2.504 -0.3362  0.7469 -0.5245
  986MOL0     C30080   4.152   2.209   2.541  0.2409 -0.9770 -0.4797
  986MOL0     C30081   4.130   2.241   2.694 -0.6390  0.7525 -0.8236
  986MOL0     C30082   4.096   2.385   2.719 -0.6557  0.4392 -0.1356
  986MOL0     C30083   4.011   2.400   2.836 -0.1897 -0.0095  0.4805
  986MOL0     C30084   3.936   2.403   2.928 -0.5917 -0.3695 -0.3866
  986MOL0     C30085   4.619   2.119   2.587  0.9643  0.5534  1.9068
  986MOL0     C30086   4.750   2.159   2.596 -0.0560  0.1453  0.7480
  986MOL0     H30087   5.141   2.084   2.773  2.0171 -2.1122 -1.1641
  986MOL0     H30088   5.366   2.113   2.849  0.6558  1.4309  1.4405
  986MOL0     H30089   5.597   2.105   2.832  0.9861 -0.2731  1.5264
  986MOL0     H30090   5.583   2.245   2.926  0.1220 -0.7456  0.2175
  986MOL0     H30091   5.788   2.322   2.823  0.1245  0.7423 -2.9097
  986MOL0     H30092   5.800   2.195   2.703 -0.0325 -2.4238  0.4001
  986MOL0     H30093   5.778   2.033   2.901  1.0723 -0.1729  0.9749
  986MOL0     H30094   5.794   2.165   3.007 -0.8193  2.2277 -1.4817
  986MOL0     H30095   6.005   2.067   2.804 -0.2041 -1.2381  0.2884
  986MOL0     H30096   6.013   2.225   2.892 -1.1445 -0.3571  1.0279
  986MOL0     H30097   5.990   1.965   3.039  1.4362 -0.0944  1.6630
  986MOL0     H30098   6.016   2.124   3.103 -0.6660 -0.0986 -0.4001
  986MOL0     H30099   6.233   2.138   2.976  0.3558  0.3913  0.8939
  986MOL0     H30100   6.205   1.981   2.899  0.6999 -3.4501  1.7860
  986MOL0     H30101   6.304   2.036   3.181 -1.1284  0.4812  0.0438
  986MOL0     H30102   6.168   1.921   3.171  0.0887 -0.2146 -0.8441
  986MOL0     H30103   6.406   1.845   3.154  0.3448  1.0745  0.1887
  986MOL0     H30104   6.422   1.904   2.986  1.3060 -0.2671  0.5772
  986MOL0     H30105   6.156   1.678   3.167 -0.1220  2.0153 -0.0720
  986MOL0     H30106   6.083   1.390   3.018  0.1985  0.4627  0.0752
  986MOL0     H30107   6.161   1.373   3.175 -2.4505 -1.5454 -1.0317
  986MOL0     H30108   6.358   1.268   3.028  0.0367 -2.7595  4.6933
  986MOL0     H30109   6.234   1.271   2.905  3.8780 -0.3679 -0.8301
  986MOL0     H30110   6.263   1.049   3.068 -1.2764 -0.3965  0.0640
  986MOL0     H30111   6.135   1.140   3.156 -1.0964 -2.3754  0.1937
  986MOL0     H30112   6.130   1.042   2.868  0.3137 -1.6414  0.4051
  986MOL0     H30113   6.009   1.158   2.926  1.1488  0.2358 -2.1472
  986MOL0     H30114   5.869   0.800   2.855 -1.2975 -0.1023 -1.7043
  986MOL0     H30115   5.618   0.797   2.867 -0.5021  1.6534 -1.7891
  986MOL0     H30116   5.215   1.088   2.942 -0.9446  1.3544 -2.3019
  986MOL0     H30117   4.956   1.053   2.912 -1.6320 -0.8337  0.4852
  986MOL0     H30118   4.833   0.643   2.903  1.1864  1.4665 -2.1720
  986MOL0     H30119   4.709   0.739   2.810 -2.7471  3.1318  1.3162
  986MOL0     H30120   4.598   0.801   3.019 -0.3327 -0.7380 -0.1589
  986MOL0     H30121   4.719   0.730   3.120 -2.1142  3.4114  1.2488
  986MOL0     H30122   4.651   0.497   3.008  0.1159 -1.1069 -0.5255
  986MOL0     H30123   4.504   0.574   2.951 -1.3030 -0.2584  2.5242
  986MOL0     H30124   4.604   0.527   3.241  0.1408  0.1841  0.0681
  986MOL0     H30125   4.516   0.659   3.219 -0.7334 -0.1549  0.1345
  986MOL0     H30126   4.366   0.517   3.289  0.1538  0.5132 -0.2000
  986MOL0     H30127   4.427   0.372   3.200 -0.0455  0.3577  1.7612
  986MOL0     H30128   4.324   0.449   2.998  0.1512  1.2113  0.0398
  986MOL0     H30129   4.266   0.598   3.067 -2.3454 -0.6248 -2.0729
  986MOL0     H30130   4.204   0.345   3.214  1.6077 -0.1799 -0.2514
  986MOL0     H30131   4.106   0.488   3.209  0.1962 -0.2093 -0.3774
  986MOL0     H30132   4.055   0.265   3.045  1.0455 -0.4660 -1.7922
  986MOL0     H30133   4.111   0.396   2.938 -1.7682  1.4660 -0.4280
  986MOL0     H30134   5.025   0.626   2.940 -1.1369 -0.3372  0.3387
  986MOL0     H30135   5.254   0.653   2.910 -0.3543  0.5205  0.0391
  986MOL0     H30136   5.630   1.137   3.125  2.1626  0.8025  1.4514
  986MOL0     H30137   5.877   1.120   3.138  0.5006  0.9562 -1.2609
  986MOL0     H30138   5.438   2.419   2.548  3.4367 -3.1623  0.9765
  986MOL0     H30139   5.191   2.395   2.466 -1.8971  2.7566  2.9262
  986MOL0     H30140   4.722   2.483   2.498 -3.2592  0.9045  0.4312
  986MOL0     H30141   4.496   2.399   2.448 -2.7861 -2.5922  0.1775
  986MOL0     H30142   4.302   2.280   2.395  3.1704 -0.2181 -0.4367
  986MOL0     H30143   4.306   2.367   2.553 -1.7195  2.0822 -2.5977
  986MOL0     H30144   4.085   2.259   2.472 -0.2377 -1.0697 -0.0877
  986MOL0     H30145   4.159   2.101   2.523 -1.0812 -1.1040 -0.3175
  986MOL0     H30146   4.219   2.205   2.746 -0.9108 -0.4850 -1.1721
  986MOL0     H30147   4.050   2.174   2.729 -0.2644  1.0973  0.7948
  986MOL0     H30148   4.186   2.441   2.743 -0.9723  1.7054 -1.6978
  986MOL0     H30149   4.046   2.435   2.635 -4.1625 -4.0737 -1.1282
  986MOL0     H30150   3.880   2.402   3.020  0.9553 -0.7005  0.5923
  986MOL0     H30151   4.602   2.016   2.619  2.4365 -0.1957  0.4618
  986MOL0     H30152   4.823   2.080   2.610  0.6731  0.4808 -0.9263
  987MOL0     O30153   4.049   8.259   8.678 -0.4997  0.8541  0.3050
  987MOL0     C30154   4.074   8.308   8.788 -0.6741  1.0121 -0.4000
  987MOL0     O30155   4.019   8.419   8.834 -0.6690  0.0825 -0.1194
  987MOL0     C30156   3.934   8.488   8.752  0.3839 -0.1658 -0.0095
  987MOL0     C30157   3.800   8.453   8.759  0.3794 -0.0127 -0.3824
  987MOL0     C30158   3.707   8.502   8.668 -0.8566 -0.8938 -0.5038
  987MOL0     C30159   3.752   8.583   8.560 -0.1352 -0.9349  0.1777
  987MOL0     O30160   3.663   8.632   8.468  0.2186  0.1127 -0.3634
  987MOL0     C30161   3.523   8.591   8.476  0.5842 -0.1574  0.3701
  987MOL0     C30162   3.439   8.607   8.350  0.3185 -0.9909  0.6680
  987MOL0     C30163   3.524   8.551   8.231 -0.4428 -1.1025 -0.3268
  987MOL0     C30164   3.550   8.399   8.244  1.0278 -0.6297  0.0946
  987MOL0     C30165   3.431   8.315   8.280  0.1785  0.6407  0.2903
  987MOL0     C30166   3.314   8.302   8.179  0.3736 -0.6931  0.4370
  987MOL0     C30167   3.223   8.188   8.217  0.0813 -0.4519 -0.0384
  987MOL0     C30168   3.113   8.151   8.117  0.4446  0.2098  0.2747
  987MOL0     N30169   3.039   8.029   8.140  0.3970 -0.4560 -0.0834
  987MOL0     C30170   3.084   7.905   8.115 -0.3037 -0.1075 -0.9410
  987MOL0     C30171   2.980   7.822   8.118 -0.4708 -0.1292  0.0367
  987MOL0     C30172   2.981   7.682   8.076 -0.1415 -1.3596  0.0337
  987MOL0     C30173   2.873   7.602   8.137  0.2415 -0.6545 -1.1383
  987MOL0     C30174   2.878   7.469   8.078  0.1328  0.6311  1.0657
  987MOL0     C30175   2.763   7.383   8.140  0.7661 -0.3831 -0.8696
  987MOL0     O30176   2.640   7.426   8.077 -0.3967  0.1098 -0.3367
  987MOL0     C30177   2.521   7.352   8.093 -0.7530  0.9363  0.2044
  987MOL0     C30178   2.434   7.348   7.984  0.0648 -0.2119  0.1274
  987MOL0     C30179   2.319   7.264   7.990 -0.3728  0.6072 -0.1695
  987MOL0     C30180   2.293   7.184   8.096  0.2804 -0.2910 -0.8318
  987MOL0     C30181   2.170   7.103   8.091  0.1737 -0.0017 -0.4031
  987MOL0     O30182   2.101   7.091   7.967  0.2166  0.1969 -0.4968
  987MOL0     C30183   1.997   7.003   7.967 -0.3031 -0.2994  0.2309
  987MOL0     C30184   1.879   7.039   7.898 -0.4182  0.6061 -0.6490
  987MOL0     C30185   1.772   6.946   7.879 -0.2827 -0.8402 -0.1141
  987MOL0     C30186   1.795   6.810   7.915 -0.1904  0.9748  0.1020
  987MOL0     O30187   1.708   6.702   7.882  0.0466 -0.5405 -0.1977
  987MOL0     C30188   1.586   6.731   7.804 -0.1957 -0.4345  0.1598
  987MOL0     C30189   1.467   6.783   7.882  1.0547  0.4193 -0.6466
  987MOL0     C30190   1.325   6.748   7.829  0.8166  0.3097 -0.4573
  987MOL0     C30191   1.279   6.598   7.849 -0.0365  0.2239  0.2890
  987MOL0     C30192   1.185   6.544   7.740  0.4446  0.1745  0.4704
  987MOL0     C30193   1.065   6.638   7.711 -0.2701 -0.4481  0.0640
  987MOL0     C30194   0.927   6.578   7.680 -0.4321 -0.7286 -0.4278
  987MOL0     C30195   0.868   6.495   7.786 -0.3177 -0.4522  0.0212
  987MOL0    Cl30196   0.690   6.470   7.736 -0.1032  0.0285 -0.2847
  987MOL0     C30197   1.919   6.770   7.971  0.5455 -1.2724 -1.4742
  987MOL0     C30198   2.019   6.869   7.995  0.1272 -0.0563 -1.4306
  987MOL0     O30199   2.132   7.051   8.198  0.1661 -0.2255 -0.4386
  987MOL0     C30200   2.378   7.203   8.213  0.3817  0.4844  0.0331
  987MOL0     C30201   2.495   7.282   8.207 -0.1988  0.0143  0.5511
  987MOL0     N30202   2.872   7.906   8.147  0.0002  0.4734 -1.1821
  987MOL0     N30203   2.908   8.028   8.158 -0.1330  0.3749  0.0915
  987MOL0     C30204   3.885   8.631   8.563  0.5444 -0.9655  0.2370
  987MOL0     C30205   3.981   8.584   8.656  0.1305 -1.0914 -0.2472
  987MOL0     C30206   4.181   8.247   8.878  0.0789  0.6598 -0.2025
  987MOL0     C30207   4.288   8.171   8.822  0.3728 -0.7926 -0.2906
  987MOL0     C30208   4.388   8.139   8.912  0.1957 -0.1048  0.6758
  987MOL0     C30209   4.389   8.160   9.046 -0.0266  1.4783 -0.3586
  987MOL0     O30210   4.488   8.091   9.108 -0.6653  0.3065 -0.5922
  987MOL0     C30211   4.525   8.150   9.233 -0.4407  0.5719  0.0784
  987MOL0     C30212   4.669   8.085   9.266  0.2610  0.2777 -0.1854
  987MOL0     C30213   4.712   8.093   9.406 -0.5346 -0.6191 -0.0947
  987MOL0     C30214   4.602   8.055   9.504 -0.4799  0.4799  0.3111
  987MOL0     C30215   4.663   8.017   9.628 -1.0085  1.6061 -0.1296
  987MOL0     C30216   4.742   7.987   9.719 -0.9737  0.2140 -0.0941
  987MOL0     C30217   4.283   8.229   9.100 -0.0474  0.9310 -0.2514
  987MOL0     C30218   4.179   8.269   9.019  0.5515 -0.9335  0.2741
  987MOL0     H30219   3.764   8.376   8.827 -0.4258 -1.7305 -2.6023
  987MOL0     H30220   3.611   8.452   8.674 -0.4242 -1.9907 -1.9102
  987MOL0     H30221   3.475   8.652   8.553 -0.6325 -0.6646  0.0451
  987MOL0     H30222   3.513   8.485   8.503 -1.6082  0.4451  2.3522
  987MOL0     H30223   3.401   8.707   8.327 -1.4315 -1.8060 -0.1855
  987MOL0     H30224   3.345   8.551   8.356 -0.3145 -0.0160  0.2083
  987MOL0     H30225   3.620   8.603   8.228  0.0018 -1.8471  0.6466
  987MOL0     H30226   3.469   8.568   8.138 -1.2963 -1.0519  0.1720
  987MOL0     H30227   3.594   8.364   8.150  0.9038 -2.6480  0.7464
  987MOL0     H30228   3.626   8.372   8.317  0.5547  0.4356  1.0162
  987MOL0     H30229   3.389   8.337   8.378  0.2983  1.6859  0.1214
  987MOL0     H30230   3.476   8.216   8.294 -1.2804 -0.1093 -0.0961
  987MOL0     H30231   3.357   8.317   8.079  2.3944 -1.9953  1.0483
  987MOL0     H30232   3.265   8.399   8.183  2.0704  0.2505 -0.3673
  987MOL0     H30233   3.280   8.096   8.233  0.0116 -0.7848 -1.5613
  987MOL0     H30234   3.171   8.223   8.306 -2.5611 -1.9394 -0.8843
  987MOL0     H30235   3.166   8.147   8.022  0.5941 -1.0030  0.3888
  987MOL0     H30236   3.037   8.228   8.104 -0.4365 -0.6369  0.3492
  987MOL0     H30237   3.179   7.874   8.072  1.1558  1.1162  1.2320
  987MOL0     H30238   3.078   7.634   8.092  1.7559  0.7999 -3.6002
  987MOL0     H30239   2.968   7.686   7.967 -2.6625 -0.5509  0.3074
  987MOL0     H30240   2.775   7.652   8.140  0.2484 -0.5838 -2.0470
  987MOL0     H30241   2.903   7.585   8.241  1.4705 -1.5272 -1.6159
  987MOL0     H30242   2.882   7.485   7.970 -1.3830 -0.2944  0.8552
  987MOL0     H30243   2.972   7.425   8.113  0.4952 -0.1890 -0.8278
  987MOL0     H30244   2.755   7.407   8.246 -1.9503 -1.0729 -0.8343
  987MOL0     H30245   2.771   7.274   8.135  0.7038 -0.3611 -1.6187
  987MOL0     H30246   2.456   7.404   7.893  3.2981 -1.0984  0.2148
  987MOL0     H30247   2.257   7.265   7.901  0.5209  1.3892 -0.7927
  987MOL0     H30248   1.868   7.139   7.857 -3.3800 -0.9413 -4.2803
  987MOL0     H30249   1.677   6.981   7.839  0.4233 -0.4881 -1.5261
  987MOL0     H30250   1.556   6.631   7.772 -3.0940  0.4100 -0.0112
  987MOL0     H30251   1.602   6.793   7.716 -0.3846  1.5160  1.4474
  987MOL0     H30252   1.475   6.892   7.882  0.6421  0.4546  0.1541
  987MOL0     H30253   1.470   6.751   7.986 -0.8985 -0.3461 -0.7897
  987MOL0     H30254   1.313   6.784   7.726 -0.0859  1.4502  0.0229
  987MOL0     H30255   1.253   6.804   7.890  1.6147  0.1060  0.7094
  987MOL0     H30256   1.371   6.540   7.853 -0.8533 -1.0391  1.9626
  987MOL0     H30257   1.251   6.580   7.953  2.6564 -0.8912  0.8999
  987MOL0     H30258   1.156   6.450   7.788  3.3457 -1.4500 -0.6881
  987MOL0     H30259   1.238   6.516   7.649 -0.7434 -0.7444  0.0336
  987MOL0     H30260   1.085   6.713   7.633  0.9149  0.2996  1.0514
  987MOL0     H30261   1.049   6.698   7.802 -0.5736  1.2378 -1.0555
  987MOL0     H30262   0.868   6.669   7.667 -0.3303 -0.1589  2.4664
  987MOL0     H30263   0.935   6.519   7.587  0.3257 -1.4047  0.0501
  987MOL0     H30264   0.880   6.545   7.883 -0.6248 -0.5869  0.1307
  987MOL0     H30265   0.918   6.402   7.811 -1.1065 -0.2546  2.6178
  987MOL0     H30266   1.943   6.666   7.991  0.1479 -1.0230  0.4960
  987MOL0     H30267   2.115   6.835   8.032  0.5087  0.1142 -2.2468
  987MOL0     H30268   2.362   7.135   8.295  1.8079 -2.3795 -1.8644
  987MOL0     H30269   2.566   7.292   8.288 -2.3098  2.0448  2.2962
  987MOL0     H30270   3.915   8.708   8.492  1.9766 -0.3275  1.4738
  987MOL0     H30271   4.088   8.597   8.640  0.0854 -3.5367 -3.7665
  987MOL0     H30272   4.297   8.146   8.717 -0.2986 -3.2811  0.1958
  987MOL0     H30273   4.465   8.077   8.869  1.7037  2.2358 -0.1791
  987MOL0     H30274   4.452   8.134   9.313  0.9784  0.4520  1.3852
  987MOL0     H30275   4.538   8.258   9.226  0.7814  0.8137  3.8744
  987MOL0     H30276   4.654   7.982   9.234 -1.0794  0.8689 -1.5872
  987MOL0     H30277   4.763   8.117   9.219 -0.5759 -0.2586 -2.3458
  987MOL0     H30278   4.736   8.196   9.433 -2.5624 -0.3209  0.7661
  987MOL0     H30279   4.807   8.047   9.433  0.8494  2.4537  0.6502
  987MOL0     H30280   4.536   8.143   9.506  0.8941  1.7057 -2.4984
  987MOL0     H30281   4.541   7.972   9.466  0.3066  0.6006 -1.2881
  987MOL0     H30282   4.816   7.964   9.793 -1.9184  1.0911  1.1698
  987MOL0     H30283   4.271   8.256   9.205 -1.9732  0.7779 -0.3953
  987MOL0     H30284   4.095   8.326   9.055 -0.6249 -1.2694 -1.7730
  988MOL0     O30285   6.527   0.744   1.012 -0.7491 -0.0624 -0.0451
  988MOL0     C30286   6.592   0.651   1.058 -0.0105  0.6683  0.3496
  988MOL0     O30287   6.552   0.572   1.163 -0.1973  0.4897 -0.0125
  988MOL0     C30288   6.418   0.581   1.210 -0.6543 -0.9169  0.2324
  988MOL0     C30289   6.319   0.481   1.197  0.5150 -0.8753  0.7262
  988MOL0     C30290   6.192   0.497   1.246  1.3520 -0.8050 -0.4235
  988MOL0     C30291   6.153   0.612   1.315 -1.3024 -0.3373  0.2830
  988MOL0     O30292   6.031   0.644   1.369 -0.1031  0.4251 -0.4942
  988MOL0     C30293   5.921   0.553   1.347 -0.6610 -0.0646 -0.4469
  988MOL0     C30294   5.807   0.578   1.443  0.1513 -0.6630 -0.6279
  988MOL0     C30295   5.694   0.473   1.419 -0.1185  0.2880 -0.1282
  988MOL0     C30296   5.553   0.525   1.467  1.1859  0.3307  0.9529
  988MOL0     C30297   5.452   0.411   1.478 -0.0562  1.3374 -0.1879
  988MOL0     C30298   5.323   0.467   1.547 -0.0508 -0.5188  0.5284
  988MOL0     C30299   5.225   0.361   1.591 -0.3936 -0.8085 -0.3465
  988MOL0     C30300   5.141   0.310   1.468  0.3521 -0.6112 -0.6519
  988MOL0     N30301   5.011   0.238   1.512 -0.5769 -1.0938  0.8259
  988MOL0     C30302   4.911   0.305   1.579  0.5346  1.3082  0.3152
  988MOL0     C30303   4.824   0.208   1.612  0.9340 -0.0340 -0.3094
  988MOL0     C30304   4.701   0.229   1.695 -0.1829  0.3135 -0.0766
  988MOL0     C30305   4.594   0.117   1.680 -0.2439  0.1357 -0.1525
  988MOL0     C30306   4.622  -0.012   1.753 -0.4554 -0.5052 -0.2022
  988MOL0     C30307   4.500  -0.106   1.759 -0.5893  0.3028  1.2457
  988MOL0     O30308   4.383  -0.045   1.825 -0.2895 -0.0363  0.2520
  988MOL0     C30309   4.278  -0.128   1.856 -0.3869  0.1876  0.4269
  988MOL0     C30310   4.236  -0.229   1.760  0.0428 -0.4150  0.0847
  988MOL0     C30311   4.125  -0.311   1.790 -0.4878  0.4655  0.0502
  988MOL0     C30312   4.061  -0.297   1.908  0.3789 -0.1331  0.2049
  988MOL0     C30313   3.942  -0.388   1.944 -0.4508  1.0830  0.3637
  988MOL0     O30314   3.916  -0.491   1.859 -0.3697  0.8228  0.0232
  988MOL0     C30315   3.785  -0.535   1.841 -0.0171 -0.4703  1.2272
  988MOL0     C30316   3.707  -0.589   1.944  0.4421  0.3167  0.0716
  988MOL0     C30317   3.581  -0.625   1.920 -0.4497  0.1834  0.7014
  988MOL0     C30318   3.523  -0.609   1.791  0.5433 -0.1252 -0.0977
  988MOL0     O30319   3.391  -0.638   1.765 -0.4628 -0.2950  0.4473
  988MOL0     C30320   3.319  -0.722   1.853  0.2383 -0.3084  0.5205
  988MOL0     C30321   3.354  -0.873   1.816  1.0270  0.2119  0.1789
  988MOL0     C30322   3.281  -0.935   1.694  1.0411 -0.5209 -1.1047
  988MOL0     C30323   3.136  -0.906   1.686 -0.0859  0.2108  0.8517
  988MOL0     C30324   3.060  -0.968   1.569 -0.1455  0.1419 -0.7697
  988MOL0     C30325   2.928  -0.898   1.546 -0.5984  0.1540  0.7673
  988MOL0     C30326   2.866  -0.940   1.413  0.4124  0.7361 -0.1227
  988MOL0     C30327   2.718  -0.907   1.411  0.4955 -0.1338  0.1130
  988MOL0    Cl30328   2.679  -0.724   1.434 -0.0789 -0.4076  0.1438
  988MOL0     C30329   3.606  -0.561   1.689  0.7720 -0.1341  0.6593
  988MOL0     C30330   3.739  -0.522   1.710 -0.0656  0.4837 -0.2098
  988MOL0     O30331   3.873  -0.351   2.035  0.8799 -0.1307 -0.7242
  988MOL0     C30332   4.100  -0.196   1.995  0.3195  0.1926  0.0146
  988MOL0     C30333   4.211  -0.117   1.973 -0.7664  0.3928 -0.1720
  988MOL0     N30334   4.866   0.085   1.555 -0.9649  0.6042  0.0317
  988MOL0     N30335   4.988   0.107   1.517  0.3110  0.6047  0.2563
  988MOL0     C30336   6.251   0.720   1.328  0.5093 -0.0916  0.7054
  988MOL0     C30337   6.382   0.692   1.283 -0.6074  0.5399 -0.8569
  988MOL0     C30338   6.733   0.631   1.013 -0.5471  0.1285  0.6799
  988MOL0     C30339   6.797   0.512   1.036 -0.2153 -0.5121  0.4111
  988MOL0     C30340   6.929   0.494   0.996  0.2980  0.9981  0.6197
  988MOL0     C30341   6.994   0.590   0.926  0.0192  0.0766  0.8975
  988MOL0     O30342   7.127   0.581   0.884  0.5819 -0.6769 -0.4059
  988MOL0     C30343   7.171   0.453   0.869 -0.7985  0.3293 -0.6478
  988MOL0     C30344   7.304   0.454   0.790  0.3798 -0.0298 -0.0897
  988MOL0     C30345   7.416   0.511   0.874  0.4472 -0.3668 -0.2491
  988MOL0     C30346   7.526   0.539   0.772 -0.5866  0.4652  0.0642
  988MOL0     C30347   7.605   0.419   0.745 -0.4106 -1.3548  0.6571
  988MOL0     C30348   7.661   0.314   0.738 -0.5014  0.1480  1.0610
  988MOL0     C30349   6.936   0.708   0.895 -0.7470  0.4073  0.0015
  988MOL0     C30350   6.808   0.735   0.944 -0.1440  0.8555 -0.1356
  988MOL0     H30351   6.344   0.391   1.143  1.6586 -0.1140 -0.0613
  988MOL0     H30352   6.104   0.436   1.226 -0.2532  0.8231  1.2835
  988MOL0     H30353   5.946   0.447   1.350 -0.4132 -0.1515 -3.1835
  988MOL0     H30354   5.881   0.578   1.249  0.2617 -0.1079 -0.8452
  988MOL0     H30355   5.769   0.680   1.439  0.4182 -0.5000  0.4889
  988MOL0     H30356   5.840   0.569   1.547  1.0326 -0.8195 -0.9116
  988MOL0     H30357   5.732   0.384   1.469  3.4750  1.5076 -0.4052
  988MOL0     H30358   5.676   0.453   1.313 -1.8853 -1.0539  0.3848
  988MOL0     H30359   5.563   0.578   1.562  2.9362  1.0561  0.3942
  988MOL0     H30360   5.519   0.595   1.391  1.5063 -1.7489 -1.2257
  988MOL0     H30361   5.509   0.334   1.531  1.5148  1.2048 -1.9458
  988MOL0     H30362   5.415   0.370   1.384 -0.0909  0.9058  0.0086
  988MOL0     H30363   5.268   0.546   1.496  0.6921 -0.2135  0.1957
  988MOL0     H30364   5.357   0.513   1.640 -2.4534 -0.5535  1.4974
  988MOL0     H30365   5.267   0.282   1.655  1.0907  1.6646  1.9584
  988MOL0     H30366   5.154   0.411   1.657 -0.2114  0.9621 -1.4279
  988MOL0     H30367   5.202   0.241   1.410  2.7563 -0.1059  1.1244
  988MOL0     H30368   5.126   0.406   1.418  0.6603  1.9448  3.6548
  988MOL0     H30369   4.909   0.410   1.606  3.3556  1.9236 -1.4819
  988MOL0     H30370   4.653   0.323   1.665 -0.9290 -0.4635 -1.4057
  988MOL0     H30371   4.736   0.241   1.798  2.1734  0.0111 -0.8050
  988MOL0     H30372   4.583   0.094   1.574  1.2122  2.4986 -0.8868
  988MOL0     H30373   4.503   0.163   1.721 -0.4679  0.5007 -1.0494
  988MOL0     H30374   4.710  -0.065   1.717 -1.0972 -1.7216 -0.0445
  988MOL0     H30375   4.647   0.003   1.859  0.3016  0.1799 -0.4690
  988MOL0     H30376   4.519  -0.200   1.812 -0.7269 -1.4608 -1.6044
  988MOL0     H30377   4.479  -0.138   1.656  0.6202  2.0940  0.3942
  988MOL0     H30378   4.290  -0.233   1.666  0.8089  3.0523  0.2518
  988MOL0     H30379   4.094  -0.388   1.720 -1.7069 -0.4590  1.5480
  988MOL0     H30380   3.747  -0.595   2.044  1.7071  0.7042 -0.3960
  988MOL0     H30381   3.527  -0.662   2.007  1.0775 -1.1339  1.1329
  988MOL0     H30382   3.211  -0.709   1.843 -0.1324 -2.9352  0.3196
  988MOL0     H30383   3.343  -0.697   1.957 -0.0461  1.7426  0.1266
  988MOL0     H30384   3.336  -0.935   1.905  0.7422  0.7131  0.4705
  988MOL0     H30385   3.462  -0.877   1.799  1.3304 -1.1292  2.0726
  988MOL0     H30386   3.296  -1.044   1.689  0.0231 -0.7473  0.1655
  988MOL0     H30387   3.324  -0.896   1.601  0.4383  1.3843 -0.6160
  988MOL0     H30388   3.097  -0.936   1.784  0.3263  0.4339  1.0878
  988MOL0     H30389   3.119  -0.797   1.683  1.1600  0.4470  1.7480
  988MOL0     H30390   3.043  -1.075   1.580 -3.4182  0.7004  0.7976
  988MOL0     H30391   3.120  -0.942   1.481 -0.3626  0.8940 -0.7052
  988MOL0     H30392   2.938  -0.789   1.556  2.3236 -0.0927  1.4446
  988MOL0     H30393   2.863  -0.937   1.625 -0.8894 -0.2742  0.3189
  988MOL0     H30394   2.901  -0.884   1.326 -0.1008  0.9820 -0.1746
  988MOL0     H30395   2.879  -1.048   1.399  0.4222  0.9590 -2.2054
  988MOL0     H30396   2.657  -0.960   1.486 -2.7790  3.3123  0.2130
  988MOL0     H30397   2.680  -0.932   1.312  1.8167  0.3488 -0.5255
  988MOL0     H30398   3.561  -0.558   1.591 -0.5619 -1.4787  1.1917
  988MOL0     H30399   3.796  -0.471   1.633 -0.7097 -0.7466 -1.5340
  988MOL0     H30400   4.056  -0.185   2.093 -1.0900 -0.2286 -0.5324
  988MOL0     H30401   4.251  -0.052   2.050 -1.9572  0.2826  0.5511
  988MOL0     H30402   6.209   0.810   1.372 -3.0478 -0.4293 -1.6196
  988MOL0     H30403   6.455   0.771   1.291  0.5614 -0.5326 -0.5743
  988MOL0     H30404   6.749   0.444   1.106 -2.3351  1.8742  1.4144
  988MOL0     H30405   6.977   0.402   1.026 -2.0058 -0.2214  0.8408
  988MOL0     H30406   7.105   0.385   0.816 -0.5672 -1.9575  1.7971
  988MOL0     H30407   7.186   0.408   0.967 -2.3203 -3.6595 -2.0787
  988MOL0     H30408   7.328   0.349   0.774  2.8710  0.6158 -1.0467
  988MOL0     H30409   7.282   0.504   0.695  1.1869 -0.3731 -0.4676
  988MOL0     H30410   7.452   0.445   0.953 -2.5645 -1.1052  0.6261
  988MOL0     H30411   7.384   0.601   0.929 -0.6671 -0.3602 -0.8798
  988MOL0     H30412   7.500   0.587   0.678 -0.7434  0.1132 -0.0742
  988MOL0     H30413   7.592   0.618   0.809 -1.2047  0.9472  0.1517
  988MOL0     H30414   7.707   0.218   0.728 -0.2742  0.3604 -0.0347
  988MOL0     H30415   6.998   0.779   0.841  0.3893  1.3177  2.3623
  988MOL0     H30416   6.770   0.833   0.919 -1.2604  0.7232  0.9024
  989MOL0     O30417   3.263   5.170  10.685  0.0991  0.2704  0.0892
  989MOL0     C30418   3.228   5.073  10.748  0.1111 -0.3321 -0.4732
  989MOL0     O30419   3.140   5.089  10.849  0.5953 -0.4082 -0.2030
  989MOL0     C30420   3.083   5.212  10.874 -0.2747 -0.4197  0.1791
  989MOL0     C30421   3.141   5.335  10.883 -0.6623 -0.7749 -0.7731
  989MOL0     C30422   3.063   5.442  10.918 -0.9479  0.2360  1.1802
  989MOL0     C30423   2.924   5.442  10.940  1.2411  0.8767  0.6940
  989MOL0     O30424   2.848   5.554  10.973 -0.2521 -0.2661  0.3809
  989MOL0     C30425   2.721   5.576  10.906 -0.5187  0.4828 -0.5836
  989MOL0     C30426   2.690   5.719  10.903  0.0435 -0.4233  0.0050
  989MOL0     C30427   2.558   5.752  10.820 -0.9703  0.0707 -0.3035
  989MOL0     C30428   2.446   5.656  10.842  0.6979  0.7811 -0.2079
  989MOL0     C30429   2.331   5.676  10.744  0.1050 -0.0037 -0.0999
  989MOL0     C30430   2.219   5.578  10.781 -0.4851  0.9865 -0.8534
  989MOL0     C30431   2.095   5.590  10.690  0.6186  0.2421  0.3667
  989MOL0     C30432   1.989   5.472  10.699  0.0726 -0.0236 -0.9268
  989MOL0     N30433   1.940   5.448  10.837 -0.7292 -0.2415 -0.7101
  989MOL0     C30434   1.843   5.511  10.904 -0.0863  0.3873  0.6957
  989MOL0     C30435   1.796   5.431  10.999 -0.5063 -1.4188  0.2745
  989MOL0     C30436   1.674   5.454  11.087 -0.2417 -0.1597 -0.2352
  989MOL0     C30437   1.554   5.507  11.005 -0.4181  0.0302 -0.2340
  989MOL0     C30438   1.435   5.528  11.103 -0.0081  0.2829 -1.0223
  989MOL0     C30439   1.311   5.601  11.052 -0.4208 -0.4663  0.1265
  989MOL0     O30440   1.267   5.561  10.920 -0.3424  0.2638  0.1800
  989MOL0     C30441   1.132   5.584  10.892  0.3310 -0.8582 -0.8767
  989MOL0     C30442   1.046   5.653  10.979 -0.3597  0.0770 -0.4183
  989MOL0     C30443   0.913   5.664  10.959  0.7330  0.3032 -0.3879
  989MOL0     C30444   0.856   5.604  10.844 -0.7331 -0.3378 -0.4212
  989MOL0     C30445   0.711   5.607  10.817  1.1081  0.1913 -0.2163
  989MOL0     O30446   0.665   5.575  10.697  0.4666  0.3029 -0.9030
  989MOL0     C30447   0.523   5.582  10.679  0.5868  0.5507 -0.6377
  989MOL0     C30448   0.478   5.697  10.608 -0.4314  0.6592  0.4118
  989MOL0     C30449   0.341   5.711  10.586 -0.0826  0.3605  0.2139
  989MOL0     C30450   0.249   5.618  10.637 -0.5927  0.0825 -0.0429
  989MOL0     O30451   0.109   5.624  10.644 -0.5731 -0.2148  0.8971
  989MOL0     C30452   0.051   5.704  10.540  0.1121  0.6683  0.4904
  989MOL0     C30453  -0.094   5.676  10.550 -0.3246  0.1692 -0.1779
  989MOL0     C30454  -0.174   5.756  10.443 -0.4177  0.0709 -0.2958
  989MOL0     C30455  -0.327   5.728  10.454 -0.2322 -0.8140 -0.2779
  989MOL0     C30456  -0.396   5.817  10.355 -0.8606  0.4605  0.3902
  989MOL0     C30457  -0.549   5.810  10.362  0.5491  0.4228 -0.0317
  989MOL0     C30458  -0.627   5.807  10.493  0.0021  0.0689  0.2896
  989MOL0     C30459  -0.644   5.670  10.564 -0.4539  0.0810 -0.4239
  989MOL0    Cl30460  -0.745   5.568  10.462  0.4014 -0.0209  0.2429
  989MOL0     C30461   0.300   5.502  10.702  0.6413  0.1919 -0.2933
  989MOL0     C30462   0.436   5.485  10.730 -0.0570  0.0495  0.9687
  989MOL0     O30463   0.644   5.644  10.912  0.1389  0.0799  0.1595
  989MOL0     C30464   0.944   5.542  10.751  0.3831 -0.0501  0.1217
  989MOL0     C30465   1.080   5.530  10.781  0.1214  0.2117 -0.3100
  989MOL0     N30466   1.899   5.345  11.011  0.3638  0.0932  0.7342
  989MOL0     N30467   1.985   5.351  10.918  0.1040  0.0831  0.3266
  989MOL0     C30468   2.862   5.318  10.920 -1.1574 -0.3205 -0.3324
  989MOL0     C30469   2.948   5.207  10.892 -0.1022  0.1314 -0.0337
  989MOL0     C30470   3.297   4.945  10.726 -0.0062  0.9516 -0.3907
  989MOL0     C30471   3.406   4.937  10.632  0.3990 -1.2692 -0.7862
  989MOL0     C30472   3.458   4.817  10.598 -0.0031  0.3546  0.3325
  989MOL0     C30473   3.426   4.705  10.672  0.2029  0.7227  0.8261
  989MOL0     O30474   3.499   4.583  10.674 -0.1180 -0.7801 -0.0853
  989MOL0     C30475   3.609   4.579  10.769  0.8161  0.2657  0.3060
  989MOL0     C30476   3.733   4.649  10.706 -0.0658 -0.5201 -0.8209
  989MOL0     C30477   3.855   4.654  10.805 -0.0534 -0.2932 -0.8530
  989MOL0     C30478   3.916   4.516  10.808 -0.3611 -0.4189  0.2506
  989MOL0     C30479   4.009   4.503  10.915 -0.2541 -0.5933 -0.3149
  989MOL0     C30480   4.093   4.518  11.007  0.9376 -0.6299  0.1637
  989MOL0     C30481   3.324   4.706  10.765 -0.2798  0.3724 -0.3284
  989MOL0     C30482   3.258   4.827  10.790 -0.4974 -0.0226  0.4418
  989MOL0     H30483   3.248   5.354  10.881 -0.7741  0.0691  0.3627
  989MOL0     H30484   3.120   5.534  10.921 -0.9717  0.4655 -2.1078
  989MOL0     H30485   2.641   5.536  10.969  0.4449  2.0728  1.8230
  989MOL0     H30486   2.721   5.524  10.810 -0.1765 -0.4692 -0.0726
  989MOL0     H30487   2.773   5.774  10.857  0.9925 -1.2179  0.7048
  989MOL0     H30488   2.690   5.763  11.004 -1.6654 -0.0118 -0.1496
  989MOL0     H30489   2.582   5.747  10.714 -3.0190 -1.6179 -0.7468
  989MOL0     H30490   2.535   5.858  10.833  1.8461  0.6286  1.2404
  989MOL0     H30491   2.487   5.555  10.827  1.8846  1.3358 -0.9118
  989MOL0     H30492   2.412   5.668  10.945  0.0657 -0.4376 -0.2600
  989MOL0     H30493   2.353   5.643  10.642  0.1182 -2.2881  0.5873
  989MOL0     H30494   2.299   5.781  10.745  1.8247  0.5419  0.1292
  989MOL0     H30495   2.196   5.583  10.888 -0.9361  2.0035 -0.9840
  989MOL0     H30496   2.256   5.478  10.758 -0.3575  0.7911  0.1305
  989MOL0     H30497   2.040   5.684  10.701 -0.2795  0.0445 -1.7961
  989MOL0     H30498   2.127   5.586  10.585 -2.5358 -0.8314 -0.6588
  989MOL0     H30499   2.036   5.386  10.650 -1.2035 -0.5976 -1.2118
  989MOL0     H30500   1.900   5.498  10.639 -0.3407  0.4574 -0.1231
  989MOL0     H30501   1.783   5.590  10.859 -0.7953  0.1367  1.1895
  989MOL0     H30502   1.702   5.530  11.161  0.5074 -1.6215  1.0549
  989MOL0     H30503   1.639   5.362  11.136  2.3124 -0.4767  1.1623
  989MOL0     H30504   1.526   5.443  10.921  4.4231  1.0078 -2.9873
  989MOL0     H30505   1.587   5.605  10.971  2.1240 -0.7644 -0.3129
  989MOL0     H30506   1.392   5.436  11.144 -0.4034 -0.8882 -3.7971
  989MOL0     H30507   1.470   5.584  11.190 -0.0544  0.0568 -0.8550
  989MOL0     H30508   1.349   5.703  11.061  0.6098 -0.7715 -0.6034
  989MOL0     H30509   1.237   5.592  11.132 -0.2374  2.5441  0.7474
  989MOL0     H30510   1.077   5.703  11.070  0.9593 -0.0142 -0.7982
  989MOL0     H30511   0.843   5.720  11.021 -1.1248 -2.4128  0.1888
  989MOL0     H30512   0.546   5.773  10.571 -0.9700  1.1456  0.4178
  989MOL0     H30513   0.309   5.791  10.520  1.3352  2.1460  1.5799
  989MOL0     H30514   0.083   5.674  10.440 -0.7704  0.0478  0.3875
  989MOL0     H30515   0.066   5.811  10.561 -0.7136  0.6412  1.2561
  989MOL0     H30516  -0.129   5.715  10.646  1.1559  0.2619  0.3512
  989MOL0     H30517  -0.113   5.569  10.541  0.8717  0.0239 -1.2146
  989MOL0     H30518  -0.137   5.729  10.343 -2.2725 -1.4953 -0.6254
  989MOL0     H30519  -0.159   5.863  10.458 -0.1305 -0.3490  3.2036
  989MOL0     H30520  -0.351   5.622  10.442 -3.0127 -0.4556  1.3149
  989MOL0     H30521  -0.353   5.759  10.556  0.7634 -2.0704  0.3830
  989MOL0     H30522  -0.353   5.791  10.257 -0.8581  0.5813  0.3583
  989MOL0     H30523  -0.373   5.923  10.371  0.0305  0.1682  1.1629
  989MOL0     H30524  -0.576   5.721  10.303  2.2540 -0.2945  0.2066
  989MOL0     H30525  -0.585   5.890  10.296 -4.9621 -0.9492  0.8137
  989MOL0     H30526  -0.568   5.874  10.557  0.8288 -0.2746 -0.1140
  989MOL0     H30527  -0.727   5.852  10.481  1.2497  2.8218 -0.7427
  989MOL0     H30528  -0.668   5.679  10.670  2.7031  1.0051  0.3232
  989MOL0     H30529  -0.544   5.626  10.555  0.1329  1.8111 -3.9679
  989MOL0     H30530   0.233   5.424  10.735 -1.7702  2.2344 -0.1171
  989MOL0     H30531   0.460   5.391  10.779 -1.9040 -0.5735  0.7447
  989MOL0     H30532   0.900   5.508  10.657  2.9417 -0.2919 -1.0836
  989MOL0     H30533   1.149   5.486  10.710 -0.6533  1.8946 -2.2138
  989MOL0     H30534   2.755   5.315  10.937 -1.0942 -0.2389  0.0735
  989MOL0     H30535   2.911   5.106  10.879 -1.4673  0.9809 -4.1703
  989MOL0     H30536   3.425   5.032  10.583 -2.3675  0.5360  1.2977
  989MOL0     H30537   3.537   4.812  10.524 -0.5546  3.6206 -0.6357
  989MOL0     H30538   3.631   4.474  10.789 -2.1799 -1.5888 -4.2962
  989MOL0     H30539   3.588   4.630  10.864 -1.0209  1.2011 -0.5515
  989MOL0     H30540   3.748   4.597  10.611 -1.1579  1.0754 -1.9266
  989MOL0     H30541   3.699   4.747  10.671 -0.6675 -0.4559 -0.0792
  989MOL0     H30542   3.808   4.685  10.898 -2.4788  0.4221 -2.2361
  989MOL0     H30543   3.922   4.738  10.782 -1.3412  1.9404  2.7626
  989MOL0     H30544   3.836   4.444  10.826 -2.4570  2.0447  1.3908
  989MOL0     H30545   3.959   4.491  10.711 -0.6742 -0.1350  0.0384
  989MOL0     H30546   4.156   4.525  11.094  0.5730 -4.0153  0.8433
  989MOL0     H30547   3.298   4.621  10.826 -0.2848 -0.2455 -1.1694
  989MOL0     H30548   3.177   4.827  10.862 -0.8036  0.1772  0.1031
  990MOL0     O30549   1.970  10.823   2.276  0.6376  0.1059 -0.1310
  990MOL0     C30550   2.000  10.939   2.279 -0.2746 -0.4722  0.1226
  990MOL0     O30551   1.924  11.053   2.249  0.3589 -0.4263 -0.6803
  990MOL0     C30552   1.796  11.029   2.206  0.8140  0.0908  0.0571
  990MOL0     C30553   1.756  11.071   2.078  0.0680  0.0981  0.2458
  990MOL0     C30554   1.618  11.074   2.049 -0.7792  0.6841 -0.9044
  990MOL0     C30555   1.522  11.028   2.141  0.1446 -0.0971  0.5486
  990MOL0     O30556   1.391  11.038   2.100 -0.2908  0.5920  0.2119
  990MOL0     C30557   1.294  11.064   2.207  0.3584  0.3273  0.9712
  990MOL0     C30558   1.176  11.159   2.160 -0.2815  0.5061 -0.4859
  990MOL0     C30559   1.104  11.202   2.297  1.3987  0.8954  0.0291
  990MOL0     C30560   0.969  11.279   2.259  0.6012  0.4739 -0.5027
  990MOL0     C30561   1.015  11.412   2.195  1.0194  0.1033 -0.1985
  990MOL0     C30562   0.902  11.513   2.182 -0.5923  0.9984 -0.0078
  990MOL0     C30563   0.937  11.649   2.134 -0.0015  1.2745 -0.2610
  990MOL0     C30564   0.976  11.646   1.988 -0.9298 -0.2554  0.2329
  990MOL0     N30565   0.953  11.775   1.921  0.0485 -0.5508 -0.2502
  990MOL0     C30566   1.015  11.892   1.965 -0.0741  0.2055  0.6085
  990MOL0     C30567   0.969  11.980   1.878 -0.8826 -0.2100 -0.2786
  990MOL0     C30568   1.020  12.125   1.860 -0.4619  0.0120  0.1893
  990MOL0     C30569   1.150  12.133   1.774 -0.5549 -0.3402  0.0477
  990MOL0     C30570   1.227  12.270   1.801 -0.4797 -0.0574 -0.4615
  990MOL0     C30571   1.363  12.289   1.732 -0.3732  0.5397  0.0056
  990MOL0     O30572   1.444  12.180   1.775 -0.2904 -0.1548  0.2131
  990MOL0     C30573   1.574  12.169   1.723  0.5732 -0.5957 -0.3984
  990MOL0     C30574   1.627  12.270   1.641  0.2970 -0.0364 -0.4823
  990MOL0     C30575   1.764  12.266   1.614  0.4517  0.0203 -0.1216
  990MOL0     C30576   1.842  12.155   1.659 -0.4894  0.1071  0.3879
  990MOL0     C30577   1.982  12.130   1.603  0.6108 -0.2062 -0.6538
  990MOL0     O30578   2.058  12.039   1.667 -0.2681 -0.3084 -0.2383
  990MOL0     C30579   2.191  12.031   1.645 -0.5367 -0.0647 -0.7250
  990MOL0     C30580   2.242  12.025   1.515  0.0838  0.6763 -0.1769
  990MOL0     C30581   2.380  12.029   1.500 -0.1855  0.2589 -0.3537
  990MOL0     C30582   2.470  12.022   1.609  0.8647  0.5167 -0.3969
  990MOL0     O30583   2.603  12.003   1.605  0.0851 -0.0434 -0.5115
  990MOL0     C30584   2.658  11.932   1.490 -0.0705 -0.2784 -0.2244
  990MOL0     C30585   2.805  11.898   1.501  0.3084  0.7326  0.4193
  990MOL0     C30586   2.888  12.020   1.495  0.3603 -0.5980 -0.0758
  990MOL0     C30587   3.035  11.990   1.523  0.1106 -0.4798 -0.0223
  990MOL0     C30588   3.126  12.111   1.487 -0.1994 -0.3622 -0.3493
  990MOL0     C30589   3.079  12.240   1.551 -0.3934  0.2261  0.5663
  990MOL0     C30590   3.181  12.351   1.525  0.5089 -1.2073 -0.2157
  990MOL0     C30591   3.143  12.475   1.617 -0.2323  0.4142  0.9007
  990MOL0    Cl30592   3.265  12.603   1.591  0.5780 -0.4969 -0.1005
  990MOL0     C30593   2.412  12.026   1.736  0.0436  0.4294  0.2455
  990MOL0     C30594   2.278  12.027   1.755  0.4459 -0.2925 -0.8168
  990MOL0     O30595   2.023  12.211   1.521  0.5721  0.5901  0.8034
  990MOL0     C30596   1.776  12.049   1.722  0.2405 -0.4886  0.5881
  990MOL0     C30597   1.648  12.065   1.769 -0.0873  0.6007 -0.2684
  990MOL0     N30598   0.875  11.928   1.796  0.1533  1.2409  0.3807
  990MOL0     N30599   0.849  11.809   1.837  1.0984  0.6042 -0.3657
  990MOL0     C30600   1.568  10.960   2.251 -0.2405  0.7018 -0.2242
  990MOL0     C30601   1.703  10.968   2.292 -0.4019  0.0629 -0.0189
  990MOL0     C30602   2.132  10.970   2.336 -0.8390 -0.3469  0.7686
  990MOL0     C30603   2.154  11.102   2.386 -0.9163 -0.3681  0.2504
  990MOL0     C30604   2.273  11.124   2.449 -0.7456 -0.0044  0.6844
  990MOL0     C30605   2.379  11.029   2.427  0.0872  0.3974 -0.0696
  990MOL0     O30606   2.503  11.058   2.478 -0.0564 -0.3998 -0.2884
  990MOL0     C30607   2.589  10.950   2.533  0.8232 -0.8904  1.1997
  990MOL0     C30608   2.695  11.029   2.606  0.2303 -0.2797  0.7711
  990MOL0     C30609   2.825  10.950   2.583 -0.1288  0.6900  0.5729
  990MOL0     C30610   2.919  10.992   2.698  0.5336  0.0102  0.3429
  990MOL0     C30611   3.064  10.979   2.672  0.3140 -0.4160  0.3713
  990MOL0     C30612   3.179  10.971   2.645  0.0142 -0.3606  0.4204
  990MOL0     C30613   2.363  10.904   2.358  0.1517  0.6836  0.0347
  990MOL0     C30614   2.231  10.879   2.322 -0.1098 -0.3125  0.0121
  990MOL0     H30615   1.820  11.122   2.006 -1.9938  0.9337 -1.1004
  990MOL0     H30616   1.592  11.108   1.949  0.9473  1.4509 -1.1248
  990MOL0     H30617   1.343  11.117   2.289 -1.6371 -0.6959  2.9138
  990MOL0     H30618   1.275  10.962   2.242 -0.0415 -0.4539 -1.3658
  990MOL0     H30619   1.093  11.113   2.105 -2.5798  0.0031  3.0864
  990MOL0     H30620   1.214  11.237   2.094  1.8773 -1.6311 -1.9523
  990MOL0     H30621   1.169  11.271   2.353  2.5784  0.4901 -0.7884
  990MOL0     H30622   1.082  11.112   2.355  0.3984 -0.7465 -2.6868
  990MOL0     H30623   0.914  11.222   2.183  1.6904  1.1266 -1.8022
  990MOL0     H30624   0.917  11.297   2.354 -0.1892 -0.7885 -0.6610
  990MOL0     H30625   1.053  11.391   2.095  0.6358 -1.1460 -0.1103
  990MOL0     H30626   1.087  11.461   2.260 -0.3798  1.4057  0.4227
  990MOL0     H30627   0.867  11.521   2.285  0.8535 -0.1113  0.6137
  990MOL0     H30628   0.824  11.472   2.117  1.4529  0.2765 -2.1730
  990MOL0     H30629   0.852  11.717   2.147 -0.6455  0.2588  1.0890
  990MOL0     H30630   1.022  11.682   2.194  0.8457  0.8113 -1.1845
  990MOL0     H30631   0.911  11.574   1.937 -0.4776 -1.8815  1.8417
  990MOL0     H30632   1.079  11.614   1.973 -1.1483  0.0000 -2.1179
  990MOL0     H30633   1.086  11.905   2.047  0.6747 -0.6317  0.1037
  990MOL0     H30634   1.034  12.166   1.961 -1.1015 -2.1257  1.2186
  990MOL0     H30635   0.942  12.175   1.802 -2.2534  0.7354  3.0274
  990MOL0     H30636   1.108  12.140   1.674  0.1256  0.6278 -0.1926
  990MOL0     H30637   1.219  12.048   1.786 -0.0853 -0.3216 -2.1469
  990MOL0     H30638   1.165  12.357   1.776 -2.0172 -0.7573  0.7245
  990MOL0     H30639   1.238  12.283   1.909 -1.8284 -2.0937 -0.0302
  990MOL0     H30640   1.397  12.392   1.747 -0.2224  0.5157 -0.1692
  990MOL0     H30641   1.350  12.266   1.626  1.7639  1.6867 -0.5812
  990MOL0     H30642   1.569  12.357   1.611  0.7462  1.2197  2.0635
  990MOL0     H30643   1.805  12.352   1.564  2.0813  1.4218  3.2932
  990MOL0     H30644   2.171  12.042   1.435  0.0712 -1.8040 -0.7592
  990MOL0     H30645   2.416  12.031   1.398 -0.9929  0.7183 -0.6477
  990MOL0     H30646   2.645  12.002   1.407  1.3703  0.7842  0.4020
  990MOL0     H30647   2.608  11.837   1.468 -1.2844  0.8021 -2.4055
  990MOL0     H30648   2.818  11.833   1.414 -0.9491  1.5412 -0.4061
  990MOL0     H30649   2.816  11.846   1.596 -2.4506 -0.5867  0.1212
  990MOL0     H30650   2.852  12.085   1.576 -3.7864  0.0252 -2.1234
  990MOL0     H30651   2.876  12.062   1.395 -1.7436 -2.7774 -0.8391
  990MOL0     H30652   3.045  11.971   1.631  0.9152  0.2245  0.0382
  990MOL0     H30653   3.074  11.903   1.470  2.6080  1.2046 -1.1195
  990MOL0     H30654   3.137  12.121   1.379  3.1494 -2.6571 -0.4123
  990MOL0     H30655   3.224  12.080   1.525 -0.1588 -0.1928 -0.3184
  990MOL0     H30656   3.070  12.220   1.658  3.1486 -0.7444  0.8050
  990MOL0     H30657   2.986  12.274   1.504  1.2770  3.8741 -0.4610
  990MOL0     H30658   3.285  12.332   1.554  1.2776  2.2757 -0.2089
  990MOL0     H30659   3.184  12.379   1.420  2.1348 -0.4389 -0.0028
  990MOL0     H30660   3.143  12.437   1.720 -1.1866 -2.4800 -0.0792
  990MOL0     H30661   3.045  12.517   1.590 -1.4846 -1.7677  1.8066
  990MOL0     H30662   2.481  12.028   1.820 -0.3776 -1.5424  0.6894
  990MOL0     H30663   2.232  12.033   1.853 -2.4971  3.1271 -2.1827
  990MOL0     H30664   1.840  11.967   1.755  1.1854  1.2398  3.4586
  990MOL0     H30665   1.615  11.995   1.845  4.1533  0.3252  1.6515
  990MOL0     H30666   1.493  10.911   2.312  0.1942  0.1675 -0.1076
  990MOL0     H30667   1.735  10.927   2.387 -0.9384  0.2606  0.2537
  990MOL0     H30668   2.075  11.177   2.383 -1.8215 -1.3296 -1.5071
  990MOL0     H30669   2.286  11.214   2.508  3.4997 -0.1021  0.1893
  990MOL0     H30670   2.620  10.900   2.441 -0.2941  2.0255 -0.9355
  990MOL0     H30671   2.530  10.879   2.590 -1.2882 -0.6991 -0.6191
  990MOL0     H30672   2.703  11.133   2.572 -3.7931  0.2214  0.8788
  990MOL0     H30673   2.670  11.034   2.712  0.0607  2.9230  0.6899
  990MOL0     H30674   2.858  10.942   2.479 -3.7088 -1.4248 -0.5788
  990MOL0     H30675   2.812  10.843   2.599 -0.7046  0.5942 -0.4430
  990MOL0     H30676   2.891  11.097   2.710  1.3596  0.4874 -1.4509
  990MOL0     H30677   2.894  10.926   2.782  1.8203  1.0636  1.6006
  990MOL0     H30678   3.279  10.961   2.607  0.3083  2.0337  0.4024
  990MOL0     H30679   2.446  10.837   2.340  1.7349  2.1112  1.6143
  990MOL0     H30680   2.211  10.789   2.266 -0.3296  0.4581 -1.1899
  991MOL0     O30681   0.872  10.892   9.199  0.0019 -0.6216  0.2074
  991MOL0     C30682   0.960  10.894   9.285 -0.1446  0.0621 -0.3011
  991MOL0     O30683   0.930  10.887   9.421  0.4500  0.1176  0.0154
  991MOL0     C30684   0.802  10.901   9.470 -0.3752 -0.0492 -0.1348
  991MOL0     C30685   0.730  11.022   9.454  0.2575  1.2800 -0.6667
  991MOL0     C30686   0.608  11.039   9.512 -0.6825 -0.1204  0.0937
  991MOL0     C30687   0.544  10.930   9.580  0.6276 -0.1264  1.2001
  991MOL0     O30688   0.417  10.949   9.631  0.4009 -0.5197  0.6765
  991MOL0     C30689   0.378  11.076   9.698  0.7968  0.8183 -0.1606
  991MOL0     C30690   0.233  11.060   9.741 -0.0575 -0.5067  0.6238
  991MOL0     C30691   0.210  10.998   9.882  0.6733 -0.1361  0.3108
  991MOL0     C30692   0.060  11.006   9.929  1.0537 -0.8540  0.0234
  991MOL0     C30693   0.025  11.131  10.010  0.0437  0.3505 -0.4784
  991MOL0     C30694   0.017  11.267   9.927 -0.1001 -0.6759 -0.8493
  991MOL0     C30695  -0.027  11.394  10.010  0.7376 -0.2111 -0.7826
  991MOL0     C30696  -0.161  11.358  10.078  0.6064  0.1499  0.5132
  991MOL0     N30697  -0.208  11.483  10.138  0.1633  0.0355 -0.5768
  991MOL0     C30698  -0.132  11.570  10.222  0.0773 -0.2773 -0.4275
  991MOL0     C30699  -0.223  11.660  10.267 -0.3760 -0.5304  0.0910
  991MOL0     C30700  -0.179  11.779  10.347  0.1409 -0.8218 -1.0922
  991MOL0     C30701  -0.130  11.725  10.489  0.1350 -0.8442 -1.2070
  991MOL0     C30702  -0.240  11.672  10.585 -0.1442  0.2955 -0.0146
  991MOL0     C30703  -0.357  11.768  10.605 -0.0791  1.8789  0.1178
  991MOL0     O30704  -0.456  11.710  10.685  0.2542 -0.3532 -0.8149
  991MOL0     C30705  -0.550  11.628  10.640  1.1775  0.9229  0.0437
  991MOL0     C30706  -0.553  11.568  10.514  0.5814 -1.2857  0.0202
  991MOL0     C30707  -0.666  11.494  10.475 -0.5376  0.3309 -0.3366
  991MOL0     C30708  -0.772  11.469  10.561 -0.4272  0.5956  0.1257
  991MOL0     C30709  -0.882  11.389  10.514 -0.5757  0.6570 -0.0439
  991MOL0     O30710  -0.913  11.416  10.384  0.0069 -0.9034 -0.2042
  991MOL0     C30711  -1.039  11.378  10.345 -0.5544  0.6191  0.3839
  991MOL0     C30712  -1.146  11.463  10.320  0.0834 -0.1962  0.3308
  991MOL0     C30713  -1.264  11.408  10.277  0.2495  0.4794  0.2797
  991MOL0     C30714  -1.290  11.266  10.271 -0.2499  0.1042 -0.0004
  991MOL0     O30715  -1.407  11.217  10.232  0.0408 -0.2243  1.0897
  991MOL0     C30716  -1.515  11.235  10.334  0.5783 -0.3049 -0.1489
  991MOL0     C30717  -1.490  11.128  10.440 -0.5051 -0.3038 -0.3415
  991MOL0     C30718  -1.596  11.125  10.550  0.1209  0.2814 -0.0103
  991MOL0     C30719  -1.740  11.082  10.503 -0.0553 -0.3351 -0.1634
  991MOL0     C30720  -1.844  11.078  10.616 -0.3777  0.0660 -1.1907
  991MOL0     C30721  -1.987  11.088  10.581  0.3107 -0.6013 -0.3965
  991MOL0     C30722  -2.043  10.978  10.484  0.7064  0.5091  0.0716
  991MOL0     C30723  -2.188  10.975  10.464 -0.2308 -0.7269 -0.1384
  991MOL0    Cl30724  -2.220  11.092  10.331  0.6903  0.5996  0.1313
  991MOL0     C30725  -1.181  11.189  10.295 -0.4217  0.4634  0.6215
  991MOL0     C30726  -1.058  11.236  10.333 -0.3072 -0.1112  0.1100
  991MOL0     O30727  -0.952  11.336  10.601  0.4093 -0.2878  0.0220
  991MOL0     C30728  -0.768  11.541  10.685  0.2881  0.4400 -0.4402
  991MOL0     C30729  -0.661  11.618  10.720 -0.7396  0.4873 -1.4377
  991MOL0     N30730  -0.346  11.630  10.223  0.0925  0.6202  0.6379
  991MOL0     N30731  -0.333  11.532  10.140  0.4119 -0.7275  0.0056
  991MOL0     C30732   0.606  10.811   9.596 -0.1317 -0.6012  0.2496
  991MOL0     C30733   0.735  10.798   9.532  0.2252 -0.6000 -0.1453
  991MOL0     C30734   1.111  10.899   9.251  0.5089 -0.0260 -0.1627
  991MOL0     C30735   1.210  10.922   9.353  0.1112 -0.2943  0.9585
  991MOL0     C30736   1.344  10.915   9.326 -0.4882 -0.0857 -0.1733
  991MOL0     C30737   1.381  10.894   9.191  0.1939 -0.2446  0.0064
  991MOL0     O30738   1.514  10.887   9.148 -0.1883  0.4780  0.1290
  991MOL0     C30739   1.619  10.914   9.248  0.4534 -0.5820 -0.0683
  991MOL0     C30740   1.748  10.907   9.180  0.0408 -0.1977  0.5286
  991MOL0     C30741   1.862  10.950   9.264  0.3806  0.2579 -0.6273
  991MOL0     C30742   1.998  10.905   9.200 -0.6427 -0.6708 -0.0900
  991MOL0     C30743   2.119  10.953   9.276  0.1687 -0.1220  0.6002
  991MOL0     C30744   2.213  10.984   9.351  0.3153  0.1881 -0.4169
  991MOL0     C30745   1.288  10.892   9.088  0.6566 -0.8308  0.1302
  991MOL0     C30746   1.148  10.896   9.115 -0.3619 -0.3149  0.1787
  991MOL0     H30747   0.775  11.111   9.411  1.5980 -0.4473 -3.0480
  991MOL0     H30748   0.549  11.129   9.500  2.5222  2.2556  0.8385
  991MOL0     H30749   0.382  11.165   9.635 -4.4265  3.9401  3.1543
  991MOL0     H30750   0.443  11.096   9.784 -1.6455  1.3223  1.6987
  991MOL0     H30751   0.178  11.002   9.666  0.3950  1.8848 -1.7299
  991MOL0     H30752   0.183  11.158   9.739 -2.0156 -1.4200  1.6286
  991MOL0     H30753   0.272  11.051   9.955  1.0014 -3.6812  2.8304
  991MOL0     H30754   0.235  10.892   9.880  1.2109 -0.0306  1.1335
  991MOL0     H30755  -0.010  11.000   9.845  1.6823  0.2805 -0.6203
  991MOL0     H30756   0.042  10.928  10.004 -0.7467 -0.0871  0.4324
  991MOL0     H30757   0.103  11.154  10.083  1.1353  0.4408 -1.6397
  991MOL0     H30758  -0.069  11.125  10.065  1.1868 -1.2367  1.4143
  991MOL0     H30759  -0.055  11.252   9.846 -0.0924  1.3073 -1.2918
  991MOL0     H30760   0.106  11.303   9.875  1.6265 -3.4935 -0.0432
  991MOL0     H30761   0.053  11.423  10.080  2.5100 -3.2266 -1.3672
  991MOL0     H30762  -0.030  11.481   9.944  4.4614 -0.1209 -1.0603
  991MOL0     H30763  -0.153  11.284  10.159 -1.6957 -1.9986 -1.0437
  991MOL0     H30764  -0.239  11.329  10.007 -1.6469  0.0876  2.8557
  991MOL0     H30765  -0.026  11.566  10.241 -0.2075  0.3475  1.5159
  991MOL0     H30766  -0.264  11.847  10.352 -0.0374 -1.0853 -0.2782
  991MOL0     H30767  -0.103  11.825  10.284 -1.0819 -0.0414 -2.0277
  991MOL0     H30768  -0.073  11.811  10.525  2.8618 -1.8339 -2.7946
  991MOL0     H30769  -0.059  11.643  10.474 -0.9554 -1.5755 -2.6442
  991MOL0     H30770  -0.287  11.581  10.546 -0.0140 -1.1048  2.8124
  991MOL0     H30771  -0.200  11.653  10.685 -0.1609  2.8767  0.5699
  991MOL0     H30772  -0.397  11.798  10.508  1.5588 -1.9378 -1.9561
  991MOL0     H30773  -0.320  11.859  10.652  0.0467  3.1547 -2.3010
  991MOL0     H30774  -0.473  11.586  10.443  3.9146 -3.2554  2.9722
  991MOL0     H30775  -0.675  11.463  10.371 -0.3253 -2.0713  0.2843
  991MOL0     H30776  -1.124  11.568  10.335  2.6283 -0.5657 -0.2040
  991MOL0     H30777  -1.343  11.478  10.250  0.1610 -0.1378 -1.1651
  991MOL0     H30778  -1.614  11.217  10.291 -0.6402  2.7108  1.0719
  991MOL0     H30779  -1.522  11.340  10.364 -0.6361 -0.6933  1.0636
  991MOL0     H30780  -1.390  11.155  10.474 -0.9872  1.5807 -0.2699
  991MOL0     H30781  -1.494  11.025  10.405  0.6063 -1.3665  2.4385
  991MOL0     H30782  -1.603  11.221  10.602 -1.2562  0.4859 -0.5403
  991MOL0     H30783  -1.572  11.046  10.621 -2.2698 -2.2776 -1.8667
  991MOL0     H30784  -1.776  11.139  10.417 -0.8078 -1.2633 -0.4868
  991MOL0     H30785  -1.743  10.984  10.455  0.3335  0.0921 -1.0706
  991MOL0     H30786  -1.818  11.168  10.672  1.7207  0.3546 -2.5243
  991MOL0     H30787  -1.825  10.987  10.675  0.9945  0.4819 -0.9557
  991MOL0     H30788  -2.003  11.183  10.530 -0.3129  0.3992  1.5611
  991MOL0     H30789  -2.046  11.089  10.673  0.5734 -2.5365 -0.1558
  991MOL0     H30790  -1.996  10.984  10.385 -0.6584  2.0073 -0.5293
  991MOL0     H30791  -2.008  10.886  10.530  2.4710  0.0713 -1.9416
  991MOL0     H30792  -2.239  11.002  10.557 -1.6252  2.0166 -1.5566
  991MOL0     H30793  -2.218  10.873  10.437 -1.0281 -0.9044  1.3369
  991MOL0     H30794  -1.191  11.082  10.278  1.2983  0.5346 -1.2948
  991MOL0     H30795  -0.977  11.168  10.358  0.3710  0.0565 -1.5061
  991MOL0     H30796  -0.852  11.539  10.755  0.5264  1.4521 -0.1006
  991MOL0     H30797  -0.686  11.670  10.812 -3.4102  1.6272 -2.6983
  991MOL0     H30798   0.547  10.730   9.637 -1.8784 -0.1546 -1.2542
  991MOL0     H30799   0.790  10.707   9.554  0.5057 -0.7168 -1.2802
  991MOL0     H30800   1.176  10.921   9.456 -0.2866 -0.8807  0.8258
  991MOL0     H30801   1.419  10.894   9.402  0.2360 -2.0454 -1.3618
  991MOL0     H30802   1.620  10.833   9.322 -0.8522 -2.3371 -1.8685
  991MOL0     H30803   1.595  11.004   9.307  3.9716 -0.7173  1.8628
  991MOL0     H30804   1.766  10.802   9.153 -0.4466 -0.5111  1.3887
  991MOL0     H30805   1.743  10.976   9.095  0.7079 -0.7416  0.0360
  991MOL0     H30806   1.847  10.914   9.367 -0.4560  0.9731 -0.4865
  991MOL0     H30807   1.856  11.059   9.271 -2.5720  0.1158  0.5523
  991MOL0     H30808   2.005  10.798   9.177  1.3045 -0.4904 -0.4294
  991MOL0     H30809   1.996  10.950   9.101  0.4326  0.1748  0.2554
  991MOL0     H30810   2.293  10.993   9.422  0.0062  1.7881 -0.2470
  991MOL0     H30811   1.323  10.905   8.986 -1.7106  1.3214 -0.5370
  991MOL0     H30812   1.075  10.880   9.037 -1.3498 -1.3765  1.2873
  992MOL0     O30813   1.274  11.182   4.232  0.3201 -0.0385  0.0041
  992MOL0     C30814   1.304  11.300   4.243  0.2135 -0.3728 -0.0426
  992MOL0     O30815   1.427  11.355   4.233  0.0177  0.6113  0.3507
  992MOL0     C30816   1.545  11.283   4.209 -1.3463  0.5001 -0.4880
  992MOL0     C30817   1.656  11.352   4.157  0.6335 -0.0231 -0.5841
  992MOL0     C30818   1.780  11.287   4.132  0.2022  0.6584  0.7277
  992MOL0     C30819   1.802  11.151   4.153 -0.4708  0.1719 -0.2202
  992MOL0     O30820   1.927  11.100   4.133 -0.4418  0.3290  0.3363
  992MOL0     C30821   1.930  10.969   4.079 -0.8076 -0.9123 -0.6032
  992MOL0     C30822   2.061  10.950   4.016 -0.2679 -0.9076  0.1158
  992MOL0     C30823   2.085  10.795   3.992 -0.1104  0.0879 -0.2387
  992MOL0     C30824   2.204  10.774   3.907  0.1397  1.0817  0.0258
  992MOL0     C30825   2.247  10.629   3.877  0.1031  0.4647  0.4155
  992MOL0     C30826   2.323  10.610   3.745 -0.6123 -0.7009  0.1814
  992MOL0     C30827   2.339  10.463   3.697 -0.7562  0.2973 -0.7014
  992MOL0     C30828   2.233  10.426   3.596 -0.8916 -0.3352  0.5697
  992MOL0     N30829   2.095  10.460   3.621  0.0713  0.2365 -0.2587
  992MOL0     C30830   2.015  10.555   3.554 -0.1196 -0.0666  0.4082
  992MOL0     C30831   1.896  10.541   3.619  0.8632 -0.2420  0.9852
  992MOL0     C30832   1.767  10.603   3.592 -0.5044 -0.1307  0.5428
  992MOL0     C30833   1.770  10.756   3.598 -0.4583  0.3289  0.1146
  992MOL0     C30834   1.638  10.822   3.557  0.5499  0.2171  0.5532
  992MOL0     C30835   1.646  10.883   3.411  0.0552  1.0759  0.3535
  992MOL0     O30836   1.533  10.972   3.388 -0.3242  0.4254 -0.0943
  992MOL0     C30837   1.409  10.914   3.375 -0.0736 -0.0826  0.1563
  992MOL0     C30838   1.374  10.809   3.286  0.5205 -0.2837 -0.2961
  992MOL0     C30839   1.243  10.766   3.266 -0.1922 -0.0556 -0.5750
  992MOL0     C30840   1.142  10.829   3.338 -0.2639  0.2626  0.3057
  992MOL0     C30841   1.002  10.785   3.309 -0.9294  0.3609  0.2941
  992MOL0     O30842   0.909  10.871   3.359  0.5797  0.8199 -0.7607
  992MOL0     C30843   0.769  10.835   3.376 -0.5367 -0.4168 -0.9056
  992MOL0     C30844   0.691  10.774   3.281  0.0099  0.4920 -0.2575
  992MOL0     C30845   0.557  10.761   3.298  0.1784 -0.9210  0.1144
  992MOL0     C30846   0.493  10.808   3.412 -0.0270  0.4850  0.2714
  992MOL0     O30847   0.355  10.813   3.404  0.3201  0.0312 -0.0658
  992MOL0     C30848   0.292  10.920   3.480 -0.2296 -0.2966 -0.3084
  992MOL0     C30849   0.145  10.926   3.454 -0.1391 -0.5010 -0.1836
  992MOL0     C30850   0.072  10.805   3.502  0.3657  0.0785  0.5680
  992MOL0     C30851   0.060  10.789   3.652  0.1342  0.5363 -0.0847
  992MOL0     C30852  -0.081  10.723   3.691 -0.4360  0.8179 -0.1385
  992MOL0     C30853  -0.070  10.573   3.664 -0.4314  0.2615 -0.5314
  992MOL0     C30854  -0.214  10.524   3.649 -0.4033 -0.3107  0.1251
  992MOL0     C30855  -0.256  10.502   3.504 -0.8294 -0.0375 -0.3415
  992MOL0    Cl30856  -0.425  10.467   3.487  0.0901 -0.1693 -0.1586
  992MOL0     C30857   0.571  10.847   3.522  0.1639  0.7389  0.2088
  992MOL0     C30858   0.713  10.860   3.496  0.3131 -0.5129  0.2681
  992MOL0     O30859   0.978  10.680   3.257 -0.4464  0.3607  0.2119
  992MOL0     C30860   1.169  10.945   3.409  0.1230  0.9650 -0.0870
  992MOL0     C30861   1.306  10.992   3.429  0.8462 -0.5567  0.2748
  992MOL0     N30862   1.900  10.435   3.706 -0.0082  0.1247 -0.1057
  992MOL0     N30863   2.015  10.380   3.688 -0.4611  0.9905 -0.4735
  992MOL0     C30864   1.694  11.083   4.205  0.1632 -0.1922  0.3180
  992MOL0     C30865   1.566  11.138   4.237  0.7040 -0.2161  0.0269
  992MOL0     C30866   1.192  11.393   4.263 -0.4291 -1.0342  0.9412
  992MOL0     C30867   1.058  11.350   4.256  0.7403 -0.6749  0.2415
  992MOL0     C30868   0.952  11.434   4.296  0.2829 -0.4251  0.5900
  992MOL0     C30869   0.977  11.570   4.325  0.0091  0.6974 -0.7613
  992MOL0     O30870   0.872  11.639   4.375 -0.1196 -0.3785 -0.3471
  992MOL0     C30871   0.866  11.778   4.378 -0.2109 -0.7495 -0.3995
  992MOL0     C30872   0.750  11.826   4.466  0.1447  0.0997  0.0116
  992MOL0     C30873   0.619  11.751   4.461  0.7013 -0.1815 -0.2170
  992MOL0     C30874   0.504  11.833   4.520 -0.9067  0.3238 -0.5830
  992MOL0     C30875   0.373  11.786   4.508 -0.2001  0.0917  0.2140
  992MOL0     C30876   0.253  11.768   4.493 -0.3342 -0.4059 -1.3780
  992MOL0     C30877   1.109  11.614   4.306  0.1622  0.2885  1.1154
  992MOL0     C30878   1.215  11.528   4.268  0.1588 -0.8673  0.4213
  992MOL0     H30879   1.660  11.459   4.139 -1.8891  0.5545  1.5858
  992MOL0     H30880   1.853  11.351   4.083  1.6164 -0.6669  1.0704
  992MOL0     H30881   1.850  10.957   4.005 -2.7154 -0.4190  1.3172
  992MOL0     H30882   1.921  10.894   4.158 -1.2351 -1.1196 -0.8466
  992MOL0     H30883   2.137  10.989   4.085 -0.1618 -0.2181 -0.3845
  992MOL0     H30884   2.067  10.994   3.916 -2.6116 -1.3928 -0.2992
  992MOL0     H30885   2.005  10.747   3.935 -1.4103  2.0392 -0.1246
  992MOL0     H30886   2.110  10.742   4.085  1.0038  1.3235  0.1912
  992MOL0     H30887   2.166  10.809   3.811  0.6956 -2.9411 -1.8722
  992MOL0     H30888   2.287  10.836   3.942  2.6461 -1.9249 -0.1162
  992MOL0     H30889   2.150  10.582   3.862 -3.4305  5.4223  4.4031
  992MOL0     H30890   2.289  10.577   3.963 -0.1205 -3.0665 -1.4372
  992MOL0     H30891   2.420  10.655   3.770 -0.9546 -1.1119  2.4449
  992MOL0     H30892   2.277  10.674   3.668 -1.5320 -1.3583  0.1700
  992MOL0     H30893   2.435  10.448   3.647  0.5842 -0.6143  1.9874
  992MOL0     H30894   2.353  10.396   3.782  0.8060 -1.5003 -2.2687
  992MOL0     H30895   2.236  10.319   3.571  2.1799 -0.5721  1.5542
  992MOL0     H30896   2.256  10.483   3.505 -5.3981  0.0459 -0.5796
  992MOL0     H30897   2.036  10.631   3.479 -0.3236  0.7872  1.1923
  992MOL0     H30898   1.694  10.574   3.668  0.2946  0.8438  1.7088
  992MOL0     H30899   1.731  10.573   3.493 -0.3638  0.8891  0.1681
  992MOL0     H30900   1.847  10.794   3.531 -0.1604  0.3324  0.4567
  992MOL0     H30901   1.796  10.781   3.701  0.7366 -1.2937  0.2463
  992MOL0     H30902   1.550  10.758   3.568 -0.8917  1.6085 -1.9848
  992MOL0     H30903   1.623  10.913   3.617 -0.7715  0.2406  0.2113
  992MOL0     H30904   1.641  10.789   3.355 -2.0916  1.2441  0.1634
  992MOL0     H30905   1.736  10.939   3.389  0.8648 -1.0038 -2.1013
  992MOL0     H30906   1.444  10.742   3.238  0.0012 -2.9845  2.3997
  992MOL0     H30907   1.216  10.676   3.211 -2.2812 -0.6675  1.2480
  992MOL0     H30908   0.729  10.753   3.182 -3.0309 -1.5484 -1.1308
  992MOL0     H30909   0.490  10.710   3.230  0.3978 -0.4235 -0.4946
  992MOL0     H30910   0.327  11.022   3.464 -0.4652  0.0451  1.1392
  992MOL0     H30911   0.314  10.890   3.584  0.5973  1.6220  0.1106
  992MOL0     H30912   0.129  10.941   3.346  0.2288 -0.0937 -0.1840
  992MOL0     H30913   0.105  11.018   3.499  3.2094  1.6685 -1.2259
  992MOL0     H30914   0.103  10.715   3.449 -2.2745  0.1560 -1.2952
  992MOL0     H30915  -0.030  10.835   3.479 -0.5862 -0.2867  3.7697
  992MOL0     H30916   0.154  10.741   3.681  1.0422  0.6879 -2.5329
  992MOL0     H30917   0.054  10.883   3.707  0.7248  1.3889 -1.4256
  992MOL0     H30918  -0.151  10.782   3.631 -0.0372  1.0255 -0.4049
  992MOL0     H30919  -0.098  10.736   3.798 -1.3634 -1.9850  0.1166
  992MOL0     H30920  -0.023  10.537   3.756  0.7384  2.1225 -0.3357
  992MOL0     H30921  -0.009  10.540   3.580  3.6025  0.2700  2.0808
  992MOL0     H30922  -0.232  10.424   3.688  0.0343 -2.0841 -3.7355
  992MOL0     H30923  -0.271  10.600   3.703  1.0816  0.2628  0.9633
  992MOL0     H30924  -0.185  10.431   3.462  0.4463 -0.4861  2.3568
  992MOL0     H30925  -0.238  10.591   3.443 -2.1291  0.3202 -0.2413
  992MOL0     H30926   0.541  10.888   3.618  1.1038  1.8996  0.0402
  992MOL0     H30927   0.779  10.895   3.575  0.8308 -0.1811 -0.3084
  992MOL0     H30928   1.086  11.001   3.451 -1.4424 -1.2022 -0.1017
  992MOL0     H30929   1.326  11.087   3.476  0.6181 -1.0871  1.4756
  992MOL0     H30930   1.697  10.976   4.223 -0.4910 -0.5127 -1.3361
  992MOL0     H30931   1.488  11.073   4.274  0.1998  1.8913  3.0133
  992MOL0     H30932   1.037  11.245   4.242  1.6671 -0.5360 -3.0165
  992MOL0     H30933   0.849  11.400   4.304 -0.9278  2.9732  1.2020
  992MOL0     H30934   0.859  11.813   4.274 -0.5399  0.8494  0.1408
  992MOL0     H30935   0.958  11.822   4.419  0.0244 -1.0802 -0.5644
  992MOL0     H30936   0.782  11.822   4.571 -0.9442 -0.9307  0.3244
  992MOL0     H30937   0.720  11.931   4.462  2.2657  0.8768  2.0436
  992MOL0     H30938   0.619  11.657   4.517 -1.5207  1.1507  2.2823
  992MOL0     H30939   0.592  11.722   4.359 -4.1999  1.8303  0.2309
  992MOL0     H30940   0.537  11.860   4.620  1.3134 -0.0150 -1.1868
  992MOL0     H30941   0.508  11.935   4.480  0.0645  0.4017 -0.2963
  992MOL0     H30942   0.148  11.752   4.477 -1.0347  1.5979  0.7567
  992MOL0     H30943   1.132  11.719   4.321 -2.9094  1.3318 -0.6584
  992MOL0     H30944   1.317  11.565   4.270  0.0366 -0.5524  2.3894
  993MOL0     O30945   5.455  10.230   6.961 -0.5980  0.6159  0.2199
  993MOL0     C30946   5.527  10.131   6.932  0.4046 -0.7868  0.4049
  993MOL0     O30947   5.478  10.005   6.898  0.2939 -0.6612  0.3729
  993MOL0     C30948   5.344   9.987   6.919  0.2328  0.3017  0.1750
  993MOL0     C30949   5.277  10.017   7.041  0.6585  0.1007  1.2714
  993MOL0     C30950   5.157   9.966   7.081  0.3264  0.4049 -0.7007
  993MOL0     C30951   5.081   9.878   6.998 -0.6393  0.1101 -0.1317
  993MOL0     O30952   4.962   9.821   7.049 -0.5284 -0.6303  0.0312
  993MOL0     C30953   4.885   9.736   6.966 -0.3510  0.4435 -1.1358
  993MOL0     C30954   4.769   9.684   7.060 -0.0988 -0.0277  0.5865
  993MOL0     C30955   4.678   9.787   7.122  0.0319 -0.2669 -0.4482
  993MOL0     C30956   4.552   9.726   7.185 -0.1551  0.3055 -0.2157
  993MOL0     C30957   4.462   9.830   7.247 -0.0003 -0.5306 -1.1174
  993MOL0     C30958   4.320   9.775   7.287 -0.3433  0.3231  0.0712
  993MOL0     C30959   4.212   9.881   7.334  0.1041  0.2703  0.5065
  993MOL0     C30960   4.137   9.951   7.219  0.4059 -0.0061  0.0373
  993MOL0     N30961   4.028  10.036   7.276  0.1862 -0.9666  0.0439
  993MOL0     C30962   3.908  10.054   7.223 -0.3684  1.1619  0.2231
  993MOL0     C30963   3.844  10.147   7.294 -0.1127  0.3656 -0.4425
  993MOL0     C30964   3.717  10.199   7.238  0.9432 -0.6474 -0.0109
  993MOL0     C30965   3.624  10.252   7.340  0.0031  0.4398  0.3216
  993MOL0     C30966   3.502  10.316   7.278 -0.1228  0.3785  0.3703
  993MOL0     C30967   3.418  10.396   7.382 -0.1453  0.1457 -0.5763
  993MOL0     O30968   3.329  10.301   7.448 -0.0179 -0.3683  0.6290
  993MOL0     C30969   3.218  10.248   7.377  0.1461 -0.4013  0.4692
  993MOL0     C30970   3.194  10.268   7.244  1.1443 -0.3102 -0.2442
  993MOL0     C30971   3.077  10.223   7.184  0.8115 -0.0422 -0.7719
  993MOL0     C30972   2.975  10.159   7.259 -0.7590 -0.1243 -0.0913
  993MOL0     C30973   2.851  10.110   7.201  0.1282  0.2402  0.5345
  993MOL0     O30974   2.763  10.051   7.292 -0.0271  0.4870  0.5554
  993MOL0     C30975   2.633  10.003   7.271  0.0326  1.1850  0.4015
  993MOL0     C30976   2.583   9.992   7.140  1.2667  0.6686  0.3377
  993MOL0     C30977   2.446   9.946   7.125  0.2502 -0.1909  0.4307
  993MOL0     C30978   2.365   9.910   7.236  0.7967 -0.8041  0.3797
  993MOL0     O30979   2.232   9.866   7.229 -0.3819  0.3442 -0.0365
  993MOL0     C30980   2.181   9.881   7.094 -0.2484  0.3119 -0.0825
  993MOL0     C30981   2.036   9.826   7.086  0.3937 -0.0941  0.4432
  993MOL0     C30982   2.034   9.674   7.120 -0.4409  0.1102 -0.7518
  993MOL0     C30983   1.905   9.614   7.081 -0.1428  0.3795  0.0354
  993MOL0     C30984   1.790   9.644   7.180 -0.6075  0.1303  0.0633
  993MOL0     C30985   1.657   9.629   7.116  0.5417 -0.1769  0.6235
  993MOL0     C30986   1.618   9.496   7.053  0.3714 -0.3849 -0.7909
  993MOL0     C30987   1.598   9.385   7.156  0.2103  0.5094  0.3143
  993MOL0    Cl30988   1.534   9.239   7.088 -0.0502 -0.3065 -0.3457
  993MOL0     C30989   2.420   9.943   7.367  0.4733 -0.0292  0.0010
  993MOL0     C30990   2.555   9.975   7.380 -0.1454  0.6528  0.3724
  993MOL0     O30991   2.836  10.130   7.083  0.6464  0.1021 -0.4340
  993MOL0     C30992   2.998  10.145   7.395  0.0296  0.1285  0.8055
  993MOL0     C30993   3.125  10.174   7.443  0.7818 -0.1523  0.6973
  993MOL0     N30994   3.915  10.179   7.412  0.2237 -0.4374  0.3041
  993MOL0     N30995   4.029  10.111   7.396  0.4814  0.7752  0.5053
  993MOL0     C30996   5.141   9.851   6.873 -0.4488 -0.1939 -0.6754
  993MOL0     C30997   5.264   9.902   6.835 -0.6295 -0.7600  0.6777
  993MOL0     C30998   5.670  10.155   6.912  1.0184 -0.5735  0.2399
  993MOL0     C30999   5.728  10.283   6.891 -0.4666 -0.3671 -0.7540
  993MOL0     C31000   5.872  10.295   6.889  0.5161 -0.0294  0.0225
  993MOL0     C31001   5.951  10.189   6.908 -0.3278  0.0806 -0.0069
  993MOL0     O31002   6.085  10.210   6.871 -0.0729  0.8192 -0.3197
  993MOL0     C31003   6.188  10.115   6.890 -0.2837  1.0768 -0.1270
  993MOL0     C31004   6.334  10.180   6.881 -0.0214 -0.1346  0.1414
  993MOL0     C31005   6.370  10.263   7.002 -0.0050 -0.2555 -0.1434
  993MOL0     C31006   6.516  10.310   6.984 -0.0441  0.3753  0.1401
  993MOL0     C31007   6.565  10.365   7.115  0.0331  0.6422  0.5819
  993MOL0     C31008   6.603  10.423   7.214 -0.2532  0.5720  0.4808
  993MOL0     C31009   5.892  10.066   6.935 -0.2305  0.5585  0.4215
  993MOL0     C31010   5.755  10.049   6.925 -0.6480  0.0092  0.8869
  993MOL0     H31011   5.339  10.077   7.107  0.6567 -0.9805  2.2929
  993MOL0     H31012   5.119  10.000   7.177 -0.8993  2.1597 -1.7578
  993MOL0     H31013   4.938   9.649   6.927 -0.7647 -0.6334  0.5904
  993MOL0     H31014   4.836   9.790   6.885 -0.4436  1.6486 -0.3031
  993MOL0     H31015   4.817   9.625   7.138 -0.0304  0.8614  1.2396
  993MOL0     H31016   4.706   9.617   7.000 -2.2292  0.5452  2.0670
  993MOL0     H31017   4.651   9.859   7.044 -2.0558 -1.1609 -0.6214
  993MOL0     H31018   4.736   9.842   7.196  0.5537 -0.3536 -0.7901
  993MOL0     H31019   4.503   9.674   7.102  0.3106 -0.1894 -0.1850
  993MOL0     H31020   4.572   9.650   7.261  1.7129  0.2110 -0.7594
  993MOL0     H31021   4.449   9.922   7.190 -2.9538  0.4840  0.9794
  993MOL0     H31022   4.519   9.869   7.332 -1.6940  1.0211 -0.6400
  993MOL0     H31023   4.337   9.708   7.372 -2.2089 -3.1295 -2.0307
  993MOL0     H31024   4.287   9.711   7.204  1.3104  1.3280 -1.4453
  993MOL0     H31025   4.139   9.835   7.401 -1.2324  1.8156  0.1688
  993MOL0     H31026   4.263   9.951   7.401  1.6815 -0.9006  0.5862
  993MOL0     H31027   4.095   9.872   7.156  0.3938 -0.5158  0.6694
  993MOL0     H31028   4.205  10.018   7.167 -0.2950  0.4782 -0.2762
  993MOL0     H31029   3.871  10.006   7.133 -0.5163  1.6681  0.0103
  993MOL0     H31030   3.670  10.122   7.177 -0.7166  0.8486 -0.7062
  993MOL0     H31031   3.743  10.287   7.178 -0.0807  0.5347  1.1820
  993MOL0     H31032   3.682  10.330   7.390 -0.3424  1.8645 -1.3815
  993MOL0     H31033   3.601  10.174   7.413 -0.0080  1.4465  1.4086
  993MOL0     H31034   3.533  10.380   7.195 -1.0224 -1.9249 -1.8748
  993MOL0     H31035   3.444  10.232   7.238 -0.2955  0.1555  1.0733
  993MOL0     H31036   3.355  10.472   7.334 -1.5194  0.0433  0.9735
  993MOL0     H31037   3.484  10.440   7.456 -0.8239  1.1354 -0.5437
  993MOL0     H31038   3.256  10.318   7.170  1.5151 -1.7296 -0.9294
  993MOL0     H31039   3.069  10.250   7.079  4.3286  0.5938 -0.9736
  993MOL0     H31040   2.628  10.022   7.046  0.1755 -1.3939 -0.9266
  993MOL0     H31041   2.405   9.959   7.025  0.5853 -1.6798  0.0692
  993MOL0     H31042   2.244   9.827   7.023  0.2522 -0.6566  1.0642
  993MOL0     H31043   2.179   9.987   7.064  0.5709  0.6164  0.8503
  993MOL0     H31044   2.004   9.839   6.982  1.4918 -0.3304  0.0576
  993MOL0     H31045   1.971   9.881   7.154 -0.6870  0.8859 -1.3074
  993MOL0     H31046   2.057   9.654   7.226 -0.8090 -1.5753 -0.9543
  993MOL0     H31047   2.117   9.622   7.071  1.6519  1.9096  0.6450
  993MOL0     H31048   1.875   9.645   6.981  0.7483 -1.6164 -0.9040
  993MOL0     H31049   1.913   9.505   7.071  0.1057  0.4533 -0.6179
  993MOL0     H31050   1.800   9.751   7.198  3.5492  0.8714 -4.4777
  993MOL0     H31051   1.802   9.586   7.272 -2.0254  1.7272  1.3204
  993MOL0     H31052   1.635   9.709   7.044 -1.5590 -1.6360 -0.4834
  993MOL0     H31053   1.590   9.659   7.197  0.3462  1.9043 -0.2607
  993MOL0     H31054   1.520   9.503   7.005 -0.9504 -0.2108  1.7216
  993MOL0     H31055   1.698   9.462   6.987 -0.3415  1.6414 -2.8486
  993MOL0     H31056   1.538   9.412   7.244  1.5864  2.5868  0.6778
  993MOL0     H31057   1.695   9.375   7.204  1.0113  1.7312 -0.9622
  993MOL0     H31058   2.354   9.927   7.453 -3.6223 -0.6088 -2.9553
  993MOL0     H31059   2.602  10.003   7.474  1.1902  0.6843 -0.2859
  993MOL0     H31060   2.921  10.114   7.466  0.4427 -1.0680  0.7552
  993MOL0     H31061   3.154  10.161   7.547  0.1994  1.6482  1.1097
  993MOL0     H31062   5.089   9.789   6.802 -2.1018  0.2578  0.0906
  993MOL0     H31063   5.306   9.858   6.745  0.3427 -3.4766  2.3234
  993MOL0     H31064   5.667  10.370   6.870 -0.6689 -0.6276 -1.2459
  993MOL0     H31065   5.906  10.390   6.851  1.0643  0.2909  1.2497
  993MOL0     H31066   6.186  10.044   6.807  1.7252 -0.1786  0.8036
  993MOL0     H31067   6.179  10.060   6.984 -0.6935 -1.2104 -1.4118
  993MOL0     H31068   6.414  10.112   6.853 -0.7835 -1.6241  1.4248
  993MOL0     H31069   6.323  10.256   6.803 -0.9851  0.1354  0.5184
  993MOL0     H31070   6.371  10.213   7.099  1.7093  1.8006  1.0104
  993MOL0     H31071   6.304  10.350   7.001  0.0838 -0.1842 -0.8842
  993MOL0     H31072   6.577  10.238   6.930  2.6247  2.5303  0.0848
  993MOL0     H31073   6.513  10.396   6.916  2.6086  0.4636  0.0205
  993MOL0     H31074   6.645  10.471   7.300 -0.4889  1.6458  0.0024
  993MOL0     H31075   5.955   9.978   6.944 -1.0930 -0.1335 -0.1114
  993MOL0     H31076   5.715   9.948   6.932  2.7722 -1.7883 -1.8829
  994MOL0     O31077   7.881   0.266   5.299  0.5604 -0.2392 -0.0984
  994MOL0     C31078   7.913   0.156   5.254  0.3128 -0.0558 -1.3585
  994MOL0     O31079   7.851   0.039   5.280 -0.7339 -0.0176 -0.0381
  994MOL0     C31080   7.728   0.044   5.334 -0.6205 -0.2555 -0.1446
  994MOL0     C31081   7.608   0.027   5.260 -0.2792  0.1223  0.3350
  994MOL0     C31082   7.490  -0.000   5.324 -0.6752 -0.0333 -0.1388
  994MOL0     C31083   7.481  -0.001   5.469 -0.5799 -0.4482 -0.2604
  994MOL0     O31084   7.368  -0.026   5.541  0.0001  0.3058 -0.1796
  994MOL0     C31085   7.369  -0.115   5.653  0.4593  0.8707 -0.1465
  994MOL0     C31086   7.291  -0.059   5.775 -0.0668 -0.3662 -0.6829
  994MOL0     C31087   7.283  -0.134   5.909 -1.1422  0.3896  0.1250
  994MOL0     C31088   7.212  -0.032   6.010 -0.0551 -0.0543  0.4143
  994MOL0     C31089   7.069   0.011   5.981 -0.3918 -0.1409  0.4249
  994MOL0     C31090   6.951  -0.092   5.964 -0.3025  0.9817 -0.5560
  994MOL0     C31091   6.919  -0.173   6.087 -0.4330  1.3524 -0.2150
  994MOL0     C31092   6.856  -0.092   6.201 -0.5230 -0.1392  0.4062
  994MOL0     N31093   6.795  -0.189   6.301  0.3085  0.1085 -0.6138
  994MOL0     C31094   6.825  -0.186   6.439 -0.0227  0.4302  0.6691
  994MOL0     C31095   6.733  -0.265   6.498 -0.5179  0.1837  0.1203
  994MOL0     C31096   6.714  -0.289   6.643 -0.5276  0.0871 -0.9703
  994MOL0     C31097   6.669  -0.165   6.726 -0.1756  0.0287 -0.8440
  994MOL0     C31098   6.547  -0.094   6.672 -0.5711  0.3542  0.0996
  994MOL0     C31099   6.419  -0.184   6.679 -0.0209 -0.3826 -0.3538
  994MOL0     O31100   6.400  -0.239   6.804  0.9209  0.2499  0.5407
  994MOL0     C31101   6.269  -0.242   6.845 -0.7830  0.3625 -0.1758
  994MOL0     C31102   6.243  -0.187   6.977  0.5928 -0.4731 -0.2518
  994MOL0     C31103   6.102  -0.191   7.022  0.9800  0.4153 -0.3041
  994MOL0     C31104   5.999  -0.259   6.952 -0.6367  0.3202  0.0247
  994MOL0     C31105   5.874  -0.291   7.013 -0.2407  0.5149 -1.4125
  994MOL0     O31106   5.765  -0.316   6.929 -0.4858  0.2290 -0.4776
  994MOL0     C31107   5.667  -0.403   6.974  0.2014  0.0070 -0.5138
  994MOL0     C31108   5.540  -0.346   6.984  1.1867 -1.0262 -0.4704
  994MOL0     C31109   5.433  -0.422   7.024  0.0841  0.5367  0.3754
  994MOL0     C31110   5.463  -0.552   7.074 -0.2576  0.6167 -0.4593
  994MOL0     O31111   5.362  -0.616   7.136 -0.8316  0.4271 -0.2368
  994MOL0     C31112   5.353  -0.760   7.115 -0.5452 -0.6101  0.4108
  994MOL0     C31113   5.251  -0.818   7.209 -0.2484  0.6952 -0.1125
  994MOL0     C31114   5.101  -0.799   7.173 -0.4426  0.8487  0.3530
  994MOL0     C31115   5.054  -0.648   7.153  0.0455  0.1777 -0.4412
  994MOL0     C31116   4.901  -0.654   7.128 -0.4818 -0.0229 -0.7231
  994MOL0     C31117   4.862  -0.744   7.009 -0.7319 -0.9620 -0.0036
  994MOL0     C31118   4.732  -0.690   6.939  0.0075 -0.1116  0.1064
  994MOL0     C31119   4.623  -0.682   7.046 -0.2196  0.8094 -1.3227
  994MOL0    Cl31120   4.484  -0.645   6.949 -0.3211 -0.1843 -0.6882
  994MOL0     C31121   5.589  -0.608   7.063  0.7689 -1.3614  0.0735
  994MOL0     C31122   5.693  -0.536   7.008 -0.6770  0.0961 -0.3509
  994MOL0     O31123   5.868  -0.295   7.143 -0.3957 -0.4191  0.9625
  994MOL0     C31124   6.038  -0.312   6.824 -0.8661  0.0938 -0.8160
  994MOL0     C31125   6.166  -0.303   6.778  0.3096  0.0066 -0.1955
  994MOL0     N31126   6.648  -0.302   6.399  0.0062 -0.3024  0.0496
  994MOL0     N31127   6.692  -0.272   6.279  0.2105  0.7162 -0.3137
  994MOL0     C31128   7.594   0.038   5.533  0.2811  0.2583 -0.4465
  994MOL0     C31129   7.719   0.060   5.479 -0.2467  0.0211  0.8146
  994MOL0     C31130   8.022   0.166   5.170 -0.7458 -0.0221 -0.0090
  994MOL0     C31131   8.118   0.270   5.156 -0.2629 -0.8325  0.2211
  994MOL0     C31132   8.223   0.269   5.060  0.0623 -0.2556 -0.1592
  994MOL0     C31133   8.241   0.165   4.976  0.1131 -0.0569  0.5125
  994MOL0     O31134   8.340   0.147   4.885 -0.6751  0.1451  0.4974
  994MOL0     C31135   8.439   0.057   4.916  0.0506  0.2761 -0.3713
  994MOL0     C31136   8.557   0.065   4.814 -0.5422  1.0423 -0.0807
  994MOL0     C31137   8.536   0.034   4.662 -0.3220  0.2990 -0.2055
  994MOL0     C31138   8.665   0.068   4.580 -0.0941  1.2397 -0.9905
  994MOL0     C31139   8.685  -0.017   4.460  1.2709  0.3508  0.1727
  994MOL0     C31140   8.704  -0.088   4.363 -0.2865 -0.3711  0.3342
  994MOL0     C31141   8.157   0.059   5.004  1.1379 -0.3913  0.0626
  994MOL0     C31142   8.053   0.057   5.094 -0.6588  0.4379  0.0139
  994MOL0     H31143   7.622   0.034   5.153  0.5319  2.3641  0.5439
  994MOL0     H31144   7.399  -0.016   5.267 -0.3289  0.7391 -0.9147
  994MOL0     H31145   7.468  -0.149   5.683  0.8055 -0.7199 -2.7674
  994MOL0     H31146   7.317  -0.207   5.624  0.7444 -0.0855  2.1882
  994MOL0     H31147   7.186  -0.047   5.747 -0.3614  2.0221  1.1435
  994MOL0     H31148   7.330   0.043   5.780  1.5763 -0.9708 -0.6580
  994MOL0     H31149   7.381  -0.169   5.941 -1.0932 -2.8399 -2.9212
  994MOL0     H31150   7.213  -0.218   5.906 -0.5401 -0.1317  0.4192
  994MOL0     H31151   7.205  -0.085   6.106 -2.7090  0.8576  0.8136
  994MOL0     H31152   7.272   0.059   6.021  1.7806 -1.3856  2.2203
  994MOL0     H31153   7.065   0.076   5.892 -1.2715  0.0278  0.5831
  994MOL0     H31154   7.043   0.079   6.062 -2.7128  0.1326 -0.4727
  994MOL0     H31155   6.988  -0.155   5.883 -0.2681  2.1508 -1.4697
  994MOL0     H31156   6.859  -0.042   5.933 -0.6216 -0.2103 -1.5872
  994MOL0     H31157   6.844  -0.240   6.044  0.4091  0.2261  0.0234
  994MOL0     H31158   7.011  -0.227   6.112 -0.5053  1.7536  0.9680
  994MOL0     H31159   6.775  -0.034   6.155 -0.7306  0.7361  1.8080
  994MOL0     H31160   6.930  -0.023   6.244 -1.3880  2.0608 -1.4406
  994MOL0     H31161   6.904  -0.130   6.487  0.3544  0.3003  0.2087
  994MOL0     H31162   6.807  -0.323   6.690 -0.6647  2.2058  1.0330
  994MOL0     H31163   6.634  -0.363   6.650  1.9327 -2.7896 -1.2419
  994MOL0     H31164   6.752  -0.095   6.731 -0.4097  0.5004 -2.6569
  994MOL0     H31165   6.651  -0.193   6.830  1.5070  1.9153  0.0161
  994MOL0     H31166   6.540  -0.012   6.744  0.3413  1.4404 -1.0198
  994MOL0     H31167   6.560  -0.063   6.568  2.2591  0.1050  0.3068
  994MOL0     H31168   6.419  -0.263   6.604  1.4152 -1.2978  0.5710
  994MOL0     H31169   6.337  -0.113   6.661  1.1755  0.4396 -2.9065
  994MOL0     H31170   6.324  -0.151   7.039  0.2428  1.0748 -0.6525
  994MOL0     H31171   6.072  -0.154   7.120 -0.0999 -0.1481 -0.4185
  994MOL0     H31172   5.525  -0.238   6.976  1.2230 -1.0648 -1.0815
  994MOL0     H31173   5.333  -0.381   7.021 -0.3569 -0.4458  1.0553
  994MOL0     H31174   5.449  -0.813   7.122 -0.2402  0.1595  3.2593
  994MOL0     H31175   5.321  -0.771   7.011  1.0747  1.8574 -0.4374
  994MOL0     H31176   5.279  -0.794   7.312 -1.0615  3.2774 -0.4301
  994MOL0     H31177   5.264  -0.927   7.207  0.5855  0.7689  0.4209
  994MOL0     H31178   5.052  -0.850   7.256  1.1609 -1.5360 -0.0717
  994MOL0     H31179   5.077  -0.860   7.086  0.3100 -1.3539  1.6208
  994MOL0     H31180   5.084  -0.592   7.241 -0.2285  0.3359 -0.4478
  994MOL0     H31181   5.107  -0.601   7.070 -0.1699 -1.1525 -1.3753
  994MOL0     H31182   4.862  -0.553   7.112 -1.7507 -0.8440 -3.3480
  994MOL0     H31183   4.855  -0.690   7.220  0.9520  1.3964  0.6216
  994MOL0     H31184   4.867  -0.851   7.030  1.8822 -1.1052 -1.0441
  994MOL0     H31185   4.939  -0.733   6.932 -0.4155 -2.5147  0.0626
  994MOL0     H31186   4.749  -0.590   6.899  0.7125  0.5563  1.9738
  994MOL0     H31187   4.711  -0.755   6.854 -2.5362  1.8217 -0.8661
  994MOL0     H31188   4.643  -0.610   7.125 -0.9176 -1.5918  1.1900
  994MOL0     H31189   4.615  -0.775   7.102  0.9654  1.6233  0.2670
  994MOL0     H31190   5.611  -0.707   7.101  0.8145 -1.2329  0.3860
  994MOL0     H31191   5.794  -0.576   7.002 -1.2877 -1.5096 -0.4661
  994MOL0     H31192   5.959  -0.367   6.773  1.3920 -2.0679 -2.1959
  994MOL0     H31193   6.191  -0.326   6.675  0.4884  0.6315 -0.2924
  994MOL0     H31194   7.596   0.041   5.641  0.9946  0.6111 -0.4613
  994MOL0     H31195   7.803   0.088   5.542 -1.5431 -0.4340  2.8673
  994MOL0     H31196   8.105   0.365   5.207  2.5594  1.5618 -3.0208
  994MOL0     H31197   8.288   0.356   5.063 -0.0450 -0.1241 -1.2406
  994MOL0     H31198   8.417  -0.050   4.915 -0.1333  0.1772  2.8432
  994MOL0     H31199   8.473   0.052   5.020 -1.1535 -0.9008 -0.0039
  994MOL0     H31200   8.595   0.165   4.838  1.7612 -0.0906  1.4034
  994MOL0     H31201   8.627  -0.013   4.843 -1.3058  0.3008 -0.2024
  994MOL0     H31202   8.458   0.092   4.613 -0.8456 -0.2444 -0.0316
  994MOL0     H31203   8.512  -0.072   4.655 -2.6810  0.5168  2.6569
  994MOL0     H31204   8.657   0.170   4.543  1.5753  0.4692 -3.7025
  994MOL0     H31205   8.750   0.050   4.647  1.2775 -0.0886 -2.9889
  994MOL0     H31206   8.722  -0.152   4.279  1.2278  0.2227  0.1781
  994MOL0     H31207   8.156  -0.031   4.943  1.0691 -0.3113 -0.0554
  994MOL0     H31208   7.986  -0.028   5.088 -0.1626  0.0538 -0.1692
  995MOL0     O31209   3.250   5.824   9.694  0.2354 -0.5060 -0.8364
  995MOL0     C31210   3.357   5.780   9.735  0.7620  0.2951 -0.0973
  995MOL0     O31211   3.385   5.657   9.790  0.1279  0.3704  0.3471
  995MOL0     C31212   3.294   5.555   9.783 -0.5627  0.8305  0.1498
  995MOL0     C31213   3.262   5.489   9.908  0.4450 -0.1247  0.3099
  995MOL0     C31214   3.166   5.380   9.904  0.0817  0.6467  1.1871
  995MOL0     C31215   3.109   5.338   9.780  0.5477  0.5020  0.3495
  995MOL0     O31216   3.026   5.230   9.767 -0.0224 -0.1232 -0.5860
  995MOL0     C31217   2.988   5.152   9.883 -0.2432 -0.1225  0.3603
  995MOL0     C31218   2.901   5.021   9.857 -0.2943 -0.6130 -0.0276
  995MOL0     C31219   2.876   4.967   9.998  0.1032 -0.0819  0.4398
  995MOL0     C31220   2.815   4.824   9.986  0.0610 -0.0650  0.1637
  995MOL0     C31221   2.820   4.758  10.118 -0.0047  0.3649  0.2428
  995MOL0     C31222   2.715   4.653  10.157 -0.4380  0.4124 -0.3217
  995MOL0     C31223   2.572   4.697  10.180 -0.4512  0.8440  0.6254
  995MOL0     C31224   2.475   4.583  10.225 -0.5427  0.3065  0.2012
  995MOL0     N31225   2.330   4.613  10.237  0.3327  0.3719  0.2766
  995MOL0     C31226   2.258   4.644  10.351 -0.2591  0.7577 -0.0344
  995MOL0     C31227   2.131   4.633  10.325  0.0059 -0.0848 -0.2979
  995MOL0     C31228   2.033   4.627  10.442  0.4355 -0.2369  0.7075
  995MOL0     C31229   1.888   4.651  10.387 -0.7375  0.0243  0.4535
  995MOL0     C31230   1.789   4.654  10.491  1.0698  0.2995  0.3984
  995MOL0     C31231   1.648   4.682  10.439  0.4985 -0.7291  0.0025
  995MOL0     O31232   1.569   4.663  10.561  0.1661 -0.4976 -0.0819
  995MOL0     C31233   1.446   4.716  10.566  0.0296 -0.6081 -0.1498
  995MOL0     C31234   1.383   4.797  10.461 -1.0048  0.4246 -0.3876
  995MOL0     C31235   1.257   4.852  10.494 -0.2782  0.1112  0.8356
  995MOL0     C31236   1.187   4.840  10.617 -0.2693  0.0621  0.1684
  995MOL0     C31237   1.063   4.903  10.643  0.5932  0.4287  1.0981
  995MOL0     O31238   1.010   4.976  10.534  0.8367 -0.0192 -0.1125
  995MOL0     C31239   0.875   4.999  10.534 -0.1211 -0.3350 -0.2158
  995MOL0     C31240   0.782   4.902  10.557 -0.1092  0.5736  0.2325
  995MOL0     C31241   0.645   4.926  10.543  0.4137 -0.1479 -0.3458
  995MOL0     C31242   0.598   5.056  10.530 -0.8851 -0.8294  0.4974
  995MOL0     O31243   0.472   5.097  10.528 -0.3815 -0.1270  0.2105
  995MOL0     C31244   0.403   5.039  10.637  1.2670  0.0845 -0.0848
  995MOL0     C31245   0.261   5.114  10.632 -0.2358 -0.4737  0.3683
  995MOL0     C31246   0.165   5.036  10.734  0.5978  0.2357 -0.4730
  995MOL0     C31247   0.044   5.122  10.750  0.4475  0.3186 -0.1631
  995MOL0     C31248  -0.072   5.056  10.815 -0.1343  0.3069  0.4033
  995MOL0     C31249  -0.199   5.135  10.810  0.1245 -0.6063  0.4751
  995MOL0     C31250  -0.313   5.070  10.880  0.3899  0.0377  0.1649
  995MOL0     C31251  -0.446   5.147  10.844 -0.3006  0.3159 -0.5658
  995MOL0    Cl31252  -0.495   5.132  10.680 -0.3198 -0.2287  0.4091
  995MOL0     C31253   0.695   5.164  10.507 -0.1941  0.2076  0.1841
  995MOL0     C31254   0.840   5.128  10.510  0.6950  0.5718  0.5026
  995MOL0     O31255   1.008   4.871  10.749 -0.1573  0.0058 -0.1926
  995MOL0     C31256   1.254   4.755  10.716 -1.3737  0.2712 -0.7250
  995MOL0     C31257   1.386   4.707  10.692  0.1964  0.2852 -0.0605
  995MOL0     N31258   2.123   4.605  10.192  0.2044  0.1984 -0.2271
  995MOL0     N31259   2.237   4.612  10.136 -0.3939 -0.1811 -0.2437
  995MOL0     C31260   3.151   5.395   9.661 -0.2359 -0.1143  0.0164
  995MOL0     C31261   3.247   5.502   9.661  0.3080 -0.3629  0.6876
  995MOL0     C31262   3.471   5.874   9.734 -0.5002 -0.5014  0.6501
  995MOL0     C31263   3.455   6.011   9.705 -0.0445  0.0212 -0.5556
  995MOL0     C31264   3.572   6.090   9.685 -0.6573 -0.4590 -0.4145
  995MOL0     C31265   3.707   6.031   9.691  0.6474 -0.0411 -0.1229
  995MOL0     O31266   3.810   6.116   9.682 -0.4821 -0.4032 -0.8384
  995MOL0     C31267   3.934   6.056   9.630 -1.1327 -0.4300 -0.1793
  995MOL0     C31268   4.030   6.167   9.573  0.7433 -0.0918 -0.5956
  995MOL0     C31269   4.090   6.250   9.691 -0.0109  0.6275  0.1256
  995MOL0     C31270   4.152   6.383   9.644  1.0690 -0.7120  0.0277
  995MOL0     C31271   4.268   6.360   9.555 -0.2182 -0.3514  0.3877
  995MOL0     C31272   4.363   6.344   9.482 -0.3805 -0.7019  0.3767
  995MOL0     C31273   3.714   5.903   9.732 -0.0126 -0.0662  0.0152
  995MOL0     C31274   3.599   5.827   9.752 -1.1304  0.2985  0.1101
  995MOL0     H31275   3.310   5.536   9.994  0.2890  0.4094  0.1098
  995MOL0     H31276   3.147   5.326   9.996  1.0086  2.0110  2.2389
  995MOL0     H31277   2.941   5.221   9.954 -0.4156  1.5842 -1.3398
  995MOL0     H31278   3.078   5.117   9.936 -0.7238  3.2524  3.9364
  995MOL0     H31279   2.958   4.949   9.798 -0.3670 -2.7348  2.2918
  995MOL0     H31280   2.811   5.047   9.801 -0.0435 -1.9274 -1.0982
  995MOL0     H31281   2.802   5.035  10.042 -1.1040 -2.6534  2.6946
  995MOL0     H31282   2.970   4.958  10.053 -0.0820 -1.2085  0.5985
  995MOL0     H31283   2.710   4.836   9.957 -0.0913 -4.5687 -2.1105
  995MOL0     H31284   2.854   4.760   9.906  0.2815 -0.0686  0.2739
  995MOL0     H31285   2.817   4.833  10.198  1.1429  0.5649  0.1175
  995MOL0     H31286   2.914   4.703  10.112 -0.4208 -0.2018 -2.0619
  995MOL0     H31287   2.746   4.605  10.250  0.9141  2.0721  0.1456
  995MOL0     H31288   2.723   4.576  10.080  2.7852  0.1226  0.1523
  995MOL0     H31289   2.562   4.776  10.255 -1.7766 -1.9690  3.6922
  995MOL0     H31290   2.536   4.741  10.087 -0.2220 -0.0311  0.1037
  995MOL0     H31291   2.518   4.550  10.320 -2.8798 -0.7449  0.9812
  995MOL0     H31292   2.487   4.501  10.153 -0.5422  0.1580  0.3695
  995MOL0     H31293   2.289   4.661  10.453  0.3955  0.6502 -0.2132
  995MOL0     H31294   2.066   4.712  10.503  1.9046 -1.6316  1.9757
  995MOL0     H31295   2.042   4.536  10.503  4.5313 -2.0256 -2.0817
  995MOL0     H31296   1.858   4.591  10.300  1.6098  2.0370 -1.9425
  995MOL0     H31297   1.898   4.749  10.340  0.4981 -0.5402 -0.5387
  995MOL0     H31298   1.791   4.553  10.533  1.9940  0.0592 -0.2133
  995MOL0     H31299   1.819   4.728  10.566  2.7481  1.8633 -1.7238
  995MOL0     H31300   1.635   4.608  10.360  6.3291 -1.8491 -0.2958
  995MOL0     H31301   1.646   4.785  10.401  0.5239 -0.7976 -0.1822
  995MOL0     H31302   1.425   4.810  10.362  0.8240 -0.6420  0.1933
  995MOL0     H31303   1.212   4.912  10.416  1.8713  0.6692 -0.0714
  995MOL0     H31304   0.816   4.801  10.577 -0.7549  0.6413  1.7695
  995MOL0     H31305   0.583   4.838  10.553 -0.0629  0.0749 -1.2445
  995MOL0     H31306   0.451   5.060  10.732 -2.1764  1.3999  1.5513
  995MOL0     H31307   0.391   4.931  10.623 -3.4175  0.7156 -3.6532
  995MOL0     H31308   0.229   5.124  10.528  1.7384  0.9607 -0.1552
  995MOL0     H31309   0.278   5.214  10.673  0.3721 -0.9081  1.2027
  995MOL0     H31310   0.214   5.025  10.831 -0.5583 -2.2519 -0.0979
  995MOL0     H31311   0.151   4.935  10.695 -3.3405  0.4476 -0.0239
  995MOL0     H31312   0.064   5.216  10.803 -0.3477  0.3844  0.0331
  995MOL0     H31313   0.023   5.152  10.647 -0.3210  0.4872  0.0340
  995MOL0     H31314  -0.031   5.056  10.917  2.9180  1.7407 -0.7290
  995MOL0     H31315  -0.074   4.951  10.785  4.3518 -0.4691  2.0943
  995MOL0     H31316  -0.224   5.158  10.706  0.7030  0.7419  0.6170
  995MOL0     H31317  -0.172   5.229  10.858  2.9822 -2.1209  2.1393
  995MOL0     H31318  -0.325   4.966  10.847  0.9104  0.5035 -1.5721
  995MOL0     H31319  -0.295   5.060  10.988 -1.3558 -2.3632  0.3099
  995MOL0     H31320  -0.440   5.254  10.866  0.4351 -0.5780  5.0825
  995MOL0     H31321  -0.532   5.114  10.902  1.8237 -1.8502  1.6234
  995MOL0     H31322   0.662   5.267  10.494 -1.6315 -0.2896 -0.3353
  995MOL0     H31323   0.922   5.196  10.490  0.4840  0.8135  0.4557
  995MOL0     H31324   1.209   4.742  10.814 -1.0649 -1.0186 -0.7427
  995MOL0     H31325   1.436   4.643  10.763  1.5130  0.5695 -0.6846
  995MOL0     H31326   3.133   5.342   9.568  0.3198  0.2130 -0.2807
  995MOL0     H31327   3.268   5.536   9.560 -1.4693  0.8682  0.6834
  995MOL0     H31328   3.358   6.059   9.691  0.7696  0.9317 -4.1609
  995MOL0     H31329   3.559   6.193   9.655  0.0749 -0.2537 -0.0300
  995MOL0     H31330   3.922   5.998   9.538 -0.3967  1.5544 -1.6219
  995MOL0     H31331   3.974   5.988   9.705 -5.3409 -1.6504  1.2318
  995MOL0     H31332   4.110   6.129   9.510  0.1685  2.9349 -3.4331
  995MOL0     H31333   3.980   6.237   9.504  0.8819 -2.1608 -2.9208
  995MOL0     H31334   4.173   6.191   9.731  1.2668  1.1446 -1.6136
  995MOL0     H31335   4.022   6.259   9.776  2.2090 -0.4993  2.1240
  995MOL0     H31336   4.075   6.443   9.595  0.9386 -0.8396  0.0715
  995MOL0     H31337   4.168   6.443   9.734 -1.7516 -1.7410  1.3511
  995MOL0     H31338   4.447   6.333   9.416 -0.5139  1.5432 -0.2208
  995MOL0     H31339   3.810   5.860   9.758 -0.8642 -0.8582  2.1933
  995MOL0     H31340   3.628   5.725   9.778  0.6423  0.0016 -2.6793
  996MOL0     O31341   7.783   1.870   7.102  0.2443  0.5585  0.8282
  996MOL0     C31342   7.828   1.933   7.005  0.0117 -0.2859 -0.1582
  996MOL0     O31343   7.760   2.012   6.916  0.3525  0.7309 -0.4229
  996MOL0     C31344   7.625   2.003   6.902  0.0702  0.0612 -0.1546
  996MOL0     C31345   7.529   1.947   6.995  0.4918 -0.3481  0.8915
  996MOL0     C31346   7.390   1.947   6.976  0.4313 -0.8902  0.1420
  996MOL0     C31347   7.339   2.004   6.861  0.4877 -0.9499 -0.0128
  996MOL0     O31348   7.209   1.993   6.842 -0.2266  0.2656  0.1046
  996MOL0     C31349   7.164   2.016   6.707 -0.4832  0.1034 -0.1129
  996MOL0     C31350   7.027   1.960   6.684  0.9365  0.0606 -0.1052
  996MOL0     C31351   7.032   1.810   6.707  0.6580  0.1326 -0.1812
  996MOL0     C31352   6.919   1.727   6.642 -0.3228 -0.6418 -0.7695
  996MOL0     C31353   6.899   1.596   6.712 -0.8666 -0.1748 -0.9574
  996MOL0     C31354   6.812   1.488   6.652 -0.1943  0.1041 -0.6388
  996MOL0     C31355   6.670   1.532   6.689  0.0241 -0.1251 -0.2473
  996MOL0     C31356   6.562   1.440   6.627 -0.0040  0.5405  0.2540
  996MOL0     N31357   6.428   1.498   6.638  0.5365  0.5596 -0.3816
  996MOL0     C31358   6.364   1.575   6.539  0.2989  0.5593  0.4247
  996MOL0     C31359   6.233   1.605   6.588 -0.5877 -0.4489  0.1939
  996MOL0     C31360   6.157   1.709   6.509  0.3137  0.0595  0.8897
  996MOL0     C31361   6.027   1.652   6.458 -0.8441  0.1450  0.3901
  996MOL0     C31362   5.964   1.752   6.347 -0.1473  0.6313 -0.3978
  996MOL0     C31363   5.850   1.675   6.275  1.0339  0.7839  0.8437
  996MOL0     O31364   5.805   1.746   6.163  0.4359 -0.7381  0.9710
  996MOL0     C31365   5.695   1.688   6.102 -0.0027 -0.6694  0.7989
  996MOL0     C31366   5.721   1.571   6.034  0.6941 -0.3066 -0.6799
  996MOL0     C31367   5.620   1.512   5.957 -0.2718  0.2056 -0.3216
  996MOL0     C31368   5.492   1.565   5.954  0.2040  0.1195  1.0860
  996MOL0     C31369   5.392   1.510   5.858  0.4050  0.5817  0.3526
  996MOL0     O31370   5.423   1.389   5.799  0.0784  0.1057 -0.3226
  996MOL0     C31371   5.339   1.322   5.717 -0.0943 -1.0791 -0.2248
  996MOL0     C31372   5.293   1.369   5.589  0.4802 -0.3736 -0.9451
  996MOL0     C31373   5.201   1.280   5.516 -0.2753 -0.9015  0.3303
  996MOL0     C31374   5.170   1.155   5.566  0.2488  0.6777 -0.9073
  996MOL0     O31375   5.082   1.066   5.511  0.1295  0.1740  0.2479
  996MOL0     C31376   4.987   1.109   5.412 -0.6289 -0.9921 -0.3251
  996MOL0     C31377   4.909   0.980   5.364 -0.2763 -0.3847 -0.3414
  996MOL0     C31378   4.794   0.938   5.455 -0.5673 -0.0795  0.0011
  996MOL0     C31379   4.710   0.835   5.393 -0.1689 -0.2681  0.0512
  996MOL0     C31380   4.567   0.818   5.464 -0.5724 -1.1986  0.8324
  996MOL0     C31381   4.576   0.727   5.579 -0.7426 -0.5186 -0.4164
  996MOL0     C31382   4.445   0.708   5.660  0.3797  0.2772 -0.1576
  996MOL0     C31383   4.468   0.605   5.769  0.2469 -0.5229 -0.1847
  996MOL0    Cl31384   4.326   0.493   5.801 -0.0235  0.0983  0.1479
  996MOL0     C31385   5.238   1.107   5.678  0.9477 -0.3919  0.4270
  996MOL0     C31386   5.319   1.191   5.750 -0.3503 -0.4179 -0.1023
  996MOL0     O31387   5.289   1.574   5.830  0.0240 -0.3782 -0.2186
  996MOL0     C31388   5.466   1.679   6.037  1.1460 -0.0637  0.0929
  996MOL0     C31389   5.567   1.740   6.109 -0.1752 -0.7104  0.4791
  996MOL0     N31390   6.215   1.538   6.712  0.3006  0.0489  0.1637
  996MOL0     N31391   6.328   1.472   6.732 -0.3746 -0.1620 -1.0395
  996MOL0     C31392   7.424   2.064   6.776  0.5526  0.1954  0.2137
  996MOL0     C31393   7.559   2.069   6.797  0.2684 -0.3793 -0.6661
  996MOL0     C31394   7.971   1.912   6.977 -0.2142  0.1235  0.3442
  996MOL0     C31395   8.030   1.799   7.045  0.7346 -0.1327 -0.2840
  996MOL0     C31396   8.163   1.769   7.022  0.2374  0.1906 -0.1596
  996MOL0     C31397   8.245   1.842   6.942 -0.6846 -0.2657 -0.0931
  996MOL0     O31398   8.377   1.803   6.915  0.5463  0.7790  0.6751
  996MOL0     C31399   8.393   1.714   6.802  0.2357  0.6438  0.0215
  996MOL0     C31400   8.389   1.789   6.673 -0.0927  0.7403 -0.0821
  996MOL0     C31401   8.402   1.700   6.551 -0.9427  0.6984  0.4161
  996MOL0     C31402   8.336   1.758   6.423  0.1204 -0.0396  0.8745
  996MOL0     C31403   8.399   1.889   6.402 -0.7695 -0.2705  0.3539
  996MOL0     C31404   8.456   1.998   6.402  0.8471  0.4513  0.4780
  996MOL0     C31405   8.191   1.965   6.886  0.0652 -0.0399 -0.9750
  996MOL0     C31406   8.054   1.991   6.898 -0.6916 -0.1219  0.5600
  996MOL0     H31407   7.552   1.897   7.088 -2.2032  0.0281  1.8587
  996MOL0     H31408   7.315   1.907   7.045 -1.2791  2.3017  0.3112
  996MOL0     H31409   7.238   1.985   6.632 -1.5249  2.3051 -2.1758
  996MOL0     H31410   7.150   2.124   6.703 -0.6805  0.1927  1.8156
  996MOL0     H31411   6.995   1.970   6.580 -0.2096 -1.6249  0.0554
  996MOL0     H31412   6.956   2.011   6.750  2.9790  0.9562  1.5217
  996MOL0     H31413   7.048   1.795   6.815 -0.0654 -1.3569 -0.2675
  996MOL0     H31414   7.124   1.772   6.661  1.2234 -0.6528  1.4968
  996MOL0     H31415   6.837   1.797   6.660  0.0816 -0.0162 -1.3081
  996MOL0     H31416   6.928   1.715   6.534 -0.4936 -0.3426 -0.8184
  996MOL0     H31417   6.875   1.630   6.814  1.6268  5.2692 -1.8192
  996MOL0     H31418   7.003   1.565   6.725 -0.1011  2.4020 -0.2992
  996MOL0     H31419   6.832   1.393   6.701 -1.1646  1.1802  2.0375
  996MOL0     H31420   6.836   1.488   6.545  2.1430 -2.0920 -0.1995
  996MOL0     H31421   6.660   1.532   6.798  0.1894 -2.1069 -0.1829
  996MOL0     H31422   6.650   1.631   6.648 -3.8815 -1.1655 -1.1909
  996MOL0     H31423   6.566   1.344   6.679 -0.4012  1.0953  1.3514
  996MOL0     H31424   6.590   1.430   6.522 -1.2029 -2.5930  0.1479
  996MOL0     H31425   6.420   1.608   6.452  0.1039 -1.7822 -0.6663
  996MOL0     H31426   6.218   1.741   6.424 -0.4423 -2.7121 -0.8535
  996MOL0     H31427   6.130   1.796   6.569 -0.7385  0.9065 -0.7421
  996MOL0     H31428   5.963   1.625   6.543  0.1805  2.3616  1.9838
  996MOL0     H31429   6.055   1.554   6.419  0.9972 -0.0980  2.1748
  996MOL0     H31430   5.943   1.852   6.387 -0.4292  0.2865  0.3263
  996MOL0     H31431   6.049   1.765   6.280  1.6777 -2.2077  1.1723
  996MOL0     H31432   5.772   1.650   6.347 -0.7760  0.2513 -1.1641
  996MOL0     H31433   5.889   1.581   6.233 -1.2114  0.3049 -0.3530
  996MOL0     H31434   5.824   1.537   6.034  1.1097  0.8819  0.4701
  996MOL0     H31435   5.664   1.434   5.895 -2.9484 -2.5312  0.9998
  996MOL0     H31436   5.332   1.468   5.568  5.3700 -1.1844  2.5550
  996MOL0     H31437   5.162   1.321   5.424 -7.4413  0.0025  3.1054
  996MOL0     H31438   5.039   1.150   5.325  0.7355 -1.9274  0.0067
  996MOL0     H31439   4.920   1.186   5.453 -1.0915 -1.3437 -0.4120
  996MOL0     H31440   4.979   0.900   5.337 -2.9614 -3.1034  0.1738
  996MOL0     H31441   4.855   0.998   5.270 -1.7624 -0.3864  0.4699
  996MOL0     H31442   4.737   1.030   5.472  1.0560  1.3050 -1.6131
  996MOL0     H31443   4.832   0.897   5.549  3.0135  1.0450 -0.7957
  996MOL0     H31444   4.692   0.852   5.287  4.1486 -1.2434 -1.0437
  996MOL0     H31445   4.757   0.736   5.404 -0.1674 -0.0482  2.5143
  996MOL0     H31446   4.500   0.774   5.390 -0.4679  0.2266 -0.1421
  996MOL0     H31447   4.529   0.914   5.499  0.7325 -0.5671  0.5654
  996MOL0     H31448   4.652   0.767   5.648 -1.6658  0.1533  0.2330
  996MOL0     H31449   4.609   0.630   5.541  2.1586 -0.0535  0.6154
  996MOL0     H31450   4.420   0.808   5.697  0.1472  2.0072 -4.3921
  996MOL0     H31451   4.361   0.681   5.595 -0.6439  1.0476  0.8221
  996MOL0     H31452   4.496   0.668   5.854  0.6567 -1.5446  0.4475
  996MOL0     H31453   4.544   0.534   5.734  1.8145  0.1412  1.7104
  996MOL0     H31454   5.209   1.008   5.715 -0.6163 -0.3036 -0.4570
  996MOL0     H31455   5.372   1.147   5.834 -0.2386 -2.2459 -1.0866
  996MOL0     H31456   5.378   1.736   6.011  1.2623 -0.3600 -1.0337
  996MOL0     H31457   5.542   1.828   6.168  0.9138 -0.3414  0.4091
  996MOL0     H31458   7.383   2.116   6.690 -0.9898 -0.6484  0.4034
  996MOL0     H31459   7.621   2.126   6.728 -0.5596  3.0645  1.2228
  996MOL0     H31460   7.972   1.729   7.104 -0.0522 -0.4125 -1.3735
  996MOL0     H31461   8.210   1.683   7.068 -2.8062 -1.5832 -0.1300
  996MOL0     H31462   8.314   1.640   6.792  0.9177  0.1821 -3.0143
  996MOL0     H31463   8.486   1.661   6.821 -0.1350  0.8342  2.7125
  996MOL0     H31464   8.301   1.854   6.664  1.0001  2.2549 -0.2487
  996MOL0     H31465   8.476   1.855   6.663  1.0806 -1.0003 -2.0200
  996MOL0     H31466   8.377   1.596   6.575  4.4471 -1.1259 -0.5710
  996MOL0     H31467   8.509   1.695   6.528 -0.7727 -1.8480  1.4893
  996MOL0     H31468   8.359   1.690   6.341 -0.8741  1.3691 -0.6221
  996MOL0     H31469   8.229   1.777   6.439 -0.0955 -0.8892  0.5138
  996MOL0     H31470   8.487   2.100   6.412 -2.5898  1.8114 -1.2818
  996MOL0     H31471   8.252   2.039   6.837 -1.0824  2.2017  0.8017
  996MOL0     H31472   8.021   2.085   6.854  0.4665  0.9288  1.8519
  997MOL0     O31473   3.503   4.158   2.774  0.8322  0.2159  0.6758
  997MOL0     C31474   3.475   4.268   2.812  0.1116 -0.1741 -0.2179
  997MOL0     O31475   3.349   4.325   2.831  0.5734  0.2835  0.2884
  997MOL0     C31476   3.229   4.256   2.806 -0.4170  0.6542  0.1313
  997MOL0     C31477   3.212   4.119   2.785  0.7081 -0.0132  0.0770
  997MOL0     C31478   3.086   4.069   2.758  0.0444  0.4383 -0.0040
  997MOL0     C31479   2.966   4.146   2.762  0.3668 -0.3328  1.5200
  997MOL0     O31480   2.850   4.088   2.723 -0.1217  0.3838 -0.2812
  997MOL0     C31481   2.730   4.160   2.765  0.1209 -0.5705  0.2699
  997MOL0     C31482   2.608   4.080   2.727 -0.0916  0.0809  0.4419
  997MOL0     C31483   2.591   3.958   2.818  1.3223 -0.2965 -0.8576
  997MOL0     C31484   2.459   3.874   2.795  0.9200 -0.3877  0.4320
  997MOL0     C31485   2.342   3.962   2.859  0.0740  0.3615 -0.0288
  997MOL0     C31486   2.203   3.890   2.858  0.7223  0.3976  0.0404
  997MOL0     C31487   2.106   3.992   2.916 -1.2782  0.4949  0.2088
  997MOL0     C31488   1.962   3.954   2.880  0.0567 -1.1963  0.4826
  997MOL0     N31489   1.862   4.051   2.900  0.3137  0.5260 -0.0104
  997MOL0     C31490   1.736   4.034   2.846 -0.1343 -0.2441  0.4698
  997MOL0     C31491   1.664   4.144   2.883  0.2740 -0.3865  0.4740
  997MOL0     C31492   1.520   4.173   2.836 -0.1469 -0.3659 -0.3477
  997MOL0     C31493   1.418   4.183   2.948 -0.6218  0.3170  0.1572
  997MOL0     C31494   1.292   4.252   2.903 -0.3132 -0.3876  0.1531
  997MOL0     C31495   1.184   4.247   3.010  0.1780  0.7032  0.4096
  997MOL0     O31496   1.075   4.154   2.980 -0.4268 -0.4416  0.5693
  997MOL0     C31497   0.946   4.174   3.031 -0.9574 -0.1779  0.4699
  997MOL0     C31498   0.843   4.092   2.978  0.0103  0.2746 -0.9378
  997MOL0     C31499   0.711   4.122   3.013  0.9604 -0.2152 -0.3049
  997MOL0     C31500   0.682   4.226   3.109 -0.0048 -0.9103 -0.0640
  997MOL0     C31501   0.548   4.256   3.151 -0.1987 -0.9886 -0.8256
  997MOL0     O31502   0.464   4.156   3.148  0.1936  0.4314 -0.4643
  997MOL0     C31503   0.330   4.187   3.167  0.4620  0.1362  0.2213
  997MOL0     C31504   0.254   4.209   3.053  0.1097  0.6492 -0.5131
  997MOL0     C31505   0.117   4.235   3.069  0.0831  0.1639  0.0452
  997MOL0     C31506   0.055   4.242   3.193  0.3283 -0.7539 -1.1696
  997MOL0     O31507  -0.084   4.250   3.191  0.2402 -0.2657  0.1988
  997MOL0     C31508  -0.160   4.236   3.315  0.1274 -0.4918  0.2463
  997MOL0     C31509  -0.149   4.090   3.361 -0.0706  0.2778  0.5033
  997MOL0     C31510  -0.289   4.025   3.391 -0.2832 -0.3653  0.9880
  997MOL0     C31511  -0.360   3.999   3.249  0.7845 -0.2488 -0.6621
  997MOL0     C31512  -0.511   4.021   3.260 -0.2391 -0.8258 -0.0074
  997MOL0     C31513  -0.567   3.883   3.314  0.9516 -0.3696 -0.4478
  997MOL0     C31514  -0.717   3.892   3.319 -0.0861  0.2544  0.8773
  997MOL0     C31515  -0.780   3.968   3.443  0.5151  0.0432  0.0436
  997MOL0    Cl31516  -0.960   3.981   3.401  0.2604  0.1402  0.1352
  997MOL0     C31517   0.135   4.217   3.311  0.1894  0.9050 -0.0134
  997MOL0     C31518   0.269   4.186   3.293  0.8720 -0.3038 -0.0217
  997MOL0     O31519   0.518   4.376   3.173  0.1291  0.5580 -0.1467
  997MOL0     C31520   0.796   4.302   3.159 -0.1081 -0.3722 -0.4715
  997MOL0     C31521   0.920   4.274   3.124  0.2470  0.5623 -0.5199
  997MOL0     N31522   1.752   4.215   2.961 -0.1854  0.0382  1.1769
  997MOL0     N31523   1.869   4.165   2.962 -1.0153 -0.3270  0.0146
  997MOL0     C31524   2.982   4.280   2.802  0.1462  0.5231  0.2933
  997MOL0     C31525   3.113   4.324   2.832 -0.6449 -0.7621 -0.1919
  997MOL0     C31526   3.580   4.361   2.852 -0.4415  0.3959  0.3744
  997MOL0     C31527   3.705   4.314   2.868 -0.2635  0.2079  0.5246
  997MOL0     C31528   3.811   4.400   2.896 -0.2871 -0.8289 -1.1398
  997MOL0     C31529   3.785   4.548   2.922 -0.9013  0.5345  0.5928
  997MOL0     O31530   3.877   4.649   2.920  0.1005 -0.1298 -0.2954
  997MOL0     C31531   4.022   4.608   2.907  1.0103  0.3387 -0.2073
  997MOL0     C31532   4.101   4.733   2.944 -0.1927 -0.0416  0.1406
  997MOL0     C31533   4.074   4.790   3.085  0.3156 -0.2526  0.4365
  997MOL0     C31534   4.096   4.686   3.202 -0.6104  0.1265 -0.4059
  997MOL0     C31535   4.237   4.703   3.242 -0.4100  0.2045  0.3867
  997MOL0     C31536   4.355   4.719   3.258 -0.0791 -0.3832  0.8940
  997MOL0     C31537   3.655   4.585   2.923 -1.1177 -0.4858  0.4051
  997MOL0     C31538   3.556   4.497   2.887 -0.7188  1.1844  0.2862
  997MOL0     H31539   3.290   4.044   2.774 -0.0146 -0.5935 -1.4860
  997MOL0     H31540   3.076   3.965   2.730 -3.2819 -0.2098  2.9221
  997MOL0     H31541   2.718   4.260   2.721 -1.8104 -0.7034  0.4135
  997MOL0     H31542   2.731   4.178   2.873  0.8545 -1.3611  0.4125
  997MOL0     H31543   2.607   4.047   2.623 -0.7216  3.0173 -0.5545
  997MOL0     H31544   2.525   4.150   2.736  0.9024  1.3223  0.1214
  997MOL0     H31545   2.584   3.999   2.919  1.0351  3.8048 -2.3446
  997MOL0     H31546   2.673   3.888   2.802 -0.0466 -2.3485  0.5946
  997MOL0     H31547   2.434   3.865   2.689 -2.5441  1.2981  0.9695
  997MOL0     H31548   2.456   3.778   2.847  0.3990 -0.4145  0.3563
  997MOL0     H31549   2.333   4.062   2.816  0.3054 -0.5967 -2.4682
  997MOL0     H31550   2.377   3.973   2.962 -2.1558 -1.1535  0.9744
  997MOL0     H31551   2.214   3.810   2.932 -0.5537  1.5123  1.5108
  997MOL0     H31552   2.170   3.852   2.761 -1.8516  0.8615  0.6405
  997MOL0     H31553   2.110   3.994   3.025 -0.3354  2.0393  0.1765
  997MOL0     H31554   2.120   4.092   2.874 -1.9425  1.1027  1.3786
  997MOL0     H31555   1.930   3.866   2.938 -1.7157 -1.2236 -0.4684
  997MOL0     H31556   1.958   3.918   2.777  1.5696  0.5994 -0.2678
  997MOL0     H31557   1.697   3.949   2.792 -1.9273  0.0965  1.1545
  997MOL0     H31558   1.481   4.108   2.758  0.2905  1.0673 -1.8141
  997MOL0     H31559   1.533   4.272   2.790 -1.7684  0.1551  0.2263
  997MOL0     H31560   1.463   4.236   3.033  0.1480 -1.5217  0.9609
  997MOL0     H31561   1.401   4.085   2.995  1.1251  0.3646  0.9804
  997MOL0     H31562   1.336   4.350   2.880  0.0566 -0.9998 -1.9312
  997MOL0     H31563   1.244   4.220   2.810 -1.1280 -0.4989  0.6052
  997MOL0     H31564   1.149   4.350   3.007 -1.8229  0.0594 -0.2057
  997MOL0     H31565   1.229   4.227   3.107 -0.5786 -1.0941  0.4314
  997MOL0     H31566   0.869   4.013   2.909  0.9546 -0.7727  0.5593
  997MOL0     H31567   0.637   4.072   2.951  1.1841  0.7063 -1.3423
  997MOL0     H31568   0.298   4.198   2.955 -0.7749 -0.0367 -0.8542
  997MOL0     H31569   0.051   4.245   2.983  1.1597 -2.3474 -1.1570
  997MOL0     H31570  -0.263   4.264   3.293  0.0668 -0.8186  0.1165
  997MOL0     H31571  -0.128   4.309   3.390  1.0331  1.5360 -1.9548
  997MOL0     H31572  -0.107   4.094   3.462 -0.2571 -0.3017  0.6050
  997MOL0     H31573  -0.095   4.016   3.301  0.7483  0.9601  0.3882
  997MOL0     H31574  -0.348   4.088   3.458  0.7652 -0.2925  1.8723
  997MOL0     H31575  -0.285   3.925   3.435  0.0086 -0.4519  0.7711
  997MOL0     H31576  -0.324   4.063   3.167  0.2111  0.2485 -0.5377
  997MOL0     H31577  -0.332   3.896   3.224 -0.8428 -0.5793 -1.2298
  997MOL0     H31578  -0.545   4.040   3.158  0.9294 -0.6301 -0.3729
  997MOL0     H31579  -0.531   4.117   3.309  2.1667  1.2058 -2.6953
  997MOL0     H31580  -0.518   3.874   3.412 -0.0444  0.5991  0.1623
  997MOL0     H31581  -0.542   3.795   3.254 -1.3355 -1.5320  0.1624
  997MOL0     H31582  -0.754   3.934   3.225  2.2576 -2.2038 -1.2703
  997MOL0     H31583  -0.750   3.788   3.326  0.2703  0.0188 -0.6636
  997MOL0     H31584  -0.727   4.064   3.440  2.6304 -0.9765  1.4579
  997MOL0     H31585  -0.755   3.913   3.535  3.2295 -0.7716 -1.0891
  997MOL0     H31586   0.090   4.237   3.408  0.8884 -0.9146  0.7241
  997MOL0     H31587   0.320   4.160   3.385  0.6886  0.6258  0.3504
  997MOL0     H31588   0.785   4.376   3.237  0.9104 -0.6050 -0.0934
  997MOL0     H31589   1.001   4.319   3.182 -0.7431  1.4056  0.2514
  997MOL0     H31590   2.888   4.332   2.818 -1.1343 -1.9999  1.5937
  997MOL0     H31591   3.124   4.421   2.879 -1.1692 -1.6503  1.8938
  997MOL0     H31592   3.734   4.211   2.847 -3.5511 -0.5866 -0.7375
  997MOL0     H31593   3.915   4.376   2.875 -0.2274  0.0008 -1.8476
  997MOL0     H31594   4.046   4.562   2.811  0.1754 -1.3790  0.3636
  997MOL0     H31595   4.046   4.532   2.982  1.2508  0.2138 -0.4117
  997MOL0     H31596   4.209   4.718   2.943 -0.1648  0.1513  0.0984
  997MOL0     H31597   4.079   4.812   2.870  1.9792  0.4478 -0.0550
  997MOL0     H31598   3.966   4.808   3.080 -0.3435 -3.6207 -4.1905
  997MOL0     H31599   4.114   4.890   3.105 -2.4412  1.2676 -1.0041
  997MOL0     H31600   4.036   4.707   3.291  0.3254 -0.1636  0.2990
  997MOL0     H31601   4.065   4.585   3.172 -3.0212  0.3643  1.0171
  997MOL0     H31602   4.455   4.749   3.281 -0.4211 -0.5830  2.8919
  997MOL0     H31603   3.635   4.685   2.959 -0.3473 -0.5301  0.9805
  997MOL0     H31604   3.456   4.541   2.888 -0.5491  2.0028 -3.3652
  998MOL0     O31605   5.764  10.059   4.767 -0.3681  1.5094  0.7428
  998MOL0     C31606   5.779  10.067   4.891 -0.3269 -0.3255  0.2284
  998MOL0     O31607   5.693  10.026   4.985 -0.1048 -0.2577  0.0169
  998MOL0     C31608   5.568   9.973   4.955 -0.2626  0.0951  1.6039
  998MOL0     C31609   5.541   9.842   4.997  0.0723  0.8385 -0.0168
  998MOL0     C31610   5.412   9.798   4.999  0.7369 -0.0600  0.1521
  998MOL0     C31611   5.308   9.879   4.966 -1.0237  0.5163  0.6606
  998MOL0     O31612   5.176   9.840   4.981  0.3716  0.1628  0.3384
  998MOL0     C31613   5.115   9.800   4.864  0.2271  0.4483 -0.1557
  998MOL0     C31614   4.988   9.721   4.907 -0.3630  0.5466 -0.4367
  998MOL0     C31615   4.888   9.810   4.966  0.6349 -0.9148 -0.3386
  998MOL0     C31616   4.735   9.756   4.994  0.0672 -0.5450  0.0538
  998MOL0     C31617   4.681   9.669   4.881 -0.4159 -0.0783 -0.3152
  998MOL0     C31618   4.530   9.631   4.901  0.1318  0.3190  1.3982
  998MOL0     C31619   4.485   9.537   4.787 -0.3232 -0.5207  0.0874
  998MOL0     C31620   4.344   9.496   4.829 -0.3356 -0.1448  0.5958
  998MOL0     N31621   4.283   9.411   4.730 -0.4297  0.6808  0.3805
  998MOL0     C31622   4.340   9.306   4.661 -0.5313 -0.8211 -0.0559
  998MOL0     C31623   4.240   9.258   4.574  0.2819 -0.4135 -0.2873
  998MOL0     C31624   4.251   9.153   4.467  0.1823  0.1383  0.0356
  998MOL0     C31625   4.111   9.095   4.427 -0.2934  0.4040 -0.5641
  998MOL0     C31626   4.025   9.006   4.528 -0.5096 -0.3409  0.6353
  998MOL0     C31627   4.105   8.891   4.603  0.5557 -0.5210  0.2511
  998MOL0     O31628   4.031   8.856   4.721 -0.6106 -0.1691 -0.3526
  998MOL0     C31629   3.899   8.818   4.718 -0.1096  0.1944 -0.2176
  998MOL0     C31630   3.829   8.822   4.843  0.0646  0.0662  0.4961
  998MOL0     C31631   3.705   8.761   4.854 -0.2833  0.5001 -0.4916
  998MOL0     C31632   3.625   8.710   4.746  0.1393 -0.4335 -0.8355
  998MOL0     C31633   3.486   8.664   4.763  0.4441 -1.0690  0.2078
  998MOL0     O31634   3.413   8.614   4.654  0.1358 -0.0326 -0.3424
  998MOL0     C31635   3.293   8.545   4.676 -0.4800  0.1637  0.1953
  998MOL0     C31636   3.255   8.467   4.566 -0.6150  0.4406 -0.0138
  998MOL0     C31637   3.133   8.404   4.551  0.0717  0.5891 -0.4557
  998MOL0     C31638   3.044   8.416   4.655  0.4602 -0.2816  0.6570
  998MOL0     O31639   2.926   8.352   4.661  0.2901  0.3935  0.5925
  998MOL0     C31640   2.888   8.251   4.565  1.4866  0.3206  0.5205
  998MOL0     C31641   2.760   8.210   4.616  0.2649  0.0636 -0.2903
  998MOL0     C31642   2.642   8.310   4.631  0.0001 -0.2106 -0.0164
  998MOL0     C31643   2.581   8.351   4.495 -0.5440 -0.6987 -0.3428
  998MOL0     C31644   2.437   8.403   4.512  0.4793  0.1932 -0.2626
  998MOL0     C31645   2.375   8.453   4.391  0.5825 -0.9502  0.0247
  998MOL0     C31646   2.224   8.490   4.388 -0.3950 -0.1423  0.1572
  998MOL0     C31647   2.140   8.359   4.382 -0.0915  0.2144  0.7885
  998MOL0    Cl31648   2.147   8.319   4.202  0.1158 -0.3149 -0.4637
  998MOL0     C31649   3.069   8.496   4.765  0.0405  0.9132 -0.1204
  998MOL0     C31650   3.193   8.573   4.771  0.3231 -0.0543  0.8691
  998MOL0     O31651   3.440   8.669   4.877 -0.3140  0.4292 -0.2528
  998MOL0     C31652   3.691   8.717   4.621  0.3873 -0.2649 -1.2160
  998MOL0     C31653   3.824   8.762   4.610  0.4725 -0.0029  0.2698
  998MOL0     N31654   4.129   9.331   4.602  0.4732 -0.0894 -0.7774
  998MOL0     N31655   4.153   9.430   4.690 -0.6126 -0.3115 -0.9450
  998MOL0     C31656   5.331  10.008   4.913  0.5653 -0.2767 -0.3748
  998MOL0     C31657   5.464  10.058   4.914  0.8044  0.1538  0.1642
  998MOL0     C31658   5.907  10.132   4.936  0.4810  0.1814 -0.3507
  998MOL0     C31659   5.997  10.184   4.849  0.3962  0.6164  0.5498
  998MOL0     C31660   6.119  10.234   4.899  0.5275 -0.3811  1.4258
  998MOL0     C31661   6.154  10.223   5.033 -0.1044  0.3497 -0.4331
  998MOL0     O31662   6.283  10.249   5.080 -0.0644 -0.0855  0.0427
  998MOL0     C31663   6.390  10.245   4.988  0.0453 -0.1958 -0.3061
  998MOL0     C31664   6.515  10.314   5.049 -0.0552  0.4971  0.2801
  998MOL0     C31665   6.568  10.226   5.172 -0.3588 -0.2896 -0.4120
  998MOL0     C31666   6.666  10.121   5.132 -1.0248 -0.1048 -0.9776
  998MOL0     C31667   6.594   9.997   5.098  0.1873  0.0625  0.3720
  998MOL0     C31668   6.534   9.905   5.051  0.2146 -0.6592 -0.5052
  998MOL0     C31669   6.051  10.181   5.122 -0.5347  0.5529 -0.8704
  998MOL0     C31670   5.927  10.136   5.074 -0.2914 -0.5370  0.1784
  998MOL0     H31671   5.608   9.761   5.023 -1.6110 -0.1906  1.3564
  998MOL0     H31672   5.409   9.692   5.025  0.1174  0.2854  1.5827
  998MOL0     H31673   5.184   9.742   4.802  0.0438  1.0474 -0.9429
  998MOL0     H31674   5.085   9.876   4.791 -2.8987  0.0293  0.5492
  998MOL0     H31675   5.009   9.642   4.979  1.6545  1.5915  0.2070
  998MOL0     H31676   4.945   9.683   4.814 -4.0667  0.8600  0.9718
  998MOL0     H31677   4.886   9.895   4.897  2.5908 -1.0866 -0.6614
  998MOL0     H31678   4.920   9.845   5.065  0.5388  0.3461 -0.7372
  998MOL0     H31679   4.753   9.694   5.082 -0.8911 -1.2267 -0.2218
  998MOL0     H31680   4.662   9.834   5.014 -2.4646 -2.9663  0.8607
  998MOL0     H31681   4.752   9.586   4.882  0.3324  0.5399 -0.2023
  998MOL0     H31682   4.695   9.726   4.789 -1.2547  0.7806  0.0743
  998MOL0     H31683   4.463   9.717   4.895 -1.3566 -0.7755  1.6895
  998MOL0     H31684   4.521   9.586   5.000  0.0219  1.3206  1.8530
  998MOL0     H31685   4.486   9.588   4.690  1.6777 -2.8667 -1.2330
  998MOL0     H31686   4.549   9.449   4.774  0.2505  0.1046 -1.5659
  998MOL0     H31687   4.291   9.590   4.844 -0.3097 -0.0872  0.3237
  998MOL0     H31688   4.336   9.441   4.924 -0.3598 -1.6335 -0.2309
  998MOL0     H31689   4.443   9.270   4.663 -0.3937 -0.4776 -0.7497
  998MOL0     H31690   4.315   9.069   4.495  0.2805 -0.4339 -1.7730
  998MOL0     H31691   4.303   9.193   4.380 -1.2787 -0.8229 -1.3260
  998MOL0     H31692   4.122   9.039   4.334  3.4464 -3.1064  1.6961
  998MOL0     H31693   4.045   9.177   4.397 -2.0076 -0.6046  0.2892
  998MOL0     H31694   3.991   9.079   4.602 -1.8620 -2.9027  2.6872
  998MOL0     H31695   3.941   8.971   4.468  0.0836  2.1278 -1.8658
  998MOL0     H31696   4.205   8.928   4.628 -0.8784  2.0830  2.7256
  998MOL0     H31697   4.115   8.799   4.545 -0.4177 -0.6906  0.3355
  998MOL0     H31698   3.876   8.845   4.938 -2.1703 -2.0487  2.2609
  998MOL0     H31699   3.666   8.746   4.954  2.3973  3.5363  1.2172
  998MOL0     H31700   3.335   8.476   4.493  0.8063  0.6249  1.5065
  998MOL0     H31701   3.093   8.359   4.460 -0.4823 -1.7721  0.8799
  998MOL0     H31702   2.953   8.165   4.547  0.8729 -0.0363 -0.0312
  998MOL0     H31703   2.875   8.298   4.467  2.8152  0.6403  0.4760
  998MOL0     H31704   2.773   8.172   4.718  0.7883 -2.7170 -1.3183
  998MOL0     H31705   2.722   8.128   4.554 -2.8301  1.1126  0.0473
  998MOL0     H31706   2.675   8.394   4.692 -0.0679  1.1386 -1.7544
  998MOL0     H31707   2.560   8.259   4.682 -0.5112 -1.1253 -1.6589
  998MOL0     H31708   2.640   8.434   4.456 -0.4598 -1.8027 -2.7239
  998MOL0     H31709   2.584   8.269   4.422  2.2461 -0.9116 -0.1078
  998MOL0     H31710   2.434   8.478   4.591  0.1507 -0.3973  0.2876
  998MOL0     H31711   2.377   8.317   4.543  2.3421 -2.5105 -3.4271
  998MOL0     H31712   2.384   8.379   4.312  0.9095  0.3285 -1.1749
  998MOL0     H31713   2.426   8.546   4.362  1.8123 -1.6642 -0.1509
  998MOL0     H31714   2.195   8.545   4.477 -1.5928 -2.1277  1.0700
  998MOL0     H31715   2.202   8.550   4.299 -0.2398 -0.8479 -0.3665
  998MOL0     H31716   2.038   8.365   4.421 -0.9807 -4.0401 -0.3637
  998MOL0     H31717   2.187   8.282   4.443  0.9447 -0.6006 -0.9627
  998MOL0     H31718   2.999   8.502   4.848  1.0164  1.4133  0.6863
  998MOL0     H31719   3.215   8.630   4.861  1.4476 -0.1603  0.6721
  998MOL0     H31720   3.637   8.692   4.530 -1.1492  0.4836 -0.5525
  998MOL0     H31721   3.867   8.755   4.511  0.0749  1.4036 -0.0275
  998MOL0     H31722   5.254  10.077   4.880 -0.0757  1.0733  3.3920
  998MOL0     H31723   5.480  10.157   4.874  1.1663  0.2218  0.4698
  998MOL0     H31724   5.961  10.187   4.747 -2.2958  0.9594  1.4408
  998MOL0     H31725   6.185  10.268   4.820 -0.5159 -0.8020  0.3527
  998MOL0     H31726   6.357  10.284   4.892  0.1707 -3.2847 -1.7305
  998MOL0     H31727   6.407  10.138   4.976  3.8119  0.2541 -0.3125
  998MOL0     H31728   6.593  10.318   4.973 -2.4531 -0.5096 -2.3819
  998MOL0     H31729   6.502  10.420   5.073  1.4478  0.4657  1.4166
  998MOL0     H31730   6.486  10.173   5.222 -0.1887 -0.5518 -0.4102
  998MOL0     H31731   6.607  10.297   5.246 -2.1492 -2.0754  2.4471
  998MOL0     H31732   6.731  10.171   5.060 -1.3049 -0.2719 -1.3502
  998MOL0     H31733   6.724  10.095   5.221  0.7224  1.2469 -1.6521
  998MOL0     H31734   6.481   9.823   5.007  0.3454 -1.4797  0.8065
  998MOL0     H31735   6.067  10.184   5.229  0.3826 -0.2837 -0.9657
  998MOL0     H31736   5.847  10.125   5.147 -0.9865  2.0505 -0.0981
  999MOL0     O31737   5.106   2.529   9.621 -0.3982 -0.7853 -0.0308
  999MOL0     C31738   5.188   2.493   9.542  0.4689  1.0835  0.3921
  999MOL0     O31739   5.149   2.459   9.416 -0.0335 -0.3727 -0.0000
  999MOL0     C31740   5.008   2.452   9.399 -0.1487  0.1502  0.1113
  999MOL0     C31741   4.935   2.557   9.339  0.2256  0.1159 -0.2654
  999MOL0     C31742   4.802   2.544   9.318  0.7627  0.6907 -0.4531
  999MOL0     C31743   4.735   2.430   9.358  0.6381 -0.4435 -0.3972
  999MOL0     O31744   4.598   2.438   9.363 -0.2916  0.1424  0.1583
  999MOL0     C31745   4.529   2.314   9.374 -0.0562 -0.1973 -0.3048
  999MOL0     C31746   4.385   2.363   9.402 -0.5667  0.6046 -0.1966
  999MOL0     C31747   4.274   2.261   9.386  0.4763 -0.1438  0.2723
  999MOL0     C31748   4.140   2.314   9.428  0.0672  1.4880  1.0314
  999MOL0     C31749   4.035   2.206   9.387  0.2102 -0.0936  0.1796
  999MOL0     C31750   4.040   2.098   9.495 -0.1566  0.7982 -0.7517
  999MOL0     C31751   3.905   2.024   9.507 -0.3485 -0.5934  0.9742
  999MOL0     C31752   3.810   2.107   9.593  0.4836  0.4555 -0.5597
  999MOL0     N31753   3.675   2.057   9.634 -0.7126  0.2741  0.2329
  999MOL0     C31754   3.629   2.039   9.764  0.8073 -0.2116 -0.6201
  999MOL0     C31755   3.505   2.002   9.745  1.0203  0.5311  0.3786
  999MOL0     C31756   3.406   2.003   9.852  0.0372  0.4220  0.2526
  999MOL0     C31757   3.256   1.998   9.806  0.7068  0.0204 -0.8042
  999MOL0     C31758   3.204   2.121   9.733 -0.8816  0.9106  0.3342
  999MOL0     C31759   3.065   2.089   9.679  0.3744 -0.1860  0.2324
  999MOL0     O31760   2.968   2.079   9.787  0.3145 -0.5517 -0.1397
  999MOL0     C31761   2.833   2.075   9.758  0.2962 -0.4528 -0.5597
  999MOL0     C31762   2.741   2.045   9.865 -0.9316  0.5606 -0.0290
  999MOL0     C31763   2.603   2.042   9.851 -1.0067  0.3083  0.1055
  999MOL0     C31764   2.551   2.073   9.722  0.9273  0.5871  0.5159
  999MOL0     C31765   2.409   2.048   9.701 -0.4018  0.2820  0.2354
  999MOL0     O31766   2.335   2.010   9.808 -0.2323 -0.2039 -0.7267
  999MOL0     C31767   2.199   1.993   9.813  0.7187 -0.1045 -0.3348
  999MOL0     C31768   2.132   2.003   9.939  0.6721 -0.1650  0.1775
  999MOL0     C31769   1.990   1.971   9.936 -0.0188 -0.6367 -0.5997
  999MOL0     C31770   1.928   1.926   9.827 -0.6575 -0.9280 -0.1039
  999MOL0     O31771   1.792   1.910   9.837  0.4827  0.5683 -0.3858
  999MOL0     C31772   1.715   1.868   9.729 -0.0703  0.5955 -0.4547
  999MOL0     C31773   1.588   1.809   9.784  0.7044 -0.0609 -0.5498
  999MOL0     C31774   1.502   1.755   9.669  0.1948  0.4271 -0.5139
  999MOL0     C31775   1.414   1.640   9.704 -0.3754  0.2001 -0.6304
  999MOL0     C31776   1.315   1.588   9.602 -0.0312 -0.5087 -0.0651
  999MOL0     C31777   1.212   1.499   9.674 -0.3372 -0.1745 -0.1611
  999MOL0     C31778   1.288   1.372   9.737  0.3127  0.1807 -0.3134
  999MOL0     C31779   1.172   1.280   9.794  0.2822 -0.0562 -0.0416
  999MOL0    Cl31780   1.087   1.344   9.933  0.1509 -0.2162 -0.0620
  999MOL0     C31781   1.997   1.924   9.705 -1.4372  0.4233 -0.5170
  999MOL0     C31782   2.130   1.955   9.697 -0.9282  0.5590  0.5200
  999MOL0     O31783   2.358   2.103   9.596  0.2239 -0.7346 -0.2413
  999MOL0     C31784   2.638   2.100   9.612  0.9129  0.6525 -0.2403
  999MOL0     C31785   2.783   2.103   9.635  0.4703 -0.3573 -0.3277
  999MOL0     N31786   3.481   1.987   9.607  0.6805 -0.3603  0.5435
  999MOL0     N31787   3.579   2.032   9.547 -1.0023  0.2776  0.0372
  999MOL0     C31788   4.813   2.316   9.396  0.4684 -0.1074 -0.0108
  999MOL0     C31789   4.946   2.330   9.428 -0.5030  0.3593 -0.1080
  999MOL0     C31790   5.324   2.467   9.584 -0.2256 -0.6300 -0.5179
  999MOL0     C31791   5.351   2.443   9.716  0.3094 -0.8125 -0.2479
  999MOL0     C31792   5.478   2.401   9.756 -0.1331 -0.6327  0.1720
  999MOL0     C31793   5.580   2.387   9.665  0.2657  0.0841 -0.4833
  999MOL0     O31794   5.709   2.341   9.693  0.8695 -0.4272  0.2314
  999MOL0     C31795   5.745   2.302   9.825 -0.0597  0.0917 -0.8254
  999MOL0     C31796   5.746   2.159   9.856  0.5973  0.6554 -0.4301
  999MOL0     C31797   5.846   2.092   9.769 -0.5668 -0.4417 -0.7865
  999MOL0     C31798   5.800   2.032   9.636  0.3596  0.4285 -0.2688
  999MOL0     C31799   5.706   1.921   9.664 -0.0553 -0.3750  0.3888
  999MOL0     C31800   5.612   1.847   9.685  0.4839 -0.4184  0.5097
  999MOL0     C31801   5.559   2.435   9.537  0.1735 -0.0817  0.1747
  999MOL0     C31802   5.429   2.465   9.494 -0.4390 -0.3205  0.0247
  999MOL0     H31803   4.991   2.647   9.316  3.0938 -0.8734  2.1801
  999MOL0     H31804   4.741   2.622   9.273 -0.8811  0.1126  0.6436
  999MOL0     H31805   4.550   2.251   9.461  0.5973 -0.3743 -0.5889
  999MOL0     H31806   4.537   2.253   9.284  1.7558  1.5532 -1.3820
  999MOL0     H31807   4.371   2.443   9.329  2.8865  1.5251 -0.0091
  999MOL0     H31808   4.383   2.415   9.498 -0.3965  3.8545 -1.8321
  999MOL0     H31809   4.279   2.171   9.447 -0.8912  0.4365  1.2925
  999MOL0     H31810   4.276   2.222   9.284 -1.9141 -1.6287  0.7291
  999MOL0     H31811   4.123   2.349   9.530 -2.6550  0.8684  0.8780
  999MOL0     H31812   4.119   2.396   9.357 -0.2093 -0.5646 -1.4029
  999MOL0     H31813   4.057   2.163   9.288  1.1416  2.6758 -0.9226
  999MOL0     H31814   3.935   2.248   9.376 -0.2468 -1.5286 -1.9320
  999MOL0     H31815   4.058   2.129   9.598 -3.5900 -1.5509  0.7556
  999MOL0     H31816   4.118   2.025   9.471 -0.1649  1.0057 -1.4364
  999MOL0     H31817   3.862   2.002   9.409  1.6131  1.1236 -0.3716
  999MOL0     H31818   3.916   1.926   9.555 -2.9759 -0.0858  2.8638
  999MOL0     H31819   3.783   2.201   9.544 -3.4973 -0.2391 -0.0549
  999MOL0     H31820   3.857   2.139   9.687  0.1620  2.0045 -0.9017
  999MOL0     H31821   3.662   2.078   9.860 -0.6786 -0.3590 -0.0213
  999MOL0     H31822   3.417   2.095   9.910  0.3643  0.7483 -0.3173
  999MOL0     H31823   3.431   1.923   9.923  2.1461 -0.3507 -1.2416
  999MOL0     H31824   3.199   1.979   9.898 -1.9540 -0.4145 -2.4310
  999MOL0     H31825   3.245   1.914   9.738  2.7058 -0.6453 -0.3549
  999MOL0     H31826   3.208   2.204   9.804  0.9499  0.6172  0.6376
  999MOL0     H31827   3.270   2.141   9.647 -0.4338  4.3661  1.3141
  999MOL0     H31828   3.065   1.993   9.627 -0.2891  1.0713 -2.2457
  999MOL0     H31829   3.041   2.179   9.622 -1.4322  1.5577  3.4751
  999MOL0     H31830   2.784   2.016   9.961 -2.4015 -2.2522 -0.1227
  999MOL0     H31831   2.545   2.011   9.938 -0.5407  0.8931  0.6382
  999MOL0     H31832   2.181   2.041  10.028 -0.0704  2.2344 -0.3438
  999MOL0     H31833   1.939   1.971  10.032 -0.3814 -2.1641 -0.7744
  999MOL0     H31834   1.763   1.776   9.694  2.8021 -0.0135  4.2276
  999MOL0     H31835   1.691   1.950   9.662 -0.4909  0.2491 -0.7295
  999MOL0     H31836   1.538   1.888   9.840 -0.9234 -1.5783  0.2566
  999MOL0     H31837   1.618   1.722   9.843  2.6155  0.0472 -1.2722
  999MOL0     H31838   1.556   1.726   9.578  0.1476 -3.7804  0.6099
  999MOL0     H31839   1.425   1.831   9.654 -0.3228 -0.0455 -0.2631
  999MOL0     H31840   1.479   1.561   9.742  0.4385  0.7114 -0.9209
  999MOL0     H31841   1.355   1.671   9.790  1.5098  0.1139  0.7589
  999MOL0     H31842   1.372   1.542   9.521  2.4846  0.1123  1.2512
  999MOL0     H31843   1.253   1.669   9.563  1.2369 -0.3758 -1.9511
  999MOL0     H31844   1.139   1.461   9.602 -1.0202  1.5998 -0.4430
  999MOL0     H31845   1.149   1.546   9.749  2.2600 -1.0720  2.7858
  999MOL0     H31846   1.352   1.310   9.675  0.1590 -0.5743  0.2706
  999MOL0     H31847   1.351   1.411   9.818  0.2249  1.1337 -0.6859
  999MOL0     H31848   1.216   1.189   9.835 -0.1622 -0.5734 -0.6755
  999MOL0     H31849   1.102   1.247   9.716 -0.4611 -0.6473  0.8459
  999MOL0     H31850   1.958   1.889   9.610 -2.2079 -1.2709  0.3798
  999MOL0     H31851   2.173   1.935   9.599 -3.3429 -1.6349 -0.1978
  999MOL0     H31852   2.602   2.130   9.514 -2.1256 -0.6318  0.3722
  999MOL0     H31853   2.854   2.130   9.557  0.7893  0.7871  0.3336
  999MOL0     H31854   4.759   2.223   9.411 -0.5305  0.3737 -0.5356
  999MOL0     H31855   4.992   2.244   9.476 -2.2088  0.9082  2.7630
  999MOL0     H31856   5.278   2.438   9.796  2.8016 -0.8216  2.1367
  999MOL0     H31857   5.483   2.380   9.862 -1.2874 -3.0648 -0.1616
  999MOL0     H31858   5.677   2.346   9.899 -0.5192 -2.0660  0.1062
  999MOL0     H31859   5.838   2.355   9.849 -1.4706  2.8955 -1.1393
  999MOL0     H31860   5.782   2.157   9.959  2.6364 -0.0683 -1.1154
  999MOL0     H31861   5.645   2.117   9.856 -0.3097  2.6670 -1.3656
  999MOL0     H31862   5.881   2.003   9.822 -3.9370 -1.9476 -0.8344
  999MOL0     H31863   5.932   2.158   9.752  0.9848 -2.7271 -2.4277
  999MOL0     H31864   5.764   2.107   9.565 -1.7716 -1.9090 -1.8367
  999MOL0     H31865   5.888   1.984   9.592  1.3416 -0.4785  2.4902
  999MOL0     H31866   5.518   1.796   9.694  0.2413 -0.4398 -1.6897
  999MOL0     H31867   5.643   2.427   9.470  0.3779 -1.1702  0.5368
  999MOL0     H31868   5.412   2.492   9.390  2.7780  0.9620 -0.2911
 1000MOL0     O31869   6.229   4.224   1.989  0.1562  0.3492  0.4416
 1000MOL0     C31870   6.182   4.331   1.954 -0.5941  0.2669 -0.2488
 1000MOL0     O31871   6.062   4.372   1.983 -0.0126 -0.4512 -0.2100
 1000MOL0     C31872   5.965   4.308   2.053  0.4749 -0.5627  0.6698
 1000MOL0     C31873   5.889   4.385   2.145  0.2091  0.0071  0.1468
 1000MOL0     C31874   5.775   4.325   2.212  0.2420  0.2650 -0.8770
 1000MOL0     C31875   5.739   4.187   2.190 -0.1720 -0.8692  1.2051
 1000MOL0     O31876   5.644   4.134   2.277 -0.2955  0.0344  0.8602
 1000MOL0     C31877   5.552   4.048   2.206  0.4605  0.0854  0.1358
 1000MOL0     C31878   5.431   4.046   2.300  0.6617  0.2572  0.1147
 1000MOL0     C31879   5.299   4.021   2.233  0.2011 -0.1113  0.4145
 1000MOL0     C31880   5.188   4.033   2.336  1.2381  0.2775 -0.1955
 1000MOL0     C31881   5.048   4.006   2.269 -0.1987 -0.2513  0.4714
 1000MOL0     C31882   4.938   4.009   2.370  0.2608  0.5258  0.1256
 1000MOL0     C31883   4.805   3.975   2.294  0.2349 -0.6028 -0.6759
 1000MOL0     C31884   4.677   4.016   2.362  0.7371 -0.3976  0.0947
 1000MOL0     N31885   4.558   3.966   2.284 -0.6972 -0.0484  0.1031
 1000MOL0     C31886   4.497   4.035   2.186 -0.0178  0.6957 -0.7106
 1000MOL0     C31887   4.404   3.955   2.141  0.5498  0.8898  0.3394
 1000MOL0     C31888   4.317   3.995   2.023  0.5290  0.3653  0.3253
 1000MOL0     C31889   4.177   3.926   2.040  0.8144 -0.3179  0.7054
 1000MOL0     C31890   4.111   3.924   1.898  0.1168 -0.2750 -0.5057
 1000MOL0     C31891   3.963   3.887   1.903  0.0886  0.2197  0.0815
 1000MOL0     O31892   3.903   3.931   1.776  0.4119  0.0199  0.1386
 1000MOL0     C31893   3.774   3.894   1.745 -0.1980  0.0992  0.0801
 1000MOL0     C31894   3.700   3.800   1.820 -0.6680 -0.9467 -0.0005
 1000MOL0     C31895   3.573   3.768   1.786  0.2921 -0.2427 -0.0776
 1000MOL0     C31896   3.504   3.828   1.677  0.4333  0.1606 -0.0567
 1000MOL0     C31897   3.361   3.803   1.653  0.8471  0.7607  0.2987
 1000MOL0     O31898   3.306   3.701   1.728  0.2353  0.1902  0.0542
 1000MOL0     C31899   3.176   3.656   1.720  0.4344  0.8121 -0.9664
 1000MOL0     C31900   3.081   3.684   1.623  0.4255 -0.5929 -0.8098
 1000MOL0     C31901   2.949   3.641   1.639 -0.5174  0.1415 -0.3326
 1000MOL0     C31902   2.920   3.539   1.728 -0.3877 -1.0312 -1.0427
 1000MOL0     O31903   2.781   3.512   1.748  0.1412 -0.3158  0.5845
 1000MOL0     C31904   2.749   3.385   1.813 -0.7049 -0.8082  0.0885
 1000MOL0     C31905   2.594   3.372   1.832  0.0852 -0.7921 -0.0247
 1000MOL0     C31906   2.513   3.364   1.698 -0.6171  0.0626  0.1725
 1000MOL0     C31907   2.535   3.236   1.618 -0.6653 -0.0429 -0.0936
 1000MOL0     C31908   2.492   3.255   1.473 -0.8067 -0.8229 -0.1298
 1000MOL0     C31909   2.489   3.124   1.394  0.2875  0.9537  0.8998
 1000MOL0     C31910   2.636   3.083   1.359 -0.1054  0.5597  0.7491
 1000MOL0     C31911   2.693   3.174   1.250  0.0346 -0.8131 -0.3883
 1000MOL0    Cl31912   2.596   3.143   1.104 -0.3937 -0.0315  0.2340
 1000MOL0     C31913   3.026   3.492   1.810 -0.0414  0.2326  0.0022
 1000MOL0     C31914   3.154   3.544   1.809  0.2192 -0.9679  0.2750
 1000MOL0     O31915   3.303   3.871   1.575  0.2696 -0.4883 -0.8536
 1000MOL0     C31916   3.584   3.904   1.592  0.5187 -0.4585  0.0199
 1000MOL0     C31917   3.713   3.945   1.629  0.3004  0.3000  0.5718
 1000MOL0     N31918   4.417   3.829   2.196 -0.3744  0.3188  0.6509
 1000MOL0     N31919   4.509   3.841   2.285 -0.5090  0.2868 -0.0100
 1000MOL0     C31920   5.814   4.113   2.089  0.7578 -0.0542  0.4205
 1000MOL0     C31921   5.930   4.175   2.038 -0.3952  0.4880  0.3560
 1000MOL0     C31922   6.262   4.405   1.859 -0.3587  0.7043 -0.7372
 1000MOL0     C31923   6.391   4.359   1.808 -0.1878  0.1373  0.4192
 1000MOL0     C31924   6.469   4.442   1.722 -0.5048  0.2350  0.6626
 1000MOL0     C31925   6.420   4.565   1.679  0.4342  0.7034  0.2674
 1000MOL0     O31926   6.479   4.642   1.581 -0.6620 -0.0076  0.3703
 1000MOL0     C31927   6.608   4.609   1.527 -0.2701 -0.4377  0.5955
 1000MOL0     C31928   6.711   4.673   1.624 -0.3066  0.3727  0.5642
 1000MOL0     C31929   6.858   4.643   1.576  0.2271  0.0133 -0.6668
 1000MOL0     C31930   6.953   4.720   1.666 -0.3539 -0.2906 -0.5856
 1000MOL0     C31931   7.091   4.661   1.650  0.4289 -0.0819  0.3515
 1000MOL0     C31932   7.206   4.622   1.667  0.3319  0.2622  0.4332
 1000MOL0     C31933   6.302   4.609   1.735  0.2762  0.2800  0.4843
 1000MOL0     C31934   6.219   4.529   1.812  0.4668  0.3917  0.3871
 1000MOL0     H31935   5.919   4.490   2.150 -0.5067  0.2058  0.3390
 1000MOL0     H31936   5.732   4.383   2.293  3.5756 -0.3676  1.5549
 1000MOL0     H31937   5.593   3.951   2.178 -0.2117  0.3021 -1.7956
 1000MOL0     H31938   5.511   4.101   2.119 -0.4088  2.6669  2.0064
 1000MOL0     H31939   5.424   4.141   2.354  1.2321 -0.3599  1.2984
 1000MOL0     H31940   5.441   3.968   2.376 -2.7329 -2.8298 -2.2212
 1000MOL0     H31941   5.304   3.922   2.186  1.2916 -0.4869  1.2855
 1000MOL0     H31942   5.286   4.090   2.150 -2.5474 -1.3286 -0.2987
 1000MOL0     H31943   5.197   3.955   2.412 -1.7179  1.0588  1.1319
 1000MOL0     H31944   5.190   4.135   2.375 -1.6374  1.2257 -2.1847
 1000MOL0     H31945   5.051   3.908   2.222 -0.0276 -0.3953  0.7764
 1000MOL0     H31946   5.030   4.089   2.201 -0.9198  1.1890  2.3431
 1000MOL0     H31947   4.928   4.106   2.420  0.5610 -0.4102  2.0873
 1000MOL0     H31948   4.965   3.938   2.448  2.0819 -0.0254 -0.9504
 1000MOL0     H31949   4.808   4.025   2.197  0.0424  1.7680  0.4858
 1000MOL0     H31950   4.795   3.869   2.270 -1.2242 -0.1143 -2.3608
 1000MOL0     H31951   4.655   4.123   2.370  1.7408 -0.1031 -0.9161
 1000MOL0     H31952   4.673   3.979   2.465 -1.5101 -1.4801 -0.2991
 1000MOL0     H31953   4.529   4.133   2.151  0.2882  1.0748  0.5526
 1000MOL0     H31954   4.366   3.976   1.927 -0.9894  1.5503 -0.7313
 1000MOL0     H31955   4.294   4.101   2.014 -2.6606  0.0161  2.5542
 1000MOL0     H31956   4.121   3.992   2.106  1.7182  0.9171  0.2685
 1000MOL0     H31957   4.178   3.825   2.084 -0.2196  0.9023  3.8078
 1000MOL0     H31958   4.122   4.028   1.865  4.0697  0.2403  1.8331
 1000MOL0     H31959   4.158   3.850   1.833  1.6118  0.1538  0.0604
 1000MOL0     H31960   3.905   3.942   1.978 -0.1526  3.2801 -2.1692
 1000MOL0     H31961   3.955   3.778   1.911  1.5995  0.1059  0.2579
 1000MOL0     H31962   3.741   3.751   1.908 -1.1845  0.0950  0.8393
 1000MOL0     H31963   3.519   3.703   1.854 -1.2972 -1.0902 -2.0267
 1000MOL0     H31964   3.098   3.751   1.539 -1.5309  1.8464  0.5931
 1000MOL0     H31965   2.867   3.680   1.580  0.6953  0.7125 -1.6780
 1000MOL0     H31966   2.797   3.389   1.912  0.1203  0.6267 -0.3302
 1000MOL0     H31967   2.791   3.310   1.745 -1.3039  2.5552 -4.4134
 1000MOL0     H31968   2.554   3.454   1.891  1.0389 -0.0419 -0.3791
 1000MOL0     H31969   2.578   3.283   1.893 -0.0290 -0.3502  0.5896
 1000MOL0     H31970   2.531   3.454   1.638 -2.1502  2.0264  2.4719
 1000MOL0     H31971   2.409   3.367   1.733 -1.0829 -1.0435 -1.0524
 1000MOL0     H31972   2.643   3.219   1.610 -0.6706 -0.6877  1.1268
 1000MOL0     H31973   2.497   3.148   1.671  1.5816 -1.9538 -1.4588
 1000MOL0     H31974   2.559   3.330   1.428 -0.9797  0.2911  1.3819
 1000MOL0     H31975   2.397   3.308   1.460  0.8537  1.7363 -3.4594
 1000MOL0     H31976   2.429   3.124   1.303  2.5706 -0.3853 -0.7017
 1000MOL0     H31977   2.441   3.046   1.453 -2.1442  1.8043  0.1779
 1000MOL0     H31978   2.710   3.081   1.440  1.1354  1.8313 -0.2844
 1000MOL0     H31979   2.643   2.980   1.322  3.0896  0.1830  2.0504
 1000MOL0     H31980   2.794   3.136   1.235 -0.0289 -1.2508  0.2448
 1000MOL0     H31981   2.690   3.278   1.284 -1.7025 -1.4772  1.7615
 1000MOL0     H31982   3.014   3.398   1.863  2.3508 -1.6006 -2.4027
 1000MOL0     H31983   3.231   3.503   1.874 -1.6829 -1.8604  2.0905
 1000MOL0     H31984   3.545   3.957   1.505  1.1973  2.4951  1.3898
 1000MOL0     H31985   3.771   4.012   1.566  0.0814 -1.4699 -1.6756
 1000MOL0     H31986   5.794   4.010   2.062  0.6103  0.4308 -1.4916
 1000MOL0     H31987   5.985   4.119   1.962  0.4255  2.6342 -0.7084
 1000MOL0     H31988   6.446   4.272   1.842  1.1260  1.4163  1.7165
 1000MOL0     H31989   6.553   4.394   1.673 -2.4061 -2.1398 -0.4885
 1000MOL0     H31990   6.621   4.644   1.425 -1.2241 -4.3191 -1.0528
 1000MOL0     H31991   6.617   4.500   1.515 -0.5578 -0.6707  2.2627
 1000MOL0     H31992   6.703   4.780   1.647  0.6255  0.2920  1.3535
 1000MOL0     H31993   6.697   4.621   1.719 -0.9890  1.3435  1.0033
 1000MOL0     H31994   6.875   4.680   1.474  1.1975 -1.2928 -1.0183
 1000MOL0     H31995   6.879   4.536   1.579  2.2429  0.3401 -1.4391
 1000MOL0     H31996   6.957   4.826   1.638 -0.7153  1.0960  3.8630
 1000MOL0     H31997   6.916   4.711   1.768 -0.1135  1.9307 -0.2509
 1000MOL0     H31998   7.308   4.590   1.673 -0.0992 -3.6017 -5.0598
 1000MOL0     H31999   6.265   4.706   1.704 -0.6956  0.0608  0.9168
 1000MOL0     H32000   6.127   4.573   1.851  1.0185  0.3995  1.7451
 1001MOL0     O32001   9.834   8.462   9.789  0.1003 -0.0038 -0.5779
 1001MOL0     C32002   9.915   8.556   9.795  1.2572 -0.1717  0.0027
 1001MOL0     O32003   9.881   8.689   9.766  0.2999  0.0705 -0.2346
 1001MOL0     C32004   9.753   8.698   9.706 -0.9518 -0.3654  0.0921
 1001MOL0     C32005   9.733   8.737   9.576  0.2463  0.8632 -0.5064
 1001MOL0     C32006   9.612   8.766   9.521  0.5373 -0.8670  0.4264
 1001MOL0     C32007   9.497   8.749   9.595  0.2290  1.1128 -0.1025
 1001MOL0     O32008   9.370   8.769   9.537 -0.2000 -0.1091 -0.9387
 1001MOL0     C32009   9.252   8.758   9.612  0.0416 -0.0629 -0.7434
 1001MOL0     C32010   9.140   8.818   9.525  0.4817  0.0870 -0.1817
 1001MOL0     C32011   9.002   8.783   9.597  0.1884  0.0596  0.2087
 1001MOL0     C32012   8.901   8.903   9.593 -0.5748 -0.7648 -0.4170
 1001MOL0     C32013   8.759   8.869   9.626 -1.2951  0.5061 -0.1325
 1001MOL0     C32014   8.679   9.001   9.638  0.4904 -0.7600  0.3573
 1001MOL0     C32015   8.527   9.003   9.639 -0.1367 -0.7114  0.5697
 1001MOL0     C32016   8.487   8.937   9.770  0.6217 -0.9901  0.3610
 1001MOL0     N32017   8.338   8.954   9.798 -0.8572 -1.0866 -0.3488
 1001MOL0     C32018   8.246   8.995   9.709 -0.2488 -0.1163  0.6149
 1001MOL0     C32019   8.133   9.013   9.781 -0.1365 -0.2385  0.4131
 1001MOL0     C32020   8.005   9.057   9.721  1.1606  0.3475  0.0639
 1001MOL0     C32021   8.014   9.196   9.662  0.2596  0.4387 -0.3641
 1001MOL0     C32022   8.027   9.299   9.773  0.4922 -0.2186  0.8201
 1001MOL0     C32023   8.115   9.425   9.729  0.0069  0.6890 -0.5210
 1001MOL0     O32024   8.055   9.499   9.623 -0.1362  0.1288  0.0159
 1001MOL0     C32025   7.930   9.554   9.637  0.2355 -0.4458  0.4759
 1001MOL0     C32026   7.870   9.590   9.516 -0.5736  0.2217 -0.5662
 1001MOL0     C32027   7.738   9.639   9.516  0.3255  0.1706  0.5522
 1001MOL0     C32028   7.665   9.664   9.633  0.3312  0.5544 -0.0429
 1001MOL0     C32029   7.536   9.736   9.639 -0.3611 -0.8834  0.5773
 1001MOL0     O32030   7.470   9.743   9.756  0.4732 -0.5360 -0.2840
 1001MOL0     C32031   7.355   9.807   9.758  0.4987  0.0463  0.4259
 1001MOL0     C32032   7.242   9.735   9.786 -0.0128  0.1405  0.7461
 1001MOL0     C32033   7.120   9.794   9.789 -0.1387  0.1873  0.6426
 1001MOL0     C32034   7.104   9.925   9.775  0.2129 -0.0251 -1.2693
 1001MOL0     O32035   6.976   9.976   9.773 -0.1139  0.1205 -0.2152
 1001MOL0     C32036   6.880   9.925   9.862  1.1121 -0.3237 -0.5388
 1001MOL0     C32037   6.753  10.004   9.824  0.2336 -0.0653  0.4879
 1001MOL0     C32038   6.630   9.917   9.848  0.3936  0.1497 -0.8358
 1001MOL0     C32039   6.606   9.864   9.990  0.5804 -0.1972 -0.1216
 1001MOL0     C32040   6.486   9.761   9.975 -0.2093  0.5341  0.4560
 1001MOL0     C32041   6.365   9.790   9.890 -0.4324  0.2939  0.5015
 1001MOL0     C32042   6.286   9.657   9.892  0.0886  0.5611  0.7127
 1001MOL0     C32043   6.144   9.686   9.845  0.2080  0.0964  0.6368
 1001MOL0    Cl32044   6.042   9.564   9.915 -0.0523  0.4160 -0.2451
 1001MOL0     C32045   7.217  10.009   9.754  0.1443 -0.0026  0.2021
 1001MOL0     C32046   7.346   9.948   9.740  0.7157 -0.0516  0.9775
 1001MOL0     O32047   7.495   9.779   9.529 -0.1565  0.2704  0.4024
 1001MOL0     C32048   7.729   9.627   9.753 -0.9915  0.0922 -0.0918
 1001MOL0     C32049   7.862   9.580   9.757 -0.0964  1.0229 -0.0078
 1001MOL0     N32050   8.156   8.969   9.909  0.3994 -0.1085 -0.7656
 1001MOL0     N32051   8.276   8.924   9.918 -0.1227 -0.3331 -0.4184
 1001MOL0     C32052   9.507   8.724   9.739 -0.6632 -0.1289 -0.1113
 1001MOL0     C32053   9.636   8.690   9.785 -0.3916  0.0666  1.1037
 1001MOL0     C32054  10.051   8.516   9.839 -0.4464  0.8169  0.0848
 1001MOL0     C32055  10.085   8.387   9.881 -0.2293 -0.2362  0.5185
 1001MOL0     C32056  10.223   8.356   9.908 -0.6433  0.9603 -0.0281
 1001MOL0     C32057  10.322   8.454   9.889  0.0084  0.5364  0.2692
 1001MOL0     O32058  10.444   8.400   9.914  0.8285  0.2257 -0.5858
 1001MOL0     C32059  10.543   8.493   9.885 -0.3992 -0.0551  0.9428
 1001MOL0     C32060  10.672   8.424   9.921 -0.4847  0.1722  0.3331
 1001MOL0     C32061  10.785   8.535   9.931  0.5048  0.1929  0.7932
 1001MOL0     C32062  10.923   8.480   9.975  1.3465  0.4412 -0.2856
 1001MOL0     C32063  11.020   8.586   9.995  0.8758 -1.1714 -0.1223
 1001MOL0     C32064  11.100   8.678  10.014  0.3033 -0.2806  0.9040
 1001MOL0     C32065  10.283   8.581   9.838 -0.1785 -0.1883  0.0343
 1001MOL0     C32066  10.147   8.614   9.823 -1.0883  0.0145  0.6246
 1001MOL0     H32067   9.811   8.760   9.503 -1.4204  3.3389 -1.6758
 1001MOL0     H32068   9.591   8.798   9.420  1.1726 -1.2869  0.1555
 1001MOL0     H32069   9.265   8.820   9.701  2.2896  2.1834 -2.4849
 1001MOL0     H32070   9.239   8.655   9.648  1.9523 -0.2909 -0.5817
 1001MOL0     H32071   9.127   8.778   9.424 -1.0499 -0.1847  0.0986
 1001MOL0     H32072   9.152   8.927   9.523 -0.8319  0.4017  2.9919
 1001MOL0     H32073   9.015   8.765   9.704  1.0564  0.4514  0.1763
 1001MOL0     H32074   8.952   8.693   9.560  0.6907  0.3084 -1.1595
 1001MOL0     H32075   8.935   8.987   9.654 -1.2736  0.1759 -1.2856
 1001MOL0     H32076   8.901   8.943   9.491  2.7350 -1.3246 -0.7477
 1001MOL0     H32077   8.754   8.817   9.722 -0.5558 -0.1759 -0.4524
 1001MOL0     H32078   8.722   8.814   9.539  0.6580 -0.6635 -0.2760
 1001MOL0     H32079   8.714   9.072   9.563 -1.7221 -0.6869 -0.7043
 1001MOL0     H32080   8.716   9.052   9.728  0.8863  1.8229 -1.1748
 1001MOL0     H32081   8.491   9.106   9.629 -0.6032 -0.8775  0.5354
 1001MOL0     H32082   8.491   8.940   9.557  0.5518 -2.1264  1.3357
 1001MOL0     H32083   8.538   8.999   9.844 -0.4454 -0.5707  0.7572
 1001MOL0     H32084   8.523   8.834   9.782  2.6598 -0.3684  0.0414
 1001MOL0     H32085   8.248   9.015   9.602 -2.0345 -2.3094  0.0884
 1001MOL0     H32086   7.933   9.060   9.803  0.0608  0.8807 -0.8907
 1001MOL0     H32087   7.972   9.001   9.632 -1.2465 -0.9789  1.6803
 1001MOL0     H32088   7.926   9.219   9.602 -0.7438 -2.0329  0.0254
 1001MOL0     H32089   8.109   9.206   9.608  0.0948 -0.4571 -0.8482
 1001MOL0     H32090   7.924   9.329   9.795  0.3522 -0.5577  0.6408
 1001MOL0     H32091   8.083   9.248   9.852  1.2904 -1.9749 -0.7876
 1001MOL0     H32092   8.212   9.395   9.689 -0.9769 -2.0599 -1.0996
 1001MOL0     H32093   8.135   9.481   9.821 -1.3899 -0.5614  0.5980
 1001MOL0     H32094   7.918   9.561   9.423  2.5480 -0.6983  1.1795
 1001MOL0     H32095   7.683   9.650   9.423  0.9711  0.9415  0.2483
 1001MOL0     H32096   7.253   9.630   9.811 -0.2641 -0.6106 -1.9045
 1001MOL0     H32097   7.038   9.724   9.806  0.5360 -0.7858  0.0334
 1001MOL0     H32098   6.910   9.940   9.966  3.0956 -2.1294 -0.7671
 1001MOL0     H32099   6.855   9.819   9.852  2.9017 -0.8708  0.3445
 1001MOL0     H32100   6.745  10.024   9.717  1.6361 -1.6299  0.0491
 1001MOL0     H32101   6.727  10.091   9.885  0.4398  0.6732 -0.4517
 1001MOL0     H32102   6.640   9.821   9.796  1.0160  0.8595 -2.0651
 1001MOL0     H32103   6.548   9.967   9.796  0.6648 -1.5808 -3.1108
 1001MOL0     H32104   6.700   9.823  10.028  1.8845  1.5350 -1.2998
 1001MOL0     H32105   6.574   9.944  10.058  3.2761 -1.1666  2.5521
 1001MOL0     H32106   6.447   9.753  10.077 -0.1984  1.7362  0.5773
 1001MOL0     H32107   6.540   9.668   9.955  0.5096  1.1573 -0.6059
 1001MOL0     H32108   6.396   9.816   9.789  1.4113  3.1061  1.6583
 1001MOL0     H32109   6.313   9.873   9.938 -1.6565  0.9971 -1.9030
 1001MOL0     H32110   6.317   9.579   9.822 -2.3147  0.7543 -0.6629
 1001MOL0     H32111   6.283   9.607   9.989  3.9217 -1.6894 -0.1106
 1001MOL0     H32112   6.141   9.670   9.737  0.7467 -1.4580  0.8371
 1001MOL0     H32113   6.115   9.789   9.871  1.3133  1.2053 -2.0988
 1001MOL0     H32114   7.204  10.117   9.749 -0.5140 -0.0810  0.0490
 1001MOL0     H32115   7.439  10.004   9.733  0.8331 -0.2561  0.8989
 1001MOL0     H32116   7.679   9.646   9.847 -1.4899  0.2331 -0.3806
 1001MOL0     H32117   7.918   9.570   9.850  2.9376 -0.1845 -1.8271
 1001MOL0     H32118   9.432   8.726   9.818  0.3171  1.4586  0.8405
 1001MOL0     H32119   9.655   8.664   9.889  0.9621  1.2956  1.1964
 1001MOL0     H32120  10.015   8.306   9.902  0.4969 -1.0334 -0.0754
 1001MOL0     H32121  10.249   8.261   9.952  1.8906  1.9858  0.9093
 1001MOL0     H32122  10.537   8.589   9.937 -3.2747  0.5521 -0.3160
 1001MOL0     H32123  10.539   8.513   9.777 -2.8383 -1.5199  0.6924
 1001MOL0     H32124  10.662   8.386  10.023  2.4490  0.4009  0.7840
 1001MOL0     H32125  10.698   8.341   9.855 -0.6089 -1.2675  2.0346
 1001MOL0     H32126  10.760   8.608  10.009 -1.5475  1.4441 -0.9541
 1001MOL0     H32127  10.780   8.589   9.837  0.1699  2.0266  1.8241
 1001MOL0     H32128  10.913   8.417  10.064 -1.0204  1.4778  0.2516
 1001MOL0     H32129  10.963   8.421   9.892  0.7214  0.5076 -0.6381
 1001MOL0     H32130  11.181   8.746  10.027 -0.4299  0.6027  0.9465
 1001MOL0     H32131  10.356   8.659   9.817  1.8337 -2.4857 -2.0311
 1001MOL0     H32132  10.119   8.714   9.790  0.0364 -0.2617 -1.2704
 1002MOL0     O32133   1.749   9.385   1.956 -0.3957  0.1514  0.1209
 1002MOL0     C32134   1.841   9.445   1.909 -0.0862 -0.5710  0.1882
 1002MOL0     O32135   1.866   9.575   1.919  0.2156  0.6164 -0.6234
 1002MOL0     C32136   1.764   9.655   1.958  0.1679  0.3718  0.1104
 1002MOL0     C32137   1.624   9.640   1.925 -0.8283  1.0221 -0.4643
 1002MOL0     C32138   1.529   9.732   1.972  0.1533  0.3449  0.2604
 1002MOL0     C32139   1.564   9.832   2.064 -0.3011  0.4597 -1.0633
 1002MOL0     O32140   1.460   9.912   2.109 -0.3610 -0.2152 -0.4553
 1002MOL0     C32141   1.447   9.907   2.253  0.2230  0.7985  0.7128
 1002MOL0     C32142   1.348  10.017   2.293  0.1095  0.7736  0.8346
 1002MOL0     C32143   1.205   9.960   2.279 -0.2185 -0.2699  0.5673
 1002MOL0     C32144   1.117  10.089   2.292  0.0284 -0.6522 -1.6086
 1002MOL0     C32145   0.971  10.047   2.291  0.1857  0.2596  0.3324
 1002MOL0     C32146   0.881  10.179   2.307  0.4917 -0.0289  0.0799
 1002MOL0     C32147   0.726  10.132   2.292 -0.3605  0.8346 -0.3171
 1002MOL0     C32148   0.632  10.249   2.319  0.6337  0.2450 -0.0919
 1002MOL0     N32149   0.494  10.197   2.312 -0.5739  0.2059 -0.7194
 1002MOL0     C32150   0.442  10.087   2.381  0.3911  1.1071 -0.7059
 1002MOL0     C32151   0.307  10.101   2.353 -0.5801  0.5049  0.7318
 1002MOL0     C32152   0.202  10.002   2.396  0.7539  0.8048  1.2698
 1002MOL0     C32153   0.195   9.874   2.297 -0.5393 -0.5464 -0.2227
 1002MOL0     C32154   0.170   9.919   2.145  0.3446 -0.2616 -0.3862
 1002MOL0     C32155   0.288   9.945   2.048 -0.0089  0.7223 -0.1540
 1002MOL0     O32156   0.395   9.855   2.084  0.9589  0.1639 -0.9851
 1002MOL0     C32157   0.519   9.877   2.041 -0.5357 -0.2417 -0.3523
 1002MOL0     C32158   0.625   9.791   2.084 -0.2250 -0.7332 -0.9269
 1002MOL0     C32159   0.751   9.809   2.035 -0.8277  0.0337  0.1417
 1002MOL0     C32160   0.787   9.911   1.954 -0.4186  0.1734 -0.4701
 1002MOL0     C32161   0.929   9.919   1.905 -0.1561 -0.2122 -0.3189
 1002MOL0     O32162   0.961  10.044   1.868  0.0703  0.4463 -0.1278
 1002MOL0     C32163   1.084  10.057   1.808  0.0873  0.5962  0.5957
 1002MOL0     C32164   1.203  10.066   1.882  0.0972 -0.0069  0.3728
 1002MOL0     C32165   1.323  10.088   1.815  0.0239 -0.3023 -0.4978
 1002MOL0     C32166   1.328  10.103   1.677 -0.5915  0.4916 -0.0250
 1002MOL0     O32167   1.448  10.124   1.616 -0.6167  0.2211 -0.0612
 1002MOL0     C32168   1.445  10.186   1.488 -0.0242 -0.0269 -0.1937
 1002MOL0     C32169   1.596  10.221   1.447 -0.1371  0.3370  0.1155
 1002MOL0     C32170   1.632  10.362   1.510 -0.2913  0.2789  0.1001
 1002MOL0     C32171   1.766  10.410   1.459 -0.0128 -0.5217  0.0645
 1002MOL0     C32172   1.792  10.545   1.532 -0.4507  0.5476 -0.2493
 1002MOL0     C32173   1.725  10.659   1.458 -0.7552 -0.3500 -0.5204
 1002MOL0     C32174   1.750  10.794   1.533  0.3088  0.6503  0.1777
 1002MOL0     C32175   1.698  10.923   1.468 -1.5327  0.9629  0.2027
 1002MOL0    Cl32176   1.523  10.939   1.438  0.0716  0.4230  0.2353
 1002MOL0     C32177   1.209  10.088   1.609  0.3394 -0.5226  0.1579
 1002MOL0     C32178   1.089  10.059   1.673 -0.0337 -0.5004 -0.2678
 1002MOL0     O32179   0.998   9.824   1.898  0.6905  0.1867  0.3362
 1002MOL0     C32180   0.685  10.001   1.908  0.0574 -0.5342 -0.1993
 1002MOL0     C32181   0.549   9.983   1.948  0.2786 -0.1406  0.3007
 1002MOL0     N32182   0.288  10.208   2.270 -0.1172  0.0299 -0.4052
 1002MOL0     N32183   0.393  10.265   2.244 -0.1822  0.1446 -0.1582
 1002MOL0     C32184   1.700   9.848   2.100  0.3919  0.1463  0.7041
 1002MOL0     C32185   1.795   9.753   2.049 -0.6931  0.5154  0.1548
 1002MOL0     C32186   1.952   9.366   1.864 -0.1120 -0.7861  0.7921
 1002MOL0     C32187   1.951   9.231   1.849 -0.7573  0.1354  0.1133
 1002MOL0     C32188   2.059   9.153   1.805  0.0405  0.3232 -0.7452
 1002MOL0     C32189   2.178   9.218   1.770  0.0516  0.1366 -0.5279
 1002MOL0     O32190   2.280   9.140   1.729 -0.2637  0.1462 -1.2490
 1002MOL0     C32191   2.420   9.175   1.765  0.9013  0.3367  0.3573
 1002MOL0     C32192   2.467   9.050   1.835 -0.4680  0.1232 -0.4617
 1002MOL0     C32193   2.591   9.083   1.919  0.1677 -0.5001  1.0598
 1002MOL0     C32194   2.643   8.963   2.004 -0.0346  0.0359  0.2658
 1002MOL0     C32195   2.548   8.926   2.111  0.3446 -0.2417  1.1569
 1002MOL0     C32196   2.474   8.898   2.201  0.2819  0.2891 -0.7913
 1002MOL0     C32197   2.184   9.355   1.770  0.9227 -0.4808 -0.3139
 1002MOL0     C32198   2.069   9.431   1.813 -0.1722 -0.1826  0.3039
 1002MOL0     H32199   1.595   9.561   1.856 -0.3736 -0.0266  0.5252
 1002MOL0     H32200   1.426   9.711   1.945  0.9379 -2.1881 -1.0790
 1002MOL0     H32201   1.543   9.919   2.304 -0.4775 -1.6560  2.8002
 1002MOL0     H32202   1.419   9.805   2.280 -0.2668  0.1459 -1.9175
 1002MOL0     H32203   1.353  10.101   2.223 -2.0211 -0.5444 -1.0267
 1002MOL0     H32204   1.358  10.066   2.391 -0.4317  2.7425 -0.0425
 1002MOL0     H32205   1.188   9.882   2.354 -0.5468 -2.4412 -1.6320
 1002MOL0     H32206   1.198   9.913   2.180 -0.5543 -0.5981  0.7431
 1002MOL0     H32207   1.136  10.145   2.384  0.1582 -2.1356 -0.6987
 1002MOL0     H32208   1.147  10.155   2.209  1.7088 -0.1338 -0.6502
 1002MOL0     H32209   0.929   9.966   2.351 -2.3566  0.1321 -1.4261
 1002MOL0     H32210   0.954  10.013   2.188 -1.5388  2.1504 -0.0711
 1002MOL0     H32211   0.900  10.259   2.236  0.4788 -0.7012 -0.6925
 1002MOL0     H32212   0.892  10.218   2.409 -2.3864 -4.5160  2.4280
 1002MOL0     H32213   0.715  10.105   2.186  2.4978 -2.3646  0.0506
 1002MOL0     H32214   0.709  10.050   2.362  1.5398  1.5816  1.1129
 1002MOL0     H32215   0.649  10.332   2.251  0.2085  1.5110  1.2903
 1002MOL0     H32216   0.646  10.287   2.421  0.2860  0.0630  0.0249
 1002MOL0     H32217   0.498  10.019   2.445  0.8371  2.3662  0.2845
 1002MOL0     H32218   0.103  10.050   2.399 -0.1898 -0.9702  0.6266
 1002MOL0     H32219   0.218   9.959   2.495 -0.7480 -0.6851  0.9284
 1002MOL0     H32220   0.110   9.813   2.327 -1.3739  1.1814  1.1203
 1002MOL0     H32221   0.288   9.817   2.305  0.7533  1.6273  1.5197
 1002MOL0     H32222   0.122   9.832   2.100  0.3521 -0.0000 -0.9082
 1002MOL0     H32223   0.100  10.002   2.137 -1.9135 -2.1855 -1.7583
 1002MOL0     H32224   0.318  10.048   2.068  0.9715  0.5749 -0.7877
 1002MOL0     H32225   0.259   9.922   1.945 -0.0632 -2.2773  0.4352
 1002MOL0     H32226   0.596   9.716   2.157 -5.0828  1.9138  0.3139
 1002MOL0     H32227   0.832   9.742   2.061 -3.0506 -2.2875  1.4509
 1002MOL0     H32228   1.207  10.048   1.989  1.6498  1.3189  0.5762
 1002MOL0     H32229   1.417  10.082   1.869  0.0813 -5.8321 -0.6838
 1002MOL0     H32230   1.381  10.274   1.491  0.9064  0.6382  0.9946
 1002MOL0     H32231   1.394  10.129   1.410 -0.8705  1.7902 -1.0299
 1002MOL0     H32232   1.586  10.220   1.338 -0.4310 -2.1663  0.1290
 1002MOL0     H32233   1.671  10.155   1.492  0.0409  1.7107  1.9646
 1002MOL0     H32234   1.641  10.355   1.619  0.2074  3.1353  0.3260
 1002MOL0     H32235   1.554  10.436   1.486 -1.4659 -0.6620  0.8482
 1002MOL0     H32236   1.842  10.335   1.484  0.8253  0.3663  0.2560
 1002MOL0     H32237   1.772  10.415   1.350  2.4430 -0.4250  0.1551
 1002MOL0     H32238   1.899  10.565   1.534 -0.4158  0.7287 -2.1076
 1002MOL0     H32239   1.752  10.538   1.634  0.3268 -4.5572 -0.0807
 1002MOL0     H32240   1.617  10.640   1.454 -0.2860 -3.3349 -3.6499
 1002MOL0     H32241   1.758  10.672   1.355  1.9425 -0.1201  0.2866
 1002MOL0     H32242   1.704  10.790   1.632  0.6747  2.4228  0.4561
 1002MOL0     H32243   1.854  10.813   1.559  0.3048 -0.4806  1.1041
 1002MOL0     H32244   1.750  10.943   1.373  4.0692  2.7370  3.2023
 1002MOL0     H32245   1.733  11.000   1.537 -0.7718  1.2397 -0.4781
 1002MOL0     H32246   1.209  10.116   1.504  0.4096 -3.5873 -0.7381
 1002MOL0     H32247   0.996  10.061   1.617 -0.2619  0.8911  0.1305
 1002MOL0     H32248   0.703  10.086   1.843 -0.8994 -0.8024 -0.8479
 1002MOL0     H32249   0.468  10.032   1.896  0.7190 -1.9177 -2.2745
 1002MOL0     H32250   1.730   9.927   2.168  3.3888 -0.4552  0.1977
 1002MOL0     H32251   1.898   9.756   2.082 -1.5006  0.8581  2.8772
 1002MOL0     H32252   1.867   9.165   1.866  1.9546 -4.0544 -1.3325
 1002MOL0     H32253   2.048   9.048   1.780 -0.0280  0.5561 -1.7237
 1002MOL0     H32254   2.423   9.259   1.835  2.3699  1.1804 -0.6580
 1002MOL0     H32255   2.472   9.197   1.671  0.5477  0.5487  0.2090
 1002MOL0     H32256   2.385   9.020   1.902  1.9940 -2.1584  1.7917
 1002MOL0     H32257   2.482   8.964   1.768  1.5860 -1.7752  2.2087
 1002MOL0     H32258   2.559   9.159   1.990  0.0485  0.6194 -0.1487
 1002MOL0     H32259   2.659   9.104   1.836 -1.6599  3.0063  0.2355
 1002MOL0     H32260   2.689   8.877   1.955  0.0616 -1.8481  3.4063
 1002MOL0     H32261   2.723   9.004   2.066 -0.9514  0.3754  1.2577
 1002MOL0     H32262   2.426   8.857   2.287  2.6681 -0.9739 -0.0019
 1002MOL0     H32263   2.278   9.400   1.740  1.1181  0.2196  1.2201
 1002MOL0     H32264   2.072   9.539   1.802  1.9682 -0.1937  0.3702
 1003MOL0     O32265   5.383   8.046   0.848  0.0159  0.3251  0.1710
 1003MOL0     C32266   5.435   8.132   0.918  0.1161 -0.3509 -0.0572
 1003MOL0     O32267   5.373   8.253   0.961 -0.0465  0.0862  0.4035
 1003MOL0     C32268   5.244   8.286   0.927 -0.2639 -0.7428  0.2625
 1003MOL0     C32269   5.134   8.203   0.949  0.0089  1.0137 -0.2827
 1003MOL0     C32270   5.007   8.242   0.901  0.6986  0.2190 -0.2679
 1003MOL0     C32271   4.986   8.367   0.843  0.2577 -0.3321  0.0005
 1003MOL0     O32272   4.860   8.404   0.806  0.2946 -0.7840 -0.7360
 1003MOL0     C32273   4.844   8.541   0.756  0.2038  0.7173 -0.0531
 1003MOL0     C32274   4.696   8.573   0.736  0.8412  0.1126  0.1605
 1003MOL0     C32275   4.599   8.457   0.757  0.1537 -0.1078 -0.7249
 1003MOL0     C32276   4.454   8.499   0.725  0.1376  0.6678  0.0830
 1003MOL0     C32277   4.362   8.391   0.766  0.6233  0.2826 -1.0477
 1003MOL0     C32278   4.215   8.423   0.737 -0.3603  0.2756 -0.1517
 1003MOL0     C32279   4.132   8.292   0.735 -0.1741 -0.4206 -0.7754
 1003MOL0     C32280   3.980   8.314   0.734 -0.0072 -0.5755 -0.9006
 1003MOL0     N32281   3.923   8.189   0.786 -0.1755  0.0597  0.2021
 1003MOL0     C32282   3.883   8.088   0.697 -0.2708 -1.0253  0.5055
 1003MOL0     C32283   3.834   7.997   0.786 -0.0416  0.5684 -0.1824
 1003MOL0     C32284   3.775   7.871   0.748 -0.9985  0.1224 -0.6121
 1003MOL0     C32285   3.876   7.771   0.696 -0.4275 -0.8467 -0.7964
 1003MOL0     C32286   3.832   7.618   0.697  0.4156 -0.1521 -0.3650
 1003MOL0     C32287   3.713   7.589   0.600 -0.6388 -1.0668 -0.4942
 1003MOL0     O32288   3.690   7.449   0.592 -0.0472  0.2904 -1.1922
 1003MOL0     C32289   3.575   7.407   0.529 -0.4569  0.6177  0.6674
 1003MOL0     C32290   3.484   7.484   0.452  0.2024 -0.1381 -1.0708
 1003MOL0     C32291   3.381   7.425   0.373  0.6279 -0.1920 -0.0083
 1003MOL0     C32292   3.367   7.288   0.371 -0.8680  0.2469  0.3183
 1003MOL0     C32293   3.267   7.231   0.277  0.3767 -0.2211 -0.0212
 1003MOL0     O32294   3.175   7.306   0.206 -0.4740  0.0224  0.0224
 1003MOL0     C32295   3.063   7.244   0.141 -1.8684  0.2852 -0.3303
 1003MOL0     C32296   2.955   7.189   0.206 -0.1671 -0.4171  0.7107
 1003MOL0     C32297   2.858   7.135   0.129  0.3029 -0.1987 -0.3006
 1003MOL0     C32298   2.866   7.124  -0.011  0.3329  0.3154 -0.0553
 1003MOL0     O32299   2.763   7.054  -0.075  0.6141  0.6908 -0.2973
 1003MOL0     C32300   2.746   7.078  -0.218  0.6897  0.5324 -0.7744
 1003MOL0     C32301   2.617   7.002  -0.265 -0.7819 -0.4019  0.1335
 1003MOL0     C32302   2.616   6.846  -0.243  0.7088 -0.0763  0.0977
 1003MOL0     C32303   2.479   6.795  -0.297 -0.3731 -0.0747  0.2451
 1003MOL0     C32304   2.459   6.645  -0.270  0.1461 -0.0218  0.3667
 1003MOL0     C32305   2.329   6.581  -0.331  0.0631  0.0207  0.5333
 1003MOL0     C32306   2.312   6.581  -0.480  0.8547 -0.7779  0.3341
 1003MOL0     C32307   2.248   6.442  -0.533  0.4964  0.4798 -0.2267
 1003MOL0    Cl32308   2.118   6.375  -0.446  0.2057 -0.0354  0.4141
 1003MOL0     C32309   2.981   7.177  -0.075  0.4760 -0.3079 -1.1842
 1003MOL0     C32310   3.078   7.228   0.006 -0.2726  0.3155  0.0060
 1003MOL0     O32311   3.271   7.112   0.271 -0.2379  0.0728 -1.3215
 1003MOL0     C32312   3.456   7.207   0.444  0.7726 -0.1716  0.2073
 1003MOL0     C32313   3.554   7.273   0.526 -0.2664  0.5433  0.1764
 1003MOL0     N32314   3.839   8.048   0.915 -0.5477 -0.1701 -0.5714
 1003MOL0     N32315   3.885   8.168   0.914  0.0011 -0.3939  0.0193
 1003MOL0     C32316   5.097   8.453   0.831  0.2663 -0.0493 -0.5823
 1003MOL0     C32317   5.225   8.408   0.873 -0.1937  0.0544  0.2366
 1003MOL0     C32318   5.568   8.110   0.954 -0.8864  0.5093  0.4432
 1003MOL0     C32319   5.652   8.013   0.881  0.4416  0.4029  0.2059
 1003MOL0     C32320   5.784   8.002   0.915  0.8381  0.0957 -0.1068
 1003MOL0     C32321   5.837   8.077   1.025  1.0510 -0.3454  0.2981
 1003MOL0     O32322   5.971   8.062   1.055  0.0380 -0.3103  0.5178
 1003MOL0     C32323   6.041   8.189   1.069  0.3289 -0.1655  0.3074
 1003MOL0     C32324   6.194   8.181   1.042 -0.0825 -0.3418  0.5443
 1003MOL0     C32325   6.262   8.310   1.060 -0.4424 -0.8373  0.0449
 1003MOL0     C32326   6.414   8.285   1.053 -0.3940 -0.7234  0.5523
 1003MOL0     C32327   6.478   8.426   1.042  0.0140  0.2444  0.2410
 1003MOL0     C32328   6.528   8.530   1.025 -0.8576 -0.4310 -0.0330
 1003MOL0     C32329   5.748   8.156   1.106 -0.8478 -0.6531 -0.5344
 1003MOL0     C32330   5.615   8.173   1.066 -0.5583  0.4219  0.3317
 1003MOL0     H32331   5.155   8.114   1.007  2.2626  2.7018  1.7051
 1003MOL0     H32332   4.920   8.178   0.905 -0.6870  1.9631 -1.4278
 1003MOL0     H32333   4.907   8.553   0.667  0.3918 -2.6606 -0.4997
 1003MOL0     H32334   4.876   8.614   0.830 -1.1966  0.8900  0.4162
 1003MOL0     H32335   4.683   8.616   0.636  0.4326  1.2491  0.6891
 1003MOL0     H32336   4.675   8.645   0.816 -2.0189 -0.2861 -0.1338
 1003MOL0     H32337   4.598   8.426   0.862 -0.9954 -0.1885 -0.7490
 1003MOL0     H32338   4.624   8.370   0.695  2.5996  1.4934 -2.1694
 1003MOL0     H32339   4.438   8.592   0.781  0.2842  2.8265 -3.1911
 1003MOL0     H32340   4.450   8.524   0.618 -1.1085  1.7380  0.3593
 1003MOL0     H32341   4.372   8.379   0.874 -0.8149  0.7806 -0.8343
 1003MOL0     H32342   4.394   8.299   0.716 -1.6414 -0.5671 -1.0715
 1003MOL0     H32343   4.208   8.475   0.641  0.0468 -0.9962 -0.8956
 1003MOL0     H32344   4.170   8.481   0.818  0.2511 -2.0095  1.9352
 1003MOL0     H32345   4.156   8.248   0.637  2.3416 -1.2305  0.1203
 1003MOL0     H32346   4.166   8.229   0.818 -0.3134  0.6112  0.0754
 1003MOL0     H32347   3.930   8.336   0.639 -1.9725 -1.3680 -0.0887
 1003MOL0     H32348   3.946   8.401   0.790 -0.2543 -0.6642 -0.9119
 1003MOL0     H32349   3.891   8.076   0.590 -0.8738 -1.3794  0.4924
 1003MOL0     H32350   3.696   7.879   0.673  0.6065 -1.4144 -2.5838
 1003MOL0     H32351   3.744   7.824   0.842 -0.9810 -2.0287 -1.6091
 1003MOL0     H32352   3.967   7.773   0.757  0.1181  4.7114 -1.2683
 1003MOL0     H32353   3.911   7.797   0.596 -0.3983  1.1842 -0.3140
 1003MOL0     H32354   3.915   7.558   0.658  0.0617  0.7375 -2.6861
 1003MOL0     H32355   3.786   7.595   0.793 -2.3836  0.7522 -1.3808
 1003MOL0     H32356   3.734   7.640   0.506 -1.6264 -0.7114 -0.5361
 1003MOL0     H32357   3.627   7.635   0.650  0.6285 -0.4355  1.2359
 1003MOL0     H32358   3.483   7.592   0.459  1.7457 -0.1993  0.5550
 1003MOL0     H32359   3.329   7.498   0.313  0.7102  1.5292  1.9003
 1003MOL0     H32360   2.949   7.195   0.314 -1.0961  1.9265  0.5972
 1003MOL0     H32361   2.775   7.102   0.191 -1.3796  2.3347 -1.0092
 1003MOL0     H32362   2.836   7.035  -0.262 -0.0485 -1.3317 -0.5646
 1003MOL0     H32363   2.737   7.184  -0.241 -0.8977  0.4401 -0.6766
 1003MOL0     H32364   2.610   7.017  -0.373  2.0723  1.5352  0.0921
 1003MOL0     H32365   2.534   7.046  -0.210 -1.1897  0.4300 -1.1100
 1003MOL0     H32366   2.620   6.832  -0.135  1.5593  1.9853  0.3768
 1003MOL0     H32367   2.697   6.804  -0.304  1.0757  1.6317 -0.6447
 1003MOL0     H32368   2.397   6.860  -0.268  0.1621  0.2297  1.1081
 1003MOL0     H32369   2.481   6.809  -0.406  1.9306 -0.1257  0.2211
 1003MOL0     H32370   2.462   6.626  -0.163 -0.4614  2.2659  0.8393
 1003MOL0     H32371   2.542   6.592  -0.318 -1.5992 -0.7191 -2.1066
 1003MOL0     H32372   2.241   6.635  -0.295  1.5082  3.5924 -0.8602
 1003MOL0     H32373   2.327   6.479  -0.293 -1.6198  0.1986  0.9850
 1003MOL0     H32374   2.241   6.658  -0.512  1.3763 -0.2903  0.3454
 1003MOL0     H32375   2.409   6.595  -0.529 -0.1432 -0.3905 -1.6687
 1003MOL0     H32376   2.330   6.370  -0.524  1.7975  1.8287 -0.7196
 1003MOL0     H32377   2.226   6.458  -0.639 -0.3411  2.3103  0.1814
 1003MOL0     H32378   2.984   7.157  -0.182  1.2463  2.0368 -1.6404
 1003MOL0     H32379   3.166   7.270  -0.043  1.4000 -2.4281  0.4277
 1003MOL0     H32380   3.436   7.100   0.452  2.3116 -0.4222  1.1122
 1003MOL0     H32381   3.618   7.207   0.584 -1.7187 -0.6058  0.5392
 1003MOL0     H32382   5.090   8.558   0.804 -2.3139  0.2685  0.9702
 1003MOL0     H32383   5.310   8.474   0.869  0.1177 -0.3900 -0.7650
 1003MOL0     H32384   5.604   7.963   0.798 -1.0388 -0.9009  1.7699
 1003MOL0     H32385   5.851   7.937   0.859 -2.8452 -0.6943 -4.0619
 1003MOL0     H32386   6.021   8.222   1.172  2.1855  3.1732 -0.2522
 1003MOL0     H32387   6.000   8.256   0.993  0.3324 -0.1138  0.3504
 1003MOL0     H32388   6.246   8.108   1.105 -1.3501 -1.1232  0.7261
 1003MOL0     H32389   6.196   8.138   0.941  0.8483 -1.4652  1.0075
 1003MOL0     H32390   6.240   8.369   1.150 -0.3050  1.9979 -1.6468
 1003MOL0     H32391   6.226   8.367   0.974 -1.4080 -0.9153  0.3830
 1003MOL0     H32392   6.458   8.232   1.138  0.8862 -1.0777 -0.3035
 1003MOL0     H32393   6.439   8.231   0.962 -2.6880 -1.6067  0.3926
 1003MOL0     H32394   6.563   8.627   0.995 -1.8550 -0.2636 -0.7395
 1003MOL0     H32395   5.789   8.219   1.184 -1.3246 -0.1660 -0.6742
 1003MOL0     H32396   5.548   8.222   1.136 -0.8854  0.1384  0.2181
 1004MOL0     O32397   1.463   1.151   9.256 -0.3961  0.2550 -0.9422
 1004MOL0     C32398   1.455   1.138   9.133 -0.0654 -0.2027 -0.5023
 1004MOL0     O32399   1.563   1.130   9.045  0.6030  0.1838  0.3441
 1004MOL0     C32400   1.681   1.123   9.110 -0.3656  0.1767 -0.2941
 1004MOL0     C32401   1.749   1.242   9.128  0.0815 -0.8075 -0.0238
 1004MOL0     C32402   1.875   1.244   9.186 -0.3069  0.6738  0.1127
 1004MOL0     C32403   1.935   1.126   9.229  1.3583  0.3095  0.2518
 1004MOL0     O32404   2.050   1.115   9.293  0.4233 -0.8067  0.4917
 1004MOL0     C32405   2.069   1.197   9.404  0.3661 -0.0218 -0.3966
 1004MOL0     C32406   2.162   1.320   9.381  0.8740 -0.6508 -0.1974
 1004MOL0     C32407   2.305   1.290   9.407  0.0477 -0.4923  0.0238
 1004MOL0     C32408   2.397   1.388   9.342  0.5218 -0.2872  0.0348
 1004MOL0     C32409   2.540   1.376   9.383 -0.8129 -0.0644  0.0972
 1004MOL0     C32410   2.620   1.482   9.301  0.4219 -0.5410  0.6137
 1004MOL0     C32411   2.771   1.473   9.316  0.0411  0.3443  0.0677
 1004MOL0     C32412   2.832   1.344   9.275 -0.6797  0.2788 -0.1197
 1004MOL0     N32413   2.982   1.349   9.289  0.3133 -0.0199 -0.0459
 1004MOL0     C32414   3.062   1.446   9.240  0.1052 -0.2768 -0.4064
 1004MOL0     C32415   3.190   1.401   9.253  0.1755 -1.4066 -0.2739
 1004MOL0     C32416   3.309   1.487   9.210  0.1845  0.1245 -0.0967
 1004MOL0     C32417   3.309   1.640   9.245 -0.3516  0.2432  1.2748
 1004MOL0     C32418   3.309   1.663   9.400 -0.1837  1.4248 -0.2517
 1004MOL0     C32419   3.262   1.811   9.437 -0.7878  0.0730  0.9310
 1004MOL0     O32420   3.131   1.834   9.391 -0.7355 -0.4297 -0.2523
 1004MOL0     C32421   3.019   1.789   9.469 -0.5711 -0.0340 -0.6096
 1004MOL0     C32422   2.890   1.824   9.434 -0.2776 -0.5343 -0.4472
 1004MOL0     C32423   2.776   1.787   9.507  0.3105  1.0254  0.4680
 1004MOL0     C32424   2.785   1.710   9.629 -0.4336 -0.6126  0.5728
 1004MOL0     C32425   2.664   1.667   9.705 -0.3680  0.1061  0.6730
 1004MOL0     O32426   2.546   1.658   9.631  1.0403 -0.0817 -0.4443
 1004MOL0     C32427   2.436   1.598   9.688 -0.4232 -0.9533 -0.1429
 1004MOL0     C32428   2.448   1.469   9.740 -0.1063 -0.4079 -0.2705
 1004MOL0     C32429   2.337   1.403   9.789  0.8706  0.1780  0.2552
 1004MOL0     C32430   2.208   1.466   9.781  0.5775 -0.9585  0.6396
 1004MOL0     O32431   2.094   1.406   9.826 -0.4783  0.5663 -0.1033
 1004MOL0     C32432   1.992   1.491   9.875 -0.5166 -0.2955 -0.3621
 1004MOL0     C32433   1.895   1.392   9.946  0.3023 -0.8433 -1.0522
 1004MOL0     C32434   1.769   1.471   9.992 -0.5344 -0.8228  0.5875
 1004MOL0     C32435   1.689   1.405  10.103  1.0355  0.2454  0.3606
 1004MOL0     C32436   1.551   1.483  10.118 -1.0369 -0.4767  0.1180
 1004MOL0     C32437   1.576   1.628  10.172  0.4160 -0.3336 -0.2736
 1004MOL0     C32438   1.440   1.695  10.179  0.0427 -0.5636 -0.9570
 1004MOL0     C32439   1.454   1.849  10.201 -0.8037  0.0450 -0.5447
 1004MOL0    Cl32440   1.536   1.882  10.360 -0.2964  0.4247  0.4654
 1004MOL0     C32441   2.201   1.590   9.722  0.0694  0.4310 -0.5910
 1004MOL0     C32442   2.313   1.646   9.663 -0.6099 -0.1098  0.1591
 1004MOL0     O32443   2.677   1.632   9.819 -0.1662 -0.3294 -0.7609
 1004MOL0     C32444   2.921   1.665   9.656  1.2091  0.1186 -0.0496
 1004MOL0     C32445   3.028   1.710   9.579 -1.0916 -0.3909  0.4369
 1004MOL0     N32446   3.184   1.278   9.304 -0.5861  0.0047  0.4595
 1004MOL0     N32447   3.064   1.253   9.340  0.3306  0.2968 -0.0648
 1004MOL0     C32448   1.866   1.003   9.210 -0.1873 -0.8742 -0.5866
 1004MOL0     C32449   1.740   0.999   9.159 -0.2495  0.1149 -0.2982
 1004MOL0     C32450   1.320   1.124   9.071  0.4546  0.2215 -0.1430
 1004MOL0     C32451   1.293   1.058   8.953  0.1202  0.5055 -0.0437
 1004MOL0     C32452   1.165   1.040   8.894  0.2730  0.1623 -0.7459
 1004MOL0     C32453   1.049   1.081   8.971 -0.2980 -0.6029 -0.2719
 1004MOL0     O32454   0.920   1.080   8.922 -0.0609  0.0654  0.0173
 1004MOL0     C32455   0.887   1.046   8.781  0.0247  0.4545 -0.5262
 1004MOL0     C32456   0.753   1.095   8.746 -0.4268  0.2429  0.4836
 1004MOL0     C32457   0.636   1.010   8.800  0.4386  0.5235 -0.1796
 1004MOL0     C32458   0.510   1.073   8.736 -0.3479 -0.4266 -0.2948
 1004MOL0     C32459   0.394   1.008   8.788 -1.1295 -0.3344 -0.3382
 1004MOL0     C32460   0.299   0.944   8.828 -0.6038 -0.9896  0.6371
 1004MOL0     C32461   1.075   1.144   9.093  0.1997 -0.5380 -0.5360
 1004MOL0     C32462   1.203   1.157   9.141 -0.3618  0.4205  0.2560
 1004MOL0     H32463   1.709   1.338   9.096  0.2454  0.1799  2.4579
 1004MOL0     H32464   1.931   1.336   9.197 -0.0688  0.4700  0.6629
 1004MOL0     H32465   2.110   1.137   9.486 -1.4596 -0.2232  0.4163
 1004MOL0     H32466   1.972   1.235   9.437 -1.9144 -3.0651 -2.8993
 1004MOL0     H32467   2.126   1.398   9.449 -1.7832 -0.7997 -1.3102
 1004MOL0     H32468   2.160   1.364   9.281  1.0377  3.1930  1.2990
 1004MOL0     H32469   2.339   1.191   9.375 -0.3346 -0.5384 -0.2534
 1004MOL0     H32470   2.324   1.291   9.515  1.4610  1.3813 -0.1709
 1004MOL0     H32471   2.392   1.383   9.233  0.0542  0.2669  0.0243
 1004MOL0     H32472   2.364   1.490   9.364 -1.9118 -0.6705 -1.5003
 1004MOL0     H32473   2.571   1.279   9.341  1.3175  1.5790 -2.4698
 1004MOL0     H32474   2.560   1.369   9.490  1.9306 -1.9798 -0.4157
 1004MOL0     H32475   2.583   1.581   9.330  0.7594 -0.8218  2.0740
 1004MOL0     H32476   2.599   1.471   9.194 -1.0093 -1.1254  0.9356
 1004MOL0     H32477   2.820   1.555   9.263 -0.3071  0.9113  0.6109
 1004MOL0     H32478   2.791   1.500   9.420 -2.5660  1.5272  0.3568
 1004MOL0     H32479   2.806   1.327   9.170 -0.2588  0.8716 -0.3216
 1004MOL0     H32480   2.799   1.258   9.334  1.6982 -2.1440 -2.0053
 1004MOL0     H32481   3.035   1.542   9.198 -1.2356  0.3913  1.8038
 1004MOL0     H32482   3.316   1.477   9.101 -1.1856 -3.0061 -0.0238
 1004MOL0     H32483   3.396   1.435   9.250  0.1758 -1.6536 -2.2203
 1004MOL0     H32484   3.222   1.693   9.204  0.8540  0.1244 -1.7062
 1004MOL0     H32485   3.393   1.692   9.198  1.5500 -2.7824  1.0474
 1004MOL0     H32486   3.246   1.589   9.449 -3.3756  3.7730 -0.4690
 1004MOL0     H32487   3.411   1.652   9.439 -0.2670  2.8979  0.4571
 1004MOL0     H32488   3.324   1.883   9.384  0.9938 -2.6323 -0.9011
 1004MOL0     H32489   3.271   1.822   9.546  0.1619  2.0309  0.6888
 1004MOL0     H32490   2.877   1.886   9.346  4.7211 -1.1712 -1.9512
 1004MOL0     H32491   2.681   1.818   9.464  0.6800  1.4940 -0.0109
 1004MOL0     H32492   2.547   1.426   9.753  1.0513  1.4944 -2.1609
 1004MOL0     H32493   2.346   1.307   9.837  2.6955 -0.2556 -0.8429
 1004MOL0     H32494   1.937   1.554   9.804 -1.6859  1.3722  1.9006
 1004MOL0     H32495   2.029   1.572   9.940 -1.1035  0.8827 -1.4455
 1004MOL0     H32496   1.942   1.355  10.038  0.0660  2.9038  0.7586
 1004MOL0     H32497   1.877   1.306   9.881 -1.4521  0.5050 -2.4428
 1004MOL0     H32498   1.718   1.487   9.896  1.5131 -1.0571 -0.5894
 1004MOL0     H32499   1.798   1.566  10.037 -4.5838  0.5708  0.7023
 1004MOL0     H32500   1.670   1.298  10.091  2.0690  0.0012  0.8045
 1004MOL0     H32501   1.749   1.412  10.194  0.7351 -4.0010  1.0970
 1004MOL0     H32502   1.487   1.421  10.181 -0.8544  1.4623  2.3325
 1004MOL0     H32503   1.518   1.488  10.014  2.2570  0.3864 -1.0368
 1004MOL0     H32504   1.648   1.678  10.106  1.7521 -1.8008 -0.0013
 1004MOL0     H32505   1.624   1.624  10.270  2.0034 -0.6244 -1.0309
 1004MOL0     H32506   1.386   1.694  10.084 -0.0383 -3.1499 -0.9341
 1004MOL0     H32507   1.379   1.653  10.259  2.2905  1.4642  2.0617
 1004MOL0     H32508   1.350   1.886  10.200 -0.8234  0.0691  0.6634
 1004MOL0     H32509   1.522   1.889  10.126  1.6820  0.4638  1.7647
 1004MOL0     H32510   2.106   1.640   9.710 -0.0027  0.6403  0.7186
 1004MOL0     H32511   2.314   1.739   9.608  0.2884 -0.6624 -0.8095
 1004MOL0     H32512   2.929   1.611   9.750 -2.5942 -2.7157 -1.0820
 1004MOL0     H32513   3.130   1.689   9.611 -0.7250  2.0486  1.0965
 1004MOL0     H32514   1.916   0.915   9.249  3.4060  1.2848  0.1428
 1004MOL0     H32515   1.690   0.903   9.156  0.6383 -0.3510 -0.4653
 1004MOL0     H32516   1.383   1.036   8.895 -0.3047  0.9135 -0.8796
 1004MOL0     H32517   1.160   0.994   8.796 -2.3234  0.1178 -0.6656
 1004MOL0     H32518   0.899   0.939   8.759 -1.0516  0.2704 -0.2790
 1004MOL0     H32519   0.963   1.100   8.724  2.2589 -0.6413  1.2705
 1004MOL0     H32520   0.736   1.199   8.776 -4.3623 -0.0939 -0.0845
 1004MOL0     H32521   0.757   1.097   8.637  0.3746  0.3710  0.5096
 1004MOL0     H32522   0.649   1.023   8.907  1.2902 -3.9435  0.4864
 1004MOL0     H32523   0.636   0.906   8.766  0.6005 -0.2570  2.0807
 1004MOL0     H32524   0.502   1.181   8.752  1.6365 -0.5160  1.7317
 1004MOL0     H32525   0.523   1.054   8.629  0.9771 -0.0758 -0.2192
 1004MOL0     H32526   0.216   0.880   8.850  0.6705 -2.5630  1.0544
 1004MOL0     H32527   0.998   1.190   9.154  0.6898  0.7158 -0.8214
 1004MOL0     H32528   1.215   1.205   9.238  0.8737 -0.6034  0.6397
 1005MOL0     O32529   3.740   2.618   9.421 -0.2747 -0.3388  0.1700
 1005MOL0     C32530   3.860   2.627   9.455 -0.1252  0.1898  0.2917
 1005MOL0     O32531   3.914   2.574   9.570  0.8729  0.5122  0.4936
 1005MOL0     C32532   3.835   2.510   9.680 -0.1946 -0.9306 -0.2682
 1005MOL0     C32533   3.706   2.550   9.717 -0.1367  0.0651  0.3607
 1005MOL0     C32534   3.644   2.482   9.829  0.0645 -0.2773  0.4246
 1005MOL0     C32535   3.714   2.385   9.899  0.4973  0.5082  0.2513
 1005MOL0     O32536   3.664   2.303   9.992  0.2234 -0.8871 -0.4039
 1005MOL0     C32537   3.536   2.331  10.053 -0.3789  0.4975  0.1056
 1005MOL0     C32538   3.511   2.253  10.178 -0.1691 -0.1930  0.1448
 1005MOL0     C32539   3.363   2.269  10.222  0.5441  0.0566  0.0045
 1005MOL0     C32540   3.258   2.233  10.125 -0.4458 -0.1678  0.2949
 1005MOL0     C32541   3.133   2.214  10.199 -0.2420 -0.0751  0.1960
 1005MOL0     C32542   3.014   2.170  10.114 -0.2063  0.3884  0.4700
 1005MOL0     C32543   2.944   2.283  10.040 -0.9445  1.0885 -0.1425
 1005MOL0     C32544   2.908   2.401  10.121  0.2454 -0.2195 -0.3225
 1005MOL0     N32545   2.815   2.490  10.051 -0.7560 -0.4547 -0.5119
 1005MOL0     C32546   2.710   2.443   9.987 -1.0969 -0.7573  0.2869
 1005MOL0     C32547   2.656   2.547   9.916  0.7565 -0.2967 -0.7898
 1005MOL0     C32548   2.546   2.548   9.823  0.6920 -0.4331  0.5251
 1005MOL0     C32549   2.411   2.470   9.859 -0.3854 -0.5132 -0.0328
 1005MOL0     C32550   2.320   2.474   9.730 -0.3704  0.1833  0.6276
 1005MOL0     C32551   2.185   2.412   9.744  0.2792 -0.7742  0.3246
 1005MOL0     O32552   2.104   2.450   9.636 -0.5738 -0.7271 -0.2857
 1005MOL0     C32553   1.968   2.404   9.627 -0.4010 -0.2401  0.6045
 1005MOL0     C32554   1.882   2.475   9.546  0.5616  0.0182 -0.5482
 1005MOL0     C32555   1.751   2.431   9.542  0.5336  0.1921  0.0151
 1005MOL0     C32556   1.701   2.314   9.606 -0.4885 -0.3204  0.5436
 1005MOL0     C32557   1.557   2.269   9.592  0.4971 -0.4996  0.5134
 1005MOL0     O32558   1.530   2.145   9.660  0.1173 -0.0473  0.8558
 1005MOL0     C32559   1.398   2.117   9.658  0.0981  0.0953  0.1695
 1005MOL0     C32560   1.339   2.035   9.566  0.6148 -0.0101 -0.5344
 1005MOL0     C32561   1.201   2.023   9.564  0.1941 -0.0184 -1.0031
 1005MOL0     C32562   1.122   2.068   9.666  1.1550  0.7080  0.5266
 1005MOL0     O32563   0.982   2.035   9.666 -0.7476 -0.0938  0.3171
 1005MOL0     C32564   0.940   1.973   9.787  0.0097 -0.1213 -0.8813
 1005MOL0     C32565   1.017   1.842   9.829  0.6698 -0.3555  0.4440
 1005MOL0     C32566   0.949   1.792   9.954 -0.8062 -0.1459  0.2166
 1005MOL0     C32567   1.003   1.656   9.994  0.1399 -0.3426 -0.3572
 1005MOL0     C32568   0.927   1.594  10.117  0.7316 -0.5913 -0.3581
 1005MOL0     C32569   0.934   1.689  10.241 -0.2312 -0.9702  0.0729
 1005MOL0     C32570   1.079   1.713  10.274 -0.2336 -0.1148 -0.2801
 1005MOL0     C32571   1.107   1.728  10.419  0.3474  0.3835 -0.1764
 1005MOL0    Cl32572   1.091   1.579  10.509 -0.2765 -0.0647 -0.2979
 1005MOL0     C32573   1.184   2.150   9.762 -0.5886  0.4842  0.0662
 1005MOL0     C32574   1.319   2.174   9.754  0.0243 -0.0168 -0.2461
 1005MOL0     O32575   1.472   2.348   9.544 -0.5403  0.0313 -0.6872
 1005MOL0     C32576   1.797   2.242   9.679 -0.3208 -0.4775  0.0834
 1005MOL0     C32577   1.926   2.289   9.693 -0.6175 -0.0044 -0.5805
 1005MOL0     N32578   2.734   2.659   9.943  0.0532 -0.1974 -0.0061
 1005MOL0     N32579   2.811   2.627  10.037 -0.3646  0.2675 -0.7206
 1005MOL0     C32580   3.845   2.352   9.861  0.2609  0.1233  0.8455
 1005MOL0     C32581   3.903   2.416   9.752  0.6825  0.0643 -0.0596
 1005MOL0     C32582   3.938   2.701   9.361 -0.6313 -0.6405  1.2552
 1005MOL0     C32583   4.080   2.699   9.374 -0.6351  0.4861  0.0412
 1005MOL0     C32584   4.163   2.763   9.285 -0.4213 -0.3239  0.4550
 1005MOL0     C32585   4.109   2.819   9.162  0.1153  0.6553 -0.3595
 1005MOL0     O32586   4.183   2.873   9.059 -0.4650 -0.6330  0.2229
 1005MOL0     C32587   4.310   2.937   9.084 -0.2039  1.0323  0.4854
 1005MOL0     C32588   4.293   3.057   9.181 -0.1692  0.3738  0.1967
 1005MOL0     C32589   4.205   3.165   9.115 -0.7440  0.8718 -0.3707
 1005MOL0     C32590   4.107   3.231   9.214 -0.1251  0.1970 -0.6314
 1005MOL0     C32591   4.168   3.298   9.327 -0.1932  0.7561  0.3483
 1005MOL0     C32592   4.224   3.343   9.418  0.0461  0.2076 -0.3375
 1005MOL0     C32593   3.970   2.823   9.157  0.1452 -0.1379  0.2110
 1005MOL0     C32594   3.881   2.769   9.250 -0.3666 -0.4691 -0.8333
 1005MOL0     H32595   3.660   2.632   9.662 -1.5624 -0.6686  0.4376
 1005MOL0     H32596   3.540   2.506   9.851 -0.3168  0.7915 -2.1399
 1005MOL0     H32597   3.461   2.300   9.980 -1.0758 -0.4960  1.1949
 1005MOL0     H32598   3.531   2.435  10.088 -0.2721  0.1931  1.0795
 1005MOL0     H32599   3.589   2.282  10.249 -1.0733 -0.5502  1.3098
 1005MOL0     H32600   3.517   2.145  10.159 -3.7283 -0.6691  0.9308
 1005MOL0     H32601   3.350   2.371  10.258  1.2585  0.3471 -0.5406
 1005MOL0     H32602   3.351   2.211  10.314  0.4898  1.4492  0.9085
 1005MOL0     H32603   3.251   2.310  10.048  1.7227  1.1043  1.2780
 1005MOL0     H32604   3.291   2.139  10.079  3.7992 -0.1947  2.8638
 1005MOL0     H32605   3.104   2.300  10.259  0.1627 -1.9801  3.3572
 1005MOL0     H32606   3.157   2.133  10.269 -1.4777 -3.0088 -2.5268
 1005MOL0     H32607   2.944   2.120  10.182 -0.0818  1.5126  1.4667
 1005MOL0     H32608   3.060   2.100  10.044 -0.9511  0.3607  0.0042
 1005MOL0     H32609   3.001   2.324   9.956 -1.0596  3.6938  0.9610
 1005MOL0     H32610   2.852   2.238  10.003 -0.2303 -0.0472 -0.5673
 1005MOL0     H32611   3.001   2.455  10.142 -1.4863  2.3201  1.2252
 1005MOL0     H32612   2.857   2.379  10.215  0.7857  1.3208  0.3674
 1005MOL0     H32613   2.675   2.341   9.998 -1.3479 -1.0478 -2.5157
 1005MOL0     H32614   2.577   2.517   9.723  1.4309  3.2827 -0.5714
 1005MOL0     H32615   2.518   2.653   9.812  2.5731  0.1253  0.7121
 1005MOL0     H32616   2.369   2.521   9.946 -0.9631 -0.9141 -0.0712
 1005MOL0     H32617   2.450   2.370   9.881 -0.5601  0.0799  3.6805
 1005MOL0     H32618   2.329   2.576   9.693  1.6478 -0.1717  0.0281
 1005MOL0     H32619   2.372   2.406   9.661  0.4965  1.6213 -0.1721
 1005MOL0     H32620   2.146   2.448   9.839  1.4535  1.3846  0.0446
 1005MOL0     H32621   2.204   2.305   9.757 -2.5966 -1.0115  3.9979
 1005MOL0     H32622   1.912   2.557   9.481 -1.4846  0.3994 -1.0856
 1005MOL0     H32623   1.689   2.496   9.481 -2.1720 -0.9198  1.4157
 1005MOL0     H32624   1.396   1.987   9.487 -0.8973 -0.4738 -1.4090
 1005MOL0     H32625   1.157   1.955   9.492 -1.7279  1.2585 -1.0917
 1005MOL0     H32626   0.834   1.949   9.770 -1.0396  1.4620  2.5838
 1005MOL0     H32627   0.940   2.048   9.866 -1.3992  0.8867 -1.7824
 1005MOL0     H32628   1.125   1.862   9.837  0.2088  2.7191  0.0411
 1005MOL0     H32629   1.002   1.765   9.753  1.8635  0.5244 -0.7319
 1005MOL0     H32630   0.842   1.786   9.934 -0.7316  0.6020 -0.4770
 1005MOL0     H32631   0.968   1.865  10.032  5.7495  1.2053 -1.9679
 1005MOL0     H32632   1.002   1.591   9.906 -2.3106 -3.1590  1.5796
 1005MOL0     H32633   1.107   1.661  10.028 -0.0779 -0.5113  0.3404
 1005MOL0     H32634   0.975   1.501  10.150  2.3610  1.1769  2.7696
 1005MOL0     H32635   0.824   1.569  10.090  1.0936 -5.3781  1.7789
 1005MOL0     H32636   0.875   1.643  10.320 -2.2579 -0.3698 -1.0235
 1005MOL0     H32637   0.878   1.781  10.222 -1.3348 -1.1912  1.9974
 1005MOL0     H32638   1.146   1.637  10.234 -0.4829 -1.0319  0.9642
 1005MOL0     H32639   1.105   1.813  10.239  0.4175 -0.4513 -0.7643
 1005MOL0     H32640   1.036   1.800  10.462 -0.7116 -0.2656 -0.7907
 1005MOL0     H32641   1.204   1.778  10.427  0.2725  0.4698  0.2295
 1005MOL0     H32642   1.127   2.191   9.845  0.0572  1.4852  0.0238
 1005MOL0     H32643   1.363   2.232   9.834 -1.5675 -2.3496  2.5174
 1005MOL0     H32644   1.778   2.149   9.733  1.0569  0.4943  2.4003
 1005MOL0     H32645   2.007   2.235   9.741 -0.4627 -1.0925 -1.9969
 1005MOL0     H32646   3.898   2.266   9.900 -1.9049 -1.7408 -0.0470
 1005MOL0     H32647   4.002   2.386   9.723  1.4810  1.2128  1.3244
 1005MOL0     H32648   4.120   2.649   9.462  1.1739 -0.0085 -1.0305
 1005MOL0     H32649   4.268   2.756   9.312 -0.7392  0.7284  2.1299
 1005MOL0     H32650   4.336   2.970   8.983 -0.5782  0.2039  0.1064
 1005MOL0     H32651   4.377   2.866   9.133 -2.4796  1.2036  4.1692
 1005MOL0     H32652   4.241   3.022   9.272  1.2053 -1.5168  0.3252
 1005MOL0     H32653   4.395   3.094   9.197  0.6644 -0.8057 -1.9613
 1005MOL0     H32654   4.161   3.127   9.022  0.7497  0.0059 -0.7648
 1005MOL0     H32655   4.275   3.243   9.084 -0.5946  1.2602  0.8962
 1005MOL0     H32656   4.046   3.303   9.159 -1.4849  0.9247  1.7345
 1005MOL0     H32657   4.038   3.155   9.251 -1.5472  2.0251  0.6063
 1005MOL0     H32658   4.278   3.388   9.499 -1.0359  1.8475 -0.4835
 1005MOL0     H32659   3.937   2.865   9.062  0.8297 -1.1470 -0.4905
 1005MOL0     H32660   3.774   2.779   9.239 -0.3625 -0.9546 -1.3100
 1006MOL0     O32661   0.818   6.335   0.881  0.6995  0.3100 -0.1242
 1006MOL0     C32662   0.871   6.371   0.983 -0.5397 -0.2995 -0.2267
 1006MOL0     O32663   0.846   6.328   1.106  0.2188  0.6755 -0.7374
 1006MOL0     C32664   0.716   6.305   1.148 -0.6154 -0.0576  0.2463
 1006MOL0     C32665   0.594   6.359   1.090 -0.0744  0.6789  0.1585
 1006MOL0     C32666   0.466   6.320   1.144 -0.1136 -0.0113  0.6835
 1006MOL0     C32667   0.463   6.250   1.266  0.7537 -0.3541 -0.4287
 1006MOL0     O32668   0.341   6.231   1.320 -0.4723  0.6306  0.0975
 1006MOL0     C32669   0.318   6.312   1.430  0.2644  0.4131 -0.7141
 1006MOL0     C32670   0.164   6.314   1.472  1.0252 -0.5530 -0.1115
 1006MOL0     C32671   0.096   6.169   1.491 -0.7161 -0.5821  0.5110
 1006MOL0     C32672   0.173   6.081   1.598  0.8181 -0.0896  0.6686
 1006MOL0     C32673   0.108   5.951   1.623  0.9916 -0.0382 -0.7119
 1006MOL0     C32674   0.128   5.859   1.501 -0.1452  0.9196 -0.2659
 1006MOL0     C32675   0.273   5.828   1.460  0.3386 -0.4469  0.3315
 1006MOL0     C32676   0.376   5.781   1.558 -0.2236  0.8370 -0.6881
 1006MOL0     N32677   0.501   5.742   1.490  0.5702 -0.0549  0.6648
 1006MOL0     C32678   0.606   5.827   1.464 -0.0229  0.2430  0.1007
 1006MOL0     C32679   0.711   5.754   1.429 -0.3674  0.9273 -0.1506
 1006MOL0     C32680   0.846   5.799   1.380  0.3274 -0.1088  0.4830
 1006MOL0     C32681   0.966   5.808   1.470 -0.0435  0.0007  0.3295
 1006MOL0     C32682   0.972   5.928   1.571  0.3302  0.0299 -0.2222
 1006MOL0     C32683   0.880   5.914   1.692  0.0774  0.1176  0.3963
 1006MOL0     O32684   0.766   6.000   1.681 -0.5395  1.2436 -0.3152
 1006MOL0     C32685   0.666   5.965   1.762  0.1693  0.0192 -0.6395
 1006MOL0     C32686   0.577   6.070   1.763 -0.0626 -1.0620 -0.6782
 1006MOL0     C32687   0.462   6.060   1.840  0.3790  0.5834  0.3752
 1006MOL0     C32688   0.438   5.954   1.927 -0.2783 -0.1494  0.6428
 1006MOL0     C32689   0.317   5.972   2.007 -0.1398  0.0886 -1.4091
 1006MOL0     O32690   0.212   6.036   1.961  0.3724 -0.1386 -0.2493
 1006MOL0     C32691   0.082   6.033   2.007 -0.0618  0.9530 -0.1014
 1006MOL0     C32692  -0.016   6.087   1.928  0.6144 -0.5036 -1.2372
 1006MOL0     C32693  -0.146   6.090   1.965 -1.0119 -0.1935 -0.6630
 1006MOL0     C32694  -0.188   6.023   2.084 -0.0391 -0.1348  0.0346
 1006MOL0     O32695  -0.320   6.014   2.104  0.5243 -0.6105  0.5751
 1006MOL0     C32696  -0.373   6.001   2.238 -0.4580 -0.9926  0.8962
 1006MOL0     C32697  -0.521   6.030   2.274  0.2684  0.3394  0.9305
 1006MOL0     C32698  -0.585   6.151   2.196 -0.2373 -0.0037 -0.2052
 1006MOL0     C32699  -0.508   6.285   2.223  0.4998  0.3018  0.5870
 1006MOL0     C32700  -0.576   6.400   2.146 -0.1999 -0.4217  0.2137
 1006MOL0     C32701  -0.572   6.379   1.991  0.6928 -0.1950 -0.3054
 1006MOL0     C32702  -0.644   6.506   1.937  0.1815  0.5842  1.0447
 1006MOL0     C32703  -0.643   6.520   1.785  0.6558 -0.8377 -0.3133
 1006MOL0    Cl32704  -0.760   6.398   1.741 -0.1978 -0.0255  0.0726
 1006MOL0     C32705  -0.087   5.976   2.170 -0.6549 -0.4063  0.5502
 1006MOL0     C32706   0.048   5.985   2.133 -0.5579 -0.6041 -0.5207
 1006MOL0     O32707   0.321   5.894   2.103 -0.8301 -0.0792 -0.4746
 1006MOL0     C32708   0.538   5.862   1.943 -0.5150  1.1257 -0.1787
 1006MOL0     C32709   0.654   5.867   1.864  0.1752  0.0576 -0.3484
 1006MOL0     N32710   0.679   5.619   1.433  0.4000 -0.2509 -0.2109
 1006MOL0     N32711   0.551   5.621   1.457 -0.2469  0.0025  0.4963
 1006MOL0     C32712   0.584   6.209   1.331  0.5479 -0.4760  0.1669
 1006MOL0     C32713   0.706   6.233   1.269 -0.2252  0.2491 -0.5469
 1006MOL0     C32714   0.991   6.461   0.977 -0.3426  0.1202  0.7573
 1006MOL0     C32715   1.007   6.551   0.870 -0.1127 -0.5445  0.5404
 1006MOL0     C32716   1.106   6.658   0.862 -0.6399  0.4945 -0.4291
 1006MOL0     C32717   1.195   6.663   0.968 -1.0844  0.1610 -0.6938
 1006MOL0     O32718   1.297   6.763   0.979  0.4022 -0.1454 -0.1544
 1006MOL0     C32719   1.316   6.853   0.870  0.2706 -0.7983  0.0587
 1006MOL0     C32720   1.427   6.952   0.893 -0.0326 -0.1201 -0.6161
 1006MOL0     C32721   1.405   7.044   1.013 -0.8535  0.3299  0.8693
 1006MOL0     C32722   1.482   6.991   1.137  0.6687  0.2458 -0.3122
 1006MOL0     C32723   1.632   7.000   1.118 -0.2793  0.5267 -0.8278
 1006MOL0     C32724   1.757   6.988   1.128 -0.4095  0.2680  0.3847
 1006MOL0     C32725   1.187   6.567   1.073 -0.3457  0.9788 -0.6527
 1006MOL0     C32726   1.090   6.467   1.071  0.9744 -0.5007 -0.6946
 1006MOL0     H32727   0.597   6.425   1.004  0.7040  0.5683  0.0965
 1006MOL0     H32728   0.372   6.354   1.102  0.8683 -0.1769 -1.8248
 1006MOL0     H32729   0.336   6.417   1.403 -1.4315  1.0877  0.5896
 1006MOL0     H32730   0.373   6.276   1.517  0.5076 -0.9158 -1.4008
 1006MOL0     H32731   0.102   6.355   1.392 -1.5113 -1.4418  1.2768
 1006MOL0     H32732   0.144   6.380   1.557  0.8932  1.6430 -1.7870
 1006MOL0     H32733   0.089   6.113   1.397 -2.0275 -1.0026  0.8491
 1006MOL0     H32734  -0.008   6.180   1.523 -1.0617  0.3783 -0.8209
 1006MOL0     H32735   0.278   6.077   1.570  0.8032  1.9884  0.1697
 1006MOL0     H32736   0.169   6.142   1.688 -1.9038  0.7615  0.0762
 1006MOL0     H32737   0.005   5.977   1.644  2.3292  4.8015  1.1212
 1006MOL0     H32738   0.158   5.912   1.712 -0.3457  2.1615  1.1078
 1006MOL0     H32739   0.066   5.893   1.417 -1.9368 -1.2323  0.0973
 1006MOL0     H32740   0.083   5.762   1.524  1.2441  0.8290  2.4300
 1006MOL0     H32741   0.279   5.756   1.378  3.1181 -2.8557  2.4188
 1006MOL0     H32742   0.312   5.923   1.422  3.0481 -0.0026  3.6779
 1006MOL0     H32743   0.343   5.691   1.611  0.5804  0.9193 -0.0289
 1006MOL0     H32744   0.393   5.854   1.638  0.2973 -1.0022  0.9548
 1006MOL0     H32745   0.609   5.933   1.485  0.3384  0.3019 -0.2456
 1006MOL0     H32746   0.834   5.899   1.337 -0.1565 -0.8553 -1.2109
 1006MOL0     H32747   0.878   5.729   1.302  1.7876 -0.1086  1.0678
 1006MOL0     H32748   1.055   5.830   1.411 -0.3608 -0.5429 -0.3735
 1006MOL0     H32749   0.994   5.713   1.517  1.0619 -0.3913 -1.0452
 1006MOL0     H32750   1.072   5.950   1.608  0.2332  1.6574 -0.8256
 1006MOL0     H32751   0.948   6.013   1.506 -2.8374 -3.2412 -3.8841
 1006MOL0     H32752   0.937   5.950   1.778  1.3633 -0.4652 -0.1849
 1006MOL0     H32753   0.848   5.810   1.704  0.2334  0.2110  1.8369
 1006MOL0     H32754   0.608   6.159   1.709 -1.1318 -1.0407 -1.2819
 1006MOL0     H32755   0.392   6.143   1.845 -0.9570 -0.5887  1.8854
 1006MOL0     H32756   0.015   6.109   1.826  0.3619  0.7315 -1.0731
 1006MOL0     H32757  -0.225   6.132   1.904 -1.4216  0.5242  0.3437
 1006MOL0     H32758  -0.312   6.070   2.298  1.3504 -0.4067 -1.4406
 1006MOL0     H32759  -0.343   5.899   2.265  1.5281 -1.3385 -2.0690
 1006MOL0     H32760  -0.533   6.038   2.382 -1.2431  2.2641  0.6828
 1006MOL0     H32761  -0.587   5.948   2.245  1.5665  0.2657 -2.2471
 1006MOL0     H32762  -0.690   6.164   2.223  0.7407  0.9727  3.6436
 1006MOL0     H32763  -0.572   6.134   2.088 -0.4681  3.2250 -0.8550
 1006MOL0     H32764  -0.508   6.312   2.328  2.4897  1.2619  0.3850
 1006MOL0     H32765  -0.409   6.273   2.179 -0.9606  0.1956 -3.0808
 1006MOL0     H32766  -0.521   6.493   2.164  1.1290 -1.2401  0.5199
 1006MOL0     H32767  -0.676   6.403   2.190  0.5795 -2.5591  2.3050
 1006MOL0     H32768  -0.618   6.284   1.960  1.0016  0.1160 -1.7735
 1006MOL0     H32769  -0.471   6.385   1.951  1.5728  1.9579  1.9705
 1006MOL0     H32770  -0.745   6.499   1.977 -1.7045 -0.1611 -3.3455
 1006MOL0     H32771  -0.592   6.593   1.981 -0.4898 -0.2808  3.7559
 1006MOL0     H32772  -0.543   6.499   1.748  0.8438 -0.8504  0.1988
 1006MOL0     H32773  -0.677   6.620   1.757  0.8855 -0.4975  0.5885
 1006MOL0     H32774  -0.105   5.928   2.266  2.7205 -4.4325 -0.5377
 1006MOL0     H32775   0.118   5.936   2.200  1.3820 -0.3646 -2.2393
 1006MOL0     H32776   0.526   5.779   2.012  2.1576  0.8115  0.0229
 1006MOL0     H32777   0.731   5.796   1.889 -0.0019  0.2913  0.9002
 1006MOL0     H32778   0.568   6.163   1.428 -1.9644 -3.1788 -1.3701
 1006MOL0     H32779   0.798   6.201   1.317  0.6145  1.3111 -1.3971
 1006MOL0     H32780   0.934   6.537   0.790  0.1689 -1.7751  0.4778
 1006MOL0     H32781   1.100   6.729   0.780 -1.9203  1.1786  0.2349
 1006MOL0     H32782   1.224   6.912   0.857 -0.6068 -2.5081 -2.0202
 1006MOL0     H32783   1.326   6.806   0.772 -0.6232  2.5874 -1.8216
 1006MOL0     H32784   1.524   6.901   0.888  0.3845  0.7465 -1.9124
 1006MOL0     H32785   1.435   7.020   0.807 -0.9501 -0.4624 -0.9785
 1006MOL0     H32786   1.297   7.054   1.027 -1.3239 -2.3690 -0.2008
 1006MOL0     H32787   1.445   7.141   0.982  1.0358 -1.3402 -2.5889
 1006MOL0     H32788   1.442   7.037   1.228  2.9042  0.0653  0.8115
 1006MOL0     H32789   1.462   6.884   1.139  0.6608  0.2570  0.4193
 1006MOL0     H32790   1.860   6.964   1.142 -0.9485 -2.7370 -0.1214
 1006MOL0     H32791   1.257   6.563   1.156 -0.8032  1.0381 -0.2601
 1006MOL0     H32792   1.095   6.395   1.151 -0.7444  1.8422  1.7225
 1007MOL0     O32793   7.302  11.071   1.239 -0.0200  0.5122 -0.4852
 1007MOL0     C32794   7.371  10.972   1.270 -0.5490  0.6797 -0.1281
 1007MOL0     O32795   7.328  10.847   1.297  0.8767  0.9875 -0.2463
 1007MOL0     C32796   7.202  10.813   1.255  0.5523 -0.6008 -0.2460
 1007MOL0     C32797   7.146  10.844   1.129 -0.5786 -0.6362 -0.4914
 1007MOL0     C32798   7.028  10.790   1.093  0.2249 -0.3325  0.6261
 1007MOL0     C32799   6.948  10.716   1.181 -0.6295 -0.1662 -0.6822
 1007MOL0     O32800   6.818  10.688   1.162 -0.5205  0.5081  0.6912
 1007MOL0     C32801   6.730  10.787   1.100 -0.5292  0.2588  0.0129
 1007MOL0     C32802   6.595  10.712   1.069 -1.2402 -0.1634 -0.2034
 1007MOL0     C32803   6.607  10.598   0.967 -0.2014  0.5222  0.0907
 1007MOL0     C32804   6.459  10.537   0.964 -0.5627  0.2079  0.0568
 1007MOL0     C32805   6.461  10.404   0.885 -0.1015  1.0350  0.8652
 1007MOL0     C32806   6.420  10.283   0.966 -0.4165  0.3722 -1.0250
 1007MOL0     C32807   6.281  10.279   1.023 -0.3632  0.2492 -0.2538
 1007MOL0     C32808   6.246  10.154   1.097  1.4997 -0.2628  0.3220
 1007MOL0     N32809   6.104  10.175   1.141 -0.3028  0.2551 -0.0908
 1007MOL0     C32810   6.004  10.187   1.044 -0.1508  0.3227 -0.4457
 1007MOL0     C32811   5.901  10.233   1.114  0.0110  0.2618 -0.1635
 1007MOL0     C32812   5.785  10.292   1.049 -0.1568  0.0832  0.3359
 1007MOL0     C32813   5.649  10.241   1.103 -0.2642  0.2826  0.0414
 1007MOL0     C32814   5.618  10.109   1.037 -0.3413  0.0385  0.0881
 1007MOL0     C32815   5.499  10.043   1.097  0.3087  0.4314 -0.0029
 1007MOL0     O32816   5.456   9.933   1.010 -0.4732 -0.6238  0.0280
 1007MOL0     C32817   5.334   9.881   1.044 -0.1101  0.9084 -0.7476
 1007MOL0     C32818   5.236   9.938   1.129 -0.6156  0.5136 -0.0610
 1007MOL0     C32819   5.103   9.887   1.128  0.0223 -0.7386  0.0081
 1007MOL0     C32820   5.064   9.783   1.034 -0.9323  0.6751  0.1741
 1007MOL0     C32821   4.925   9.748   1.021  0.3428  0.3890 -0.7507
 1007MOL0     O32822   4.843   9.804   1.112  0.4088  0.1072 -0.4832
 1007MOL0     C32823   4.706   9.786   1.091  0.0599 -0.0519 -0.9691
 1007MOL0     C32824   4.624   9.890   1.045 -0.7450 -0.2485  0.5529
 1007MOL0     C32825   4.481   9.864   1.020 -0.4704  0.1018 -0.0042
 1007MOL0     C32826   4.428   9.736   1.041 -0.6967 -0.1052  0.1696
 1007MOL0     O32827   4.305   9.728   1.001  0.2631  0.2095 -0.1283
 1007MOL0     C32828   4.235   9.623   1.068  0.0653  0.4679  0.0888
 1007MOL0     C32829   4.090   9.674   1.076 -0.7977 -0.7344  0.0437
 1007MOL0     C32830   4.004   9.559   1.132 -0.3234 -0.2553  1.1168
 1007MOL0     C32831   3.855   9.593   1.123  0.6937  0.3451 -0.2847
 1007MOL0     C32832   3.764   9.489   1.198 -0.2294 -0.1923  0.2133
 1007MOL0     C32833   3.628   9.570   1.242 -0.3876  0.5773 -0.5600
 1007MOL0     C32834   3.539   9.594   1.124 -0.3576 -0.0858 -0.4644
 1007MOL0     C32835   3.405   9.655   1.139 -0.3003  0.8116 -0.6544
 1007MOL0    Cl32836   3.275   9.544   1.179 -0.3127  0.0299 -0.0658
 1007MOL0     C32837   4.509   9.637   1.093 -0.6159 -0.0535 -0.9759
 1007MOL0     C32838   4.644   9.664   1.114  0.3270 -0.3611  0.8402
 1007MOL0     O32839   4.898   9.667   0.938 -0.1678  0.1376 -0.1248
 1007MOL0     C32840   5.165   9.724   0.952 -0.5450  0.2517  0.6449
 1007MOL0     C32841   5.295   9.768   0.966 -1.1987 -0.1827 -0.7333
 1007MOL0     N32842   5.941  10.241   1.249  0.5336 -0.6144 -0.1053
 1007MOL0     N32843   6.064  10.217   1.267  0.2722 -0.3761  0.0904
 1007MOL0     C32844   7.003  10.671   1.304 -0.1316  0.1014  0.1818
 1007MOL0     C32845   7.137  10.725   1.340 -0.0427  0.1599  0.3632
 1007MOL0     C32846   7.523  10.998   1.274 -0.1183  0.1586  1.1905
 1007MOL0     C32847   7.612  10.893   1.308 -1.2691 -0.0400  0.3889
 1007MOL0     C32848   7.749  10.915   1.321  0.1697  0.2610 -0.4039
 1007MOL0     C32849   7.801  11.041   1.298  0.9453 -0.7539 -0.0660
 1007MOL0     O32850   7.927  11.084   1.295 -0.0569  0.2317  0.2037
 1007MOL0     C32851   8.031  10.989   1.314  0.0792 -0.4149  0.0182
 1007MOL0     C32852   8.172  11.036   1.292  1.1846  0.2319 -0.1576
 1007MOL0     C32853   8.173  11.109   1.164  0.2286 -0.2695  0.0846
 1007MOL0     C32854   8.315  11.138   1.127 -0.7001 -0.5030 -0.3476
 1007MOL0     C32855   8.319  11.240   1.019 -0.7171  1.0919  0.0285
 1007MOL0     C32856   8.324  11.334   0.941  0.0510 -0.3593 -0.0205
 1007MOL0     C32857   7.716  11.147   1.268 -0.3686  0.3445  0.2268
 1007MOL0     C32858   7.577  11.128   1.254 -0.0393 -0.5181  0.4327
 1007MOL0     H32859   7.207  10.903   1.060  2.3471 -1.6902  1.0130
 1007MOL0     H32860   6.989  10.825   0.998  0.5065 -1.5274  0.0494
 1007MOL0     H32861   6.766  10.829   1.006 -0.9140 -0.9892 -0.7142
 1007MOL0     H32862   6.723  10.866   1.175 -0.3414  1.3471 -1.0824
 1007MOL0     H32863   6.525  10.787   1.030 -0.4441  1.2824  1.0233
 1007MOL0     H32864   6.547  10.684   1.164 -0.7139  0.2598  0.1920
 1007MOL0     H32865   6.674  10.522   1.008 -2.0070 -1.1234  0.0760
 1007MOL0     H32866   6.647  10.638   0.873  1.8855  0.8760  1.0766
 1007MOL0     H32867   6.426  10.522   1.067 -2.2044 -0.7677 -0.5632
 1007MOL0     H32868   6.388  10.605   0.916  1.7362  1.0366 -2.4486
 1007MOL0     H32869   6.562  10.393   0.846 -0.6970 -0.8715 -0.2344
 1007MOL0     H32870   6.385  10.394   0.807 -1.3724  0.9078  2.0870
 1007MOL0     H32871   6.488  10.286   1.051  1.1227  0.4920 -2.2210
 1007MOL0     H32872   6.439  10.191   0.910 -2.7418  0.3404 -1.8769
 1007MOL0     H32873   6.275  10.363   1.093  1.1622 -0.5717  0.9183
 1007MOL0     H32874   6.210  10.305   0.944 -2.8668 -0.1289  1.7231
 1007MOL0     H32875   6.300  10.143   1.191 -0.2185  1.2131  1.5328
 1007MOL0     H32876   6.257  10.064   1.035  0.9088  0.0978 -0.3222
 1007MOL0     H32877   6.022  10.164   0.939  3.9738 -1.0124  0.3607
 1007MOL0     H32878   5.779  10.284   0.940 -2.9902  2.1708  0.2077
 1007MOL0     H32879   5.794  10.396   1.084 -0.2028  0.3366 -0.3933
 1007MOL0     H32880   5.568  10.311   1.080 -0.5138  0.3385  1.0520
 1007MOL0     H32881   5.647  10.249   1.212 -1.1299  2.9077 -0.0961
 1007MOL0     H32882   5.594  10.115   0.931  0.3218  3.0862  0.0313
 1007MOL0     H32883   5.699  10.038   1.052 -2.2539 -2.1957  0.4738
 1007MOL0     H32884   5.417  10.115   1.106 -2.6440 -2.6945  0.0100
 1007MOL0     H32885   5.525   9.992   1.190 -2.6232 -0.9519  0.1914
 1007MOL0     H32886   5.253  10.022   1.195 -0.0017  0.1475  0.2533
 1007MOL0     H32887   5.030   9.931   1.195  0.5067  0.2739 -0.1002
 1007MOL0     H32888   4.667   9.990   1.041  0.1098 -0.5768  1.4364
 1007MOL0     H32889   4.426   9.945   0.972 -0.0681  0.3719 -0.0147
 1007MOL0     H32890   4.268   9.607   1.171 -2.5267 -1.1030  0.7601
 1007MOL0     H32891   4.240   9.533   1.006 -1.7058  0.0487  0.5027
 1007MOL0     H32892   4.052   9.700   0.977  0.1990 -0.1605 -0.1995
 1007MOL0     H32893   4.077   9.764   1.136  0.4207 -0.8842  0.5766
 1007MOL0     H32894   4.038   9.533   1.233 -2.0197 -0.5494  1.6399
 1007MOL0     H32895   4.030   9.470   1.073  3.6343  1.9063 -0.8360
 1007MOL0     H32896   3.841   9.687   1.177  0.9207 -2.3876  5.2393
 1007MOL0     H32897   3.820   9.607   1.020 -1.3301 -1.4264  0.0999
 1007MOL0     H32898   3.812   9.472   1.294  1.0983 -2.1761 -0.7414
 1007MOL0     H32899   3.744   9.398   1.141 -1.0697  2.4863 -4.3300
 1007MOL0     H32900   3.654   9.667   1.287 -2.7688  1.4043 -0.8108
 1007MOL0     H32901   3.572   9.521   1.322 -3.7190  1.8957 -1.9195
 1007MOL0     H32902   3.593   9.659   1.056  0.3474  1.9290  1.8963
 1007MOL0     H32903   3.524   9.501   1.068 -0.7531 -1.4786  1.8252
 1007MOL0     H32904   3.383   9.688   1.037  1.0020 -0.6029 -1.4308
 1007MOL0     H32905   3.408   9.740   1.208 -2.3872  0.1161  0.3646
 1007MOL0     H32906   4.468   9.538   1.109  0.2288 -0.1885  0.4887
 1007MOL0     H32907   4.714   9.588   1.148  0.5736 -0.8663 -0.6929
 1007MOL0     H32908   5.149   9.644   0.881  0.0355  2.6858 -2.4403
 1007MOL0     H32909   5.366   9.721   0.899  0.0056  1.4053 -0.6254
 1007MOL0     H32910   6.945  10.616   1.377 -0.0825  0.7129  0.6805
 1007MOL0     H32911   7.177  10.684   1.432 -1.0264 -0.0518  0.7052
 1007MOL0     H32912   7.579  10.794   1.339  1.2492 -1.7047 -1.7647
 1007MOL0     H32913   7.813  10.834   1.354  0.0537 -0.2148 -1.2954
 1007MOL0     H32914   8.009  10.911   1.241  0.8876 -0.1994 -0.4623
 1007MOL0     H32915   8.025  10.939   1.411  0.8620 -1.2696 -0.3692
 1007MOL0     H32916   8.207  11.094   1.378  0.8926  1.2080 -0.6840
 1007MOL0     H32917   8.232  10.945   1.286 -0.1253 -0.5627 -2.2059
 1007MOL0     H32918   8.115  11.202   1.165 -0.1306 -0.2839 -3.8719
 1007MOL0     H32919   8.126  11.048   1.085  1.1296 -0.3170 -0.4239
 1007MOL0     H32920   8.359  11.169   1.222  1.3705  1.4111 -1.8360
 1007MOL0     H32921   8.367  11.045   1.102 -1.3555 -1.0056  0.1229
 1007MOL0     H32922   8.321  11.426   0.886 -1.8091  1.1253  2.3331
 1007MOL0     H32923   7.749  11.251   1.261  0.2454  0.2647  1.6137
 1007MOL0     H32924   7.508  11.208   1.231  0.7393 -0.4397 -1.8820
 1008MOL0     O32925   6.302   1.087   8.141 -0.2888 -0.2779 -0.4839
 1008MOL0     C32926   6.312   1.163   8.041 -0.4657 -0.3153 -0.8068
 1008MOL0     O32927   6.209   1.212   7.973 -0.4297 -0.6936  0.7916
 1008MOL0     C32928   6.082   1.157   7.997  0.5325  0.0476 -0.4728
 1008MOL0     C32929   6.011   1.179   8.114 -0.1850  0.0858  0.1737
 1008MOL0     C32930   5.881   1.123   8.130  0.3132  0.4320 -0.6613
 1008MOL0     C32931   5.826   1.033   8.034 -0.1415 -0.2658 -0.2767
 1008MOL0     O32932   5.702   0.978   8.060  0.2903  0.5748 -0.5437
 1008MOL0     C32933   5.627   0.901   7.966 -0.1797 -0.4518  0.3104
 1008MOL0     C32934   5.481   0.880   8.003  0.7838  0.3324  0.2111
 1008MOL0     C32935   5.456   0.739   8.062  0.1163  0.0905  0.0805
 1008MOL0     C32936   5.315   0.728   8.118  0.1364 -0.0204 -0.4510
 1008MOL0     C32937   5.269   0.589   8.166 -0.6227 -0.0993  0.0197
 1008MOL0     C32938   5.119   0.588   8.200 -0.2769  0.5376 -0.1391
 1008MOL0     C32939   5.078   0.458   8.272 -0.1333  0.5369 -0.3720
 1008MOL0     C32940   4.939   0.491   8.335 -0.1797  0.6165  0.0513
 1008MOL0     N32941   4.858   0.374   8.377 -0.1595 -0.4196  0.1959
 1008MOL0     C32942   4.878   0.278   8.471  0.8614 -0.0497 -0.5162
 1008MOL0     C32943   4.784   0.182   8.448 -0.0152  0.2349  0.1519
 1008MOL0     C32944   4.747   0.061   8.533 -0.5339 -0.2959 -0.0279
 1008MOL0     C32945   4.870  -0.028   8.572 -0.1564  0.5815  0.5303
 1008MOL0     C32946   4.819  -0.154   8.637  0.1630 -0.0433 -0.4244
 1008MOL0     C32947   4.800  -0.128   8.784  1.1255  0.0089  0.4659
 1008MOL0     O32948   4.742  -0.236   8.866  0.7737  0.5719 -0.4301
 1008MOL0     C32949   4.604  -0.257   8.859  1.3756 -0.3950 -0.2149
 1008MOL0     C32950   4.508  -0.187   8.784 -0.2390  0.2795 -0.1179
 1008MOL0     C32951   4.369  -0.213   8.800  0.2407  0.0647  0.1559
 1008MOL0     C32952   4.325  -0.310   8.888  0.1277  0.2909 -0.0978
 1008MOL0     C32953   4.181  -0.336   8.904  0.0106  0.0350  0.5902
 1008MOL0     O32954   4.099  -0.254   8.819  0.1909  0.3121 -0.2082
 1008MOL0     C32955   3.962  -0.273   8.832  0.0016  0.1352 -0.2660
 1008MOL0     C32956   3.884  -0.335   8.729  0.1723  0.4934  0.2258
 1008MOL0     C32957   3.738  -0.339   8.748 -1.3273 -0.9178  0.0891
 1008MOL0     C32958   3.683  -0.307   8.875 -0.2161 -0.0364  0.2025
 1008MOL0     O32959   3.550  -0.316   8.908  0.4994 -0.5132 -0.0327
 1008MOL0     C32960   3.444  -0.334   8.814 -0.2913  0.4096 -0.2012
 1008MOL0     C32961   3.338  -0.378   8.915  1.1611  0.3989  0.7709
 1008MOL0     C32962   3.206  -0.361   8.840  0.0771  0.2824  0.3710
 1008MOL0     C32963   3.092  -0.387   8.937 -0.4014 -0.2002 -0.1622
 1008MOL0     C32964   2.964  -0.419   8.859  0.0972  0.2101  0.4943
 1008MOL0     C32965   2.856  -0.443   8.961 -0.4403  0.0657  0.0950
 1008MOL0     C32966   2.724  -0.461   8.887  0.4255  0.8979  0.4121
 1008MOL0     C32967   2.606  -0.484   8.975  0.4396 -0.1548 -0.3125
 1008MOL0    Cl32968   2.568  -0.353   9.082 -0.2247  0.1959 -0.0602
 1008MOL0     C32969   3.768  -0.266   8.973  1.3641 -0.5133  0.0245
 1008MOL0     C32970   3.902  -0.232   8.954 -0.2758  0.4115  0.5563
 1008MOL0     O32971   4.148  -0.425   8.984  0.1238  0.0165 -0.1660
 1008MOL0     C32972   4.416  -0.380   8.960 -0.3836 -0.4449 -0.1136
 1008MOL0     C32973   4.553  -0.354   8.943  0.1466  0.2306 -0.2950
 1008MOL0     N32974   4.714   0.218   8.341 -0.0838 -0.1620  0.1800
 1008MOL0     N32975   4.756   0.326   8.291 -0.1395  0.2495  0.0543
 1008MOL0     C32976   5.895   1.020   7.916 -0.3378  0.0844 -0.5067
 1008MOL0     C32977   6.028   1.081   7.902  0.2793  0.7659  0.7255
 1008MOL0     C32978   6.443   1.212   8.012 -0.4611 -0.0170 -0.3096
 1008MOL0     C32979   6.456   1.321   7.925  0.6138 -0.4131 -0.2264
 1008MOL0     C32980   6.587   1.363   7.885 -1.4277  0.7383 -0.4000
 1008MOL0     C32981   6.698   1.301   7.934 -0.2796  0.4080 -0.0185
 1008MOL0     O32982   6.830   1.333   7.899 -0.0331 -0.0824 -0.5921
 1008MOL0     C32983   6.851   1.466   7.841  0.2393 -0.0453  0.2250
 1008MOL0     C32984   6.999   1.489   7.861 -1.0149 -0.0071  0.3658
 1008MOL0     C32985   7.056   1.621   7.818 -0.0087 -0.1610 -0.1276
 1008MOL0     C32986   7.213   1.631   7.831  0.3421 -0.0480 -0.4056
 1008MOL0     C32987   7.289   1.516   7.766  0.0840  0.4942 -0.3719
 1008MOL0     C32988   7.340   1.436   7.694 -0.1966  0.3729 -0.1993
 1008MOL0     C32989   6.684   1.193   8.022 -1.0954 -0.2889  0.2497
 1008MOL0     C32990   6.562   1.147   8.059  0.1966 -0.0495  0.0848
 1008MOL0     H32991   6.062   1.234   8.192  1.0412  0.8617 -1.1273
 1008MOL0     H32992   5.825   1.145   8.220  0.4545  0.6031 -0.6139
 1008MOL0     H32993   5.679   0.807   7.944 -0.2352  0.0196 -2.1257
 1008MOL0     H32994   5.617   0.957   7.873 -2.0972 -0.0537  0.7209
 1008MOL0     H32995   5.411   0.890   7.919  0.1366  2.6928  0.9683
 1008MOL0     H32996   5.456   0.960   8.073  2.9991  0.8962  0.4371
 1008MOL0     H32997   5.527   0.721   8.143  0.9033  0.0237 -0.6059
 1008MOL0     H32998   5.483   0.660   7.991  0.8093 -1.8929  2.4237
 1008MOL0     H32999   5.304   0.792   8.206  2.1691 -0.6703  0.3422
 1008MOL0     H33000   5.246   0.776   8.048  1.9117  1.1461 -1.4613
 1008MOL0     H33001   5.323   0.549   8.253  0.1709 -1.3211 -1.0048
 1008MOL0     H33002   5.288   0.522   8.082 -3.9898  0.3989 -1.2718
 1008MOL0     H33003   5.062   0.599   8.108  1.1863  0.5021 -1.0852
 1008MOL0     H33004   5.100   0.679   8.257 -0.0156  0.0191  0.8006
 1008MOL0     H33005   5.069   0.378   8.198  0.1248 -2.4101  2.5492
 1008MOL0     H33006   5.143   0.435   8.357 -0.1802  1.2851 -0.1272
 1008MOL0     H33007   4.876   0.561   8.278 -1.6145  0.2287  1.1257
 1008MOL0     H33008   4.963   0.547   8.426  0.9047  0.5985 -0.2073
 1008MOL0     H33009   4.954   0.268   8.548 -2.2771 -1.9296  2.6581
 1008MOL0     H33010   4.696   0.004   8.455  3.3665 -1.7225 -1.7358
 1008MOL0     H33011   4.679   0.085   8.616  0.4548  1.7611  0.2618
 1008MOL0     H33012   4.936   0.032   8.636  1.0019  1.8702 -1.7305
 1008MOL0     H33013   4.932  -0.052   8.485 -0.1919 -3.2214  1.3694
 1008MOL0     H33014   4.730  -0.176   8.577 -0.4303 -1.0692  0.7740
 1008MOL0     H33015   4.891  -0.233   8.613  1.1114  1.4940 -3.1707
 1008MOL0     H33016   4.734  -0.042   8.797 -0.1331 -1.1613  2.2714
 1008MOL0     H33017   4.902  -0.111   8.820  0.6214  2.2299  0.9566
 1008MOL0     H33018   4.532  -0.120   8.702  0.3655 -2.4191 -2.3261
 1008MOL0     H33019   4.309  -0.155   8.731  0.4606  1.3910  1.0446
 1008MOL0     H33020   3.927  -0.367   8.635 -0.8866  1.3748 -0.5770
 1008MOL0     H33021   3.677  -0.365   8.662 -0.9963 -2.1984  0.2245
 1008MOL0     H33022   3.464  -0.402   8.731  0.4288  1.1153 -0.6257
 1008MOL0     H33023   3.431  -0.232   8.775 -0.8758  0.9742  1.3822
 1008MOL0     H33024   3.329  -0.322   9.009  2.6283  3.0295 -0.5365
 1008MOL0     H33025   3.352  -0.485   8.928 -0.0135  0.0915 -0.3447
 1008MOL0     H33026   3.206  -0.441   8.766 -0.7705 -0.5883  1.2749
 1008MOL0     H33027   3.191  -0.269   8.783  0.1089 -0.5621 -1.0342
 1008MOL0     H33028   3.114  -0.471   9.003 -2.1936  0.9358  1.9911
 1008MOL0     H33029   3.080  -0.295   8.995  0.9559  2.3231 -3.5512
 1008MOL0     H33030   2.969  -0.507   8.794 -4.9730  0.1297 -0.1938
 1008MOL0     H33031   2.942  -0.330   8.798  2.0243 -0.4518 -1.2890
 1008MOL0     H33032   2.843  -0.359   9.030  1.7474  1.0754 -0.6394
 1008MOL0     H33033   2.879  -0.521   9.035  0.6328  0.2405 -0.0354
 1008MOL0     H33034   2.702  -0.370   8.830  0.0437  0.6859  0.2242
 1008MOL0     H33035   2.735  -0.537   8.810 -2.2935  1.4722 -0.6501
 1008MOL0     H33036   2.633  -0.582   9.015 -1.5920 -1.9891 -3.0501
 1008MOL0     H33037   2.520  -0.489   8.907 -1.0341  0.7593  1.3971
 1008MOL0     H33038   3.726  -0.244   9.070  2.9068 -0.8355  0.7975
 1008MOL0     H33039   3.959  -0.179   9.030  0.5047  1.5263 -0.7556
 1008MOL0     H33040   4.389  -0.456   9.033 -0.9322  1.5036  1.7879
 1008MOL0     H33041   4.624  -0.408   9.004 -1.3544 -0.2386  1.0949
 1008MOL0     H33042   5.846   0.954   7.845 -0.1381 -2.4934  1.6007
 1008MOL0     H33043   6.089   1.070   7.813 -0.8244 -1.4689  0.1847
 1008MOL0     H33044   6.372   1.377   7.887  0.5873 -0.1507  0.2102
 1008MOL0     H33045   6.592   1.440   7.810 -2.3989  0.8515 -0.3659
 1008MOL0     H33046   6.789   1.542   7.889 -2.0348 -2.3350  1.1834
 1008MOL0     H33047   6.818   1.467   7.737 -0.7204 -0.5794  0.5105
 1008MOL0     H33048   7.017   1.485   7.969  3.5251 -2.7122 -0.2153
 1008MOL0     H33049   7.041   1.404   7.807 -0.8260 -0.8221  1.7590
 1008MOL0     H33050   7.007   1.695   7.883 -1.6919 -1.5625  0.2918
 1008MOL0     H33051   7.025   1.630   7.714  3.0447 -0.6264 -1.1810
 1008MOL0     H33052   7.258   1.720   7.785  0.1721  1.4614  2.1289
 1008MOL0     H33053   7.238   1.633   7.938  2.2137 -1.0636 -0.7829
 1008MOL0     H33054   7.367   1.347   7.640 -2.4113 -0.6559  0.2753
 1008MOL0     H33055   6.778   1.152   8.056 -0.8811 -0.9694 -1.0995
 1008MOL0     H33056   6.552   1.055   8.116 -0.5199  0.4610  0.7953
 1009MOL0     O33057   8.128   2.627   3.893  0.1016  0.1587 -0.5242
 1009MOL0     C33058   8.227   2.695   3.925  0.3892  0.0323  1.0306
 1009MOL0     O33059   8.225   2.803   4.000  0.1046 -0.6350  0.3099
 1009MOL0     C33060   8.110   2.861   4.047 -0.8679 -0.0402  0.5022
 1009MOL0     C33061   8.019   2.785   4.129 -0.3282  0.0553  0.1334
 1009MOL0     C33062   7.893   2.838   4.150  0.7387 -0.1029 -0.5856
 1009MOL0     C33063   7.856   2.967   4.116 -0.4283  0.1017  0.1786
 1009MOL0     O33064   7.741   3.036   4.147 -0.3463  0.3583 -0.2703
 1009MOL0     C33065   7.617   2.971   4.184  0.3437  0.3039 -0.1363
 1009MOL0     C33066   7.514   3.078   4.194  0.4501 -0.3129  0.3274
 1009MOL0     C33067   7.376   3.017   4.231  0.6619 -0.1235  0.0442
 1009MOL0     C33068   7.267   3.130   4.226 -0.4752 -0.2416 -1.2524
 1009MOL0     C33069   7.148   3.093   4.315  0.0519 -0.1014 -0.4145
 1009MOL0     C33070   7.075   2.960   4.274 -0.6889 -0.1884  0.0774
 1009MOL0     C33071   7.031   2.952   4.124 -0.1800  0.0131 -0.7206
 1009MOL0     C33072   6.931   2.844   4.094 -0.6528  0.5254  0.3619
 1009MOL0     N33073   6.797   2.893   4.114  0.7443  0.2197  0.2940
 1009MOL0     C33074   6.722   2.877   4.230  0.5060  0.3010  0.1461
 1009MOL0     C33075   6.601   2.918   4.196  0.8072 -1.0336 -0.3795
 1009MOL0     C33076   6.478   2.906   4.282 -0.0605  0.4360  0.6006
 1009MOL0     C33077   6.379   3.006   4.240 -0.2762  0.0690 -0.4930
 1009MOL0     C33078   6.262   3.000   4.340  0.2833  1.4343 -0.5303
 1009MOL0     C33079   6.132   3.056   4.274 -1.2973  0.3695  0.4141
 1009MOL0     O33080   6.080   2.976   4.170  0.4132  0.4427 -0.8945
 1009MOL0     C33081   5.945   2.986   4.133  0.4342 -0.2575 -0.7775
 1009MOL0     C33082   5.841   3.051   4.195 -0.6868  0.2103  0.1030
 1009MOL0     C33083   5.706   3.032   4.151  0.1335  0.4875  0.0148
 1009MOL0     C33084   5.681   2.956   4.037  0.6653 -0.2187 -0.2151
 1009MOL0     C33085   5.548   2.946   3.976  0.2470 -0.1151 -0.1393
 1009MOL0     O33086   5.544   2.861   3.874  0.4719  0.3944  0.8436
 1009MOL0     C33087   5.423   2.822   3.813 -0.7105 -0.3723 -0.3204
 1009MOL0     C33088   5.428   2.764   3.685 -0.0053 -0.3357 -0.2210
 1009MOL0     C33089   5.310   2.714   3.622 -0.2360 -0.8083  0.1258
 1009MOL0     C33090   5.186   2.715   3.688 -0.0512 -1.0190 -0.0636
 1009MOL0     O33091   5.067   2.668   3.636  0.3945 -0.0227  0.3076
 1009MOL0     C33092   5.054   2.664   3.495 -0.2832 -0.6022  0.6838
 1009MOL0     C33093   4.930   2.585   3.457  0.0422  0.8102  0.6076
 1009MOL0     C33094   4.809   2.668   3.490 -0.2598  0.0138  0.4406
 1009MOL0     C33095   4.691   2.585   3.436 -0.1384  0.1001 -0.1909
 1009MOL0     C33096   4.556   2.658   3.431  0.9198 -0.3093  1.0206
 1009MOL0     C33097   4.442   2.567   3.392  0.4566 -0.1799 -0.0168
 1009MOL0     C33098   4.307   2.633   3.415 -0.4462 -0.2303  0.2693
 1009MOL0     C33099   4.208   2.538   3.361 -0.8027  0.1832 -0.2346
 1009MOL0    Cl33100   4.230   2.386   3.456 -0.1039  0.0829 -0.7413
 1009MOL0     C33101   5.190   2.742   3.825 -0.4243  0.2690  0.0794
 1009MOL0     C33102   5.303   2.799   3.886 -0.0413 -0.8363  0.4949
 1009MOL0     O33103   5.451   3.009   4.019  0.0267 -0.1945 -0.2403
 1009MOL0     C33104   5.793   2.892   3.976  0.0704 -0.4994  0.0789
 1009MOL0     C33105   5.917   2.913   4.023 -0.2585 -0.4054 -0.4257
 1009MOL0     N33106   6.601   2.953   4.060 -0.2429 -0.5278  0.4277
 1009MOL0     N33107   6.719   2.937   4.012  0.1472  0.0584 -0.5770
 1009MOL0     C33108   7.949   3.046   4.043 -0.4873 -0.3439  0.1056
 1009MOL0     C33109   8.072   2.989   4.013 -0.1393  0.4858  1.2038
 1009MOL0     C33110   8.353   2.645   3.868 -0.0848 -1.1031 -0.8147
 1009MOL0     C33111   8.473   2.719   3.890 -0.0023 -0.1958  0.2063
 1009MOL0     C33112   8.600   2.662   3.854  0.2975  0.0016  0.1881
 1009MOL0     C33113   8.602   2.540   3.785 -0.3325  0.8092 -0.7317
 1009MOL0     O33114   8.713   2.471   3.741 -0.7724  0.5341 -0.2533
 1009MOL0     C33115   8.840   2.505   3.794 -0.8879  0.5592 -1.0426
 1009MOL0     C33116   8.931   2.381   3.750 -0.5735 -0.2294  0.7890
 1009MOL0     C33117   9.067   2.386   3.817 -0.7990  0.7327 -0.2975
 1009MOL0     C33118   9.152   2.266   3.783  0.0196 -0.2982 -0.3352
 1009MOL0     C33119   9.210   2.273   3.647  0.0305 -0.9902 -0.0367
 1009MOL0     C33120   9.255   2.274   3.532  0.0416  0.2080  0.4020
 1009MOL0     C33121   8.483   2.483   3.741 -0.3631 -0.1198 -0.0888
 1009MOL0     C33122   8.359   2.536   3.786  0.0238  0.6793  0.3044
 1009MOL0     H33123   8.042   2.684   4.163 -0.1396 -0.0767 -0.3717
 1009MOL0     H33124   7.822   2.788   4.215  1.6012  0.2762  0.6942
 1009MOL0     H33125   7.633   2.911   4.274  2.1854 -2.9558 -2.4164
 1009MOL0     H33126   7.593   2.900   4.105 -0.2710 -0.4141  0.6718
 1009MOL0     H33127   7.505   3.131   4.098  3.8927 -0.4386 -0.1898
 1009MOL0     H33128   7.550   3.157   4.260 -1.9911  1.0306  0.1982
 1009MOL0     H33129   7.386   2.974   4.331 -0.6569  1.0989  0.7344
 1009MOL0     H33130   7.343   2.937   4.163 -0.7987 -0.4973  1.1503
 1009MOL0     H33131   7.307   3.224   4.265 -1.0483 -0.2251 -0.6735
 1009MOL0     H33132   7.225   3.142   4.126 -1.1293 -0.4339 -1.0083
 1009MOL0     H33133   7.075   3.174   4.322 -1.2153 -1.0367 -2.0790
 1009MOL0     H33134   7.191   3.078   4.415 -2.4024 -1.5468  0.5131
 1009MOL0     H33135   6.988   2.947   4.339 -1.6320 -2.6347 -1.5126
 1009MOL0     H33136   7.133   2.870   4.296 -2.7195 -2.1648 -2.0105
 1009MOL0     H33137   6.999   3.048   4.082 -1.8400  1.3534  3.1010
 1009MOL0     H33138   7.117   2.919   4.067 -0.3264  0.7719 -1.4032
 1009MOL0     H33139   6.938   2.748   4.146  1.4888  0.4117 -0.0459
 1009MOL0     H33140   6.947   2.816   3.989  0.8622  3.0963 -0.1676
 1009MOL0     H33141   6.756   2.852   4.330 -3.1421  1.5732  1.8761
 1009MOL0     H33142   6.509   2.926   4.385 -0.9877  3.8451  0.3346
 1009MOL0     H33143   6.427   2.810   4.274 -1.0571  0.8354  1.8772
 1009MOL0     H33144   6.342   2.972   4.143 -0.9860  0.6748 -0.4472
 1009MOL0     H33145   6.430   3.102   4.225  0.0962  0.2830  1.8557
 1009MOL0     H33146   6.258   2.896   4.374 -0.2127  1.7752  0.4962
 1009MOL0     H33147   6.286   3.059   4.429 -2.2734 -2.2785  3.0045
 1009MOL0     H33148   6.168   3.147   4.226 -1.1395  0.5602  0.8946
 1009MOL0     H33149   6.065   3.095   4.351 -0.8100 -1.7895  2.0335
 1009MOL0     H33150   5.861   3.126   4.270 -2.0522  0.3889  0.3141
 1009MOL0     H33151   5.626   3.087   4.200 -0.7523 -1.7200  1.2311
 1009MOL0     H33152   5.519   2.766   3.627  0.9768 -1.5846  1.2118
 1009MOL0     H33153   5.318   2.681   3.519 -1.8373 -0.2821 -0.1856
 1009MOL0     H33154   5.141   2.616   3.451  1.2303  1.2001  1.5561
 1009MOL0     H33155   5.057   2.769   3.461 -0.1003 -0.5700  0.7992
 1009MOL0     H33156   4.922   2.484   3.499 -0.4805 -0.2814 -1.9271
 1009MOL0     H33157   4.939   2.578   3.348 -1.8546 -0.6278  0.4953
 1009MOL0     H33158   4.808   2.762   3.435  0.4191  0.1763  0.6934
 1009MOL0     H33159   4.798   2.682   3.598  0.7569  2.2766  0.3063
 1009MOL0     H33160   4.706   2.549   3.334  0.0639  3.4387 -1.4513
 1009MOL0     H33161   4.692   2.490   3.491 -1.2154  0.1165 -0.1225
 1009MOL0     H33162   4.562   2.743   3.364 -0.1253 -0.1585  1.1084
 1009MOL0     H33163   4.535   2.698   3.531  2.6600 -0.7117  1.5813
 1009MOL0     H33164   4.453   2.478   3.455 -3.8432 -1.3051 -0.5592
 1009MOL0     H33165   4.450   2.552   3.284 -3.3986  1.6117 -0.7316
 1009MOL0     H33166   4.280   2.654   3.519 -1.3431  1.9884 -0.3406
 1009MOL0     H33167   4.312   2.726   3.358  1.5308  0.3432  1.2635
 1009MOL0     H33168   4.224   2.513   3.256 -1.3863 -3.3685  0.4059
 1009MOL0     H33169   4.107   2.577   3.378 -0.3575  0.9422  0.7520
 1009MOL0     H33170   5.111   2.701   3.887  1.2451 -0.1729  2.0094
 1009MOL0     H33171   5.312   2.810   3.994 -0.7958  0.6826  0.4248
 1009MOL0     H33172   5.777   2.824   3.893 -3.2755 -0.6284  0.6649
 1009MOL0     H33173   6.008   2.867   3.986  1.7303  2.6638  0.2772
 1009MOL0     H33174   7.916   3.143   4.007  1.6187 -0.0078 -1.0729
 1009MOL0     H33175   8.150   3.051   3.970 -0.5461  0.7288  0.7982
 1009MOL0     H33176   8.469   2.817   3.938 -0.0378  0.5341 -1.2313
 1009MOL0     H33177   8.697   2.703   3.881  0.5236 -1.5064  1.9097
 1009MOL0     H33178   8.841   2.529   3.900 -0.8363 -0.0311 -0.9037
 1009MOL0     H33179   8.873   2.597   3.746  0.0347  1.3418  0.9965
 1009MOL0     H33180   8.887   2.289   3.790 -2.1626  0.0051 -0.3156
 1009MOL0     H33181   8.948   2.361   3.644 -0.0212  1.6450  0.4934
 1009MOL0     H33182   9.062   2.378   3.926  0.0428  0.7725 -0.2481
 1009MOL0     H33183   9.127   2.475   3.796  4.0227 -1.7081  1.5884
 1009MOL0     H33184   9.230   2.262   3.860 -0.5248  3.0265  0.5386
 1009MOL0     H33185   9.093   2.174   3.789 -0.5735  0.1478  1.0534
 1009MOL0     H33186   9.292   2.264   3.433  1.1127 -0.8834  0.8841
 1009MOL0     H33187   8.492   2.395   3.678  0.5236 -0.7381  0.8718
 1009MOL0     H33188   8.274   2.474   3.757  0.3746  0.3821 -0.1228
 1010MOL0     O33189   6.322   2.190   4.794  0.1974 -0.4572 -0.3686
 1010MOL0     C33190   6.371   2.167   4.687  0.6493  0.7721  0.1044
 1010MOL0     O33191   6.505   2.141   4.663  0.1994 -0.3372 -0.6758
 1010MOL0     C33192   6.593   2.215   4.741 -0.2122 -0.0718  0.7126
 1010MOL0     C33193   6.646   2.338   4.695 -0.0420  0.8078  0.2065
 1010MOL0     C33194   6.745   2.402   4.766 -0.7310 -0.6308 -0.6034
 1010MOL0     C33195   6.777   2.359   4.894 -0.4497 -0.5188 -0.1443
 1010MOL0     O33196   6.870   2.429   4.961  0.7053 -0.0216  0.4378
 1010MOL0     C33197   6.884   2.414   5.104 -0.2661  0.7498 -0.9517
 1010MOL0     C33198   6.972   2.527   5.175 -1.1219  0.2132  0.7812
 1010MOL0     C33199   7.123   2.504   5.146  0.3411 -0.0915 -0.7148
 1010MOL0     C33200   7.214   2.599   5.230  0.3692  0.4274  0.3573
 1010MOL0     C33201   7.352   2.532   5.263  0.0949  0.0538  0.1894
 1010MOL0     C33202   7.439   2.645   5.316 -0.0225 -0.3145  0.6146
 1010MOL0     C33203   7.540   2.595   5.419 -0.2937 -0.0325 -0.0578
 1010MOL0     C33204   7.615   2.707   5.482 -0.3643  0.0070 -0.0836
 1010MOL0     N33205   7.707   2.774   5.386 -0.3825 -0.7630  0.3814
 1010MOL0     C33206   7.669   2.867   5.290  0.1397 -0.1351  0.5336
 1010MOL0     C33207   7.778   2.873   5.199  0.0471 -0.1845 -0.0314
 1010MOL0     C33208   7.791   2.932   5.056 -0.6058 -0.4606 -0.8630
 1010MOL0     C33209   7.735   3.071   5.035 -0.3065  0.3023 -0.2301
 1010MOL0     C33210   7.828   3.184   5.094  0.0049  0.4129  0.4909
 1010MOL0     C33211   7.815   3.314   5.017  0.5951 -0.1142  0.1291
 1010MOL0     O33212   7.692   3.394   5.028  0.2347  0.0613 -0.1304
 1010MOL0     C33213   7.648   3.455   5.145 -0.3458 -0.8623 -0.5959
 1010MOL0     C33214   7.509   3.465   5.168 -0.4398 -0.7239 -0.3655
 1010MOL0     C33215   7.461   3.511   5.291 -0.2366 -0.5361  0.4179
 1010MOL0     C33216   7.545   3.555   5.397  0.0798  0.5234  0.1609
 1010MOL0     C33217   7.489   3.600   5.527  0.1741 -0.7525  0.3448
 1010MOL0     O33218   7.579   3.665   5.612  0.3897 -0.6283  0.5753
 1010MOL0     C33219   7.534   3.713   5.731  0.5172  0.1781  1.1511
 1010MOL0     C33220   7.546   3.843   5.755 -0.6029 -0.3399 -0.2924
 1010MOL0     C33221   7.500   3.900   5.884 -0.0195 -0.2074 -0.1659
 1010MOL0     C33222   7.440   3.816   5.984 -0.1476 -0.3867  0.3244
 1010MOL0     O33223   7.399   3.863   6.111  0.5373  0.5478  0.5044
 1010MOL0     C33224   7.311   3.969   6.113 -0.0518  1.0157  0.8018
 1010MOL0     C33225   7.318   4.028   6.255 -0.0218 -1.0928 -0.0912
 1010MOL0     C33226   7.301   3.932   6.379 -1.1128 -0.2374 -0.8108
 1010MOL0     C33227   7.155   3.890   6.405  0.0261 -0.3964  0.3935
 1010MOL0     C33228   7.137   3.821   6.537 -0.2141  0.0897  0.3806
 1010MOL0     C33229   6.983   3.796   6.568 -0.7109 -0.1046  0.0916
 1010MOL0     C33230   6.955   3.763   6.715  0.5848 -0.6086  0.2513
 1010MOL0     C33231   6.810   3.783   6.755  0.2019 -0.2928 -0.1058
 1010MOL0    Cl33232   6.796   3.751   6.935  0.1561 -0.4608  0.4750
 1010MOL0     C33233   7.428   3.678   5.955  0.9775 -0.1922 -0.6712
 1010MOL0     C33234   7.477   3.628   5.834  1.1945  0.3481 -0.3454
 1010MOL0     O33235   7.373   3.576   5.552 -0.1036 -0.6107 -0.4657
 1010MOL0     C33236   7.685   3.542   5.374  0.8554 -0.4067 -0.7746
 1010MOL0     C33237   7.741   3.494   5.248  0.7364 -0.1042 -0.3578
 1010MOL0     N33238   7.880   2.796   5.260 -0.0539 -0.4412 -0.0460
 1010MOL0     N33239   7.842   2.743   5.371 -0.4338  0.1035  1.1952
 1010MOL0     C33240   6.732   2.234   4.941  1.1728 -0.4144  0.2047
 1010MOL0     C33241   6.635   2.168   4.867 -0.0446  0.1802  0.0414
 1010MOL0     C33242   6.264   2.150   4.579 -0.0400  0.1337 -0.3468
 1010MOL0     C33243   6.127   2.120   4.601  0.5532  0.4794 -0.3422
 1010MOL0     C33244   6.036   2.104   4.501 -0.6280  0.1476 -0.7106
 1010MOL0     C33245   6.078   2.112   4.368  0.1097  0.0896  0.6003
 1010MOL0     O33246   5.986   2.088   4.259  0.1934 -0.5055  0.5730
 1010MOL0     C33247   5.845   2.106   4.290  0.7951 -0.3101 -0.0303
 1010MOL0     C33248   5.763   2.143   4.166 -0.2010 -0.0845 -0.0054
 1010MOL0     C33249   5.616   2.144   4.199 -0.7249  0.5116 -0.6126
 1010MOL0     C33250   5.525   2.151   4.081 -0.0576  0.3811  0.0884
 1010MOL0     C33251   5.390   2.178   4.133 -0.1781  0.1874 -0.3399
 1010MOL0     C33252   5.293   2.218   4.195 -0.1077  0.8155 -0.7480
 1010MOL0     C33253   6.212   2.135   4.340  0.6008  0.6916  1.1820
 1010MOL0     C33254   6.310   2.163   4.444  0.1152  0.0409 -0.1597
 1010MOL0     H33255   6.617   2.360   4.592  0.8154 -1.2932 -0.5424
 1010MOL0     H33256   6.797   2.490   4.729 -1.1996  0.9121  2.1851
 1010MOL0     H33257   6.913   2.312   5.129  0.3426  1.3668  1.0890
 1010MOL0     H33258   6.783   2.433   5.144 -0.2080  0.2806 -0.5725
 1010MOL0     H33259   6.941   2.531   5.280 -2.0829  3.3812  0.4772
 1010MOL0     H33260   6.929   2.625   5.153 -4.7917 -0.3840  4.1825
 1010MOL0     H33261   7.146   2.536   5.044 -0.0188  2.6716 -0.0197
 1010MOL0     H33262   7.155   2.400   5.153  0.2939 -0.0918 -0.5097
 1010MOL0     H33263   7.220   2.697   5.181 -1.0118 -0.2869 -1.3613
 1010MOL0     H33264   7.168   2.616   5.328  1.1882 -1.6983  1.1797
 1010MOL0     H33265   7.392   2.489   5.171 -1.2902  1.2734 -1.0307
 1010MOL0     H33266   7.344   2.445   5.329  3.8349 -0.6884 -0.1022
 1010MOL0     H33267   7.383   2.723   5.369 -0.9579 -1.6559  1.6795
 1010MOL0     H33268   7.485   2.689   5.228 -1.4928  0.3624  0.1716
 1010MOL0     H33269   7.474   2.546   5.491 -1.1156  3.9783  2.2907
 1010MOL0     H33270   7.619   2.528   5.387  0.1373  0.7188 -0.5993
 1010MOL0     H33271   7.661   2.656   5.567 -1.5243 -5.0219 -2.1498
 1010MOL0     H33272   7.548   2.783   5.523 -0.7300 -2.0227  3.4562
 1010MOL0     H33273   7.573   2.915   5.274  0.0140 -0.7483 -0.6735
 1010MOL0     H33274   7.741   2.864   4.986 -0.5177  1.7621 -3.2428
 1010MOL0     H33275   7.898   2.936   5.033 -0.3084 -0.5018  0.4419
 1010MOL0     H33276   7.637   3.086   5.081  0.0767  1.2248  0.3273
 1010MOL0     H33277   7.732   3.094   4.928  0.2737  2.4202  0.1542
 1010MOL0     H33278   7.810   3.199   5.201  1.0127  1.2813  0.5541
 1010MOL0     H33279   7.931   3.150   5.082 -0.2427 -0.4139  0.6406
 1010MOL0     H33280   7.853   3.297   4.916  3.8967  1.9254  0.8392
 1010MOL0     H33281   7.882   3.389   5.061 -1.7747  1.4794  1.2339
 1010MOL0     H33282   7.441   3.418   5.097  1.8444 -4.2524 -0.4814
 1010MOL0     H33283   7.356   3.515   5.318  0.1347  2.3173  1.7675
 1010MOL0     H33284   7.589   3.915   5.686 -0.1736  2.9811  3.0476
 1010MOL0     H33285   7.505   4.007   5.897 -1.1719  0.3247 -3.1425
 1010MOL0     H33286   7.213   3.935   6.080  0.5291  0.7707 -0.7478
 1010MOL0     H33287   7.336   4.052   6.045 -3.9011  0.1311 -2.0263
 1010MOL0     H33288   7.250   4.113   6.259 -0.2796 -1.3518  1.3310
 1010MOL0     H33289   7.417   4.073   6.269  0.0112 -1.4993  1.0313
 1010MOL0     H33290   7.346   3.977   6.468 -1.3419 -2.5126  0.5331
 1010MOL0     H33291   7.366   3.845   6.366 -0.7992 -0.1232 -0.0792
 1010MOL0     H33292   7.087   3.975   6.394  0.4975 -0.1456 -0.7459
 1010MOL0     H33293   7.125   3.819   6.326 -0.2072  1.3580 -1.1604
 1010MOL0     H33294   7.180   3.882   6.617  1.5070 -0.5597 -0.0106
 1010MOL0     H33295   7.187   3.724   6.537 -1.5054 -0.6416  2.1044
 1010MOL0     H33296   6.943   3.714   6.508 -2.4398  1.1012 -0.4900
 1010MOL0     H33297   6.918   3.878   6.535 -0.1451  1.7237  3.1303
 1010MOL0     H33298   6.992   3.662   6.737  3.3598  0.3171  0.3003
 1010MOL0     H33299   7.023   3.828   6.772  1.9426 -1.0034 -0.8582
 1010MOL0     H33300   6.748   3.715   6.698  2.1921 -1.8461 -0.5417
 1010MOL0     H33301   6.771   3.884   6.737 -1.0525 -0.8516 -0.6090
 1010MOL0     H33302   7.392   3.604   6.026 -2.5572 -3.9257 -5.6848
 1010MOL0     H33303   7.474   3.522   5.811 -2.9276  0.6755 -2.2068
 1010MOL0     H33304   7.749   3.579   5.452  0.8938  1.7460 -1.7730
 1010MOL0     H33305   7.848   3.503   5.229  1.0932  3.0699  2.1829
 1010MOL0     H33306   6.767   2.192   5.035 -2.3888 -0.6829  1.5657
 1010MOL0     H33307   6.589   2.076   4.899  0.5966 -0.5806 -1.1541
 1010MOL0     H33308   6.103   2.097   4.704 -2.5931 -0.9078 -1.2613
 1010MOL0     H33309   5.934   2.091   4.538  0.0593  0.5720  1.4661
 1010MOL0     H33310   5.818   2.177   4.368 -0.5016 -2.1801  1.3326
 1010MOL0     H33311   5.810   2.009   4.328 -0.2987 -0.6473 -1.7753
 1010MOL0     H33312   5.782   2.243   4.126  1.2681 -0.4602 -0.3141
 1010MOL0     H33313   5.798   2.079   4.084 -0.8517  1.2831 -1.4162
 1010MOL0     H33314   5.594   2.216   4.279 -0.6727 -0.4909  0.3140
 1010MOL0     H33315   5.599   2.048   4.248  1.8222  0.1713 -0.2475
 1010MOL0     H33316   5.558   2.226   4.008 -0.7634  2.0835  1.4535
 1010MOL0     H33317   5.518   2.048   4.043 -0.1936  0.9139 -1.3715
 1010MOL0     H33318   5.206   2.251   4.248 -0.3268  0.6326 -0.9894
 1010MOL0     H33319   6.236   2.130   4.235  2.7160 -0.1100  1.6616
 1010MOL0     H33320   6.413   2.186   4.420  0.1263 -2.5446 -3.4870
 1011MOL0     O33321   6.857   0.769   1.950  0.8740 -0.1580  0.2080
 1011MOL0     C33322   6.927   0.665   1.940  1.8309  0.2442 -0.1632
 1011MOL0     O33323   6.897   0.539   1.981 -0.0336 -0.2229  0.0081
 1011MOL0     C33324   6.774   0.490   2.014  0.6534 -0.0510  0.1858
 1011MOL0     C33325   6.750   0.356   1.987  0.3353 -1.3372  0.1735
 1011MOL0     C33326   6.635   0.292   2.021 -0.3658  0.7342 -0.3247
 1011MOL0     C33327   6.528   0.356   2.076  0.2240  0.6212 -0.1350
 1011MOL0     O33328   6.417   0.289   2.112 -0.5458 -0.4386  0.5413
 1011MOL0     C33329   6.299   0.361   2.164 -0.3159 -0.5168  0.0692
 1011MOL0     C33330   6.178   0.276   2.175 -0.3709  1.1019 -0.7965
 1011MOL0     C33331   6.111   0.285   2.045  1.1724  0.9825 -0.1213
 1011MOL0     C33332   5.993   0.191   2.048  0.5258  0.4857 -1.1305
 1011MOL0     C33333   5.878   0.230   2.146  0.4820  0.4946 -0.1560
 1011MOL0     C33334   5.766   0.129   2.159 -0.1754 -0.7108  0.5654
 1011MOL0     C33335   5.657   0.149   2.045 -0.2633 -0.1699 -0.2775
 1011MOL0     C33336   5.542   0.046   2.077  0.3408  0.1087 -0.0686
 1011MOL0     N33337   5.459   0.085   2.198  0.5644 -0.2731  0.9893
 1011MOL0     C33338   5.347   0.153   2.181 -0.1956  0.1911 -0.1762
 1011MOL0     C33339   5.298   0.181   2.303  0.1724  0.5401  0.3109
 1011MOL0     C33340   5.185   0.270   2.325  0.7963  0.3885  0.6822
 1011MOL0     C33341   5.066   0.208   2.399  0.3439  1.1875 -1.1255
 1011MOL0     C33342   4.967   0.312   2.454  0.6561  1.2449 -0.0392
 1011MOL0     C33343   4.853   0.232   2.514  0.0759  0.3830  0.4755
 1011MOL0     O33344   4.823   0.282   2.648 -0.3358 -0.2585  0.6507
 1011MOL0     C33345   4.733   0.220   2.724  0.1940 -0.2785 -0.2274
 1011MOL0     C33346   4.658   0.110   2.690 -0.9269  0.1698 -0.7024
 1011MOL0     C33347   4.558   0.059   2.766 -0.1382  0.1039 -0.1217
 1011MOL0     C33348   4.519   0.115   2.886 -0.4330 -0.3822  0.0668
 1011MOL0     C33349   4.403   0.061   2.961 -0.6138 -0.4790 -0.9273
 1011MOL0     O33350   4.345  -0.061   2.927  0.0763  0.1387 -0.2997
 1011MOL0     C33351   4.226  -0.114   2.975  0.1621  0.9150 -0.4243
 1011MOL0     C33352   4.194  -0.245   2.941 -0.9717  0.0122  0.9421
 1011MOL0     C33353   4.088  -0.305   2.991 -0.1680  0.3379 -0.0338
 1011MOL0     C33354   4.010  -0.245   3.088  0.1215  0.9838 -0.4482
 1011MOL0     O33355   3.907  -0.312   3.139 -0.5316 -0.1619  0.0509
 1011MOL0     C33356   3.861  -0.434   3.082  0.0667 -0.6328 -0.8147
 1011MOL0     C33357   3.738  -0.492   3.153 -0.8455 -0.1742 -0.9308
 1011MOL0     C33358   3.604  -0.420   3.146  0.8114  0.5406 -0.0257
 1011MOL0     C33359   3.487  -0.486   3.223  1.6942  0.0709 -0.5942
 1011MOL0     C33360   3.483  -0.637   3.183 -0.5408 -0.5383 -0.4620
 1011MOL0     C33361   3.344  -0.672   3.208  0.9416  0.3330 -0.1520
 1011MOL0     C33362   3.309  -0.814   3.160  0.6102  0.0255  0.5294
 1011MOL0     C33363   3.190  -0.872   3.245 -0.0024 -0.2643  0.5989
 1011MOL0    Cl33364   3.124  -1.025   3.185 -0.3109 -0.0735 -0.0723
 1011MOL0     C33365   4.042  -0.120   3.127 -0.9725  0.9398  0.8651
 1011MOL0     C33366   4.149  -0.049   3.077 -0.2764  0.4253  0.9397
 1011MOL0     O33367   4.374   0.127   3.056  0.1113  0.3395 -0.7362
 1011MOL0     C33368   4.582   0.235   2.913 -0.1731 -0.3524 -0.0416
 1011MOL0     C33369   4.694   0.279   2.845 -0.3879  0.1948  1.0198
 1011MOL0     N33370   5.385   0.118   2.394  0.2751 -0.1256 -0.5897
 1011MOL0     N33371   5.483   0.066   2.333  0.0978  0.3948  0.6999
 1011MOL0     C33372   6.543   0.490   2.107 -0.1800  0.5186 -0.0881
 1011MOL0     C33373   6.665   0.559   2.082 -0.5823 -0.1285  0.1246
 1011MOL0     C33374   7.055   0.674   1.863 -0.1943  0.2070 -0.6216
 1011MOL0     C33375   7.120   0.563   1.807 -0.2571 -0.5073  0.3747
 1011MOL0     C33376   7.237   0.570   1.740 -0.1515 -0.2444 -0.3262
 1011MOL0     C33377   7.295   0.696   1.711 -0.7485 -0.6443  0.0128
 1011MOL0     O33378   7.406   0.688   1.631  0.3963 -0.0551 -0.4967
 1011MOL0     C33379   7.469   0.808   1.586  0.8161  1.1900  0.2617
 1011MOL0     C33380   7.569   0.874   1.685  0.1929  0.6130  0.1743
 1011MOL0     C33381   7.710   0.813   1.672  0.3449  0.6003 -0.4065
 1011MOL0     C33382   7.820   0.894   1.730  0.0060 -0.3638 -0.0361
 1011MOL0     C33383   7.950   0.871   1.657 -0.4202  0.4196 -1.1325
 1011MOL0     C33384   8.060   0.857   1.605  0.5976  0.9687 -0.2691
 1011MOL0     C33385   7.226   0.817   1.746  0.7576  0.0118  0.6689
 1011MOL0     C33386   7.103   0.802   1.820  0.1677  0.7825  0.4638
 1011MOL0     H33387   6.829   0.296   1.942  3.2371  2.1567  0.1291
 1011MOL0     H33388   6.610   0.188   1.999  0.2303  0.7211 -0.9713
 1011MOL0     H33389   6.271   0.446   2.102 -2.2238 -1.4071 -0.3662
 1011MOL0     H33390   6.331   0.400   2.261 -0.2841 -1.1238  0.3065
 1011MOL0     H33391   6.119   0.324   2.253  1.3928  0.7253  0.8740
 1011MOL0     H33392   6.203   0.174   2.206 -2.0953  1.0268  0.4677
 1011MOL0     H33393   6.180   0.262   1.964 -1.8391 -0.4783 -2.4954
 1011MOL0     H33394   6.070   0.386   2.041  2.4815  1.5877  0.9565
 1011MOL0     H33395   5.941   0.190   1.951 -2.9631  0.5827  0.5557
 1011MOL0     H33396   6.020   0.089   2.076  1.8359  1.0550 -0.2686
 1011MOL0     H33397   5.842   0.330   2.120  0.7237  1.1398  1.8243
 1011MOL0     H33398   5.922   0.248   2.245  3.3331  0.8167 -1.3796
 1011MOL0     H33399   5.719   0.151   2.255 -0.5235  1.8941 -0.1271
 1011MOL0     H33400   5.803   0.027   2.170 -0.9471 -0.9004  1.4501
 1011MOL0     H33401   5.613   0.248   2.030  2.9985  1.2315 -1.4735
 1011MOL0     H33402   5.701   0.109   1.954  2.6179 -1.6889  1.6398
 1011MOL0     H33403   5.597  -0.045   2.100  2.6516  1.2760 -0.6172
 1011MOL0     H33404   5.476   0.031   1.991  1.4216 -0.4352 -0.8308
 1011MOL0     H33405   5.309   0.202   2.092  1.6640  1.9585 -0.0557
 1011MOL0     H33406   5.141   0.296   2.229  1.4120 -4.4711 -1.1988
 1011MOL0     H33407   5.205   0.360   2.385 -1.0747 -0.0904  2.1166
 1011MOL0     H33408   5.092   0.160   2.494 -0.6086  0.2574 -1.3163
 1011MOL0     H33409   5.012   0.139   2.333  0.6961  0.5935 -0.7986
 1011MOL0     H33410   5.015   0.374   2.531  0.4416  0.9226  0.3579
 1011MOL0     H33411   4.922   0.373   2.376 -0.8347 -1.3338 -1.3128
 1011MOL0     H33412   4.884   0.127   2.521  1.2411  0.5578 -1.3248
 1011MOL0     H33413   4.773   0.227   2.440  2.9783 -1.4121 -2.8855
 1011MOL0     H33414   4.695   0.051   2.607 -1.5187 -0.9037 -0.2294
 1011MOL0     H33415   4.516  -0.035   2.733 -0.1782 -0.6269  1.8533
 1011MOL0     H33416   4.253  -0.295   2.865  0.8628 -0.0170  2.3069
 1011MOL0     H33417   4.075  -0.405   2.951  3.9627 -0.2467 -0.4401
 1011MOL0     H33418   3.949  -0.499   3.084  2.0606  1.9186 -0.5872
 1011MOL0     H33419   3.837  -0.426   2.976 -0.9163  1.1595 -0.4906
 1011MOL0     H33420   3.765  -0.505   3.258 -2.4170  3.1363  0.0458
 1011MOL0     H33421   3.717  -0.588   3.107  0.8432 -1.7038  1.2814
 1011MOL0     H33422   3.576  -0.417   3.040  0.9107  1.0340 -0.0411
 1011MOL0     H33423   3.614  -0.314   3.174 -0.7284  1.2708 -1.9832
 1011MOL0     H33424   3.495  -0.462   3.330  2.0284  3.9515 -1.3449
 1011MOL0     H33425   3.401  -0.425   3.193  2.5001  2.5908  1.7777
 1011MOL0     H33426   3.541  -0.703   3.248 -1.5301 -2.4324 -1.4342
 1011MOL0     H33427   3.509  -0.660   3.079  1.5897 -2.8228  0.4770
 1011MOL0     H33428   3.281  -0.604   3.149  0.5175 -0.7292 -0.9558
 1011MOL0     H33429   3.316  -0.664   3.313 -1.1948  1.9206 -0.7715
 1011MOL0     H33430   3.293  -0.823   3.052 -0.0817  1.4804  0.4884
 1011MOL0     H33431   3.396  -0.877   3.183 -0.1415 -0.0415  3.5995
 1011MOL0     H33432   3.107  -0.800   3.246 -1.0002 -1.2441 -2.3107
 1011MOL0     H33433   3.226  -0.883   3.348  0.2397  1.1461  0.6895
 1011MOL0     H33434   3.992  -0.084   3.217 -1.2609 -0.5774  1.3394
 1011MOL0     H33435   4.167   0.048   3.123 -1.7624  1.5693 -0.7921
 1011MOL0     H33436   4.557   0.302   2.996  0.8888 -0.8754  0.7192
 1011MOL0     H33437   4.742   0.373   2.873 -0.3835  0.6268 -0.3795
 1011MOL0     H33438   6.462   0.540   2.159 -0.4309 -2.1903  2.3661
 1011MOL0     H33439   6.678   0.662   2.115 -0.2500  0.2855 -1.2068
 1011MOL0     H33440   7.077   0.465   1.827  0.0101 -0.9229 -0.9507
 1011MOL0     H33441   7.291   0.480   1.713 -0.3498 -1.1649  2.0655
 1011MOL0     H33442   7.386   0.872   1.556  0.5734  0.6042 -0.3580
 1011MOL0     H33443   7.531   0.775   1.502 -0.2111  1.1887 -0.5200
 1011MOL0     H33444   7.571   0.980   1.658 -0.0685 -0.0797 -3.0196
 1011MOL0     H33445   7.531   0.867   1.787 -1.1206  1.7343 -0.2075
 1011MOL0     H33446   7.738   0.796   1.568  1.9512  1.9399 -0.2394
 1011MOL0     H33447   7.701   0.720   1.729  2.0942 -0.3483 -1.5958
 1011MOL0     H33448   7.797   1.001   1.721 -1.0954 -0.6699 -0.9586
 1011MOL0     H33449   7.826   0.877   1.838 -0.9799  2.3396  0.5228
 1011MOL0     H33450   8.156   0.843   1.558  0.5308 -0.1176 -0.1067
 1011MOL0     H33451   7.244   0.915   1.704  1.5351 -0.3356  0.1697
 1011MOL0     H33452   7.035   0.885   1.837 -1.4536  0.1511 -2.3190
 1012MOL0     O33453   2.595   2.735  11.103  0.6350 -0.5941 -0.0888
 1012MOL0     C33454   2.590   2.852  11.153 -0.1661  0.2958 -0.1548
 1012MOL0     O33455   2.488   2.936  11.147 -0.1561 -0.0360 -0.0352
 1012MOL0     C33456   2.384   2.903  11.054 -0.5810 -0.2945 -0.6810
 1012MOL0     C33457   2.398   2.904  10.910  0.3923  0.0979 -0.9304
 1012MOL0     C33458   2.291   2.914  10.829 -0.6504  0.4600  0.6894
 1012MOL0     C33459   2.164   2.905  10.888  0.5570 -0.3406  0.1200
 1012MOL0     O33460   2.051   2.920  10.816  0.5971  0.1717 -0.0883
 1012MOL0     C33461   2.038   3.036  10.739 -0.6961 -0.4409  0.1346
 1012MOL0     C33462   1.949   3.003  10.614 -0.1930  0.2984  0.2591
 1012MOL0     C33463   1.961   2.862  10.561 -0.0913 -0.4464 -0.4946
 1012MOL0     C33464   1.913   2.845  10.416 -0.0974  0.2239  1.0982
 1012MOL0     C33465   1.763   2.857  10.397 -0.9069  0.5177 -0.3373
 1012MOL0     C33466   1.721   2.858  10.243 -0.2143  1.0963 -0.3797
 1012MOL0     C33467   1.575   2.905  10.217  0.6904  0.0467  0.0780
 1012MOL0     C33468   1.469   2.799  10.271  0.8265  0.4295  0.4840
 1012MOL0     N33469   1.336   2.851  10.236 -0.3268 -0.0109  0.2974
 1012MOL0     C33470   1.299   2.986  10.210 -0.0051 -0.7498 -0.3943
 1012MOL0     C33471   1.161   2.985  10.218 -0.1796 -0.7165 -0.3877
 1012MOL0     C33472   1.063   3.098  10.190  0.0160 -0.1334 -0.7578
 1012MOL0     C33473   0.931   3.048  10.129  0.5684 -0.2977  0.0565
 1012MOL0     C33474   0.841   3.159  10.087 -0.4732 -0.3226 -0.2818
 1012MOL0     C33475   0.690   3.122  10.073 -0.2519  0.0185  0.2362
 1012MOL0     O33476   0.624   3.245  10.052  0.3360  0.0401  0.3588
 1012MOL0     C33477   0.489   3.237  10.074  0.3212 -0.8336  0.1048
 1012MOL0     C33478   0.439   3.301  10.188  0.6795 -0.2986  0.8488
 1012MOL0     C33479   0.302   3.282  10.226  0.2134  0.2075  0.0822
 1012MOL0     C33480   0.213   3.210  10.146 -0.4606 -0.4120 -0.0110
 1012MOL0     C33481   0.073   3.199  10.172  0.1384  0.4671  0.2294
 1012MOL0     O33482   0.020   3.272  10.277 -0.0970  0.0235  0.5097
 1012MOL0     C33483  -0.111   3.268  10.285 -0.2780  0.4601  0.2369
 1012MOL0     C33484  -0.195   3.356  10.217  0.5706 -0.7383  0.3369
 1012MOL0     C33485  -0.333   3.364  10.230 -0.2425  1.1790  0.1920
 1012MOL0     C33486  -0.392   3.278  10.331 -0.0448  0.6565 -0.6919
 1012MOL0     O33487  -0.522   3.298  10.380 -0.1842 -0.0292 -0.3687
 1012MOL0     C33488  -0.596   3.421  10.335  0.2230  0.2554  0.3889
 1012MOL0     C33489  -0.738   3.417  10.391  0.1083 -0.4807 -0.5057
 1012MOL0     C33490  -0.750   3.393  10.535  0.3147  0.6599  0.3840
 1012MOL0     C33491  -0.893   3.376  10.585 -0.3596 -0.5663  0.3965
 1012MOL0     C33492  -0.898   3.431  10.731 -0.1483  0.2515  0.3953
 1012MOL0     C33493  -1.030   3.482  10.777 -0.3243 -1.0227  0.0652
 1012MOL0     C33494  -1.071   3.628  10.736 -0.1134 -0.7816 -0.2769
 1012MOL0     C33495  -1.206   3.665  10.790  0.7767  0.3094 -0.5327
 1012MOL0    Cl33496  -1.206   3.652  10.963 -0.2601 -0.0014  0.1019
 1012MOL0     C33497  -0.308   3.189  10.401  0.2474 -0.3621 -0.3464
 1012MOL0     C33498  -0.170   3.183  10.377 -0.4543  0.4687  0.6523
 1012MOL0     O33499   0.013   3.113  10.101  0.6931 -0.3269  0.0428
 1012MOL0     C33500   0.267   3.132  10.045 -0.3623  0.3619  0.5732
 1012MOL0     C33501   0.407   3.150  10.006  0.3574  0.3199 -0.6647
 1012MOL0     N33502   1.119   2.853  10.216 -0.1820  0.2775 -0.0711
 1012MOL0     N33503   1.223   2.776  10.239 -0.3908  0.7118  0.3246
 1012MOL0     C33504   2.143   2.880  11.023  0.2716 -0.2085  0.3337
 1012MOL0     C33505   2.252   2.886  11.112 -1.6454 -0.0590  0.3308
 1012MOL0     C33506   2.703   2.899  11.238 -0.2228  0.2627  0.1150
 1012MOL0     C33507   2.808   2.806  11.283 -0.5415  0.5008 -0.5809
 1012MOL0     C33508   2.912   2.845  11.368  0.8264 -0.7394 -0.3373
 1012MOL0     C33509   2.932   2.985  11.388 -0.3398 -0.0312 -0.4744
 1012MOL0     O33510   3.032   3.045  11.465  0.5182  0.6358  0.5227
 1012MOL0     C33511   3.150   2.976  11.484 -0.3185 -0.0031 -0.2318
 1012MOL0     C33512   3.250   3.068  11.555 -0.0650 -0.2292  0.1127
 1012MOL0     C33513   3.387   3.003  11.572  0.3736  0.0951  1.2553
 1012MOL0     C33514   3.488   3.073  11.658  0.5833 -0.0124 -0.7050
 1012MOL0     C33515   3.439   3.107  11.796 -0.0088 -1.0595  0.3294
 1012MOL0     C33516   3.388   3.154  11.896 -1.2503  0.7025 -0.6832
 1012MOL0     C33517   2.828   3.074  11.354 -0.2698 -0.5834 -0.3627
 1012MOL0     C33518   2.715   3.033  11.267 -0.9704 -0.2095  0.1456
 1012MOL0     H33519   2.501   2.923  10.881 -0.1669 -0.1341 -3.2602
 1012MOL0     H33520   2.311   2.920  10.722 -2.2714 -2.3497  0.1315
 1012MOL0     H33521   2.130   3.085  10.704 -2.4967  1.5474 -2.1838
 1012MOL0     H33522   1.976   3.107  10.793 -0.1211 -2.0719  3.1161
 1012MOL0     H33523   1.954   3.079  10.535 -4.3374  0.1698 -0.3530
 1012MOL0     H33524   1.842   3.011  10.635 -0.6488 -0.3259 -1.6288
 1012MOL0     H33525   1.905   2.789  10.620 -1.5931  1.1335  0.1339
 1012MOL0     H33526   2.064   2.827  10.565 -0.4344 -1.4017  0.8462
 1012MOL0     H33527   1.968   2.918  10.356  0.2699 -0.4099  0.6478
 1012MOL0     H33528   1.940   2.745  10.379 -1.0935 -0.5183  2.3125
 1012MOL0     H33529   1.725   2.946  10.448 -2.7279 -2.0365  3.1995
 1012MOL0     H33530   1.712   2.782  10.458  0.7912  0.5056  1.1498
 1012MOL0     H33531   1.723   2.758  10.201 -2.9515  1.8223 -2.5270
 1012MOL0     H33532   1.791   2.929  10.198  1.1895 -0.7066 -1.1438
 1012MOL0     H33533   1.564   3.007  10.255 -1.7525  0.7937 -2.2341
 1012MOL0     H33534   1.566   2.916  10.108 -0.4858  0.1156  0.1667
 1012MOL0     H33535   1.473   2.791  10.380 -2.5341 -0.6066  0.6190
 1012MOL0     H33536   1.482   2.700  10.227  2.7419  0.5847  0.5861
 1012MOL0     H33537   1.357   3.078  10.204  0.6828 -1.1388  0.2484
 1012MOL0     H33538   1.117   3.162  10.120 -2.0383  1.8971 -0.6126
 1012MOL0     H33539   1.028   3.151  10.279 -0.5387 -1.6030 -0.0743
 1012MOL0     H33540   0.882   2.980  10.199  1.0853 -3.2982 -2.2776
 1012MOL0     H33541   0.962   2.993  10.039  3.6391 -1.0067  1.4046
 1012MOL0     H33542   0.853   3.250  10.146 -1.9485  0.6334 -1.3759
 1012MOL0     H33543   0.884   3.193   9.992 -0.3725  2.2676  0.6096
 1012MOL0     H33544   0.659   3.068  10.163  0.8622 -0.2747  0.4594
 1012MOL0     H33545   0.666   3.060   9.987  0.7371 -0.4407  0.2767
 1012MOL0     H33546   0.510   3.355  10.250  0.9157 -2.5562  2.6983
 1012MOL0     H33547   0.276   3.339  10.315  1.5190  1.6669 -0.4311
 1012MOL0     H33548  -0.158   3.424  10.141 -2.6279  0.3100 -0.4714
 1012MOL0     H33549  -0.398   3.426  10.169 -0.7847 -0.3702 -0.8682
 1012MOL0     H33550  -0.624   3.411  10.230 -1.3629 -1.2450  0.9075
 1012MOL0     H33551  -0.543   3.510  10.370 -0.6820  1.4587 -1.1864
 1012MOL0     H33552  -0.796   3.348  10.328 -0.9978  1.2974 -1.5436
 1012MOL0     H33553  -0.780   3.517  10.375  2.3862  1.1610  2.6616
 1012MOL0     H33554  -0.716   3.481  10.591 -1.7758  2.7365 -1.3675
 1012MOL0     H33555  -0.689   3.310  10.570 -2.5309 -2.0588 -0.6503
 1012MOL0     H33556  -0.958   3.433  10.518  1.1099  1.2063  0.4141
 1012MOL0     H33557  -0.930   3.274  10.578  0.0012 -0.7146  0.6271
 1012MOL0     H33558  -0.829   3.515  10.746 -0.9395  1.5227 -2.3739
 1012MOL0     H33559  -0.860   3.359  10.804 -1.0716  0.2809  0.9149
 1012MOL0     H33560  -1.045   3.473  10.885 -0.5112  3.1578  0.5246
 1012MOL0     H33561  -1.105   3.418  10.729  0.0549  0.8445 -3.3677
 1012MOL0     H33562  -1.000   3.703  10.772 -0.9493  1.2076 -2.5110
 1012MOL0     H33563  -1.078   3.621  10.627 -1.0729 -1.0002 -0.2159
 1012MOL0     H33564  -1.275   3.589  10.751  1.6809 -0.8218 -0.0033
 1012MOL0     H33565  -1.244   3.759  10.749 -0.6309 -0.9412 -2.2220
 1012MOL0     H33566  -0.359   3.127  10.474 -0.7546  2.0270  1.1078
 1012MOL0     H33567  -0.115   3.105  10.428 -0.0403 -1.7326 -2.7952
 1012MOL0     H33568   0.213   3.063   9.981  1.1481 -0.1392 -0.2002
 1012MOL0     H33569   0.452   3.089   9.929  2.7417 -2.4569  2.6085
 1012MOL0     H33570   2.045   2.866  11.067  1.1353  4.1395  4.5951
 1012MOL0     H33571   2.239   2.892  11.219  0.3991  0.4854  0.5801
 1012MOL0     H33572   2.809   2.702  11.252 -0.7165  0.7138 -1.3219
 1012MOL0     H33573   2.971   2.768  11.416 -0.3116  0.1783  2.7925
 1012MOL0     H33574   3.194   2.950  11.387  3.5806 -0.7648  1.5501
 1012MOL0     H33575   3.119   2.885  11.537  1.2181 -0.6838 -0.4528
 1012MOL0     H33576   3.263   3.158  11.494  2.5245 -1.3513 -1.1359
 1012MOL0     H33577   3.210   3.103  11.650 -0.0068  2.1063 -0.6669
 1012MOL0     H33578   3.423   2.981  11.472 -0.2797  1.3823  0.7050
 1012MOL0     H33579   3.368   2.908  11.623  0.7881 -0.5894  0.1639
 1012MOL0     H33580   3.562   2.995  11.675  0.0762  0.1686  3.3088
 1012MOL0     H33581   3.540   3.158  11.611  1.7258 -1.1441 -1.5435
 1012MOL0     H33582   3.345   3.198  11.983 -1.9740 -1.7076  0.2633
 1012MOL0     H33583   2.833   3.178  11.385 -1.3677  0.0073 -2.0310
 1012MOL0     H33584   2.661   3.120  11.232  2.3989  1.3169 -1.7486
 1013MOL0     O33585  11.182  10.381   4.955  0.4487 -0.4413  0.9056
 1013MOL0     C33586  11.263  10.296   4.996 -0.1151  0.2081  0.1611
 1013MOL0     O33587  11.239  10.210   5.098  0.2304  0.5012  0.0388
 1013MOL0     C33588  11.120  10.233   5.154 -0.1865 -0.7438 -0.8018
 1013MOL0     C33589  11.115  10.305   5.273 -0.2543  0.0715 -0.1087
 1013MOL0     C33590  10.995  10.310   5.337  0.0456 -0.1136  0.6320
 1013MOL0     C33591  10.876  10.251   5.289  0.6540 -0.5595  0.7818
 1013MOL0     O33592  10.766  10.246   5.368  0.3630 -0.4447 -0.6478
 1013MOL0     C33593  10.666  10.141   5.362  0.2755 -0.3899 -0.4244
 1013MOL0     C33594  10.579  10.171   5.488 -0.1706 -0.5340 -0.5395
 1013MOL0     C33595  10.472  10.280   5.454  0.9535 -0.3499  0.2398
 1013MOL0     C33596  10.361  10.269   5.561 -0.2049 -0.7770  0.3914
 1013MOL0     C33597  10.262  10.386   5.546  0.3522  0.1822  0.0933
 1013MOL0     C33598  10.157  10.377   5.667  0.6225  0.4987  0.1472
 1013MOL0     C33599  10.042  10.476   5.653  0.7104  0.0030 -0.4694
 1013MOL0     C33600   9.933  10.438   5.562 -0.2487  1.2589 -0.3530
 1013MOL0     N33601   9.812  10.501   5.599 -0.4617  0.5213  0.4210
 1013MOL0     C33602   9.782  10.631   5.575  0.7199 -0.4737 -0.2071
 1013MOL0     C33603   9.654  10.638   5.632 -0.0579  0.0700  0.1812
 1013MOL0     C33604   9.563  10.758   5.642  0.3543  0.3930 -0.2645
 1013MOL0     C33605   9.619  10.878   5.727 -0.7119  0.3206 -0.3716
 1013MOL0     C33606   9.611  10.868   5.881 -0.0163  0.9058  0.3819
 1013MOL0     C33607   9.636  10.727   5.934 -0.6312  0.1477 -0.5141
 1013MOL0     O33608   9.656  10.730   6.079 -0.1694 -0.1814  0.2582
 1013MOL0     C33609   9.547  10.727   6.157 -0.7772  0.3577 -0.6365
 1013MOL0     C33610   9.572  10.733   6.289 -0.3980  0.3276 -1.1850
 1013MOL0     C33611   9.473  10.765   6.375 -0.3645 -0.5236  0.1093
 1013MOL0     C33612   9.338  10.768   6.332  0.0390  0.0926  0.1215
 1013MOL0     C33613   9.233  10.791   6.423 -0.1131  0.9115 -0.0698
 1013MOL0     O33614   9.258  10.789   6.558  0.2457  0.1413 -0.1149
 1013MOL0     C33615   9.162  10.836   6.651 -0.1323  0.0693  0.6540
 1013MOL0     C33616   9.188  10.794   6.779  0.2183 -0.1035 -0.4543
 1013MOL0     C33617   9.107  10.829   6.887  0.0330  0.6402 -1.6574
 1013MOL0     C33618   8.994  10.916   6.871 -0.2840 -0.9232 -0.8765
 1013MOL0     O33619   8.927  10.946   6.984  0.1577  0.3357  0.3806
 1013MOL0     C33620   8.797  11.019   6.983 -0.5544  0.4108 -0.6440
 1013MOL0     C33621   8.748  11.084   7.117  0.1769 -0.4200  0.5470
 1013MOL0     C33622   8.600  11.107   7.106  0.2420  0.9369  0.1639
 1013MOL0     C33623   8.551  11.174   7.238  0.8616  0.8817 -0.2873
 1013MOL0     C33624   8.400  11.213   7.230 -0.2487 -0.1645 -1.1549
 1013MOL0     C33625   8.362  11.244   7.374  1.1973 -0.1297  0.3131
 1013MOL0     C33626   8.316  11.113   7.445 -0.3673 -0.4991  0.4700
 1013MOL0     C33627   8.287  11.136   7.590 -0.7708 -0.4023 -0.6757
 1013MOL0    Cl33628   8.119  11.206   7.617  0.1944 -0.3649  0.4018
 1013MOL0     C33629   8.974  10.970   6.750  0.5521  0.3051 -0.1205
 1013MOL0     C33630   9.047  10.927   6.635 -0.3143  0.1221 -0.2155
 1013MOL0     O33631   9.128  10.820   6.374 -0.0196 -0.4155 -0.2196
 1013MOL0     C33632   9.318  10.744   6.197  0.3874  0.0380  0.3949
 1013MOL0     C33633   9.416  10.730   6.109  0.1598  0.1418  0.4509
 1013MOL0     N33634   9.613  10.516   5.691 -0.2182 -0.1391  0.5001
 1013MOL0     N33635   9.711  10.435   5.668 -0.3249 -0.2618  0.4851
 1013MOL0     C33636  10.881  10.177   5.177  0.7270 -1.1391 -0.0437
 1013MOL0     C33637  11.001  10.161   5.113 -0.2322  0.3742  0.4909
 1013MOL0     C33638  11.391  10.284   4.926 -0.8970  0.6010  0.4130
 1013MOL0     C33639  11.470  10.163   4.931  0.0252 -0.0986 -0.2389
 1013MOL0     C33640  11.603  10.152   4.891 -0.0647 -0.0908  1.0103
 1013MOL0     C33641  11.661  10.278   4.845 -0.3615 -0.3123  0.3029
 1013MOL0     O33642  11.787  10.294   4.800  0.2257 -0.1848  0.6430
 1013MOL0     C33643  11.882  10.191   4.844  0.1339  0.7857 -0.0890
 1013MOL0     C33644  12.030  10.244   4.854  0.0777 -0.9914 -0.3918
 1013MOL0     C33645  12.073  10.280   4.709  0.4669 -0.0754  0.0202
 1013MOL0     C33646  12.222  10.243   4.685 -0.1623  0.8188  0.6970
 1013MOL0     C33647  12.234  10.111   4.626 -0.5319  0.3723  0.2188
 1013MOL0     C33648  12.259  10.005   4.572 -0.0786  0.1625 -0.6779
 1013MOL0     C33649  11.590  10.398   4.849 -0.7784  0.0712 -0.7922
 1013MOL0     C33650  11.453  10.402   4.883 -0.3488 -0.5069 -0.3688
 1013MOL0     H33651  11.201  10.356   5.315 -0.7066  2.3145 -1.7482
 1013MOL0     H33652  10.985  10.368   5.428  1.6963  1.0770  0.1043
 1013MOL0     H33653  10.711  10.042   5.365 -0.2130 -0.6842 -1.9591
 1013MOL0     H33654  10.604  10.148   5.273 -1.2865  0.2913  0.6683
 1013MOL0     H33655  10.641  10.194   5.575  1.6133  0.5973 -2.0273
 1013MOL0     H33656  10.533  10.075   5.513 -4.3820  1.8074  1.8788
 1013MOL0     H33657  10.421  10.270   5.358  0.2946  0.7524  0.4558
 1013MOL0     H33658  10.514  10.381   5.451 -0.7521  0.4023  0.2317
 1013MOL0     H33659  10.304  10.175   5.555  0.6962 -1.2577 -1.5236
 1013MOL0     H33660  10.402  10.265   5.662  3.8624  0.1119 -1.0520
 1013MOL0     H33661  10.210  10.378   5.450 -0.9044  1.2116  0.6520
 1013MOL0     H33662  10.327  10.473   5.542 -1.0746  1.2476 -1.5576
 1013MOL0     H33663  10.195  10.391   5.768 -2.5657 -0.6212  1.6276
 1013MOL0     H33664  10.112  10.278   5.673  0.1339  0.4957 -2.3392
 1013MOL0     H33665   9.999  10.488   5.753 -0.7161  1.6149 -1.2258
 1013MOL0     H33666  10.090  10.569   5.622  1.5776 -1.1226 -2.7843
 1013MOL0     H33667   9.922  10.329   5.567  0.9917  0.9912 -2.1050
 1013MOL0     H33668   9.964  10.469   5.461  2.8810  0.4048  0.2139
 1013MOL0     H33669   9.836  10.699   5.510  1.1697 -1.2700 -0.6828
 1013MOL0     H33670   9.471  10.723   5.690  0.2280  1.3123  0.1790
 1013MOL0     H33671   9.537  10.792   5.541  1.1870  2.0541  0.0392
 1013MOL0     H33672   9.557  10.962   5.693 -1.2479  0.2822  0.4760
 1013MOL0     H33673   9.721  10.915   5.713 -1.4862  2.7666 -0.1278
 1013MOL0     H33674   9.684  10.933   5.930  1.1611 -0.4482  0.5072
 1013MOL0     H33675   9.511  10.902   5.911  0.6224  1.4514  2.0477
 1013MOL0     H33676   9.728  10.697   5.883  0.1194  1.6797 -0.1184
 1013MOL0     H33677   9.553  10.662   5.906 -0.8612  0.0430  0.3661
 1013MOL0     H33678   9.673  10.746   6.327 -2.0002 -0.2349  3.9978
 1013MOL0     H33679   9.490  10.773   6.482 -1.2411  1.3772  0.1389
 1013MOL0     H33680   9.267  10.721   6.788  1.2466  0.8708 -1.3110
 1013MOL0     H33681   9.134  10.784   6.983  0.6177  2.8894 -0.6993
 1013MOL0     H33682   8.719  10.954   6.940 -1.2848  1.3391 -0.7569
 1013MOL0     H33683   8.806  11.100   6.910  4.5698  0.4511 -0.2763
 1013MOL0     H33684   8.795  11.183   7.112 -0.5077 -0.0908  0.5407
 1013MOL0     H33685   8.774  11.023   7.204 -1.8856 -1.5194  0.4496
 1013MOL0     H33686   8.538  11.017   7.098 -0.0596  1.2516 -1.3286
 1013MOL0     H33687   8.584  11.170   7.018 -1.5528  1.6474  0.9354
 1013MOL0     H33688   8.570  11.106   7.321 -0.2046  1.1904  0.2221
 1013MOL0     H33689   8.617  11.260   7.250 -0.0513  1.5600  0.0290
 1013MOL0     H33690   8.354  11.120   7.197  0.9633 -0.3365 -2.4728
 1013MOL0     H33691   8.375  11.289   7.155  0.0814  4.1935  2.7191
 1013MOL0     H33692   8.276  11.312   7.375  0.5464 -0.8995 -0.7377
 1013MOL0     H33693   8.445  11.289   7.429  0.9910  1.2003 -0.4017
 1013MOL0     H33694   8.217  11.076   7.417 -0.8047  0.4486  0.7491
 1013MOL0     H33695   8.396  11.038   7.439  0.5100  0.4266  0.3511
 1013MOL0     H33696   8.367  11.192   7.640 -0.2181 -1.0495 -0.8289
 1013MOL0     H33697   8.284  11.037   7.637 -0.5439 -0.2021 -0.2266
 1013MOL0     H33698   8.897  11.045   6.732  1.1136  0.8064 -0.4728
 1013MOL0     H33699   9.027  10.974   6.539  1.1915  3.5292  0.9458
 1013MOL0     H33700   9.213  10.747   6.169  0.3695  0.5344  0.5078
 1013MOL0     H33701   9.385  10.735   6.005 -1.3786 -0.8106  0.8298
 1013MOL0     H33702  10.793  10.133   5.130 -0.8378  2.2118 -0.5519
 1013MOL0     H33703  11.019  10.104   5.023  0.1669 -0.4578  1.0796
 1013MOL0     H33704  11.437  10.068   4.973  2.2289 -0.8205 -0.0164
 1013MOL0     H33705  11.650  10.055   4.898  0.6326  0.1373 -0.2717
 1013MOL0     H33706  11.879  10.103   4.779 -1.6382 -1.0015  2.2280
 1013MOL0     H33707  11.850  10.149   4.941  1.5253  2.1998  1.0353
 1013MOL0     H33708  12.032  10.331   4.920  2.9498 -0.4608 -1.0541
 1013MOL0     H33709  12.091  10.163   4.895 -2.2157 -2.9072 -0.5328
 1013MOL0     H33710  12.051  10.385   4.686  1.3269  0.3033  0.8546
 1013MOL0     H33711  12.014  10.217   4.641  2.2888 -1.1041 -0.6813
 1013MOL0     H33712  12.254  10.317   4.611  2.2812 -0.3882  0.4158
 1013MOL0     H33713  12.291  10.238   4.769  2.3410 -0.4957 -1.2806
 1013MOL0     H33714  12.279   9.907   4.534 -1.7949  0.4868 -2.5896
 1013MOL0     H33715  11.628  10.493   4.814 -0.8754 -0.0811 -1.3094
 1013MOL0     H33716  11.393  10.492   4.896 -3.0064 -2.2364  0.1827
 1014MOL0     O33717   2.181  10.841   3.472 -0.8389 -0.2730  0.6120
 1014MOL0     C33718   2.190  10.951   3.422  1.1969  0.8099 -0.5637
 1014MOL0     O33719   2.113  10.997   3.324  0.1577 -0.1804  1.2793
 1014MOL0     C33720   2.019  10.913   3.260  0.9151  0.3163  0.3568
 1014MOL0     C33721   1.919  10.976   3.185  0.7097  1.1196  0.6538
 1014MOL0     C33722   1.826  10.892   3.105 -0.0545 -0.6281  0.1627
 1014MOL0     C33723   1.837  10.748   3.104 -0.9445  0.5711  0.2481
 1014MOL0     O33724   1.752  10.667   3.035  0.2181 -0.1836  0.0033
 1014MOL0     C33725   1.721  10.703   2.896  1.3017 -0.2817 -0.8479
 1014MOL0     C33726   1.596  10.628   2.847  0.6207 -0.2474  0.1577
 1014MOL0     C33727   1.482  10.703   2.922  0.4845  0.2295 -0.1419
 1014MOL0     C33728   1.359  10.602   2.933  0.5948 -0.3431 -0.3090
 1014MOL0     C33729   1.229  10.686   2.923 -0.0740 -0.7027  0.6407
 1014MOL0     C33730   1.107  10.593   2.908 -0.4753 -0.3131 -0.1771
 1014MOL0     C33731   0.971  10.651   2.866 -0.5563 -0.1475 -0.1479
 1014MOL0     C33732   0.864  10.546   2.893 -0.2142 -0.2899  0.5680
 1014MOL0     N33733   0.731  10.593   2.868  0.1684 -0.1777 -0.0632
 1014MOL0     C33734   0.618  10.595   2.953 -0.6949  0.0910 -0.3490
 1014MOL0     C33735   0.528  10.668   2.884 -0.3604 -0.1803 -0.4054
 1014MOL0     C33736   0.389  10.696   2.936  0.2644  0.2318  0.0681
 1014MOL0     C33737   0.381  10.847   2.968 -0.2915 -0.1999  0.3617
 1014MOL0     C33738   0.256  10.871   3.052 -0.1903 -0.3721  0.0542
 1014MOL0     C33739   0.125  10.866   2.977 -0.2008  0.4978 -0.1486
 1014MOL0     O33740   0.043  10.784   3.066  0.4156 -0.9115 -0.0171
 1014MOL0     C33741  -0.092  10.771   3.026 -0.1365  0.2456  0.3458
 1014MOL0     C33742  -0.148  10.814   2.909  0.2692  0.0618 -0.3774
 1014MOL0     C33743  -0.296  10.806   2.903 -0.5113  0.0532 -0.1441
 1014MOL0     C33744  -0.370  10.751   3.007 -0.6524  0.6267 -0.5534
 1014MOL0     C33745  -0.509  10.754   2.995 -0.2319  0.2998  0.4515
 1014MOL0     O33746  -0.576  10.686   3.093  0.5217  0.5350 -0.1719
 1014MOL0     C33747  -0.715  10.657   3.090 -0.4525  0.7345  0.1356
 1014MOL0     C33748  -0.816  10.671   2.985 -0.7864 -0.0636 -0.0320
 1014MOL0     C33749  -0.951  10.631   3.002 -0.1799  0.0800  0.8593
 1014MOL0     C33750  -0.991  10.563   3.121 -1.1736  0.0454  0.7083
 1014MOL0     O33751  -1.117  10.504   3.141 -0.5469 -0.0415 -0.4631
 1014MOL0     C33752  -1.217  10.508   3.038 -0.1209 -0.2211 -0.8599
 1014MOL0     C33753  -1.313  10.624   3.056 -0.2742 -0.4360 -0.4785
 1014MOL0     C33754  -1.460  10.593   3.002 -0.3160 -0.2958  1.4372
 1014MOL0     C33755  -1.567  10.642   3.108 -0.6699  0.0424 -0.5787
 1014MOL0     C33756  -1.712  10.652   3.046  0.1104  0.2185 -0.1480
 1014MOL0     C33757  -1.825  10.677   3.145  0.1231 -0.0419 -0.5247
 1014MOL0     C33758  -1.964  10.676   3.084 -0.6150 -0.3824  0.8709
 1014MOL0     C33759  -2.074  10.670   3.194  0.2329  1.3904 -0.1747
 1014MOL0    Cl33760  -2.100  10.818   3.280 -0.9207 -0.2485  0.2869
 1014MOL0     C33761  -0.893  10.550   3.221 -0.0050 -0.2590  0.9287
 1014MOL0     C33762  -0.755  10.585   3.207 -0.4639 -0.6394 -0.4240
 1014MOL0     O33763  -0.569  10.819   2.912 -0.3801  1.0578  0.2548
 1014MOL0     C33764  -0.304  10.693   3.114  0.4833 -0.1000  0.0712
 1014MOL0     C33765  -0.171  10.709   3.122  0.1809  0.6458 -0.7034
 1014MOL0     N33766   0.586  10.716   2.770 -0.5027  0.2469  0.0230
 1014MOL0     N33767   0.705  10.666   2.763 -0.1779  0.1841 -0.1097
 1014MOL0     C33768   1.941  10.695   3.165 -0.2045  0.5510 -0.4218
 1014MOL0     C33769   2.032  10.774   3.239  0.4935 -0.1990  0.8264
 1014MOL0     C33770   2.281  11.052   3.482  0.6055 -0.0745  0.1165
 1014MOL0     C33771   2.346  11.041   3.615  0.1840  0.6778  0.7207
 1014MOL0     C33772   2.419  11.136   3.675 -0.7438  0.8692  0.2965
 1014MOL0     C33773   2.441  11.251   3.605  0.2877 -0.4698  0.0451
 1014MOL0     O33774   2.510  11.347   3.672 -0.0068 -0.4492  0.4531
 1014MOL0     C33775   2.518  11.480   3.613  0.2230  0.6484  0.4503
 1014MOL0     C33776   2.564  11.580   3.715 -0.1865 -0.4854  0.0142
 1014MOL0     C33777   2.711  11.597   3.714 -0.1130 -0.0263 -0.0292
 1014MOL0     C33778   2.786  11.612   3.854  0.9818  1.0266 -0.1499
 1014MOL0     C33779   2.915  11.684   3.840  0.3333  0.1243 -0.0514
 1014MOL0     C33780   3.015  11.750   3.821  0.5888  0.1581 -0.4873
 1014MOL0     C33781   2.387  11.270   3.475  0.5840 -0.1422 -0.8646
 1014MOL0     C33782   2.310  11.178   3.413 -1.0050  0.2399 -0.2321
 1014MOL0     H33783   1.902  11.082   3.201  0.3022  0.7595  3.0301
 1014MOL0     H33784   1.739  10.943   3.065 -0.1259  2.0095  3.2850
 1014MOL0     H33785   1.806  10.661   2.841  0.7326 -3.1211  0.3005
 1014MOL0     H33786   1.696  10.809   2.884 -0.9353 -0.2636  2.7820
 1014MOL0     H33787   1.600  10.523   2.877  0.0177 -0.3817 -0.1933
 1014MOL0     H33788   1.585  10.627   2.738 -2.0110 -3.2598  0.2783
 1014MOL0     H33789   1.453  10.784   2.854 -1.8829 -0.2186  0.2415
 1014MOL0     H33790   1.522  10.748   3.013 -0.8367  0.6128  0.2733
 1014MOL0     H33791   1.361  10.536   2.846 -3.2230 -0.0467 -0.7534
 1014MOL0     H33792   1.364  10.550   3.029  1.5564  0.3059  0.0069
 1014MOL0     H33793   1.230  10.752   2.836 -0.0056  0.2598  1.3626
 1014MOL0     H33794   1.216  10.757   3.005  1.3476 -0.0611  0.3270
 1014MOL0     H33795   1.096  10.545   3.005 -1.3979  0.0519 -0.0880
 1014MOL0     H33796   1.128  10.521   2.828 -1.6986 -1.9913  0.9219
 1014MOL0     H33797   0.937  10.740   2.919 -1.3701 -0.8831  0.5987
 1014MOL0     H33798   0.960  10.687   2.763 -1.5972  2.2584  0.7349
 1014MOL0     H33799   0.872  10.509   2.995  1.3848 -0.5244  0.3763
 1014MOL0     H33800   0.889  10.458   2.833  3.5277  0.3024  1.0502
 1014MOL0     H33801   0.609  10.555   3.053 -1.8210 -0.6295 -0.7092
 1014MOL0     H33802   0.374  10.629   3.020 -2.4394 -2.0053 -1.9784
 1014MOL0     H33803   0.318  10.662   2.859 -0.3083 -1.3317  1.2324
 1014MOL0     H33804   0.378  10.897   2.871  3.9269 -1.1012 -0.4392
 1014MOL0     H33805   0.468  10.878   3.026 -0.5586 -2.6389  2.2195
 1014MOL0     H33806   0.260  10.798   3.133  0.9826 -1.7462 -1.1883
 1014MOL0     H33807   0.275  10.969   3.098 -0.2101 -0.2587 -0.1787
 1014MOL0     H33808   0.142  10.812   2.883 -1.8458  0.9853 -0.7544
 1014MOL0     H33809   0.085  10.966   2.963 -0.5409  0.9937  3.3599
 1014MOL0     H33810  -0.096  10.853   2.822  0.4788 -2.6388 -1.5653
 1014MOL0     H33811  -0.339  10.855   2.817 -0.6763  1.3830  0.6593
 1014MOL0     H33812  -0.792  10.716   2.889  0.4036  1.1191  0.7805
 1014MOL0     H33813  -1.015  10.640   2.915 -0.2813 -1.9118  0.6801
 1014MOL0     H33814  -1.271  10.417   3.066  0.1724 -0.9007 -2.4189
 1014MOL0     H33815  -1.179  10.501   2.936 -0.5363  3.0767 -1.3402
 1014MOL0     H33816  -1.270  10.713   3.009 -2.4732  0.9142 -0.0855
 1014MOL0     H33817  -1.315  10.637   3.165 -1.8447 -0.6066 -0.4581
 1014MOL0     H33818  -1.467  10.485   2.986 -0.9982 -0.3803  2.2564
 1014MOL0     H33819  -1.476  10.638   2.904 -0.9056 -4.4682 -0.5930
 1014MOL0     H33820  -1.564  10.574   3.193 -0.8592 -0.5632 -1.0539
 1014MOL0     H33821  -1.550  10.743   3.148 -1.7221  0.0961 -0.2343
 1014MOL0     H33822  -1.732  10.556   2.998  0.6767  0.0384 -0.0221
 1014MOL0     H33823  -1.716  10.729   2.969  0.4642 -1.8375 -2.3225
 1014MOL0     H33824  -1.815  10.781   3.176 -2.3246 -0.1073  0.6797
 1014MOL0     H33825  -1.807  10.609   3.228 -1.4996  1.2018  0.9097
 1014MOL0     H33826  -1.978  10.765   3.021 -0.3012 -0.4514  0.7031
 1014MOL0     H33827  -1.969  10.592   3.014 -0.8968  0.6542 -0.4118
 1014MOL0     H33828  -2.041  10.595   3.266 -3.3204 -0.9199 -0.6580
 1014MOL0     H33829  -2.168  10.639   3.146  0.8972  1.5002 -1.6099
 1014MOL0     H33830  -0.912  10.505   3.317  2.6386 -0.0714  1.6271
 1014MOL0     H33831  -0.677  10.574   3.281 -1.1126  1.3678  0.6103
 1014MOL0     H33832  -0.358  10.656   3.201  2.1027 -5.0069 -0.7261
 1014MOL0     H33833  -0.111  10.678   3.207 -2.3349  1.2109  1.3952
 1014MOL0     H33834   1.961  10.589   3.157  1.5675  0.8476 -0.3999
 1014MOL0     H33835   2.115  10.718   3.281  1.1761 -0.2902 -0.5782
 1014MOL0     H33836   2.338  10.947   3.669 -2.7914  0.9994  0.9851
 1014MOL0     H33837   2.475  11.112   3.765 -1.4916 -0.8711  0.3429
 1014MOL0     H33838   2.419  11.509   3.576 -0.6031 -1.3535  0.9540
 1014MOL0     H33839   2.594  11.465   3.536  1.0450 -1.8121  1.6381
 1014MOL0     H33840   2.515  11.677   3.701 -2.0458 -1.2358  0.9339
 1014MOL0     H33841   2.546  11.543   3.817 -1.1159  0.3078  0.1565
 1014MOL0     H33842   2.729  11.683   3.650  0.1506  1.4177  1.8764
 1014MOL0     H33843   2.760  11.512   3.666  1.2548  0.7563 -0.0888
 1014MOL0     H33844   2.733  11.662   3.937  1.9247  1.4789  0.1976
 1014MOL0     H33845   2.807  11.511   3.889 -0.2420  1.1946  1.1713
 1014MOL0     H33846   3.113  11.790   3.803  0.6011  2.5537  3.6481
 1014MOL0     H33847   2.402  11.370   3.436  1.8938  0.2166  0.4417
 1014MOL0     H33848   2.259  11.184   3.318 -0.4943 -2.6267 -0.8074
 1015MOL0     O33849   6.940   8.209   0.152  0.2840 -0.5624  0.3187
 1015MOL0     C33850   6.995   8.105   0.105  0.1682 -0.4279  0.1146
 1015MOL0     O33851   6.926   7.993   0.057  0.2544  0.4337  0.5092
 1015MOL0     C33852   6.793   7.990   0.080  0.5824  0.3106  0.4410
 1015MOL0     C33853   6.690   8.059   0.007 -0.6601  0.5569 -0.5866
 1015MOL0     C33854   6.554   8.034   0.020  0.9217 -0.7757 -0.3330
 1015MOL0     C33855   6.513   7.937   0.113  0.3746 -0.0567  0.1037
 1015MOL0     O33856   6.387   7.895   0.106  0.0593 -0.0003  0.2857
 1015MOL0     C33857   6.348   7.787   0.180  0.3723 -0.5997 -0.5797
 1015MOL0     C33858   6.211   7.746   0.117 -0.0965  0.2197 -0.1809
 1015MOL0     C33859   6.245   7.648  -0.001  0.8411 -0.8827  0.3295
 1015MOL0     C33860   6.117   7.587  -0.074 -0.7310  0.5083 -0.1022
 1015MOL0     C33861   6.047   7.690  -0.166  0.1117  0.2377 -0.0358
 1015MOL0     C33862   5.938   7.622  -0.263  0.0614  0.4910  0.5435
 1015MOL0     C33863   5.825   7.709  -0.312 -1.0677  0.5265 -0.0517
 1015MOL0     C33864   5.743   7.750  -0.188 -0.1029 -0.2799  0.6918
 1015MOL0     N33865   5.609   7.806  -0.226 -0.4832 -0.5801 -0.3963
 1015MOL0     C33866   5.488   7.732  -0.240 -0.1042  0.3597 -0.7071
 1015MOL0     C33867   5.407   7.823  -0.299  0.9557  0.4054 -0.2148
 1015MOL0     C33868   5.269   7.792  -0.347 -0.3388 -0.3442 -0.9013
 1015MOL0     C33869   5.246   7.744  -0.489  0.4154 -0.7017 -0.0422
 1015MOL0     C33870   5.320   7.615  -0.501  0.4329  1.3380 -0.3602
 1015MOL0     C33871   5.287   7.530  -0.628  0.4332 -0.4774 -0.4198
 1015MOL0     O33872   5.298   7.615  -0.735  0.0073 -0.2829  0.7618
 1015MOL0     C33873   5.237   7.571  -0.853  0.0584 -0.9819 -0.7078
 1015MOL0     C33874   5.311   7.536  -0.958  0.2568 -0.7386 -0.1884
 1015MOL0     C33875   5.256   7.501  -1.087 -1.6609 -0.1650  0.4109
 1015MOL0     C33876   5.118   7.500  -1.105 -0.5638 -0.6621  0.2392
 1015MOL0     C33877   5.054   7.460  -1.232 -0.0268  0.6286 -0.1747
 1015MOL0     O33878   4.921   7.489  -1.238 -0.2322  0.1175 -0.4059
 1015MOL0     C33879   4.874   7.500  -1.361  0.2325  0.1781 -0.0552
 1015MOL0     C33880   4.807   7.395  -1.416  0.9838 -0.4751  0.3673
 1015MOL0     C33881   4.737   7.405  -1.533  0.2219  0.0431 -0.1954
 1015MOL0     C33882   4.724   7.532  -1.591 -0.4474  0.9380  0.7333
 1015MOL0     O33883   4.638   7.533  -1.697  0.6213  0.0132 -0.3641
 1015MOL0     C33884   4.573   7.650  -1.736  0.2359  0.5980  0.4120
 1015MOL0     C33885   4.469   7.615  -1.839 -0.9581  0.0212  0.3040
 1015MOL0     C33886   4.411   7.747  -1.909  0.5048  0.3677  0.3433
 1015MOL0     C33887   4.306   7.699  -2.005 -0.0020 -0.0533  1.0274
 1015MOL0     C33888   4.273   7.806  -2.109  0.7267  0.1471  0.0580
 1015MOL0     C33889   4.172   7.741  -2.208  0.1289  0.5106  0.8509
 1015MOL0     C33890   4.143   7.840  -2.330  0.0885  0.6872 -0.3513
 1015MOL0     C33891   3.995   7.868  -2.348 -0.6082  0.0774  0.1586
 1015MOL0    Cl33892   3.916   7.712  -2.376 -0.0029 -0.0984  0.3163
 1015MOL0     C33893   4.801   7.642  -1.543 -0.3164  0.4946 -0.3972
 1015MOL0     C33894   4.887   7.621  -1.435 -0.1920 -0.3088 -0.5414
 1015MOL0     O33895   5.117   7.401  -1.323  0.3534  0.0231 -0.9621
 1015MOL0     C33896   5.041   7.546  -0.992  0.5160 -0.2213  0.1262
 1015MOL0     C33897   5.101   7.575  -0.870 -0.4061  0.4384  0.1273
 1015MOL0     N33898   5.468   7.943  -0.321  0.1374 -0.2407 -0.4796
 1015MOL0     N33899   5.588   7.929  -0.280 -0.0116  0.5263  0.1822
 1015MOL0     C33900   6.613   7.877   0.197 -1.0351  0.5264  0.1565
 1015MOL0     C33901   6.749   7.906   0.178  0.6506  1.0030 -0.3784
 1015MOL0     C33902   7.136   8.120   0.070 -0.1602  0.4798 -0.6428
 1015MOL0     C33903   7.213   8.010   0.048  0.4536 -0.2444 -0.0431
 1015MOL0     C33904   7.356   8.026   0.025  1.0221 -0.0824  0.2517
 1015MOL0     C33905   7.416   8.149   0.027 -0.6789 -0.7656 -0.3400
 1015MOL0     O33906   7.547   8.161   0.004 -0.1812  0.0545  0.2105
 1015MOL0     C33907   7.618   8.284   0.008  0.4278  0.2022  0.3186
 1015MOL0     C33908   7.745   8.277  -0.083 -0.3034  0.0361 -0.5506
 1015MOL0     C33909   7.838   8.393  -0.068 -0.5310 -0.0352 -0.2906
 1015MOL0     C33910   7.783   8.505  -0.151 -0.0959 -0.3267  0.5224
 1015MOL0     C33911   7.824   8.627  -0.088 -0.4177  0.0431  0.0889
 1015MOL0     C33912   7.847   8.737  -0.044 -0.0218 -0.0327  0.5790
 1015MOL0     C33913   7.334   8.260   0.049 -0.6165 -0.5373 -0.0754
 1015MOL0     C33914   7.200   8.244   0.068 -0.3643  0.6888 -0.8461
 1015MOL0     H33915   6.720   8.132  -0.068  3.1729  1.0195  1.1520
 1015MOL0     H33916   6.485   8.094  -0.038  1.0573  0.9341  1.1889
 1015MOL0     H33917   6.340   7.816   0.285  2.9437 -2.7594  0.3293
 1015MOL0     H33918   6.419   7.704   0.186  1.1438  0.0936  0.1771
 1015MOL0     H33919   6.150   7.832   0.089  0.8243  0.3984 -1.7847
 1015MOL0     H33920   6.160   7.685   0.192  0.6123  1.0522  1.0161
 1015MOL0     H33921   6.303   7.561   0.032  0.8779 -0.9292  0.1386
 1015MOL0     H33922   6.309   7.694  -0.076  1.3784 -1.5767  0.3506
 1015MOL0     H33923   6.144   7.501  -0.137 -0.5699  3.5964 -4.6888
 1015MOL0     H33924   6.052   7.549   0.005  1.5337 -1.5288  0.9379
 1015MOL0     H33925   6.117   7.736  -0.236 -2.0177  0.1283 -2.3600
 1015MOL0     H33926   6.004   7.766  -0.100 -2.1403 -0.3935 -0.6893
 1015MOL0     H33927   5.884   7.545  -0.208 -0.3393 -0.2193 -0.7918
 1015MOL0     H33928   5.992   7.573  -0.345 -3.6881 -3.0831 -0.1704
 1015MOL0     H33929   5.860   7.798  -0.365  0.4561  0.8137  1.3551
 1015MOL0     H33930   5.763   7.650  -0.381 -1.1539 -0.3482  0.7389
 1015MOL0     H33931   5.796   7.826  -0.131  1.8716 -1.7052  0.8491
 1015MOL0     H33932   5.730   7.662  -0.124 -2.7249 -0.2345  0.3654
 1015MOL0     H33933   5.477   7.624  -0.248  4.4110 -0.4552  1.1446
 1015MOL0     H33934   5.207   7.879  -0.324 -0.5129 -0.8018  0.4536
 1015MOL0     H33935   5.217   7.731  -0.273  0.5589  1.0634  1.0027
 1015MOL0     H33936   5.267   7.827  -0.557 -2.5702  1.7390  1.7448
 1015MOL0     H33937   5.138   7.727  -0.489 -0.3817  3.1138 -2.6666
 1015MOL0     H33938   5.428   7.629  -0.496  0.6746 -0.6582  2.5784
 1015MOL0     H33939   5.292   7.548  -0.418 -1.0047 -0.1002 -1.9322
 1015MOL0     H33940   5.197   7.467  -0.632  0.6940 -1.0015  1.2129
 1015MOL0     H33941   5.367   7.457  -0.645  0.5749 -0.5131  0.3514
 1015MOL0     H33942   5.420   7.537  -0.953  0.3538  1.5683 -1.5492
 1015MOL0     H33943   5.328   7.472  -1.163  0.1058  1.5568  1.3387
 1015MOL0     H33944   4.814   7.306  -1.355 -1.0192 -0.1255  1.1620
 1015MOL0     H33945   4.682   7.321  -1.574 -0.8509 -0.8655  2.8211
 1015MOL0     H33946   4.653   7.709  -1.781 -1.0747  0.5477 -2.1515
 1015MOL0     H33947   4.528   7.699  -1.649 -0.2873 -0.2860  0.6510
 1015MOL0     H33948   4.390   7.555  -1.793 -1.1408  1.3934  1.8625
 1015MOL0     H33949   4.514   7.561  -1.923 -0.4351  0.0867  0.5355
 1015MOL0     H33950   4.494   7.793  -1.962  1.4651 -0.6308  0.9159
 1015MOL0     H33951   4.366   7.813  -1.834  1.3954 -0.2190  1.4383
 1015MOL0     H33952   4.357   7.622  -2.064  2.2076  2.0010  0.1330
 1015MOL0     H33953   4.220   7.645  -1.963 -0.9719  0.3051 -0.4110
 1015MOL0     H33954   4.357   7.850  -2.162 -0.8435  1.0065 -1.8109
 1015MOL0     H33955   4.215   7.880  -2.053  1.0832 -1.7109  3.1581
 1015MOL0     H33956   4.081   7.725  -2.148  0.8184 -2.9730  1.1868
 1015MOL0     H33957   4.207   7.647  -2.250  2.8167  1.9126 -0.2874
 1015MOL0     H33958   4.199   7.931  -2.305 -1.8824  1.1189  3.1571
 1015MOL0     H33959   4.189   7.807  -2.423 -0.6535  2.5392 -1.4131
 1015MOL0     H33960   3.976   7.936  -2.431  0.2510 -0.7394 -0.7283
 1015MOL0     H33961   3.944   7.910  -2.261  0.7702 -0.8012  1.4570
 1015MOL0     H33962   4.798   7.738  -1.591 -0.4957  0.4313 -0.5121
 1015MOL0     H33963   4.939   7.712  -1.408 -0.1792 -0.4196 -0.1846
 1015MOL0     H33964   4.934   7.554  -1.005  0.5420  0.1854  0.1576
 1015MOL0     H33965   5.033   7.615  -0.795 -1.2449  1.6144 -1.2137
 1015MOL0     H33966   6.591   7.802   0.272 -0.6974 -2.4216 -2.4396
 1015MOL0     H33967   6.820   7.863   0.248 -0.8105  0.2400  0.6899
 1015MOL0     H33968   7.170   7.910   0.057  1.6920 -0.8686 -0.7675
 1015MOL0     H33969   7.422   7.940   0.023  1.1015 -0.1817 -4.4910
 1015MOL0     H33970   7.657   8.301   0.109  2.8286  2.2679 -0.8573
 1015MOL0     H33971   7.560   8.372  -0.023  0.8494  0.0279 -0.9997
 1015MOL0     H33972   7.794   8.183  -0.054 -0.3819 -0.1654 -1.0621
 1015MOL0     H33973   7.730   8.256  -0.189  0.5174 -0.6452 -0.5456
 1015MOL0     H33974   7.937   8.370  -0.107 -0.6076  1.4674 -1.4723
 1015MOL0     H33975   7.845   8.428   0.035 -0.1349  0.7423 -0.5692
 1015MOL0     H33976   7.814   8.483  -0.253  0.8241 -2.0237  1.1243
 1015MOL0     H33977   7.674   8.515  -0.146 -0.2320 -1.3280 -0.2824
 1015MOL0     H33978   7.880   8.830  -0.002 -1.4011  0.3047  0.9627
 1015MOL0     H33979   7.382   8.356   0.061  2.7480 -2.1112  0.1748
 1015MOL0     H33980   7.152   8.334   0.104  1.4329  0.9882  1.0181
 1016MOL0     O33981   2.868   0.363   2.576 -0.3196 -0.8774 -0.0582
 1016MOL0     C33982   2.877   0.363   2.451  0.2786 -0.3093 -0.0272
 1016MOL0     O33983   2.776   0.352   2.356 -0.1902 -0.0391  1.6063
 1016MOL0     C33984   2.649   0.335   2.391  0.4267 -0.2322 -0.4564
 1016MOL0     C33985   2.572   0.251   2.323  0.0613  0.7418 -0.0968
 1016MOL0     C33986   2.437   0.247   2.350 -0.0398 -0.3127 -0.7957
 1016MOL0     C33987   2.381   0.302   2.467 -0.1110  0.4966 -1.6224
 1016MOL0     O33988   2.238   0.294   2.492 -0.1539 -0.1606 -0.1591
 1016MOL0     C33989   2.164   0.410   2.455  0.6633  0.2005 -0.0596
 1016MOL0     C33990   2.011   0.389   2.457  0.2908  1.0606  0.5545
 1016MOL0     C33991   1.978   0.268   2.369 -0.8433  0.6342  0.6554
 1016MOL0     C33992   1.846   0.274   2.314 -0.4155  0.8997 -1.3483
 1016MOL0     C33993   1.807   0.163   2.214 -0.1605  0.1064  0.0221
 1016MOL0     C33994   1.653   0.180   2.189  0.5952 -0.5004  0.1772
 1016MOL0     C33995   1.554   0.154   2.311  0.2189  0.9649 -0.7092
 1016MOL0     C33996   1.406   0.201   2.279 -0.1652  0.0573 -0.6778
 1016MOL0     N33997   1.391   0.348   2.287  0.5745  0.3848 -0.4326
 1016MOL0     C33998   1.463   0.433   2.365  0.6075  0.2465 -0.3888
 1016MOL0     C33999   1.400   0.550   2.349 -0.3822 -0.4650 -0.6387
 1016MOL0     C34000   1.446   0.681   2.419 -0.1067  0.5998 -1.1558
 1016MOL0     C34001   1.603   0.705   2.397  0.0881 -0.1567  0.2696
 1016MOL0     C34002   1.663   0.818   2.480  0.0696 -0.1327  0.0321
 1016MOL0     C34003   1.809   0.803   2.492  0.5795 -0.2366 -0.2201
 1016MOL0     O34004   1.874   0.927   2.538  0.7716 -0.2086 -0.6821
 1016MOL0     C34005   2.009   0.927   2.579  0.3881 -0.6526 -0.1057
 1016MOL0     C34006   2.062   1.044   2.627  0.1379 -0.4778 -0.6553
 1016MOL0     C34007   2.198   1.053   2.669 -0.3230  0.3307  0.0374
 1016MOL0     C34008   2.275   0.935   2.666 -0.8964  1.0151  0.5751
 1016MOL0     C34009   2.414   0.922   2.713 -0.3726 -0.0356  0.6075
 1016MOL0     O34010   2.471   1.044   2.729 -0.0306 -0.2024 -0.3572
 1016MOL0     C34011   2.596   1.076   2.749 -1.0623 -1.3406 -0.4558
 1016MOL0     C34012   2.625   1.211   2.773 -1.2844 -0.7286 -0.4049
 1016MOL0     C34013   2.756   1.250   2.799 -0.0536  0.2212  0.0055
 1016MOL0     C34014   2.877   1.169   2.788  1.1063 -0.1782  0.1343
 1016MOL0     O34015   3.002   1.218   2.823 -0.2498 -0.5347  1.1031
 1016MOL0     C34016   3.028   1.349   2.769 -0.1646  0.0333 -0.7141
 1016MOL0     C34017   3.171   1.399   2.793  0.0558 -0.1933  0.0283
 1016MOL0     C34018   3.214   1.419   2.943 -0.7380 -0.0085  0.5794
 1016MOL0     C34019   3.355   1.463   2.951  0.5529 -0.0613  0.3627
 1016MOL0     C34020   3.416   1.468   3.096  0.1053  0.4937  1.4092
 1016MOL0     C34021   3.550   1.555   3.087 -0.6733 -0.1218 -1.0830
 1016MOL0     C34022   3.620   1.532   3.227  0.2444  0.3374 -0.3080
 1016MOL0     C34023   3.731   1.629   3.259 -0.2152  0.2101 -0.3165
 1016MOL0    Cl34024   3.809   1.574   3.412 -0.1610 -0.4556  0.2857
 1016MOL0     C34025   2.845   1.042   2.743  0.3163 -0.7851 -0.0017
 1016MOL0     C34026   2.712   1.000   2.727 -0.2947  0.7238 -0.1162
 1016MOL0     O34027   2.463   0.814   2.732 -0.2983 -0.1970  0.5263
 1016MOL0     C34028   2.215   0.815   2.619 -0.7998 -0.5781 -0.7302
 1016MOL0     C34029   2.086   0.814   2.569 -0.0183  1.0256 -0.5865
 1016MOL0     N34030   1.302   0.539   2.252 -0.3971 -0.4154 -0.1826
 1016MOL0     N34031   1.301   0.418   2.210  0.8051 -1.0431 -0.1061
 1016MOL0     C34032   2.461   0.381   2.547  0.0529  0.1632 -0.2087
 1016MOL0     C34033   2.590   0.402   2.502 -0.2084 -0.3891  0.2939
 1016MOL0     C34034   3.018   0.387   2.390  0.0700  0.8062 -0.5310
 1016MOL0     C34035   3.025   0.374   2.247  0.1637  0.4315 -0.5908
 1016MOL0     C34036   3.154   0.365   2.188  0.4511  0.5405  0.5061
 1016MOL0     C34037   3.271   0.356   2.264  0.0435 -0.2217  1.0109
 1016MOL0     O34038   3.382   0.328   2.192  0.2505 -0.0966  0.2953
 1016MOL0     C34039   3.512   0.380   2.214 -0.3209  0.1528 -0.1344
 1016MOL0     C34040   3.524   0.521   2.157 -0.8738 -0.3566 -0.3711
 1016MOL0     C34041   3.659   0.569   2.183 -0.0531 -0.1014  0.0703
 1016MOL0     C34042   3.691   0.706   2.122  0.0792 -0.2540  0.2466
 1016MOL0     C34043   3.691   0.695   1.973 -0.9326  0.2024 -0.9575
 1016MOL0     C34044   3.679   0.696   1.851 -0.0298  0.7594  0.3754
 1016MOL0     C34045   3.261   0.385   2.407  0.8674  0.4570  0.5089
 1016MOL0     C34046   3.135   0.395   2.469  0.3825  0.3118  0.4615
 1016MOL0     H34047   2.619   0.190   2.247 -1.9999  0.0674 -0.8996
 1016MOL0     H34048   2.367   0.195   2.285  0.7407 -3.4740  0.6846
 1016MOL0     H34049   2.180   0.430   2.348 -1.3024 -0.8313 -0.5882
 1016MOL0     H34050   2.196   0.498   2.510  3.4523  0.7799 -2.3188
 1016MOL0     H34051   1.966   0.481   2.419 -0.8783 -0.3118 -1.5944
 1016MOL0     H34052   1.991   0.368   2.563  1.7959 -1.0767  0.4909
 1016MOL0     H34053   1.990   0.179   2.430 -3.2443  0.4528  0.9663
 1016MOL0     H34054   2.060   0.252   2.297  0.3386  2.0242  1.6311
 1016MOL0     H34055   1.780   0.277   2.401  0.3968 -1.9415 -0.5064
 1016MOL0     H34056   1.847   0.360   2.247 -1.1485  1.2987 -0.8484
 1016MOL0     H34057   1.826   0.064   2.258  0.1042 -0.2360 -0.8430
 1016MOL0     H34058   1.872   0.161   2.126  2.0967  1.0878  1.5776
 1016MOL0     H34059   1.636   0.121   2.098  1.2307 -0.2942 -0.0786
 1016MOL0     H34060   1.635   0.285   2.168 -3.1049 -0.6779  1.7107
 1016MOL0     H34061   1.558   0.047   2.329 -1.3328  0.3309 -3.5612
 1016MOL0     H34062   1.588   0.202   2.403  0.3601  0.0727 -0.2894
 1016MOL0     H34063   1.346   0.160   2.360  0.2877  1.7755  0.5783
 1016MOL0     H34064   1.362   0.162   2.186 -0.1220 -0.6380 -0.4060
 1016MOL0     H34065   1.533   0.410   2.444  0.0277 -2.3637 -0.5416
 1016MOL0     H34066   1.420   0.665   2.524  1.2116  0.7148 -0.7949
 1016MOL0     H34067   1.387   0.765   2.380 -1.7801 -1.3357 -3.0368
 1016MOL0     H34068   1.630   0.717   2.291  1.1952 -2.3658  0.2426
 1016MOL0     H34069   1.650   0.612   2.431  1.3828 -0.0728 -1.1663
 1016MOL0     H34070   1.636   0.915   2.438 -0.0941  0.4317  1.3809
 1016MOL0     H34071   1.620   0.810   2.581 -0.3714  0.0456 -0.1383
 1016MOL0     H34072   1.849   0.785   2.392  2.4609  2.9355 -0.1716
 1016MOL0     H34073   1.830   0.714   2.552  0.0254 -0.0737  0.2272
 1016MOL0     H34074   2.000   1.132   2.636 -2.9963 -2.6847  1.4071
 1016MOL0     H34075   2.228   1.149   2.709  0.5271  0.0604  0.0859
 1016MOL0     H34076   2.551   1.286   2.795 -0.2740 -0.2332  1.5751
 1016MOL0     H34077   2.767   1.353   2.831  1.0526  0.1343 -0.0701
 1016MOL0     H34078   2.961   1.431   2.798 -0.1493 -0.5784  1.1915
 1016MOL0     H34079   2.999   1.337   2.664  1.8482 -2.8492 -1.0696
 1016MOL0     H34080   3.184   1.492   2.738 -2.3330  0.5666  0.6220
 1016MOL0     H34081   3.238   1.332   2.740  0.3521  2.0206 -2.6024
 1016MOL0     H34082   3.197   1.328   3.002 -1.2577 -0.5699 -0.4059
 1016MOL0     H34083   3.149   1.492   2.994 -0.0464  2.1994 -1.5167
 1016MOL0     H34084   3.420   1.391   2.900  1.1787  2.0751 -2.0775
 1016MOL0     H34085   3.379   1.550   2.890  1.8686 -2.3670 -2.7205
 1016MOL0     H34086   3.428   1.367   3.135 -2.0249 -0.8016 -1.0136
 1016MOL0     H34087   3.351   1.519   3.168 -0.2209  0.7198  0.9635
 1016MOL0     H34088   3.534   1.662   3.068  2.7037  0.2157 -2.7536
 1016MOL0     H34089   3.620   1.526   3.008  1.2522  0.7598  0.2301
 1016MOL0     H34090   3.550   1.526   3.311 -0.9834 -1.3357 -1.4003
 1016MOL0     H34091   3.655   1.429   3.227  2.3901  0.9249  2.7159
 1016MOL0     H34092   3.701   1.734   3.257 -1.7234 -0.2102 -1.2652
 1016MOL0     H34093   3.805   1.623   3.179  0.7533 -2.6885  0.6637
 1016MOL0     H34094   2.926   0.975   2.717  0.0494 -1.2605  0.3943
 1016MOL0     H34095   2.693   0.895   2.706  1.6466  0.2815  0.2215
 1016MOL0     H34096   2.266   0.719   2.615  0.4101  0.0879 -2.0351
 1016MOL0     H34097   2.048   0.726   2.518  2.0742 -1.1305  1.3406
 1016MOL0     H34098   2.418   0.431   2.633  0.8227  1.7619 -0.7091
 1016MOL0     H34099   2.644   0.475   2.562 -2.9641  1.1068  1.1580
 1016MOL0     H34100   2.945   0.372   2.174  1.3747 -0.8487 -1.9544
 1016MOL0     H34101   3.169   0.364   2.080 -0.6727  0.0277  0.3453
 1016MOL0     H34102   3.583   0.321   2.155 -0.8823 -2.5502  1.7232
 1016MOL0     H34103   3.547   0.370   2.317  0.8933 -2.8901 -0.7287
 1016MOL0     H34104   3.499   0.519   2.050 -1.2896 -0.3194 -0.2797
 1016MOL0     H34105   3.450   0.587   2.205  0.8485  0.5420  1.1402
 1016MOL0     H34106   3.735   0.497   2.152 -0.0065  0.1187 -0.3393
 1016MOL0     H34107   3.663   0.592   2.290  1.3857  2.1530 -0.3866
 1016MOL0     H34108   3.618   0.780   2.155  2.0047  1.8513  0.0241
 1016MOL0     H34109   3.781   0.748   2.167 -0.1693 -2.0629  2.6452
 1016MOL0     H34110   3.668   0.698   1.744 -0.8153 -2.1484  0.3283
 1016MOL0     H34111   3.355   0.368   2.459 -0.2308  0.1903  2.4825
 1016MOL0     H34112   3.141   0.413   2.576  1.6887  0.4904  0.3845
 1017MOL0     O34113   5.040   7.155   7.479 -0.2887  0.5470 -0.0127
 1017MOL0     C34114   5.053   7.279   7.461  0.0895 -0.4322  0.5871
 1017MOL0     O34115   4.956   7.363   7.427 -0.3460  0.4637  0.2903
 1017MOL0     C34116   4.824   7.332   7.431  1.0046  0.4966 -0.4153
 1017MOL0     C34117   4.747   7.424   7.355  0.3705  0.0083  0.6812
 1017MOL0     C34118   4.618   7.393   7.327  0.3673  0.2613  0.3690
 1017MOL0     C34119   4.549   7.278   7.376 -0.3818 -0.0308 -0.0891
 1017MOL0     O34120   4.419   7.244   7.341  0.2146 -0.2258  0.4561
 1017MOL0     C34121   4.336   7.341   7.281  0.6015  0.2260  0.6056
 1017MOL0     C34122   4.195   7.307   7.327 -0.8413 -0.6476 -0.1230
 1017MOL0     C34123   4.095   7.381   7.233  0.4647 -0.4771 -0.3966
 1017MOL0     C34124   3.985   7.448   7.307  0.2952 -0.4128 -0.8962
 1017MOL0     C34125   3.866   7.494   7.214  0.9486 -0.7898 -0.7149
 1017MOL0     C34126   3.768   7.382   7.191  0.6667  0.4903 -0.0165
 1017MOL0     C34127   3.652   7.440   7.110  0.2264 -0.3740 -0.2840
 1017MOL0     C34128   3.538   7.343   7.091 -0.2240 -0.0610 -0.2501
 1017MOL0     N34129   3.439   7.397   7.000 -1.2516  0.6107  1.0248
 1017MOL0     C34130   3.316   7.435   7.037  0.9323  0.6449  0.2181
 1017MOL0     C34131   3.245   7.478   6.928  0.1515  0.6245 -1.2635
 1017MOL0     C34132   3.111   7.547   6.921  0.0781 -0.0314  0.8180
 1017MOL0     C34133   3.000   7.442   6.917  0.1968  0.8308 -0.4114
 1017MOL0     C34134   2.870   7.496   6.979  0.5842 -0.2193  0.9925
 1017MOL0     C34135   2.810   7.619   6.901  0.1277 -0.0899  0.5294
 1017MOL0     O34136   2.737   7.575   6.778 -0.2708  0.2739 -0.4701
 1017MOL0     C34137   2.612   7.519   6.797 -0.7774  1.2292  0.3582
 1017MOL0     C34138   2.558   7.457   6.681  0.3271  0.2235  0.7829
 1017MOL0     C34139   2.426   7.412   6.687  0.0817  0.9148  0.4883
 1017MOL0     C34140   2.349   7.408   6.812  0.1136  0.2328 -0.4124
 1017MOL0     C34141   2.211   7.361   6.822 -0.1841 -0.2463 -0.0885
 1017MOL0     O34142   2.159   7.332   6.704  0.3136  0.4318 -0.8093
 1017MOL0     C34143   2.032   7.302   6.685  1.0144 -0.0056 -0.8904
 1017MOL0     C34144   1.982   7.184   6.629  0.0663 -0.0163  0.1769
 1017MOL0     C34145   1.845   7.168   6.606 -0.0110  0.1797 -0.4787
 1017MOL0     C34146   1.751   7.261   6.652 -0.3652 -0.3095  0.1932
 1017MOL0     O34147   1.616   7.262   6.639  0.2287 -0.6695 -0.1827
 1017MOL0     C34148   1.564   7.167   6.542  0.3968 -0.4239  0.1102
 1017MOL0     C34149   1.418   7.152   6.566  0.8119  0.1056 -0.1161
 1017MOL0     C34150   1.352   7.056   6.465 -0.1493 -1.6775 -0.4759
 1017MOL0     C34151   1.203   7.021   6.483 -0.5303  0.6140 -0.6757
 1017MOL0     C34152   1.172   6.892   6.406 -0.3153 -0.9484 -0.2263
 1017MOL0     C34153   1.225   6.882   6.262 -0.5660  0.3041 -0.4010
 1017MOL0     C34154   1.190   6.744   6.190  0.3817 -1.0924 -0.3642
 1017MOL0     C34155   1.060   6.735   6.105 -0.4933 -0.0626  0.0453
 1017MOL0    Cl34156   0.932   6.726   6.229 -0.1246 -0.3618 -0.1377
 1017MOL0     C34157   1.798   7.384   6.703 -0.1653 -0.3263 -0.2246
 1017MOL0     C34158   1.933   7.405   6.714 -0.2961  0.0493  0.2945
 1017MOL0     O34159   2.155   7.373   6.929  0.1575 -0.1592  0.4022
 1017MOL0     C34160   2.414   7.458   6.933  1.0268 -0.8041  0.6530
 1017MOL0     C34161   2.540   7.513   6.918  1.0849  0.4120 -0.1288
 1017MOL0     N34162   3.328   7.452   6.819  0.6442  0.9413  0.1051
 1017MOL0     N34163   3.446   7.415   6.865 -0.3197 -0.5613  0.6513
 1017MOL0     C34164   4.628   7.199   7.462  0.6313  0.7184 -0.5123
 1017MOL0     C34165   4.758   7.220   7.489 -0.0570  0.6429 -0.1071
 1017MOL0     C34166   5.191   7.338   7.483  0.3372  0.3297  0.2749
 1017MOL0     C34167   5.303   7.253   7.483 -0.3671  0.2934  0.2073
 1017MOL0     C34168   5.431   7.302   7.496 -0.4225  0.3257 -0.7390
 1017MOL0     C34169   5.455   7.435   7.504 -0.0360  0.6101 -0.6127
 1017MOL0     O34170   5.590   7.466   7.530  0.2371 -0.0892 -0.3376
 1017MOL0     C34171   5.619   7.600   7.580 -0.0643  0.3064 -0.5114
 1017MOL0     C34172   5.559   7.628   7.720 -0.3458 -0.0058  0.3284
 1017MOL0     C34173   5.582   7.518   7.817  0.2296  0.3139  0.1021
 1017MOL0     C34174   5.575   7.558   7.965  0.5638 -0.5984 -0.5881
 1017MOL0     C34175   5.671   7.654   8.012  0.1390 -0.8112  0.1550
 1017MOL0     C34176   5.751   7.732   8.041  0.4879  0.2049 -1.1410
 1017MOL0     C34177   5.348   7.526   7.495 -0.0214  0.5927  0.4060
 1017MOL0     C34178   5.216   7.478   7.479 -0.2826  0.4784  0.4619
 1017MOL0     H34179   4.797   7.509   7.308  0.6199  0.9255  2.4949
 1017MOL0     H34180   4.574   7.455   7.249 -1.9367 -2.4884 -0.7141
 1017MOL0     H34181   4.352   7.329   7.173  0.3493 -2.5525  0.7995
 1017MOL0     H34182   4.362   7.441   7.318 -0.8053  0.5139  0.8564
 1017MOL0     H34183   4.191   7.339   7.432 -0.1342  1.2041 -0.6200
 1017MOL0     H34184   4.168   7.201   7.335  4.4644 -2.5217 -2.2194
 1017MOL0     H34185   4.041   7.307   7.174 -1.8700  1.1748 -0.4510
 1017MOL0     H34186   4.139   7.447   7.158  0.4461 -0.0054 -0.0016
 1017MOL0     H34187   3.942   7.383   7.383  0.0855  1.2590  0.4727
 1017MOL0     H34188   4.024   7.535   7.361 -0.0304 -0.1498 -1.0789
 1017MOL0     H34189   3.910   7.533   7.121 -0.6613  1.1780 -0.7173
 1017MOL0     H34190   3.813   7.575   7.265  3.0036  0.6744 -0.7477
 1017MOL0     H34191   3.736   7.339   7.286  1.9554 -1.2278 -0.3184
 1017MOL0     H34192   3.815   7.310   7.124 -1.6912  1.2124 -2.6814
 1017MOL0     H34193   3.623   7.523   7.175  1.6011  1.1735 -1.5513
 1017MOL0     H34194   3.676   7.485   7.013  3.0724  0.2087  0.6121
 1017MOL0     H34195   3.484   7.319   7.183 -0.3500  0.9289 -0.0452
 1017MOL0     H34196   3.575   7.246   7.058 -1.0799 -0.9212  1.1767
 1017MOL0     H34197   3.279   7.436   7.139 -1.4488  1.7471 -0.5768
 1017MOL0     H34198   3.093   7.595   6.824 -1.6136 -1.6441  0.2870
 1017MOL0     H34199   3.098   7.622   6.999  1.6892 -0.2144  1.3134
 1017MOL0     H34200   3.027   7.351   6.972 -1.1792 -0.1464 -1.3152
 1017MOL0     H34201   2.975   7.410   6.816 -3.1834 -1.8709  1.0959
 1017MOL0     H34202   2.804   7.409   6.976  0.4521 -0.0962 -1.6578
 1017MOL0     H34203   2.882   7.532   7.082 -1.5927  3.1895  0.2152
 1017MOL0     H34204   2.892   7.686   6.877 -0.2880  0.1699 -0.2004
 1017MOL0     H34205   2.747   7.673   6.972 -1.2807  1.2353 -1.6079
 1017MOL0     H34206   2.621   7.448   6.594 -2.5448 -3.7324 -1.1821
 1017MOL0     H34207   2.378   7.383   6.594  0.7524 -2.6959  1.1275
 1017MOL0     H34208   2.066   7.121   6.601  1.5901  2.2172 -0.5862
 1017MOL0     H34209   1.806   7.075   6.566  2.7199 -1.0753 -0.4368
 1017MOL0     H34210   1.598   7.064   6.555 -0.8813 -0.7417  1.1494
 1017MOL0     H34211   1.580   7.188   6.436 -2.6860 -0.5987 -0.4755
 1017MOL0     H34212   1.375   7.250   6.545 -1.5632 -1.0615 -1.0011
 1017MOL0     H34213   1.388   7.124   6.667 -0.9325 -3.8179 -1.5212
 1017MOL0     H34214   1.407   6.962   6.477  3.3865  0.1835 -0.9087
 1017MOL0     H34215   1.366   7.100   6.366  1.0042  1.3915  0.9302
 1017MOL0     H34216   1.178   6.999   6.588 -1.1387  0.2609 -0.8909
 1017MOL0     H34217   1.144   7.106   6.446 -2.6943 -0.9657 -1.0678
 1017MOL0     H34218   1.063   6.887   6.400 -0.3524  0.4975 -1.4839
 1017MOL0     H34219   1.215   6.808   6.460 -2.9123 -1.0534  1.8358
 1017MOL0     H34220   1.334   6.882   6.272 -0.7714  0.5830  3.3662
 1017MOL0     H34221   1.198   6.969   6.201 -1.3281  1.3859  1.3864
 1017MOL0     H34222   1.271   6.721   6.121  0.0744 -1.6401 -0.5548
 1017MOL0     H34223   1.186   6.661   6.261  0.7515 -0.9032 -0.1270
 1017MOL0     H34224   1.063   6.642   6.047  1.1242 -0.0539  0.0743
 1017MOL0     H34225   1.050   6.814   6.031 -2.1828  0.0897  0.4009
 1017MOL0     H34226   1.731   7.456   6.747 -1.2448 -0.7178 -1.1824
 1017MOL0     H34227   1.971   7.503   6.742 -0.3482  0.3979 -0.8390
 1017MOL0     H34228   2.367   7.467   7.030  0.3484  2.7543  0.1311
 1017MOL0     H34229   2.580   7.545   7.014 -0.0113 -4.4311  2.3050
 1017MOL0     H34230   4.591   7.110   7.512  1.5340  1.3666  1.4093
 1017MOL0     H34231   4.810   7.141   7.543 -1.2044 -0.0254  0.0419
 1017MOL0     H34232   5.283   7.147   7.471 -0.1852  0.2083  0.6370
 1017MOL0     H34233   5.525   7.248   7.502  1.3292  2.8144 -2.9581
 1017MOL0     H34234   5.591   7.674   7.505  1.2538 -2.0757 -3.5876
 1017MOL0     H34235   5.726   7.611   7.596 -0.3416  0.8143  1.2306
 1017MOL0     H34236   5.594   7.723   7.761  0.0071  0.6869 -1.4540
 1017MOL0     H34237   5.451   7.645   7.709 -0.1070  0.2206 -2.6504
 1017MOL0     H34238   5.680   7.473   7.797 -0.9851 -2.0522 -0.8490
 1017MOL0     H34239   5.515   7.437   7.788  0.3595  0.2526 -0.0299
 1017MOL0     H34240   5.475   7.583   8.001 -0.2346 -2.4596 -1.3369
 1017MOL0     H34241   5.596   7.464   8.017 -1.2525  0.8766  3.2328
 1017MOL0     H34242   5.826   7.797   8.080 -2.0840  1.6423  1.8155
 1017MOL0     H34243   5.368   7.632   7.504  1.0843  0.3265  1.3336
 1017MOL0     H34244   5.141   7.556   7.480  0.7238  1.5353  3.1919
 1018MOL0     O34245   8.088   2.626   2.481  0.1071  0.3583 -0.4623
 1018MOL0     C34246   8.115   2.678   2.372  0.8964 -0.0621  0.2639
 1018MOL0     O34247   8.024   2.723   2.284  0.0887  0.2091  0.7760
 1018MOL0     C34248   7.894   2.721   2.315 -0.1091 -0.1693 -0.9666
 1018MOL0     C34249   7.820   2.842   2.348  0.1369  0.2030  0.4518
 1018MOL0     C34250   7.690   2.833   2.390 -0.2402  0.0157  0.6689
 1018MOL0     C34251   7.633   2.709   2.401  0.4855  0.3729  0.3721
 1018MOL0     O34252   7.511   2.702   2.454  0.5119  0.3619 -0.2704
 1018MOL0     C34253   7.424   2.596   2.409  0.8093 -0.9758  0.4957
 1018MOL0     C34254   7.279   2.648   2.432 -0.6806 -0.2279  0.2552
 1018MOL0     C34255   7.225   2.750   2.336  0.1083  0.8445 -0.1360
 1018MOL0     C34256   7.081   2.798   2.365  0.2117 -0.0203 -0.1652
 1018MOL0     C34257   7.013   2.882   2.255  0.6192 -0.0471  0.4838
 1018MOL0     C34258   6.859   2.916   2.273  0.2705  0.6418  0.0611
 1018MOL0     C34259   6.814   3.036   2.186 -0.9863 -0.2335 -0.4446
 1018MOL0     C34260   6.659   3.040   2.150  0.3631  0.2591 -1.0041
 1018MOL0     N34261   6.569   3.007   2.267  0.8296  0.8471 -0.2899
 1018MOL0     C34262   6.535   2.875   2.295 -1.3027  0.3989 -0.9779
 1018MOL0     C34263   6.444   2.885   2.393  1.3920  0.3678  0.2938
 1018MOL0     C34264   6.373   2.775   2.463  0.6745  0.5992 -1.1278
 1018MOL0     C34265   6.375   2.791   2.617 -1.3044 -0.6216  1.0362
 1018MOL0     C34266   6.248   2.850   2.669 -1.7178 -0.7229 -0.3851
 1018MOL0     C34267   6.268   2.892   2.819  0.1328  0.3222 -0.1232
 1018MOL0     O34268   6.295   2.783   2.906 -0.6993  0.6694 -0.0429
 1018MOL0     C34269   6.190   2.707   2.950 -0.4403  0.7957  0.2140
 1018MOL0     C34270   6.050   2.717   2.909 -1.5604  0.9604  0.0169
 1018MOL0     C34271   5.945   2.653   2.973 -0.0612 -0.3870  0.9425
 1018MOL0     C34272   5.980   2.557   3.067  0.1589  0.4468 -0.1664
 1018MOL0     C34273   5.884   2.478   3.144  0.6758 -0.2119  0.0224
 1018MOL0     O34274   5.754   2.524   3.129  0.1203  0.0734 -0.4825
 1018MOL0     C34275   5.652   2.470   3.207 -0.1179  0.0360 -0.5264
 1018MOL0     C34276   5.529   2.422   3.156  0.2760 -0.8214 -0.2670
 1018MOL0     C34277   5.420   2.376   3.233 -0.1535 -0.1266  1.0477
 1018MOL0     C34278   5.427   2.378   3.371 -0.6117  0.1796 -0.7715
 1018MOL0     O34279   5.334   2.336   3.458  0.2609  0.3473  0.3574
 1018MOL0     C34280   5.252   2.229   3.411 -0.8146  1.0511  0.1428
 1018MOL0     C34281   5.111   2.297   3.373 -0.1183  0.5572  0.2028
 1018MOL0     C34282   4.993   2.196   3.388  0.1267  0.3738  0.4286
 1018MOL0     C34283   4.862   2.233   3.319  0.3706  0.3920 -0.0847
 1018MOL0     C34284   4.744   2.136   3.335  0.6692 -0.4946 -0.3888
 1018MOL0     C34285   4.629   2.155   3.227  0.3429  0.6356 -0.4247
 1018MOL0     C34286   4.518   2.050   3.238 -0.1900 -0.9240 -0.4689
 1018MOL0     C34287   4.394   2.110   3.317  0.6678  0.5350 -0.2499
 1018MOL0    Cl34288   4.267   1.979   3.334  0.2426  0.0542 -0.1375
 1018MOL0     C34289   5.542   2.438   3.420  0.4079 -0.8219  0.2025
 1018MOL0     C34290   5.648   2.490   3.343  0.1461 -0.4622 -0.3260
 1018MOL0     O34291   5.922   2.387   3.217 -0.4518  0.2447 -0.0960
 1018MOL0     C34292   6.115   2.534   3.107 -0.1686 -0.3577 -0.1243
 1018MOL0     C34293   6.215   2.620   3.057 -0.0009  0.0248 -0.2439
 1018MOL0     N34294   6.416   3.015   2.412  0.1563 -0.8603 -0.1062
 1018MOL0     N34295   6.497   3.089   2.343 -0.2020  0.9262  0.3718
 1018MOL0     C34296   7.704   2.593   2.367  0.1454  0.4622 -0.2342
 1018MOL0     C34297   7.828   2.594   2.320  0.0355  0.7037 -0.3503
 1018MOL0     C34298   8.262   2.707   2.345  0.3226 -0.2229 -0.2503
 1018MOL0     C34299   8.359   2.688   2.447  0.2699  0.5545 -0.3562
 1018MOL0     C34300   8.499   2.720   2.430  0.1137  0.2905 -0.1522
 1018MOL0     C34301   8.540   2.765   2.304 -0.9068  0.0971  0.0284
 1018MOL0     O34302   8.673   2.798   2.262  0.4151  0.8126 -0.3658
 1018MOL0     C34303   8.794   2.792   2.344 -0.0932 -1.2054 -0.5022
 1018MOL0     C34304   8.924   2.792   2.259  0.2909  0.0222 -0.9332
 1018MOL0     C34305   8.902   2.909   2.158  0.6231  0.5328 -0.8603
 1018MOL0     C34306   9.039   2.937   2.107 -1.1669 -0.0232  0.3309
 1018MOL0     C34307   9.115   2.836   2.031  0.8878  0.5797 -0.6636
 1018MOL0     C34308   9.186   2.758   1.971  0.6839 -0.0645 -0.3147
 1018MOL0     C34309   8.440   2.779   2.204  0.3753  0.2205  0.3459
 1018MOL0     C34310   8.306   2.750   2.220  0.0241  0.7098  0.3678
 1018MOL0     H34311   7.859   2.943   2.357 -0.7188  0.4045  2.3359
 1018MOL0     H34312   7.638   2.924   2.421 -0.7654 -0.3086  0.7621
 1018MOL0     H34313   7.450   2.505   2.465 -2.6323  0.2411  4.5340
 1018MOL0     H34314   7.444   2.580   2.302  2.2779 -2.8945  0.9885
 1018MOL0     H34315   7.277   2.688   2.533 -3.0033  0.7528 -0.0910
 1018MOL0     H34316   7.209   2.564   2.435 -0.1671 -0.6151  1.7599
 1018MOL0     H34317   7.235   2.700   2.239  1.1300 -2.4728  1.5184
 1018MOL0     H34318   7.288   2.840   2.341  0.1701  0.8008 -0.1255
 1018MOL0     H34319   7.008   2.718   2.375 -2.4575  2.1163 -1.4227
 1018MOL0     H34320   7.073   2.849   2.461 -4.0956 -0.7533  0.0341
 1018MOL0     H34321   7.027   2.828   2.161  1.2806 -3.5927  2.4053
 1018MOL0     H34322   7.069   2.974   2.238 -1.5185  1.5324  1.5676
 1018MOL0     H34323   6.830   2.926   2.378 -0.5409  0.6013 -0.1532
 1018MOL0     H34324   6.801   2.829   2.243  0.8288  0.1593  0.3712
 1018MOL0     H34325   6.834   3.126   2.244 -1.8303  0.2913 -0.9533
 1018MOL0     H34326   6.875   3.040   2.095  0.5244  1.6140  0.5805
 1018MOL0     H34327   6.646   2.961   2.075 -0.4523  0.4807 -1.0969
 1018MOL0     H34328   6.625   3.137   2.113 -2.3362  0.4546  1.5970
 1018MOL0     H34329   6.579   2.789   2.244  0.1456 -0.0465  0.8987
 1018MOL0     H34330   6.428   2.684   2.436  0.8151 -1.1724  4.0281
 1018MOL0     H34331   6.272   2.754   2.425  1.5651 -0.7781 -2.9069
 1018MOL0     H34332   6.457   2.859   2.641 -1.9386  0.0978  1.2025
 1018MOL0     H34333   6.382   2.698   2.675 -1.4460 -1.3100 -0.0100
 1018MOL0     H34334   6.230   2.943   2.615 -1.0625 -1.6721 -2.3436
 1018MOL0     H34335   6.157   2.790   2.661 -1.6220 -1.0518  0.7268
 1018MOL0     H34336   6.175   2.939   2.854  1.6514  1.7452  2.2144
 1018MOL0     H34337   6.342   2.972   2.823 -1.3116  1.8037 -1.5827
 1018MOL0     H34338   6.030   2.788   2.829  0.3211 -0.0740 -1.4596
 1018MOL0     H34339   5.844   2.677   2.941 -0.2544 -0.4636  1.4902
 1018MOL0     H34340   5.511   2.424   3.049 -2.6382 -0.0559  0.1560
 1018MOL0     H34341   5.322   2.362   3.187  0.7633  0.4005 -1.1883
 1018MOL0     H34342   5.240   2.158   3.493  0.1044  1.8849  1.0343
 1018MOL0     H34343   5.292   2.172   3.327 -1.0568 -0.7968  1.2193
 1018MOL0     H34344   5.103   2.333   3.270 -1.1673  1.0666  0.4510
 1018MOL0     H34345   5.103   2.387   3.435  0.2849  0.6585  0.1098
 1018MOL0     H34346   4.984   2.200   3.497  0.0495  2.4839  0.3736
 1018MOL0     H34347   5.026   2.095   3.362  1.9915  0.7009  1.3630
 1018MOL0     H34348   4.829   2.336   3.336  0.0843  0.3730 -0.5239
 1018MOL0     H34349   4.882   2.225   3.212  2.2995 -0.8593  0.3130
 1018MOL0     H34350   4.710   2.160   3.437 -1.3529  0.5009 -1.2330
 1018MOL0     H34351   4.779   2.033   3.328 -2.8214 -1.7414 -1.6361
 1018MOL0     H34352   4.679   2.147   3.130  2.5437  1.9698  0.5306
 1018MOL0     H34353   4.596   2.257   3.247  1.2278  0.6354  1.1791
 1018MOL0     H34354   4.480   2.032   3.137 -1.0921  3.0918 -1.0021
 1018MOL0     H34355   4.550   1.962   3.294 -2.1001 -0.8229  0.9249
 1018MOL0     H34356   4.341   2.189   3.262  2.2917  1.9957  0.1849
 1018MOL0     H34357   4.410   2.157   3.414 -3.8639 -0.0937  1.0490
 1018MOL0     H34358   5.553   2.459   3.526  1.9323  1.2247 -0.3094
 1018MOL0     H34359   5.731   2.542   3.388  0.6356  0.5377 -2.2433
 1018MOL0     H34360   6.136   2.467   3.189  0.9483  4.4169  3.9808
 1018MOL0     H34361   6.314   2.620   3.101 -0.3160 -2.0418  0.5878
 1018MOL0     H34362   7.657   2.496   2.374 -1.0023  0.9013 -1.4612
 1018MOL0     H34363   7.874   2.501   2.288  2.4843  0.9116  2.1784
 1018MOL0     H34364   8.339   2.635   2.540  1.9960  0.9207  0.2657
 1018MOL0     H34365   8.564   2.716   2.517 -0.0295  0.9367 -0.0063
 1018MOL0     H34366   8.793   2.706   2.412  0.0051 -0.2935  0.7046
 1018MOL0     H34367   8.795   2.877   2.414 -1.2654  0.7569 -2.7291
 1018MOL0     H34368   9.014   2.794   2.321  1.1371  0.4240 -2.1324
 1018MOL0     H34369   8.924   2.702   2.197 -2.2957 -1.1784  0.6266
 1018MOL0     H34370   8.863   2.996   2.212  0.6486  1.2402 -1.9546
 1018MOL0     H34371   8.832   2.878   2.080  0.7026 -4.6795  0.7313
 1018MOL0     H34372   9.035   3.026   2.043  0.0023  1.0254  1.6624
 1018MOL0     H34373   9.106   2.968   2.187 -0.8525  1.8262 -0.5813
 1018MOL0     H34374   9.248   2.685   1.924  1.2643  0.7639 -0.8825
 1018MOL0     H34375   8.460   2.839   2.116 -2.1498 -0.8568 -1.0613
 1018MOL0     H34376   8.242   2.759   2.133  1.4800  0.5952 -0.7625
 1019MOL0     O34377   1.670  10.141   0.933 -0.0006 -0.1752  1.1208
 1019MOL0     C34378   1.663  10.214   0.833  0.8651 -0.1377 -0.2122
 1019MOL0     O34379   1.558  10.223   0.750  0.0363  0.3982  0.6373
 1019MOL0     C34380   1.449  10.144   0.769 -0.4296 -0.1093 -0.4569
 1019MOL0     C34381   1.441  10.030   0.689  0.0669 -0.4943  0.2724
 1019MOL0     C34382   1.322   9.957   0.688  0.2444  0.0853 -0.1233
 1019MOL0     C34383   1.215   9.995   0.768  0.5159  1.1485  0.0520
 1019MOL0     O34384   1.106   9.912   0.780  0.0598  0.0156 -0.5988
 1019MOL0     C34385   1.003   9.966   0.704  0.1885  0.2523  0.3746
 1019MOL0     C34386   0.872   9.892   0.730 -0.4685  0.2028  0.0191
 1019MOL0     C34387   0.751   9.975   0.713 -0.1347 -0.0607  0.2334
 1019MOL0     C34388   0.755  10.108   0.787 -0.7387  0.2849 -0.4616
 1019MOL0     C34389   0.614  10.152   0.811 -0.5591 -0.3774  0.0719
 1019MOL0     C34390   0.596  10.295   0.865  0.2235 -0.5085  0.3019
 1019MOL0     C34391   0.455  10.332   0.921 -0.8802 -0.2885 -0.1482
 1019MOL0     C34392   0.349  10.351   0.812 -0.8129  0.4787  0.5391
 1019MOL0     N34393   0.225  10.392   0.854  0.3907 -0.2913 -0.5125
 1019MOL0     C34394   0.157  10.346   0.968 -1.0523 -0.0529  0.8839
 1019MOL0     C34395   0.052  10.429   0.973  1.1573 -0.7266 -0.4360
 1019MOL0     C34396  -0.048  10.451   1.086 -1.0252  0.1782 -0.5054
 1019MOL0     C34397  -0.147  10.572   1.069 -0.7180  0.1244 -0.0339
 1019MOL0     C34398  -0.204  10.611   1.202  0.2575  0.8263 -0.5740
 1019MOL0     C34399  -0.318  10.710   1.185  0.1929 -0.4712  0.4019
 1019MOL0     O34400  -0.363  10.752   1.317  0.4399 -0.7200  0.4723
 1019MOL0     C34401  -0.457  10.853   1.331 -0.0815 -0.7753  0.1713
 1019MOL0     C34402  -0.542  10.898   1.231  0.2242  0.3120 -0.1744
 1019MOL0     C34403  -0.646  10.987   1.253  0.0866  0.1711  0.2183
 1019MOL0     C34404  -0.671  11.029   1.380  0.1149 -0.1279 -0.3862
 1019MOL0     C34405  -0.785  11.122   1.418  0.8612  0.0978 -0.4832
 1019MOL0     O34406  -0.808  11.141   1.545  0.2600  0.5248  0.4666
 1019MOL0     C34407  -0.926  11.205   1.566  0.0762  0.2932 -0.2736
 1019MOL0     C34408  -0.928  11.338   1.601  0.7016  0.2373 -0.2995
 1019MOL0     C34409  -1.053  11.395   1.633  0.4928 -0.1426  0.5451
 1019MOL0     C34410  -1.172  11.321   1.631  0.7823 -0.0146 -0.1592
 1019MOL0     O34411  -1.287  11.392   1.672 -0.0836  0.6806  0.2992
 1019MOL0     C34412  -1.410  11.312   1.684  0.7116  0.5291  0.0805
 1019MOL0     C34413  -1.510  11.420   1.718  0.0449  0.0963 -0.5711
 1019MOL0     C34414  -1.653  11.385   1.735  0.9015 -0.8783 -0.0284
 1019MOL0     C34415  -1.740  11.510   1.701 -0.3382 -0.3201  1.1018
 1019MOL0     C34416  -1.887  11.499   1.728  0.3895 -0.3112 -0.2193
 1019MOL0     C34417  -1.922  11.496   1.879 -0.0805 -0.4439 -0.0659
 1019MOL0     C34418  -2.073  11.461   1.902 -0.0350 -0.7906  0.5066
 1019MOL0     C34419  -2.132  11.480   2.039 -0.1227 -0.7063 -0.0508
 1019MOL0    Cl34420  -2.199  11.648   2.074  0.0946 -0.1486  0.3211
 1019MOL0     C34421  -1.169  11.183   1.593 -0.0732 -0.8006 -0.3791
 1019MOL0     C34422  -1.042  11.131   1.558  0.6406  0.9021  0.2186
 1019MOL0     O34423  -0.841  11.178   1.324  0.5062  0.2713 -0.0302
 1019MOL0     C34424  -0.578  10.987   1.478  1.0541  0.7866 -0.7744
 1019MOL0     C34425  -0.481  10.896   1.459  0.4357  0.4531  0.9135
 1019MOL0     N34426   0.063  10.511   0.858  0.9836  0.0276 -0.0395
 1019MOL0     N34427   0.161  10.487   0.788  0.0767  0.2924  0.2235
 1019MOL0     C34428   1.220  10.117   0.842  1.0265 -0.5638 -0.1690
 1019MOL0     C34429   1.338  10.188   0.842  0.4930  0.3925  0.4319
 1019MOL0     C34430   1.777  10.308   0.813 -0.5755 -0.5545  0.1486
 1019MOL0     C34431   1.777  10.386   0.701  0.5420  0.1778 -0.7750
 1019MOL0     C34432   1.886  10.471   0.675 -0.0100 -1.4385 -0.2421
 1019MOL0     C34433   1.997  10.472   0.759 -0.1938 -0.7255  0.2831
 1019MOL0     O34434   2.095  10.556   0.717 -0.0061 -0.1556  0.2502
 1019MOL0     C34435   2.223  10.559   0.790 -0.6074  0.0304  0.5019
 1019MOL0     C34436   2.332  10.621   0.697 -0.4788  0.2952 -0.0268
 1019MOL0     C34437   2.309  10.768   0.651 -0.1711  0.3960  0.2188
 1019MOL0     C34438   2.433  10.812   0.567  0.0135  0.7190  0.6478
 1019MOL0     C34439   2.553  10.830   0.649 -0.1373  0.1328 -0.5803
 1019MOL0     C34440   2.652  10.876   0.715  0.7913 -0.8164  1.5946
 1019MOL0     C34441   2.005  10.381   0.867 -0.8208  0.2748 -0.8050
 1019MOL0     C34442   1.894  10.301   0.892  0.4890 -0.6183  0.0842
 1019MOL0     H34443   1.537  10.007   0.644  0.5662  1.2857  0.3908
 1019MOL0     H34444   1.312   9.861   0.638  0.3166 -0.6022  1.1448
 1019MOL0     H34445   1.026   9.957   0.597 -0.6695  2.9778 -0.1299
 1019MOL0     H34446   1.001  10.074   0.721  1.1920  0.7127 -1.9763
 1019MOL0     H34447   0.871   9.844   0.828  0.5876 -2.0361 -0.9884
 1019MOL0     H34448   0.876   9.804   0.665 -1.5311  0.3454 -0.2541
 1019MOL0     H34449   0.659   9.936   0.758 -2.7209  2.0199 -2.7010
 1019MOL0     H34450   0.725   9.999   0.609  0.1855 -0.3345  0.0900
 1019MOL0     H34451   0.802  10.093   0.884 -0.0524  1.0699 -0.6519
 1019MOL0     H34452   0.808  10.185   0.730 -0.2069  0.0155 -0.3334
 1019MOL0     H34453   0.583  10.077   0.885  1.0892 -0.9128  0.2802
 1019MOL0     H34454   0.563  10.146   0.715 -2.8036 -0.3021  1.1965
 1019MOL0     H34455   0.618  10.370   0.788  2.3357 -0.3645  0.9745
 1019MOL0     H34456   0.664  10.317   0.949 -0.0026  5.1543 -0.6280
 1019MOL0     H34457   0.425  10.264   1.001 -2.3256  1.9184  1.3019
 1019MOL0     H34458   0.475  10.428   0.970 -0.4116 -0.9333  0.9605
 1019MOL0     H34459   0.335  10.253   0.765  0.5471  0.7832 -0.5516
 1019MOL0     H34460   0.392  10.424   0.743  1.4972 -2.6738 -1.6627
 1019MOL0     H34461   0.183  10.268   1.038  0.2242 -0.1245  0.3635
 1019MOL0     H34462  -0.004  10.474   1.183 -2.4549  0.0038  0.2207
 1019MOL0     H34463  -0.104  10.359   1.107  0.6822 -0.8733 -0.3485
 1019MOL0     H34464  -0.233  10.530   1.017 -0.4100 -0.5016 -0.0429
 1019MOL0     H34465  -0.102  10.653   1.011  3.0208  0.2699  2.6990
 1019MOL0     H34466  -0.238  10.526   1.262  3.2856  0.1752  0.3706
 1019MOL0     H34467  -0.133  10.652   1.273 -0.6259  1.7628 -0.2019
 1019MOL0     H34468  -0.394  10.662   1.123 -0.6197 -0.6054  1.4743
 1019MOL0     H34469  -0.279  10.797   1.129 -0.8019 -1.2713 -1.6430
 1019MOL0     H34470  -0.534  10.870   1.126 -2.4167  2.4364 -1.0549
 1019MOL0     H34471  -0.695  11.027   1.165  1.8737 -1.3097 -1.5375
 1019MOL0     H34472  -0.836  11.394   1.607 -0.8375  2.7782  2.8963
 1019MOL0     H34473  -1.045  11.500   1.661  0.5727 -0.2720  1.0168
 1019MOL0     H34474  -1.401  11.236   1.762  2.4825 -0.5202 -1.0697
 1019MOL0     H34475  -1.445  11.261   1.594  0.8932 -0.4890  0.5777
 1019MOL0     H34476  -1.510  11.495   1.638 -1.5865  0.1899 -0.5117
 1019MOL0     H34477  -1.474  11.458   1.814  1.4617 -3.7618  0.6002
 1019MOL0     H34478  -1.670  11.349   1.837  0.6941 -0.4911  0.0742
 1019MOL0     H34479  -1.687  11.301   1.674  1.3571 -2.3581  1.6660
 1019MOL0     H34480  -1.696  11.591   1.759  2.7509 -1.9830  1.3107
 1019MOL0     H34481  -1.724  11.524   1.594  0.5960  1.4847  1.4323
 1019MOL0     H34482  -1.941  11.422   1.671 -4.9453  1.9407  1.1119
 1019MOL0     H34483  -1.927  11.589   1.682 -1.9309 -1.2460 -0.1856
 1019MOL0     H34484  -1.897  11.592   1.925  3.1147 -1.6723  1.0248
 1019MOL0     H34485  -1.855  11.429   1.932 -1.3452 -1.5294  0.2022
 1019MOL0     H34486  -2.140  11.518   1.838 -2.2163 -0.4416  2.9310
 1019MOL0     H34487  -2.084  11.354   1.882 -0.4647 -0.7797  0.6685
 1019MOL0     H34488  -2.059  11.452   2.115 -2.1260 -2.2876  1.4067
 1019MOL0     H34489  -2.220  11.414   2.042 -1.5538  1.1617  2.0914
 1019MOL0     H34490  -1.258  11.121   1.593 -0.4217 -0.3057 -0.8515
 1019MOL0     H34491  -1.037  11.031   1.518 -0.2977  1.6601 -1.9409
 1019MOL0     H34492  -0.589  11.026   1.579 -0.4869  1.8990 -1.3276
 1019MOL0     H34493  -0.412  10.870   1.539  1.8757 -0.8505 -0.6690
 1019MOL0     H34494   1.129  10.149   0.891  0.8701  0.8274 -1.2996
 1019MOL0     H34495   1.330  10.279   0.901 -1.5102  0.7271 -0.2550
 1019MOL0     H34496   1.689  10.387   0.637  0.2895  0.2212 -0.4286
 1019MOL0     H34497   1.885  10.539   0.591  2.7601 -0.6111  0.2905
 1019MOL0     H34498   2.258  10.458   0.810  2.9764  0.3970 -2.7956
 1019MOL0     H34499   2.219  10.616   0.884 -1.4337  0.0705  0.4480
 1019MOL0     H34500   2.422  10.609   0.758 -1.7420 -1.4928  1.6295
 1019MOL0     H34501   2.342  10.558   0.608 -0.1223  2.5534 -1.6844
 1019MOL0     H34502   2.294  10.840   0.732 -1.0388  0.5679 -0.0894
 1019MOL0     H34503   2.223  10.779   0.585  0.1269  0.2879 -0.1886
 1019MOL0     H34504   2.450  10.731   0.496 -1.4788  0.5933  0.4052
 1019MOL0     H34505   2.423  10.898   0.499  0.5615  0.4939  0.2732
 1019MOL0     H34506   2.730  10.926   0.769  3.8539 -1.6309 -1.7294
 1019MOL0     H34507   2.090  10.366   0.932 -0.9557  0.0521 -0.6802
 1019MOL0     H34508   1.895  10.221   0.966 -2.6466 -1.1764 -0.3639
 1020MOL0     O34509   6.443   1.865   8.625  0.8933 -0.1016 -0.1703
 1020MOL0     C34510   6.388   1.914   8.725  0.1549  0.7225  1.0890
 1020MOL0     O34511   6.265   1.976   8.728  0.1901 -0.0660  0.3342
 1020MOL0     C34512   6.200   1.999   8.606 -0.3000 -0.6714 -0.1856
 1020MOL0     C34513   6.064   2.003   8.616  0.2938 -0.2561 -0.4804
 1020MOL0     C34514   5.980   2.051   8.511 -0.2025 -0.0188 -0.4769
 1020MOL0     C34515   6.039   2.090   8.398 -0.3027  0.2370  0.3153
 1020MOL0     O34516   5.967   2.126   8.291  0.2859  0.8469 -0.2750
 1020MOL0     C34517   5.891   2.243   8.307  0.7717  0.5714 -0.0438
 1020MOL0     C34518   5.752   2.215   8.272 -0.4599  0.4845 -0.2555
 1020MOL0     C34519   5.667   2.321   8.345 -0.3392  0.4328 -0.3230
 1020MOL0     C34520   5.525   2.332   8.268  0.3482  1.2316  0.1676
 1020MOL0     C34521   5.444   2.454   8.296 -0.5898 -1.1333 -0.3491
 1020MOL0     C34522   5.303   2.449   8.236 -1.3109 -0.0787 -0.3148
 1020MOL0     C34523   5.307   2.426   8.089  0.1326 -0.2533 -0.6584
 1020MOL0     C34524   5.175   2.471   8.009 -0.4063  0.7410 -0.5511
 1020MOL0     N34525   5.069   2.388   8.056 -0.2020 -0.1500 -0.1489
 1020MOL0     C34526   5.067   2.248   8.064 -1.6319  0.3068 -0.6477
 1020MOL0     C34527   4.945   2.213   8.105  0.7544 -0.0342  0.5459
 1020MOL0     C34528   4.884   2.076   8.128 -0.1458 -0.2538 -0.2434
 1020MOL0     C34529   4.925   2.037   8.276 -0.1400 -0.6614  0.4508
 1020MOL0     C34530   4.886   2.134   8.384  0.6947  0.4824 -0.2993
 1020MOL0     C34531   4.730   2.139   8.399  0.2349  0.3476 -0.4140
 1020MOL0     O34532   4.700   2.169   8.534 -0.0666 -0.5169 -0.5284
 1020MOL0     C34533   4.564   2.169   8.552  0.0059  0.6786  0.2759
 1020MOL0     C34534   4.494   2.265   8.619  0.7663 -0.4336  0.1965
 1020MOL0     C34535   4.354   2.261   8.639 -0.2787 -0.0379 -0.5784
 1020MOL0     C34536   4.282   2.143   8.620 -0.6016 -0.2045 -0.1068
 1020MOL0     C34537   4.143   2.118   8.665 -0.0244  0.3354  0.1965
 1020MOL0     O34538   4.080   2.000   8.627 -0.8387 -0.3301  0.9657
 1020MOL0     C34539   3.960   1.972   8.685 -0.0174 -0.1835  0.9241
 1020MOL0     C34540   3.928   1.835   8.677 -0.1147  0.3229 -0.1314
 1020MOL0     C34541   3.800   1.790   8.711 -0.3075  0.5555 -0.5262
 1020MOL0     C34542   3.697   1.877   8.758  0.4806 -0.1013 -0.0343
 1020MOL0     O34543   3.570   1.841   8.795  0.3336 -0.6881 -0.3711
 1020MOL0     C34544   3.549   1.700   8.791  0.1180  1.5880 -0.8227
 1020MOL0     C34545   3.415   1.652   8.855  1.0000 -0.7653 -0.2160
 1020MOL0     C34546   3.290   1.710   8.778 -0.2186 -0.3110  0.1890
 1020MOL0     C34547   3.157   1.686   8.844 -0.4388 -0.3031 -0.2827
 1020MOL0     C34548   3.048   1.765   8.775 -0.6249  0.4969  0.2817
 1020MOL0     C34549   2.917   1.749   8.848 -0.4908 -0.1403  0.0673
 1020MOL0     C34550   2.883   1.594   8.873  0.0399 -1.0050 -0.3044
 1020MOL0     C34551   2.745   1.589   8.951  0.1368 -0.1829  0.0315
 1020MOL0    Cl34552   2.721   1.727   9.071 -0.1834 -0.6457 -0.1530
 1020MOL0     C34553   3.734   2.004   8.765 -0.0059  0.1024 -0.2728
 1020MOL0     C34554   3.858   2.057   8.725 -0.6823  0.4661  0.5147
 1020MOL0     O34555   4.094   2.201   8.743  0.2714  0.1875  0.1811
 1020MOL0     C34556   4.352   2.039   8.559 -1.0968  0.0586  1.0344
 1020MOL0     C34557   4.486   2.051   8.528 -0.3095 -0.2265 -0.3460
 1020MOL0     N34558   4.879   2.332   8.126 -0.0385 -0.1202  0.1387
 1020MOL0     N34559   4.944   2.430   8.088 -0.2724  0.1595 -0.9980
 1020MOL0     C34560   6.180   2.088   8.387  0.6088  0.0285  0.1123
 1020MOL0     C34561   6.269   2.049   8.490 -0.1341 -0.5012 -0.7579
 1020MOL0     C34562   6.473   1.925   8.849 -0.0245 -1.2954 -0.5875
 1020MOL0     C34563   6.618   1.922   8.844  0.3264 -0.4690 -0.3405
 1020MOL0     C34564   6.696   1.945   8.959 -0.2277 -0.0155 -0.6585
 1020MOL0     C34565   6.631   1.944   9.079  0.7139 -0.3131  1.0625
 1020MOL0     O34566   6.703   1.943   9.191  0.6632 -0.0283 -0.7789
 1020MOL0     C34567   6.651   1.952   9.327  0.6889 -0.1783  0.2086
 1020MOL0     C34568   6.748   1.969   9.441 -0.0231  0.1526  0.6749
 1020MOL0     C34569   6.688   1.952   9.577 -0.4847 -1.3237  0.1732
 1020MOL0     C34570   6.781   1.948   9.697 -0.1663 -0.8512 -0.0098
 1020MOL0     C34571   6.817   2.091   9.726  0.2943 -0.9535  0.4705
 1020MOL0     C34572   6.852   2.208   9.749 -0.1505 -0.5371 -0.0167
 1020MOL0     C34573   6.492   1.929   9.087  0.3094 -0.0915 -0.6772
 1020MOL0     C34574   6.412   1.924   8.973 -0.2646 -0.2735  1.1573
 1020MOL0     H34575   6.016   1.974   8.710  0.5122  1.1991  0.1086
 1020MOL0     H34576   5.872   2.058   8.517 -0.1800  0.2226 -0.3448
 1020MOL0     H34577   5.923   2.316   8.232 -1.1717  2.1013  0.5329
 1020MOL0     H34578   5.899   2.293   8.404 -1.0431 -1.5568  1.2890
 1020MOL0     H34579   5.728   2.111   8.296  0.2205 -0.0799 -1.9334
 1020MOL0     H34580   5.742   2.211   8.164 -0.1263 -0.4345 -0.2650
 1020MOL0     H34581   5.720   2.417   8.350 -0.9883  0.7215  3.1612
 1020MOL0     H34582   5.649   2.296   8.450 -1.4055  2.0236 -0.0893
 1020MOL0     H34583   5.549   2.343   8.161 -0.1543 -2.0251 -0.3934
 1020MOL0     H34584   5.474   2.237   8.285  2.0621  0.3638  0.6936
 1020MOL0     H34585   5.490   2.544   8.254 -1.9064 -0.0132  0.5123
 1020MOL0     H34586   5.428   2.470   8.403 -1.6113  1.0951 -0.7743
 1020MOL0     H34587   5.257   2.547   8.253  1.8450  1.9033 -2.1569
 1020MOL0     H34588   5.242   2.374   8.287  0.6024 -1.4628  0.0787
 1020MOL0     H34589   5.399   2.459   8.040  1.9135 -3.6703  0.0378
 1020MOL0     H34590   5.309   2.316   8.088 -2.1048 -0.3710  0.8599
 1020MOL0     H34591   5.189   2.457   7.902 -1.6802  0.4155 -0.6960
 1020MOL0     H34592   5.163   2.577   8.031 -0.3870  0.5636  0.3868
 1020MOL0     H34593   5.152   2.185   8.040 -0.2617  2.0677 -0.6080
 1020MOL0     H34594   4.935   2.006   8.061  1.6046  0.0269  0.7200
 1020MOL0     H34595   4.777   2.069   8.107  0.2444 -2.8612 -1.7381
 1020MOL0     H34596   5.030   2.023   8.301 -0.7524  0.6708  4.3068
 1020MOL0     H34597   4.873   1.941   8.290 -0.6538 -0.7456 -1.5763
 1020MOL0     H34598   4.927   2.104   8.481 -0.6501 -0.5590 -0.0280
 1020MOL0     H34599   4.928   2.232   8.358  0.3837  0.5096 -0.7173
 1020MOL0     H34600   4.698   2.036   8.383  0.3391  0.1586  0.5558
 1020MOL0     H34601   4.677   2.219   8.347  0.1480  1.1954  0.9367
 1020MOL0     H34602   4.548   2.351   8.656 -1.8549  0.3696  2.5037
 1020MOL0     H34603   4.294   2.344   8.674 -0.5893 -0.8295  0.8448
 1020MOL0     H34604   3.996   1.762   8.635 -2.4494 -0.3419 -3.1815
 1020MOL0     H34605   3.795   1.683   8.694  1.3888  0.6909 -2.2751
 1020MOL0     H34606   3.633   1.645   8.834  0.7355  3.6147  0.6809
 1020MOL0     H34607   3.545   1.657   8.690 -1.8675  1.2774 -0.6635
 1020MOL0     H34608   3.414   1.678   8.961 -0.7458 -3.1302  0.4430
 1020MOL0     H34609   3.408   1.543   8.852 -1.2182 -0.9536  4.1655
 1020MOL0     H34610   3.274   1.655   8.685 -1.9446  0.8920 -0.2624
 1020MOL0     H34611   3.300   1.815   8.749 -1.7151  0.0322  0.8479
 1020MOL0     H34612   3.148   1.577   8.844  1.7660 -0.6012 -3.1903
 1020MOL0     H34613   3.163   1.710   8.950 -2.3598 -0.0480 -0.1937
 1020MOL0     H34614   3.046   1.720   8.675 -1.3997  2.4823 -0.6691
 1020MOL0     H34615   3.075   1.871   8.764 -0.7013  0.2851 -3.6143
 1020MOL0     H34616   2.854   1.803   8.776 -1.9310 -1.6392  0.1318
 1020MOL0     H34617   2.939   1.815   8.932  2.2658  1.2576 -1.5780
 1020MOL0     H34618   2.877   1.526   8.788  1.0641 -0.8384 -0.5134
 1020MOL0     H34619   2.957   1.557   8.944  0.0678 -3.8757 -1.6718
 1020MOL0     H34620   2.736   1.490   8.996  2.6350 -1.0009 -1.0611
 1020MOL0     H34621   2.669   1.591   8.872 -1.2606  1.3709  1.3603
 1020MOL0     H34622   3.657   2.071   8.801 -0.1213  0.8929 -1.8822
 1020MOL0     H34623   3.869   2.165   8.728 -0.4684  0.4514  0.2553
 1020MOL0     H34624   4.302   1.947   8.530 -0.3678 -0.9867  2.9438
 1020MOL0     H34625   4.533   1.963   8.484 -0.4817 -1.0228  0.9969
 1020MOL0     H34626   6.230   2.134   8.302 -0.8201  3.1843  0.8117
 1020MOL0     H34627   6.375   2.070   8.492  0.2750 -2.3862  0.6698
 1020MOL0     H34628   6.666   1.921   8.747  0.8634 -3.0299 -0.1278
 1020MOL0     H34629   6.803   1.945   8.948 -0.1584 -1.1307 -0.1814
 1020MOL0     H34630   6.602   1.856   9.348  1.3663 -0.5197  0.2700
 1020MOL0     H34631   6.584   2.038   9.330  2.1153  1.2400 -3.4839
 1020MOL0     H34632   6.832   1.899   9.427 -0.7475 -0.6085  0.0484
 1020MOL0     H34633   6.778   2.073   9.424  1.3069 -0.2514  0.4064
 1020MOL0     H34634   6.645   1.851   9.582 -1.0211 -1.2226 -1.8020
 1020MOL0     H34635   6.612   2.030   9.592 -1.1638 -1.3413 -2.6075
 1020MOL0     H34636   6.727   1.908   9.783  0.3073  1.4070  1.4270
 1020MOL0     H34637   6.875   1.895   9.679  0.1807 -0.3235  0.2525
 1020MOL0     H34638   6.896   2.303   9.773  0.2222 -0.6339 -0.2965
 1020MOL0     H34639   6.446   1.943   9.184  0.8213  1.1340 -0.5946
 1020MOL0     H34640   6.304   1.932   8.985 -0.3474  1.0789 -0.2219
 1021MOL0     O34641  10.709   3.870   0.113  0.1915  0.3719  0.3737
 1021MOL0     C34642  10.726   3.904  -0.007  0.4516  0.3447 -0.2784
 1021MOL0     O34643  10.630   3.957  -0.083 -0.4489  0.5520 -0.0769
 1021MOL0     C34644  10.497   3.976  -0.050  0.0358 -0.1622  0.7404
 1021MOL0     C34645  10.461   4.050   0.059 -0.8304  0.6187  0.2305
 1021MOL0     C34646  10.332   4.077   0.090  0.7209  0.6023 -0.1439
 1021MOL0     C34647  10.226   4.033   0.004  0.7360 -0.2184 -0.5722
 1021MOL0     O34648  10.098   4.045   0.055  1.4001  0.3560 -0.2706
 1021MOL0     C34649   9.995   3.949   0.010 -0.0811  0.0957 -0.2664
 1021MOL0     C34650   9.883   4.015  -0.058 -0.4301 -0.7579 -0.1583
 1021MOL0     C34651   9.748   3.940  -0.047 -0.0550  0.5037  0.5163
 1021MOL0     C34652   9.760   3.791  -0.102  0.0731  1.4198  0.1342
 1021MOL0     C34653   9.626   3.717  -0.102 -0.4909 -0.2125  0.2933
 1021MOL0     C34654   9.524   3.786  -0.196  0.0403  0.1862 -0.4953
 1021MOL0     C34655   9.393   3.704  -0.184  0.0249 -0.3543 -0.4851
 1021MOL0     C34656   9.300   3.767  -0.282  0.0769 -0.4288  0.2003
 1021MOL0     N34657   9.166   3.703  -0.282  0.3885 -0.0317 -0.7287
 1021MOL0     C34658   9.076   3.704  -0.174 -0.2375 -0.4303 -0.0986
 1021MOL0     C34659   8.964   3.653  -0.227  0.4909 -0.0877 -0.7346
 1021MOL0     C34660   8.841   3.638  -0.152  0.2964 -0.2432 -0.4503
 1021MOL0     C34661   8.845   3.518  -0.076 -0.0339  0.4873 -0.0288
 1021MOL0     C34662   8.713   3.468  -0.023  1.4896  1.2038 -0.4956
 1021MOL0     C34663   8.632   3.387  -0.122 -0.7838 -0.0764  0.5270
 1021MOL0     O34664   8.487   3.395  -0.090 -0.0259 -0.1104 -0.4272
 1021MOL0     C34665   8.403   3.303  -0.156 -0.0994 -0.4071  0.5011
 1021MOL0     C34666   8.432   3.246  -0.281  0.4115  0.6460  0.5191
 1021MOL0     C34667   8.342   3.159  -0.353 -0.6852 -0.5480 -0.6883
 1021MOL0     C34668   8.219   3.142  -0.307  1.0239 -0.7329 -0.8244
 1021MOL0     C34669   8.124   3.060  -0.385  0.0268  0.7192  0.2249
 1021MOL0     O34670   7.996   3.041  -0.338 -0.6200 -0.6537 -0.5971
 1021MOL0     C34671   7.887   2.984  -0.400 -0.3218 -0.6405 -0.3503
 1021MOL0     C34672   7.785   3.072  -0.434  0.3559 -0.0710  0.6220
 1021MOL0     C34673   7.661   3.021  -0.489 -1.0203 -0.3841  0.1083
 1021MOL0     C34674   7.647   2.879  -0.494 -0.6399 -0.0439  0.4543
 1021MOL0     O34675   7.523   2.832  -0.516 -0.4795 -0.3396  0.5593
 1021MOL0     C34676   7.472   2.719  -0.443 -0.8071  0.2890 -0.3894
 1021MOL0     C34677   7.328   2.751  -0.396 -0.2789 -0.1402 -0.0170
 1021MOL0     C34678   7.325   2.880  -0.314  0.5495  0.0377 -0.0270
 1021MOL0     C34679   7.196   2.900  -0.238  0.7243 -0.3488  0.2436
 1021MOL0     C34680   7.078   2.935  -0.331 -0.0301  0.1189  0.2476
 1021MOL0     C34681   6.954   2.957  -0.246 -0.0922  0.2137 -0.4581
 1021MOL0     C34682   6.837   2.986  -0.342 -1.5700 -0.5918 -0.4032
 1021MOL0     C34683   6.705   3.025  -0.281  0.0492 -0.3071 -0.3271
 1021MOL0    Cl34684   6.717   3.191  -0.239 -0.0229  0.1100  0.2306
 1021MOL0     C34685   7.755   2.794  -0.460  0.1784 -1.1190 -0.0559
 1021MOL0     C34686   7.867   2.853  -0.404 -0.6066  0.3864  0.7137
 1021MOL0     O34687   8.165   3.010  -0.490  0.3312 -0.2861  1.0088
 1021MOL0     C34688   8.182   3.205  -0.183 -0.3751  1.4754  0.2701
 1021MOL0     C34689   8.281   3.267  -0.105 -0.2764 -0.0625 -0.3255
 1021MOL0     N34690   8.986   3.618  -0.359 -0.1585  1.1103 -0.1875
 1021MOL0     N34691   9.109   3.652  -0.388  0.2553 -1.0668  0.3426
 1021MOL0     C34692  10.260   3.969  -0.113 -0.3695  0.9081  0.7775
 1021MOL0     C34693  10.394   3.938  -0.143 -0.2318 -0.2604 -0.7630
 1021MOL0     C34694  10.860   3.886  -0.055  0.5760  0.1351  0.1315
 1021MOL0     C34695  10.944   3.794   0.001  0.3943  0.3922 -0.2073
 1021MOL0     C34696  11.079   3.805  -0.034  0.0948 -0.8016  0.4251
 1021MOL0     C34697  11.129   3.881  -0.134  0.1732 -0.1837 -0.4852
 1021MOL0     O34698  11.269   3.862  -0.143 -0.0025 -0.4682  0.1664
 1021MOL0     C34699  11.327   3.918  -0.267  0.7644 -0.4164 -0.3242
 1021MOL0     C34700  11.484   3.929  -0.255 -0.0688  0.8589 -0.9761
 1021MOL0     C34701  11.549   3.789  -0.236 -0.7720  0.2266  0.4846
 1021MOL0     C34702  11.700   3.801  -0.219 -0.2389  0.0800 -0.0704
 1021MOL0     C34703  11.746   3.665  -0.209 -0.2974 -0.6043 -0.0073
 1021MOL0     C34704  11.798   3.558  -0.195 -0.4981  0.4058 -0.3561
 1021MOL0     C34705  11.040   3.970  -0.201  0.0754  0.8350  0.0392
 1021MOL0     C34706  10.905   3.969  -0.164  0.4663  0.0863 -0.2567
 1021MOL0     H34707  10.540   4.076   0.129 -1.7040 -1.3029  2.0314
 1021MOL0     H34708  10.309   4.140   0.175 -0.4729  0.4522 -0.3383
 1021MOL0     H34709   9.960   3.903   0.103 -1.4839  0.1118 -0.7769
 1021MOL0     H34710  10.025   3.868  -0.058 -2.6514 -1.4409  0.3120
 1021MOL0     H34711   9.919   4.037  -0.159  0.0832 -0.0372  0.1691
 1021MOL0     H34712   9.873   4.113  -0.010 -2.4149 -0.9147 -0.1786
 1021MOL0     H34713   9.674   3.995  -0.106 -0.9016 -1.7828 -0.7049
 1021MOL0     H34714   9.719   3.928   0.057 -0.2947  0.3375  0.4315
 1021MOL0     H34715   9.799   3.796  -0.204 -1.9310 -1.1775 -0.8764
 1021MOL0     H34716   9.831   3.729  -0.046  3.6786  0.1017 -5.1907
 1021MOL0     H34717   9.592   3.705   0.001 -0.6940  0.2479  0.2798
 1021MOL0     H34718   9.635   3.614  -0.138  2.0874  0.6332 -1.8912
 1021MOL0     H34719   9.565   3.796  -0.297 -0.9743 -0.9833 -1.0526
 1021MOL0     H34720   9.506   3.888  -0.161 -0.2477 -0.7506  2.3800
 1021MOL0     H34721   9.405   3.596  -0.202 -0.2320 -0.4791  0.0790
 1021MOL0     H34722   9.344   3.714  -0.087  0.8427 -0.7762 -0.0218
 1021MOL0     H34723   9.334   3.756  -0.386 -0.0603  0.0692  0.1045
 1021MOL0     H34724   9.291   3.874  -0.264 -1.0793 -0.6285  0.8719
 1021MOL0     H34725   9.084   3.744  -0.074  0.4251 -0.0488 -0.2991
 1021MOL0     H34726   8.762   3.634  -0.227  0.6108  2.5855 -1.0331
 1021MOL0     H34727   8.815   3.719  -0.084  0.0244 -0.9049  0.2546
 1021MOL0     H34728   8.904   3.538   0.015  0.3706  0.7149 -0.3391
 1021MOL0     H34729   8.910   3.443  -0.123  1.4973  1.6441  0.1730
 1021MOL0     H34730   8.733   3.417   0.072 -0.2714  2.1841  0.4666
 1021MOL0     H34731   8.656   3.557   0.005  0.2200  1.0404 -2.3766
 1021MOL0     H34732   8.657   3.281  -0.133  0.0718  0.2321 -0.6336
 1021MOL0     H34733   8.632   3.431  -0.222  2.1707 -4.2057 -1.5893
 1021MOL0     H34734   8.530   3.263  -0.324  0.8272 -0.1661  1.1160
 1021MOL0     H34735   8.385   3.108  -0.439 -0.3783 -1.2868 -0.1035
 1021MOL0     H34736   7.797   3.179  -0.420  3.4506  0.0232 -1.5848
 1021MOL0     H34737   7.578   3.088  -0.512 -2.7197 -1.8974  1.5654
 1021MOL0     H34738   7.534   2.713  -0.353  0.1773  2.8667 -0.7921
 1021MOL0     H34739   7.485   2.626  -0.500  1.3511  2.1894 -3.3187
 1021MOL0     H34740   7.279   2.678  -0.331 -1.9047  1.4636  0.6346
 1021MOL0     H34741   7.263   2.763  -0.483 -0.7690 -0.7468  0.2596
 1021MOL0     H34742   7.339   2.973  -0.370 -2.0389 -0.0861 -0.9925
 1021MOL0     H34743   7.395   2.865  -0.231 -1.3349 -0.2974  1.5832
 1021MOL0     H34744   7.169   2.804  -0.194 -0.8582  0.2458  0.6342
 1021MOL0     H34745   7.211   2.980  -0.164  2.4452 -0.6214  0.2354
 1021MOL0     H34746   7.074   2.850  -0.399 -0.3859  0.8409 -0.6505
 1021MOL0     H34747   7.094   3.023  -0.394 -0.7020 -1.1194 -1.7501
 1021MOL0     H34748   6.969   3.044  -0.181 -1.5586 -2.3152  3.7136
 1021MOL0     H34749   6.943   2.877  -0.172 -1.9896  2.4735  1.9110
 1021MOL0     H34750   6.859   3.077  -0.398 -1.6744 -0.6469 -0.5345
 1021MOL0     H34751   6.830   2.911  -0.421 -2.3877  1.8267 -2.7836
 1021MOL0     H34752   6.681   2.967  -0.192  1.1581 -3.0023 -1.6785
 1021MOL0     H34753   6.633   3.010  -0.363  1.1723  3.8240 -2.3272
 1021MOL0     H34754   7.732   2.689  -0.473  0.2275 -1.0747 -0.5169
 1021MOL0     H34755   7.945   2.787  -0.367  0.9119  2.0746  0.6230
 1021MOL0     H34756   8.085   3.185  -0.137  0.1759 -1.6161  0.2703
 1021MOL0     H34757   8.262   3.292  -0.001  2.0283 -2.3050  0.7375
 1021MOL0     H34758  10.184   3.936  -0.183  1.6880 -4.0577  0.4509
 1021MOL0     H34759  10.414   3.890  -0.238  0.4449 -0.3428 -0.5887
 1021MOL0     H34760  10.912   3.738   0.088 -0.9588 -0.6848 -1.3500
 1021MOL0     H34761  11.147   3.733   0.010  1.3817  1.0509  1.6112
 1021MOL0     H34762  11.307   4.025  -0.283  1.0074 -0.6504 -2.3884
 1021MOL0     H34763  11.295   3.870  -0.360 -1.5597  2.7192 -1.3399
 1021MOL0     H34764  11.531   3.972  -0.344 -0.4539 -0.3922 -1.8177
 1021MOL0     H34765  11.507   3.994  -0.170 -2.5804 -0.3792  0.8062
 1021MOL0     H34766  11.527   3.730  -0.325  1.2171 -0.4691  0.4112
 1021MOL0     H34767  11.504   3.731  -0.155 -2.6521 -0.5313 -1.0091
 1021MOL0     H34768  11.756   3.850  -0.299  0.6677  1.1770  1.1866
 1021MOL0     H34769  11.706   3.858  -0.126  0.2167  1.0061 -0.6546
 1021MOL0     H34770  11.839   3.459  -0.194 -1.8515 -0.1823  1.2057
 1021MOL0     H34771  11.085   4.036  -0.274  1.4898 -1.0917 -0.9283
 1021MOL0     H34772  10.825   4.034  -0.199 -3.2569 -2.9358  1.8171
 1022MOL0     O34773   9.854  10.153   1.854 -0.3833 -0.1883  0.3335
 1022MOL0     C34774   9.920  10.251   1.801 -0.5090  0.1872 -0.4122
 1022MOL0     O34775   9.865  10.352   1.738 -0.9849  0.0422  0.3538
 1022MOL0     C34776   9.732  10.365   1.744  0.4389 -0.2298 -0.0079
 1022MOL0     C34777   9.672  10.434   1.853 -0.1469  0.4845  0.2549
 1022MOL0     C34778   9.535  10.443   1.857  0.0532 -0.3169 -0.3927
 1022MOL0     C34779   9.451  10.395   1.751  0.1953 -0.2598 -0.6952
 1022MOL0     O34780   9.314  10.406   1.765  0.2775  0.6634 -0.8482
 1022MOL0     C34781   9.256  10.530   1.782  0.0661  0.3374  0.3032
 1022MOL0     C34782   9.103  10.510   1.759 -0.1792  0.2737 -0.2111
 1022MOL0     C34783   9.029  10.628   1.824  0.1936  0.2664 -0.5852
 1022MOL0     C34784   8.887  10.655   1.771 -0.2539 -0.1506 -0.1005
 1022MOL0     C34785   8.823  10.779   1.833 -0.7840 -0.3595  0.1445
 1022MOL0     C34786   8.682  10.798   1.789 -0.3801 -0.1605 -0.4312
 1022MOL0     C34787   8.605  10.912   1.860 -0.1613 -0.3846  0.0748
 1022MOL0     C34788   8.668  11.055   1.843 -0.1969  0.5941 -1.1088
 1022MOL0     N34789   8.761  11.100   1.952  0.1087  0.6334  0.0905
 1022MOL0     C34790   8.715  11.135   2.078  0.2531 -0.1331 -0.8139
 1022MOL0     C34791   8.829  11.173   2.140 -0.8453  0.3418 -0.1676
 1022MOL0     C34792   8.853  11.223   2.285  0.6590 -0.0606  0.0292
 1022MOL0     C34793   8.724  11.220   2.373 -0.5298  0.5112  0.0381
 1022MOL0     C34794   8.748  11.248   2.522  0.0406 -0.2029 -0.4779
 1022MOL0     C34795   8.619  11.262   2.606  0.4627 -0.5072 -0.1548
 1022MOL0     O34796   8.556  11.139   2.607  0.4398 -0.2326  0.0266
 1022MOL0     C34797   8.429  11.127   2.657 -0.1460  0.4912 -0.0573
 1022MOL0     C34798   8.371  11.006   2.620 -0.5073 -0.0996  0.0618
 1022MOL0     C34799   8.247  10.965   2.661 -0.0010 -0.6265 -0.0413
 1022MOL0     C34800   8.178  11.052   2.746  0.3295 -0.6821  0.0049
 1022MOL0     C34801   8.036  11.023   2.783 -0.0253  0.7081 -0.1606
 1022MOL0     O34802   7.979  11.077   2.896 -0.0492  0.2825 -0.5537
 1022MOL0     C34803   7.852  11.034   2.943 -0.4205 -0.0812 -0.2641
 1022MOL0     C34804   7.743  11.114   2.911 -0.0648  0.5771  0.3185
 1022MOL0     C34805   7.621  11.077   2.953  0.2623  0.4739  0.4203
 1022MOL0     C34806   7.602  10.955   3.013  0.7584 -0.2426  0.2600
 1022MOL0     O34807   7.485  10.910   3.060  0.1204  0.4346  0.0582
 1022MOL0     C34808   7.376  10.922   2.969 -1.2843  0.5218 -0.5580
 1022MOL0     C34809   7.251  10.876   3.022  0.0504  0.5852 -0.1442
 1022MOL0     C34810   7.140  10.837   2.914  0.4246  1.1469 -0.3750
 1022MOL0     C34811   7.110  10.961   2.830 -0.0531  0.4399  0.1448
 1022MOL0     C34812   6.999  10.934   2.729 -0.0982  0.4634 -0.2498
 1022MOL0     C34813   6.886  10.837   2.776  1.2783  0.0955  0.2956
 1022MOL0     C34814   6.758  10.845   2.683 -0.7973  0.5228 -0.6901
 1022MOL0     C34815   6.646  10.754   2.717 -1.3693 -0.5002  0.7824
 1022MOL0    Cl34816   6.586  10.777   2.877 -0.0107 -0.0071  0.0843
 1022MOL0     C34817   7.707  10.875   3.041  0.0744 -0.2747 -0.5930
 1022MOL0     C34818   7.834  10.919   3.010  0.4019 -0.1944 -0.0825
 1022MOL0     O34819   7.979  10.938   2.711  0.4197  0.0476  0.2234
 1022MOL0     C34820   8.224  11.178   2.777  0.2604 -0.4794 -1.2178
 1022MOL0     C34821   8.354  11.214   2.741  0.1399  0.4932 -0.1250
 1022MOL0     N34822   8.937  11.151   2.052 -0.0969  0.0966 -0.2315
 1022MOL0     N34823   8.888  11.112   1.938  0.7383 -0.5674 -0.5849
 1022MOL0     C34824   9.515  10.341   1.634 -0.7403 -0.4225 -0.2314
 1022MOL0     C34825   9.655  10.326   1.633  0.6201 -0.2462  0.1400
 1022MOL0     C34826  10.065  10.236   1.799  0.0503  0.0402 -0.0981
 1022MOL0     C34827  10.146  10.307   1.711  0.4315  0.4694 -0.2427
 1022MOL0     C34828  10.282  10.292   1.699  0.5658  0.2106  0.0831
 1022MOL0     C34829  10.344  10.188   1.770  0.2638 -0.7834 -0.7648
 1022MOL0     O34830  10.478  10.185   1.752  0.1520  0.0980  1.2472
 1022MOL0     C34831  10.553  10.084   1.821  0.3270  0.5117  0.6402
 1022MOL0     C34832  10.580  10.109   1.971 -0.0550 -1.0765 -0.1179
 1022MOL0     C34833  10.662  10.243   1.970 -0.2263 -0.0213  0.3231
 1022MOL0     C34834  10.696  10.286   2.112  0.0627  0.2522 -0.1585
 1022MOL0     C34835  10.588  10.321   2.204 -0.3964  0.0262 -0.0879
 1022MOL0     C34836  10.505  10.344   2.292  0.3402  0.0855 -0.2528
 1022MOL0     C34837  10.261  10.109   1.853 -0.2698  0.2053  0.3132
 1022MOL0     C34838  10.127  10.134   1.869 -0.2883  0.2558 -0.6309
 1022MOL0     H34839   9.742  10.462   1.930 -0.1706 -0.4177  0.6096
 1022MOL0     H34840   9.479  10.481   1.942  1.5571 -0.0219  0.5095
 1022MOL0     H34841   9.298  10.599   1.708 -0.6628 -0.4979 -0.9345
 1022MOL0     H34842   9.280  10.559   1.884 -3.2667  3.8361  0.3025
 1022MOL0     H34843   9.072  10.422   1.817  1.4233  0.6490  1.3225
 1022MOL0     H34844   9.076  10.499   1.654 -2.4616  1.6090  0.1736
 1022MOL0     H34845   9.088  10.717   1.800 -2.0229  1.9818 -0.0236
 1022MOL0     H34846   9.030  10.626   1.933  1.6852 -0.2809 -0.5778
 1022MOL0     H34847   8.881  10.664   1.662 -2.9963 -0.8395 -0.0859
 1022MOL0     H34848   8.835  10.563   1.799  0.3943 -1.5242 -3.0464
 1022MOL0     H34849   8.884  10.863   1.798 -0.0733 -0.9174  0.0172
 1022MOL0     H34850   8.822  10.787   1.942 -1.6317  1.5762  0.0273
 1022MOL0     H34851   8.630  10.705   1.813  1.5241 -1.0420  0.4370
 1022MOL0     H34852   8.680  10.808   1.680  2.4169  0.5446 -0.4819
 1022MOL0     H34853   8.510  10.911   1.807  0.4235 -3.8167 -1.1900
 1022MOL0     H34854   8.597  10.900   1.969  0.2823  1.9626  0.4233
 1022MOL0     H34855   8.586  11.125   1.862 -3.4803 -3.0414 -0.8034
 1022MOL0     H34856   8.707  11.074   1.743 -2.3599  0.6328 -1.9996
 1022MOL0     H34857   8.611  11.136   2.111 -1.2179 -3.4967 -4.5068
 1022MOL0     H34858   8.890  11.325   2.270  3.0187 -0.9355 -0.5813
 1022MOL0     H34859   8.939  11.165   2.321 -1.0515 -2.5834  0.3015
 1022MOL0     H34860   8.678  11.122   2.362  0.0763  0.4909 -3.2446
 1022MOL0     H34861   8.659  11.296   2.328  1.3729  3.6791  2.2218
 1022MOL0     H34862   8.811  11.170   2.565  0.7176  2.3393  3.7297
 1022MOL0     H34863   8.802  11.343   2.520 -1.0488  0.4237 -1.7677
 1022MOL0     H34864   8.556  11.347   2.580 -1.4372 -1.0754  2.2209
 1022MOL0     H34865   8.634  11.288   2.711  0.1375 -1.2992  0.0932
 1022MOL0     H34866   8.437  10.941   2.563  0.8654  1.7267 -0.5334
 1022MOL0     H34867   8.202  10.871   2.633  0.5020 -1.1304  0.7950
 1022MOL0     H34868   7.748  11.209   2.858  1.3358 -0.4722 -1.5240
 1022MOL0     H34869   7.534  11.142   2.949 -0.2208 -0.2170 -0.9686
 1022MOL0     H34870   7.401  10.864   2.880  3.6926  1.6809 -0.1602
 1022MOL0     H34871   7.368  11.023   2.927  0.4734  2.0521  2.4966
 1022MOL0     H34872   7.220  10.954   3.092 -0.8222  1.6046 -1.6277
 1022MOL0     H34873   7.275  10.788   3.083  0.2914  1.3174  0.8423
 1022MOL0     H34874   7.044  10.804   2.955  0.6870 -1.7674 -1.7830
 1022MOL0     H34875   7.178  10.750   2.858 -0.6045 -0.6323  1.5578
 1022MOL0     H34876   7.074  11.043   2.892  0.2855 -1.6854  3.4224
 1022MOL0     H34877   7.203  10.992   2.782  0.5765  1.5048  1.9521
 1022MOL0     H34878   7.040  10.873   2.648  2.7860  1.2785  0.4939
 1022MOL0     H34879   6.946  11.024   2.698 -0.1583  0.2240 -0.8575
 1022MOL0     H34880   6.852  10.857   2.878  2.0565  1.1908  0.3560
 1022MOL0     H34881   6.931  10.738   2.773  1.0572 -0.0048  0.2258
 1022MOL0     H34882   6.713  10.945   2.687 -0.9061  0.5243 -1.6449
 1022MOL0     H34883   6.805  10.827   2.586  1.3930 -2.9457  0.8072
 1022MOL0     H34884   6.689  10.653   2.707  3.8899  1.5919 -1.0762
 1022MOL0     H34885   6.560  10.770   2.652 -2.3590 -1.1147  1.8874
 1022MOL0     H34886   7.696  10.778   3.090  1.8767 -0.5067 -0.5675
 1022MOL0     H34887   7.918  10.852   3.020  0.7803 -0.1305 -2.2339
 1022MOL0     H34888   8.159  11.237   2.840  1.1087  2.6701 -3.0458
 1022MOL0     H34889   8.392  11.314   2.758 -1.4448  1.5044 -2.0265
 1022MOL0     H34890   9.466  10.307   1.544  0.1268  1.9177 -1.6937
 1022MOL0     H34891   9.699  10.283   1.543  0.3644 -0.6335  0.1946
 1022MOL0     H34892  10.099  10.380   1.646 -0.8609  0.5712  0.7538
 1022MOL0     H34893  10.340  10.357   1.635 -0.6651  3.0685  1.6907
 1022MOL0     H34894  10.647  10.066   1.768 -1.3791 -1.4115 -1.9598
 1022MOL0     H34895  10.508   9.986   1.805 -0.2605  1.0913 -1.4335
 1022MOL0     H34896  10.481  10.113   2.016  0.1223  1.4433  0.1578
 1022MOL0     H34897  10.641  10.038   2.027 -1.4112 -0.3069  2.4610
 1022MOL0     H34898  10.620  10.328   1.915  2.0486  1.0857  0.1763
 1022MOL0     H34899  10.758  10.220   1.923 -0.4951 -0.1640 -0.1614
 1022MOL0     H34900  10.759  10.206   2.153  0.2358  0.2090 -0.5035
 1022MOL0     H34901  10.766  10.370   2.107 -0.9523  1.1718  0.6032
 1022MOL0     H34902  10.428  10.381   2.357 -1.4489 -2.0651 -1.0069
 1022MOL0     H34903  10.308  10.022   1.897  0.8088  0.5575 -0.0889
 1022MOL0     H34904  10.063  10.067   1.926  0.1438  0.5853  0.2520
 1023MOL0     O34905   4.394   6.420   5.290 -0.8452 -0.1430  0.1487
 1023MOL0     C34906   4.491   6.498   5.266 -0.0259  0.1245  0.5397
 1023MOL0     O34907   4.538   6.514   5.143 -0.2037 -0.6470 -0.7118
 1023MOL0     C34908   4.476   6.455   5.027  0.5965 -0.3786 -0.8284
 1023MOL0     C34909   4.542   6.405   4.920 -0.1377  0.4109 -0.4919
 1023MOL0     C34910   4.482   6.380   4.799 -0.0053  0.3113  0.0599
 1023MOL0     C34911   4.348   6.390   4.784  0.0822  0.8064  0.5275
 1023MOL0     O34912   4.314   6.353   4.656  0.0610  0.4367 -0.2549
 1023MOL0     C34913   4.173   6.372   4.623 -0.5642 -0.3802 -0.2005
 1023MOL0     C34914   4.131   6.514   4.588  0.8986 -1.1174  0.2468
 1023MOL0     C34915   3.993   6.522   4.516 -0.0730  0.5159  0.1067
 1023MOL0     C34916   3.873   6.467   4.598  0.4681  0.6891 -0.0654
 1023MOL0     C34917   3.743   6.470   4.519  0.1049 -0.0684  0.1939
 1023MOL0     C34918   3.621   6.439   4.606 -0.6510  0.3498 -0.2660
 1023MOL0     C34919   3.494   6.403   4.517 -0.4218 -0.1328 -0.4339
 1023MOL0     C34920   3.452   6.527   4.433  0.4018  0.5118 -0.5189
 1023MOL0     N34921   3.315   6.513   4.388 -0.1704 -0.3522  0.0415
 1023MOL0     C34922   3.204   6.507   4.468 -0.9564  0.3839 -0.5455
 1023MOL0     C34923   3.110   6.472   4.374  0.3410  0.4709 -0.1343
 1023MOL0     C34924   2.967   6.434   4.404  0.6134  0.3093 -1.1724
 1023MOL0     C34925   2.855   6.514   4.323 -0.0712 -0.1624  0.7235
 1023MOL0     C34926   2.719   6.490   4.386 -0.9553 -0.0618 -0.6850
 1023MOL0     C34927   2.609   6.555   4.307  0.8769  0.6528 -0.2119
 1023MOL0     O34928   2.484   6.522   4.369  0.0175 -0.1723  0.3717
 1023MOL0     C34929   2.357   6.558   4.315 -0.9411 -0.7396  0.4777
 1023MOL0     C34930   2.262   6.604   4.412 -0.1307  0.0309  0.4650
 1023MOL0     C34931   2.131   6.633   4.374  0.1306 -0.1311 -0.1060
 1023MOL0     C34932   2.087   6.610   4.243  0.6909  0.4209  0.2321
 1023MOL0     C34933   1.941   6.618   4.199 -0.2138 -0.0149 -0.6617
 1023MOL0     O34934   1.864   6.680   4.287  0.5532 -0.5754  0.0608
 1023MOL0     C34935   1.726   6.697   4.262 -0.3652 -0.0737  0.5607
 1023MOL0     C34936   1.683   6.730   4.136  0.4031 -0.3010  0.3350
 1023MOL0     C34937   1.551   6.758   4.123  1.2041  0.7652  0.5215
 1023MOL0     C34938   1.461   6.744   4.229  0.3270 -0.4680 -0.3273
 1023MOL0     O34939   1.331   6.761   4.204 -0.2459  0.4494 -0.0867
 1023MOL0     C34940   1.244   6.664   4.274  0.6176  0.1840 -0.2024
 1023MOL0     C34941   1.112   6.734   4.294  0.0880 -0.4102 -0.0296
 1023MOL0     C34942   1.119   6.834   4.410  0.0482  0.2905 -0.8665
 1023MOL0     C34943   0.993   6.918   4.426 -0.6084 -0.0280  0.1468
 1023MOL0     C34944   0.861   6.842   4.437  0.3147 -0.1118  0.7270
 1023MOL0     C34945   0.858   6.732   4.546 -0.2185 -0.2646 -0.3237
 1023MOL0     C34946   0.869   6.811   4.675 -0.5513 -0.0145  0.0521
 1023MOL0     C34947   0.854   6.734   4.795 -0.5334  0.0440  0.1594
 1023MOL0    Cl34948   0.693   6.660   4.803 -0.2031  0.2502 -0.2815
 1023MOL0     C34949   1.506   6.717   4.362  0.2929 -0.2241  0.5132
 1023MOL0     C34950   1.640   6.689   4.371 -0.0886 -0.4132 -0.2111
 1023MOL0     O34951   1.901   6.571   4.091 -0.2991 -0.5524 -0.5080
 1023MOL0     C34952   2.184   6.573   4.151  0.0424  0.6578  0.5381
 1023MOL0     C34953   2.320   6.552   4.180  0.9685  0.1137 -0.0604
 1023MOL0     N34954   3.159   6.477   4.248 -0.5195 -0.2637 -0.1844
 1023MOL0     N34955   3.282   6.512   4.256  0.4215  0.2106  0.5941
 1023MOL0     C34956   4.265   6.430   4.890  0.0876  0.3326  0.1122
 1023MOL0     C34957   4.333   6.461   5.005  0.6721  0.8080 -0.3380
 1023MOL0     C34958   4.554   6.550   5.382 -0.2410  0.3281 -0.1528
 1023MOL0     C34959   4.509   6.530   5.518  0.1969  0.6946 -0.6105
 1023MOL0     C34960   4.590   6.553   5.631  0.2896 -0.3864  0.4436
 1023MOL0     C34961   4.722   6.586   5.618  1.2207 -0.3578  0.0709
 1023MOL0     O34962   4.806   6.608   5.722 -0.1550  0.1104 -0.4544
 1023MOL0     C34963   4.802   6.519   5.840 -0.2195 -0.0884 -0.2921
 1023MOL0     C34964   4.945   6.508   5.908 -0.4703 -0.9130  0.3964
 1023MOL0     C34965   4.943   6.399   6.015 -0.1871  0.2566  0.0566
 1023MOL0     C34966   4.900   6.442   6.158 -0.0582  0.6301 -0.3603
 1023MOL0     C34967   4.754   6.443   6.170  0.1635  0.1294 -0.8011
 1023MOL0     C34968   4.632   6.426   6.184  0.1270  0.2219  0.7858
 1023MOL0     C34969   4.771   6.609   5.490  0.2893 -0.2379  0.0012
 1023MOL0     C34970   4.687   6.596   5.382  0.5468  0.2074 -0.2409
 1023MOL0     H34971   4.648   6.381   4.921 -0.6760 -2.3195  0.8025
 1023MOL0     H34972   4.543   6.339   4.719  0.1097  0.3949  0.1050
 1023MOL0     H34973   4.122   6.332   4.711  3.4318 -0.9723  2.0937
 1023MOL0     H34974   4.154   6.310   4.536  0.7579 -0.9680 -0.0947
 1023MOL0     H34975   4.213   6.552   4.527  4.6498 -1.3920  4.5988
 1023MOL0     H34976   4.128   6.563   4.685 -0.4651  1.1360 -0.8527
 1023MOL0     H34977   4.010   6.462   4.426  0.2289  0.1057  0.4317
 1023MOL0     H34978   3.976   6.625   4.482 -0.5251 -0.2426 -2.1600
 1023MOL0     H34979   3.876   6.362   4.628 -0.9248 -0.2938 -2.9960
 1023MOL0     H34980   3.868   6.527   4.690  1.5541  1.8121 -0.7044
 1023MOL0     H34981   3.734   6.398   4.438 -0.4639  0.5793 -0.3257
 1023MOL0     H34982   3.723   6.567   4.474  0.3996  0.4969  1.2458
 1023MOL0     H34983   3.614   6.532   4.664  1.0612  2.0768 -2.6440
 1023MOL0     H34984   3.639   6.353   4.670 -3.0257 -0.4065 -0.5144
 1023MOL0     H34985   3.500   6.315   4.453 -5.1631 -0.5520 -0.6278
 1023MOL0     H34986   3.425   6.372   4.596 -2.1084  1.6841 -1.1175
 1023MOL0     H34987   3.520   6.531   4.347  0.7265 -1.3944 -0.4023
 1023MOL0     H34988   3.463   6.617   4.495  1.5784 -0.7862  1.2879
 1023MOL0     H34989   3.187   6.512   4.575 -1.4440  0.1130 -0.6098
 1023MOL0     H34990   2.957   6.444   4.513  2.3154  0.3839 -0.9974
 1023MOL0     H34991   2.960   6.325   4.393 -0.3356  0.2937 -0.4969
 1023MOL0     H34992   2.858   6.482   4.219 -3.1157  2.6608 -0.4216
 1023MOL0     H34993   2.878   6.621   4.330 -0.4002 -0.0851  0.6315
 1023MOL0     H34994   2.698   6.384   4.401 -1.6034  0.1883  0.2540
 1023MOL0     H34995   2.715   6.525   4.490 -3.7769  0.1150 -0.7809
 1023MOL0     H34996   2.620   6.503   4.211  3.8624 -1.6215  1.1925
 1023MOL0     H34997   2.613   6.664   4.298 -0.2856  0.7277  0.0181
 1023MOL0     H34998   2.287   6.629   4.515  0.8336  2.5921 -0.3058
 1023MOL0     H34999   2.061   6.672   4.447 -1.4664  2.5120 -2.8278
 1023MOL0     H35000   1.757   6.753   4.060 -1.4927  2.8145 -0.7695
 1023MOL0     H35001   1.510   6.796   4.030 -1.4947  0.7587  1.5992
 1023MOL0     H35002   1.272   6.631   4.375 -1.9958 -1.8143 -0.0284
 1023MOL0     H35003   1.219   6.574   4.217 -1.3823  0.1342  0.6540
 1023MOL0     H35004   1.039   6.658   4.321  0.2864 -1.3714 -2.0690
 1023MOL0     H35005   1.081   6.777   4.199  0.5415  0.9421  0.3942
 1023MOL0     H35006   1.206   6.900   4.398  1.2660 -0.8986  0.8411
 1023MOL0     H35007   1.158   6.788   4.502  0.1032  0.4519 -0.8070
 1023MOL0     H35008   1.009   6.981   4.515  0.1872 -0.7171  0.5061
 1023MOL0     H35009   0.987   6.990   4.344  0.7164 -1.5001 -1.3098
 1023MOL0     H35010   0.838   6.800   4.339  2.2249  1.5645 -0.5221
 1023MOL0     H35011   0.782   6.917   4.445  0.3330  0.0715 -0.5175
 1023MOL0     H35012   0.941   6.664   4.525  1.1600  1.1925  0.1959
 1023MOL0     H35013   0.766   6.673   4.543 -1.7480  1.9657  0.3639
 1023MOL0     H35014   0.964   6.865   4.672 -0.7446  0.3298  0.0503
 1023MOL0     H35015   0.788   6.885   4.669 -2.0894 -1.6963 -1.3490
 1023MOL0     H35016   0.852   6.807   4.876  0.2370  0.3400 -0.0821
 1023MOL0     H35017   0.933   6.662   4.815 -0.2875  0.3871  0.4248
 1023MOL0     H35018   1.446   6.713   4.453  3.0864 -0.8725  2.4840
 1023MOL0     H35019   1.682   6.665   4.469  0.3091 -0.1771 -0.3207
 1023MOL0     H35020   2.160   6.557   4.046  0.4726 -1.0156  0.6599
 1023MOL0     H35021   2.387   6.519   4.101 -1.5510  0.3784 -2.4812
 1023MOL0     H35022   4.157   6.425   4.884  0.2052 -3.2111 -2.1529
 1023MOL0     H35023   4.277   6.495   5.091  0.6074 -1.1283  0.4258
 1023MOL0     H35024   4.412   6.491   5.548  1.9218 -0.8804  3.8594
 1023MOL0     H35025   4.543   6.550   5.729 -1.7391 -2.4603 -0.5101
 1023MOL0     H35026   4.769   6.418   5.812 -1.3117 -0.2084  1.3250
 1023MOL0     H35027   4.727   6.564   5.905 -2.2868 -2.6275 -0.7721
 1023MOL0     H35028   5.017   6.479   5.831  0.3814 -1.3328  1.3323
 1023MOL0     H35029   4.980   6.600   5.957  0.4199 -2.0101  1.9236
 1023MOL0     H35030   5.041   6.351   6.020  0.4715  1.6133  0.4731
 1023MOL0     H35031   4.870   6.323   5.983  2.9332 -2.6395 -0.8570
 1023MOL0     H35032   4.940   6.370   6.229 -1.2043 -0.3935 -0.7016
 1023MOL0     H35033   4.929   6.544   6.186 -1.0980  1.0071 -0.5953
 1023MOL0     H35034   4.525   6.426   6.186 -0.2865  1.9656 -4.5846
 1023MOL0     H35035   4.871   6.643   5.465 -0.2513 -0.1725 -2.3155
 1023MOL0     H35036   4.729   6.604   5.282  1.3876 -0.6650  0.0321
 1024MOL0     O35037   4.183   1.570  10.893  0.4547 -0.3753 -0.3946
 1024MOL0     C35038   4.231   1.643  10.979  0.0396 -0.0230 -0.4150
 1024MOL0     O35039   4.174   1.704  11.087  0.3563 -0.4676 -0.8792
 1024MOL0     C35040   4.032   1.690  11.119 -0.7862  0.3317 -0.6580
 1024MOL0     C35041   3.996   1.558  11.153  0.1320 -0.7213  0.1522
 1024MOL0     C35042   3.860   1.541  11.178 -0.8235 -0.4731  0.6306
 1024MOL0     C35043   3.768   1.656  11.184 -0.1854  0.5640  0.4424
 1024MOL0     O35044   3.637   1.634  11.215 -0.3316 -0.4992  0.1708
 1024MOL0     C35045   3.539   1.733  11.225 -0.0886 -0.7540  0.9906
 1024MOL0     C35046   3.456   1.706  11.347  0.3394  0.3196 -0.3947
 1024MOL0     C35047   3.300   1.674  11.333 -0.7031  0.7558  0.2727
 1024MOL0     C35048   3.268   1.560  11.238  0.0225 -0.1726 -0.0117
 1024MOL0     C35049   3.126   1.511  11.253  0.1347  1.2840 -0.5319
 1024MOL0     C35050   3.093   1.431  11.382 -0.2418 -0.0422 -0.1817
 1024MOL0     C35051   2.959   1.366  11.373 -1.4401 -0.2550 -0.1516
 1024MOL0     C35052   2.963   1.235  11.458  0.2947 -1.0509 -0.1839
 1024MOL0     N35053   2.842   1.159  11.460  0.3463  0.0746 -0.1441
 1024MOL0     C35054   2.735   1.184  11.537 -0.0303  0.1616 -0.0577
 1024MOL0     C35055   2.642   1.081  11.503  0.6181  0.1560 -1.0134
 1024MOL0     C35056   2.509   1.061  11.560 -0.1132 -0.2814 -0.1452
 1024MOL0     C35057   2.503   0.985  11.690  0.1137 -0.0299  0.2035
 1024MOL0     C35058   2.449   1.071  11.797 -0.3420  0.1687 -0.6055
 1024MOL0     C35059   2.294   1.108  11.797 -0.5817  0.2577  0.0326
 1024MOL0     O35060   2.282   1.211  11.893  0.2005 -0.3098 -0.1836
 1024MOL0     C35061   2.154   1.253  11.934 -0.1374 -0.0445  0.4639
 1024MOL0     C35062   2.150   1.347  12.033 -0.8291 -0.2329 -0.4786
 1024MOL0     C35063   2.027   1.391  12.083  0.0858  0.0566 -0.3335
 1024MOL0     C35064   1.904   1.361  12.009  0.0832  0.7000 -0.3468
 1024MOL0     C35065   1.778   1.426  12.054  0.4272  0.0498 -0.4051
 1024MOL0     O35066   1.666   1.423  11.975  0.2032  0.2975 -0.1951
 1024MOL0     C35067   1.547   1.482  12.020  0.3956 -0.9440  0.6563
 1024MOL0     C35068   1.432   1.404  11.989  0.1919  0.5633  0.1076
 1024MOL0     C35069   1.305   1.455  12.016 -0.1013 -0.6823 -0.2295
 1024MOL0     C35070   1.289   1.586  12.060 -0.2952  0.2931 -0.8336
 1024MOL0     O35071   1.162   1.630  12.076  0.5861 -0.5555 -0.4106
 1024MOL0     C35072   1.119   1.647  12.219 -0.4905 -0.0874 -0.4598
 1024MOL0     C35073   0.964   1.632  12.224 -0.1177 -0.0506 -0.7222
 1024MOL0     C35074   0.886   1.680  12.349  0.1731  0.8813 -0.2673
 1024MOL0     C35075   0.944   1.645  12.491  0.0863  1.4352  1.1797
 1024MOL0     C35076   0.887   1.722  12.607  0.5006 -0.1237 -1.0213
 1024MOL0     C35077   0.737   1.742  12.628 -0.5839 -0.2270  0.2124
 1024MOL0     C35078   0.697   1.839  12.735  0.5348 -0.8491  0.2205
 1024MOL0     C35079   0.545   1.853  12.741 -0.2034  0.2739  0.3139
 1024MOL0    Cl35080   0.511   1.916  12.899  0.0388 -0.0716  0.0614
 1024MOL0     C35081   1.395   1.659  12.104 -0.1441 -0.7974  0.5477
 1024MOL0     C35082   1.528   1.608  12.085  0.5763  0.4065  0.0517
 1024MOL0     O35083   1.779   1.467  12.169 -0.0112 -0.2584  0.2941
 1024MOL0     C35084   1.917   1.256  11.914 -0.2416  0.0385 -0.9080
 1024MOL0     C35085   2.038   1.203  11.875 -0.1284  0.0198 -0.1846
 1024MOL0     N35086   2.701   0.996  11.418 -0.2083  1.2185 -0.0597
 1024MOL0     N35087   2.819   1.042  11.390  0.0427  0.5194 -0.1191
 1024MOL0     C35088   3.819   1.781  11.152 -0.0104  0.5206  0.6380
 1024MOL0     C35089   3.946   1.798  11.118 -0.5255  0.3380 -0.3741
 1024MOL0     C35090   4.381   1.644  10.963  0.1212  0.1933  0.1029
 1024MOL0     C35091   4.458   1.738  11.038  0.4028 -0.3151  1.1420
 1024MOL0     C35092   4.602   1.740  11.018  0.5232 -0.8541  0.9456
 1024MOL0     C35093   4.665   1.650  10.937  0.7146 -1.5701  0.5972
 1024MOL0     O35094   4.798   1.643  10.906  0.0544 -0.4581  0.3605
 1024MOL0     C35095   4.880   1.738  10.971 -0.0798 -0.7097  0.1540
 1024MOL0     C35096   5.028   1.707  10.957 -0.6477 -0.2630 -0.3600
 1024MOL0     C35097   5.098   1.752  10.829 -0.5781  0.1382 -0.6917
 1024MOL0     C35098   5.242   1.786  10.876  0.3364  0.9190 -0.2309
 1024MOL0     C35099   5.311   1.824  10.757 -0.2845  0.5468 -0.2943
 1024MOL0     C35100   5.380   1.859  10.673 -0.9941 -0.6468  0.7763
 1024MOL0     C35101   4.585   1.556  10.874  0.2553 -0.3133 -0.3943
 1024MOL0     C35102   4.449   1.550  10.881 -0.3495  0.1768  0.2644
 1024MOL0     H35103   4.071   1.483  11.130  1.0056  0.5175 -1.1821
 1024MOL0     H35104   3.810   1.445  11.188  0.2937 -1.4580 -2.2607
 1024MOL0     H35105   3.493   1.742  11.126 -0.8178 -1.6411  1.2422
 1024MOL0     H35106   3.578   1.834  11.242 -2.4087 -0.0189  2.4787
 1024MOL0     H35107   3.451   1.792  11.415  0.2497 -0.0992  0.1281
 1024MOL0     H35108   3.515   1.630  11.399  3.4682  1.2060 -2.3369
 1024MOL0     H35109   3.250   1.764  11.295  3.3421  2.0276 -2.7153
 1024MOL0     H35110   3.264   1.639  11.430 -0.5676  1.9062  0.7569
 1024MOL0     H35111   3.277   1.612  11.142 -1.2344  1.7446  0.8463
 1024MOL0     H35112   3.340   1.478  11.244  0.1252 -0.1872 -1.1291
 1024MOL0     H35113   3.102   1.444  11.170  1.5775  0.6177 -0.4541
 1024MOL0     H35114   3.052   1.591  11.242 -2.3690 -0.8677 -0.0580
 1024MOL0     H35115   3.097   1.498  11.469 -0.7700  0.9672 -0.9135
 1024MOL0     H35116   3.175   1.361  11.397  0.0652 -0.1113 -1.9812
 1024MOL0     H35117   2.888   1.437  11.415  0.5038  0.5147  2.0366
 1024MOL0     H35118   2.943   1.327  11.272  0.8731 -1.5028 -0.1264
 1024MOL0     H35119   3.018   1.263  11.548  1.3509  3.0911 -1.8622
 1024MOL0     H35120   3.033   1.172  11.403  0.5282  2.2324 -4.1097
 1024MOL0     H35121   2.727   1.267  11.606  2.0233 -0.5867  1.1700
 1024MOL0     H35122   2.448   1.004  11.489  2.6814 -1.4757 -1.7485
 1024MOL0     H35123   2.460   1.159  11.566 -1.4292 -0.9953  1.7072
 1024MOL0     H35124   2.601   0.950  11.722 -0.6991 -1.0366  1.7479
 1024MOL0     H35125   2.443   0.896  11.668  1.8892 -1.2869  0.2980
 1024MOL0     H35126   2.463   1.011  11.888 -1.5667 -0.8499 -1.0550
 1024MOL0     H35127   2.511   1.160  11.784 -0.1240 -0.1053 -1.5161
 1024MOL0     H35128   2.231   1.023  11.823  0.7110 -1.0034 -0.8197
 1024MOL0     H35129   2.254   1.149  11.704 -0.3527 -0.2502 -0.2956
 1024MOL0     H35130   2.244   1.372  12.082 -2.3281 -1.5101  3.4701
 1024MOL0     H35131   2.029   1.456  12.171 -0.4629  1.8099 -1.5638
 1024MOL0     H35132   1.444   1.312  11.931  0.2608 -0.8522  2.2568
 1024MOL0     H35133   1.222   1.388  11.994 -2.2301  2.1623 -1.4467
 1024MOL0     H35134   1.139   1.751  12.244 -3.0355  0.4434 -0.4616
 1024MOL0     H35135   1.184   1.577  12.273  2.3198  0.1116 -3.2917
 1024MOL0     H35136   0.950   1.524  12.215 -0.8551  0.0712 -1.0344
 1024MOL0     H35137   0.921   1.681  12.136  1.1789  0.1985 -1.2482
 1024MOL0     H35138   0.781   1.653  12.334  0.4300  0.8538 -2.2365
 1024MOL0     H35139   0.886   1.789  12.350 -0.8895  0.8932  0.0196
 1024MOL0     H35140   0.945   1.536  12.502 -2.8329  1.1716 -0.2083
 1024MOL0     H35141   1.050   1.673  12.498  0.5875 -0.6924  3.6906
 1024MOL0     H35142   0.913   1.827  12.593  0.1586  0.3434  1.4385
 1024MOL0     H35143   0.934   1.691  12.701 -0.6075 -1.0842 -0.7615
 1024MOL0     H35144   0.685   1.649  12.652 -0.9572  0.4287  2.1207
 1024MOL0     H35145   0.689   1.779  12.538 -1.8092 -0.1546  0.8782
 1024MOL0     H35146   0.738   1.797  12.827 -0.3953  1.3775  1.7302
 1024MOL0     H35147   0.748   1.937  12.733  2.3409 -1.6963  1.5036
 1024MOL0     H35148   0.483   1.764  12.724 -0.7930  0.5055  1.2316
 1024MOL0     H35149   0.513   1.924  12.664  0.0187 -1.7766 -1.7789
 1024MOL0     H35150   1.395   1.763  12.134  2.2002 -0.5964  0.1024
 1024MOL0     H35151   1.618   1.661  12.115  0.0435  0.9254  0.7695
 1024MOL0     H35152   1.830   1.219  11.862  0.3251 -1.3874 -0.8749
 1024MOL0     H35153   2.048   1.127  11.799  0.4677 -1.4130  1.2630
 1024MOL0     H35154   3.754   1.867  11.142 -1.7801 -0.3009  3.6608
 1024MOL0     H35155   3.984   1.897  11.096 -1.2603  1.0639  1.4510
 1024MOL0     H35156   4.404   1.819  11.088 -0.2795 -0.5969  0.8655
 1024MOL0     H35157   4.666   1.813  11.067  1.9203 -2.4242  1.5883
 1024MOL0     H35158   4.858   1.742  11.078  1.7128  0.9864  0.5279
 1024MOL0     H35159   4.868   1.842  10.939  1.1074 -0.4937  0.3605
 1024MOL0     H35160   5.061   1.763  11.045 -0.6258  0.0332 -0.5551
 1024MOL0     H35161   5.035   1.601  10.982 -1.3983 -0.2662 -0.1347
 1024MOL0     H35162   5.060   1.841  10.779 -2.1671  0.0171  0.2502
 1024MOL0     H35163   5.103   1.668  10.760  4.3914 -1.6168  1.3004
 1024MOL0     H35164   5.245   1.863  10.955  1.2548  1.0298 -0.3674
 1024MOL0     H35165   5.299   1.706  10.923  1.2497  2.5471  1.6012
 1024MOL0     H35166   5.448   1.883  10.594 -1.7856  0.0676  0.2974
 1024MOL0     H35167   4.625   1.496  10.792 -0.1347 -0.2782 -0.6098
 1024MOL0     H35168   4.403   1.469  10.825 -0.2496  0.6577 -0.5247
  11.24367  11.24367  11.24367
